Converted from moscito
17280
    1SOL     ow    1   1.834   4.508   1.315 -0.1397 -0.1044 -0.5495
    1SOL     hw    2   1.899   4.438   1.317  0.7865  0.6086  3.3848
    1SOL     hw    3   1.750   4.465   1.329  0.2618 -0.5844  0.4613
    1SOL     vw    4   1.832   4.493   1.317  0.0355 -0.0734  0.1030
    2SOL     ow    5   4.705   6.038   2.900 -0.4707 -0.0093 -0.0262
    2SOL     hw    6   4.709   5.964   2.961 -1.0616 -0.3311 -0.3686
    2SOL     hw    7   4.625   6.084   2.923 -0.5007  0.0853 -0.3158
    2SOL     vw    8   4.695   6.034   2.911 -0.5527 -0.0391 -0.1094
    3SOL     ow    9   4.363   4.668   0.237  0.0717  0.8779  0.0895
    3SOL     hw   10   4.347   4.595   0.178 -0.4102  1.2687 -0.2761
    3SOL     hw   11   4.453   4.696   0.219  0.4103  0.1087  0.5399
    3SOL     vw   12   4.373   4.662   0.227  0.0527  0.8280  0.1007
    4SOL     ow   13   0.121   4.278   2.157 -0.0509 -0.2299  0.1037
    4SOL     hw   14   0.069   4.348   2.195 -0.2676 -0.4081  0.1353
    4SOL     hw   15   0.138   4.218   2.230  0.5034  0.0050  0.1783
    4SOL     vw   16   0.117   4.279   2.171 -0.0063 -0.2224  0.1177
    5SOL     ow   17   2.499   3.965   5.678  0.3247 -0.0780  0.1772
    5SOL     hw   18   2.572   3.980   5.738  2.0226  3.5055 -2.4266
    5SOL     hw   19   2.431   4.027   5.706 -0.1891 -0.6841  0.2958
    5SOL     vw   20   2.499   3.975   5.689  0.4810  0.3148 -0.1507
    6SOL     ow   21   3.756   2.295   4.231 -0.3613 -0.1261  0.0944
    6SOL     hw   22   3.804   2.331   4.305 -0.0144  0.3205 -0.3492
    6SOL     hw   23   3.708   2.220   4.268 -1.4765  1.0551  1.1250
    6SOL     vw   24   3.756   2.290   4.246 -0.4627  0.0887  0.1719
    7SOL     ow   25   1.140   0.089   3.866  0.0303 -0.0555  0.2028
    7SOL     hw   26   1.096   0.138   3.935  0.7721 -0.4646  0.9801
    7SOL     hw   27   1.226   0.068   3.902  0.4465 -0.2514 -0.8594
    7SOL     vw   28   1.145   0.093   3.880  0.1831 -0.1353  0.1651
    8SOL     ow   29   0.326   5.606   1.777 -0.5891 -0.3313  0.1312
    8SOL     hw   30   0.232   5.613   1.795 -0.5089 -0.4843  0.6228
    8SOL     hw   31   0.366   5.669   1.837 -0.5286  1.3618 -1.5826
    8SOL     vw   32   0.319   5.616   1.788 -0.5705 -0.1283 -0.0301
    9SOL     ow   33   4.165   0.675   5.997 -0.0253 -0.0007  0.4226
    9SOL     hw   34   4.096   0.618   5.963  1.0284 -2.9573  2.7959
    9SOL     hw   35   4.129   0.710   6.078  0.5968 -0.1444  0.7667
    9SOL     vw   36   4.151   0.672   6.003  0.1960 -0.4098  0.7813
   10SOL     ow   37   2.982   1.978   2.630 -0.2129  0.2134  0.1366
   10SOL     hw   38   2.984   2.017   2.717  3.1059  2.0378 -0.5711
   10SOL     hw   39   2.943   2.046   2.575 -1.5619 -0.6249 -0.0014
   10SOL     vw   40   2.977   1.992   2.634  0.0468  0.3435  0.0250
   11SOL     ow   41   6.841   3.761   5.503 -0.1485  0.4609  1.0997
   11SOL     hw   42   6.831   3.853   5.526  1.2756  0.9359 -0.0576
   11SOL     hw   43   6.756   3.722   5.523 -0.5400  1.8601  2.2924
   11SOL     vw   44   6.828   3.768   5.509 -0.0123  0.7082  1.1044
   12SOL     ow   45   4.756   0.157   1.066  0.0359 -0.0646  0.4501
   12SOL     hw   46   4.795   0.194   0.987 -0.5759  0.8596  0.5740
   12SOL     hw   47   4.831   0.122   1.115  1.3102  4.5315  2.2561
   12SOL     vw   48   4.771   0.157   1.062  0.1235  0.6637  0.7047
   13SOL     ow   49   1.506   3.321   2.252 -0.2939  0.1100  0.3359
   13SOL     hw   50   1.443   3.276   2.309 -0.4351  0.8396  0.7699
   13SOL     hw   51   1.543   3.252   2.197 -2.0918 -0.2378 -0.5235
   13SOL     vw   52   1.502   3.306   2.252 -0.5498  0.1602  0.2798
   14SOL     ow   53   5.952   1.177   2.870  1.0295  0.1652 -0.2027
   14SOL     hw   54   6.048   1.183   2.869  1.2941 -1.8893  2.0330
   14SOL     hw   55   5.924   1.257   2.915  2.0311 -0.7909  2.3089
   14SOL     vw   56   5.961   1.188   2.876  1.1966 -0.2319  0.4236
   15SOL     ow   57   2.046   1.841   6.698 -0.2864 -0.2305  0.3040
   15SOL     hw   58   2.008   1.780   6.761 -1.5039  0.6439  0.4577
   15SOL     hw   59   2.087   1.909   6.753  1.4627 -1.0972  0.1410
   15SOL     vw   60   2.046   1.842   6.714 -0.2162 -0.2296  0.3028
   16SOL     ow   61   0.798   2.243   5.946 -0.3515 -0.2206  0.3486
   16SOL     hw   62   0.794   2.338   5.952 -0.9633 -0.1827 -0.4485
   16SOL     hw   63   0.777   2.212   6.034  1.6923  0.3868  1.1067
   16SOL     vw   64   0.794   2.251   5.959 -0.1625 -0.1355  0.3436
   17SOL     ow   65   3.543   3.482   1.119  0.5170  0.3262  0.4430
   17SOL     hw   66   3.537   3.562   1.067 -0.6660  0.0023  0.0282
   17SOL     hw   67   3.479   3.423   1.078  2.6784 -1.5421 -0.4812
   17SOL     vw   68   3.534   3.485   1.106  0.6461  0.0370  0.2664
   18SOL     ow   69   1.471   0.538   4.787 -0.0260  0.4827 -0.9942
   18SOL     hw   70   1.411   0.568   4.720  1.2205 -0.9636 -2.8695
   18SOL     hw   71   1.480   0.444   4.771  1.5772  0.3902  0.1669
   18SOL     vw   72   1.464   0.529   4.776  0.3500  0.2797 -1.0884
   19SOL     ow   73   5.882   3.531   4.229  0.8137  0.1078  0.5621
   19SOL     hw   74   5.939   3.520   4.154  3.4390  0.3240  2.3763
   19SOL     hw   75   5.859   3.442   4.255 -1.1856  0.0505 -1.1514
   19SOL     vw   76   5.886   3.518   4.223  0.8962  0.1289  0.5751
   20SOL     ow   77   5.434   4.571   5.204  0.1085 -0.0039 -0.0082
   20SOL     hw   78   5.384   4.525   5.136  2.3428 -0.2017 -1.6254
   20SOL     hw   79   5.429   4.663   5.178  0.4395 -0.0067 -0.0827
   20SOL     vw   80   5.427   4.577   5.192  0.4468 -0.0305 -0.2315
   21SOL     ow   81   4.060   0.130   5.174 -0.4128 -0.3649  0.0953
   21SOL     hw   82   4.020   0.098   5.255  0.8082 -0.2139  0.7901
   21SOL     hw   83   4.049   0.225   5.178 -0.4181 -0.3639  0.0525
   21SOL     vw   84   4.053   0.138   5.185 -0.2525 -0.3448  0.1812
   22SOL     ow   85   3.383   3.015   3.612  0.0347  0.3259  0.4253
   22SOL     hw   86   3.294   2.980   3.621 -0.2128  1.3141  2.4147
   22SOL     hw   87   3.430   2.948   3.562 -1.2448 -1.3045  1.2982
   22SOL     vw   88   3.377   3.001   3.607 -0.1668  0.2412  0.8030
   23SOL     ow   89   2.363   0.830   6.011  0.6641  0.2437 -0.0975
   23SOL     hw   90   2.438   0.809   6.067 -0.5916  0.1968  1.6760
   23SOL     hw   91   2.312   0.748   6.007 -0.6133  0.9313  0.9656
   23SOL     vw   92   2.366   0.816   6.018  0.3300  0.3282  0.2768
   24SOL     ow   93   2.456   2.146   0.962  0.0992  0.3716  0.2691
   24SOL     hw   94   2.534   2.092   0.970 -0.4841 -1.2913 -3.4012
   24SOL     hw   95   2.400   2.118   1.034  0.8309 -2.1951 -0.0656
   24SOL     vw   96   2.459   2.135   0.973  0.1187 -0.1864 -0.2593
   25SOL     ow   97   6.564   2.664   2.406  0.3474 -0.1716  0.0044
   25SOL     hw   98   6.495   2.701   2.461  0.5524 -0.8844  0.7753
   25SOL     hw   99   6.642   2.667   2.461  0.6890 -0.3763 -0.4635
   25SOL     vw  100   6.565   2.669   2.421  0.4196 -0.2925  0.0445
   26SOL     ow  101   4.129   1.710   1.010 -0.1634  0.4432 -0.0478
   26SOL     hw  102   4.202   1.770   1.023  1.8034 -1.6866 -0.6633
   26SOL     hw  103   4.112   1.713   0.915 -0.8684  0.9091  0.0892
   26SOL     vw  104   4.136   1.718   0.999  0.0031  0.2236 -0.1110
   27SOL     ow  105   1.980   1.107   1.251  0.4867 -0.1523  0.3128
   27SOL     hw  106   2.051   1.069   1.303 -0.3463 -2.9044 -0.4190
   27SOL     hw  107   1.917   1.139   1.316  1.1578 -0.1317  0.9654
   27SOL     vw  108   1.981   1.106   1.267  0.4655 -0.5127  0.3023
   28SOL     ow  109   4.434   6.079   3.944 -0.0253  0.3612 -0.5255
   28SOL     hw  110   4.413   6.038   4.028 -1.1858 -0.9422 -1.4008
   28SOL     hw  111   4.516   6.038   3.917  1.0814  1.7641  0.5505
   28SOL     vw  112   4.442   6.068   3.951 -0.0324  0.3746 -0.4990
   29SOL     ow  113   3.579   0.386   5.929  0.2571 -0.7128  0.2749
   29SOL     hw  114   3.642   0.395   5.857  0.2677 -1.2213  0.2189
   29SOL     hw  115   3.591   0.296   5.960 -0.0554 -0.6344  0.6269
   29SOL     vw  116   3.589   0.375   5.923  0.2171 -0.7695  0.3138
   30SOL     ow  117   6.463   1.321   1.228  1.2957 -0.3572 -0.0158
   30SOL     hw  118   6.449   1.278   1.144  3.3014 -1.1419 -0.0009
   30SOL     hw  119   6.533   1.385   1.212  1.2825 -0.0891  0.9118
   30SOL     vw  120   6.470   1.324   1.215  1.5585 -0.4254  0.1086
   31SOL     ow  121   6.700   2.594   4.555 -0.3061  0.1017 -0.0470
   31SOL     hw  122   6.782   2.595   4.603 -0.2672 -0.8029 -0.0773
   31SOL     hw  123   6.636   2.557   4.616  0.0733 -2.5617 -1.1391
   31SOL     vw  124   6.702   2.589   4.569 -0.2508 -0.3690 -0.1948
   32SOL     ow  125   4.671   5.491   1.956  0.2483 -0.0461 -0.2667
   32SOL     hw  126   4.739   5.482   1.889  0.9493  1.7892  0.1591
   32SOL     hw  127   4.720   5.502   2.037 -0.5301  1.6159  0.0030
   32SOL     vw  128   4.687   5.491   1.958  0.2382  0.4151 -0.1749
   33SOL     ow  129   0.141   0.347   3.782 -0.0651  0.6565  0.3679
   33SOL     hw  130   0.123   0.427   3.731  0.2055  2.5592  3.0615
   33SOL     hw  131   0.231   0.324   3.758  0.6784  2.5184  1.1672
   33SOL     vw  132   0.151   0.355   3.772  0.0687  1.1532  0.8287
   34SOL     ow  133   0.471   0.474   3.044 -0.2103 -0.5920  0.0202
   34SOL     hw  134   0.380   0.501   3.031  0.3932  1.2826 -0.7712
   34SOL     hw  135   0.499   0.443   2.958  0.4387  0.7494 -0.2846
   34SOL     vw  136   0.462   0.474   3.031 -0.0450 -0.1677 -0.1246
   35SOL     ow  137   1.471   2.106   3.693  0.0512 -0.5777  0.3711
   35SOL     hw  138   1.529   2.174   3.726  2.8254 -1.8642 -1.4747
   35SOL     hw  139   1.425   2.147   3.620  0.8294 -0.3157  0.0122
   35SOL     vw  140   1.473   2.120   3.688  0.5199 -0.7129  0.0802
   36SOL     ow  141   1.035   3.666   3.768  0.5129  0.1676 -0.7187
   36SOL     hw  142   1.089   3.623   3.834  1.3714 -0.1870 -1.6239
   36SOL     hw  143   1.079   3.749   3.751  0.7642 -0.1037 -1.4289
   36SOL     vw  144   1.048   3.671   3.774  0.6592  0.0851 -0.9319
   37SOL     ow  145   3.408   1.049   3.579  0.2319 -0.1105 -0.0005
   37SOL     hw  146   3.368   1.075   3.662 -0.1993  0.9710 -0.5184
   37SOL     hw  147   3.405   1.129   3.526  0.2378 -0.8595 -1.1592
   37SOL     vw  148   3.402   1.063   3.583  0.1758 -0.0666 -0.2216
   38SOL     ow  149   3.478   3.522   3.154  0.1441 -0.0126  0.1809
   38SOL     hw  150   3.496   3.541   3.246  1.2478 -0.1894  0.0208
   38SOL     hw  151   3.421   3.594   3.126 -1.6352 -0.8672  1.4199
   38SOL     vw  152   3.473   3.534   3.163  0.0551 -0.1487  0.3233
   39SOL     ow  153   0.428   2.143   0.190  0.0864  0.3863  0.3136
   39SOL     hw  154   0.413   2.049   0.195  0.5010  0.2562 -0.5883
   39SOL     hw  155   0.345   2.182   0.218 -0.5958 -0.2727 -0.6829
   39SOL     vw  156   0.415   2.136   0.194  0.0511  0.2823  0.0632
   40SOL     ow  157   5.910   0.693   4.690 -0.2130  0.1011 -0.1529
   40SOL     hw  158   5.822   0.657   4.685 -0.9293  1.4242  1.7245
   40SOL     hw  159   5.907   0.753   4.765  2.1233  0.6250 -0.4069
   40SOL     vw  160   5.898   0.696   4.699  0.0010  0.3448  0.0615
   41SOL     ow  161   6.633   6.444   1.339  0.5146  0.5831 -0.3570
   41SOL     hw  162   6.621   6.421   1.247 -0.2867  0.6419 -0.2750
   41SOL     hw  163   6.710   6.501   1.340 -1.1350  3.0024 -1.4022
   41SOL     vw  164   6.642   6.448   1.327  0.1912  0.9100 -0.4840
   42SOL     ow  165   4.545   1.618   3.181 -0.1492 -0.2189 -0.1636
   42SOL     hw  166   4.564   1.578   3.096  3.1275  0.5937  0.0546
   42SOL     hw  167   4.626   1.663   3.205 -1.0439 -0.1748  3.2820
   42SOL     vw  168   4.558   1.619   3.173  0.1652 -0.1059  0.3197
   43SOL     ow  169   1.275   1.779   3.113  0.2879  0.1621 -0.7246
   43SOL     hw  170   1.311   1.704   3.065 -0.6462 -0.1530 -0.9687
   43SOL     hw  171   1.309   1.769   3.202 -1.1573 -1.5390 -0.3092
   43SOL     vw  172   1.284   1.767   3.118 -0.0260 -0.1040 -0.7020
   44SOL     ow  173   6.342   0.146   0.935  0.1922  0.0119  0.0902
   44SOL     hw  174   6.346   0.193   1.019 -1.2842 -0.1100  0.2468
   44SOL     hw  175   6.319   0.214   0.871 -0.8289 -0.2680  0.1409
   44SOL     vw  176   6.340   0.161   0.938 -0.1373 -0.0411  0.1175
   45SOL     ow  177   0.166   3.146   1.377  0.0608 -0.4228 -0.5230
   45SOL     hw  178   0.196   3.237   1.386 -0.3914 -0.4302  1.5589
   45SOL     hw  179   0.096   3.150   1.312  0.5804  0.5611 -1.0549
   45SOL     vw  180   0.161   3.159   1.369  0.0697 -0.2940 -0.3185
   46SOL     ow  181   4.871   3.919   5.970 -0.2138  0.5239  0.0487
   46SOL     hw  182   4.952   3.960   5.999  0.6515 -1.0330 -0.0600
   46SOL     hw  183   4.833   3.881   6.049  0.5752 -1.0865 -0.3259
   46SOL     vw  184   4.876   3.920   5.984  0.0043  0.1061 -0.0153
   47SOL     ow  185   5.632   3.636   4.183 -0.6457  0.7674  0.3782
   47SOL     hw  186   5.556   3.693   4.178  0.0120  1.7349  1.0682
   47SOL     hw  187   5.596   3.551   4.211 -1.4841  1.1612  0.5335
   47SOL     vw  188   5.617   3.632   4.186 -0.6697  0.9471  0.4895
   48SOL     ow  189   1.368   6.856   1.450 -0.3639  0.2500 -0.1080
   48SOL     hw  190   1.341   6.852   1.541 -1.0614  2.3113 -0.1832
   48SOL     hw  191   1.462   6.875   1.453 -0.3825  0.2952  0.1724
   48SOL     vw  192   1.377   6.858   1.462 -0.4584  0.5279 -0.0809
   49SOL     ow  193   0.396   0.741   4.892  0.7242  0.2715 -0.2292
   49SOL     hw  194   0.407   0.824   4.846  0.7936  1.0277  1.1123
   49SOL     hw  195   0.375   0.765   4.982 -1.6804 -1.1633 -0.3116
   49SOL     vw  196   0.395   0.755   4.897  0.4161  0.1819 -0.0634
   50SOL     ow  197   5.225   4.905   5.942 -0.3061  0.0635 -0.8398
   50SOL     hw  198   5.186   4.920   5.856 -1.6598 -1.3539 -0.5115
   50SOL     hw  199   5.243   4.993   5.976 -0.7297  0.6675 -2.1230
   50SOL     vw  200   5.222   4.919   5.935 -0.5405 -0.0439 -0.9658
   51SOL     ow  201   4.880   6.200   3.909 -0.7775 -0.1970 -0.6247
   51SOL     hw  202   4.897   6.188   3.816 -1.0926 -0.3543 -0.6618
   51SOL     hw  203   4.826   6.126   3.934 -0.3686 -0.3677 -0.2269
   51SOL     vw  204   4.875   6.189   3.900 -0.7648 -0.2406 -0.5771
   52SOL     ow  205   4.670   1.534   5.617  0.5956 -0.3281  0.0716
   52SOL     hw  206   4.604   1.604   5.621 -0.5318 -1.3584  0.0762
   52SOL     hw  207   4.754   1.580   5.615 -0.1594  1.0748 -1.6447
   52SOL     vw  208   4.672   1.549   5.618  0.3471 -0.2789 -0.1540
   53SOL     ow  209   6.437   5.239   6.284  0.4356  0.3393 -0.1349
   53SOL     hw  210   6.457   5.146   6.276 -0.5345  0.0642  0.4399
   53SOL     hw  211   6.381   5.258   6.209  0.6295  0.4591 -0.2500
   53SOL     vw  212   6.432   5.229   6.273  0.3331  0.3188 -0.0744
   54SOL     ow  213   5.630   1.642   4.699 -0.0911 -0.2986  0.4732
   54SOL     hw  214   5.693   1.683   4.640 -0.8908 -0.6869 -0.6944
   54SOL     hw  215   5.620   1.705   4.771 -1.5763  1.8196 -1.4392
   54SOL     vw  216   5.637   1.656   4.701 -0.3924 -0.0704  0.0668
   55SOL     ow  217   2.288   4.914   5.508 -0.7350 -0.5365  0.4407
   55SOL     hw  218   2.259   4.970   5.436  0.0981 -0.0346  0.4856
   55SOL     hw  219   2.238   4.945   5.584 -0.1048  0.3315  0.5194
   55SOL     vw  220   2.277   4.926   5.509 -0.5420 -0.3557  0.4570
   56SOL     ow  221   4.107   2.694   1.061  0.0999  0.4205  0.0080
   56SOL     hw  222   4.070   2.778   1.034 -0.0477  0.5511  0.6002
   56SOL     hw  223   4.195   2.694   1.025 -0.9144 -0.5258 -2.7086
   56SOL     vw  224   4.114   2.705   1.053 -0.0536  0.3128 -0.2723
   57SOL     ow  225   1.315   6.073   1.645 -0.7020 -0.5093  0.0504
   57SOL     hw  226   1.407   6.076   1.619 -0.3495 -1.2894  1.1622
   57SOL     hw  227   1.300   6.156   1.691 -0.8926  0.1456 -1.1549
   57SOL     vw  228   1.325   6.084   1.648 -0.6807 -0.5260  0.0381
   58SOL     ow  229   4.556   4.075   1.286  0.1984 -0.0863  0.2017
   58SOL     hw  230   4.476   4.055   1.237  0.3153 -4.4225  1.3431
   58SOL     hw  231   4.622   4.094   1.219 -1.0207  0.3747 -0.9012
   58SOL     vw  232   4.554   4.075   1.271  0.0527 -0.5975  0.2068
   59SOL     ow  233   4.092   2.282   4.638  0.4442 -0.9141  0.3819
   59SOL     hw  234   4.145   2.232   4.576 -0.4496 -0.1441 -1.0485
   59SOL     hw  235   4.007   2.237   4.637  0.1099 -0.2810  0.2627
   59SOL     vw  236   4.087   2.269   4.630  0.2820 -0.7290  0.1774
   60SOL     ow  237   3.074   5.547   0.841  0.8738  0.1896  0.5791
   60SOL     hw  238   2.979   5.561   0.837  0.5828 -0.4875  3.0495
   60SOL     hw  239   3.096   5.563   0.933  3.1083 -0.1036  0.1514
   60SOL     vw  240   3.064   5.551   0.853  1.1302  0.0615  0.8486
   61SOL     ow  241   3.787   0.250   1.717 -0.0530 -0.1200 -0.1986
   61SOL     hw  242   3.830   0.206   1.791  0.8694  2.2709  0.7820
   61SOL     hw  243   3.786   0.343   1.741 -5.2715  0.1867 -0.4530
   61SOL     vw  244   3.793   0.256   1.730 -0.6200  0.2359 -0.1028
   62SOL     ow  245   4.332   0.357   1.353 -0.1498  0.8132  0.1130
   62SOL     hw  246   4.321   0.272   1.395 -1.2301  0.4616 -0.8446
   62SOL     hw  247   4.247   0.377   1.315  0.6164  1.3978 -1.3829
   62SOL     vw  248   4.319   0.349   1.353 -0.1912  0.8439 -0.2106
   63SOL     ow  249   1.412   1.960   4.004  0.1368 -0.3508 -0.7001
   63SOL     hw  250   1.372   2.000   4.081 -1.4305 -0.7292 -1.2973
   63SOL     hw  251   1.483   1.906   4.040  0.0269  0.1958  0.3894
   63SOL     vw  252   1.416   1.958   4.019 -0.0845 -0.3287 -0.6351
   64SOL     ow  253   2.458   2.458   5.812 -0.1830  0.4151 -0.0403
   64SOL     hw  254   2.492   2.390   5.754 -0.4190  0.9906 -0.8681
   64SOL     hw  255   2.365   2.437   5.821 -0.3243  0.7874 -0.5477
   64SOL     vw  256   2.450   2.446   5.805 -0.2328  0.5401 -0.2162
   65SOL     ow  257   4.559   3.065   6.556  0.0111 -0.1963 -0.3070
   65SOL     hw  258   4.547   3.108   6.471 -0.3185 -0.8720 -0.6126
   65SOL     hw  259   4.505   2.986   6.550 -0.1019 -0.1949  0.5749
   65SOL     vw  260   4.550   3.061   6.544 -0.0472 -0.2851 -0.2313
   66SOL     ow  261   1.105   3.222   6.355  0.3828  0.5517  0.4927
   66SOL     hw  262   1.161   3.255   6.425 -0.4540 -1.0359  1.9952
   66SOL     hw  263   1.019   3.213   6.395 -0.0330 -0.7918 -0.6019
   66SOL     vw  264   1.101   3.225   6.369  0.2177  0.1650  0.5465
   67SOL     ow  265   1.825   1.299   1.897 -0.1047 -0.1307  0.1365
   67SOL     hw  266   1.775   1.239   1.952  0.1078 -0.3870  0.0467
   67SOL     hw  267   1.758   1.345   1.846 -0.2984  0.0584  0.5520
   67SOL     vw  268   1.809   1.297   1.897 -0.1023 -0.1395  0.1795
   68SOL     ow  269   6.562   2.761   6.663  0.1782 -0.0758 -0.4630
   68SOL     hw  270   6.599   2.765   6.751  2.3098 -2.7820 -1.0810
   68SOL     hw  271   6.468   2.773   6.675  0.4702  0.1101  2.0953
   68SOL     vw  272   6.555   2.763   6.676  0.4983 -0.4085 -0.2069
   69SOL     ow  273   0.598   3.681   1.152  0.3641  0.0050  0.2698
   69SOL     hw  274   0.542   3.732   1.211 -0.3517  0.7373 -0.9920
   69SOL     hw  275   0.544   3.666   1.074  0.6450 -2.5048  0.4853
   69SOL     vw  276   0.584   3.686   1.149  0.3067 -0.2297  0.1318
   70SOL     ow  277   3.772   0.470   4.953  0.1674 -0.0344  0.0136
   70SOL     hw  278   3.802   0.385   4.920  1.7890  1.2899 -2.1066
   70SOL     hw  279   3.777   0.461   5.048  0.3771 -2.2695 -0.1427
   70SOL     vw  280   3.776   0.457   4.961  0.4091 -0.1546 -0.2868
   71SOL     ow  281   3.006   5.836   2.911 -0.6059  0.5460 -0.1165
   71SOL     hw  282   2.949   5.780   2.858  0.5997 -1.7513  0.8711
   71SOL     hw  283   3.003   5.798   2.998  1.5407  1.0102  0.2230
   71SOL     vw  284   2.998   5.823   2.915 -0.1637  0.3042  0.0584
   72SOL     ow  285   5.593   5.289   2.440  0.4283 -0.7544  0.1365
   72SOL     hw  286   5.505   5.312   2.411  0.9503 -0.7458 -1.5668
   72SOL     hw  287   5.581   5.251   2.527 -1.3056 -1.1315 -0.2349
   72SOL     vw  288   5.580   5.287   2.447  0.2685 -0.8028 -0.1372
   73SOL     ow  289   2.149   1.212   5.348 -1.2550  0.4811  0.3025
   73SOL     hw  290   2.197   1.295   5.347 -2.4785  1.2456 -1.9882
   73SOL     hw  291   2.065   1.234   5.387 -1.0202 -0.0921  1.1696
   73SOL     vw  292   2.145   1.226   5.353 -1.3855  0.5063  0.1147
   74SOL     ow  293   1.449   5.185   3.651  0.1748 -0.1636 -0.2089
   74SOL     hw  294   1.426   5.161   3.741 -2.6947  1.5176 -0.3475
   74SOL     hw  295   1.448   5.103   3.603 -0.3839 -0.8563  0.9366
   74SOL     vw  296   1.446   5.171   3.657 -0.2775 -0.0334 -0.0759
   75SOL     ow  297   2.990   3.694   6.729 -0.0625 -0.5806  0.4250
   75SOL     hw  298   2.969   3.647   6.648  1.2194 -2.8414  1.3367
   75SOL     hw  299   3.085   3.699   6.729 -0.0573 -0.5642  1.7811
   75SOL     vw  300   3.000   3.689   6.718  0.1073 -0.8768  0.7243
   76SOL     ow  301   3.478   3.914   5.459  0.0961 -0.4868  0.1639
   76SOL     hw  302   3.571   3.918   5.435 -0.1044 -1.7079 -0.8815
   76SOL     hw  303   3.439   3.990   5.416  0.7865  0.7578  1.6146
   76SOL     vw  304   3.485   3.924   5.450  0.1609 -0.4839  0.2174
   77SOL     ow  305   3.747   6.870   4.032 -0.4269 -0.3909 -0.0124
   77SOL     hw  306   3.712   6.782   4.042  0.7360 -0.8146  0.5109
   77SOL     hw  307   3.672   6.923   4.005 -0.9799 -1.6771 -1.0967
   77SOL     vw  308   3.733   6.866   4.030 -0.3463 -0.6163 -0.0865
   78SOL     ow  309   0.379   3.686   2.129  0.0684  0.3986  0.5608
   78SOL     hw  310   0.298   3.685   2.078 -0.5412  1.2545  1.4623
   78SOL     hw  311   0.350   3.678   2.220  1.1521 -1.4363  0.7825
   78SOL     vw  312   0.365   3.685   2.135  0.1309  0.2694  0.7089
   79SOL     ow  313   3.822   1.030   2.370  0.2102 -0.4758  0.2039
   79SOL     hw  314   3.884   1.085   2.323 -0.3334  0.6726  0.7987
   79SOL     hw  315   3.855   1.029   2.461 -0.6272  0.1307  0.5183
   79SOL     vw  316   3.835   1.037   2.376  0.0280 -0.2443  0.3239
   80SOL     ow  317   2.083   3.828   1.455 -0.2741 -0.0894  0.4976
   80SOL     hw  318   2.033   3.886   1.396  0.0248 -0.0899  0.2395
   80SOL     hw  319   2.171   3.825   1.416 -0.6984 -1.9872 -0.3842
   80SOL     vw  320   2.088   3.835   1.442 -0.2906 -0.3399  0.3472
   81SOL     ow  321   0.702   2.816   2.778 -0.3085  0.5964 -0.0333
   81SOL     hw  322   0.746   2.760   2.842  1.4952  0.0714 -1.6355
   81SOL     hw  323   0.773   2.853   2.726 -1.6975 -0.9534 -3.3240
   81SOL     vw  324   0.717   2.813   2.780 -0.2538  0.3227 -0.6789
   82SOL     ow  325   1.493   2.234   5.899 -0.2081 -0.3444  0.2973
   82SOL     hw  326   1.417   2.176   5.898  0.6606 -1.5210  0.1383
   82SOL     hw  327   1.554   2.192   5.961  0.6915  0.0560 -0.2962
   82SOL     vw  328   1.491   2.221   5.907  0.0252 -0.4469  0.1979
   83SOL     ow  329   0.665   5.092   2.742 -0.3206  0.3802 -0.6612
   83SOL     hw  330   0.715   5.167   2.774  0.3210 -0.7081  1.0396
   83SOL     hw  331   0.728   5.040   2.692  0.6501 -1.4314  2.1899
   83SOL     vw  332   0.680   5.095   2.740 -0.1078 -0.0026 -0.0607
   84SOL     ow  333   1.845   4.039   2.497  0.3481  0.3525  0.7648
   84SOL     hw  334   1.907   4.075   2.433  0.4158  0.8452  1.1006
   84SOL     hw  335   1.796   4.115   2.528 -0.8728 -0.1114  0.0367
   84SOL     vw  336   1.846   4.054   2.493  0.1960  0.3562  0.7130
   85SOL     ow  337   3.522   0.404   4.773  0.0514 -0.1439  0.2279
   85SOL     hw  338   3.453   0.401   4.707 -0.4873 -1.5674  0.8314
   85SOL     hw  339   3.499   0.336   4.836  2.0369 -0.7286  0.3978
   85SOL     vw  340   3.510   0.394   4.773  0.2424 -0.4088  0.3300
   86SOL     ow  341   0.751   0.590   3.015  0.3087  0.5038 -0.9074
   86SOL     hw  342   0.821   0.650   3.041  0.1614 -0.2719  1.5142
   86SOL     hw  343   0.794   0.505   3.008 -0.3117  0.0915  0.2200
   86SOL     vw  344   0.766   0.587   3.017  0.2074  0.3470 -0.4390
   87SOL     ow  345   0.773   4.263   0.983  0.2120 -0.2054 -0.3857
   87SOL     hw  346   0.853   4.224   0.948  1.1675  1.5130 -0.2183
   87SOL     hw  347   0.752   4.334   0.923 -0.7919 -0.1778 -0.0251
   87SOL     vw  348   0.781   4.267   0.970  0.2056  0.0248 -0.3161
   88SOL     ow  349   5.104   3.260   5.314 -0.1378 -0.0250 -0.3822
   88SOL     hw  350   5.133   3.322   5.248 -0.3280 -1.5187 -1.9397
   88SOL     hw  351   5.182   3.209   5.336 -0.7850 -2.0739 -2.3876
   88SOL     vw  352   5.118   3.261   5.308 -0.2482 -0.4923 -0.8521
   89SOL     ow  353   1.672   0.696   1.103 -0.3335 -0.2107 -0.8089
   89SOL     hw  354   1.592   0.646   1.089 -0.3651 -0.7015  0.8940
   89SOL     hw  355   1.673   0.715   1.197  1.1149  0.5351 -0.9343
   89SOL     vw  356   1.662   0.692   1.114 -0.1466 -0.1771 -0.6008
   90SOL     ow  357   0.732   2.982   4.852  0.2478 -0.0917 -0.4328
   90SOL     hw  358   0.699   2.950   4.937  1.2291 -1.5184 -0.5635
   90SOL     hw  359   0.655   3.021   4.810 -0.9183 -1.8741 -0.0496
   90SOL     vw  360   0.718   2.983   4.858  0.2234 -0.5150 -0.3994
   91SOL     ow  361   5.781   2.761   3.195  0.1628  0.2531 -0.5892
   91SOL     hw  362   5.687   2.743   3.192  0.5682 -3.0239  1.0696
   91SOL     hw  363   5.790   2.833   3.257 -1.2260  0.3885 -0.5116
   91SOL     vw  364   5.769   2.768   3.203  0.0334 -0.1613 -0.3600
   92SOL     ow  365   6.336   6.821   2.701  0.0296  0.4553  0.6450
   92SOL     hw  366   6.262   6.807   2.642 -0.4674  1.6643  0.9477
   92SOL     hw  367   6.331   6.914   2.723  2.0986  0.7419  0.0699
   92SOL     vw  368   6.325   6.832   2.696  0.2370  0.6526  0.6092
   93SOL     ow  369   3.360   2.649   1.367 -0.1608 -0.1486  0.2220
   93SOL     hw  370   3.352   2.698   1.285  0.4232 -0.4166 -0.0017
   93SOL     hw  371   3.397   2.564   1.341 -0.8310 -0.5812  0.6485
   93SOL     vw  372   3.364   2.644   1.353 -0.1721 -0.2410  0.2488
   94SOL     ow  373   1.340   0.666   2.679  0.0501  0.6601  0.0848
   94SOL     hw  374   1.399   0.598   2.712 -1.7542 -0.7609  0.5754
   94SOL     hw  375   1.270   0.671   2.744 -0.7191  1.8118 -0.7842
   94SOL     vw  376   1.339   0.658   2.692 -0.2894  0.6246  0.0348
   95SOL     ow  377   5.349   6.288   6.644 -0.9986  0.0401  0.2431
   95SOL     hw  378   5.306   6.256   6.723  1.0799  0.1419  1.4917
   95SOL     hw  379   5.390   6.370   6.671 -1.4066  0.8068 -1.3498
   95SOL     vw  380   5.349   6.295   6.658 -0.7782  0.1550  0.1976
   96SOL     ow  381   1.701   1.878   1.745  0.9242 -0.3098  0.6680
   96SOL     hw  382   1.685   1.889   1.839 -1.5931 -0.1950  0.2924
   96SOL     hw  383   1.664   1.793   1.724  1.7524 -0.4774 -0.1936
   96SOL     vw  384   1.694   1.868   1.755  0.7012 -0.3168  0.5048
   97SOL     ow  385   2.406   4.514   3.432  0.3860 -0.1896 -0.1249
   97SOL     hw  386   2.495   4.547   3.441  0.7206 -1.0039 -0.3065
   97SOL     hw  387   2.387   4.520   3.339 -0.4538  1.6985  0.1323
   97SOL     vw  388   2.415   4.519   3.421  0.3194 -0.0479 -0.1150
   98SOL     ow  389   4.517   2.733   3.253 -0.4108  0.1433  0.4884
   98SOL     hw  390   4.467   2.800   3.207  1.3651  1.3238  0.1617
   98SOL     hw  391   4.521   2.659   3.193 -0.5998  0.5655 -0.0420
   98SOL     vw  392   4.511   2.732   3.239 -0.2012  0.3546  0.3753
   99SOL     ow  393   2.273   0.529   2.515  0.3469 -0.1145  0.1417
   99SOL     hw  394   2.184   0.534   2.550  0.5085  3.5533  0.3848
   99SOL     hw  395   2.260   0.514   2.421 -0.3957 -1.6061  0.4461
   99SOL     vw  396   2.259   0.528   2.507  0.2702  0.1726  0.2140
  100SOL     ow  397   5.874   2.728   0.160  0.3243 -0.2177 -1.0113
  100SOL     hw  398   5.942   2.707   0.225  0.5768  0.1342 -1.1607
  100SOL     hw  399   5.826   2.802   0.198 -0.4066 -0.8864 -0.6002
  100SOL     vw  400   5.877   2.735   0.174  0.2608 -0.2595 -0.9768
  101SOL     ow  401   5.573   5.284   5.711  0.0738  0.4888  0.2375
  101SOL     hw  402   5.500   5.252   5.658 -0.5486  1.6511  0.3477
  101SOL     hw  403   5.621   5.206   5.737 -0.9053 -0.2669 -0.1853
  101SOL     vw  404   5.570   5.270   5.708 -0.1373  0.5424  0.1962
  102SOL     ow  405   5.911   1.535   0.240  0.5478  0.5109  0.3618
  102SOL     hw  406   5.996   1.503   0.209  1.3596  2.2088  0.6721
  102SOL     hw  407   5.900   1.494   0.326  1.9270  1.5803  1.1004
  102SOL     vw  408   5.921   1.526   0.247  0.8366  0.8759  0.5002
  103SOL     ow  409   0.056   2.018   1.342 -0.0453 -0.4939  0.0832
  103SOL     hw  410  -0.018   1.984   1.394 -2.7612  1.0049 -2.4936
  103SOL     hw  411   0.094   1.940   1.302 -2.9385 -1.1567 -1.7277
  103SOL     vw  412   0.051   2.003   1.344 -0.7853 -0.3836 -0.4957
  104SOL     ow  413   5.590   0.402   3.384  0.0290  0.0118 -0.2250
  104SOL     hw  414   5.532   0.330   3.360 -0.9322  1.2153 -1.6982
  104SOL     hw  415   5.672   0.383   3.338  0.1867 -0.7097  0.3289
  104SOL     vw  416   5.593   0.390   3.375 -0.0768  0.0754 -0.3462
  105SOL     ow  417   5.096   2.419   1.398 -0.0791  0.0743 -0.0978
  105SOL     hw  418   5.076   2.513   1.397 -0.7182 -0.0576 -0.8566
  105SOL     hw  419   5.183   2.412   1.360  0.5019  0.4590  1.1138
  105SOL     vw  420   5.105   2.430   1.393 -0.0870  0.1076 -0.0380
  106SOL     ow  421   5.598   0.159   2.767  0.4769  0.2159  0.6304
  106SOL     hw  422   5.573   0.072   2.799  0.0587  0.6524  1.5209
  106SOL     hw  423   5.518   0.195   2.729  1.6739 -1.6742 -4.3827
  106SOL     vw  424   5.584   0.152   2.766  0.5796  0.0241  0.0865
  107SOL     ow  425   3.018   4.181   0.858 -0.3708  0.3817 -0.9919
  107SOL     hw  426   3.000   4.147   0.945  1.8102  2.3744  0.3647
  107SOL     hw  427   2.939   4.229   0.834 -0.2373  1.6309  0.8964
  107SOL     vw  428   3.005   4.183   0.866 -0.0654  0.8097 -0.5638
  108SOL     ow  429   1.881   1.945   1.520 -0.2812  0.5883  0.2322
  108SOL     hw  430   1.922   1.901   1.446 -1.9006 -2.2012  0.8548
  108SOL     hw  431   1.950   1.950   1.586 -0.0834 -1.2729  0.2049
  108SOL     vw  432   1.896   1.940   1.519 -0.4687 -0.0253  0.3108
  109SOL     ow  433   1.153   3.752   0.865 -0.1768  0.2083  0.1386
  109SOL     hw  434   1.190   3.817   0.924  0.3951  1.2494 -1.3260
  109SOL     hw  435   1.091   3.801   0.811  0.2001 -0.4809 -0.9367
  109SOL     vw  436   1.149   3.767   0.866 -0.0517  0.2548 -0.1965
  110SOL     ow  437   0.869   0.054   6.806 -0.2059 -0.1701 -0.1469
  110SOL     hw  438   0.823   0.114   6.747 -0.1880 -0.7092 -0.7109
  110SOL     hw  439   0.823  -0.029   6.797 -0.7859 -0.0284  1.3009
  110SOL     vw  440   0.857   0.051   6.797 -0.2800 -0.2226 -0.0303
  111SOL     ow  441   1.697   3.116   4.922 -0.7401 -0.1627 -0.2669
  111SOL     hw  442   1.731   3.177   4.856  2.3552  1.0521  2.1908
  111SOL     hw  443   1.635   3.168   4.973  2.3234  1.4155  2.1923
  111SOL     vw  444   1.693   3.131   4.920  0.0724  0.2058  0.3819
  112SOL     ow  445   0.644   3.909   4.486  0.7924 -0.2391  0.4286
  112SOL     hw  446   0.664   3.815   4.482 -0.1531 -0.4221 -0.6882
  112SOL     hw  447   0.580   3.922   4.416  1.7352  1.4552 -0.1661
  112SOL     vw  448   0.638   3.898   4.476  0.7921 -0.0395  0.2029
  113SOL     ow  449   5.842   0.119   0.073  0.1580  0.7473 -0.3978
  113SOL     hw  450   5.844   0.098   0.167  3.4993 -2.0209 -0.8994
  113SOL     hw  451   5.770   0.067   0.039  0.1299  0.2846  0.3404
  113SOL     vw  452   5.832   0.110   0.081  0.5951  0.3210 -0.3666
  114SOL     ow  453   2.073   2.000   6.423 -0.0872 -0.0596 -0.0454
  114SOL     hw  454   2.045   1.993   6.332 -1.3105  0.6495  0.2514
  114SOL     hw  455   2.159   2.042   6.418 -0.9418  1.7127 -0.8115
  114SOL     vw  456   2.081   2.005   6.410 -0.3613  0.2677 -0.1075
  115SOL     ow  457   4.373   5.224   5.203 -0.2617  0.0130  0.7117
  115SOL     hw  458   4.291   5.194   5.164  0.7920  0.5466 -2.0909
  115SOL     hw  459   4.435   5.153   5.187  0.3432  0.4678  0.9999
  115SOL     vw  460   4.370   5.211   5.196 -0.0427  0.1433  0.3800
  116SOL     ow  461   6.492   0.748   3.335 -0.0226  0.1762  0.1794
  116SOL     hw  462   6.475   0.809   3.407 -1.1331 -0.1386  0.2098
  116SOL     hw  463   6.585   0.729   3.341 -0.2134 -0.4014  1.9917
  116SOL     vw  464   6.502   0.754   3.345 -0.1945  0.0585  0.4225
  117SOL     ow  465   0.643   3.451   1.332 -0.0302  0.1281  0.3658
  117SOL     hw  466   0.555   3.445   1.368  0.1910  0.2392  0.9303
  117SOL     hw  467   0.692   3.383   1.378 -0.2127 -1.0633 -1.1203
  117SOL     vw  468   0.638   3.441   1.342 -0.0250 -0.0145  0.2442
  118SOL     ow  469   0.331   5.785   3.255  0.6211 -0.9976 -0.5169
  118SOL     hw  470   0.238   5.768   3.241  0.1017  1.1526 -0.0371
  118SOL     hw  471   0.344   5.771   3.349  0.1173  1.2620 -0.0555
  118SOL     vw  472   0.321   5.781   3.266  0.4861 -0.4158 -0.3927
  119SOL     ow  473   2.014   4.119   6.239  0.0336 -0.1207  0.0618
  119SOL     hw  474   2.109   4.121   6.230  0.3901 -2.5584  2.0150
  119SOL     hw  475   1.990   4.206   6.269  1.8978  0.0429  1.1796
  119SOL     vw  476   2.023   4.130   6.242  0.3265 -0.4210  0.4673
  120SOL     ow  477   2.249   1.453   5.303 -0.3815  0.0751 -0.6255
  120SOL     hw  478   2.294   1.495   5.230  0.6782  0.0933  0.0151
  120SOL     hw  479   2.212   1.524   5.354 -1.1746  0.0593 -1.1671
  120SOL     vw  480   2.250   1.468   5.300 -0.3463  0.0754 -0.6125
  121SOL     ow  481   3.460   1.607   0.487  0.1014  0.2925 -0.7379
  121SOL     hw  482   3.458   1.544   0.415  0.4002  0.2860 -0.7422
  121SOL     hw  483   3.511   1.563   0.555 -1.9292 -0.5601  0.2871
  121SOL     vw  484   3.467   1.593   0.486 -0.1271  0.1792 -0.6032
  122SOL     ow  485   4.245   6.784   5.137  0.2544  0.3171  0.5643
  122SOL     hw  486   4.314   6.719   5.130  0.6113  0.6001  1.3295
  122SOL     hw  487   4.172   6.748   5.086  0.6759 -0.3632  0.4354
  122SOL     vw  488   4.244   6.771   5.130  0.3572  0.2644  0.6483
  123SOL     ow  489   3.081   3.599   5.955  0.3551 -0.0228 -0.2374
  123SOL     hw  490   3.144   3.614   6.026 -0.1041  2.3920 -0.2787
  123SOL     hw  491   3.084   3.679   5.903 -1.0363 -0.8245 -1.6204
  123SOL     vw  492   3.090   3.611   5.958  0.1110  0.1901 -0.4253
  124SOL     ow  493   1.734   0.712   4.712 -0.1032 -0.1402 -0.2818
  124SOL     hw  494   1.664   0.679   4.656  0.5780 -0.3236 -1.0365
  124SOL     hw  495   1.712   0.804   4.725 -1.9376 -0.7584  1.7117
  124SOL     vw  496   1.722   0.719   4.707 -0.2555 -0.2460 -0.1183
  125SOL     ow  497   0.371   2.722   4.140  0.0563  0.5152  0.2094
  125SOL     hw  498   0.319   2.761   4.070 -0.6957 -0.6531  0.0754
  125SOL     hw  499   0.334   2.759   4.220 -1.6288 -0.9010  0.1718
  125SOL     vw  500   0.359   2.732   4.142 -0.2653  0.1743  0.1867
  126SOL     ow  501   0.495   6.694   1.010  0.2906  0.3767 -0.5574
  126SOL     hw  502   0.464   6.761   1.071  2.1347 -0.6418  1.6750
  126SOL     hw  503   0.454   6.613   1.040  1.9098 -0.2966 -0.0314
  126SOL     vw  504   0.485   6.692   1.022  0.7476  0.1535 -0.1935
  127SOL     ow  505   6.348   0.333   4.515  0.5479  0.2787 -0.0473
  127SOL     hw  506   6.337   0.339   4.420 -0.5835  0.4472  0.0752
  127SOL     hw  507   6.442   0.324   4.529  0.7055  0.1056 -1.1933
  127SOL     vw  508   6.359   0.332   4.505  0.4196  0.2781 -0.1826
  128SOL     ow  509   0.994   6.241   0.716 -0.3052  0.4439 -0.0810
  128SOL     hw  510   0.900   6.258   0.717 -1.1413 -3.2322 -1.0537
  128SOL     hw  511   1.010   6.199   0.632  2.1678  0.6724  0.2085
  128SOL     vw  512   0.983   6.238   0.705 -0.0893 -0.0107 -0.1712
  129SOL     ow  513   1.986   1.057   5.090  0.1084  0.2473 -0.7496
  129SOL     hw  514   1.895   1.086   5.083  0.1757  0.4328 -0.8741
  129SOL     hw  515   1.981   0.971   5.132 -0.1117  0.3277 -0.6100
  129SOL     vw  516   1.974   1.050   5.094  0.0883  0.2823 -0.7474
  130SOL     ow  517   4.847   0.256   6.865  0.0216  0.1464 -0.4929
  130SOL     hw  518   4.924   0.200   6.864  0.8274  1.1503  1.0456
  130SOL     hw  519   4.774   0.196   6.884  0.5991 -0.6266 -0.6922
  130SOL     vw  520   4.847   0.241   6.867  0.2041  0.1769 -0.3162
  131SOL     ow  521   4.633   4.849   3.855 -0.0630  0.4528  0.2491
  131SOL     hw  522   4.674   4.791   3.919  0.4594  1.5330  0.9142
  131SOL     hw  523   4.655   4.938   3.885  0.5683  0.9828 -1.6464
  131SOL     vw  524   4.641   4.853   3.867  0.0889  0.6652  0.0868
  132SOL     ow  525   6.054   5.164   1.894  0.0553 -0.4207 -0.5066
  132SOL     hw  526   6.106   5.174   1.974  1.8386 -0.6213 -1.5903
  132SOL     hw  527   6.078   5.240   1.840 -1.3676 -0.1121 -0.7569
  132SOL     vw  528   6.064   5.175   1.897  0.1032 -0.4065 -0.6826
  133SOL     ow  529   5.748   2.593   1.721 -0.2142  0.0588  0.5071
  133SOL     hw  530   5.682   2.618   1.658 -1.1483 -0.8708  1.0857
  133SOL     hw  531   5.816   2.661   1.713 -0.2697 -0.0625 -1.4927
  133SOL     vw  532   5.749   2.606   1.712 -0.3448 -0.0798  0.3196
  134SOL     ow  533   0.737   6.242   2.328  0.5704 -0.0089  0.0902
  134SOL     hw  534   0.752   6.171   2.390 -3.3708  1.5081  3.2667
  134SOL     hw  535   0.791   6.314   2.360 -0.0160  0.1932  0.6462
  134SOL     vw  536   0.746   6.242   2.340 -0.0270  0.2179  0.5826
  135SOL     ow  537   2.175   4.645   4.850 -0.5421  0.1418 -0.1042
  135SOL     hw  538   2.208   4.706   4.916 -2.4539  0.0433  0.9969
  135SOL     hw  539   2.226   4.565   4.865 -1.2604 -0.0357  1.6019
  135SOL     vw  540   2.186   4.643   4.861 -0.8891  0.1054  0.2658
  136SOL     ow  541   6.266   2.982   1.359  0.7207  0.2651  0.1818
  136SOL     hw  542   6.254   3.054   1.422  0.7053 -0.1696  0.6843
  136SOL     hw  543   6.361   2.971   1.352  0.7236  0.3413  0.0937
  136SOL     vw  544   6.277   2.990   1.367  0.7191  0.2177  0.2365
  137SOL     ow  545   4.734   5.064   4.314  0.5870  0.0714  0.2046
  137SOL     hw  546   4.800   5.126   4.345 -0.0782  0.3513  1.1086
  137SOL     hw  547   4.738   5.072   4.219  1.3999  0.5635  0.2643
  137SOL     vw  548   4.743   5.073   4.305  0.6065  0.1733  0.3319
  138SOL     ow  549   2.832   2.800   2.604 -0.9958  0.4082  0.6250
  138SOL     hw  550   2.756   2.858   2.592 -3.5549 -2.4359  1.6366
  138SOL     hw  551   2.842   2.795   2.699 -0.5719 -0.4706  0.5357
  138SOL     vw  552   2.823   2.807   2.615 -1.2776 -0.0830  0.7467
  139SOL     ow  553   0.931   5.450   4.201 -0.3677  0.5339  0.5248
  139SOL     hw  554   0.943   5.370   4.151  0.0534  0.2296  1.0990
  139SOL     hw  555   1.005   5.505   4.175 -2.0936  1.8727 -1.9388
  139SOL     vw  556   0.942   5.447   4.191 -0.5399  0.6700  0.2754
  140SOL     ow  557   0.660   6.567   4.676 -1.0730 -0.2200 -0.2411
  140SOL     hw  558   0.645   6.474   4.656 -0.7886 -0.4726  0.6518
  140SOL     hw  559   0.573   6.604   4.687 -1.1953 -1.0794  2.3398
  140SOL     vw  560   0.646   6.559   4.675 -1.0516 -0.3667  0.2172
  141SOL     ow  561   4.344   0.577   1.531 -0.3015  0.1951  0.2118
  141SOL     hw  562   4.248   0.568   1.535 -0.2206 -0.5555  0.7963
  141SOL     hw  563   4.369   0.602   1.620 -0.0726  1.7963 -0.2832
  141SOL     vw  564   4.334   0.579   1.543 -0.2611  0.3074  0.2237
  142SOL     ow  565   2.142   2.521   2.777  0.5167 -0.1996 -0.2457
  142SOL     hw  566   2.125   2.606   2.818 -1.9393 -0.7256  0.0170
  142SOL     hw  567   2.120   2.457   2.845  0.6642 -1.0588 -0.9941
  142SOL     vw  568   2.137   2.524   2.792  0.2121 -0.3824 -0.3097
  143SOL     ow  569   2.915   1.690   1.641  0.0987 -0.4405 -0.1167
  143SOL     hw  570   2.851   1.703   1.711 -0.1666  0.5439 -0.5269
  143SOL     hw  571   2.999   1.681   1.686  0.2706  2.3083  0.3146
  143SOL     vw  572   2.918   1.691   1.656  0.0862  0.0521 -0.1140
  144SOL     ow  573   2.409   5.114   2.342 -0.6423  0.0922  0.2365
  144SOL     hw  574   2.318   5.088   2.323 -0.2786  0.6854 -2.8236
  144SOL     hw  575   2.426   5.186   2.281  2.4787 -1.2972 -0.7126
  144SOL     vw  576   2.399   5.120   2.331 -0.1825 -0.0129 -0.2925
  145SOL     ow  577   3.845   0.297   0.372  0.2216 -0.9095 -0.8704
  145SOL     hw  578   3.856   0.380   0.327  1.8042 -1.0919 -0.8689
  145SOL     hw  579   3.796   0.318   0.451  1.3984  0.1954 -0.4039
  145SOL     vw  580   3.840   0.311   0.377  0.5857 -0.7878 -0.8086
  146SOL     ow  581   0.394   6.083   1.457  0.4193 -0.1923  0.6689
  146SOL     hw  582   0.484   6.115   1.466  1.0604 -1.7406  0.1592
  146SOL     hw  583   0.384   6.066   1.363 -0.0732 -0.9323  0.8434
  146SOL     vw  584   0.404   6.085   1.445  0.4389 -0.4945  0.6247
  147SOL     ow  585   6.860   3.064   2.063  0.9585  0.2693 -0.3529
  147SOL     hw  586   6.913   3.034   2.137  2.2485 -1.0093 -1.7132
  147SOL     hw  587   6.921   3.112   2.007  0.5634 -0.6467 -1.6267
  147SOL     vw  588   6.875   3.066   2.065  1.0765 -0.0203 -0.7004
  148SOL     ow  589   5.475   4.376   6.302 -0.3506 -0.0555 -0.1925
  148SOL     hw  590   5.566   4.374   6.332 -0.3063 -0.7406 -0.3498
  148SOL     hw  591   5.472   4.313   6.230 -1.0240 -0.2863  0.0281
  148SOL     vw  592   5.486   4.368   6.296 -0.4337 -0.1762 -0.1843
  149SOL     ow  593   0.162   2.126   3.944 -0.3667  0.2624  0.7065
  149SOL     hw  594   0.244   2.139   3.897 -0.8882  1.2912  0.0557
  149SOL     hw  595   0.094   2.138   3.877 -1.1240  1.7299  1.7040
  149SOL     vw  596   0.164   2.129   3.929 -0.5354  0.5918  0.7522
  150SOL     ow  597   0.964   5.043   1.790 -0.0648  0.3081 -0.2386
  150SOL     hw  598   1.011   4.961   1.778  0.6987  0.3388  2.0553
  150SOL     hw  599   0.878   5.028   1.751 -0.0816 -1.7148  0.4989
  150SOL     vw  600   0.959   5.030   1.783  0.0337  0.0453  0.1614
  151SOL     ow  601   5.129   1.037   5.740  0.6491  0.7274  0.2999
  151SOL     hw  602   5.207   1.034   5.685 -0.2889  2.6324 -1.2313
  151SOL     hw  603   5.144   1.110   5.800  1.2219 -0.7033  1.9824
  151SOL     vw  604   5.141   1.046   5.741  0.6008  0.7900  0.3197
  152SOL     ow  605   2.614   3.221   2.850 -0.3365 -0.4118  0.4136
  152SOL     hw  606   2.662   3.149   2.891  1.5055  0.1223 -0.6911
  152SOL     hw  607   2.522   3.197   2.860  0.1891 -2.2254  1.2959
  152SOL     vw  608   2.608   3.208   2.856 -0.0242 -0.5807  0.3843
  153SOL     ow  609   5.762   2.041   6.255  0.1857 -0.0090  0.4997
  153SOL     hw  610   5.794   2.007   6.339 -1.3940  0.1115  1.1677
  153SOL     hw  611   5.772   1.967   6.195 -0.0509 -0.5676  1.1375
  153SOL     vw  612   5.768   2.026   6.259 -0.0541 -0.0668  0.6721
  154SOL     ow  613   0.933   4.969   6.201 -0.7086 -0.0646  0.6737
  154SOL     hw  614   0.903   4.887   6.161 -0.8799  0.9031 -1.3160
  154SOL     hw  615   0.977   4.942   6.282 -0.4204 -2.1446 -0.1219
  154SOL     vw  616   0.935   4.954   6.207 -0.6932 -0.2112  0.3061
  155SOL     ow  617   4.194   5.470   4.541  0.6805 -0.0779  0.4114
  155SOL     hw  618   4.159   5.556   4.518 -0.4918 -0.5341  0.4006
  155SOL     hw  619   4.119   5.423   4.577  1.1170 -1.3624 -0.2971
  155SOL     vw  620   4.179   5.475   4.543  0.5839 -0.3078  0.3166
  156SOL     ow  621   3.932   3.891   4.565 -0.1497 -0.2044  0.3898
  156SOL     hw  622   4.024   3.866   4.557  0.1562  1.3650 -2.0614
  156SOL     hw  623   3.883   3.812   4.542  0.5693 -0.9071  1.2226
  156SOL     vw  624   3.937   3.878   4.561 -0.0145 -0.0900  0.1762
  157SOL     ow  625   6.755   4.839   1.277  0.0776 -0.0903 -0.0552
  157SOL     hw  626   6.704   4.769   1.318 -0.8480  0.1681 -0.7402
  157SOL     hw  627   6.772   4.901   1.348  1.0733 -1.0694  0.6070
  157SOL     vw  628   6.751   4.838   1.292  0.0868 -0.1850 -0.0582
  158SOL     ow  629   5.342   0.792   1.020  0.2407 -0.3984 -0.1313
  158SOL     hw  630   5.345   0.766   1.112  3.0328 -0.4197 -0.1192
  158SOL     hw  631   5.290   0.725   0.976 -1.8746  0.0787  1.4951
  158SOL     vw  632   5.336   0.780   1.026  0.3300 -0.3383  0.0849
  159SOL     ow  633   1.172   4.437   2.831 -0.6032 -0.0839  0.0825
  159SOL     hw  634   1.154   4.351   2.793 -1.2139 -0.7863  1.9068
  159SOL     hw  635   1.249   4.423   2.886 -0.0089  0.8180 -0.4893
  159SOL     vw  636   1.180   4.424   2.833 -0.6052 -0.0577  0.2477
  160SOL     ow  637   1.485   2.973   4.365  0.2181 -0.6884  0.0444
  160SOL     hw  638   1.445   3.056   4.390  0.9682 -0.5131  0.6756
  160SOL     hw  639   1.483   2.920   4.444 -2.6433 -2.2860 -0.9704
  160SOL     vw  640   1.480   2.977   4.378 -0.0606 -0.8761 -0.0062
  161SOL     ow  641   5.025   5.155   2.350  0.0086 -0.0251  0.2267
  161SOL     hw  642   5.013   5.238   2.304  1.8913  0.4059  0.4229
  161SOL     hw  643   4.974   5.164   2.430  0.4126  1.0795  0.3795
  161SOL     vw  644   5.017   5.167   2.355  0.3104  0.1774  0.2726
  162SOL     ow  645   4.607   4.005   5.835 -0.3486  0.4059 -0.1293
  162SOL     hw  646   4.532   4.011   5.777 -0.9061  1.9867  0.6965
  162SOL     hw  647   4.569   3.991   5.922  0.4039 -0.3817  0.0915
  162SOL     vw  648   4.592   4.004   5.839 -0.3228  0.5107  0.0088
  163SOL     ow  649   3.592   0.961   2.265  0.0125 -0.1515 -0.7527
  163SOL     hw  650   3.525   1.003   2.318 -0.2812  0.2588 -1.4364
  163SOL     hw  651   3.674   0.983   2.310 -0.3358 -1.3041  0.5205
  163SOL     vw  652   3.594   0.970   2.278 -0.0722 -0.2494 -0.6750
  164SOL     ow  653   3.802   3.319   6.809 -0.6369  0.3923  0.3641
  164SOL     hw  654   3.761   3.252   6.862 -2.1135  0.7539 -0.2749
  164SOL     hw  655   3.890   3.285   6.791 -1.5607 -1.6966 -0.5133
  164SOL     vw  656   3.809   3.306   6.813 -0.9534  0.1644  0.1643
  165SOL     ow  657   1.293   1.507   5.510 -0.1120 -0.4191  0.1548
  165SOL     hw  658   1.248   1.564   5.573  0.0630 -0.9836  0.7997
  165SOL     hw  659   1.367   1.560   5.479 -1.9195  1.0437 -1.9554
  165SOL     vw  660   1.297   1.522   5.514 -0.3273 -0.3005 -0.0386
  166SOL     ow  661   4.092   1.313   2.495 -0.5775  0.4931 -0.1864
  166SOL     hw  662   4.186   1.309   2.477 -0.4999 -0.4173  0.3373
  166SOL     hw  663   4.073   1.230   2.540 -1.4599  1.0614  0.5250
  166SOL     vw  664   4.102   1.301   2.499 -0.6840  0.4480 -0.0235
  167SOL     ow  665   5.051   1.943   2.541  0.2343 -0.2863  0.1908
  167SOL     hw  666   5.037   1.851   2.563 -0.2999 -0.2400  0.0550
  167SOL     hw  667   4.976   1.966   2.486 -0.6231  0.7308  1.7324
  167SOL     vw  668   5.039   1.934   2.537  0.0508 -0.1459  0.3765
  168SOL     ow  669   3.649   5.553   5.896  0.0794  0.5039 -0.5437
  168SOL     hw  670   3.627   5.568   5.805 -0.4902  0.9759 -0.3319
  168SOL     hw  671   3.577   5.500   5.931  0.6014 -0.2151 -0.5174
  168SOL     vw  672   3.637   5.548   5.889  0.0732  0.4716 -0.5124
  169SOL     ow  673   1.620   4.878   6.741 -0.0822  0.0169 -0.8958
  169SOL     hw  674   1.670   4.812   6.693 -0.7711 -0.1190 -1.4556
  169SOL     hw  675   1.559   4.914   6.675  0.3966  1.3347 -0.6545
  169SOL     vw  676   1.618   4.874   6.726 -0.1099  0.1729 -0.9377
  170SOL     ow  677   0.289   4.374   5.999 -0.0644 -0.0687 -0.3666
  170SOL     hw  678   0.379   4.355   5.972 -0.6317 -3.3462 -0.4515
  170SOL     hw  679   0.297   4.406   6.089  1.1459 -3.7588  1.0342
  170SOL     vw  680   0.302   4.375   6.007  0.0204 -0.9880 -0.1929
  171SOL     ow  681   4.051   1.793   5.969 -0.7014 -0.6844  0.1590
  171SOL     hw  682   4.130   1.791   5.914 -0.2127  0.8918  0.7504
  171SOL     hw  683   4.036   1.701   5.992  0.2654 -1.1448 -0.9330
  171SOL     vw  684   4.060   1.781   5.965 -0.5093 -0.5372  0.0930
  172SOL     ow  685   4.190   0.518   0.490  0.2496 -0.1794  0.2455
  172SOL     hw  686   4.121   0.487   0.549 -0.3773  1.4991  0.4542
  172SOL     hw  687   4.161   0.490   0.403  0.2623 -1.0755  0.5123
  172SOL     vw  688   4.177   0.510   0.486  0.1686 -0.0761  0.3082
  173SOL     ow  689   4.896   4.369   0.066 -0.5187  0.5450  0.1241
  173SOL     hw  690   4.941   4.318   0.132 -0.8595  0.0845  0.0042
  173SOL     hw  691   4.916   4.460   0.088 -0.2852  0.3775  0.6067
  173SOL     vw  692   4.904   4.375   0.077 -0.5329  0.4623  0.1720
  174SOL     ow  693   0.918   6.441   2.466 -0.4336 -0.1088  0.1390
  174SOL     hw  694   0.886   6.526   2.497 -1.8458  1.1556 -4.1461
  174SOL     hw  695   0.887   6.379   2.532 -0.8045  2.4598  2.5819
  174SOL     vw  696   0.910   6.444   2.479 -0.6689  0.3972 -0.1041
  175SOL     ow  697   5.702   2.015   1.900 -0.2579 -0.6822  0.7176
  175SOL     hw  698   5.773   2.066   1.939 -0.2819  1.5667 -1.9038
  175SOL     hw  699   5.743   1.969   1.826 -1.2159 -0.5080  0.0586
  175SOL     vw  700   5.717   2.016   1.895 -0.3872 -0.3624  0.2848
  176SOL     ow  701   6.312   0.601   6.175 -0.5108  0.4652 -0.5205
  176SOL     hw  702   6.370   0.668   6.211 -0.2919  0.0989 -0.1881
  176SOL     hw  703   6.348   0.582   6.088  0.1479 -0.0981 -0.1310
  176SOL     vw  704   6.324   0.608   6.168 -0.3951  0.3425 -0.4253
  177SOL     ow  705   5.066   2.013   0.351 -0.4647 -0.5578 -0.1312
  177SOL     hw  706   5.107   1.928   0.336 -0.8990 -1.0340  1.2850
  177SOL     hw  707   5.125   2.058   0.412 -1.0505 -0.4842  0.3906
  177SOL     vw  708   5.079   2.008   0.357 -0.5991 -0.6109  0.1245
  178SOL     ow  709   2.455   0.201   0.333 -0.0616 -0.9641 -0.3818
  178SOL     hw  710   2.514   0.266   0.293  1.0822 -0.7466  1.5651
  178SOL     hw  711   2.370   0.244   0.334 -0.7080 -1.7232 -4.3539
  178SOL     vw  712   2.452   0.215   0.328  0.0039 -1.0356 -0.6490
  179SOL     ow  713   4.673   6.244   1.927 -0.8742 -0.1562 -0.0829
  179SOL     hw  714   4.716   6.216   1.846 -2.2859 -0.9457 -0.5892
  179SOL     hw  715   4.644   6.333   1.909 -0.5778 -0.0848 -0.2023
  179SOL     vw  716   4.675   6.252   1.914 -1.0214 -0.2508 -0.1654
  180SOL     ow  717   0.054   4.602   0.108 -0.2963 -0.6959  0.8079
  180SOL     hw  718   0.018   4.517   0.083 -1.2347  0.3995 -1.9257
  180SOL     hw  719   0.133   4.612   0.054  0.0704 -0.0162  1.4478
  180SOL     vw  720   0.060   4.593   0.098 -0.3717 -0.4618  0.5317
  181SOL     ow  721   1.873   3.727   2.457 -0.0768  0.3085  0.3596
  181SOL     hw  722   1.967   3.716   2.447 -0.0920  0.1851  0.3437
  181SOL     hw  723   1.837   3.639   2.441 -0.1495  0.2329  0.9186
  181SOL     vw  724   1.880   3.714   2.454 -0.0883  0.2823  0.4312
  182SOL     ow  725   0.920   3.205   6.061 -0.3728 -0.1429  0.0181
  182SOL     hw  726   0.911   3.116   6.027 -0.0343 -0.4819  0.7759
  182SOL     hw  727   0.905   3.262   5.986 -2.8279 -0.7630 -0.0311
  182SOL     vw  728   0.917   3.201   6.047 -0.6521 -0.2694  0.1118
  183SOL     ow  729   4.398   3.163   4.463 -0.0393 -0.1021  0.5336
  183SOL     hw  730   4.320   3.109   4.473 -1.1338  1.2188 -0.3763
  183SOL     hw  731   4.419   3.158   4.370 -0.9370  1.9636  0.1605
  183SOL     vw  732   4.390   3.155   4.452 -0.3021  0.3448  0.3643
  184SOL     ow  733   4.220   1.704   4.346  0.5360 -0.0029  0.3943
  184SOL     hw  734   4.143   1.653   4.370  0.7867 -0.4600  0.2287
  184SOL     hw  735   4.274   1.705   4.425  0.4938  0.0731  0.4219
  184SOL     vw  736   4.217   1.698   4.360  0.5636 -0.0532  0.3760
  185SOL     ow  737   1.505   6.808   2.135 -0.0121  0.2689  0.0318
  185SOL     hw  738   1.418   6.829   2.102 -0.0413 -0.6840 -0.5317
  185SOL     hw  739   1.503   6.834   2.227 -1.7662 -2.0489  0.7491
  185SOL     vw  740   1.493   6.814   2.143 -0.2474 -0.1626  0.0522
  186SOL     ow  741   3.082   5.269   0.842  0.5163 -0.1342 -0.3095
  186SOL     hw  742   3.099   5.207   0.771  1.1222  0.0334 -0.3155
  186SOL     hw  743   3.139   5.241   0.913  1.6853  1.1040 -0.7198
  186SOL     vw  744   3.091   5.257   0.842  0.7503  0.0515 -0.3644
  187SOL     ow  745   3.335   0.034   5.327  0.1321 -0.2683  0.2923
  187SOL     hw  746   3.378   0.007   5.246  0.4447  0.9083  0.0555
  187SOL     hw  747   3.242   0.029   5.308  0.1603 -1.5638  0.3922
  187SOL     vw  748   3.328   0.030   5.314  0.1770 -0.2840  0.2742
  188SOL     ow  749   3.688   6.339   3.608 -0.0893 -0.3432  0.7213
  188SOL     hw  750   3.730   6.255   3.630 -0.4244 -0.2345  1.8265
  188SOL     hw  751   3.595   6.320   3.612 -0.1640 -0.1606 -0.0497
  188SOL     vw  752   3.682   6.325   3.611 -0.1434 -0.3049  0.7652
  189SOL     ow  753   5.238   1.637   1.112 -0.0775  0.1618 -0.4072
  189SOL     hw  754   5.163   1.661   1.057 -0.7976  2.7427  1.5071
  189SOL     hw  755   5.204   1.641   1.202  1.9755 -0.1282  0.4343
  189SOL     vw  756   5.224   1.641   1.117  0.0982  0.4641 -0.0436
  190SOL     ow  757   6.312   2.792   5.572  1.1932  0.1213  1.0296
  190SOL     hw  758   6.236   2.769   5.626  1.4934 -1.0786  0.9527
  190SOL     hw  759   6.281   2.783   5.482  1.2484  0.2359  0.9994
  190SOL     vw  760   6.298   2.788   5.567  1.2398 -0.0219  1.0154
  191SOL     ow  761   1.099   1.740   1.066  0.5204 -0.1508  0.2073
  191SOL     hw  762   1.186   1.700   1.064  0.2490 -1.0052  2.5063
  191SOL     hw  763   1.038   1.667   1.067 -0.0843  0.3308  1.7158
  191SOL     vw  764   1.103   1.725   1.066  0.4048 -0.2000  0.7097
  192SOL     ow  765   6.075   2.254   1.089 -0.0389  0.7631  0.4444
  192SOL     hw  766   5.991   2.209   1.095  0.6678 -1.2454 -2.5086
  192SOL     hw  767   6.134   2.203   1.144 -0.0909  0.4202  0.1799
  192SOL     vw  768   6.072   2.241   1.097  0.0474  0.4528  0.0198
  193SOL     ow  769   2.929   2.891   4.383  0.3771 -0.2285  0.2441
  193SOL     hw  770   2.939   2.811   4.434 -1.7847 -0.7838 -0.1004
  193SOL     hw  771   2.834   2.905   4.378  0.4722  0.1346 -3.0297
  193SOL     vw  772   2.917   2.883   4.389  0.1045 -0.2538 -0.2329
  194SOL     ow  773   3.839   6.371   1.673 -0.2751 -0.0208  0.4841
  194SOL     hw  774   3.815   6.364   1.765 -1.5031  1.6288  0.3293
  194SOL     hw  775   3.789   6.301   1.629 -1.9285  0.9879  0.7000
  194SOL     vw  776   3.829   6.361   1.679 -0.6553  0.3300  0.4923
  195SOL     ow  777   4.220   2.302   0.956  0.4614  0.2150 -0.0071
  195SOL     hw  778   4.293   2.347   0.914  1.0748 -2.1328 -1.6225
  195SOL     hw  779   4.260   2.238   1.014  0.1146 -3.9613 -3.8321
  195SOL     vw  780   4.235   2.300   0.958  0.4966 -0.6458 -0.7249
  196SOL     ow  781   2.922   1.140   0.222  0.1929  0.2951 -0.6129
  196SOL     hw  782   2.932   1.229   0.188  1.4371  0.1431 -0.7065
  196SOL     hw  783   2.937   1.149   0.316  1.4079  0.0433 -0.7679
  196SOL     vw  784   2.925   1.153   0.230  0.5175  0.2419 -0.6457
  197SOL     ow  785   2.332   6.408   0.038 -0.0460  0.4760  0.2077
  197SOL     hw  786   2.337   6.500   0.064 -0.9327  0.9358 -1.0918
  197SOL     hw  787   2.261   6.371   0.091 -2.1937  1.5288 -1.7355
  197SOL     vw  788   2.323   6.415   0.048 -0.4463  0.6757 -0.2201
  198SOL     ow  789   3.297   4.162   0.717  0.1700 -0.1793 -0.6619
  198SOL     hw  790   3.385   4.197   0.729 -0.7579  1.4474  3.2887
  198SOL     hw  791   3.303   4.071   0.744  0.4463  0.3745  1.3410
  198SOL     vw  792   3.309   4.155   0.723  0.0842  0.1082  0.1236
  199SOL     ow  793   4.036   1.287   5.619  0.1402 -0.3442  0.0574
  199SOL     hw  794   4.006   1.298   5.710 -1.4177  0.1374 -0.4821
  199SOL     hw  795   4.064   1.375   5.593 -0.1488 -0.3202 -0.1730
  199SOL     vw  796   4.036   1.300   5.628 -0.1035 -0.2775 -0.0443
  200SOL     ow  797   3.364   4.571   6.641 -0.2263  0.2380  0.1390
  200SOL     hw  798   3.287   4.603   6.687 -0.3671  1.5132 -0.9190
  200SOL     hw  799   3.335   4.561   6.550  0.3224 -1.1958  0.0981
  200SOL     vw  800   3.350   4.574   6.635 -0.1724  0.2172 -0.0057
  201SOL     ow  801   2.531   0.604   4.207  0.3131 -0.3602  0.0548
  201SOL     hw  802   2.619   0.596   4.169  0.2259 -1.7866  0.0849
  201SOL     hw  803   2.485   0.526   4.176 -0.3933 -0.5221  1.4368
  201SOL     vw  804   2.536   0.593   4.198  0.2084 -0.5697  0.2410
  202SOL     ow  805   3.270   0.836   3.541 -0.0441  0.0503  0.4499
  202SOL     hw  806   3.331   0.906   3.563 -0.6617  0.9976 -0.7351
  202SOL     hw  807   3.259   0.788   3.623 -0.3628  1.9322  1.5859
  202SOL     vw  808   3.277   0.839   3.555 -0.1677  0.4236  0.4433
  203SOL     ow  809   1.231   0.512   0.251  0.4677 -0.4514 -0.2199
  203SOL     hw  810   1.224   0.417   0.236  0.6729 -0.3518 -0.9984
  203SOL     hw  811   1.195   0.551   0.172  0.3898  0.1280  0.0976
  203SOL     vw  812   1.225   0.504   0.239  0.4845 -0.3618 -0.2807
  204SOL     ow  813   5.406   1.410   4.814  0.1332  0.1309  0.5588
  204SOL     hw  814   5.449   1.385   4.896  0.0992 -2.4398 -0.1287
  204SOL     hw  815   5.334   1.467   4.842  0.4293 -0.2813  2.2882
  204SOL     vw  816   5.402   1.414   4.829  0.1678 -0.2627  0.6962
  205SOL     ow  817   2.586   5.876   1.670  0.1438  0.9207 -0.2661
  205SOL     hw  818   2.516   5.941   1.677 -1.0647 -0.0428 -2.4498
  205SOL     hw  819   2.558   5.804   1.726  0.1627  1.1685  0.0638
  205SOL     vw  820   2.573   5.875   1.678 -0.0131  0.8264 -0.5107
  206SOL     ow  821   4.851   2.651   2.157  0.2504  0.2776  0.0732
  206SOL     hw  822   4.764   2.671   2.191  0.0610  0.9099 -0.7689
  206SOL     hw  823   4.842   2.562   2.121  0.0654  0.1894  0.3286
  206SOL     vw  824   4.838   2.642   2.157  0.2007  0.3494 -0.0042
  207SOL     ow  825   1.875   6.559   4.137 -0.2324  0.0346 -0.1586
  207SOL     hw  826   1.783   6.543   4.116 -0.2138  0.1018 -0.2893
  207SOL     hw  827   1.899   6.486   4.195 -1.1172  1.4160  2.1015
  207SOL     vw  828   1.866   6.547   4.142 -0.3467  0.2258  0.1223
  208SOL     ow  829   1.562   1.981   4.767  0.9580  0.1401  0.1844
  208SOL     hw  830   1.526   2.048   4.708  0.9789 -0.6998 -0.8126
  208SOL     hw  831   1.653   1.971   4.738  0.3580 -1.9110 -1.2218
  208SOL     vw  832   1.569   1.989   4.755  0.8816 -0.2413 -0.1328
  209SOL     ow  833   0.451   5.862   0.006 -0.4025  0.2767 -0.0472
  209SOL     hw  834   0.390   5.809  -0.046  1.1545 -2.8969  1.0659
  209SOL     hw  835   0.438   5.831   0.096  1.5916  0.7676  0.4493
  209SOL     vw  836   0.441   5.851   0.011  0.0660 -0.0772  0.1652
  210SOL     ow  837   5.370   1.890   1.012 -0.6968 -0.4066 -0.6672
  210SOL     hw  838   5.347   1.945   0.937  0.2777  1.8900  0.5944
  210SOL     hw  839   5.448   1.932   1.049 -1.1046 -1.4721  1.5832
  210SOL     vw  840   5.377   1.903   1.007 -0.6223 -0.2442 -0.2038
  211SOL     ow  841   0.767   4.114   4.715  0.5727 -0.0456  0.2952
  211SOL     hw  842   0.725   4.169   4.781 -2.3011 -0.8818 -0.7090
  211SOL     hw  843   0.837   4.069   4.762  0.4738  1.5397  2.0421
  211SOL     vw  844   0.771   4.115   4.730  0.1805  0.0532  0.3934
  212SOL     ow  845   2.113   4.089   1.675  0.2273 -0.8744 -0.2412
  212SOL     hw  846   2.152   4.131   1.751  0.5185 -2.4943  0.5398
  212SOL     hw  847   2.033   4.139   1.658 -0.7015 -1.4542  2.1459
  212SOL     vw  848   2.107   4.101   1.683  0.1432 -1.1649  0.1768
  213SOL     ow  849   5.631   3.360   3.514 -0.1842  0.0935  0.3675
  213SOL     hw  850   5.673   3.439   3.481  1.4729 -0.6197  0.6680
  213SOL     hw  851   5.612   3.309   3.436 -0.0765  0.2212  0.2571
  213SOL     vw  852   5.634   3.364   3.499  0.0486  0.0162  0.3927
  214SOL     ow  853   4.895   5.630   0.608 -0.2757  0.2741  0.1050
  214SOL     hw  854   4.960   5.700   0.617  1.2715 -1.1190  0.3239
  214SOL     hw  855   4.901   5.581   0.691 -3.9847  1.9460  1.5755
  214SOL     vw  856   4.904   5.632   0.620 -0.5610  0.3111  0.3279
  215SOL     ow  857   5.465   1.068   6.808 -0.4655 -0.5175 -0.2531
  215SOL     hw  858   5.532   1.119   6.763 -1.7910 -0.2847 -2.0879
  215SOL     hw  859   5.506   0.984   6.827  0.2950 -0.4530 -1.5211
  215SOL     vw  860   5.479   1.064   6.805 -0.5403 -0.4783 -0.6626
  216SOL     ow  861   6.872   0.211   6.288 -0.5152  0.2652  0.2397
  216SOL     hw  862   6.859   0.134   6.343 -0.2699  1.1786  1.6447
  216SOL     hw  863   6.890   0.282   6.351  0.4419  1.2169 -1.0645
  216SOL     vw  864   6.873   0.210   6.304 -0.3566  0.5113  0.2532
  217SOL     ow  865   1.286   6.333   0.731 -1.4413 -0.3127  0.0101
  217SOL     hw  866   1.249   6.388   0.662 -0.3955  0.2593 -0.1143
  217SOL     hw  867   1.367   6.377   0.756 -0.6074 -1.7453 -0.0426
  217SOL     vw  868   1.292   6.346   0.725 -1.1933 -0.4263 -0.0132
  218SOL     ow  869   0.428   5.507   3.148 -1.0959  0.0442 -0.2575
  218SOL     hw  870   0.344   5.467   3.128 -1.1376 -0.2585  0.5083
  218SOL     hw  871   0.473   5.445   3.205 -0.1492 -0.0155 -1.0296
  218SOL     vw  872   0.423   5.494   3.152 -0.9765 -0.0036 -0.2583
  219SOL     ow  873   5.209   0.132   1.872  0.2102 -0.2410  0.2079
  219SOL     hw  874   5.195   0.057   1.815 -0.9883 -0.5316  0.8533
  219SOL     hw  875   5.135   0.131   1.933 -0.1915  1.8234 -0.1531
  219SOL     vw  876   5.198   0.122   1.873 -0.0007 -0.0069  0.2455
  220SOL     ow  877   2.163   6.509   3.955 -0.4461  0.5186 -0.0172
  220SOL     hw  878   2.116   6.478   3.877 -2.3868 -0.1005  1.3352
  220SOL     hw  879   2.254   6.488   3.938 -0.7672  0.6834 -2.2468
  220SOL     vw  880   2.168   6.502   3.942 -0.7446  0.4585 -0.1327
  221SOL     ow  881   2.391   5.474   1.409  0.2380 -0.9048 -0.0193
  221SOL     hw  882   2.409   5.475   1.503  0.1817 -0.3946 -0.0120
  221SOL     hw  883   2.444   5.402   1.375  0.0423 -1.2710  0.4447
  221SOL     vw  884   2.401   5.465   1.417  0.2048 -0.8857  0.0428
  222SOL     ow  885   2.185   6.487   1.464  0.2379 -0.1889 -0.2016
  222SOL     hw  886   2.254   6.421   1.464 -0.6167 -1.1105  0.8084
  222SOL     hw  887   2.106   6.441   1.493 -0.3196  1.3203  0.8337
  222SOL     vw  888   2.184   6.473   1.468  0.0516 -0.1116  0.0682
  223SOL     ow  889   1.685   3.902   5.036  0.2911 -0.0141  0.4625
  223SOL     hw  890   1.603   3.949   5.022  0.8055  0.7539 -0.1255
  223SOL     hw  891   1.701   3.908   5.130 -1.0935 -1.5257  0.8234
  223SOL     vw  892   1.676   3.909   5.046  0.1762 -0.1122  0.4325
  224SOL     ow  893   4.533   4.273   2.639 -0.1967  0.2336  0.6117
  224SOL     hw  894   4.495   4.236   2.560 -1.2347  3.7543 -0.7037
  224SOL     hw  895   4.627   4.254   2.632 -0.3180  0.2000 -1.2966
  224SOL     vw  896   4.541   4.266   2.628 -0.3495  0.6938  0.1863
  225SOL     ow  897   6.553   3.484   6.423 -0.1636 -0.1547  0.8841
  225SOL     hw  898   6.589   3.501   6.510 -0.4240  0.6547  0.8387
  225SOL     hw  899   6.561   3.567   6.377  0.1191 -0.6215  0.0737
  225SOL     vw  900   6.559   3.497   6.428 -0.1605 -0.1096  0.7715
  226SOL     ow  901   6.408   3.940   1.597  0.4590  0.0535  0.0067
  226SOL     hw  902   6.415   4.014   1.657 -3.6116 -0.7652  1.8513
  226SOL     hw  903   6.456   3.869   1.641  1.7122  0.7121 -0.2440
  226SOL     vw  904   6.415   3.940   1.611  0.0873  0.0324  0.2170
  227SOL     ow  905   6.268   3.776   0.347 -0.2429 -0.6445  0.3524
  227SOL     hw  906   6.193   3.720   0.332  0.1623 -0.8901 -0.9378
  227SOL     hw  907   6.231   3.860   0.376 -0.7713 -2.1191  4.5844
  227SOL     vw  908   6.254   3.780   0.349 -0.2589 -0.8714  0.7406
  228SOL     ow  909   1.793   0.271   3.195 -0.1941 -0.4861 -0.4612
  228SOL     hw  910   1.713   0.264   3.247 -0.7337 -0.2816 -1.2594
  228SOL     hw  911   1.805   0.184   3.157  1.8027 -1.5646  2.2558
  228SOL     vw  912   1.784   0.259   3.197 -0.0019 -0.6015 -0.2080
  229SOL     ow  913   0.153   1.870   6.800 -0.5277 -0.9898 -0.0500
  229SOL     hw  914   0.186   1.788   6.836 -1.4013 -0.9522  0.8868
  229SOL     hw  915   0.232   1.918   6.774 -0.0466 -2.6393 -1.8598
  229SOL     vw  916   0.168   1.866   6.801 -0.5795 -1.2025 -0.1647
  230SOL     ow  917   3.378   4.116   4.816  0.1574 -0.0842  0.1816
  230SOL     hw  918   3.347   4.115   4.907 -0.7381 -0.6348 -0.1218
  230SOL     hw  919   3.427   4.198   4.808 -1.1297  0.7602  0.7089
  230SOL     vw  920   3.380   4.127   4.827 -0.1305 -0.0453  0.2110
  231SOL     ow  921   3.949   5.059   4.258 -0.3715 -0.0865  0.1479
  231SOL     hw  922   3.948   4.966   4.280 -1.0778  0.0112  0.5600
  231SOL     hw  923   3.941   5.104   4.342  3.5421  0.4710  0.4133
  231SOL     vw  924   3.948   5.052   4.272  0.0515  0.0000  0.2372
  232SOL     ow  925   6.693   1.434   2.938  0.4878  0.2883 -0.3498
  232SOL     hw  926   6.731   1.460   3.022 -0.3570  1.7018 -0.3797
  232SOL     hw  927   6.599   1.438   2.952  0.3287 -0.7776 -0.9907
  232SOL     vw  928   6.686   1.438   2.951  0.3552  0.3342 -0.4385
  233SOL     ow  929   5.118   5.475   0.413  0.1888  0.3737 -0.0242
  233SOL     hw  930   5.154   5.410   0.353  2.1321  0.6293  0.7851
  233SOL     hw  931   5.192   5.501   0.468 -1.5996 -0.2403  2.8998
  233SOL     vw  932   5.133   5.470   0.412  0.2093  0.3262  0.4683
  234SOL     ow  933   1.787   2.352   0.028 -0.0122  0.1034 -0.3615
  234SOL     hw  934   1.761   2.264  -0.002 -0.2050  0.6529 -1.9101
  234SOL     hw  935   1.805   2.341   0.121  0.9695 -1.8133 -0.7224
  234SOL     vw  936   1.786   2.339   0.036  0.0919 -0.0770 -0.6134
  235SOL     ow  937   5.859   3.432   6.820  0.1740  0.3491 -0.4032
  235SOL     hw  938   5.806   3.364   6.862  0.3377  0.9089  0.7340
  235SOL     hw  939   5.822   3.514   6.850  2.1525  0.7656  1.0849
  235SOL     vw  940   5.847   3.434   6.829  0.4566  0.4778 -0.0570
  236SOL     ow  941   2.244   6.692   1.274 -0.4231 -0.3180 -0.0764
  236SOL     hw  942   2.258   6.619   1.213 -2.3740 -0.9017  0.0987
  236SOL     hw  943   2.261   6.770   1.222 -4.4807 -0.6557 -2.3101
  236SOL     vw  944   2.248   6.692   1.259 -1.2157 -0.4394 -0.3480
  237SOL     ow  945   1.155   3.445   5.350 -0.0908 -0.4286  0.6408
  237SOL     hw  946   1.080   3.505   5.352  0.8142  0.7363  1.0578
  237SOL     hw  947   1.122   3.365   5.390 -0.5924  0.7666  2.8481
  237SOL     vw  948   1.141   3.443   5.356 -0.0376 -0.1173  0.9871
  238SOL     ow  949   0.265   4.390   1.898 -0.1191  0.4486  0.6917
  238SOL     hw  950   0.345   4.393   1.846  0.3158 -0.4780  1.2761
  238SOL     hw  951   0.212   4.462   1.865  0.9562  1.0805  0.2995
  238SOL     vw  952   0.268   4.400   1.887  0.0802  0.4094  0.7170
  239SOL     ow  953   1.924   5.576   5.245 -0.1387 -0.4624  0.1258
  239SOL     hw  954   1.960   5.584   5.157  0.9541 -1.2641  0.4710
  239SOL     hw  955   1.839   5.621   5.241 -0.0444 -0.3657 -1.2857
  239SOL     vw  956   1.917   5.583   5.233  0.0179 -0.5555 -0.0148
  240SOL     ow  957   0.445   6.524   6.111 -0.3668 -0.5241  0.3320
  240SOL     hw  958   0.385   6.575   6.165 -0.2596  0.4268 -0.4118
  240SOL     hw  959   0.389   6.462   6.065 -0.3010 -2.3974  2.6025
  240SOL     vw  960   0.429   6.523   6.112 -0.3440 -0.6461  0.5336
  241SOL     ow  961   4.532   5.588   4.564 -0.3347  0.6070  0.0290
  241SOL     hw  962   4.599   5.617   4.626 -0.9147  2.2722 -0.0752
  241SOL     hw  963   4.575   5.594   4.479  0.4318 -1.5904  0.2002
  241SOL     vw  964   4.547   5.593   4.561 -0.3102  0.5369  0.0377
  242SOL     ow  965   2.529   2.568   4.728  0.0313 -0.0319  0.1574
  242SOL     hw  966   2.544   2.512   4.652 -0.7587 -1.1098  0.7775
  242SOL     hw  967   2.594   2.538   4.792  0.6620  0.8385 -0.0669
  242SOL     vw  968   2.540   2.556   4.726  0.0103 -0.0591  0.2096
  243SOL     ow  969   2.138   5.523   6.448  0.3891 -0.0013 -0.0793
  243SOL     hw  970   2.057   5.545   6.494 -0.1990 -1.8851 -0.1491
  243SOL     hw  971   2.203   5.512   6.517 -0.0937 -1.1603  0.2204
  243SOL     vw  972   2.136   5.524   6.463  0.2478 -0.4027 -0.0489
  244SOL     ow  973   1.934   2.611   1.432  0.1229  0.5543 -0.1055
  244SOL     hw  974   2.004   2.570   1.381  1.2256  1.3995  0.6868
  244SOL     hw  975   1.855   2.564   1.406  1.4105 -2.7920  1.4523
  244SOL     vw  976   1.933   2.599   1.422  0.4383  0.2244  0.2046
  245SOL     ow  977   6.390   5.198   3.983  0.9467  0.3235 -0.5484
  245SOL     hw  978   6.483   5.175   3.991  0.3956 -2.2267 -0.7367
  245SOL     hw  979   6.370   5.183   3.891 -0.5304 -3.2296  0.1978
  245SOL     vw  980   6.400   5.193   3.972  0.6788 -0.4818 -0.4748
  246SOL     ow  981   2.044   3.115   5.930  0.4647 -0.5020  0.1624
  246SOL     hw  982   2.090   3.033   5.911 -1.7900 -1.7779 -0.1300
  246SOL     hw  983   1.952   3.091   5.933 -0.4492  2.3085 -1.4101
  246SOL     vw  984   2.038   3.101   5.928  0.0465 -0.2995 -0.0839
  247SOL     ow  985   6.101   6.126   6.274  0.3548  0.2122  0.2562
  247SOL     hw  986   6.082   6.112   6.181 -0.9589  2.0057  0.1837
  247SOL     hw  987   6.163   6.058   6.297 -0.6578 -1.3887 -1.4869
  247SOL     vw  988   6.106   6.115   6.265  0.0482  0.2375  0.0165
  248SOL     ow  989   0.240   5.806   3.906  0.5019  0.3198  0.3361
  248SOL     hw  990   0.315   5.780   3.853  0.5077  2.1291 -0.6354
  248SOL     hw  991   0.164   5.771   3.860  0.6923 -1.0237  1.0108
  248SOL     vw  992   0.239   5.798   3.893  0.5278  0.3812  0.2970
  249SOL     ow  993   1.227   4.408   3.665  0.4530 -0.7018 -0.1865
  249SOL     hw  994   1.174   4.406   3.745  1.3562  2.7106  0.6712
  249SOL     hw  995   1.166   4.435   3.597  0.2680 -0.7857 -0.0575
  249SOL     vw  996   1.212   4.411   3.667  0.5478 -0.2627 -0.0564
  250SOL     ow  997   4.540   6.756   4.445  0.1078 -0.2915 -0.2879
  250SOL     hw  998   4.501   6.816   4.382  2.8442  3.9818  1.5669
  250SOL     hw  999   4.605   6.706   4.395  1.3900  2.1433 -1.2009
  250SOL     vw 1000   4.543   6.757   4.430  0.6375  0.5939 -0.1636
  251SOL     ow 1001   2.824   5.310   5.721  0.4959  0.7685 -0.3865
  251SOL     hw 1002   2.885   5.243   5.689 -0.3049  0.0544 -0.4766
  251SOL     hw 1003   2.812   5.289   5.813  1.0970  1.4749 -0.1435
  251SOL     vw 1004   2.830   5.298   5.729  0.4696  0.7675 -0.3667
  252SOL     ow 1005   3.494   3.677   5.309  0.5219  0.3675  0.2398
  252SOL     hw 1006   3.531   3.588   5.310  0.1089  0.1970  0.9650
  252SOL     hw 1007   3.567   3.732   5.279  0.8340 -0.1850 -0.0531
  252SOL     vw 1008   3.509   3.672   5.305  0.5087  0.2722  0.2968
  253SOL     ow 1009   4.014   1.520   2.708 -0.6376 -0.1094 -0.1347
  253SOL     hw 1010   4.069   1.591   2.742 -1.6629  0.1781  0.9747
  253SOL     hw 1011   3.932   1.529   2.756 -0.3699 -2.8200  1.0113
  253SOL     vw 1012   4.011   1.531   2.719 -0.7377 -0.4292  0.1627
  254SOL     ow 1013   6.788   6.419   0.279 -0.0042  0.9245  0.5804
  254SOL     hw 1014   6.793   6.373   0.362 -3.7804 -2.1039 -0.5840
  254SOL     hw 1015   6.756   6.507   0.302  0.5145  0.6708  2.3769
  254SOL     vw 1016   6.784   6.425   0.293 -0.4342  0.4914  0.6638
  255SOL     ow 1017   5.466   1.857   6.314 -0.2477 -0.5046 -0.2975
  255SOL     hw 1018   5.533   1.924   6.310 -0.4337 -0.2395  0.7780
  255SOL     hw 1019   5.498   1.793   6.378 -0.7229 -0.7053 -0.2483
  255SOL     vw 1020   5.479   1.857   6.322 -0.3350 -0.4961 -0.1493
  256SOL     ow 1021   0.066   6.013   1.519  0.3082  0.2788 -0.0453
  256SOL     hw 1022   0.050   5.968   1.436 -0.8135  3.0499 -1.4670
  256SOL     hw 1023   0.044   5.949   1.586 -1.5512 -1.1700 -1.9265
  256SOL     vw 1024   0.061   5.999   1.517 -0.0851  0.4530 -0.4811
  257SOL     ow 1025   2.260   1.127   6.065  0.5655  0.4089  0.6649
  257SOL     hw 1026   2.181   1.109   6.115 -0.7749  0.0822 -1.4299
  257SOL     hw 1027   2.249   1.216   6.033  1.5095  0.7085  1.1468
  257SOL     vw 1028   2.249   1.136   6.067  0.5132  0.4053  0.4523
  258SOL     ow 1029   3.801   0.860   2.109 -0.5117  0.1594 -0.4351
  258SOL     hw 1030   3.830   0.807   2.034 -1.7806 -1.0993 -0.0912
  258SOL     hw 1031   3.841   0.945   2.095  0.7989 -0.5934 -1.5569
  258SOL     vw 1032   3.810   0.864   2.097 -0.5062 -0.1060 -0.5378
  259SOL     ow 1033   5.771   6.536   1.403  0.1841  0.5028 -0.1260
  259SOL     hw 1034   5.835   6.488   1.351  1.1441 -0.9795  2.2305
  259SOL     hw 1035   5.711   6.575   1.339  3.3538  1.9453 -2.4441
  259SOL     vw 1036   5.771   6.535   1.388  0.7288  0.4978 -0.1211
  260SOL     ow 1037   4.550   0.015   6.155  0.0781 -0.0504  0.9310
  260SOL     hw 1038   4.634   0.023   6.202  0.0164 -1.2527  1.2974
  260SOL     hw 1039   4.569   0.046   6.067  1.0505 -0.7524  0.8715
  260SOL     vw 1040   4.564   0.020   6.150  0.1981 -0.3017  0.9716
  261SOL     ow 1041   4.280   5.822   6.707 -0.1211 -0.3483  0.1843
  261SOL     hw 1042   4.298   5.870   6.788  0.1356 -0.1912  0.0333
  261SOL     hw 1043   4.185   5.812   6.706 -0.3454  1.5474 -0.5785
  261SOL     vw 1044   4.270   5.827   6.718 -0.1168 -0.0775  0.0637
  262SOL     ow 1045   1.309   5.332   0.906 -0.2684  0.2604  0.4520
  262SOL     hw 1046   1.373   5.318   0.976  0.7204 -0.0385 -0.4898
  262SOL     hw 1047   1.236   5.377   0.949  0.1413 -0.2752  1.7545
  262SOL     vw 1048   1.308   5.337   0.921 -0.0838  0.1507  0.4995
  263SOL     ow 1049   6.181   3.352   4.640  0.4507  0.2971  0.2592
  263SOL     hw 1050   6.186   3.331   4.733  0.4659  0.0244  0.1987
  263SOL     hw 1051   6.101   3.308   4.610 -1.5505  3.2521  0.8703
  263SOL     vw 1052   6.171   3.343   4.648  0.1886  0.6510  0.3321
  264SOL     ow 1053   3.079   4.781   2.666  0.7725  0.1699  0.2579
  264SOL     hw 1054   3.026   4.839   2.611  1.7609  1.3047  0.4674
  264SOL     hw 1055   3.019   4.756   2.737  0.1422  0.4480 -0.1598
  264SOL     vw 1056   3.064   4.786   2.668  0.8198  0.3564  0.2306
  265SOL     ow 1057   6.029   3.514   5.076  0.3356 -0.0197  0.1921
  265SOL     hw 1058   6.097   3.541   5.014 -0.1739  1.7425  0.3382
  265SOL     hw 1059   5.961   3.474   5.022  1.6986 -2.4023  0.1085
  265SOL     vw 1060   6.029   3.513   5.061  0.4480 -0.1014  0.2003
  266SOL     ow 1061   3.213   5.751   3.598 -0.2837 -0.4073 -0.0580
  266SOL     hw 1062   3.202   5.705   3.514  0.4188  0.7449 -0.8184
  266SOL     hw 1063   3.298   5.793   3.590 -0.1665 -0.3648  1.3022
  266SOL     vw 1064   3.223   5.750   3.586 -0.1757 -0.2496  0.0212
  267SOL     ow 1065   3.138   0.363   6.611  0.3263  0.1945  0.1642
  267SOL     hw 1066   3.227   0.333   6.598 -1.6052 -5.6775 -3.4662
  267SOL     hw 1067   3.116   0.409   6.529 -0.2993  0.6927  0.5986
  267SOL     vw 1068   3.147   0.365   6.598 -0.0112 -0.5145 -0.2575
  268SOL     ow 1069   2.000   2.876   1.513  0.1669  0.4269  0.1625
  268SOL     hw 1070   1.994   2.966   1.546  1.8831  0.8424 -0.5166
  268SOL     hw 1071   2.003   2.886   1.418 -0.9395 -0.4616  0.0255
  268SOL     vw 1072   2.000   2.889   1.505  0.2475  0.3645  0.0548
  269SOL     ow 1073   1.719   3.501   2.429 -0.6612 -0.4014  0.1744
  269SOL     hw 1074   1.691   3.502   2.521 -1.8512 -1.0998 -0.1507
  269SOL     hw 1075   1.775   3.424   2.423 -0.5127 -0.3066  0.3373
  269SOL     vw 1076   1.723   3.491   2.441 -0.7986 -0.4810  0.1531
  270SOL     ow 1077   6.328   0.333   4.247 -0.3961 -0.4573  0.2764
  270SOL     hw 1078   6.339   0.238   4.250  0.3384 -0.3942 -0.0683
  270SOL     hw 1079   6.394   0.362   4.184 -0.2169  0.3382  0.8266
  270SOL     vw 1080   6.338   0.324   4.239 -0.2756 -0.3440  0.3037
  271SOL     ow 1081   4.011   3.994   6.811  0.4192  0.0805  0.4533
  271SOL     hw 1082   4.061   4.027   6.886 -0.9414 -2.1876  2.5171
  271SOL     hw 1083   3.921   4.024   6.827  0.2398  0.2171 -0.7131
  271SOL     vw 1084   4.005   4.002   6.823  0.2162 -0.2007  0.5717
  272SOL     ow 1085   6.288   1.780   3.231 -0.0703  0.0740  0.7693
  272SOL     hw 1086   6.355   1.753   3.169 -0.9146 -2.2736  0.7641
  272SOL     hw 1087   6.240   1.849   3.186  1.7502  1.1903  0.4387
  272SOL     vw 1088   6.291   1.785   3.217  0.0587 -0.0885  0.7250
  273SOL     ow 1089   5.615   5.009   4.175  0.3960  0.0453 -0.4083
  273SOL     hw 1090   5.606   5.098   4.139 -2.6584 -0.5288 -1.3764
  273SOL     hw 1091   5.691   5.015   4.234  0.7321  3.0891 -0.9368
  273SOL     vw 1092   5.624   5.022   4.178  0.0374  0.3712 -0.6056
  274SOL     ow 1093   0.376   5.115   6.398  0.2506 -0.2174 -0.4670
  274SOL     hw 1094   0.369   5.187   6.336 -4.0144  0.8838  0.8945
  274SOL     hw 1095   0.355   5.155   6.483 -2.9002 -2.9529  0.2776
  274SOL     vw 1096   0.372   5.130   6.401 -0.7278 -0.4332 -0.1891
  275SOL     ow 1097   5.048   0.407   1.783  0.3854  0.3950 -0.3389
  275SOL     hw 1098   4.997   0.459   1.846  3.8619  3.2303  0.4805
  275SOL     hw 1099   4.997   0.410   1.702 -1.7214  1.1866  0.9454
  275SOL     vw 1100   5.035   0.415   1.781  0.5660  0.8735 -0.0613
  276SOL     ow 1101   1.729   4.729   0.084  0.2094  0.0549  0.4585
  276SOL     hw 1102   1.651   4.683   0.053 -0.2717 -0.1367  1.9160
  276SOL     hw 1103   1.777   4.664   0.136  0.2449  0.7829  1.3540
  276SOL     vw 1104   1.725   4.714   0.087  0.1506  0.1256  0.7689
  277SOL     ow 1105   3.329   6.250   5.191 -0.0106 -0.0457 -0.2827
  277SOL     hw 1106   3.400   6.312   5.205  0.0292 -0.1479 -0.0312
  277SOL     hw 1107   3.310   6.215   5.278  1.3780 -1.9424 -0.6866
  277SOL     vw 1108   3.336   6.254   5.204  0.1779 -0.3095 -0.3026
  278SOL     ow 1109   5.839   5.529   5.708  0.2376  0.2258 -0.1407
  278SOL     hw 1110   5.890   5.535   5.628  0.4164 -0.9059 -0.1342
  278SOL     hw 1111   5.889   5.577   5.773 -0.1867  1.6420 -0.8200
  278SOL     vw 1112   5.852   5.536   5.706  0.2053  0.2635 -0.2296
  279SOL     ow 1113   2.999   4.566   5.888 -0.6014 -0.8507  0.0232
  279SOL     hw 1114   2.924   4.572   5.829 -0.1341 -1.3277 -0.6360
  279SOL     hw 1115   2.993   4.477   5.924 -0.9088 -0.5462  0.7258
  279SOL     vw 1116   2.988   4.555   5.885 -0.5803 -0.8733  0.0286
  280SOL     ow 1117   1.254   2.546   6.633  0.2420 -0.5795  0.0677
  280SOL     hw 1118   1.342   2.575   6.656  0.6862 -2.6505  1.2367
  280SOL     hw 1119   1.201   2.567   6.710  0.4373 -2.2054  0.6699
  280SOL     vw 1120   1.258   2.553   6.646  0.3264 -1.0674  0.3016
  281SOL     ow 1121   2.568   5.491   5.753 -0.2314 -0.1536 -0.3147
  281SOL     hw 1122   2.578   5.516   5.844 -2.5888 -1.5453  0.4224
  281SOL     hw 1123   2.521   5.564   5.712 -2.1793 -0.9079  0.4697
  281SOL     vw 1124   2.563   5.504   5.759 -0.7994 -0.4368 -0.1140
  282SOL     ow 1125   0.981   0.646   4.152  0.2307  0.5676  0.4059
  282SOL     hw 1126   0.962   0.559   4.189 -0.0938  0.3631 -0.2314
  282SOL     hw 1127   0.896   0.690   4.149  0.2477  0.5643 -0.1432
  282SOL     vw 1128   0.967   0.640   4.157  0.1902  0.5402  0.2494
  283SOL     ow 1129   5.826   2.909   4.923 -0.3495  0.5598 -0.0639
  283SOL     hw 1130   5.752   2.849   4.922 -1.6392  2.0134  1.3768
  283SOL     hw 1131   5.790   2.991   4.959  1.1098  2.5085 -2.6788
  283SOL     vw 1132   5.812   2.912   4.928 -0.3273  1.0086 -0.2189
  284SOL     ow 1133   5.661   6.675   5.452  0.1856  0.2348  0.4134
  284SOL     hw 1134   5.669   6.640   5.363 -1.3828 -1.3542  0.8360
  284SOL     hw 1135   5.670   6.770   5.441 -0.7620  0.1622 -1.5774
  284SOL     vw 1136   5.663   6.683   5.439 -0.1464  0.0157  0.2067
  285SOL     ow 1137   0.104   1.398   2.833  0.4327  0.3119 -0.6646
  285SOL     hw 1138   0.147   1.402   2.918 -0.3652  1.2973 -0.2793
  285SOL     hw 1139   0.174   1.414   2.770  0.7312  1.3851 -0.0861
  285SOL     vw 1140   0.119   1.400   2.836  0.3668  0.5835 -0.5374
  286SOL     ow 1141   1.127   4.568   2.184 -0.0670  0.2530  0.0975
  286SOL     hw 1142   1.033   4.575   2.166 -0.8289 -2.8607  1.9541
  286SOL     hw 1143   1.137   4.606   2.271 -0.1827 -1.7066  1.0121
  286SOL     vw 1144   1.116   4.574   2.193 -0.1828 -0.4165  0.4630
  287SOL     ow 1145   3.107   3.954   4.792 -0.1371  0.3245 -0.0524
  287SOL     hw 1146   3.050   4.031   4.803  1.2118  1.4283 -0.4925
  287SOL     hw 1147   3.117   3.919   4.880 -1.3495  0.1914  0.0573
  287SOL     vw 1148   3.101   3.960   4.805 -0.1192  0.4525 -0.0961
  288SOL     ow 1149   3.708   4.143   4.499 -0.2075  0.0054 -0.6569
  288SOL     hw 1150   3.674   4.172   4.415 -1.7319 -1.3766 -0.5674
  288SOL     hw 1151   3.702   4.220   4.556 -1.1389  0.3820 -1.2528
  288SOL     vw 1152   3.703   4.157   4.496 -0.5314 -0.1271 -0.7241
  289SOL     ow 1153   0.065   6.591   3.142  0.1623  0.2085  0.2928
  289SOL     hw 1154   0.014   6.606   3.062 -0.4264  1.2736  0.8375
  289SOL     hw 1155   0.007   6.617   3.213  0.8507 -0.2490  1.0496
  289SOL     vw 1156   0.051   6.597   3.141  0.1754  0.2885  0.4644
  290SOL     ow 1157   4.474   4.685   0.945  0.1228  0.1848 -0.0443
  290SOL     hw 1158   4.421   4.671   0.866 -2.1413  1.2002  1.1970
  290SOL     hw 1159   4.470   4.779   0.960  2.3704  0.3034  0.1179
  290SOL     vw 1160   4.466   4.695   0.936  0.1206  0.3343  0.1409
  291SOL     ow 1161   2.792   6.007   1.481 -0.3998 -0.6734 -0.2935
  291SOL     hw 1162   2.821   6.095   1.458 -2.5874  1.1114  2.9429
  291SOL     hw 1163   2.778   5.963   1.397 -0.0950  2.3687 -2.0794
  291SOL     vw 1164   2.794   6.012   1.467 -0.6481 -0.0365 -0.1021
  292SOL     ow 1165   6.703   3.620   2.481 -0.2063 -0.3751  0.0589
  292SOL     hw 1166   6.774   3.563   2.510  1.9216  0.8872 -2.2584
  292SOL     hw 1167   6.727   3.645   2.392 -2.2264  2.2415  0.1203
  292SOL     vw 1168   6.715   3.616   2.473 -0.1919  0.1367 -0.2389
  293SOL     ow 1169   5.954   0.389   6.783  0.2331  0.1112  0.0297
  293SOL     hw 1170   5.897   0.466   6.784 -0.3851 -0.3297 -0.2181
  293SOL     hw 1171   6.030   0.414   6.835 -0.4471  0.5250  0.8350
  293SOL     vw 1172   5.956   0.402   6.790  0.0620  0.1077  0.1035
  294SOL     ow 1173   4.954   6.016   2.699 -0.2926  0.7836  0.0337
  294SOL     hw 1174   4.963   5.928   2.735 -0.8924 -0.2337 -2.0878
  294SOL     hw 1175   5.043   6.048   2.689  0.0480 -0.3803 -0.8760
  294SOL     vw 1176   4.967   6.009   2.702 -0.3269  0.4959 -0.3662
  295SOL     ow 1177   1.105   3.404   3.159 -0.5007  0.3645  0.5908
  295SOL     hw 1178   1.083   3.334   3.220  0.1407  1.0546  1.6438
  295SOL     hw 1179   1.117   3.481   3.214 -1.1201  1.2986 -0.5311
  295SOL     vw 1180   1.104   3.405   3.174 -0.4978  0.5789  0.5817
  296SOL     ow 1181   2.162   5.897   0.353 -0.0839  0.3881 -0.4637
  296SOL     hw 1182   2.117   5.893   0.269 -0.4352  1.0877 -0.3194
  296SOL     hw 1183   2.134   5.980   0.391 -0.4310 -0.1971  0.6240
  296SOL     vw 1184   2.152   5.907   0.347 -0.1760  0.4032 -0.3011
  297SOL     ow 1185   6.644   1.355   6.180  0.8189  0.4410  0.3276
  297SOL     hw 1186   6.717   1.417   6.183 -0.4330  1.9522  1.5629
  297SOL     hw 1187   6.685   1.270   6.171  2.6773  1.3438 -0.1307
  297SOL     vw 1188   6.659   1.352   6.179  0.8993  0.7595  0.4303
  298SOL     ow 1189   5.929   0.975   4.478 -0.2662  0.0638 -0.2187
  298SOL     hw 1190   5.856   1.014   4.430  1.6685  1.8767 -1.8898
  298SOL     hw 1191   5.998   1.042   4.475  1.6364 -1.7282  0.8835
  298SOL     vw 1192   5.929   0.989   4.471  0.2398  0.0665 -0.2937
  299SOL     ow 1193   3.305   4.294   6.776 -0.7455  0.0232  0.1758
  299SOL     hw 1194   3.354   4.229   6.826  1.9282  1.4419 -0.3930
  299SOL     hw 1195   3.248   4.337   6.840  0.1663 -0.4221  1.3205
  299SOL     vw 1196   3.304   4.291   6.791 -0.2723  0.1514  0.2518
  300SOL     ow 1197   3.774   3.452   1.296  0.4406 -0.2295 -0.0770
  300SOL     hw 1198   3.719   3.419   1.224  0.5107  0.6858 -0.5767
  300SOL     hw 1199   3.738   3.540   1.314  0.4226 -0.4502  1.0167
  300SOL     vw 1200   3.762   3.460   1.289  0.4475 -0.1378  0.0013
  301SOL     ow 1201   6.374   4.893   3.280  0.2264  0.4166  0.1791
  301SOL     hw 1202   6.327   4.888   3.196  1.3087  0.0643 -0.4270
  301SOL     hw 1203   6.459   4.932   3.257 -0.3167  2.5088  1.5027
  301SOL     vw 1204   6.379   4.897   3.266  0.2973  0.6461  0.2737
  302SOL     ow 1205   2.559   2.178   5.064  0.0994 -0.3182 -0.1138
  302SOL     hw 1206   2.523   2.251   5.115  0.8952 -0.7963  1.1977
  302SOL     hw 1207   2.649   2.169   5.096  0.4550 -0.9937 -1.2429
  302SOL     vw 1208   2.566   2.187   5.075  0.2513 -0.4704 -0.0896
  303SOL     ow 1209   3.139   5.920   0.104  0.0511 -0.1791 -0.5498
  303SOL     hw 1210   3.072   5.934   0.170  0.4240 -0.4292 -0.1132
  303SOL     hw 1211   3.183   5.840   0.131 -0.3830 -0.7858 -1.6012
  303SOL     vw 1212   3.136   5.911   0.116  0.0430 -0.2923 -0.6309
  304SOL     ow 1213   4.317   2.528   4.702 -0.4198  0.0687 -0.5009
  304SOL     hw 1214   4.317   2.606   4.647 -0.8113  2.2504  2.3743
  304SOL     hw 1215   4.394   2.537   4.758 -1.1165 -0.9702  0.6913
  304SOL     vw 1216   4.327   2.539   4.702 -0.5631  0.2193  0.0355
  305SOL     ow 1217   0.643   6.714   0.726  0.3434 -0.8903 -0.3899
  305SOL     hw 1218   0.642   6.694   0.632 -0.0597 -2.1275 -0.1386
  305SOL     hw 1219   0.723   6.765   0.738 -0.7404  1.2497 -1.7708
  305SOL     vw 1220   0.654   6.718   0.715  0.1473 -0.7710 -0.5389
  306SOL     ow 1221   2.174   2.179   5.669 -0.4034  0.1099 -0.2279
  306SOL     hw 1222   2.110   2.191   5.599 -0.2846  1.4827 -0.1197
  306SOL     hw 1223   2.167   2.258   5.723  1.5103  0.3825 -0.3150
  306SOL     vw 1224   2.165   2.191   5.667 -0.1352  0.3270 -0.2251
  307SOL     ow 1225   6.612   2.007   4.782  0.0747 -0.2822  0.0627
  307SOL     hw 1226   6.544   2.024   4.848 -1.1883  0.2560 -1.3126
  307SOL     hw 1227   6.586   2.061   4.707  0.1400 -2.6218 -1.7564
  307SOL     vw 1228   6.600   2.017   4.781 -0.0834 -0.5198 -0.3588
  308SOL     ow 1229   4.327   6.119   3.633 -0.6706 -0.0219  0.0046
  308SOL     hw 1230   4.361   6.064   3.562  2.3139 -2.6611  3.1178
  308SOL     hw 1231   4.388   6.193   3.637  1.2996 -1.6374  1.7901
  308SOL     vw 1232   4.340   6.121   3.624 -0.0167 -0.5834  0.6509
  309SOL     ow 1233   6.054   0.251   3.707 -0.6385  0.7076  0.1290
  309SOL     hw 1234   6.032   0.171   3.754  0.1853  0.3769 -0.0298
  309SOL     hw 1235   6.008   0.243   3.623  0.4011 -0.1864 -0.3851
  309SOL     vw 1236   6.045   0.240   3.702 -0.3927  0.5460  0.0402
  310SOL     ow 1237   2.689   2.316   6.758  0.3071 -0.1915 -0.1447
  310SOL     hw 1238   2.646   2.320   6.843  0.9549  0.6784  0.1547
  310SOL     hw 1239   2.720   2.226   6.751  1.6543  0.1307  1.2603
  310SOL     vw 1240   2.687   2.305   6.768  0.5703 -0.0342  0.0801
  311SOL     ow 1241   2.405   6.070   5.058  0.0492 -0.2955 -0.4114
  311SOL     hw 1242   2.432   6.092   5.148 -1.1403 -2.8518  0.6751
  311SOL     hw 1243   2.485   6.035   5.018 -0.0787 -1.9204  0.6787
  311SOL     vw 1244   2.419   6.068   5.065 -0.1246 -0.8471 -0.1245
  312SOL     ow 1245   4.544   1.827   2.091  0.5693 -0.6181 -0.0661
  312SOL     hw 1246   4.475   1.767   2.063  0.0990  0.2603 -0.8005
  312SOL     hw 1247   4.617   1.769   2.113 -0.4750 -1.5706  1.0028
  312SOL     vw 1248   4.545   1.811   2.090  0.3693 -0.6279 -0.0219
  313SOL     ow 1249   0.462   3.614   3.404  1.0168  0.1013 -0.5509
  313SOL     hw 1250   0.453   3.703   3.370  1.0232  0.9372  1.5434
  313SOL     hw 1251   0.463   3.559   3.325  0.6182  1.8943 -1.8731
  313SOL     vw 1252   0.461   3.619   3.389  0.9651  0.4481 -0.4489
  314SOL     ow 1253   2.970   3.160   0.749 -0.6939 -0.0209 -0.4692
  314SOL     hw 1254   3.062   3.185   0.759 -0.2363 -1.1924 -1.5918
  314SOL     hw 1255   2.927   3.239   0.717 -0.0104  0.4300 -0.2977
  314SOL     vw 1256   2.976   3.174   0.746 -0.5434 -0.1160 -0.5946
  315SOL     ow 1257   5.645   0.958   0.330 -0.6166 -0.0318  0.0703
  315SOL     hw 1258   5.579   1.026   0.337 -0.9454 -0.3297 -0.0749
  315SOL     hw 1259   5.599   0.878   0.357 -0.3442 -0.2567 -0.1323
  315SOL     vw 1260   5.630   0.956   0.334 -0.6242 -0.1008  0.0244
  316SOL     ow 1261   2.874   2.323   1.773 -0.1419  0.1596  0.2301
  316SOL     hw 1262   2.835   2.338   1.687 -1.1002  1.9746  0.9130
  316SOL     hw 1263   2.867   2.408   1.817  1.2239 -0.4596  1.7460
  316SOL     vw 1264   2.868   2.336   1.768 -0.0881  0.3173  0.5202
  317SOL     ow 1265   0.369   3.768   0.083 -0.6180 -0.7074 -0.6938
  317SOL     hw 1266   0.323   3.825   0.020 -0.3984 -2.1028 -2.1740
  317SOL     hw 1267   0.425   3.713   0.029  0.8265 -0.8594  0.8845
  317SOL     vw 1268   0.370   3.768   0.067 -0.3984 -0.9115 -0.6809
  318SOL     ow 1269   2.292   5.540   1.127 -0.1695 -0.6883  0.1612
  318SOL     hw 1270   2.385   5.550   1.108  0.0878 -0.9606  1.2329
  318SOL     hw 1271   2.270   5.452   1.098 -0.2199 -0.4550 -0.5381
  318SOL     vw 1272   2.301   5.530   1.120 -0.1421 -0.6933  0.2104
  319SOL     ow 1273   0.044   0.777   1.291 -0.5669  0.1486 -0.1975
  319SOL     hw 1274   0.066   0.834   1.365 -1.1343  1.0140 -0.6791
  319SOL     hw 1275   0.115   0.792   1.228 -0.3544 -0.1980 -0.0398
  319SOL     vw 1276   0.056   0.787   1.293 -0.6137  0.2170 -0.2402
  320SOL     ow 1277   5.082   5.451   4.122 -0.2249 -0.4185  0.5197
  320SOL     hw 1278   5.101   5.484   4.035  1.3642 -1.4378  0.4385
  320SOL     hw 1279   5.019   5.380   4.107 -1.0382  0.3090  0.3738
  320SOL     vw 1280   5.076   5.446   4.109 -0.1225 -0.4568  0.4897
  321SOL     ow 1281   1.530   0.823   2.015 -0.0702 -0.2304  0.2463
  321SOL     hw 1282   1.570   0.889   1.958 -0.3828 -0.8482 -0.7097
  321SOL     hw 1283   1.448   0.863   2.044  0.8348  0.7326  1.5975
  321SOL     vw 1284   1.524   0.837   2.011  0.0079 -0.1848  0.2986
  322SOL     ow 1285   2.722   4.326   1.363  0.4849 -0.4433  0.3278
  322SOL     hw 1286   2.647   4.301   1.416  0.6677 -0.3195  0.6493
  322SOL     hw 1287   2.685   4.348   1.277 -0.1462  1.7744  1.0906
  322SOL     vw 1288   2.707   4.325   1.358  0.4257 -0.1345  0.4709
  323SOL     ow 1289   5.340   3.547   1.625 -0.1178  0.3581 -0.0438
  323SOL     hw 1290   5.409   3.557   1.559 -0.5617 -0.0894 -0.5810
  323SOL     hw 1291   5.348   3.626   1.680  2.3668 -0.7777  1.3830
  323SOL     vw 1292   5.350   3.559   1.624  0.1514  0.1491  0.0736
  324SOL     ow 1293   1.866   4.790   1.238 -0.4249  0.4718  0.1472
  324SOL     hw 1294   1.870   4.864   1.177  1.8753 -0.7935 -1.4115
  324SOL     hw 1295   1.958   4.771   1.258 -0.9117 -2.0784  0.2939
  324SOL     vw 1296   1.879   4.797   1.233 -0.1857 -0.0317 -0.0391
  325SOL     ow 1297   2.216   1.604   2.993 -0.1114  0.2676 -0.6527
  325SOL     hw 1298   2.289   1.542   2.994 -0.4636 -0.2276 -2.2571
  325SOL     hw 1299   2.140   1.553   3.020 -0.4733 -0.1624 -2.3388
  325SOL     vw 1300   2.215   1.589   2.996 -0.2056  0.1456 -1.0868
  326SOL     ow 1301   0.366   5.395   5.769 -0.1939 -0.0695  0.4272
  326SOL     hw 1302   0.335   5.305   5.758 -1.3844  0.3250  0.3770
  326SOL     hw 1303   0.327   5.424   5.851  1.8643 -0.2488  1.5269
  326SOL     vw 1304   0.357   5.387   5.778 -0.0794 -0.0410  0.5655
  327SOL     ow 1305   1.582   1.299   0.545 -0.2008 -0.5113 -0.3832
  327SOL     hw 1306   1.612   1.217   0.582 -0.7465  0.0691  1.4600
  327SOL     hw 1307   1.494   1.311   0.580 -0.9807 -0.1619 -2.3344
  327SOL     vw 1308   1.574   1.290   0.554 -0.3756 -0.3886 -0.3975
  328SOL     ow 1309   6.680   5.335   0.306 -0.1938 -0.2915 -0.2854
  328SOL     hw 1310   6.585   5.325   0.298 -0.3484  0.5401  0.3531
  328SOL     hw 1311   6.702   5.286   0.386 -0.4232  1.2680  0.7859
  328SOL     vw 1312   6.670   5.327   0.316 -0.2444  0.0241 -0.0599
  329SOL     ow 1313   5.821   5.471   2.276  0.4627 -0.4409  0.1974
  329SOL     hw 1314   5.889   5.405   2.270  0.8219 -0.0659  0.0848
  329SOL     hw 1315   5.838   5.531   2.203 -1.0225 -1.2925 -0.8957
  329SOL     vw 1316   5.832   5.470   2.266  0.3140 -0.5035  0.0383
  330SOL     ow 1317   4.698   3.912   4.703 -0.1946 -0.1999 -0.3510
  330SOL     hw 1318   4.739   3.945   4.624 -2.0152 -1.7009 -2.0253
  330SOL     hw 1319   4.610   3.887   4.676 -1.6071  1.0508  2.6018
  330SOL     vw 1320   4.692   3.913   4.689 -0.6211 -0.2329 -0.1824
  331SOL     ow 1321   4.580   2.942   3.513  0.4954  0.6771  0.1154
  331SOL     hw 1322   4.609   2.994   3.589 -1.7219  0.7740  0.9792
  331SOL     hw 1323   4.508   2.888   3.547  1.8937 -2.1113 -1.0578
  331SOL     vw 1324   4.574   2.942   3.528  0.3874  0.3220  0.0745
  332SOL     ow 1325   5.523   2.415   4.241  0.0055 -0.2586  0.3827
  332SOL     hw 1326   5.452   2.480   4.246 -0.7764 -1.0363 -0.2967
  332SOL     hw 1327   5.479   2.332   4.227  1.0612 -0.7182 -0.4106
  332SOL     vw 1328   5.508   2.413   4.240  0.0417 -0.4219  0.1884
  333SOL     ow 1329   3.573   0.715   4.080 -0.9185 -0.4275 -1.2183
  333SOL     hw 1330   3.507   0.759   4.027  0.6462  0.5279 -2.4737
  333SOL     hw 1331   3.562   0.622   4.059 -0.0696 -0.0545 -3.6430
  333SOL     vw 1332   3.563   0.708   4.070 -0.6000 -0.2522 -1.7037
  334SOL     ow 1333   4.533   6.324   0.893 -0.1406  0.2127 -0.6324
  334SOL     hw 1334   4.547   6.408   0.849 -1.7453  1.1226  0.5049
  334SOL     hw 1335   4.457   6.339   0.949 -0.0403 -1.8182  0.1062
  334SOL     vw 1336   4.524   6.337   0.894 -0.3393  0.0648 -0.3849
  335SOL     ow 1337   2.624   1.159   0.199 -0.0664  0.5193  0.0014
  335SOL     hw 1338   2.581   1.185   0.281 -0.8372 -0.7462  0.0133
  335SOL     hw 1339   2.593   1.222   0.134 -2.4889 -0.7136 -0.1309
  335SOL     vw 1340   2.615   1.171   0.201 -0.4878  0.1896 -0.0145
  336SOL     ow 1341   3.721   3.495   1.618 -0.0912  0.1656 -0.5715
  336SOL     hw 1342   3.778   3.486   1.695 -0.5954  0.1094 -0.1964
  336SOL     hw 1343   3.680   3.580   1.629 -0.8262 -0.2122 -0.3160
  336SOL     vw 1344   3.723   3.505   1.630 -0.2546  0.1085 -0.4884
  337SOL     ow 1345   0.556   2.248   2.823 -0.0040  0.0838  0.4972
  337SOL     hw 1346   0.464   2.241   2.795 -0.4398 -2.2171  2.1952
  337SOL     hw 1347   0.551   2.276   2.914  0.8604 -1.5167  1.0721
  337SOL     vw 1348   0.543   2.250   2.831  0.0526 -0.4309  0.7973
  338SOL     ow 1349   6.102   1.705   2.658  0.5998 -0.1708  0.2809
  338SOL     hw 1350   6.018   1.665   2.637  0.5941  0.5589 -1.2756
  338SOL     hw 1351   6.144   1.643   2.717 -0.1453 -1.5843 -0.6066
  338SOL     vw 1352   6.096   1.692   2.663  0.5004 -0.2611 -0.0417
  339SOL     ow 1353   5.124   1.934   6.342  0.5564 -0.2579 -0.1282
  339SOL     hw 1354   5.034   1.900   6.343 -0.1216  1.4194  1.2680
  339SOL     hw 1355   5.114   2.029   6.344  2.3197 -0.0364  1.6168
  339SOL     vw 1356   5.111   1.942   6.342  0.6995 -0.0073  0.2863
  340SOL     ow 1357   2.856   0.075   3.767 -0.2969 -0.3297 -0.2716
  340SOL     hw 1358   2.917   0.011   3.729  0.7085  0.2175  0.3691
  340SOL     hw 1359   2.851   0.052   3.860 -1.2163 -0.4710 -0.3495
  340SOL     vw 1360   2.864   0.064   3.774 -0.2854 -0.2761 -0.1973
  341SOL     ow 1361   0.576   1.334   1.517  0.3959  0.5082  0.5935
  341SOL     hw 1362   0.635   1.357   1.445  1.4089 -0.0485  1.2366
  341SOL     hw 1363   0.631   1.334   1.595 -0.1345 -1.4429  1.0084
  341SOL     vw 1364   0.591   1.337   1.518  0.4596  0.1773  0.7331
  342SOL     ow 1365   5.976   5.953   4.113  0.1162 -0.8916  0.3253
  342SOL     hw 1366   5.944   5.940   4.024 -2.2135 -0.0735  0.9625
  342SOL     hw 1367   6.070   5.967   4.103 -0.1888 -0.0825 -2.1010
  342SOL     vw 1368   5.984   5.953   4.100 -0.2315 -0.6769  0.0892
  343SOL     ow 1369   3.757   5.101   1.034  0.2698  0.9027 -0.2696
  343SOL     hw 1370   3.766   5.032   0.968  1.0232 -0.5998  1.3336
  343SOL     hw 1371   3.671   5.085   1.073  0.3942  0.9355  0.0198
  343SOL     vw 1372   3.747   5.090   1.030  0.3856  0.7088 -0.0200
  344SOL     ow 1373   0.115   3.612   6.164  0.9812  0.3110 -1.0101
  344SOL     hw 1374   0.083   3.608   6.254  1.7076  0.7317 -0.7270
  344SOL     hw 1375   0.045   3.573   6.112 -0.1896  1.6237 -0.4658
  344SOL     vw 1376   0.102   3.606   6.169  0.9226  0.5397 -0.9007
  345SOL     ow 1377   0.878   1.239   6.378  0.3020 -0.0033 -0.1475
  345SOL     hw 1378   0.879   1.151   6.415  1.5197 -0.5357 -1.3606
  345SOL     hw 1379   0.859   1.226   6.285 -1.0521  1.1697 -0.0776
  345SOL     vw 1380   0.876   1.226   6.371  0.2840  0.0813 -0.2983
  346SOL     ow 1381   3.682   6.599   3.351 -0.5628 -0.2300  0.4013
  346SOL     hw 1382   3.647   6.578   3.264 -1.0034  0.3728  0.4233
  346SOL     hw 1383   3.676   6.695   3.356  0.3402 -0.1784  0.7311
  346SOL     vw 1384   3.677   6.609   3.340 -0.5018 -0.1438  0.4476
  347SOL     ow 1385   0.897   1.885   1.797  0.9068 -0.5610 -0.4109
  347SOL     hw 1386   0.905   1.957   1.859  1.8150  0.3433 -1.5445
  347SOL     hw 1387   0.803   1.864   1.798  0.9539 -0.9351  1.6171
  347SOL     vw 1388   0.885   1.892   1.806  1.0328 -0.4911 -0.2929
  348SOL     ow 1389   4.106   2.823   5.175 -0.2716 -0.0255 -0.4990
  348SOL     hw 1390   4.062   2.741   5.199 -1.7471  1.2203  1.2574
  348SOL     hw 1391   4.037   2.889   5.175  0.8935  1.2714 -1.8620
  348SOL     vw 1392   4.091   2.821   5.178 -0.3126  0.3101 -0.4470
  349SOL     ow 1393   0.714   1.162   2.918  0.0717 -0.1485  0.1572
  349SOL     hw 1394   0.687   1.225   2.985  0.8217  0.3717 -0.0188
  349SOL     hw 1395   0.633   1.115   2.895 -0.8645  1.8361 -0.8503
  349SOL     vw 1396   0.699   1.164   2.924  0.0471  0.1819  0.0011
  350SOL     ow 1397   4.954   1.593   5.040 -0.0308  0.3035 -0.5562
  350SOL     hw 1398   4.999   1.594   4.956 -0.3859 -2.5213 -0.8732
  350SOL     hw 1399   4.964   1.503   5.072 -0.8697  0.9968  1.8980
  350SOL     vw 1400   4.961   1.581   5.033 -0.1886  0.0223 -0.2744
  351SOL     ow 1401   2.983   5.883   3.759 -0.6601  0.2060  0.1635
  351SOL     hw 1402   2.892   5.906   3.741 -1.0100 -1.1444  0.1152
  351SOL     hw 1403   3.023   5.965   3.786 -2.4100  0.4420  2.2703
  351SOL     vw 1404   2.976   5.897   3.760 -0.9371  0.0591  0.4350
  352SOL     ow 1405   4.558   0.984   3.581 -0.2463 -0.5101  0.2329
  352SOL     hw 1406   4.557   0.906   3.636  1.6126  0.0541  1.1548
  352SOL     hw 1407   4.511   1.050   3.632 -0.1983 -0.5202  0.2909
  352SOL     vw 1408   4.551   0.982   3.595  0.0055 -0.4370  0.3623
  353SOL     ow 1409   3.182   6.758   3.002  0.1005  0.1381  0.3872
  353SOL     hw 1410   3.108   6.707   3.034 -0.8614  0.1999 -1.6453
  353SOL     hw 1411   3.244   6.692   2.970 -1.4779  0.0785 -2.9821
  353SOL     vw 1412   3.181   6.743   3.002 -0.2346  0.1385 -0.3256
  354SOL     ow 1413   4.243   6.735   0.481  0.5001  0.1329  0.3828
  354SOL     hw 1414   4.187   6.785   0.541  0.2770  0.7807 -0.3372
  354SOL     hw 1415   4.332   6.750   0.512  0.3189 -0.4974  1.2425
  354SOL     vw 1416   4.247   6.744   0.493  0.4466  0.1349  0.4013
  355SOL     ow 1417   4.987   0.962   5.008 -0.6656  0.1687 -0.0639
  355SOL     hw 1418   4.954   1.047   4.977  1.1729 -0.0046 -2.8958
  355SOL     hw 1419   4.911   0.919   5.047 -2.5895  1.6250 -1.9997
  355SOL     vw 1420   4.972   0.967   5.009 -0.6769  0.3380 -0.6926
  356SOL     ow 1421   2.431   6.745   2.348  0.3197  0.4138 -0.3158
  356SOL     hw 1422   2.517   6.704   2.341  0.6651  1.1568 -0.4876
  356SOL     hw 1423   2.377   6.697   2.285  0.4873 -0.3474  0.1156
  356SOL     vw 1424   2.435   6.733   2.339  0.3873  0.4115 -0.2815
  357SOL     ow 1425   4.169   2.766   1.356 -0.2371  0.1643 -0.2431
  357SOL     hw 1426   4.159   2.785   1.449 -3.1386 -0.3695 -0.3404
  357SOL     hw 1427   4.235   2.697   1.353  1.2656  1.4566  1.1997
  357SOL     vw 1428   4.176   2.759   1.368 -0.4218  0.2644 -0.0656
  358SOL     ow 1429   3.924   1.702   5.140 -0.0271  0.4484  0.4307
  358SOL     hw 1430   3.975   1.665   5.069 -0.3382 -0.2970  0.5880
  358SOL     hw 1431   3.975   1.683   5.219 -0.8500 -0.8947  0.6631
  358SOL     vw 1432   3.938   1.695   5.141 -0.1767  0.1728  0.4818
  359SOL     ow 1433   2.775   2.519   6.533  0.2172  0.0548 -0.0951
  359SOL     hw 1434   2.787   2.464   6.456 -1.0828 -0.7660  0.2566
  359SOL     hw 1435   2.734   2.598   6.500  0.0220 -0.1315 -0.3036
  359SOL     vw 1436   2.772   2.522   6.519  0.0199 -0.0781 -0.0763
  360SOL     ow 1437   0.809   1.719   3.485 -0.3171  0.0248 -0.6141
  360SOL     hw 1438   0.828   1.755   3.572 -0.4165  1.1756 -1.0526
  360SOL     hw 1439   0.872   1.648   3.474  0.1617  0.3244  0.1178
  360SOL     vw 1440   0.820   1.715   3.495 -0.2670  0.2161 -0.5754
  361SOL     ow 1441   2.673   1.134   6.074 -0.0712 -0.3861 -0.3659
  361SOL     hw 1442   2.730   1.110   6.002  1.0699  1.2831 -0.0866
  361SOL     hw 1443   2.625   1.211   6.042 -1.1886 -0.9667 -0.1195
  361SOL     vw 1444   2.674   1.141   6.060 -0.0681 -0.2425 -0.2968
  362SOL     ow 1445   1.480   1.984   2.988  0.0760  0.6537 -0.1427
  362SOL     hw 1446   1.556   1.964   2.934  0.3054 -0.1237  0.4515
  362SOL     hw 1447   1.513   2.047   3.052  0.5562 -0.5542  0.8519
  362SOL     vw 1448   1.494   1.990   2.989  0.1696  0.3918  0.0670
  363SOL     ow 1449   5.276   6.002   2.405 -0.3446  0.6108 -0.6449
  363SOL     hw 1450   5.258   5.926   2.349 -1.5066  1.4473 -1.4472
  363SOL     hw 1451   5.265   5.969   2.494 -1.4816 -0.0247 -1.0029
  363SOL     vw 1452   5.272   5.987   2.410 -0.6478  0.6371 -0.7980
  364SOL     ow 1453   6.160   4.785   1.264 -0.3653 -0.0747 -0.3394
  364SOL     hw 1454   6.237   4.735   1.291 -1.0584 -2.0005 -1.6877
  364SOL     hw 1455   6.086   4.732   1.292 -1.1548  0.7821 -0.7686
  364SOL     vw 1456   6.161   4.771   1.271 -0.5610 -0.2158 -0.5739
  365SOL     ow 1457   6.777   4.159   1.123  0.9872  0.0542  0.2573
  365SOL     hw 1458   6.720   4.232   1.147  1.0817  0.6401 -1.2214
  365SOL     hw 1459   6.832   4.145   1.200 -0.0057  0.5907  1.0763
  365SOL     vw 1460   6.777   4.167   1.136  0.8690  0.2022  0.1702
  366SOL     ow 1461   3.535   5.312   3.206 -0.8449 -0.4409  0.2267
  366SOL     hw 1462   3.453   5.346   3.170 -1.0406 -0.6019  0.5122
  366SOL     hw 1463   3.569   5.383   3.260 -1.1188 -0.5976  0.6107
  366SOL     vw 1464   3.528   5.325   3.208 -0.9068 -0.4830  0.3150
  367SOL     ow 1465   6.599   3.254   3.646 -0.0159  0.4097 -0.7539
  367SOL     hw 1466   6.570   3.173   3.688  0.6806  0.8336  0.5934
  367SOL     hw 1467   6.681   3.231   3.602  0.8132  0.6311  0.6282
  367SOL     vw 1468   6.606   3.240   3.646  0.1853  0.4947 -0.3937
  368SOL     ow 1469   0.381   4.189   2.939  0.8873 -0.0110 -0.0216
  368SOL     hw 1470   0.350   4.215   2.852  0.2842 -1.3336 -0.2399
  368SOL     hw 1471   0.414   4.100   2.926  3.1006  0.6604  0.6093
  368SOL     vw 1472   0.381   4.180   2.926  1.0998 -0.0970  0.0329
  369SOL     ow 1473   0.586   1.660   4.434 -0.3900  0.0205 -0.4176
  369SOL     hw 1474   0.575   1.753   4.455 -1.1500  0.0467 -0.9020
  369SOL     hw 1475   0.644   1.659   4.359  0.3632  0.0517  0.1556
  369SOL     vw 1476   0.592   1.672   4.427 -0.3909  0.0281 -0.4060
  370SOL     ow 1477   3.543   1.131   6.672  0.1605  0.4243 -0.5463
  370SOL     hw 1478   3.596   1.168   6.743  0.7205 -0.9512 -0.2257
  370SOL     hw 1479   3.607   1.092   6.612 -0.4767 -1.4886 -0.0181
  370SOL     vw 1480   3.558   1.131   6.673  0.1504 -0.0095 -0.4342
  371SOL     ow 1481   0.304   0.810   6.098 -0.6027  0.4584 -0.5211
  371SOL     hw 1482   0.279   0.900   6.077 -1.0391  0.1466 -1.4009
  371SOL     hw 1483   0.222   0.761   6.094 -0.0884 -0.3412 -2.1082
  371SOL     vw 1484   0.290   0.816   6.095 -0.5924  0.3118 -0.8469
  372SOL     ow 1485   0.192   6.525   0.298  0.0025  0.0866 -0.1235
  372SOL     hw 1486   0.286   6.534   0.284  0.3206  0.6062  1.9116
  372SOL     hw 1487   0.156   6.612   0.283 -0.2311 -0.1827 -1.2182
  372SOL     vw 1488   0.200   6.537   0.295  0.0137  0.1197  0.0005
  373SOL     ow 1489   3.382   5.197   5.325 -0.2432 -0.8427 -0.2849
  373SOL     hw 1490   3.300   5.156   5.353 -2.1380  2.7325  0.0568
  373SOL     hw 1491   3.384   5.185   5.230 -1.5174 -0.4924 -0.3769
  373SOL     vw 1492   3.371   5.190   5.316 -0.6614 -0.3250 -0.2522
  374SOL     ow 1493   5.107   0.692   5.008 -0.1014 -0.3536  0.4721
  374SOL     hw 1494   5.018   0.668   5.035 -0.2398 -0.6299 -0.2172
  374SOL     hw 1495   5.158   0.612   5.018 -0.6388 -1.1081 -2.1493
  374SOL     vw 1496   5.102   0.678   5.013 -0.1903 -0.4897  0.0355
  375SOL     ow 1497   0.423   1.008   6.754  0.6091 -0.1493  0.6341
  375SOL     hw 1498   0.514   1.040   6.750  1.5062 -2.6115 -1.4768
  375SOL     hw 1499   0.432   0.916   6.777 -1.3397 -0.5668 -0.1521
  375SOL     vw 1500   0.436   1.000   6.757  0.4704 -0.5293  0.2520
  376SOL     ow 1501   4.442   0.729   0.355 -0.4220 -0.7468  0.0873
  376SOL     hw 1502   4.412   0.716   0.265 -0.2862 -2.1268  0.2259
  376SOL     hw 1503   4.535   0.751   0.347 -0.5599 -0.2327 -0.1356
  376SOL     vw 1504   4.450   0.730   0.342 -0.4222 -0.8610  0.0762
  377SOL     ow 1505   5.497   6.728   4.971 -0.4901  0.2702 -0.8593
  377SOL     hw 1506   5.570   6.756   4.916 -0.1002  0.9446 -0.0207
  377SOL     hw 1507   5.516   6.636   4.991  0.9544  0.8560  0.5991
  377SOL     vw 1508   5.509   6.720   4.967 -0.2482  0.4363 -0.5562
  378SOL     ow 1509   4.257   1.542   3.240  0.5559 -0.0936 -0.3830
  378SOL     hw 1510   4.264   1.485   3.163 -1.5636  1.0597 -1.5353
  378SOL     hw 1511   4.174   1.516   3.281  2.1931 -1.5093  2.3150
  378SOL     vw 1512   4.247   1.531   3.235  0.4921 -0.1283 -0.1791
  379SOL     ow 1513   0.490   4.553   0.417  0.2924 -0.9964  0.0065
  379SOL     hw 1514   0.421   4.605   0.458  0.0779 -1.5065  0.3032
  379SOL     hw 1515   0.457   4.463   0.421  1.5121 -1.4046  1.2465
  379SOL     vw 1516   0.476   4.548   0.423  0.4250 -1.1177  0.2093
  380SOL     ow 1517   6.011   4.359   6.778 -0.3774  0.3061 -0.1458
  380SOL     hw 1518   5.973   4.337   6.864 -0.1609  2.8714  0.6790
  380SOL     hw 1519   5.955   4.428   6.743  2.9115  3.8879  0.8993
  380SOL     vw 1520   5.999   4.365   6.785  0.0849  1.1170  0.1011
  381SOL     ow 1521   6.407   6.144   5.181  0.4494 -0.5418  0.2209
  381SOL     hw 1522   6.384   6.110   5.267 -0.0165 -1.2253 -0.1663
  381SOL     hw 1523   6.502   6.130   5.175  0.3919 -1.0428  0.3947
  381SOL     vw 1524   6.417   6.138   5.192  0.3805 -0.6981  0.1926
  382SOL     ow 1525   2.634   2.735   5.975 -1.2794  0.0605 -0.3977
  382SOL     hw 1526   2.723   2.764   5.957 -0.5972 -1.4440  0.3935
  382SOL     hw 1527   2.611   2.777   6.059 -0.2417 -1.6758  0.8200
  382SOL     vw 1528   2.643   2.744   5.984 -1.0525 -0.3672 -0.1326
  383SOL     ow 1529   4.796   4.063   3.843 -0.3822  0.0559  0.6787
  383SOL     hw 1530   4.828   4.140   3.797 -0.6126 -0.8240 -1.0447
  383SOL     hw 1531   4.731   4.025   3.783  1.2696 -2.6694  0.4211
  383SOL     vw 1532   4.792   4.068   3.829 -0.1948 -0.4196  0.4174
  384SOL     ow 1533   3.905   3.421   0.679 -0.2817  1.0295  0.4803
  384SOL     hw 1534   3.947   3.336   0.669 -3.4984 -0.7983  1.1029
  384SOL     hw 1535   3.944   3.457   0.759  1.0110  0.0612  0.3140
  384SOL     vw 1536   3.916   3.415   0.689 -0.5356  0.6605  0.5405
  385SOL     ow 1537   2.943   3.335   3.694 -0.8244 -0.2426  0.2915
  385SOL     hw 1538   2.849   3.349   3.706 -0.6737  1.6799 -0.4444
  385SOL     hw 1539   2.984   3.396   3.755 -0.0866  1.4714 -1.8309
  385SOL     vw 1540   2.936   3.345   3.704 -0.7073  0.2371 -0.0856
  386SOL     ow 1541   3.831   6.673   2.592  0.4496  0.2858 -0.0448
  386SOL     hw 1542   3.769   6.619   2.640  0.9524 -1.5945 -1.3751
  386SOL     hw 1543   3.778   6.744   2.556 -0.3121  0.4998  1.4233
  386SOL     vw 1544   3.816   6.675   2.593  0.4154  0.0658 -0.0266
  387SOL     ow 1545   4.225   5.408   5.441 -0.2216 -0.0418  0.4703
  387SOL     hw 1546   4.136   5.398   5.407  0.0725 -0.2271 -0.2593
  387SOL     hw 1547   4.231   5.501   5.465 -0.1258  0.3383 -0.9173
  387SOL     vw 1548   4.214   5.419   5.439 -0.1702 -0.0160  0.1907
  388SOL     ow 1549   1.323   3.504   0.738  0.6136  0.2700 -0.0407
  388SOL     hw 1550   1.363   3.418   0.726 -0.0540 -0.1291  0.5234
  388SOL     hw 1551   1.239   3.498   0.692 -1.0663 -0.6087  2.9036
  388SOL     vw 1552   1.317   3.492   0.730  0.3039  0.1013  0.4222
  389SOL     ow 1553   2.541   3.734   0.605 -0.7833 -0.2716 -0.8616
  389SOL     hw 1554   2.604   3.665   0.627 -0.9271 -0.6498 -1.5792
  389SOL     hw 1555   2.455   3.694   0.620 -0.8608 -0.0812 -0.7979
  389SOL     vw 1556   2.538   3.719   0.610 -0.8125 -0.2965 -0.9479
  390SOL     ow 1557   4.982   3.364   5.560  0.1417  0.4132  0.1388
  390SOL     hw 1558   5.077   3.364   5.572  0.1154 -2.9319  1.8153
  390SOL     hw 1559   4.947   3.382   5.647 -0.9423  4.0524 -0.9020
  390SOL     vw 1560   4.989   3.366   5.573 -0.0048  0.4519  0.2227
  391SOL     ow 1561   6.845   3.937   0.876 -0.5538  0.0757  0.1682
  391SOL     hw 1562   6.808   3.859   0.917  0.0450 -0.3768 -0.1285
  391SOL     hw 1563   6.848   3.915   0.782  2.9426 -1.0522  0.3692
  391SOL     vw 1564   6.841   3.924   0.869 -0.0136 -0.1329  0.1556
  392SOL     ow 1565   6.123   0.989   2.044 -0.0309 -0.4861  0.3874
  392SOL     hw 1566   6.123   0.978   2.139  0.8387  1.1203  0.6080
  392SOL     hw 1567   6.074   0.914   2.011 -0.5075 -0.9735  2.1108
  392SOL     vw 1568   6.117   0.978   2.052  0.0210 -0.3385  0.6438
  393SOL     ow 1569   1.150   1.418   6.434  0.4982 -0.1914  0.2460
  393SOL     hw 1570   1.173   1.380   6.519  1.9656  0.6624  0.2750
  393SOL     hw 1571   1.193   1.360   6.370  2.8233  1.3345  0.2942
  393SOL     vw 1572   1.159   1.405   6.437  0.9986  0.1225  0.2561
  394SOL     ow 1573   6.128   6.236   5.013  0.0773 -0.5398  0.2738
  394SOL     hw 1574   6.040   6.246   5.049 -0.7492 -1.4620 -1.3818
  394SOL     hw 1575   6.146   6.320   4.970  1.1653  0.6576  2.8363
  394SOL     vw 1576   6.119   6.248   5.012  0.1121 -0.5033  0.3934
  395SOL     ow 1577   3.695   3.974   1.972  0.0169  0.1581 -0.0868
  395SOL     hw 1578   3.740   4.053   2.001  1.6040  1.0581 -4.2305
  395SOL     hw 1579   3.694   3.981   1.876 -3.0627 -3.1388 -0.5195
  395SOL     vw 1580   3.701   3.986   1.963 -0.1799 -0.1582 -0.6906
  396SOL     ow 1581   4.998   3.695   1.029 -0.1448 -0.1566  0.2696
  396SOL     hw 1582   5.051   3.645   1.091  0.9618  1.2387  0.5150
  396SOL     hw 1583   4.979   3.777   1.074 -2.9237 -0.7338  0.3385
  396SOL     vw 1584   5.003   3.699   1.043 -0.3655 -0.0486  0.3111
  397SOL     ow 1585   3.532   4.603   1.304 -0.0582 -0.7661  0.0062
  397SOL     hw 1586   3.571   4.566   1.225 -0.4066  0.8384 -0.9624
  397SOL     hw 1587   3.517   4.695   1.283  0.9613  0.0234  2.3673
  397SOL     vw 1588   3.535   4.610   1.291  0.0304 -0.4501  0.1899
  398SOL     ow 1589   6.666   6.270   3.437  0.3767  0.3830  0.2605
  398SOL     hw 1590   6.739   6.229   3.391 -0.3701 -0.0464 -0.5656
  398SOL     hw 1591   6.673   6.364   3.416  0.5810  0.3166  0.0351
  398SOL     vw 1592   6.677   6.277   3.428  0.3052  0.3176  0.1217
  399SOL     ow 1593   3.300   4.139   3.103  0.5015  0.1116  0.2602
  399SOL     hw 1594   3.375   4.195   3.080 -0.2536  1.0166 -0.0664
  399SOL     hw 1595   3.238   4.153   3.031 -0.6151  0.5748  1.2918
  399SOL     vw 1596   3.302   4.148   3.090  0.2545  0.2921  0.3532
  400SOL     ow 1597   3.164   6.242   5.979  0.0094 -0.1874 -0.3365
  400SOL     hw 1598   3.254   6.215   5.999 -0.2605 -1.1712 -0.4114
  400SOL     hw 1599   3.167   6.273   5.889  0.0674 -1.2025 -0.6871
  400SOL     vw 1600   3.176   6.243   5.970 -0.0186 -0.4508 -0.3927
  401SOL     ow 1601   5.190   2.129   4.920  0.2278 -0.2772  0.3966
  401SOL     hw 1602   5.215   2.112   5.011 -0.4311  1.7834  1.0191
  401SOL     hw 1603   5.098   2.154   4.924  0.1418 -0.2897 -0.8696
  401SOL     vw 1604   5.181   2.130   4.932  0.1295 -0.0070  0.3119
  402SOL     ow 1605   1.522   2.719   4.138 -0.6679  0.5304  0.3334
  402SOL     hw 1606   1.430   2.697   4.129 -0.8307  1.3970 -0.2686
  402SOL     hw 1607   1.567   2.635   4.147 -1.6399  0.1557  1.9741
  402SOL     vw 1608   1.516   2.705   4.138 -0.8175  0.5953  0.4704
  403SOL     ow 1609   1.163   6.526   2.642  0.2074 -0.2656  0.0295
  403SOL     hw 1610   1.138   6.475   2.719  1.0378 -0.0167  0.4828
  403SOL     hw 1611   1.231   6.586   2.674  0.4658 -0.0627 -0.8636
  403SOL     vw 1612   1.169   6.527   2.656  0.3510 -0.2060 -0.0285
  404SOL     ow 1613   4.313   6.606   4.601 -0.3609 -0.8320  0.3151
  404SOL     hw 1614   4.265   6.613   4.518 -1.9275 -0.5024  1.2179
  404SOL     hw 1615   4.245   6.600   4.668  0.8440  1.1564  1.8077
  404SOL     vw 1616   4.298   6.606   4.599 -0.4086 -0.5260  0.6311
  405SOL     ow 1617   4.894   2.465   5.651  0.0630  0.0940  0.1150
  405SOL     hw 1618   4.857   2.553   5.662  1.1720  0.7706 -1.2910
  405SOL     hw 1619   4.948   2.452   5.729  2.9632  2.3009 -1.3437
  405SOL     vw 1620   4.896   2.475   5.663  0.5920  0.4745 -0.2630
  406SOL     ow 1621   4.322   2.242   3.432 -0.3354  0.2639  0.0744
  406SOL     hw 1622   4.373   2.225   3.511 -2.0322 -1.7478  0.8501
  406SOL     hw 1623   4.384   2.230   3.360  1.0277  1.2340  1.0529
  406SOL     vw 1624   4.337   2.238   3.433 -0.3796  0.1265  0.3059
  407SOL     ow 1625   4.704   3.257   2.571 -0.0213  0.5817  0.5381
  407SOL     hw 1626   4.697   3.194   2.642  1.3546  1.2637  1.3141
  407SOL     hw 1627   4.704   3.204   2.492  0.0457 -0.3038  1.1171
  407SOL     vw 1628   4.703   3.242   2.570  0.1688  0.5548  0.7169
  408SOL     ow 1629   6.382   3.144   4.571  0.2972 -0.8200 -0.3164
  408SOL     hw 1630   6.367   3.111   4.482  0.8629 -0.6462 -0.4772
  408SOL     hw 1631   6.313   3.102   4.623 -0.9039  0.1319 -1.0749
  408SOL     vw 1632   6.371   3.134   4.566  0.2131 -0.6715 -0.4377
  409SOL     ow 1633   4.507   5.443   5.376 -0.3378  0.3971  0.4379
  409SOL     hw 1634   4.540   5.486   5.298 -1.0506  1.2471  0.5943
  409SOL     hw 1635   4.542   5.495   5.449 -1.2554  0.7784  0.6250
  409SOL     vw 1636   4.516   5.456   5.375 -0.5529  0.5593  0.4833
  410SOL     ow 1637   3.162   2.634   3.370  0.1071  0.0095  0.0080
  410SOL     hw 1638   3.181   2.660   3.459  1.0341 -0.4921 -0.0306
  410SOL     hw 1639   3.151   2.716   3.322 -4.6839  0.4500  1.3574
  410SOL     vw 1640   3.163   2.648   3.375 -0.4028  0.0013  0.1810
  411SOL     ow 1641   1.802   6.504   4.862 -0.0475  0.1227 -0.8494
  411SOL     hw 1642   1.847   6.424   4.889 -1.1171 -1.4331 -3.3613
  411SOL     hw 1643   1.872   6.564   4.838  0.8294 -1.6541 -3.1043
  411SOL     vw 1644   1.817   6.501   4.863 -0.0730 -0.3169 -1.4782
  412SOL     ow 1645   3.913   1.159   1.162  0.0380  1.1409 -0.3448
  412SOL     hw 1646   3.857   1.136   1.088 -0.4529  1.4563 -0.0843
  412SOL     hw 1647   3.991   1.197   1.123 -0.4060  1.7107 -0.6984
  412SOL     vw 1648   3.916   1.161   1.147 -0.0854  1.2577 -0.3571
  413SOL     ow 1649   1.656   3.459   1.017 -0.1306  0.1261  0.0679
  413SOL     hw 1650   1.585   3.398   0.998  1.4611 -1.9058  0.2787
  413SOL     hw 1651   1.699   3.474   0.933  1.4723 -1.7607  0.4670
  413SOL     vw 1652   1.652   3.453   1.003  0.2909 -0.3909  0.1484
  414SOL     ow 1653   6.625   3.313   2.150  0.2935 -0.6592 -0.4861
  414SOL     hw 1654   6.540   3.357   2.154  0.4287 -0.4111 -0.3436
  414SOL     hw 1655   6.683   3.377   2.109  0.3116 -0.9906 -0.9823
  414SOL     vw 1656   6.621   3.327   2.145  0.3138 -0.6702 -0.5329
  415SOL     ow 1657   4.481   6.424   6.409  0.8258  0.3499 -0.3264
  415SOL     hw 1658   4.478   6.454   6.318  2.5557  3.0971  0.4069
  415SOL     hw 1659   4.451   6.500   6.460  1.2931 -0.6221  1.4826
  415SOL     vw 1660   4.476   6.438   6.404  1.1153  0.5841  0.0091
  416SOL     ow 1661   2.804   5.015   3.134  0.0705 -0.5265  0.0345
  416SOL     hw 1662   2.719   5.058   3.132  0.0362 -0.4776  1.5548
  416SOL     hw 1663   2.829   5.008   3.042 -1.5839 -0.5859 -0.4473
  416SOL     vw 1664   2.796   5.019   3.121 -0.1522 -0.5279  0.1715
  417SOL     ow 1665   2.869   0.825   1.254  0.0584 -0.0256  0.1649
  417SOL     hw 1666   2.913   0.899   1.213 -0.0810  0.6551  1.2104
  417SOL     hw 1667   2.938   0.761   1.270  0.3891  0.3808  0.3525
  417SOL     vw 1668   2.884   0.826   1.251  0.0837  0.1178  0.3276
  418SOL     ow 1669   0.400   5.010   2.543 -1.0016 -0.2310 -0.3806
  418SOL     hw 1670   0.472   4.958   2.507  0.2874  0.8707  0.4929
  418SOL     hw 1671   0.324   4.952   2.538 -0.1896 -1.2364 -1.8481
  418SOL     vw 1672   0.400   4.995   2.538 -0.7244 -0.2184 -0.4588
  419SOL     ow 1673   6.608   5.408   0.960 -0.3562 -0.4130  0.9435
  419SOL     hw 1674   6.586   5.344   0.892  0.9614 -1.0285  1.0493
  419SOL     hw 1675   6.670   5.361   1.017  0.0550  0.7158  1.4580
  419SOL     vw 1676   6.613   5.393   0.959 -0.1283 -0.3452  1.0253
  420SOL     ow 1677   3.750   2.093   4.016  0.2315 -0.3886 -0.3017
  420SOL     hw 1678   3.772   2.068   3.926  2.0692 -1.6562  0.4557
  420SOL     hw 1679   3.676   2.037   4.039 -1.2475  0.9850 -1.4690
  420SOL     vw 1680   3.743   2.083   4.007  0.2787 -0.3746 -0.3557
  421SOL     ow 1681   6.691   5.098   5.462  0.5656  0.3028 -0.4459
  421SOL     hw 1682   6.711   5.011   5.427  0.8294  0.9749 -2.0293
  421SOL     hw 1683   6.773   5.128   5.500  0.8778  0.4564 -1.2286
  421SOL     vw 1684   6.704   5.091   5.462  0.6418  0.4117 -0.7582
  422SOL     ow 1685   1.611   3.215   0.009  0.5345  0.9683  0.6565
  422SOL     hw 1686   1.651   3.128   0.011 -3.0554 -0.8772  0.4438
  422SOL     hw 1687   1.592   3.231  -0.084 -1.6500  0.4258  0.9459
  422SOL     vw 1688   1.613   3.205  -0.003 -0.2274  0.6531  0.6666
  423SOL     ow 1689   6.428   0.340   1.850 -0.4642 -0.2046  0.2533
  423SOL     hw 1690   6.510   0.353   1.898 -0.2650  0.3783 -0.2204
  423SOL     hw 1691   6.394   0.429   1.836 -0.6495 -0.3738 -0.4361
  423SOL     vw 1692   6.435   0.353   1.854 -0.4621 -0.1500  0.0999
  424SOL     ow 1693   4.713   0.540   4.395  0.0610  0.7838 -0.5726
  424SOL     hw 1694   4.744   0.475   4.458 -0.7128  0.0444 -0.9475
  424SOL     hw 1695   4.789   0.598   4.382  0.2986  0.8602  0.9002
  424SOL     vw 1696   4.727   0.539   4.402 -0.0100  0.6963 -0.4280
  425SOL     ow 1697   5.562   4.233   1.751 -0.0830 -0.0022  0.1706
  425SOL     hw 1698   5.487   4.177   1.730 -0.5023  0.5612  0.1298
  425SOL     hw 1699   5.639   4.178   1.737 -0.4703 -0.4242 -0.3117
  425SOL     vw 1700   5.562   4.218   1.746 -0.1891  0.0162  0.1016
  426SOL     ow 1701   0.739   3.612   3.963  0.5637  0.1381 -0.5634
  426SOL     hw 1702   0.748   3.520   3.986  1.4597  0.3229 -0.1082
  426SOL     hw 1703   0.699   3.652   4.040  2.5262  0.5551  0.3197
  426SOL     vw 1704   0.735   3.605   3.976  0.9408  0.2174 -0.3867
  427SOL     ow 1705   6.735   2.777   3.657 -0.9060  0.1595 -0.2552
  427SOL     hw 1706   6.680   2.719   3.709 -0.6987  0.5552  0.4205
  427SOL     hw 1707   6.716   2.865   3.691 -3.1936  0.8941 -2.9629
  427SOL     vw 1708   6.725   2.781   3.668 -1.1804  0.3086 -0.5232
  428SOL     ow 1709   2.659   4.194   4.132  0.7608 -0.0823  0.0164
  428SOL     hw 1710   2.601   4.125   4.101  0.5179  0.3112 -0.4197
  428SOL     hw 1711   2.747   4.167   4.105  0.3917  1.0758 -2.6239
  428SOL     vw 1712   2.663   4.182   4.125  0.6800  0.1223 -0.3898
  429SOL     ow 1713   2.308   3.377   6.485 -1.0119  0.0016  0.3302
  429SOL     hw 1714   2.322   3.338   6.399 -2.2027 -2.8926  1.3028
  429SOL     hw 1715   2.393   3.414   6.509 -0.5293  0.3971 -1.8455
  429SOL     vw 1716   2.321   3.377   6.477 -1.1054 -0.3281  0.1714
  430SOL     ow 1717   1.593   0.872   3.577  0.0844 -0.2321  0.5649
  430SOL     hw 1718   1.511   0.856   3.531 -0.8938  2.6224  1.1710
  430SOL     hw 1719   1.609   0.790   3.626 -1.6523 -1.3279 -0.6011
  430SOL     vw 1720   1.584   0.859   3.578 -0.2738 -0.0001  0.4911
  431SOL     ow 1721   5.642   3.262   2.780 -0.3698  0.1611 -0.5569
  431SOL     hw 1722   5.549   3.274   2.801 -0.3420  1.6998 -1.1997
  431SOL     hw 1723   5.688   3.311   2.848 -0.0422 -0.1127 -0.5795
  431SOL     vw 1724   5.636   3.270   2.792 -0.3228  0.3281 -0.6447
  432SOL     ow 1725   3.209   4.393   3.254 -0.0446  0.6227 -0.0300
  432SOL     hw 1726   3.296   4.432   3.248 -0.2547  1.1386  0.2331
  432SOL     hw 1727   3.164   4.444   3.321 -0.3615 -0.0152  0.2577
  432SOL     vw 1728   3.215   4.405   3.262 -0.1141  0.6068  0.0428
  433SOL     ow 1729   3.495   0.585   5.008 -0.3575  0.3390  0.4860
  433SOL     hw 1730   3.532   0.607   5.094 -0.9193 -1.2405  1.1686
  433SOL     hw 1731   3.405   0.559   5.027 -0.9058  1.2498 -0.7777
  433SOL     vw 1732   3.488   0.584   5.022 -0.5039  0.2508  0.4091
  434SOL     ow 1733   4.434   6.031   0.940 -0.1586  0.4185  0.5343
  434SOL     hw 1734   4.357   6.026   0.884 -0.3609 -1.7158  0.9185
  434SOL     hw 1735   4.400   6.060   1.025 -0.4685 -0.0613  0.5764
  434SOL     vw 1736   4.419   6.035   0.944 -0.2265  0.0737  0.5906
  435SOL     ow 1737   3.701   3.516   6.590 -0.9078 -0.5748  0.2091
  435SOL     hw 1738   3.657   3.595   6.621  0.5263  0.2389  0.2734
  435SOL     hw 1739   3.719   3.534   6.497  2.0898  0.5156  0.9049
  435SOL     vw 1740   3.697   3.529   6.582 -0.3232 -0.3235  0.3095
  436SOL     ow 1741   1.866   3.378   3.705 -0.1310  0.1354  0.4212
  436SOL     hw 1742   1.936   3.426   3.749  2.4642 -2.4612 -0.5125
  436SOL     hw 1743   1.816   3.337   3.776 -0.7874  1.9922  1.0943
  436SOL     vw 1744   1.868   3.379   3.720  0.1249  0.0379  0.3868
  437SOL     ow 1745   2.835   0.272   6.665 -0.4968  0.0243 -0.1534
  437SOL     hw 1746   2.754   0.264   6.717 -0.8594  1.7035 -0.4046
  437SOL     hw 1747   2.813   0.335   6.596  0.1916 -1.6258 -1.9761
  437SOL     vw 1748   2.821   0.279   6.663 -0.4538  0.0281 -0.4270
  438SOL     ow 1749   4.578   4.386   0.971  0.0788  0.1975 -0.0879
  438SOL     hw 1750   4.552   4.330   0.898 -1.0565 -2.0300  1.9150
  438SOL     hw 1751   4.657   4.346   1.006  1.4835  2.0876 -0.8659
  438SOL     vw 1752   4.585   4.374   0.966  0.1142  0.1531  0.0737
  439SOL     ow 1753   3.245   5.808   4.327 -0.0837 -0.4248 -0.3119
  439SOL     hw 1754   3.257   5.713   4.337  1.3078 -0.1479  0.9325
  439SOL     hw 1755   3.333   5.842   4.313 -0.1143  1.0173  2.4029
  439SOL     vw 1756   3.258   5.800   4.326  0.0958 -0.1979  0.2105
  440SOL     ow 1757   2.949   3.070   1.018 -0.1039  0.8456 -0.0372
  440SOL     hw 1758   2.950   3.152   1.068 -0.3445  0.3881  0.7391
  440SOL     hw 1759   2.977   3.003   1.081 -0.6844  0.2136 -0.4401
  440SOL     vw 1760   2.953   3.072   1.033 -0.2122  0.7019  0.0122
  441SOL     ow 1761   6.247   4.526   6.634  0.2727 -0.8977 -0.3451
  441SOL     hw 1762   6.231   4.612   6.673 -0.6644 -1.5743  0.8089
  441SOL     hw 1763   6.222   4.537   6.542 -0.1986 -0.0428 -0.1267
  441SOL     vw 1764   6.242   4.539   6.627  0.0865 -0.8743 -0.1640
  442SOL     ow 1765   3.674   1.648   3.504 -0.0097  0.2080  0.4528
  442SOL     hw 1766   3.617   1.593   3.451 -0.8417  0.8266  0.6935
  442SOL     hw 1767   3.632   1.652   3.589  1.4799 -1.0453  1.3135
  442SOL     vw 1768   3.661   1.641   3.508  0.0771  0.1243  0.5981
  443SOL     ow 1769   6.125   4.471   2.825 -0.2487  0.6579 -0.0371
  443SOL     hw 1770   6.188   4.430   2.765  0.3884  0.8375  0.4908
  443SOL     hw 1771   6.060   4.403   2.841  1.8269 -0.9699  2.3851
  443SOL     vw 1772   6.125   4.456   2.820  0.1094  0.4666  0.3520
  444SOL     ow 1773   5.795   4.398   1.834  0.3310  0.3855 -0.4750
  444SOL     hw 1774   5.849   4.334   1.879  1.3090  1.3717 -0.2025
  444SOL     hw 1775   5.854   4.470   1.814 -1.0723  1.9585  0.7515
  444SOL     vw 1776   5.810   4.399   1.837  0.2749  0.7234 -0.2772
  445SOL     ow 1777   4.455   4.897   3.649  0.6185  0.1257  0.6825
  445SOL     hw 1778   4.430   4.872   3.560  2.3624 -0.0741  0.2156
  445SOL     hw 1779   4.373   4.891   3.699 -0.2105 -0.6854 -0.6883
  445SOL     vw 1780   4.441   4.893   3.644  0.7391 -0.0081  0.4400
  446SOL     ow 1781   6.132   5.412   6.742 -0.0533  0.0775  0.6000
  446SOL     hw 1782   6.089   5.344   6.689 -1.2546  0.7635  0.6639
  446SOL     hw 1783   6.149   5.370   6.826  1.0092 -0.7336 -0.0040
  446SOL     vw 1784   6.128   5.397   6.746 -0.0715  0.0610  0.5286
  447SOL     ow 1785   1.896   0.977   0.103  0.0796 -0.4920  0.0242
  447SOL     hw 1786   1.892   1.067   0.138  1.2847 -0.6452  0.5893
  447SOL     hw 1787   1.804   0.949   0.102 -0.2826  0.6087  0.2000
  447SOL     vw 1788   1.883   0.985   0.107  0.1908 -0.3670  0.1219
  448SOL     ow 1789   0.214   4.820   2.450 -0.3884  0.9652  0.2731
  448SOL     hw 1790   0.230   4.757   2.519 -2.2473  1.0800  0.8734
  448SOL     hw 1791   0.256   4.782   2.373 -1.3346 -0.9727  0.6364
  448SOL     vw 1792   0.221   4.807   2.449 -0.7585  0.7246  0.4004
  449SOL     ow 1793   3.637   0.723   4.789 -0.2922  0.3274  0.1250
  449SOL     hw 1794   3.638   0.770   4.872  2.1821 -1.0584  0.9807
  449SOL     hw 1795   3.707   0.763   4.737 -0.6757  0.0555 -0.6236
  449SOL     vw 1796   3.646   0.735   4.793 -0.0163  0.1087  0.1390
  450SOL     ow 1797   4.130   5.656   2.762 -0.5374 -0.4324  0.2510
  450SOL     hw 1798   4.082   5.578   2.731 -0.3580 -0.3789 -0.1720
  450SOL     hw 1799   4.070   5.697   2.824  0.0541 -1.8492  1.8540
  450SOL     vw 1800   4.115   5.651   2.766 -0.4356 -0.6123  0.4066
  451SOL     ow 1801   1.253   4.380   4.363 -0.3042  0.3348  0.4111
  451SOL     hw 1802   1.310   4.306   4.339 -0.7914  0.3416 -0.8601
  451SOL     hw 1803   1.188   4.383   4.293  0.6495  2.9929 -0.4429
  451SOL     vw 1804   1.252   4.370   4.351 -0.2427  0.6866  0.1309
  452SOL     ow 1805   5.831   3.832   2.888 -0.1062  0.2896 -0.6431
  452SOL     hw 1806   5.864   3.754   2.931  0.6395  1.7344  1.6121
  452SOL     hw 1807   5.736   3.825   2.893 -0.0353 -0.2223  0.0135
  452SOL     vw 1808   5.823   3.821   2.894  0.0014  0.4126 -0.2589
  453SOL     ow 1809   1.118   4.425   6.438 -0.6506 -0.0491 -0.1146
  453SOL     hw 1810   1.201   4.437   6.391 -0.6574 -0.2252 -0.1721
  453SOL     hw 1811   1.106   4.507   6.486  0.1201 -0.4421  0.7734
  453SOL     vw 1812   1.128   4.438   6.438 -0.5499 -0.1240 -0.0048
  454SOL     ow 1813   1.256   5.961   1.932  0.0413  0.1762  0.4336
  454SOL     hw 1814   1.184   5.949   1.995 -0.3987  1.9148  0.3055
  454SOL     hw 1815   1.327   5.999   1.984  0.7237 -1.0542  0.4474
  454SOL     vw 1816   1.256   5.965   1.947  0.0733  0.2432  0.4185
  455SOL     ow 1817   3.895   5.387   0.904  0.0469 -0.1590  0.3813
  455SOL     hw 1818   3.820   5.446   0.894 -0.1719 -0.6902 -1.5292
  455SOL     hw 1819   3.946   5.401   0.824  2.0023  0.1657  1.6292
  455SOL     vw 1820   3.892   5.397   0.892  0.2760 -0.1862  0.2939
  456SOL     ow 1821   6.027   1.656   5.279 -0.7920 -0.2301  0.6975
  456SOL     hw 1822   5.940   1.646   5.238  0.1641 -1.5362 -1.1573
  456SOL     hw 1823   6.015   1.726   5.344 -3.2462 -0.4493  0.5753
  456SOL     vw 1824   6.014   1.664   5.282 -0.9897 -0.4314  0.4368
  457SOL     ow 1825   4.327   0.735   4.861  0.5564  0.4052  0.2733
  457SOL     hw 1826   4.386   0.678   4.812  1.3850  1.7730 -0.3896
  457SOL     hw 1827   4.384   0.805   4.895 -0.5747  1.4677  0.0727
  457SOL     vw 1828   4.343   0.737   4.859  0.5164  0.7258  0.1595
  458SOL     ow 1829   4.809   1.015   3.345  0.3686  0.0379 -0.6260
  458SOL     hw 1830   4.881   1.068   3.380 -0.2735  1.0168 -0.7602
  458SOL     hw 1831   4.836   0.924   3.363 -0.2137  0.4259  3.0678
  458SOL     vw 1832   4.822   1.010   3.352  0.2072  0.2183 -0.1563
  459SOL     ow 1833   5.070   3.234   4.877  0.2053  0.5029  0.2058
  459SOL     hw 1834   5.122   3.314   4.875 -0.0831  0.6822 -0.2088
  459SOL     hw 1835   5.014   3.243   4.954  1.2236  0.0241  1.0263
  459SOL     vw 1836   5.070   3.245   4.887  0.3016  0.4632  0.2594
  460SOL     ow 1837   5.137   0.924   2.830  0.2699  0.2061 -0.1556
  460SOL     hw 1838   5.103   0.857   2.890 -0.7655  2.0512  1.4110
  460SOL     hw 1839   5.222   0.948   2.866 -0.2449  1.1409  0.4732
  460SOL     vw 1840   5.143   0.918   2.843  0.0653  0.5729  0.1340
  461SOL     ow 1841   0.757   0.989   0.368 -0.0548  0.4996  0.2014
  461SOL     hw 1842   0.746   1.074   0.327  0.3211  0.8382  0.7981
  461SOL     hw 1843   0.728   0.926   0.301  0.8141  1.0213 -0.6843
  461SOL     vw 1844   0.752   0.992   0.353  0.1094  0.6131  0.1633
  462SOL     ow 1845   0.414   2.991   1.276  0.0445  0.0937 -0.5698
  462SOL     hw 1846   0.508   3.005   1.286  0.2984 -1.9552  0.5137
  462SOL     hw 1847   0.400   2.991   1.182  1.3021 -0.4838 -0.7777
  462SOL     vw 1848   0.424   2.993   1.265  0.2439 -0.2530 -0.4542
  463SOL     ow 1849   5.099   5.920   5.285 -0.5632 -0.5585  0.5492
  463SOL     hw 1850   5.174   5.961   5.329  0.2200 -0.5115 -0.7724
  463SOL     hw 1851   5.123   5.828   5.277 -0.4738 -0.4839 -0.1658
  463SOL     vw 1852   5.112   5.914   5.290 -0.4482 -0.5426  0.2804
  464SOL     ow 1853   0.028   1.673   5.532  0.2580 -0.1356  0.6109
  464SOL     hw 1854   0.056   1.611   5.598  0.5506  0.1685  0.7718
  464SOL     hw 1855  -0.027   1.622   5.472  0.6612 -0.5899  0.6297
  464SOL     vw 1856   0.024   1.658   5.533  0.3495 -0.1554  0.6347
  465SOL     ow 1857   1.252   2.642   3.431  0.3812  0.7522  0.1640
  465SOL     hw 1858   1.178   2.628   3.491  1.3261  0.0812  1.2072
  465SOL     hw 1859   1.227   2.596   3.351 -0.6108  1.1003  0.2544
  465SOL     vw 1860   1.239   2.634   3.428  0.3749  0.7095  0.3135
  466SOL     ow 1861   0.996   3.113   0.009 -0.0657  0.0958  0.2312
  466SOL     hw 1862   1.059   3.096  -0.061  1.0073  0.1634  1.1451
  466SOL     hw 1863   0.942   3.185  -0.024 -2.6269 -2.7294 -2.3988
  466SOL     vw 1864   0.998   3.120  -0.005 -0.2621 -0.2681  0.0048
  467SOL     ow 1865   5.619   1.743   2.048 -0.0888  0.2227  0.2325
  467SOL     hw 1866   5.713   1.737   2.060 -0.0459 -0.8067 -0.5236
  467SOL     hw 1867   5.582   1.705   2.127  0.1376 -0.3625  0.0561
  467SOL     vw 1868   5.626   1.737   2.060 -0.0532  0.0097  0.1096
  468SOL     ow 1869   4.945   1.613   5.329 -0.3214 -0.1785 -0.3619
  468SOL     hw 1870   5.001   1.539   5.352  0.8737  1.3953  2.2355
  468SOL     hw 1871   4.899   1.635   5.410 -0.0202  2.3832 -0.7942
  468SOL     vw 1872   4.946   1.606   5.343 -0.1242  0.3672 -0.0761
  469SOL     ow 1873   5.830   3.181   2.127 -0.6475 -0.6005  0.5509
  469SOL     hw 1874   5.922   3.194   2.152 -0.9491 -0.2088  1.5433
  469SOL     hw 1875   5.806   3.098   2.169 -0.2194 -1.7406 -1.3474
  469SOL     vw 1876   5.839   3.172   2.136 -0.6306 -0.6993  0.4313
  470SOL     ow 1877   5.427   6.308   2.369 -0.6323  0.6787 -0.2716
  470SOL     hw 1878   5.521   6.291   2.380  0.2893  3.8679 -1.8808
  470SOL     hw 1879   5.403   6.357   2.448 -0.6883  0.7701 -0.3464
  470SOL     vw 1880   5.437   6.312   2.381 -0.5181  1.1117 -0.4939
  471SOL     ow 1881   5.636   2.400   1.948  0.7381 -0.2495  1.1994
  471SOL     hw 1882   5.545   2.410   1.921  1.1280 -0.3044 -0.1978
  471SOL     hw 1883   5.631   2.351   2.030 -0.3994 -2.1497  0.0663
  471SOL     vw 1884   5.623   2.395   1.955  0.6394 -0.5074  0.8656
  472SOL     ow 1885   3.146   2.478   5.206  0.4096 -0.2430 -0.2527
  472SOL     hw 1886   3.090   2.468   5.283  0.8283  3.9935  0.8832
  472SOL     hw 1887   3.085   2.479   5.132 -0.2946 -1.5654  0.2675
  472SOL     vw 1888   3.130   2.477   5.206  0.3719  0.1415 -0.0341
  473SOL     ow 1889   1.979   4.663   2.712 -0.1736  0.1948 -0.1202
  473SOL     hw 1890   1.964   4.699   2.625 -2.8255 -0.8084 -0.1651
  473SOL     hw 1891   2.028   4.582   2.696 -2.8310 -1.3471 -1.0342
  473SOL     vw 1892   1.983   4.657   2.698 -0.8740 -0.1409 -0.2466
  474SOL     ow 1893   4.602   4.373   0.021  0.5590 -0.0653 -0.2946
  474SOL     hw 1894   4.611   4.399   0.113 -0.8973 -2.5719  0.6469
  474SOL     hw 1895   4.517   4.407  -0.005 -0.1848 -1.5160  0.1379
  474SOL     vw 1896   4.592   4.381   0.030  0.2687 -0.5872 -0.1133
  475SOL     ow 1897   2.905   2.018   4.395 -0.6910 -0.0368  0.2371
  475SOL     hw 1898   2.820   2.024   4.351 -0.1304  0.7233 -0.7758
  475SOL     hw 1899   2.906   1.930   4.433 -1.5094 -0.4328 -0.6274
  475SOL     vw 1900   2.894   2.007   4.394 -0.7249  0.0112 -0.0107
  476SOL     ow 1901   0.624   0.553   4.817 -0.2103 -0.6472 -0.1912
  476SOL     hw 1902   0.652   0.640   4.847  1.1363 -1.3254  0.6117
  476SOL     hw 1903   0.697   0.523   4.762 -0.2439 -1.6306  0.2808
  476SOL     vw 1904   0.638   0.561   4.814 -0.0371 -0.8664 -0.0231
  477SOL     ow 1905   4.124   1.232   6.671  0.2923 -0.0208 -0.2785
  477SOL     hw 1906   4.143   1.236   6.578 -1.6841  2.0304 -0.6804
  477SOL     hw 1907   4.029   1.248   6.677  0.3944  0.0648  2.0704
  477SOL     vw 1908   4.114   1.235   6.660  0.0448  0.2611 -0.0215
  478SOL     ow 1909   2.057   2.330   3.587 -0.4226  0.0380  0.1129
  478SOL     hw 1910   1.993   2.281   3.536  0.5447  0.7615 -1.8771
  478SOL     hw 1911   2.069   2.278   3.666 -2.4127 -0.8132 -0.0909
  478SOL     vw 1912   2.050   2.317   3.591 -0.5577  0.0211 -0.1765
  479SOL     ow 1913   2.765   2.521   5.792  0.2467  0.3376 -0.2056
  479SOL     hw 1914   2.759   2.458   5.720  1.5829 -0.7162  0.5505
  479SOL     hw 1915   2.856   2.549   5.793  0.4237 -0.1547  1.4365
  479SOL     vw 1916   2.776   2.516   5.783  0.4463  0.1335  0.1109
  480SOL     ow 1917   6.720   6.279   2.522 -0.0054 -0.1399  0.0655
  480SOL     hw 1918   6.805   6.271   2.565  0.5543  2.2469 -0.4221
  480SOL     hw 1919   6.680   6.193   2.531  1.5572 -0.7312  2.2099
  480SOL     vw 1920   6.726   6.267   2.529  0.2744  0.0970  0.2842
  481SOL     ow 1921   0.011   0.099   3.953 -0.6852 -0.0831  0.7720
  481SOL     hw 1922  -0.005   0.032   3.887 -0.5834 -1.8341  2.4045
  481SOL     hw 1923  -0.019   0.059   4.035  0.0651  1.5950  1.9298
  481SOL     vw 1924   0.005   0.085   3.955 -0.5727 -0.0927  1.1400
  482SOL     ow 1925   5.112   0.850   5.949 -0.0921 -0.1258 -0.2480
  482SOL     hw 1926   5.063   0.891   6.020 -0.1694  1.6035 -1.2416
  482SOL     hw 1927   5.094   0.905   5.873  0.8011 -1.3420 -1.3804
  482SOL     vw 1928   5.103   0.863   5.948  0.0155 -0.0581 -0.5283
  483SOL     ow 1929   4.798   5.932   5.145  0.3325  0.4428  0.0473
  483SOL     hw 1930   4.818   5.892   5.060  1.2851  0.0349  0.4457
  483SOL     hw 1931   4.710   5.969   5.135  0.0825 -0.3696 -0.8346
  483SOL     vw 1932   4.789   5.932   5.133  0.4256  0.2816 -0.0165
  484SOL     ow 1933   4.016   5.119   1.914  0.2722 -0.5708  0.1299
  484SOL     hw 1934   4.006   5.024   1.921 -2.7808 -0.3094  1.0829
  484SOL     hw 1935   4.084   5.142   1.977  2.5238 -2.2209 -1.5394
  484SOL     vw 1936   4.023   5.110   1.923  0.1667 -0.7539  0.0354
  485SOL     ow 1937   2.280   1.246   4.227 -0.2234  0.4892  0.3792
  485SOL     hw 1938   2.315   1.174   4.280  0.0197 -0.5164 -1.0832
  485SOL     hw 1939   2.190   1.218   4.207 -1.2601  2.1031  2.4079
  485SOL     vw 1940   2.273   1.233   4.231 -0.3281  0.5695  0.4539
  486SOL     ow 1941   4.897   1.103   0.818  0.2498 -0.5748  0.2919
  486SOL     hw 1942   4.881   1.197   0.819 -0.9234 -0.7532 -0.2062
  486SOL     hw 1943   4.890   1.079   0.725 -0.1646 -1.2574  0.4959
  486SOL     vw 1944   4.894   1.112   0.806  0.0405 -0.6884  0.2531
  487SOL     ow 1945   2.813   4.898   0.702 -0.1218 -0.5254 -0.0557
  487SOL     hw 1946   2.818   4.803   0.696 -1.0205 -0.6070  0.3699
  487SOL     hw 1947   2.898   4.929   0.669 -0.2521 -1.4090 -1.2737
  487SOL     vw 1948   2.825   4.890   0.697 -0.2576 -0.6528 -0.1603
  488SOL     ow 1949   1.888   4.683   4.615  0.4548  0.2272 -0.1847
  488SOL     hw 1950   1.883   4.607   4.558  0.9922 -1.1313  1.5244
  488SOL     hw 1951   1.853   4.755   4.561 -0.5253 -1.2837 -1.6637
  488SOL     vw 1952   1.883   4.683   4.600  0.3964 -0.1514 -0.1545
  489SOL     ow 1953   4.178   3.708   2.426 -0.5007  0.0779  0.2182
  489SOL     hw 1954   4.251   3.651   2.401 -0.6782  0.6209 -1.7365
  489SOL     hw 1955   4.139   3.665   2.502  0.5328 -1.3791 -0.0292
  489SOL     vw 1956   4.182   3.694   2.432 -0.3879 -0.0427 -0.0724
  490SOL     ow 1957   0.628   2.426   0.121 -0.6385  0.1278 -0.4545
  490SOL     hw 1958   0.558   2.489   0.100 -0.9259  1.3626  3.3818
  490SOL     hw 1959   0.703   2.481   0.146  1.3350 -1.1783 -3.0605
  490SOL     vw 1960   0.629   2.442   0.122 -0.4161  0.1184 -0.2922
  491SOL     ow 1961   5.485   2.049   3.409 -0.1898 -0.4849  0.1245
  491SOL     hw 1962   5.522   2.005   3.332 -0.6581 -2.1647  0.8189
  491SOL     hw 1963   5.562   2.077   3.460  0.1331  0.9094 -1.0372
  491SOL     vw 1964   5.500   2.047   3.406 -0.2091 -0.5226  0.0631
  492SOL     ow 1965   0.402   3.716   6.120 -0.0102 -0.3398  0.0496
  492SOL     hw 1966   0.472   3.771   6.086  0.5778 -0.0859  1.5739
  492SOL     hw 1967   0.409   3.726   6.215 -1.5379 -1.0332  0.2543
  492SOL     vw 1968   0.412   3.725   6.128 -0.1342 -0.3979  0.2780
  493SOL     ow 1969   2.287   4.843   4.996 -0.5483  0.0106 -1.0474
  493SOL     hw 1970   2.214   4.889   5.037  0.9469  0.5772  1.1984
  493SOL     hw 1971   2.313   4.899   4.923 -0.9885  0.9193 -0.5302
  493SOL     vw 1972   2.281   4.856   4.992 -0.4091  0.2053 -0.6828
  494SOL     ow 1973   4.770   4.582   4.861  0.5163  0.2173  0.5198
  494SOL     hw 1974   4.804   4.634   4.788  1.3978 -0.1892  0.6241
  494SOL     hw 1975   4.679   4.609   4.869  0.1638 -0.2829 -1.2458
  494SOL     vw 1976   4.763   4.592   4.852  0.5860  0.0978  0.3006
  495SOL     ow 1977   5.239   4.585   5.922  0.6709  0.1080  0.3962
  495SOL     hw 1978   5.222   4.495   5.949 -1.3121  1.1232  2.9492
  495SOL     hw 1979   5.162   4.609   5.870  2.3125 -0.3405 -2.4206
  495SOL     vw 1980   5.226   4.576   5.919  0.6258  0.1826  0.3614
  496SOL     ow 1981   5.608   0.895   5.452 -0.3616  1.0138  0.0133
  496SOL     hw 1982   5.624   0.989   5.461  0.4377  0.6706  4.2938
  496SOL     hw 1983   5.513   0.887   5.448 -0.4223  1.9794 -2.5888
  496SOL     vw 1984   5.598   0.906   5.453 -0.2639  1.0959  0.2348
  497SOL     ow 1985   5.683   5.075   4.777 -0.1500 -0.3788  0.4300
  497SOL     hw 1986   5.778   5.066   4.784  0.0371  1.3087  0.5909
  497SOL     hw 1987   5.652   4.987   4.756  1.4361 -0.9715  0.4009
  497SOL     vw 1988   5.692   5.062   4.775  0.0837 -0.2344  0.4475
  498SOL     ow 1989   1.049   0.976   1.471 -0.7262  0.3117  0.3611
  498SOL     hw 1990   1.067   1.068   1.453 -0.8945  0.0937 -1.0201
  498SOL     hw 1991   0.994   0.947   1.398 -0.3662 -0.9848  0.5695
  498SOL     vw 1992   1.044   0.984   1.459 -0.7009  0.1119  0.2064
  499SOL     ow 1993   4.381   5.474   1.197  0.6315  1.0856 -0.0883
  499SOL     hw 1994   4.328   5.485   1.118  0.3787  2.4148  0.2354
  499SOL     hw 1995   4.337   5.527   1.263  2.0330  1.7578  0.3480
  499SOL     vw 1996   4.368   5.483   1.195  0.7830  1.3494  0.0119
  500SOL     ow 1997   2.657   5.026   6.650 -0.3999  0.2319  0.0310
  500SOL     hw 1998   2.601   5.103   6.659 -1.2033 -0.1398 -1.5128
  500SOL     hw 1999   2.603   4.961   6.604  0.2227 -1.3150  1.3783
  500SOL     vw 2000   2.643   5.028   6.645 -0.4237 -0.0212  0.0048
  501SOL     ow 2001   1.451   3.461   0.004 -0.8880  0.0234  0.1834
  501SOL     hw 2002   1.369   3.435   0.045 -0.3495 -1.2827  0.4625
  501SOL     hw 2003   1.425   3.496  -0.081 -1.7576 -0.0616  0.4071
  501SOL     vw 2004   1.437   3.462  -0.002 -0.9317 -0.1602  0.2497
  502SOL     ow 2005   4.382   6.062   1.876  0.4624  0.0681 -0.5980
  502SOL     hw 2006   4.290   6.072   1.899  0.5811  1.3024 -0.5778
  502SOL     hw 2007   4.383   5.993   1.809 -0.3577 -0.6107  0.0672
  502SOL     vw 2008   4.370   6.054   1.870  0.3698  0.1411 -0.5076
  503SOL     ow 2009   6.354   6.351   1.511  0.4132  0.2093  0.4216
  503SOL     hw 2010   6.305   6.367   1.591  0.2199 -0.7315  0.5128
  503SOL     hw 2011   6.296   6.380   1.440  1.2018  2.5220  0.6385
  503SOL     vw 2012   6.340   6.357   1.512  0.4916  0.3901  0.4622
  504SOL     ow 2013   5.112   6.401   3.966  0.0410 -0.3566 -0.1031
  504SOL     hw 2014   5.201   6.381   3.997 -0.2239 -0.2208  0.7714
  504SOL     hw 2015   5.125   6.437   3.879  1.0244  1.5213  0.7595
  504SOL     vw 2016   5.125   6.403   3.959  0.1359 -0.0911  0.1260
  505SOL     ow 2017   1.506   5.949   3.865 -0.6709  0.0898  0.6925
  505SOL     hw 2018   1.490   5.855   3.860 -1.2391  0.2251 -3.3191
  505SOL     hw 2019   1.449   5.987   3.798  1.1198  3.0280  0.6560
  505SOL     vw 2020   1.497   5.942   3.856 -0.5096  0.4954  0.1584
  506SOL     ow 2021   1.288   6.699   1.214  0.0088 -0.4248  0.0887
  506SOL     hw 2022   1.356   6.646   1.254  0.4037  0.0604  0.0700
  506SOL     hw 2023   1.305   6.693   1.120 -0.8196 -1.4317 -0.0132
  506SOL     vw 2024   1.299   6.691   1.207 -0.0483 -0.4935  0.0729
  507SOL     ow 2025   3.563   1.931   0.390  0.3854 -0.0680 -0.1750
  507SOL     hw 2026   3.658   1.921   0.398  0.2248 -0.7078  1.3550
  507SOL     hw 2027   3.546   2.020   0.423  0.3528 -0.4209  0.8082
  507SOL     vw 2028   3.573   1.941   0.396  0.3599 -0.1990  0.1566
  508SOL     ow 2029   4.985   4.309   1.725 -0.4234  0.5496 -0.7461
  508SOL     hw 2030   4.943   4.337   1.806 -0.0559  0.5768 -0.5613
  508SOL     hw 2031   5.007   4.217   1.741 -1.9033  0.0518 -1.4631
  508SOL     vw 2032   4.982   4.300   1.738 -0.5701  0.4876 -0.8163
  509SOL     ow 2033   2.276   4.600   5.404 -0.3718 -0.0420  0.8536
  509SOL     hw 2034   2.270   4.527   5.342 -0.0832 -0.1652  0.9720
  509SOL     hw 2035   2.186   4.612   5.435 -0.6350  0.4159 -0.0407
  509SOL     vw 2036   2.263   4.592   5.400 -0.3685  0.0021  0.7513
  510SOL     ow 2037   1.143   4.606   4.475  0.0054 -0.2648  0.1819
  510SOL     hw 2038   1.112   4.631   4.388  0.6629 -1.3625 -0.3890
  510SOL     hw 2039   1.066   4.573   4.520 -0.2361 -0.1850 -0.1751
  510SOL     vw 2040   1.129   4.605   4.469  0.0603 -0.3991  0.0594
  511SOL     ow 2041   2.314   5.835   2.208 -0.2805  0.8692 -0.3190
  511SOL     hw 2042   2.409   5.843   2.213 -0.1154 -0.2004 -1.3197
  511SOL     hw 2043   2.299   5.765   2.144 -1.6898 -0.7721  1.6705
  511SOL     vw 2044   2.324   5.827   2.200 -0.4448  0.5114 -0.1886
  512SOL     ow 2045   1.246   0.792   4.204 -0.2627  0.2372  0.6281
  512SOL     hw 2046   1.193   0.832   4.274 -0.7156 -2.5520  2.0132
  512SOL     hw 2047   1.334   0.825   4.219 -0.3729 -0.2160  2.4860
  512SOL     vw 2048   1.250   0.802   4.215 -0.3370 -0.1906  1.0562
  513SOL     ow 2049   5.899   6.522   1.684 -0.2353  0.5028 -0.3894
  513SOL     hw 2050   5.963   6.523   1.755 -0.1586 -0.4498 -0.4365
  513SOL     hw 2051   5.902   6.433   1.649 -1.3914  0.5111 -0.5661
  513SOL     vw 2052   5.908   6.510   1.689 -0.3774  0.3781 -0.4190
  514SOL     ow 2053   1.722   6.861   6.606 -0.4876 -0.0923  0.4854
  514SOL     hw 2054   1.761   6.902   6.683 -1.7370 -1.4488  1.9199
  514SOL     hw 2055   1.756   6.772   6.605 -1.1214 -0.3447 -0.0535
  514SOL     vw 2056   1.731   6.855   6.616 -0.7361 -0.3045  0.6037
  515SOL     ow 2057   4.354   2.419   6.216  0.4845  0.4866 -0.0122
  515SOL     hw 2058   4.311   2.503   6.199  3.4796  2.2491  0.3416
  515SOL     hw 2059   4.340   2.403   6.310  0.9296  1.2596  0.1926
  515SOL     vw 2060   4.347   2.428   6.226  0.9384  0.8210  0.0613
  516SOL     ow 2061   1.313   3.233   2.967 -0.1436  0.6285  0.2587
  516SOL     hw 2062   1.394   3.188   2.943 -0.2462  0.2984  0.5284
  516SOL     hw 2063   1.248   3.199   2.905 -0.0962  0.8316  0.0961
  516SOL     vw 2064   1.315   3.223   2.956 -0.1509  0.6118  0.2729
  517SOL     ow 2065   3.783   1.112   1.460  0.0040 -0.1888  0.2657
  517SOL     hw 2066   3.696   1.081   1.434  0.2568 -0.9775  0.3387
  517SOL     hw 2067   3.766   1.182   1.523 -0.5927  0.5180 -0.6525
  517SOL     vw 2068   3.769   1.117   1.465 -0.0412 -0.1996  0.1542
  518SOL     ow 2069   1.968   0.669   4.556 -0.2662 -0.0859 -0.5518
  518SOL     hw 2070   2.018   0.750   4.570 -0.5924  0.0644 -0.2445
  518SOL     hw 2071   1.897   0.694   4.497  1.5046 -0.8658 -3.2256
  518SOL     vw 2072   1.966   0.683   4.550 -0.0756 -0.1690 -0.8638
  519SOL     ow 2073   1.138   4.503   5.399 -1.1027 -0.3218 -0.1466
  519SOL     hw 2074   1.161   4.418   5.437  0.3183  1.1843  2.6735
  519SOL     hw 2075   1.209   4.521   5.337 -0.1806 -0.2274  0.9155
  519SOL     vw 2076   1.151   4.494   5.396 -0.7936 -0.1109  0.3655
  520SOL     ow 2077   6.743   5.760   4.800 -0.0199 -0.2815 -0.1972
  520SOL     hw 2078   6.758   5.852   4.780 -0.5348 -0.1504 -0.0109
  520SOL     hw 2079   6.691   5.761   4.880  3.2163 -0.7947  2.1149
  520SOL     vw 2080   6.738   5.772   4.808  0.3390 -0.3319  0.1323
  521SOL     ow 2081   6.195   0.768   3.194 -0.8716 -0.2455  0.1066
  521SOL     hw 2082   6.155   0.845   3.233 -1.4024 -1.8129  2.9353
  521SOL     hw 2083   6.132   0.698   3.209  1.1404 -1.9655  1.1139
  521SOL     vw 2084   6.182   0.769   3.201 -0.6766 -0.6792  0.6126
  522SOL     ow 2085   4.534   4.824   4.459  0.3243 -0.6898 -0.6555
  522SOL     hw 2086   4.478   4.764   4.410  0.1130 -1.3907  0.4048
  522SOL     hw 2087   4.498   4.824   4.547  2.1044 -1.3485  0.1265
  522SOL     vw 2088   4.522   4.816   4.464  0.5314 -0.8690 -0.4122
  523SOL     ow 2089   6.235   5.635   2.925  0.4088 -0.2420 -0.6778
  523SOL     hw 2090   6.146   5.665   2.903  0.1657 -1.5618 -1.6779
  523SOL     hw 2091   6.291   5.708   2.901 -0.2112 -0.2642 -2.3773
  523SOL     vw 2092   6.230   5.648   2.919  0.2947 -0.4194 -1.0340
  524SOL     ow 2093   3.190   2.612   0.191  0.2254 -0.4717 -0.1229
  524SOL     hw 2094   3.225   2.665   0.119  0.0841 -1.0653 -0.6335
  524SOL     hw 2095   3.164   2.676   0.257 -1.0700  0.1948 -1.2214
  524SOL     vw 2096   3.191   2.627   0.190  0.0358 -0.4622 -0.3352
  525SOL     ow 2097   4.211   2.432   3.241 -0.0302 -0.6340 -0.3372
  525SOL     hw 2098   4.290   2.427   3.187  0.0903  0.0321 -0.2309
  525SOL     hw 2099   4.165   2.510   3.210  0.6392  0.4764  1.2900
  525SOL     vw 2100   4.216   2.442   3.230  0.0741 -0.3996 -0.1085
  526SOL     ow 2101   1.777   1.460   6.214 -0.6227  0.1783  0.3722
  526SOL     hw 2102   1.721   1.481   6.289 -1.7842 -2.4883  0.3567
  526SOL     hw 2103   1.802   1.368   6.228 -0.6626 -0.3214 -2.3432
  526SOL     vw 2104   1.773   1.451   6.226 -0.7812 -0.2395  0.0119
  527SOL     ow 2105   1.721   3.326   1.325 -0.1396 -0.1966 -0.2329
  527SOL     hw 2106   1.735   3.342   1.418  1.0550  0.7320 -0.5422
  527SOL     hw 2107   1.698   3.233   1.319  1.2961 -0.6571  0.8518
  527SOL     vw 2108   1.720   3.316   1.336  0.2075 -0.1347 -0.1305
  528SOL     ow 2109   5.839   3.846   0.761 -0.1745  0.1934 -0.9878
  528SOL     hw 2110   5.882   3.785   0.821  1.6681  0.8476 -1.5960
  528SOL     hw 2111   5.878   3.931   0.781 -2.4388  1.1689 -0.4136
  528SOL     vw 2112   5.850   3.849   0.772 -0.2301  0.4084 -0.9923
  529SOL     ow 2113   5.166   6.600   5.766 -0.1310 -0.0529  0.0930
  529SOL     hw 2114   5.236   6.637   5.819  0.5956 -1.5836  0.2496
  529SOL     hw 2115   5.161   6.508   5.793 -1.8005 -0.1208 -0.3442
  529SOL     vw 2116   5.174   6.593   5.776 -0.2553 -0.2637  0.0558
  530SOL     ow 2117   5.586   3.647   0.718 -1.1053  0.0433  0.4324
  530SOL     hw 2118   5.629   3.575   0.764  0.5149  0.3976 -0.4776
  530SOL     hw 2119   5.542   3.605   0.644  1.1932  0.1118 -1.0453
  530SOL     vw 2120   5.586   3.632   0.714 -0.5884  0.0992  0.1173
  531SOL     ow 2121   3.151   3.197   0.107  0.1314 -0.2994 -0.5219
  531SOL     hw 2122   3.203   3.117   0.111 -1.2932 -1.2367  1.8191
  531SOL     hw 2123   3.188   3.254   0.174  0.1679  0.3835 -1.1043
  531SOL     vw 2124   3.162   3.194   0.116 -0.0519 -0.3330 -0.2899
  532SOL     ow 2125   6.836   1.937   4.612  0.9909  0.1067 -0.6462
  532SOL     hw 2126   6.843   1.937   4.517  1.6206  0.0130 -0.6085
  532SOL     hw 2127   6.872   2.021   4.639  2.4318 -0.5487 -0.4077
  532SOL     vw 2128   6.842   1.948   4.603  1.2641  0.0079 -0.6096
  533SOL     ow 2129   6.584   2.703   5.488  0.0087 -0.1953 -0.6913
  533SOL     hw 2130   6.602   2.795   5.469  1.0826 -0.4102 -0.7828
  533SOL     hw 2131   6.575   2.663   5.402  1.2317 -0.4745 -0.7184
  533SOL     vw 2132   6.586   2.710   5.474  0.3119 -0.2606 -0.7067
  534SOL     ow 2133   3.757   6.149   4.678 -1.1741 -0.1028 -0.5824
  534SOL     hw 2134   3.811   6.224   4.654  0.3189 -1.6426 -2.4386
  534SOL     hw 2135   3.669   6.171   4.646 -1.3259  1.7314  0.9514
  534SOL     vw 2136   3.752   6.161   4.671 -0.9971 -0.0639 -0.6249
  535SOL     ow 2137   6.284   1.585   4.087 -0.3683  0.8773  0.3481
  535SOL     hw 2138   6.373   1.612   4.064 -0.1004  1.2544  1.7814
  535SOL     hw 2139   6.280   1.492   4.062 -0.2376  1.3216 -1.5330
  535SOL     vw 2140   6.295   1.576   4.080 -0.3157  0.9857  0.2892
  536SOL     ow 2141   0.663   5.672   0.816 -0.4319  0.1059  0.6770
  536SOL     hw 2142   0.736   5.649   0.874 -1.2629 -2.7657  0.7273
  536SOL     hw 2143   0.585   5.653   0.868 -1.2715  2.2927  0.3127
  536SOL     vw 2144   0.663   5.666   0.831 -0.6523  0.0157  0.6356
  537SOL     ow 2145   5.278   0.002   4.787  0.4003 -0.0286 -0.0450
  537SOL     hw 2146   5.218   0.060   4.833  2.2691  1.1460  1.0567
  537SOL     hw 2147   5.258   0.015   4.695 -0.9189  0.4285  0.2828
  537SOL     vw 2148   5.268   0.012   4.781  0.4728  0.1864  0.1435
  538SOL     ow 2149   2.398   3.919   5.373 -0.1285  0.2505  0.2439
  538SOL     hw 2150   2.365   3.829   5.368  1.8175 -0.5352  0.8471
  538SOL     hw 2151   2.349   3.966   5.306  0.1086 -1.6805 -1.3717
  538SOL     vw 2152   2.387   3.913   5.364  0.1594 -0.1079  0.1104
  539SOL     ow 2153   0.086   4.713   3.940  0.0200 -0.5337 -0.2447
  539SOL     hw 2154   0.111   4.683   4.027 -1.6340 -1.9996 -0.2093
  539SOL     hw 2155   0.025   4.646   3.908 -1.0176  1.0044 -1.6884
  539SOL     vw 2156   0.081   4.701   3.947 -0.3351 -0.5243 -0.4306
  540SOL     ow 2157   3.084   6.202   6.291 -0.3139  1.0189  0.1171
  540SOL     hw 2158   3.020   6.235   6.354 -0.2279  0.2496  0.6232
  540SOL     hw 2159   3.124   6.127   6.334  2.0287  2.3645  0.4417
  540SOL     vw 2160   3.081   6.197   6.305  0.0066  1.0948  0.2267
  541poe    c31 2161   1.407   5.994   4.225 -0.1566  0.6295 -0.6751
  541poe     o2 2162   1.440   6.098   4.136  0.8169  0.4074 -0.5890
  541poe    c23 2163   1.323   6.172   4.110  0.3926 -0.0763 -0.0856
  541poe    c23 2164   1.384   6.283   4.023 -0.2319 -0.3623 -0.9062
  541poe     o2 2165   1.478   6.226   3.935  0.3213  0.1243 -0.6371
  541poe    c23 2166   1.517   6.324   3.841 -0.1024  0.4510 -0.4754
  541poe    c23 2167   1.624   6.258   3.751 -0.5616 -0.5437 -0.3083
  541poe     o2 2168   1.694   6.192   3.854 -0.3936  0.0767 -0.0206
  541poe    c23 2169   1.795   6.102   3.815 -0.4240 -0.0541  0.2015
  541poe    c23 2170   1.838   6.018   3.937  0.2303  0.8696  0.6168
  541poe     o2 2171   1.734   6.011   4.032 -0.4367 -0.1701 -0.1783
  541poe    c31 2172   1.787   5.928   4.132 -0.4919  0.3839  0.3108
  542poe    c31 2173   4.645   5.906   3.735 -0.2139  1.1492  0.0545
  542poe     o2 2174   4.638   5.925   3.874  0.3060 -0.0186  0.2498
  542poe    c23 2175   4.724   5.836   3.942  0.0033 -0.2808  0.2944
  542poe    c23 2176   4.745   5.895   4.082  0.5909 -0.4250  0.2678
  542poe     o2 2177   4.853   5.987   4.087  0.6530 -0.4866  0.0673
  542poe    c23 2178   4.892   6.014   4.220  0.2059 -0.3298  0.1702
  542poe    c23 2179   4.985   6.135   4.241 -0.0168 -0.0515 -0.4237
  542poe     o2 2180   4.937   6.257   4.187 -0.1492  0.1285  0.0912
  542poe    c23 2181   4.823   6.314   4.247 -0.6809 -0.3824 -0.4170
  542poe    c23 2182   4.814   6.464   4.211  0.4896 -0.1164  0.3278
  542poe     o2 2183   4.824   6.480   4.071 -0.1718  0.0275  0.2963
  542poe    c31 2184   4.853   6.612   4.032 -0.1770 -0.0117  0.1611
  543poe    c31 2185   6.612   5.139   6.533  0.3710  0.1766 -0.1323
  543poe     o2 2186   6.592   5.278   6.523  0.1502  0.1445 -0.1336
  543poe    c23 2187   6.483   5.325   6.599  0.0631  0.5625 -0.5158
  543poe    c23 2188   6.480   5.478   6.576 -0.0434  0.6890  0.3262
  543poe     o2 2189   6.474   5.498   6.437 -0.2342  0.6524  0.3288
  543poe    c23 2190   6.514   5.625   6.391 -0.2293  0.3750 -0.4424
  543poe    c23 2191   6.471   5.625   6.243 -0.4027 -0.0486 -0.3943
  543poe     o2 2192   6.501   5.497   6.193  0.3696 -0.0859  0.1494
  543poe    c23 2193   6.475   5.485   6.055 -0.5663  0.3953  0.2737
  543poe    c23 2194   6.328   5.452   6.026 -0.5673  0.4720  0.1885
  543poe     o2 2195   6.306   5.320   6.069 -0.8043  0.4095 -0.1184
  543poe    c31 2196   6.178   5.273   6.034 -0.5591 -0.3923  0.0364
  544poe    c31 2197   5.512   3.782   2.997 -0.0086  0.8980  0.2684
  544poe     o2 2198   5.591   3.751   2.885 -0.0967  0.2897  0.3714
  544poe    c23 2199   5.520   3.758   2.764 -0.2617  0.2112  0.4633
  544poe    c23 2200   5.610   3.710   2.649  0.1026  0.2079  0.7480
  544poe     o2 2201   5.707   3.806   2.615  0.4237 -0.2007  0.4984
  544poe    c23 2202   5.747   3.789   2.481 -0.4704 -0.8056  0.2966
  544poe    c23 2203   5.868   3.694   2.492  0.2785  0.0605 -0.3137
  544poe     o2 2204   5.953   3.758   2.585 -0.0351  0.2299 -0.1417
  544poe    c23 2205   6.074   3.689   2.603 -0.1813  0.0768  0.2678
  544poe    c23 2206   6.163   3.781   2.687  0.0718 -0.2192  0.3279
  544poe     o2 2207   6.090   3.866   2.773  0.1229  0.5127 -0.3440
  544poe    c31 2208   6.183   3.946   2.842 -0.1918  1.0105 -0.4878
  545poe    c31 2209   0.515   4.227   2.096 -0.2224 -0.8989 -0.0531
  545poe     o2 2210   0.403   4.142   2.081 -0.4128 -0.5838 -0.4252
  545poe    c23 2211   0.434   4.019   2.020 -0.4967 -0.6515 -0.3319
  545poe    c23 2212   0.295   3.975   1.969 -0.5048 -0.3306 -0.5936
  545poe     o2 2213   0.212   4.084   1.938  0.2915  0.5341  0.2437
  545poe    c23 2214   0.093   4.030   1.884  0.3505  0.5213  0.1270
  545poe    c23 2215   0.020   4.139   1.804  0.1155 -0.0643 -0.4674
  545poe     o2 2216   0.017   4.262   1.874 -0.3284 -0.2330 -0.1871
  545poe    c23 2217  -0.067   4.358   1.814  0.5734  0.2272 -0.7354
  545poe    c23 2218  -0.037   4.503   1.856 -0.1674  0.2309 -0.1999
  545poe     o2 2219   0.090   4.537   1.807  0.0323  0.5519  0.5300
  545poe    c31 2220   0.099   4.678   1.798 -0.3015  0.5121 -0.4955
  546poe    c31 2221   6.161   0.515   1.648  0.1351 -0.7193 -0.5827
  546poe     o2 2222   6.206   0.445   1.761 -0.0345  0.0894 -0.0065
  546poe    c23 2223   6.095   0.391   1.830 -0.1743  0.5674  0.1460
  546poe    c23 2224   6.119   0.330   1.970 -0.0636 -0.0961 -0.1605
  546poe     o2 2225   6.195   0.212   1.956  0.5988  0.3666 -0.5452
  546poe    c23 2226   6.196   0.143   2.079  0.0170  0.1218 -0.6738
  546poe    c23 2227   6.284   0.016   2.067 -0.1851 -0.1206  0.2997
  546poe     o2 2228   6.388   0.057   1.981  0.1095 -0.7085  0.3733
  546poe    c23 2229   6.511   0.005   2.027  0.4231 -0.0904  0.2445
  546poe    c23 2230   6.621   0.065   1.937  0.3676 -0.5200 -0.1069
  546poe     o2 2231   6.576   0.045   1.804 -0.4200  0.4289  0.0077
  546poe    c31 2232   6.677   0.105   1.727  0.2738 -0.0617  0.5182
  547poe    c31 2233   0.281   3.915   5.325  0.1388  0.3195 -0.1836
  547poe     o2 2234   0.238   3.795   5.384  0.0731  0.3224 -0.2262
  547poe    c23 2235   0.356   3.742   5.440  0.1300  0.3488 -0.3216
  547poe    c23 2236   0.341   3.593   5.401 -0.2391  0.0947  0.7616
  547poe     o2 2237   0.212   3.549   5.435 -0.3964  0.2131  0.3235
  547poe    c23 2238   0.175   3.420   5.390  0.0829 -0.0723  0.7341
  547poe    c23 2239   0.027   3.395   5.424 -0.1972  0.2657 -0.2115
  547poe     o2 2240  -0.059   3.496   5.374 -0.0563  0.3107 -0.3645
  547poe    c23 2241  -0.196   3.464   5.380  0.0206  0.0589  0.1183
  547poe    c23 2242  -0.275   3.595   5.398  0.3582  0.2583  0.1581
  547poe     o2 2243  -0.269   3.644   5.530 -0.6129 -0.4100  0.4609
  547poe    c31 2244  -0.346   3.581   5.630 -0.1864 -0.7160  0.5953
  548poe    c31 2245   2.758   5.656   3.622  0.4034  0.6164  0.4977
  548poe     o2 2246   2.891   5.611   3.632  0.2996  0.0716 -0.4991
  548poe    c23 2247   2.885   5.499   3.717  0.2564  0.1077 -0.4547
  548poe    c23 2248   3.027   5.457   3.762  0.1843  0.1823 -0.1584
  548poe     o2 2249   3.077   5.571   3.828  0.2780  0.0826 -0.0587
  548poe    c23 2250   3.205   5.546   3.883  0.1156 -0.8153 -0.0666
  548poe    c23 2251   3.236   5.668   3.971 -0.1183 -0.2582 -0.7469
  548poe     o2 2252   3.212   5.791   3.907  0.0918 -0.0348 -0.4027
  548poe    c23 2253   3.264   5.900   3.980 -0.4927 -0.1201  0.1455
  548poe    c23 2254   3.256   6.030   3.899 -0.0192  0.0903  0.4302
  548poe     o2 2255   3.140   6.073   3.832 -0.2175  0.3656  0.9502
  548poe    c31 2256   3.167   6.177   3.742 -0.4229 -0.2564  0.1566
  549poe    c31 2257   4.031   6.539   6.670 -0.4667  0.2571 -0.9726
  549poe     o2 2258   3.948   6.429   6.698  0.0144  0.0697 -0.2576
  549poe    c23 2259   4.015   6.309   6.731 -0.2133  0.0528  0.1589
  549poe    c23 2260   3.913   6.217   6.801 -0.0096 -0.3286 -0.0463
  549poe     o2 2261   3.791   6.243   6.736  0.1030  0.6261  0.1051
  549poe    c23 2262   3.688   6.165   6.793  0.5142  0.0094  0.0186
  549poe    c23 2263   3.563   6.236   6.736  0.3834  0.4549  0.8361
  549poe     o2 2264   3.583   6.372   6.709  0.3792  0.2965  0.0197
  549poe    c23 2265   3.490   6.423   6.615  0.2742 -0.9165 -0.5443
  549poe    c23 2266   3.553   6.561   6.591 -0.0119 -0.7714 -0.4604
  549poe     o2 2267   3.688   6.566   6.632 -0.1136 -0.1603 -0.1839
  549poe    c31 2268   3.744   6.690   6.596  0.2412 -0.0547  0.7100
  550poe    c31 2269   2.018   4.379   6.880  0.6226 -0.0396  0.0769
  550poe     o2 2270   2.096   4.481   6.938  0.6971  0.0127 -0.1146
  550poe    c23 2271   2.050   4.606   6.893  0.4242 -0.1309 -0.2346
  550poe    c23 2272   2.123   4.721   6.965 -0.2085  0.1128  0.0228
  550poe     o2 2273   2.248   4.663   6.992 -0.1493  0.2384  0.0191
  550poe    c23 2274   2.322   4.764   7.056  0.1639 -0.3579  0.6084
  550poe    c23 2275   2.467   4.713   7.048  0.2206 -0.0286 -0.5833
  550poe     o2 2276   2.460   4.575   7.077  0.1148  0.0182 -0.3853
  550poe    c23 2277   2.560   4.516   6.998  0.3483 -0.0867 -0.0151
  550poe    c23 2278   2.511   4.373   7.026 -0.6724  0.2609  0.0031
  550poe     o2 2279   2.380   4.358   6.977 -0.6019  0.3391 -0.2110
  550poe    c31 2280   2.375   4.249   6.888 -0.0048  0.3872 -0.3072
  551poe    c31 2281   1.945   4.717   5.396 -0.2058  0.0511  0.5173
  551poe     o2 2282   2.049   4.674   5.482  0.0165 -0.3023  0.0760
  551poe    c23 2283   2.044   4.717   5.616 -0.0801 -0.0225 -0.0174
  551poe    c23 2284   2.133   4.625   5.701 -0.0378  0.0723  0.0419
  551poe     o2 2285   2.265   4.662   5.669 -0.1427  0.8014  0.4346
  551poe    c23 2286   2.352   4.634   5.776 -0.3541 -0.1492  0.3643
  551poe    c23 2287   2.472   4.727   5.749 -0.4078 -0.2862 -0.3585
  551poe     o2 2288   2.511   4.704   5.615  0.0526  0.0742 -0.2875
  551poe    c23 2289   2.616   4.789   5.574 -0.0965  0.2549 -0.2997
  551poe    c23 2290   2.638   4.727   5.435  0.7856  0.2607 -0.1700
  551poe     o2 2291   2.515   4.755   5.372  0.5668  0.0315  0.1586
  551poe    c31 2292   2.526   4.744   5.232 -0.3384 -0.6810  0.1282
  552poe    c31 2293   5.838   3.080   3.345  0.7610 -0.1048  0.3144
  552poe     o2 2294   5.875   2.944   3.352 -0.3195 -0.4190  0.2195
  552poe    c23 2295   5.952   2.915   3.467 -0.1320 -0.2916  0.1268
  552poe    c23 2296   6.013   2.774   3.452  0.3133 -0.1003  0.1298
  552poe     o2 2297   5.914   2.675   3.452  0.0355  0.1718 -0.5112
  552poe    c23 2298   5.968   2.546   3.472 -0.2917  0.1691  0.3973
  552poe    c23 2299   5.900   2.451   3.373 -0.2934  0.2849  0.2870
  552poe     o2 2300   5.909   2.487   3.237  0.1030  0.4394  0.3544
  552poe    c23 2301   5.835   2.391   3.165  0.1977  0.5865  0.0578
  552poe    c23 2302   5.869   2.418   3.017  0.1372  0.2351 -0.0225
  552poe     o2 2303   5.868   2.555   2.985 -0.2163  0.1906 -0.2043
  552poe    c31 2304   5.894   2.569   2.847  0.3580 -0.4811 -0.1629
  553poe    c31 2305   5.187   6.366   0.825 -0.0966 -0.7869  0.2696
  553poe     o2 2306   5.228   6.409   0.953  0.4809 -0.4371 -0.0263
  553poe    c23 2307   5.107   6.425   1.023  0.5499 -0.4175  0.0901
  553poe    c23 2308   5.139   6.515   1.143 -0.1302 -0.0227 -0.0178
  553poe     o2 2309   5.256   6.458   1.197 -0.1612 -0.0023  0.0711
  553poe    c23 2310   5.307   6.523   1.312  0.3916 -0.2458 -0.0358
  553poe    c23 2311   5.418   6.434   1.372  0.4485 -0.2419 -0.1337
  553poe     o2 2312   5.482   6.396   1.252  0.0936  0.2471 -0.4828
  553poe    c23 2313   5.558   6.281   1.282  0.2343  0.4530 -0.0444
  553poe    c23 2314   5.585   6.237   1.138  0.1741  0.4754 -0.0627
  553poe     o2 2315   5.467   6.240   1.061 -0.3524  0.1094  0.7215
  553poe    c31 2316   5.489   6.139   0.966 -0.1995 -0.0819  0.9625
  554poe    c31 2317   0.569   4.581   0.920  0.1139  0.5886 -0.3759
  554poe     o2 2318   0.703   4.538   0.932  0.0363  0.5482  0.3736
  554poe    c23 2319   0.767   4.623   1.025 -0.0934  0.6036  0.4121
  554poe    c23 2320   0.911   4.580   1.057 -0.2430  0.0795  0.3972
  554poe     o2 2321   0.913   4.482   1.159 -0.0401 -0.2345  0.0947
  554poe    c23 2322   1.042   4.456   1.207 -0.0825  0.1285  0.4118
  554poe    c23 2323   1.050   4.344   1.313 -0.4982  0.0287  0.3368
  554poe     o2 2324   0.977   4.231   1.269 -0.1391  0.0175 -0.2370
  554poe    c23 2325   0.979   4.119   1.355  0.1219 -0.1820 -0.5000
  554poe    c23 2326   0.904   4.005   1.283  0.2019 -0.2523 -0.4713
  554poe     o2 2327   0.804   4.068   1.206  0.0329 -0.0521 -0.0909
  554poe    c31 2328   0.701   3.973   1.184 -0.1921  0.1825 -0.0598
  555poe    c31 2329   3.944   6.370   3.296  0.7161  0.6760 -0.0129
  555poe     o2 2330   3.892   6.441   3.406  0.3702  0.0893  0.2069
  555poe    c23 2331   3.997   6.524   3.452  0.5670 -0.2872  0.4357
  555poe    c23 2332   3.973   6.571   3.597 -0.4319  0.0125  0.1784
  555poe     o2 2333   3.836   6.606   3.601 -0.4445  0.0474 -0.4723
  555poe    c23 2334   3.797   6.670   3.720  0.3037  0.5768 -0.5075
  555poe    c23 2335   3.651   6.707   3.688  0.0386 -0.0198  0.0185
  555poe     o2 2336   3.592   6.593   3.629 -0.4167  0.3159 -0.1758
  555poe    c23 2337   3.463   6.626   3.583 -0.5453  0.7965  0.5232
  555poe    c23 2338   3.368   6.507   3.559  0.0463  0.4315 -0.0247
  555poe     o2 2339   3.421   6.425   3.457 -0.2255  0.3355 -0.0893
  555poe    c31 2340   3.321   6.333   3.418  0.3399 -0.2062 -0.2766
  556poe    c31 2341   2.388   2.357   3.552 -0.3099 -0.6617 -0.5277
  556poe     o2 2342   2.302   2.426   3.464  0.0261  0.0650 -0.2901
  556poe    c23 2343   2.330   2.403   3.328 -0.3026 -0.1115 -0.3298
  556poe    c23 2344   2.238   2.506   3.260 -0.1513 -0.2343 -0.7269
  556poe     o2 2345   2.109   2.479   3.311  0.0448 -0.4121 -0.3198
  556poe    c23 2346   2.014   2.547   3.232  0.1624 -0.1230 -0.2161
  556poe    c23 2347   1.877   2.479   3.252  0.0551  0.1793  0.0912
  556poe     o2 2348   1.843   2.470   3.388 -0.1284  0.4153  0.0622
  556poe    c23 2349   1.733   2.393   3.431  0.6278 -0.4608  0.4830
  556poe    c23 2350   1.748   2.242   3.407  0.0213 -0.4476 -0.0076
  556poe     o2 2351   1.839   2.188   3.500  0.1772 -0.1210  0.0303
  556poe    c31 2352   1.823   2.050   3.474 -0.0793  0.0064 -0.4928
  557poe    c31 2353   4.709   2.373   1.538 -0.4086 -0.1145 -0.4166
  557poe     o2 2354   4.836   2.313   1.523 -0.2863  0.1326 -0.3685
  557poe    c23 2355   4.861   2.198   1.600  0.2069  0.6770  0.2937
  557poe    c23 2356   4.998   2.133   1.570 -0.2064  0.1997 -0.5732
  557poe     o2 2357   5.013   2.124   1.430  0.3457 -0.3867 -0.4816
  557poe    c23 2358   5.140   2.073   1.398  0.3576 -0.5600 -0.1612
  557poe    c23 2359   5.116   2.075   1.246  0.1246  0.0911 -0.1180
  557poe     o2 2360   5.044   2.191   1.212  0.6406  0.3438 -0.3695
  557poe    c23 2361   4.941   2.168   1.118 -0.1305  0.0754  0.5254
  557poe    c23 2362   4.867   2.298   1.083  0.6745  0.4400  0.1441
  557poe     o2 2363   4.827   2.354   1.206 -1.0547 -0.8469  0.2139
  557poe    c31 2364   4.793   2.488   1.177  0.1055 -0.6932 -0.5068
  558poe    c31 2365   1.570   1.184   2.077 -0.2184  0.5051 -0.2357
  558poe     o2 2366   1.710   1.195   2.076 -0.2179  0.5206  0.0240
  558poe    c23 2367   1.736   1.220   2.212 -0.0810  0.6554 -0.0271
  558poe    c23 2368   1.888   1.205   2.231 -0.1934 -0.2137  0.2260
  558poe     o2 2369   1.966   1.292   2.152 -0.0402 -0.2306  0.3585
  558poe    c23 2370   2.100   1.252   2.167  0.2189  0.3863 -0.2749
  558poe    c23 2371   2.184   1.351   2.083  0.0065  0.4867 -0.3699
  558poe     o2 2372   2.103   1.387   1.973 -0.6160  0.0966 -0.0466
  558poe    c23 2373   2.182   1.456   1.879 -0.2105 -0.3244 -0.0199
  558poe    c23 2374   2.102   1.497   1.754 -0.2435 -0.1017  0.0735
  558poe     o2 2375   1.998   1.582   1.796  0.1024  0.3662 -0.0148
  558poe    c31 2376   1.904   1.617   1.696  0.2101 -0.5208 -0.4361
  559poe    c31 2377   5.762   5.831   3.904 -0.2607  0.3212  0.2653
  559poe     o2 2378   5.870   5.922   3.900 -0.0357  0.0380 -0.1534
  559poe    c23 2379   5.847   6.025   3.806  0.0666 -0.2032 -0.4446
  559poe    c23 2380   5.938   6.145   3.839 -0.1855 -0.1129 -0.0748
  559poe     o2 2381   5.900   6.197   3.964  0.1864  0.1730 -0.0818
  559poe    c23 2382   5.974   6.317   3.977  0.4558  0.0046 -0.0547
  559poe    c23 2383   5.963   6.386   4.114 -0.1452 -0.1464 -0.0263
  559poe     o2 2384   5.992   6.279   4.201  0.2807  0.1828  0.2408
  559poe    c23 2385   5.987   6.333   4.331  0.6806  0.0856  0.2974
  559poe    c23 2386   6.023   6.215   4.423  0.5019 -0.0688  0.1696
  559poe     o2 2387   5.977   6.087   4.387 -0.0477  0.1520  0.0879
  559poe    c31 2388   6.033   5.989   4.472 -0.0898 -0.3625 -0.4775
  560poe    c31 2389   1.226   6.002   0.907 -0.0392 -0.1571 -0.2277
  560poe     o2 2390   1.214   6.129   0.968 -0.0261 -0.1679 -0.2028
  560poe    c23 2391   1.111   6.117   1.063  0.3298 -0.1360  0.1920
  560poe    c23 2392   1.086   6.262   1.108  0.3340 -0.0554 -0.0695
  560poe     o2 2393   1.041   6.332   0.993  0.3177 -0.0368 -0.0516
  560poe    c23 2394   1.029   6.468   1.029 -0.1683 -0.0661 -0.0975
  560poe    c23 2395   0.986   6.556   0.910  0.4233  0.4307  0.0506
  560poe     o2 2396   1.085   6.529   0.814 -0.0554 -0.2215 -0.2688
  560poe    c23 2397   1.032   6.572   0.691 -0.1449 -0.5624 -0.3504
  560poe    c23 2398   1.134   6.589   0.577 -0.3929  0.2370 -0.4595
  560poe     o2 2399   1.208   6.471   0.555  0.0931  0.4551 -0.0359
  560poe    c31 2400   1.298   6.477   0.447 -0.0541 -0.1806 -0.2010
  561poe    c31 2401   1.104   0.096   4.213 -0.1505 -0.7602  0.2815
  561poe     o2 2402   1.024   0.163   4.119  0.6288 -0.5445 -0.2422
  561poe    c23 2403   0.905   0.088   4.104  0.5203 -0.3921 -0.1534
  561poe    c23 2404   0.816   0.156   3.999  0.4254 -0.3475 -0.0433
  561poe     o2 2405   0.883   0.184   3.878  0.0043 -0.0687 -0.2182
  561poe    c23 2406   0.812   0.262   3.785 -0.0431  0.0591 -0.0740
  561poe    c23 2407   0.914   0.343   3.702 -0.0848  0.0665 -0.1179
  561poe     o2 2408   0.983   0.244   3.630 -0.2389 -0.2189  0.1220
  561poe    c23 2409   1.080   0.304   3.546 -0.1254 -0.2436  0.2359
  561poe    c23 2410   1.171   0.193   3.490 -0.5276 -0.2354 -0.4437
  561poe     o2 2411   1.189   0.101   3.595 -0.2222 -0.5855 -0.7978
  561poe    c31 2412   1.306   0.029   3.564 -0.2240 -1.0599  0.2511
  562poe    c31 2413   1.497   0.028   6.312 -0.2638 -0.0660  0.4682
  562poe     o2 2414   1.635   0.013   6.335 -0.1919  0.5684  0.4534
  562poe    c23 2415   1.714  -0.001   6.219 -0.0582 -0.1672  0.6279
  562poe    c23 2416   1.863  -0.013   6.254  0.1590  0.4482 -0.0544
  562poe     o2 2417   1.887   0.064   6.370 -0.2156  0.6519 -0.1105
  562poe    c23 2418   2.016   0.053   6.425 -0.4795 -0.3570  0.3502
  562poe    c23 2419   2.028   0.165   6.530  0.2313  0.3019 -0.4151
  562poe     o2 2420   1.905   0.188   6.594  0.3067  0.1054 -0.1961
  562poe    c23 2421   1.924   0.254   6.717 -0.2863 -0.2634  0.0978
  562poe    c23 2422   1.928   0.154   6.833 -0.4364 -0.3644  0.0159
  562poe     o2 2423   1.816   0.067   6.829 -0.1977 -0.6760  0.0863
  562poe    c31 2424   1.808  -0.001   6.952  1.0526  0.6403  0.9309
  563poe    c31 2425   3.997   6.628   2.929  0.0181  0.0266 -0.3943
  563poe     o2 2426   4.003   6.712   2.817 -0.1644  0.2173 -0.2621
  563poe    c23 2427   4.069   6.836   2.834 -0.0218  0.1410 -0.2554
  563poe    c23 2428   4.056   6.923   2.708  0.4846  0.4292 -0.1132
  563poe     o2 2429   4.067   6.833   2.600 -0.8617  0.4143 -0.2604
  563poe    c23 2430   4.079   6.896   2.474  0.4833  0.6521 -0.0252
  563poe    c23 2431   4.124   6.779   2.384 -0.1501  0.3039  0.1024
  563poe     o2 2432   4.037   6.669   2.393  0.1781  0.0306 -0.0531
  563poe    c23 2433   4.082   6.540   2.358 -0.2508 -0.3750  0.8460
  563poe    c23 2434   4.022   6.442   2.459 -0.7370 -0.5047  0.4368
  563poe     o2 2435   4.062   6.492   2.585  0.2620  0.1296 -0.1288
  563poe    c31 2436   4.161   6.409   2.642 -0.1731 -0.3223 -0.0345
  564poe    c31 2437   5.740   0.616   4.381 -0.7032  1.0275 -0.6924
  564poe     o2 2438   5.870   0.659   4.414 -0.4801 -0.1623  0.0514
  564poe    c23 2439   5.953   0.638   4.303  0.0522  0.5903  0.3026
  564poe    c23 2440   6.097   0.638   4.358  0.3142 -0.0190 -0.3741
  564poe     o2 2441   6.107   0.702   4.482 -0.2451  0.0322 -0.3536
  564poe    c23 2442   6.238   0.738   4.522 -0.2334 -0.4266  0.0318
  564poe    c23 2443   6.227   0.775   4.671  0.1997  0.0255 -0.0463
  564poe     o2 2444   6.122   0.869   4.681 -0.0479 -0.2761  0.1767
  564poe    c23 2445   6.152   0.942   4.798 -0.2054  0.5572 -0.3000
  564poe    c23 2446   6.021   0.997   4.856 -0.2149  0.2611 -0.0400
  564poe     o2 2447   5.925   0.900   4.890 -0.0696  0.1211 -0.0323
  564poe    c31 2448   5.814   0.963   4.951  0.1902  0.0893  0.4821
  565poe    c31 2449   1.893   5.941   6.506  0.0343  0.4290 -0.2930
  565poe     o2 2450   1.991   5.970   6.409  0.1760  0.5869 -0.1036
  565poe    c23 2451   2.072   5.855   6.407  0.4713  0.7904  0.0902
  565poe    c23 2452   2.202   5.888   6.331  0.6864 -0.8878 -0.3114
  565poe     o2 2453   2.174   5.980   6.227  0.5574 -0.4022  0.1470
  565poe    c23 2454   2.269   6.082   6.207 -0.2545  0.3684  0.1658
  565poe    c23 2455   2.222   6.156   6.081  0.2217  0.6014  0.1208
  565poe     o2 2456   2.091   6.192   6.119 -0.0379  0.1261 -0.3097
  565poe    c23 2457   2.035   6.295   6.040 -0.0675 -0.0202 -0.4797
  565poe    c23 2458   2.018   6.282   5.888  0.0808  0.0585 -0.5026
  565poe     o2 2459   2.134   6.327   5.822  0.1260  0.4063 -0.1882
  565poe    c31 2460   2.133   6.322   5.681 -0.6077 -0.3994 -0.1592
  566poe    c31 2461   2.254   4.142   5.859 -0.4874 -0.4864  0.2245
  566poe     o2 2462   2.301   4.131   5.727  0.1182  0.0881  0.3891
  566poe    c23 2463   2.319   4.258   5.668  0.6066 -0.1300  0.0537
  566poe    c23 2464   2.352   4.240   5.519 -0.2699 -0.5290 -0.1018
  566poe     o2 2465   2.470   4.162   5.515 -0.0797 -0.2654  0.2461
  566poe    c23 2466   2.549   4.221   5.414 -0.0601  0.2150  0.5391
  566poe    c23 2467   2.687   4.154   5.402 -0.4818 -0.5014 -0.4466
  566poe     o2 2468   2.663   4.017   5.379 -0.0705 -0.7846  0.7904
  566poe    c23 2469   2.782   3.944   5.359  0.1962 -0.1340 -0.0057
  566poe    c23 2470   2.759   3.796   5.393  0.2246 -0.0081  0.5662
  566poe     o2 2471   2.659   3.797   5.492 -0.0898 -0.3082  0.2547
  566poe    c31 2472   2.613   3.667   5.523 -0.2591 -0.2183  0.3821
  567poe    c31 2473   6.464   1.288   1.536 -0.1828 -0.1804 -0.0404
  567poe     o2 2474   6.360   1.365   1.479 -0.1525  0.2095  0.4244
  567poe    c23 2475   6.313   1.464   1.567  0.2680  0.4174  0.4163
  567poe    c23 2476   6.269   1.591   1.491  1.1835  0.4058 -0.1430
  567poe     o2 2477   6.222   1.553   1.364  0.2718  0.1297  0.2706
  567poe    c23 2478   6.244   1.661   1.276 -0.4979 -0.1248 -0.2450
  567poe    c23 2479   6.203   1.601   1.140  0.3592  0.6188 -0.8414
  567poe     o2 2480   6.272   1.479   1.124 -0.5650 -0.0611  0.1871
  567poe    c23 2481   6.259   1.469   0.983 -0.3564  0.3052  0.1408
  567poe    c23 2482   6.275   1.321   0.947  0.0850  0.3576  0.1149
  567poe     o2 2483   6.401   1.262   0.969 -0.0120  0.0381 -0.1723
  567poe    c31 2484   6.426   1.154   0.882 -0.5731 -0.4537  0.2684
  568poe    c31 2485   2.511   1.738   2.813 -0.0557 -0.0181 -0.4844
  568poe     o2 2486   2.388   1.728   2.746  0.1467 -0.2137 -0.8286
  568poe    c23 2487   2.373   1.835   2.655  0.0083  0.5922  0.1335
  568poe    c23 2488   2.238   1.805   2.587  0.2106 -0.4910  0.1947
  568poe     o2 2489   2.148   1.777   2.691  0.1988 -0.0594  0.3036
  568poe    c23 2490   2.018   1.750   2.642  0.1669  0.4063  0.1270
  568poe    c23 2491   1.927   1.741   2.765  0.2785 -0.1658  0.1697
  568poe     o2 2492   1.982   1.640   2.847  0.1719 -0.5260 -0.1991
  568poe    c23 2493   1.904   1.617   2.962 -0.0072 -0.6146 -0.3383
  568poe    c23 2494   1.914   1.468   3.001 -0.2299 -0.5189  0.0849
  568poe     o2 2495   2.047   1.424   3.015  0.0324  0.1495 -0.2686
  568poe    c31 2496   2.059   1.294   3.069  0.1303 -0.0298 -0.7201
  569poe    c31 2497   1.353   5.898   2.708  0.3457  0.5623  0.6637
  569poe     o2 2498   1.231   5.923   2.774  0.0058 -0.1804  0.3346
  569poe    c23 2499   1.153   5.806   2.761 -0.2325  0.0808 -0.6155
  569poe    c23 2500   1.039   5.813   2.863 -0.1349  0.2651 -0.5178
  569poe     o2 2501   1.077   5.822   2.999  0.4959 -0.8137 -0.6148
  569poe    c23 2502   1.147   5.711   3.051  0.0437 -0.5008  0.6961
  569poe    c23 2503   1.259   5.770   3.137  0.3202  0.2632 -0.1712
  569poe     o2 2504   1.313   5.885   3.076  0.1663  0.5256  0.1823
  569poe    c23 2505   1.442   5.893   3.133  0.1362  0.1460  0.3045
  569poe    c23 2506   1.487   6.033   3.087  0.4162 -0.1625 -0.3640
  569poe     o2 2507   1.451   6.059   2.953  0.1143 -0.2842 -0.3068
  569poe    c31 2508   1.522   6.166   2.896  0.1842  0.2646  0.7912
  570poe    c31 2509   2.638   5.232   0.573  0.4860  0.4561 -0.3236
  570poe     o2 2510   2.688   5.164   0.686 -0.5364  0.3818  0.0920
  570poe    c23 2511   2.748   5.259   0.770  0.1441  0.0211  0.0162
  570poe    c23 2512   2.785   5.172   0.892 -0.9553  0.4062  0.6357
  570poe     o2 2513   2.670   5.094   0.915 -0.7806 -0.2392 -0.5873
  570poe    c23 2514   2.682   5.004   1.023  0.4672  0.1271 -0.4070
  570poe    c23 2515   2.576   4.895   1.000  0.2917  0.3192 -0.5169
  570poe     o2 2516   2.589   4.872   0.861  0.0496 -0.3173 -0.4383
  570poe    c23 2517   2.457   4.836   0.828 -0.1773 -0.2994  0.4203
  570poe    c23 2518   2.479   4.804   0.679  0.5870 -0.0903  0.4854
  570poe     o2 2519   2.540   4.914   0.617 -0.0367  0.0950  0.1967
  570poe    c31 2520   2.574   4.895   0.481 -0.0809  0.0533  0.1917
  571poe    c31 2521   5.345   6.398   3.297  0.1935  0.0543  0.3573
  571poe     o2 2522   5.477   6.442   3.316  0.2945 -0.1908  0.2282
  571poe    c23 2523   5.516   6.527   3.210  0.0300 -0.0108  0.2736
  571poe    c23 2524   5.552   6.668   3.261 -0.4409  0.2190 -0.0195
  571poe     o2 2525   5.617   6.635   3.382  0.1533  0.2245 -0.3319
  571poe    c23 2526   5.648   6.750   3.459  0.0360  0.0045  0.0443
  571poe    c23 2527   5.715   6.689   3.583  0.3809  0.1003 -0.0954
  571poe     o2 2528   5.660   6.561   3.607  0.5774  0.0130 -0.1021
  571poe    c23 2529   5.587   6.547   3.727  0.0661 -0.0395 -0.4162
  571poe    c23 2530   5.549   6.399   3.740  0.4660 -0.1073 -0.0142
  571poe     o2 2531   5.535   6.343   3.611  0.1712 -0.5754  0.2162
  571poe    c31 2532   5.504   6.206   3.627 -0.0334 -0.5216  0.2841
  572poe    c31 2533   4.881   3.327   5.911  0.0006  0.5844  0.4131
  572poe     o2 2534   4.824   3.424   5.827  0.0931  0.1114 -0.1979
  572poe    c23 2535   4.760   3.529   5.895  0.5216  0.2963 -0.0790
  572poe    c23 2536   4.702   3.631   5.794 -0.2659 -0.2274 -0.1626
  572poe     o2 2537   4.801   3.697   5.719 -0.0117 -0.1732  0.2133
  572poe    c23 2538   4.736   3.752   5.606  0.5613 -0.2353 -0.1464
  572poe    c23 2539   4.818   3.867   5.544  0.2095  0.0367 -0.1022
  572poe     o2 2540   4.843   3.966   5.642 -0.1244 -0.0292  0.0503
  572poe    c23 2541   4.944   4.058   5.608  0.2362 -0.3943  0.1291
  572poe    c23 2542   4.900   4.191   5.672 -0.2458 -0.2684 -0.4523
  572poe     o2 2543   4.855   4.167   5.804  0.2631  0.1258 -0.2048
  572poe    c31 2544   4.848   4.289   5.875 -0.4230  0.0740 -0.1727
  573poe    c31 2545   5.574   0.240   6.701 -0.1533  0.4963  0.1618
  573poe     o2 2546   5.697   0.172   6.695 -0.6265 -0.3583 -0.1321
  573poe    c23 2547   5.757   0.160   6.567 -0.3689 -0.6463  0.0144
  573poe    c23 2548   5.868   0.054   6.572  0.0043 -0.2375  0.6222
  573poe     o2 2549   5.969   0.093   6.662  0.0457  0.1824  0.3967
  573poe    c23 2550   6.052  -0.015   6.701 -0.1994  0.0642  0.5884
  573poe    c23 2551   6.170   0.052   6.773 -0.0041  0.3099  0.0462
  573poe     o2 2552   6.116   0.147   6.862 -0.0695 -0.1677  0.5259
  573poe    c23 2553   6.217   0.189   6.950  0.0415 -0.0885  0.3611
  573poe    c23 2554   6.160   0.297   7.043  0.5120  0.2126  0.3015
  573poe     o2 2555   6.136   0.417   6.973 -0.1295  0.0156  0.1884
  573poe    c31 2556   6.108   0.522   7.063 -0.2106  0.0512  0.1224
  574poe    c31 2557   3.135   1.186   4.390 -0.2072  0.1861 -0.0355
  574poe     o2 2558   3.266   1.233   4.416 -0.1296 -0.2584  0.4000
  574poe    c23 2559   3.327   1.134   4.494  0.2341 -0.1233  0.2890
  574poe    c23 2560   3.447   1.185   4.577  0.0576  0.1776  0.3601
  574poe     o2 2561   3.478   1.306   4.513 -0.3476 -0.2303 -0.6372
  574poe    c23 2562   3.586   1.370   4.577 -0.6370  0.1793 -0.5493
  574poe    c23 2563   3.543   1.517   4.568 -0.0158  0.3821 -0.3056
  574poe     o2 2564   3.492   1.534   4.437 -0.1584  0.6484 -0.2156
  574poe    c23 2565   3.392   1.631   4.417 -0.8042  0.0114 -0.1346
  574poe    c23 2566   3.341   1.605   4.274 -0.0842  0.3477 -0.4576
  574poe     o2 2567   3.301   1.471   4.260 -0.2702  0.3047  0.4008
  574poe    c31 2568   3.249   1.454   4.129  0.4148 -0.2508  0.1955
  575poe    c31 2569   4.864   6.819   6.306 -0.1965 -0.1352 -0.1933
  575poe     o2 2570   4.775   6.926   6.284  0.6210  0.5683 -0.1413
  575poe    c23 2571   4.777   7.014   6.395  0.2682  0.7333 -0.2656
  575poe    c23 2572   4.684   7.131   6.357 -0.0093  0.4415 -0.4942
  575poe     o2 2573   4.547   7.098   6.352  0.1398 -0.2906  0.1223
  575poe    c23 2574   4.478   7.218   6.326 -0.1745 -0.5397 -0.1981
  575poe    c23 2575   4.328   7.197   6.349 -0.1557 -0.4805 -0.0170
  575poe     o2 2576   4.287   7.085   6.273 -0.7319  0.1617 -0.6720
  575poe    c23 2577   4.157   7.039   6.304 -0.3270 -0.6245 -0.1007
  575poe    c23 2578   4.135   6.908   6.225 -0.2775 -0.3374 -0.5960
  575poe     o2 2579   4.261   6.848   6.203  0.0607  0.1784 -0.1082
  575poe    c31 2580   4.249   6.709   6.188 -0.4146  0.2667 -0.5898
  576poe    c31 2581   5.087   1.933   5.221  0.0900 -0.2115  0.3020
  576poe     o2 2582   5.182   2.035   5.200 -0.1428 -0.0729 -0.1020
  576poe    c23 2583   5.301   1.992   5.262 -0.1194 -0.0765 -0.1495
  576poe    c23 2584   5.419   2.076   5.209 -0.4483  0.1274 -0.5665
  576poe     o2 2585   5.453   2.059   5.073 -0.2795 -0.2389 -0.4815
  576poe    c23 2586   5.571   2.127   5.036 -0.3310  0.0191 -0.1744
  576poe    c23 2587   5.620   2.080   4.899  0.0875 -0.7506  0.2354
  576poe     o2 2588   5.523   2.136   4.813  0.7749 -0.0506 -0.0860
  576poe    c23 2589   5.544   2.109   4.676  0.2840 -0.4646 -0.0774
  576poe    c23 2590   5.453   2.199   4.591  0.1211 -0.6464 -0.0979
  576poe     o2 2591   5.325   2.207   4.650  0.1995  0.2908 -0.0282
  576poe    c31 2592   5.230   2.211   4.546  0.3716  0.1429 -0.1930
  577poe    c31 2593   1.563   4.695   1.331  0.3453 -0.0479 -0.0643
  577poe     o2 2594   1.612   4.627   1.217 -0.2913 -0.3200 -0.1793
  577poe    c23 2595   1.548   4.672   1.099 -0.4420  0.1734  0.0847
  577poe    c23 2596   1.619   4.583   0.995 -0.5183  0.5361 -0.2792
  577poe     o2 2597   1.757   4.612   1.001 -0.3323 -0.4073  0.2196
  577poe    c23 2598   1.842   4.544   0.912 -0.0944 -0.4117  0.4492
  577poe    c23 2599   1.987   4.594   0.931 -0.2026 -0.0618  0.3695
  577poe     o2 2600   2.006   4.591   1.071 -0.3737 -0.2674  0.3901
  577poe    c23 2601   2.139   4.623   1.107 -0.1804 -0.4495 -0.1612
  577poe    c23 2602   2.184   4.621   1.254  0.0495 -0.0056 -0.2254
  577poe     o2 2603   2.110   4.722   1.318  0.1978 -0.1238  0.1379
  577poe    c31 2604   2.197   4.777   1.414 -0.0729 -0.0245  0.3249
  578poe    c31 2605   6.393   0.461   5.847  0.4309 -0.5734  0.2937
  578poe     o2 2606   6.334   0.414   5.967  0.4670 -0.2009  0.4600
  578poe    c23 2607   6.203   0.363   5.950  0.5273 -0.2239  0.0452
  578poe    c23 2608   6.156   0.284   6.073 -0.1463  0.2404  0.0904
  578poe     o2 2609   6.172   0.348   6.198 -0.6052  0.3238  0.1097
  578poe    c23 2610   6.151   0.259   6.305 -0.3306  0.1884  0.0517
  578poe    c23 2611   6.160   0.346   6.431 -0.1703  0.6976 -0.3094
  578poe     o2 2612   6.078   0.459   6.408 -0.6110  0.3911 -0.2387
  578poe    c23 2613   6.097   0.553   6.511  0.2060  0.4059 -0.3955
  578poe    c23 2614   6.044   0.689   6.460  0.1175  0.4938 -0.0792
  578poe     o2 2615   6.099   0.693   6.330  0.0808 -0.4235 -0.1344
  578poe    c31 2616   6.087   0.820   6.269  0.6560 -0.3506 -0.0990
  579poe    c31 2617   3.516   2.098   1.825  0.4861  0.2508  0.4404
  579poe     o2 2618   3.636   2.058   1.764 -0.0131 -0.3248 -0.1867
  579poe    c23 2619   3.614   2.059   1.625 -0.1863  0.8493 -0.1538
  579poe    c23 2620   3.753   2.071   1.561 -0.0796  0.0762 -0.0756
  579poe     o2 2621   3.853   1.982   1.603 -0.1800  0.1823  0.3884
  579poe    c23 2622   3.979   2.045   1.604 -0.2495  0.3242  0.0984
  579poe    c23 2623   4.060   1.990   1.723  0.4967  0.2196 -0.4437
  579poe     o2 2624   3.968   1.998   1.830  0.4741 -0.2825 -0.4263
  579poe    c23 2625   4.045   1.956   1.941 -0.2423 -0.1233  0.1398
  579poe    c23 2626   3.963   1.968   2.071 -0.4226  0.1242  0.0041
  579poe     o2 2627   3.839   1.901   2.077 -0.4971  0.2552 -0.0533
  579poe    c31 2628   3.746   1.966   2.161 -0.4406 -0.2012  0.3673
  580poe    c31 2629   1.422   3.663   1.062 -0.0832 -0.0851 -0.5332
  580poe     o2 2630   1.430   3.719   0.933  0.2125  0.3817 -0.3151
  580poe    c23 2631   1.544   3.799   0.912  0.4761 -0.0712 -0.6416
  580poe    c23 2632   1.514   3.879   0.783  0.2691 -0.0792 -0.5997
  580poe     o2 2633   1.463   3.786   0.690 -0.0808 -0.3856 -0.1040
  580poe    c23 2634   1.430   3.857   0.573  0.0906  0.0142  0.0895
  580poe    c23 2635   1.363   3.760   0.474  0.6026 -0.5519  0.2894
  580poe     o2 2636   1.254   3.696   0.538  0.1454  0.0526  0.1224
  580poe    c23 2637   1.187   3.627   0.435  0.3001 -0.7981  0.5910
  580poe    c23 2638   1.069   3.553   0.501 -0.6874 -0.0670 -0.3142
  580poe     o2 2639   1.103   3.467   0.608  0.0747  0.0840 -0.4335
  580poe    c31 2640   1.007   3.373   0.651  0.0287  0.1946 -0.2944
  581poe    c31 2641   2.332   6.090   1.752  0.1169  0.4625 -0.3000
  581poe     o2 2642   2.473   6.086   1.742  0.1010  0.3009 -0.4591
  581poe    c23 2643   2.520   6.138   1.864 -0.2250 -0.0376 -0.1855
  581poe    c23 2644   2.671   6.168   1.854 -0.2020 -0.1178 -0.0728
  581poe     o2 2645   2.746   6.049   1.869  0.0932 -0.0106 -0.6634
  581poe    c23 2646   2.881   6.088   1.857  0.3571 -0.3091  1.0695
  581poe    c23 2647   2.963   5.960   1.833  0.3237 -0.2030  0.3764
  581poe     o2 2648   2.903   5.877   1.736 -0.3089 -0.0828  0.6631
  581poe    c23 2649   2.992   5.776   1.695  0.0854  0.6095 -0.2122
  581poe    c23 2650   2.905   5.674   1.619 -0.3202  0.5800  0.2843
  581poe     o2 2651   2.822   5.742   1.527 -0.2098  0.6539  0.2381
  581poe    c31 2652   2.774   5.637   1.446  0.2539  0.0524  0.7211
  582poe    c31 2653   3.420   0.668   2.106 -0.2718  0.4499 -0.2849
  582poe     o2 2654   3.454   0.799   2.067  0.6761  0.2044 -0.3048
  582poe    c23 2655   3.372   0.861   1.970 -0.3449  0.2293  0.5564
  582poe    c23 2656   3.423   1.004   1.944  0.1640  0.0359  0.4652
  582poe     o2 2657   3.561   1.008   1.973  0.3134 -0.0495 -0.2158
  582poe    c23 2658   3.614   1.131   1.930 -1.1936  0.7961  0.2774
  582poe    c23 2659   3.711   1.189   2.035 -0.0755  0.3222 -0.4848
  582poe     o2 2660   3.827   1.108   2.041  0.0422  0.5606  0.5150
  582poe    c23 2661   3.949   1.174   2.016  0.3887 -0.3203 -0.1419
  582poe    c23 2662   4.060   1.086   2.075  0.1514 -0.2752  0.3807
  582poe     o2 2663   4.027   1.071   2.211  0.2053  0.4968  0.4837
  582poe    c31 2664   4.124   0.999   2.284 -0.1081 -0.5799 -0.1279
  583poe    c31 2665   5.278   5.065   3.383 -0.6775 -0.3155  0.0269
  583poe     o2 2666   5.282   5.205   3.400  0.7873 -0.3282 -0.0886
  583poe    c23 2667   5.150   5.254   3.398  0.7310 -0.4788 -0.0871
  583poe    c23 2668   5.143   5.402   3.439 -0.1415 -0.4651 -0.2677
  583poe     o2 2669   5.271   5.457   3.420 -0.1547 -0.3723 -0.0934
  583poe    c23 2670   5.263   5.596   3.441 -0.3103 -0.3955 -0.0023
  583poe    c23 2671   5.380   5.666   3.369 -0.5094  0.3721  0.4122
  583poe     o2 2672   5.497   5.632   3.440 -0.5397  0.0220  0.2976
  583poe    c23 2673   5.599   5.583   3.355 -0.1286  0.4183  0.5539
  583poe    c23 2674   5.670   5.467   3.428  0.0602  0.1514 -0.0476
  583poe     o2 2675   5.583   5.358   3.450  0.0738  0.0242 -0.6040
  583poe    c31 2676   5.658   5.239   3.440  0.1291  0.0470 -0.4576
  584poe    c31 2677   6.818   5.432   6.868  0.2958  0.4109 -0.2296
  584poe     o2 2678   6.806   5.502   6.990 -1.0063  0.4145 -0.3496
  584poe    c23 2679   6.812   5.641   6.966  0.0811  0.4277 -0.0605
  584poe    c23 2680   6.765   5.709   7.096 -0.0262  0.1184  0.0639
  584poe     o2 2681   6.823   5.636   7.202  0.2174  0.1853 -0.0226
  584poe    c23 2682   6.779   5.676   7.330 -0.1678 -0.1781 -0.0413
  584poe    c23 2683   6.847   5.582   7.431 -0.2007  0.1648  0.3051
  584poe     o2 2684   6.836   5.449   7.383  0.5472  0.1187  0.2386
  584poe    c23 2685   6.887   5.365   7.484  0.7695 -0.2521 -0.1839
  584poe    c23 2686   6.871   5.217   7.443  0.0050 -0.1391 -0.3003
  584poe     o2 2687   6.737   5.189   7.408  0.0938 -0.2160 -0.5799
  584poe    c31 2688   6.732   5.049   7.398  0.2076 -0.2103 -0.7145
  585poe    c31 2689   1.723   4.138   6.453 -0.5560  0.1030 -0.0986
  585poe     o2 2690   1.787   4.027   6.394 -0.0317  0.4763 -0.2424
  585poe    c23 2691   1.698   3.921   6.363  0.8086 -0.1403 -0.5940
  585poe    c23 2692   1.784   3.794   6.379  0.0347 -0.5529  0.3919
  585poe     o2 2693   1.911   3.818   6.323 -0.4633  0.1162 -0.4730
  585poe    c23 2694   1.993   3.706   6.349 -0.2680  0.3191 -0.2231
  585poe    c23 2695   2.130   3.735   6.284 -0.0904 -0.1202 -0.0434
  585poe     o2 2696   2.168   3.862   6.331 -0.3197 -0.0740  0.0187
  585poe    c23 2697   2.305   3.888   6.308 -0.4162  0.1313 -0.3186
  585poe    c23 2698   2.353   4.031   6.341  0.1846 -0.1597  0.0792
  585poe     o2 2699   2.282   4.127   6.265  0.2007 -0.2576 -0.0609
  585poe    c31 2700   2.349   4.250   6.276 -0.1256 -0.0172 -0.6839
  586poe    c31 2701   1.729   0.298   5.471 -0.6102  0.0070 -0.1633
  586poe     o2 2702   1.686   0.171   5.427 -0.7616  0.0965 -0.2757
  586poe    c23 2703   1.546   0.179   5.431 -0.7418  0.5452 -0.4325
  586poe    c23 2704   1.510   0.031   5.448 -0.2258  0.5080  0.3690
  586poe     o2 2705   1.608  -0.045   5.381 -0.1473  0.7299  0.2355
  586poe    c23 2706   1.559  -0.176   5.361  0.5151  0.5157 -0.0053
  586poe    c23 2707   1.634  -0.215   5.233 -0.1384  0.3274 -0.3333
  586poe     o2 2708   1.764  -0.161   5.247 -0.1746  0.2463  0.3167
  586poe    c23 2709   1.813  -0.134   5.118 -0.4522 -0.0160  0.1531
  586poe    c23 2710   1.932  -0.038   5.138 -0.5156  0.2138 -0.5656
  586poe     o2 2711   1.885   0.071   5.215  0.0213  0.1394 -0.1300
  586poe    c31 2712   1.965   0.184   5.189  0.2276  0.0944  0.2937
  587poe    c31 2713   0.401   6.062   2.264  0.4120 -0.0921 -0.3333
  587poe     o2 2714   0.457   6.176   2.324  0.3734 -0.2340 -0.0235
  587poe    c23 2715   0.404   6.165   2.454  0.2991  0.2668 -0.0110
  587poe    c23 2716   0.476   6.270   2.541 -0.1277  0.1043  0.5400
  587poe     o2 2717   0.499   6.387   2.465 -0.2404 -0.2091  0.0206
  587poe    c23 2718   0.572   6.486   2.533 -0.3400  0.0022 -0.1794
  587poe    c23 2719   0.589   6.584   2.415  0.2953 -0.0982 -0.1767
  587poe     o2 2720   0.620   6.496   2.309 -0.0991 -0.1358 -0.2629
  587poe    c23 2721   0.622   6.563   2.185  0.0746  0.5631  0.1108
  587poe    c23 2722   0.633   6.452   2.079 -0.9843  0.2397  0.3265
  587poe     o2 2723   0.559   6.335   2.108 -0.3802 -0.3000 -0.2813
  587poe    c31 2724   0.600   6.229   2.024 -0.4122 -0.9829  0.5534
  588poe    c31 2725   5.271   0.969   5.354 -0.1026 -0.7170 -0.4255
  588poe     o2 2726   5.351   0.865   5.405  0.4660 -0.1897 -0.2290
  588poe    c23 2727   5.319   0.745   5.337 -0.2780 -0.2091  0.1407
  588poe    c23 2728   5.377   0.614   5.394  0.3628  0.0005 -0.0141
  588poe     o2 2729   5.514   0.625   5.425  0.3082  0.2946  0.1262
  588poe    c23 2730   5.538   0.520   5.516 -0.1879  0.3133  0.2814
  588poe    c23 2731   5.657   0.565   5.603 -0.0547  0.4802  0.0124
  588poe     o2 2732   5.748   0.616   5.508  0.2249 -0.8885 -0.4847
  588poe    c23 2733   5.861   0.671   5.572 -0.1693 -0.1338 -0.4334
  588poe    c23 2734   5.965   0.718   5.469  0.0851  0.2045 -0.0255
  588poe     o2 2735   5.885   0.794   5.380  0.0325  0.0309 -0.1256
  588poe    c31 2736   5.959   0.870   5.288 -0.3422  0.4822 -0.0540
  589poe    c31 2737   1.099   6.138   5.116  0.2892  0.2834  0.1555
  589poe     o2 2738   0.977   6.104   5.054  0.5349  0.0693 -0.2102
  589poe    c23 2739   0.871   6.169   5.121  0.1366 -0.0921 -0.6782
  589poe    c23 2740   0.744   6.153   5.035 -0.5006  0.1526  0.2013
  589poe     o2 2741   0.752   6.020   4.990 -0.0444  0.3018 -0.1724
  589poe    c23 2742   0.636   5.977   4.922  0.1613  0.5043 -0.6529
  589poe    c23 2743   0.677   5.835   4.880  0.3481  0.3388  0.0902
  589poe     o2 2744   0.806   5.848   4.824  0.2828 -0.3415 -0.2252
  589poe    c23 2745   0.870   5.724   4.846  0.1595 -0.3386  0.1589
  589poe    c23 2746   1.021   5.738   4.819  0.0674  0.1376 -0.1262
  589poe     o2 2747   1.055   5.856   4.890  0.2133 -0.3092  0.5572
  589poe    c31 2748   1.186   5.887   4.850 -0.2720  0.3766 -0.5647
  590poe    c31 2749   6.533   6.467   4.525  0.1827  0.3540 -0.4300
  590poe     o2 2750   6.665   6.417   4.518  0.1847  0.3053 -0.0395
  590poe    c23 2751   6.656   6.297   4.446  0.1633 -0.1964  0.7828
  590poe    c23 2752   6.775   6.283   4.348 -0.2514  0.4403  0.1789
  590poe     o2 2753   6.883   6.305   4.436  0.1795  0.0286 -0.2418
  590poe    c23 2754   6.995   6.348   4.362  0.4753 -0.2276  0.0585
  590poe    c23 2755   7.092   6.395   4.473  0.1528  0.7021 -0.0472
  590poe     o2 2756   7.013   6.469   4.563  0.0551 -0.2333  0.6556
  590poe    c23 2757   7.081   6.527   4.672 -0.3211  0.2600  0.6348
  590poe    c23 2758   6.987   6.632   4.732 -0.4311  0.4875  0.0677
  590poe     o2 2759   6.860   6.572   4.729 -0.1376 -0.1391  0.1202
  590poe    c31 2760   6.769   6.629   4.820 -0.2755 -0.6997  0.3376
  591poe    c31 2761   5.715   3.302   6.550 -0.1429 -0.4287 -0.1061
  591poe     o2 2762   5.854   3.324   6.548 -0.1886 -0.0864  0.2979
  591poe    c23 2763   5.941   3.218   6.514 -0.3665  0.0545 -0.6252
  591poe    c23 2764   6.081   3.278   6.498 -0.2187 -0.0442  0.2415
  591poe     o2 2765   6.080   3.385   6.590  0.4540 -0.4532  0.7395
  591poe    c23 2766   6.192   3.469   6.583  0.0717  0.0198  0.1728
  591poe    c23 2767   6.169   3.565   6.701 -0.3047  0.2914 -0.1181
  591poe     o2 2768   6.035   3.607   6.715 -0.3425 -0.0846  0.7229
  591poe    c23 2769   6.017   3.719   6.797  0.3581  0.6334 -0.0786
  591poe    c23 2770   5.872   3.771   6.804  0.1185 -0.0035 -0.2953
  591poe     o2 2771   5.778   3.672   6.840 -0.0574  0.3182  0.1488
  591poe    c31 2772   5.646   3.721   6.851 -0.3232 -0.4111  0.2687
  592poe    c31 2773   5.066   2.436   5.974 -0.1521  0.0283  0.3412
  592poe     o2 2774   5.080   2.446   5.834  0.0526  0.0498  0.3627
  592poe    c23 2775   5.216   2.447   5.796 -0.0419 -0.1149  0.0210
  592poe    c23 2776   5.237   2.486   5.648 -0.4628 -0.0262 -0.0175
  592poe     o2 2777   5.175   2.402   5.552 -0.1714 -0.1382 -0.1084
  592poe    c23 2778   5.237   2.422   5.427  0.7458 -0.5937  0.2587
  592poe    c23 2779   5.151   2.348   5.322 -0.2151  0.5919  0.1794
  592poe     o2 2780   5.017   2.369   5.360 -0.4024 -0.2587  0.0081
  592poe    c23 2781   4.929   2.350   5.251 -0.1042  0.0094 -0.2847
  592poe    c23 2782   4.796   2.417   5.291  0.4094  0.7916  0.1409
  592poe     o2 2783   4.755   2.355   5.411  0.3565  0.1291 -0.2125
  592poe    c31 2784   4.618   2.358   5.445  0.4207  0.4870  0.0224
  593poe    c31 2785   3.186   4.663   6.380  0.4018  0.2887  0.3582
  593poe     o2 2786   3.253   4.543   6.412 -0.9251 -0.5379  0.1258
  593poe    c23 2787   3.278   4.461   6.299 -0.3462 -0.3045  0.0806
  593poe    c23 2788   3.353   4.335   6.345  0.0148 -0.2767 -0.4285
  593poe     o2 2789   3.465   4.362   6.426  0.0389 -0.8837 -0.2501
  593poe    c23 2790   3.540   4.247   6.457 -0.0566 -0.7811  0.3959
  593poe    c23 2791   3.659   4.273   6.552  0.2265  0.4663 -0.2767
  593poe     o2 2792   3.600   4.342   6.659  0.1510 -0.3417  0.2111
  593poe    c23 2793   3.697   4.375   6.756  0.1229 -0.6748  0.3529
  593poe    c23 2794   3.660   4.495   6.844 -0.1050 -0.2689 -0.2887
  593poe     o2 2795   3.520   4.493   6.865  0.0048 -0.6800  0.4626
  593poe    c31 2796   3.485   4.500   7.001  1.4231 -0.1394  0.8222
  594poe    c31 2797   6.145   1.429   0.007  0.0221  0.0275  0.1275
  594poe     o2 2798   6.126   1.525   0.108  0.1601  0.0422  0.1395
  594poe    c23 2799   6.212   1.635   0.088  0.4901 -0.1936  0.2581
  594poe    c23 2800   6.202   1.724   0.214 -0.2880  0.0848  0.0041
  594poe     o2 2801   6.072   1.751   0.261 -0.3078 -0.0727  0.0397
  594poe    c23 2802   6.084   1.832   0.376 -0.7323 -0.0325  0.0576
  594poe    c23 2803   5.948   1.848   0.446 -0.5734  0.3949  0.2701
  594poe     o2 2804   5.848   1.844   0.347 -0.3222  0.3133  0.0200
  594poe    c23 2805   5.715   1.840   0.394 -0.0687 -0.5230  0.6870
  594poe    c23 2806   5.639   1.815   0.262  0.3039  0.0543  0.3549
  594poe     o2 2807   5.708   1.717   0.188  0.3589  0.3234  0.0521
  594poe    c31 2808   5.621   1.672   0.086  0.4552 -0.0760  0.1467
  595poe    c31 2809   6.575   5.004   3.006  0.2428 -0.5178  0.3824
  595poe     o2 2810   6.610   4.973   3.139  0.2702 -0.3390  0.4172
  595poe    c23 2811   6.696   5.071   3.194 -0.3812  0.1359  0.6048
  595poe    c23 2812   6.750   5.022   3.330 -0.1062 -0.0181  0.4404
  595poe     o2 2813   6.633   4.999   3.406 -0.5973  0.3357 -0.1927
  595poe    c23 2814   6.649   4.921   3.523 -0.3032 -0.0511 -0.4874
  595poe    c23 2815   6.666   4.771   3.495 -0.2304 -0.2101  0.3853
  595poe     o2 2816   6.561   4.717   3.417  0.2781 -0.0756 -0.4086
  595poe    c23 2817   6.607   4.596   3.362  0.4551  0.1387 -0.7286
  595poe    c23 2818   6.522   4.563   3.238 -0.3222 -0.3867 -0.0566
  595poe     o2 2819   6.392   4.582   3.289 -0.2948  0.4069 -0.2705
  595poe    c31 2820   6.292   4.543   3.198 -0.2932  0.1455 -0.1614
  596poe    c31 2821   1.104   3.663   3.420  0.1572  0.4360 -0.5477
  596poe     o2 2822   1.187   3.604   3.323  0.3058  0.1391 -0.2425
  596poe    c23 2823   1.280   3.696   3.271  0.3163 -0.0210 -0.5068
  596poe    c23 2824   1.369   3.626   3.166 -0.0154 -0.7538 -0.3064
  596poe     o2 2825   1.298   3.571   3.058 -0.2208 -0.2987 -0.4063
  596poe    c23 2826   1.261   3.669   2.964  0.1459  0.1062 -0.1329
  596poe    c23 2827   1.234   3.593   2.832  0.0848 -0.3021  0.1125
  596poe     o2 2828   1.166   3.474   2.863 -0.0588 -0.3891 -0.5426
  596poe    c23 2829   1.106   3.415   2.749  0.2916 -0.8856 -0.4756
  596poe    c23 2830   1.004   3.309   2.794  0.0720 -0.2865  0.4842
  596poe     o2 2831   1.094   3.205   2.829  0.5798  0.1191  0.3946
  596poe    c31 2832   1.027   3.086   2.861 -0.5027  0.5576 -0.1727
  597poe    c31 2833   3.492   5.369   3.972 -0.4597 -0.2731  0.3062
  597poe     o2 2834   3.517   5.270   3.875 -0.0212 -0.1120  0.2545
  597poe    c23 2835   3.524   5.331   3.748 -1.0337 -0.2239  0.1366
  597poe    c23 2836   3.510   5.239   3.625 -0.2397 -0.3863  0.1639
  597poe     o2 2837   3.574   5.121   3.671  0.1601 -0.2570 -0.0577
  597poe    c23 2838   3.546   4.995   3.614 -0.8593  0.0905 -0.3516
  597poe    c23 2839   3.564   4.889   3.724 -0.4697  0.3905 -0.1217
  597poe     o2 2840   3.536   4.957   3.844 -0.2874 -0.1812  0.2464
  597poe    c23 2841   3.528   4.866   3.951 -0.1916 -0.6121 -0.1107
  597poe    c23 2842   3.499   4.947   4.079  0.0120 -0.0709 -0.4054
  597poe     o2 2843   3.584   5.059   4.072 -0.0201 -0.0567 -0.5517
  597poe    c31 2844   3.599   5.117   4.200  0.8269  0.0154 -0.6754
  598poe    c31 2845   4.274   2.719   0.180  0.0005  0.5919  0.1291
  598poe     o2 2846   4.208   2.646   0.079 -0.1082  0.3771  0.3528
  598poe    c23 2847   4.104   2.726   0.028 -0.6225 -0.3230  0.2928
  598poe    c23 2848   4.046   2.631  -0.079 -0.1613 -0.0333 -0.2180
  598poe     o2 2849   4.037   2.500  -0.030 -0.2083 -0.0641 -0.3097
  598poe    c23 2850   3.979   2.415  -0.127 -1.2890  0.0545  0.2111
  598poe    c23 2851   3.986   2.272  -0.072 -0.6639 -0.0661 -0.1756
  598poe     o2 2852   4.116   2.245  -0.024 -0.5796 -0.3341 -0.5455
  598poe    c23 2853   4.108   2.190   0.105  0.2148 -0.4663 -0.5464
  598poe    c23 2854   4.248   2.198   0.169 -0.0724  0.3546  0.0058
  598poe     o2 2855   4.280   2.334   0.151  0.5126  0.2427  0.1658
  598poe    c31 2856   4.368   2.377   0.253  0.6032  0.6666 -0.0909
  599poe    c31 2857   3.492   2.939   2.334  0.0380  0.3531 -0.3735
  599poe     o2 2858   3.616   2.985   2.381  0.0980 -0.1611 -0.0232
  599poe    c23 2859   3.603   3.113   2.439  0.1411 -0.2963  0.2883
  599poe    c23 2860   3.740   3.162   2.488  0.0448  0.2588  0.0058
  599poe     o2 2861   3.824   3.125   2.381  0.2251 -0.3962  0.3706
  599poe    c23 2862   3.960   3.128   2.417  0.1370 -0.2142  0.6899
  599poe    c23 2863   4.030   3.047   2.306 -0.4990 -0.4599  0.4664
  599poe     o2 2864   3.952   2.929   2.301 -0.2081 -0.6332 -0.0890
  599poe    c23 2865   4.016   2.834   2.221  0.1693  0.1253 -0.7029
  599poe    c23 2866   3.911   2.722   2.216  0.1083  0.1467  0.0696
  599poe     o2 2867   3.778   2.768   2.220  0.0448 -0.0564  0.3537
  599poe    c31 2868   3.689   2.669   2.174 -0.1039 -0.1543  0.8408
  600poe    c31 2869   6.725   4.675   0.985 -0.2410 -0.4310 -0.3892
  600poe     o2 2870   6.830   4.658   1.078 -0.3664  0.0608 -0.1536
  600poe    c23 2871   6.845   4.521   1.108  0.5128  0.1441 -0.2057
  600poe    c23 2872   6.986   4.496   1.164  0.5338 -0.2359 -0.4286
  600poe     o2 2873   7.000   4.611   1.243 -0.0011 -0.4238 -0.0602
  600poe    c23 2874   7.095   4.601   1.346 -0.2031  0.1845  0.1955
  600poe    c23 2875   7.128   4.748   1.378  0.3234  0.1443 -0.1397
  600poe     o2 2876   7.019   4.837   1.365  0.0123 -0.1575  0.3299
  600poe    c23 2877   7.038   4.945   1.454  0.0531  0.2009 -0.1051
  600poe    c23 2878   6.962   5.077   1.430  0.3012  0.2624 -0.5569
  600poe     o2 2879   6.823   5.063   1.446  0.2735 -0.1620 -1.1332
  600poe    c31 2880   6.765   5.187   1.410  0.1920 -0.0649 -0.6718
  601poe    c31 2881   5.430   0.488   4.214  0.0550 -0.1780  0.4589
  601poe     o2 2882   5.484   0.442   4.093 -0.4460 -0.4814  0.3495
  601poe    c23 2883   5.534   0.558   4.031 -0.4191 -0.5673  0.2080
  601poe    c23 2884   5.614   0.524   3.904 -0.4691  0.1371 -0.0183
  601poe     o2 2885   5.542   0.434   3.823 -0.0482  0.0968 -0.3524
  601poe    c23 2886   5.620   0.387   3.715  0.0339 -0.1641 -0.1795
  601poe    c23 2887   5.535   0.264   3.678  0.4567 -0.4874 -0.0831
  601poe     o2 2888   5.495   0.205   3.800 -0.3068  0.0978 -0.0399
  601poe    c23 2889   5.422   0.084   3.797  0.2625 -0.2602  0.2251
  601poe    c23 2890   5.398   0.047   3.944  0.8006  0.0888  0.4034
  601poe     o2 2891   5.353   0.166   4.005  0.4229  0.0864  0.1360
  601poe    c31 2892   5.272   0.124   4.113  0.1887  0.0183 -0.0657
  602poe    c31 2893   2.842   0.810   1.608 -0.2538 -0.4251  0.5565
  602poe     o2 2894   2.872   0.937   1.663 -0.1504 -0.1347 -0.1519
  602poe    c23 2895   2.925   1.034   1.576 -0.4026  0.1633  0.0225
  602poe    c23 2896   2.994   1.142   1.660  0.2011 -0.7115  0.6686
  602poe     o2 2897   2.883   1.166   1.743  0.3563 -0.3071  0.7620
  602poe    c23 2898   2.880   1.291   1.809 -0.6591  0.4476 -0.6414
  602poe    c23 2899   2.761   1.281   1.905 -0.0959 -0.1625  0.0093
  602poe     o2 2900   2.744   1.149   1.952 -0.2456 -0.0143  0.3762
  602poe    c23 2901   2.825   1.111   2.062 -0.0551 -0.0661  0.2192
  602poe    c23 2902   2.825   0.959   2.080  0.2328 -0.0688  0.1969
  602poe     o2 2903   2.838   0.890   1.957  0.1804 -0.2696  0.3024
  602poe    c31 2904   2.812   0.752   1.968  0.1096 -0.3048 -0.2927
  603poe    c31 2905   3.295   2.184   5.357 -0.0894  0.3593  0.3362
  603poe     o2 2906   3.288   2.324   5.370 -0.7664  0.3755 -0.1647
  603poe    c23 2907   3.257   2.343   5.506 -0.1689 -0.1872  0.0549
  603poe    c23 2908   3.267   2.494   5.534 -0.3254 -0.1904  0.1366
  603poe     o2 2909   3.370   2.543   5.450 -0.0553 -0.0511  0.5466
  603poe    c23 2910   3.404   2.676   5.480  0.6416 -0.0833 -0.0748
  603poe    c23 2911   3.467   2.744   5.357 -0.6685  0.6545 -0.3553
  603poe     o2 2912   3.376   2.700   5.258  0.0795 -0.4122 -0.5918
  603poe    c23 2913   3.421   2.708   5.125  0.9857  0.5660 -0.2487
  603poe    c23 2914   3.469   2.572   5.069 -0.2586  0.2263 -0.5326
  603poe     o2 2915   3.394   2.461   5.112 -0.0032  0.1428 -0.2996
  603poe    c31 2916   3.448   2.346   5.052 -0.3169  0.0630 -0.4299
  604poe    c31 2917   1.393   5.485   4.567 -0.1536 -0.0517 -0.4113
  604poe     o2 2918   1.468   5.376   4.615 -0.1334 -0.0458 -0.4286
  604poe    c23 2919   1.594   5.362   4.553 -0.1496 -0.3064 -0.4028
  604poe    c23 2920   1.667   5.257   4.639 -0.0748  0.1394  0.0813
  604poe     o2 2921   1.580   5.150   4.664 -0.0372  0.2011  0.4855
  604poe    c23 2922   1.636   5.037   4.728 -0.5324 -0.4833 -0.2678
  604poe    c23 2923   1.536   4.920   4.719 -0.5935 -0.4116 -0.5130
  604poe     o2 2924   1.403   4.967   4.728 -0.3778  0.0788  0.1902
  604poe    c23 2925   1.311   4.899   4.645 -0.5429  0.1877  0.2833
  604poe    c23 2926   1.310   4.958   4.503  0.2161 -0.3049  0.0662
  604poe     o2 2927   1.318   5.098   4.522 -0.2411 -0.2680 -0.0122
  604poe    c31 2928   1.269   5.163   4.407 -0.5496  0.0761  0.3105
  605poe    c31 2929   2.051   0.456   2.975 -0.3455  0.2843  0.2339
  605poe     o2 2930   2.047   0.440   3.115 -0.0545  0.0672  0.2190
  605poe    c23 2931   2.169   0.392   3.166  0.4620  0.7997 -0.3098
  605poe    c23 2932   2.174   0.428   3.316  0.0211 -0.2219 -0.0398
  605poe     o2 2933   2.060   0.379   3.383 -0.1259  0.0575 -0.0841
  605poe    c23 2934   2.060   0.412   3.520  0.4272 -0.2422 -0.0081
  605poe    c23 2935   1.948   0.322   3.574  0.2653 -0.0189  0.0308
  605poe     o2 2936   1.827   0.345   3.505  0.2210 -0.2066  0.0460
  605poe    c23 2937   1.713   0.289   3.566  0.2106 -0.2095  0.0238
  605poe    c23 2938   1.598   0.315   3.466  0.0368  0.0327  0.2838
  605poe     o2 2939   1.599   0.233   3.352  0.3571  0.0253  0.2905
  605poe    c31 2940   1.472   0.253   3.295  0.4871  0.3593  0.1171
  606poe    c31 2941   1.512   5.263   6.849  0.1665  0.4817  0.5192
  606poe     o2 2942   1.402   5.350   6.836 -0.1359  0.0616  0.2379
  606poe    c23 2943   1.365   5.346   6.700 -0.4361 -0.2523  0.3280
  606poe    c23 2944   1.256   5.451   6.674 -0.0846 -0.1185 -0.6313
  606poe     o2 2945   1.301   5.572   6.731 -0.0628 -0.5001  0.1746
  606poe    c23 2946   1.199   5.669   6.719  0.0868 -0.3160  0.3678
  606poe    c23 2947   1.210   5.756   6.846  0.2476 -0.1823  0.2625
  606poe     o2 2948   1.250   5.675   6.954  0.5180  0.0073  0.3025
  606poe    c23 2949   1.161   5.655   7.061 -0.0077 -0.5331 -0.2271
  606poe    c23 2950   1.256   5.571   7.149  0.2783 -0.1382 -0.1522
  606poe     o2 2951   1.340   5.482   7.080  0.0061 -0.4588 -0.0749
  606poe    c31 2952   1.394   5.380   7.161 -0.2811 -1.1084 -0.6894
  607poe    c31 2953   3.711   5.877   0.395 -0.2669 -0.1300  0.7735
  607poe     o2 2954   3.667   6.010   0.412  0.2710  0.1395  0.1031
  607poe    c23 2955   3.614   6.057   0.290 -0.2306 -0.0842  0.2326
  607poe    c23 2956   3.509   6.159   0.339 -0.6904 -0.6803  0.4989
  607poe     o2 2957   3.534   6.199   0.472 -0.0612  0.4287  0.0555
  607poe    c23 2958   3.441   6.285   0.533 -0.3238  0.2468 -0.0867
  607poe    c23 2959   3.523   6.356   0.642  0.1913 -0.2490 -0.1463
  607poe     o2 2960   3.574   6.256   0.728  0.8777 -0.1653 -0.4503
  607poe    c23 2961   3.687   6.280   0.808  0.1122 -0.0899  0.6350
  607poe    c23 2962   3.819   6.284   0.728 -0.5341  0.4567 -0.4359
  607poe     o2 2963   3.808   6.188   0.627  0.1054 -0.1846  0.0889
  607poe    c31 2964   3.942   6.156   0.597  0.1683  0.2923 -0.1496
  608poe    c31 2965   0.200   5.830   6.679 -0.3343 -0.4611 -0.0606
  608poe     o2 2966   0.293   5.742   6.739  0.1976  0.1438  0.0106
  608poe    c23 2967   0.339   5.649   6.643  0.1478  0.2636 -0.1318
  608poe    c23 2968   0.466   5.571   6.684 -0.0495 -0.2778 -0.5470
  608poe     o2 2969   0.578   5.653   6.706 -0.3489 -0.1328  0.4729
  608poe    c23 2970   0.692   5.587   6.758  0.1891  0.4151 -0.0005
  608poe    c23 2971   0.807   5.689   6.756  0.3765  0.2017 -0.8853
  608poe     o2 2972   0.757   5.805   6.819  0.2867 -0.2738 -0.0528
  608poe    c23 2973   0.843   5.915   6.841 -0.4559  0.2338  0.3276
  608poe    c23 2974   0.778   6.021   6.933 -0.8613 -0.4974  0.8953
  608poe     o2 2975   0.649   6.048   6.882 -0.3478  0.3799  0.0134
  608poe    c31 2976   0.620   6.179   6.925  0.1941  0.5777 -0.2161
  609poe    c31 2977   6.802   0.681   2.598  0.1313 -0.1425  0.2530
  609poe     o2 2978   6.773   0.578   2.505  0.4825 -0.1701  0.1735
  609poe    c23 2979   6.760   0.642   2.380 -0.8409 -0.0072  0.3830
  609poe    c23 2980   6.723   0.537   2.273 -0.0014 -0.0738  0.1542
  609poe     o2 2981   6.773   0.411   2.314  0.1567 -0.1426 -0.2515
  609poe    c23 2982   6.735   0.305   2.228 -0.6697 -0.2034  0.1795
  609poe    c23 2983   6.823   0.185   2.267  0.3479  0.3671 -0.2997
  609poe     o2 2984   6.802   0.195   2.406  0.3077  0.0737 -0.2837
  609poe    c23 2985   6.915   0.143   2.472  0.1111 -0.0843 -0.0672
  609poe    c23 2986   6.900   0.176   2.622 -0.1234 -0.0208 -0.1044
  609poe     o2 2987   6.848   0.307   2.619  0.2507  0.1409  0.3456
  609poe    c31 2988   6.844   0.353   2.752 -0.2187  0.2450  0.2965
  610poe    c31 2989   5.932   5.128   2.410  0.3246  0.3910 -0.4784
  610poe     o2 2990   5.949   5.266   2.436  0.5059  0.3437 -0.3495
  610poe    c23 2991   5.958   5.286   2.576 -0.0133  0.1916 -0.2946
  610poe    c23 2992   5.946   5.435   2.613  0.2943  0.1612 -0.0768
  610poe     o2 2993   5.823   5.489   2.571 -0.1666 -0.5649  0.3208
  610poe    c23 2994   5.801   5.605   2.648 -0.1003 -0.4284  0.1332
  610poe    c23 2995   5.653   5.643   2.631  0.0157 -0.1307 -0.2346
  610poe     o2 2996   5.621   5.588   2.505 -0.4065 -0.4051 -0.0081
  610poe    c23 2997   5.485   5.626   2.500 -0.0585  0.8587 -0.2481
  610poe    c23 2998   5.415   5.592   2.367 -0.0946 -0.1702  0.0238
  610poe     o2 2999   5.405   5.455   2.336  0.3657 -0.0197 -0.8002
  610poe    c31 3000   5.349   5.440   2.208  0.0880  0.1837 -0.7016
  611poe    c31 3001   3.243   0.996   3.230  0.3280  0.5313  0.0177
  611poe     o2 3002   3.336   0.893   3.254 -0.2497  0.0352  0.1549
  611poe    c23 3003   3.417   0.865   3.142  0.0010  0.1546  0.3064
  611poe    c23 3004   3.517   0.761   3.194 -0.3127 -0.1632  0.2729
  611poe     o2 3005   3.445   0.691   3.293 -0.2696 -0.2473  0.2451
  611poe    c23 3006   3.522   0.577   3.323 -0.0344 -0.2656 -0.4114
  611poe    c23 3007   3.411   0.493   3.388 -0.0825 -0.0339 -0.1957
  611poe     o2 3008   3.361   0.574   3.492  0.1031 -0.4689  0.2362
  611poe    c23 3009   3.279   0.497   3.576 -0.9982  0.4077 -0.0106
  611poe    c23 3010   3.254   0.539   3.723 -0.1846 -0.2626  0.3269
  611poe     o2 3011   3.186   0.661   3.739 -0.3560 -0.2634 -0.3351
  611poe    c31 3012   3.147   0.682   3.873 -0.2615 -0.6812 -0.2407
  612poe    c31 3013   4.408   2.161   4.533 -0.1552  0.0856 -0.9330
  612poe     o2 3014   4.270   2.147   4.507 -0.3255 -0.3811  0.1504
  612poe    c23 3015   4.251   2.031   4.430  0.3297 -0.1390 -0.3916
  612poe    c23 3016   4.106   2.032   4.377  0.0603  0.0441  0.3413
  612poe     o2 3017   4.082   2.126   4.275 -0.5345 -0.4976 -0.0247
  612poe    c23 3018   4.113   2.081   4.145 -0.6102 -0.1249 -0.1735
  612poe    c23 3019   4.136   2.180   4.029  0.5319 -0.1372  0.0338
  612poe     o2 3020   4.014   2.246   4.004  0.4073 -0.3603  0.0436
  612poe    c23 3021   4.023   2.336   3.896 -0.0743  0.1778  0.4488
  612poe    c23 3022   3.931   2.457   3.925 -0.0477  0.5023 -0.7614
  612poe     o2 3023   3.803   2.417   3.970  0.2160  0.2404 -0.2386
  612poe    c31 3024   3.703   2.515   3.958  0.0351  0.0059 -0.6480
  613poe    c31 3025   4.922   3.915   4.961 -0.5164 -0.3236 -0.4210
  613poe     o2 3026   4.825   4.015   4.986  0.1608  0.2104  0.0890
  613poe    c23 3027   4.860   4.068   5.112 -0.0447 -0.1482  0.2974
  613poe    c23 3028   4.739   4.148   5.163 -0.4333 -0.4527 -0.1405
  613poe     o2 3029   4.715   4.257   5.077  0.3103 -0.0102  0.2061
  613poe    c23 3030   4.610   4.340   5.122  0.3349  0.0234  0.2005
  613poe    c23 3031   4.653   4.439   5.232  0.4244  0.2152 -0.0050
  613poe     o2 3032   4.749   4.531   5.186  0.6225 -0.0142 -0.0498
  613poe    c23 3033   4.815   4.596   5.293  0.0444  0.3175  0.1123
  613poe    c23 3034   4.892   4.714   5.231  0.9147  0.0204  0.6121
  613poe     o2 3035   4.972   4.674   5.122 -0.0136  0.0015 -0.0707
  613poe    c31 3036   5.044   4.787   5.079 -0.1527  0.1715  0.1452
  614poe    c31 3037   5.102   2.820   0.911  0.1501 -0.0915 -0.1646
  614poe     o2 3038   5.222   2.764   0.863  0.2789 -0.1752  0.2521
  614poe    c23 3039   5.187   2.708   0.738  0.4380 -0.3043  0.2655
  614poe    c23 3040   5.299   2.621   0.677 -0.1160 -0.4325 -0.5886
  614poe     o2 3041   5.422   2.675   0.720 -0.1596 -0.4605 -0.4284
  614poe    c23 3042   5.532   2.615   0.656  0.2556 -0.1128 -0.0530
  614poe    c23 3043   5.649   2.709   0.688  0.2706 -0.1000 -0.1432
  614poe     o2 3044   5.651   2.731   0.827  0.3008 -0.1002 -0.1435
  614poe    c23 3045   5.689   2.864   0.855 -0.0546 -0.0204 -0.0320
  614poe    c23 3046   5.589   2.956   0.928  0.1823  0.6174 -0.4985
  614poe     o2 3047   5.450   2.941   0.911  0.1870  0.3575 -0.3074
  614poe    c31 3048   5.382   3.052   0.965 -0.2027  0.2799 -0.6319
  615poe    c31 3049   6.486   3.407   2.670  0.0955 -0.1518 -0.4140
  615poe     o2 3050   6.475   3.544   2.701 -0.2908 -0.2734 -0.0030
  615poe    c23 3051   6.552   3.575   2.816  0.1215  0.2516 -0.4166
  615poe    c23 3052   6.544   3.729   2.825 -0.2542  0.2105 -0.0137
  615poe     o2 3053   6.593   3.788   2.707  0.8558 -0.3460  0.1507
  615poe    c23 3054   6.581   3.929   2.703 -0.3523 -0.4532 -0.2142
  615poe    c23 3055   6.631   3.960   2.560  0.1099  0.0193  0.0494
  615poe     o2 3056   6.542   3.883   2.483 -0.1185 -0.0351  0.3670
  615poe    c23 3057   6.479   3.960   2.384 -0.3100 -0.4505  0.1631
  615poe    c23 3058   6.528   3.955   2.238 -0.0111 -0.4709  0.2631
  615poe     o2 3059   6.657   4.010   2.252 -0.0954 -0.2233  0.0985
  615poe    c31 3060   6.689   4.084   2.137 -0.5383  0.0585  0.1546
  616poe    c31 3061   6.371   0.365   4.861 -0.2719  0.1501 -0.1572
  616poe     o2 3062   6.253   0.317   4.801 -0.3108 -0.4266  0.3668
  616poe    c23 3063   6.137   0.383   4.844 -0.2976 -0.2749  0.1728
  616poe    c23 3064   6.013   0.325   4.773 -0.2036 -0.3521  0.0720
  616poe     o2 3065   6.053   0.240   4.668 -0.1327 -0.1653 -0.0524
  616poe    c23 3066   5.950   0.176   4.596 -0.2655  0.1571 -0.1538
  616poe    c23 3067   6.015   0.069   4.506  0.0087  0.4946 -0.3591
  616poe     o2 3068   6.138   0.106   4.449  0.5054  0.0719  0.4197
  616poe    c23 3069   6.182  -0.005   4.373 -0.0114  0.2850 -0.2007
  616poe    c23 3070   6.332  -0.001   4.339  0.0365 -0.0292 -0.0300
  616poe     o2 3071   6.371   0.088   4.237 -0.3755  0.0716 -0.1011
  616poe    c31 3072   6.505   0.047   4.221 -0.4168 -0.0174 -0.2155
  617poe    c31 3073   3.588   1.451   3.738 -0.4557 -0.2319 -0.2423
  617poe     o2 3074   3.587   1.592   3.736  0.1672 -0.2169  0.1947
  617poe    c23 3075   3.464   1.650   3.774  0.2744  0.3466 -0.2951
  617poe    c23 3076   3.446   1.798   3.737  0.3222  0.2128 -0.8645
  617poe     o2 3077   3.477   1.816   3.601  0.1771 -0.1140 -0.9409
  617poe    c23 3078   3.395   1.919   3.553 -0.6165 -0.4251 -0.2745
  617poe    c23 3079   3.420   1.924   3.401  0.4627  0.2508 -0.0885
  617poe     o2 3080   3.558   1.922   3.374  0.5186  0.2488  0.1916
  617poe    c23 3081   3.587   1.939   3.237 -0.0597  0.1039  0.0482
  617poe    c23 3082   3.733   1.908   3.200 -0.0546  0.1851 -0.0005
  617poe     o2 3083   3.767   1.797   3.280 -0.2308  0.3490  0.3015
  617poe    c31 3084   3.890   1.741   3.240  0.0484  1.0465  0.1569
  618poe    c31 3085   4.240   5.004   2.672  0.4388 -0.2075 -0.0826
  618poe     o2 3086   4.156   4.930   2.585  0.1392  0.3914 -0.3073
  618poe    c23 3087   4.020   4.966   2.587  0.0490  0.0301  0.4465
  618poe    c23 3088   3.930   4.847   2.546  0.1864  0.0696  0.0222
  618poe     o2 3089   3.995   4.802   2.430 -0.5922 -0.1070 -0.3516
  618poe    c23 3090   3.944   4.673   2.401 -0.3101 -0.2529 -0.2083
  618poe    c23 3091   4.040   4.587   2.317  0.1805  0.0812  0.0043
  618poe     o2 3092   4.161   4.629   2.377  0.4819  0.0553 -0.5797
  618poe    c23 3093   4.283   4.586   2.323  0.5370 -0.1202 -0.3183
  618poe    c23 3094   4.400   4.650   2.400  0.2820  0.0232 -0.0504
  618poe     o2 3095   4.367   4.780   2.445 -0.3402 -0.1888  0.1132
  618poe    c31 3096   4.479   4.842   2.504 -0.2727 -0.3209  0.1243
  619poe    c31 3097   2.094   3.035   3.994  0.0039  0.3119 -0.4549
  619poe     o2 3098   2.194   3.022   3.896  0.7341  0.2076  0.2947
  619poe    c23 3099   2.209   3.141   3.823  0.0805  0.3432  0.3776
  619poe    c23 3100   2.335   3.140   3.734  0.1527  0.4498  0.4787
  619poe     o2 3101   2.444   3.099   3.814  0.5645  0.3043 -0.1552
  619poe    c23 3102   2.554   3.044   3.744  0.4533  0.0221 -0.1079
  619poe    c23 3103   2.620   2.949   3.846  0.6571 -0.0952 -0.3487
  619poe     o2 3104   2.520   2.865   3.900  0.6819  0.0128 -0.1371
  619poe    c23 3105   2.553   2.781   4.009  0.1816 -0.2751 -0.2053
  619poe    c23 3106   2.435   2.692   4.049  0.2176 -0.2190  0.0300
  619poe     o2 3107   2.325   2.780   4.041  0.3988  0.0061  0.0201
  619poe    c31 3108   2.208   2.707   4.070  0.1550  0.5271  0.3748
  620poe    c31 3109   1.973   4.430   1.623  0.5135 -0.6432 -0.0917
  620poe     o2 3110   1.934   4.295   1.609 -0.0700 -0.5007  0.1542
  620poe    c23 3111   1.803   4.266   1.653 -0.4225  0.1707 -0.4226
  620poe    c23 3112   1.760   4.127   1.602 -0.1139 -0.0744 -0.0166
  620poe     o2 3113   1.815   4.023   1.680 -0.2994  0.2592  0.5621
  620poe    c23 3114   1.780   3.890   1.649  0.6522  0.2818 -0.6589
  620poe    c23 3115   1.850   3.788   1.741 -0.1561  0.0061 -0.3369
  620poe     o2 3116   1.991   3.793   1.741 -0.1452 -0.1844  0.3567
  620poe    c23 3117   2.064   3.736   1.847  0.2636 -0.1186  0.1126
  620poe    c23 3118   2.201   3.706   1.782  0.2240  0.2283 -0.1362
  620poe     o2 3119   2.238   3.825   1.717  0.4478  0.1199 -0.2078
  620poe    c31 3120   2.374   3.821   1.679  0.2925  0.0701 -0.7688
  621poe    c31 3121   0.354   4.608   2.218 -0.0140  0.1996  0.9230
  621poe     o2 3122   0.330   4.746   2.237  0.1652  0.3830 -0.1218
  621poe    c23 3123   0.317   4.813   2.113 -0.1747  0.4106 -0.0704
  621poe    c23 3124   0.338   4.961   2.147  0.8434  0.2090  0.2019
  621poe     o2 3125   0.218   5.005   2.207  0.9002  0.1856  0.3344
  621poe    c23 3126   0.191   5.140   2.178  0.3086 -0.0700 -0.3476
  621poe    c23 3127   0.063   5.172   2.257  0.3094 -0.4498 -0.1889
  621poe     o2 3128   0.066   5.126   2.390 -0.9661  0.3088  0.1171
  621poe    c23 3129  -0.030   5.188   2.473 -0.6985  0.3309  0.4109
  621poe    c23 3130  -0.049   5.096   2.595  0.4897  0.1687  0.4884
  621poe     o2 3131  -0.033   4.963   2.551 -0.2718  0.3071 -0.2287
  621poe    c31 3132  -0.093   4.873   2.641 -0.1486  0.1993 -0.2546
  622poe    c31 3133   4.477   0.486   4.670 -0.5080 -0.3160  0.0089
  622poe     o2 3134   4.481   0.623   4.700 -0.0880 -0.2725 -0.2434
  622poe    c23 3135   4.520   0.689   4.582 -0.0693  0.1141 -0.0253
  622poe    c23 3136   4.505   0.842   4.594  0.1283  0.0528  1.0272
  622poe     o2 3137   4.371   0.883   4.587  0.3122  0.5414  0.2285
  622poe    c23 3138   4.388   1.022   4.609  0.1235  0.6865 -0.5211
  622poe    c23 3139   4.249   1.082   4.634  0.3455  0.5709  1.0736
  622poe     o2 3140   4.189   0.996   4.729 -0.3296  0.1195  0.2500
  622poe    c23 3141   4.081   1.049   4.802 -0.3044  0.3042  0.1529
  622poe    c23 3142   4.032   0.941   4.900  0.5701 -0.1100  0.1420
  622poe     o2 3143   4.056   0.812   4.850 -0.5296 -0.4298  0.4077
  622poe    c31 3144   4.023   0.719   4.950 -0.1626 -0.4688  0.4928
  623poe    c31 3145   2.212   2.481   0.026 -0.2240  0.7683 -0.0609
  623poe     o2 3146   2.102   2.456  -0.058 -0.3551  0.4203  0.2099
  623poe    c23 3147   2.140   2.472  -0.193  0.2593  0.2769  0.3665
  623poe    c23 3148   2.085   2.349  -0.267  0.1037  0.2334  0.5553
  623poe     o2 3149   1.954   2.351  -0.215 -0.1131  0.1214  0.0217
  623poe    c23 3150   1.856   2.276  -0.283 -0.3315  0.0026  0.4586
  623poe    c23 3151   1.860   2.130  -0.232 -0.0741 -0.3181 -0.4611
  623poe     o2 3152   1.799   2.134  -0.105  0.5283 -0.4664 -0.1650
  623poe    c23 3153   1.770   1.999  -0.079 -0.0578 -0.2623  0.2472
  623poe    c23 3154   1.703   1.983   0.059 -0.2431 -0.8589  0.0919
  623poe     o2 3155   1.566   2.015   0.072 -0.0005  0.2388  0.0437
  623poe    c31 3156   1.527   2.016   0.207 -0.9032 -0.2027 -0.2099
  624poe    c31 3157   3.629   1.932   6.831 -0.0889 -0.1172 -0.6226
  624poe     o2 3158   3.662   1.824   6.747  0.2883 -0.8270  0.4245
  624poe    c23 3159   3.788   1.843   6.687  0.1411 -0.3039  0.2764
  624poe    c23 3160   3.818   1.709   6.616  0.0071  0.0350 -0.4262
  624poe     o2 3161   3.712   1.680   6.527 -0.5505 -0.4715  0.3864
  624poe    c23 3162   3.700   1.544   6.491  0.0105 -0.5398  0.4434
  624poe    c23 3163   3.561   1.526   6.428  0.3134 -0.1074 -0.3818
  624poe     o2 3164   3.477   1.601   6.513 -0.2865 -0.1738 -0.9096
  624poe    c23 3165   3.344   1.557   6.535 -0.0398 -0.2640  0.5296
  624poe    c23 3166   3.282   1.668   6.621  0.1986  0.1650  0.1523
  624poe     o2 3167   3.378   1.722   6.710  0.2907 -0.2042  0.2777
  624poe    c31 3168   3.309   1.807   6.798  0.8024  0.0215  0.4659
  625poe    c31 3169   1.194   0.209   1.205  0.8030 -0.4124  0.2668
  625poe     o2 3170   1.134   0.100   1.271  0.4984 -0.4378 -0.0481
  625poe    c23 3171   1.043   0.148   1.368  0.3150  0.1205 -0.4959
  625poe    c23 3172   0.961   0.023   1.404  0.1429  0.2679 -0.3722
  625poe     o2 3173   1.048  -0.079   1.450  0.1362  0.4626  0.0712
  625poe    c23 3174   0.979  -0.189   1.503  0.1286  0.2053 -0.4675
  625poe    c23 3175   1.080  -0.297   1.545 -0.6110 -0.3271 -0.0147
  625poe     o2 3176   1.197  -0.290   1.465 -0.8054 -0.5066 -0.3169
  625poe    c23 3177   1.286  -0.396   1.493 -0.1195  0.1735  0.1238
  625poe    c23 3178   1.432  -0.362   1.458 -0.1504  0.0085 -0.1675
  625poe     o2 3179   1.454  -0.336   1.321  0.1335 -0.7211 -0.2673
  625poe    c31 3180   1.594  -0.331   1.306  0.1296 -0.5456 -0.2452
  626poe    c31 3181   6.857   2.254   4.597 -0.0817  0.1873 -0.3619
  626poe     o2 3182   6.918   2.165   4.687 -0.8035 -0.0334 -0.0802
  626poe    c23 3183   6.885   2.207   4.817 -0.5279 -0.0989  0.0129
  626poe    c23 3184   6.950   2.118   4.925  0.2732  0.4764  0.0066
  626poe     o2 3185   6.875   2.001   4.947 -0.3001  0.9006  0.3421
  626poe    c23 3186   6.961   1.892   4.973 -0.3389  0.8560  0.2839
  626poe    c23 3187   6.885   1.759   4.957  0.3839  0.4721 -0.0299
  626poe     o2 3188   6.821   1.751   4.832 -0.5840  0.4438  0.4569
  626poe    c23 3189   6.770   1.622   4.808 -0.0991  0.2924  0.2425
  626poe    c23 3190   6.691   1.603   4.677  0.2248 -0.2833  0.1266
  626poe     o2 3191   6.600   1.710   4.687 -0.3506 -0.7641  0.0819
  626poe    c31 3192   6.512   1.719   4.577  0.0388 -0.3588 -0.1987
  627poe    c31 3193   5.959   0.825   2.814 -0.9240 -0.3518  1.0075
  627poe     o2 3194   5.901   0.929   2.739  0.0759 -0.4333  0.0976
  627poe    c23 3195   5.849   0.881   2.617  0.1267 -0.7505  0.2002
  627poe    c23 3196   5.839   1.012   2.537 -0.0979 -0.5655  0.5290
  627poe     o2 3197   5.774   1.102   2.623  0.0557 -0.4054  0.4791
  627poe    c23 3198   5.685   1.197   2.568  0.1922 -0.2144  0.5815
  627poe    c23 3199   5.602   1.239   2.690  0.0453  0.9459  0.0890
  627poe     o2 3200   5.692   1.250   2.797  0.0797 -0.2298  0.1908
  627poe    c23 3201   5.648   1.357   2.877  0.0515  0.0044 -0.1363
  627poe    c23 3202   5.763   1.455   2.908 -0.5068  0.6096  0.0469
  627poe     o2 3203   5.855   1.382   2.985 -0.3404  0.7991  0.0289
  627poe    c31 3204   5.928   1.466   3.071 -0.0911  0.5917  0.0228
  628poe    c31 3205   4.895   1.690   3.176  0.0806  0.0397  0.0826
  628poe     o2 3206   4.770   1.720   3.233  0.0405 -0.5573  0.3216
  628poe    c23 3207   4.794   1.789   3.354  0.1176 -0.0720  0.0350
  628poe    c23 3208   4.664   1.825   3.429  0.1637  0.2741 -0.0481
  628poe     o2 3209   4.570   1.720   3.436  0.3661  0.1163  0.3196
  628poe    c23 3210   4.444   1.742   3.496  0.0723  0.0713 -0.2716
  628poe    c23 3211   4.334   1.838   3.447 -0.5517 -0.1432  0.6687
  628poe     o2 3212   4.305   1.813   3.311  0.1005  0.4571  0.4094
  628poe    c23 3213   4.250   1.928   3.250 -0.0518  0.2998  0.2485
  628poe    c23 3214   4.213   1.867   3.114  0.0357 -0.0290  0.3694
  628poe     o2 3215   4.319   1.786   3.069  0.0146  0.2285 -0.1455
  628poe    c31 3216   4.415   1.861   2.998  0.3796 -0.1611 -0.0626
  629poe    c31 3217   2.863   4.223   4.925 -0.3948 -0.2928  0.7337
  629poe     o2 3218   2.891   4.134   4.819 -0.2118  0.1172  0.4353
  629poe    c23 3219   2.860   4.199   4.698 -0.1386  0.2036  0.4625
  629poe    c23 3220   2.741   4.133   4.624 -0.1043  0.2194  0.3931
  629poe     o2 3221   2.771   4.023   4.541 -0.7866  0.1570  0.2267
  629poe    c23 3222   2.774   4.053   4.403  1.1718  0.0017  0.2010
  629poe    c23 3223   2.808   3.926   4.324 -0.5133 -0.2719 -0.1218
  629poe     o2 3224   2.730   3.818   4.371 -0.2340 -0.3667  0.1253
  629poe    c23 3225   2.739   3.710   4.281 -0.0530 -0.4215  0.2083
  629poe    c23 3226   2.669   3.591   4.349 -0.4540 -0.2389  0.1222
  629poe     o2 3227   2.696   3.588   4.488 -0.1415  0.4241  0.0795
  629poe    c31 3228   2.653   3.466   4.543 -0.0845  0.2906 -0.1722
  630poe    c31 3229   1.743   2.204   3.922  0.0403  0.0350 -0.6531
  630poe     o2 3230   1.609   2.220   3.882 -0.2638 -0.4192  0.1482
  630poe    c23 3231   1.533   2.283   3.982  0.2809  0.1337  0.2165
  630poe    c23 3232   1.382   2.306   3.960  0.2800 -0.1147 -0.0386
  630poe     o2 3233   1.313   2.189   3.923  0.5262 -0.1522 -0.3816
  630poe    c23 3234   1.178   2.210   3.888  0.4272  0.1675  0.1904
  630poe    c23 3235   1.107   2.082   3.842  0.4556  0.1337  0.2406
  630poe     o2 3236   1.203   1.997   3.785 -0.2395 -0.6328  0.1827
  630poe    c23 3237   1.151   1.907   3.689  0.3296 -0.1953 -0.5573
  630poe    c23 3238   1.276   1.834   3.638  0.6532  0.4373 -0.6847
  630poe     o2 3239   1.380   1.820   3.732  0.0954 -0.0813 -0.1288
  630poe    c31 3240   1.496   1.795   3.656 -0.4559 -0.0179 -1.0038
  631poe    c31 3241   2.729   3.353   1.708  0.5127  0.0277 -0.1463
  631poe     o2 3242   2.654   3.281   1.612  0.0095 -0.0359  0.2897
  631poe    c23 3243   2.564   3.367   1.547  0.0932  0.1152  0.3723
  631poe    c23 3244   2.487   3.288   1.439 -0.0056  0.0012  0.5263
  631poe     o2 3245   2.448   3.164   1.494 -0.1999 -0.3298 -0.3520
  631poe    c23 3246   2.315   3.164   1.540 -0.1162  0.1463 -0.1118
  631poe    c23 3247   2.316   3.046   1.639 -0.3087 -0.0311 -0.3219
  631poe     o2 3248   2.441   3.047   1.704 -0.3443  0.2917 -0.2597
  631poe    c23 3249   2.444   2.950   1.806  0.1473 -0.0945 -0.6351
  631poe    c23 3250   2.577   2.982   1.878 -0.4599  0.5803  0.2128
  631poe     o2 3251   2.677   2.963   1.781 -0.3339  0.1840  0.4189
  631poe    c31 3252   2.809   2.967   1.830 -0.0422  0.2266 -0.3541
  632poe    c31 3253   6.150   4.408   4.711  0.0731 -0.0297 -0.7968
  632poe     o2 3254   6.037   4.349   4.652 -0.1851  0.1680 -0.5052
  632poe    c23 3255   6.062   4.305   4.520  0.4653 -0.2605 -0.2443
  632poe    c23 3256   5.928   4.273   4.450  0.3319  0.3510 -0.2715
  632poe     o2 3257   5.851   4.201   4.544  0.1391  0.2419 -0.5147
  632poe    c23 3258   5.712   4.206   4.522  0.0896 -0.4014 -0.3786
  632poe    c23 3259   5.647   4.153   4.651  0.7777 -0.1317  0.0847
  632poe     o2 3260   5.713   4.227   4.752  0.2852  0.1057  0.2365
  632poe    c23 3261   5.654   4.242   4.879 -0.3851  0.7074 -0.1406
  632poe    c23 3262   5.762   4.332   4.941 -0.2377  0.5827 -0.2145
  632poe     o2 3263   5.895   4.295   4.913 -0.2642  0.4580 -0.1736
  632poe    c31 3264   5.968   4.378   5.000 -0.0302 -0.1920  0.2569
  633poe    c31 3265   3.439   5.343   5.007 -0.0557 -0.2756  0.2395
  633poe     o2 3266   3.426   5.209   5.047 -0.3239 -0.3285 -0.0226
  633poe    c23 3267   3.516   5.126   4.977 -0.1158  0.0652 -0.2203
  633poe    c23 3268   3.501   4.986   5.040 -0.6600  0.3284  0.2415
  633poe     o2 3269   3.528   4.986   5.178 -0.4718 -0.1092  0.2067
  633poe    c23 3270   3.494   4.858   5.226  0.2608 -0.3218  0.1662
  633poe    c23 3271   3.542   4.838   5.371 -0.2713 -0.7908  0.2785
  633poe     o2 3272   3.520   4.947   5.458  0.8393 -0.6132  0.3458
  633poe    c23 3273   3.483   4.915   5.590 -0.0285  0.1127  0.2871
  633poe    c23 3274   3.520   5.036   5.678 -0.0062  0.1361  0.2456
  633poe     o2 3275   3.508   5.147   5.592 -0.3670  0.1101  0.2591
  633poe    c31 3276   3.518   5.267   5.666  0.8212 -0.1238  0.4987
  634poe    c31 3277   1.237   3.047   6.083  0.2577  0.4522 -0.4414
  634poe     o2 3278   1.197   3.181   6.098 -0.3367  0.3149 -0.7672
  634poe    c23 3279   1.303   3.255   6.040  0.2807  0.0054 -0.0488
  634poe    c23 3280   1.239   3.382   5.980 -0.1443 -0.4131 -0.4902
  634poe     o2 3281   1.159   3.427   6.086  0.3338 -0.4188 -0.1208
  634poe    c23 3282   1.065   3.526   6.049  0.3649 -0.1803  0.4134
  634poe    c23 3283   0.999   3.558   6.184  0.5870  0.5198  0.3572
  634poe     o2 3284   0.951   3.442   6.248 -0.5049  0.7019 -0.1190
  634poe    c23 3285   0.871   3.459   6.363 -0.2030  0.5250  0.1183
  634poe    c23 3286   0.787   3.339   6.410 -0.0310  0.1119 -0.6230
  634poe     o2 3287   0.866   3.223   6.426 -0.0322  0.2380  0.3324
  634poe    c31 3288   0.774   3.116   6.433  0.1839  0.0818  0.8634
  635poe    c31 3289   6.661   6.760   2.952 -0.5027  0.7491  0.0458
  635poe     o2 3290   6.552   6.674   2.928 -0.0064  0.0210  0.3423
  635poe    c23 3291   6.584   6.537   2.926  0.3379  0.1078 -0.3617
  635poe    c23 3292   6.533   6.466   2.800  0.8126 -0.6908 -0.1136
  635poe     o2 3293   6.418   6.537   2.759  0.2617 -1.0400  0.8067
  635poe    c23 3294   6.310   6.449   2.735 -0.2347 -0.3509  0.5149
  635poe    c23 3295   6.193   6.521   2.806 -0.3954 -0.2338  0.1349
  635poe     o2 3296   6.261   6.594   2.904 -0.0562 -0.3742  0.0061
  635poe    c23 3297   6.167   6.672   2.975 -0.1907  0.2259 -0.8137
  635poe    c23 3298   6.252   6.763   3.065 -0.3826 -0.1323 -0.2591
  635poe     o2 3299   6.337   6.838   2.981  0.4358 -0.4648  0.2596
  635poe    c31 3300   6.393   6.953   3.041 -0.1878 -0.1617  0.2668
  636poe    c31 3301   2.484   5.552   4.468  0.1312  0.2015  0.4228
  636poe     o2 3302   2.370   5.619   4.419  0.0066 -0.2892  0.0259
  636poe    c23 3303   2.272   5.641   4.518  0.2557  0.0940  0.1927
  636poe    c23 3304   2.145   5.704   4.456  0.1866  0.0198  0.2586
  636poe     o2 3305   2.129   5.625   4.340 -0.2050  0.1293  0.2375
  636poe    c23 3306   2.018   5.689   4.282  0.4195  0.7695 -0.2690
  636poe    c23 3307   1.989   5.654   4.135 -0.4395  0.4094 -0.0200
  636poe     o2 3308   2.084   5.708   4.046  0.0519 -0.3052  0.0662
  636poe    c23 3309   2.062   5.655   3.918  0.5551 -0.1548 -0.0853
  636poe    c23 3310   2.125   5.749   3.813  0.3537  0.2069  0.1180
  636poe     o2 3311   2.036   5.848   3.767  0.3090 -0.0761 -0.4133
  636poe    c31 3312   2.065   5.906   3.641 -0.3347  0.1622 -0.4553
  637poe    c31 3313   5.284   1.653   5.096 -0.1686  0.0354 -0.2583
  637poe     o2 3314   5.219   1.654   4.971 -0.3432 -0.1735 -0.1683
  637poe    c23 3315   5.264   1.748   4.876  0.3438  0.0024  0.3226
  637poe    c23 3316   5.219   1.731   4.729  0.7556 -0.3318  0.2347
  637poe     o2 3317   5.288   1.618   4.681 -0.1818 -0.5974 -0.5003
  637poe    c23 3318   5.241   1.621   4.548 -0.6739  0.1561 -0.3142
  637poe    c23 3319   5.318   1.508   4.477 -0.1924  0.2241  0.1021
  637poe     o2 3320   5.454   1.491   4.513 -0.1642 -0.0309 -0.1205
  637poe    c23 3321   5.517   1.403   4.423  0.1179  0.8866 -0.8289
  637poe    c23 3322   5.646   1.381   4.504 -0.4034 -0.1940 -0.2800
  637poe     o2 3323   5.625   1.368   4.642  0.4874  0.1425 -0.1107
  637poe    c31 3324   5.746   1.327   4.702  0.3860 -0.2510 -0.1764
  638poe    c31 3325   2.368   3.131   3.082  0.1307 -0.6093  0.1501
  638poe     o2 3326   2.384   3.172   2.949  0.2515  0.1268  0.3887
  638poe    c23 3327   2.280   3.262   2.919  0.2188  0.0726  0.3390
  638poe    c23 3328   2.280   3.320   2.776 -0.1942  0.5430  0.5252
  638poe     o2 3329   2.395   3.399   2.760  0.3791 -0.3595  0.0969
  638poe    c23 3330   2.417   3.426   2.623 -0.4780  0.7252  0.1603
  638poe    c23 3331   2.550   3.504   2.627 -0.2577  0.3562  0.0075
  638poe     o2 3332   2.670   3.444   2.672 -0.1041  0.3529 -0.3997
  638poe    c23 3333   2.778   3.527   2.638  0.1080  0.3024  0.1466
  638poe    c23 3334   2.905   3.459   2.691  0.1020 -0.1460 -0.4087
  638poe     o2 3335   2.873   3.410   2.820  0.4824 -0.1948 -0.3321
  638poe    c31 3336   2.968   3.311   2.853  0.3341 -0.1265  0.3082
  639poe    c31 3337   0.193   4.961   6.174  0.6212 -0.1037 -0.4414
  639poe     o2 3338   0.303   4.891   6.228 -0.2570 -0.6825  0.6490
  639poe    c23 3339   0.363   4.807   6.131  0.3982  0.3169  0.1674
  639poe    c23 3340   0.483   4.740   6.200  0.2840  0.0785  0.1341
  639poe     o2 3341   0.531   4.826   6.301 -0.3022 -0.2614  0.7082
  639poe    c23 3342   0.644   4.772   6.364 -0.1264 -0.0713  0.5559
  639poe    c23 3343   0.691   4.870   6.473  0.5135 -0.0538  0.2703
  639poe     o2 3344   0.579   4.925   6.539  0.5882 -0.2283  0.5487
  639poe    c23 3345   0.618   5.033   6.621  0.2909  0.4610 -0.1952
  639poe    c23 3346   0.504   5.074   6.716  0.1344 -0.0372 -0.1626
  639poe     o2 3347   0.418   5.169   6.656  0.5756  0.2184 -0.3933
  639poe    c31 3348   0.307   5.191   6.740  0.6007 -1.1557  0.0192
  640poe    c31 3349   5.927   3.048   1.294  0.6359  0.6933  0.4113
  640poe     o2 3350   5.979   2.923   1.331  0.3179  0.1990 -0.7744
  640poe    c23 3351   5.879   2.824   1.343  0.5893 -0.0032 -0.1399
  640poe    c23 3352   5.938   2.690   1.295  0.0356 -0.4383  0.3839
  640poe     o2 3353   6.070   2.694   1.345  0.1812  0.1582 -0.0332
  640poe    c23 3354   6.119   2.562   1.337  0.1438  0.1619 -0.3234
  640poe    c23 3355   6.262   2.577   1.395 -0.0186 -0.0710  0.1450
  640poe     o2 3356   6.321   2.677   1.315 -0.2871  0.2070  0.2931
  640poe    c23 3357   6.451   2.696   1.365  0.1446  0.0606 -0.7504
  640poe    c23 3358   6.539   2.807   1.304  0.6766  0.1016  0.0636
  640poe     o2 3359   6.494   2.940   1.317  1.0184  0.1806  0.4303
  640poe    c31 3360   6.577   3.013   1.229  0.4935  0.1385 -0.1037
  641poe    c31 3361   5.974   4.553   1.478  0.8276  0.0686 -0.2335
  641poe     o2 3362   5.974   4.648   1.373 -0.1199  0.5593  0.1956
  641poe    c23 3363   5.851   4.659   1.306 -0.0894 -0.5805 -0.0662
  641poe    c23 3364   5.836   4.783   1.215  0.1653 -0.2153  0.3887
  641poe     o2 3365   5.930   4.773   1.111 -0.4730  0.0661 -0.2223
  641poe    c23 3366   5.864   4.733   0.993 -0.3244  0.5174 -0.4621
  641poe    c23 3367   5.976   4.690   0.897  0.4673 -0.2496  0.7704
  641poe     o2 3368   6.073   4.792   0.903  0.3904 -0.1285  0.0707
  641poe    c23 3369   6.203   4.748   0.868  0.5614  0.3870  0.0500
  641poe    c23 3370   6.299   4.864   0.901  0.1384  0.5105  0.8815
  641poe     o2 3371   6.285   4.875   1.041  0.0285 -0.0980  0.9224
  641poe    c31 3372   6.396   4.953   1.080  0.0477 -0.0613  0.7950
  642poe    c31 3373   4.432   5.289   2.947 -0.2478 -0.3721 -0.0084
  642poe     o2 3374   4.375   5.247   3.069 -0.3476  0.0629  0.0950
  642poe    c23 3375   4.332   5.113   3.079  0.4104 -0.1953 -0.0687
  642poe    c23 3376   4.240   5.119   3.202  0.5450 -0.0836  0.0274
  642poe     o2 3377   4.316   5.178   3.306 -0.0928  0.3232  0.2672
  642poe    c23 3378   4.250   5.177   3.431  0.3632 -0.2312  0.5038
  642poe    c23 3379   4.303   5.309   3.490  0.0733 -0.0101  0.2658
  642poe     o2 3380   4.267   5.392   3.381 -0.2634  0.0951  0.4552
  642poe    c23 3381   4.284   5.528   3.414 -0.6629  0.0946  0.6635
  642poe    c23 3382   4.268   5.599   3.278  0.4370  0.1374  0.5548
  642poe     o2 3383   4.333   5.525   3.177  0.0301 -0.0050  0.3964
  642poe    c31 3384   4.355   5.608   3.065 -0.2404 -0.3275  0.1009
  643poe    c31 3385   0.254   1.193   6.065  0.1977  0.3358 -0.2266
  643poe     o2 3386   0.239   1.061   6.017  0.1593  0.1989  0.1613
  643poe    c23 3387   0.211   1.074   5.880 -0.2910  0.2049  0.2540
  643poe    c23 3388   0.207   0.938   5.807  0.2509  0.3608 -0.0650
  643poe     o2 3389   0.319   0.852   5.811 -0.0676 -0.0522 -0.0295
  643poe    c23 3390   0.341   0.785   5.689  0.1783  0.6801 -0.3916
  643poe    c23 3391   0.472   0.703   5.696 -0.2484 -0.0502 -0.9121
  643poe     o2 3392   0.442   0.618   5.804  0.6345  0.4393 -0.2670
  643poe    c23 3393   0.546   0.527   5.831 -0.0860 -0.3585 -0.1470
  643poe    c23 3394   0.561   0.500   5.982 -0.3958  0.1660 -0.0194
  643poe     o2 3395   0.492   0.598   6.057  0.0766  0.1982  0.3803
  643poe    c31 3396   0.466   0.535   6.180  0.1442 -0.4900  0.0542
  644poe    c31 3397   5.074   4.647   0.176  0.2104 -0.2821  0.2075
  644poe     o2 3398   4.966   4.629   0.088  0.3043 -0.1867  0.0721
  644poe    c23 3399   4.956   4.708  -0.028  0.0338 -0.1479  0.1211
  644poe    c23 3400   4.832   4.666  -0.109 -0.1750  0.1136  0.3031
  644poe     o2 3401   4.842   4.542  -0.176  0.5280  0.1380  0.3625
  644poe    c23 3402   4.751   4.536  -0.284 -0.1044 -0.4256  0.9207
  644poe    c23 3403   4.753   4.395  -0.346  0.1765  0.0965 -0.2773
  644poe     o2 3404   4.754   4.305  -0.237 -0.0061 -0.0328 -0.3816
  644poe    c23 3405   4.740   4.175  -0.290 -0.0579 -0.1153 -0.1667
  644poe    c23 3406   4.791   4.085  -0.177  1.1975  0.5073 -0.2290
  644poe     o2 3407   4.771   4.136  -0.047  0.3124 -0.3178 -0.0309
  644poe    c31 3408   4.774   4.041   0.057  0.2679 -0.7520 -0.4226
  645poe    c31 3409   2.524   1.913   3.695 -0.3008  0.3058 -0.2373
  645poe     o2 3410   2.577   1.853   3.578  0.2042  0.1874  0.0470
  645poe    c23 3411   2.713   1.819   3.592  0.2018  0.3229  0.4156
  645poe    c23 3412   2.743   1.711   3.486  0.5292  0.1168  0.7154
  645poe     o2 3413   2.668   1.737   3.369  0.4425 -0.1586  0.7102
  645poe    c23 3414   2.657   1.645   3.263 -0.4334  0.6182  0.1118
  645poe    c23 3415   2.533   1.685   3.181 -0.4161 -0.0096 -0.2298
  645poe     o2 3416   2.435   1.723   3.276 -0.2388  0.4278 -0.2160
  645poe    c23 3417   2.352   1.817   3.212 -0.0804  0.4743 -0.3550
  645poe    c23 3418   2.256   1.874   3.319 -0.1631 -0.0948 -0.1209
  645poe     o2 3419   2.320   1.890   3.443 -0.6306  0.3202  0.0669
  645poe    c31 3420   2.228   1.918   3.546  0.1394  0.0638  0.8395
  646poe    c31 3421   5.911   6.026   0.370 -0.6118 -0.0633  0.2922
  646poe     o2 3422   5.934   6.157   0.415 -0.1208 -0.1353  0.2583
  646poe    c23 3423   5.935   6.168   0.556  0.3995 -0.0951  0.2524
  646poe    c23 3424   5.948   6.314   0.603  0.3554 -0.0283  0.0596
  646poe     o2 3425   6.048   6.371   0.523  0.0752  0.0802 -0.2168
  646poe    c23 3426   6.051   6.511   0.542 -0.2857  0.0390  0.1482
  646poe    c23 3427   6.101   6.556   0.403 -0.3189 -0.1350  0.0800
  646poe     o2 3428   6.011   6.494   0.313 -0.2586 -0.0036 -0.0704
  646poe    c23 3429   6.055   6.516   0.181  0.4273 -0.2138  0.1176
  646poe    c23 3430   5.959   6.440   0.087  0.5350  0.2061 -0.3365
  646poe     o2 3431   5.942   6.315   0.151  0.3548  0.3377 -0.1256
  646poe    c31 3432   5.896   6.216   0.062  0.7683 -0.0477  0.0867
  647poe    c31 3433   1.208   4.758   5.714 -0.2791 -0.0107  0.0417
  647poe     o2 3434   1.327   4.718   5.778  0.0291 -0.0529 -0.5547
  647poe    c23 3435   1.349   4.823   5.870  0.2263 -0.4072 -0.1949
  647poe    c23 3436   1.501   4.838   5.889  0.2497 -0.4021 -0.3815
  647poe     o2 3437   1.544   4.707   5.916 -0.0565 -0.2180  1.0616
  647poe    c23 3438   1.668   4.716   5.983  0.4026  0.4825  0.1423
  647poe    c23 3439   1.753   4.588   5.986 -0.4513 -0.0899  0.1489
  647poe     o2 3440   1.749   4.520   5.863 -0.2378 -0.1238  0.1602
  647poe    c23 3441   1.837   4.411   5.849 -0.0101  0.0924 -0.1107
  647poe    c23 3442   1.813   4.338   5.716 -0.5890  0.3604 -0.1530
  647poe     o2 3443   1.811   4.425   5.605 -0.1695  0.0044 -0.4371
  647poe    c31 3444   1.873   4.369   5.491  0.1076 -0.0804 -0.2469
  648poe    c31 3445   3.496   3.403   6.874  0.2602 -0.4285  0.4696
  648poe     o2 3446   3.511   3.338   6.750 -1.0645  0.2105 -0.0474
  648poe    c23 3447   3.394   3.362   6.675 -0.2080  0.7208 -1.2763
  648poe    c23 3448   3.431   3.278   6.552 -0.0608 -0.0141 -0.7406
  648poe     o2 3449   3.568   3.290   6.518  0.0707 -0.0759 -0.2406
  648poe    c23 3450   3.592   3.191   6.419  0.2687 -0.6949  0.4168
  648poe    c23 3451   3.743   3.195   6.393  0.1938 -0.5100 -0.0014
  648poe     o2 3452   3.820   3.188   6.512  0.5294 -0.8530 -0.2367
  648poe    c23 3453   3.842   3.069   6.584  0.1678 -0.6211  0.2699
  648poe    c23 3454   3.989   3.075   6.631  0.1920  0.1064  0.1161
  648poe     o2 3455   4.002   3.177   6.728 -0.0041  0.6005 -0.3715
  648poe    c31 3456   4.136   3.197   6.769  0.1644  0.3014 -0.7584
  649poe    c31 3457   3.443   6.569   5.212 -0.0776  0.3066 -0.0350
  649poe     o2 3458   3.494   6.441   5.241  0.2302  0.3645 -0.3169
  649poe    c23 3459   3.611   6.444   5.320  0.0339 -0.1540  0.0007
  649poe    c23 3460   3.662   6.304   5.357 -0.7960 -0.5319 -0.2538
  649poe     o2 3461   3.726   6.314   5.482 -0.5427 -0.2575 -0.4039
  649poe    c23 3462   3.702   6.208   5.572  0.1546 -0.3015 -0.2621
  649poe    c23 3463   3.774   6.225   5.707 -0.1392 -0.4215 -0.0898
  649poe     o2 3464   3.913   6.244   5.693 -0.1507 -0.1670  0.1361
  649poe    c23 3465   3.977   6.230   5.818  0.2355 -0.1571 -0.0582
  649poe    c23 3466   4.130   6.225   5.805  0.1923 -0.5075 -0.4689
  649poe     o2 3467   4.159   6.298   5.688 -0.2108  0.1227 -0.1818
  649poe    c31 3468   4.298   6.320   5.689 -0.1629 -0.1623 -0.5242
  650poe    c31 3469   1.459   4.634   2.216 -0.1326 -0.6807  0.1856
  650poe     o2 3470   1.413   4.524   2.142 -0.4052 -0.5779  0.2006
  650poe    c23 3471   1.492   4.412   2.177 -0.2091 -0.3460  0.5019
  650poe    c23 3472   1.457   4.293   2.085  0.1571 -0.2552  0.2437
  650poe     o2 3473   1.321   4.313   2.056  0.2462  0.2347  0.1507
  650poe    c23 3474   1.276   4.213   1.968 -0.4576  0.6603  0.0216
  650poe    c23 3475   1.122   4.225   1.970 -0.5244 -0.0969 -0.2564
  650poe     o2 3476   1.094   4.363   1.981 -0.1407 -0.0008 -0.4820
  650poe    c23 3477   0.954   4.375   1.977 -0.1460  0.1843  0.2397
  650poe    c23 3478   0.895   4.511   1.937  0.1131  0.1870 -0.1350
  650poe     o2 3479   0.912   4.610   2.036  0.2262  0.0977 -0.0659
  650poe    c31 3480   0.885   4.743   1.997  0.2571  0.1644  0.1407
  651poe    c31 3481   1.897   6.658   1.512 -0.0450  0.0926  0.4519
  651poe     o2 3482   2.024   6.709   1.479 -0.1967  0.0900 -0.1422
  651poe    c23 3483   2.024   6.849   1.500  0.4160  0.0649  0.0520
  651poe    c23 3484   2.153   6.880   1.578  0.6664  0.0937 -0.3703
  651poe     o2 3485   2.268   6.834   1.512  0.2771 -0.4530 -0.6773
  651poe    c23 3486   2.390   6.859   1.578 -0.0422  0.6302 -0.4741
  651poe    c23 3487   2.497   6.768   1.514 -0.3247  0.1682 -0.2960
  651poe     o2 3488   2.443   6.641   1.485  0.3858 -0.3151  0.4451
  651poe    c23 3489   2.542   6.551   1.440  0.6684 -0.1202  0.6670
  651poe    c23 3490   2.525   6.401   1.470 -0.2389 -0.1233  0.1713
  651poe     o2 3491   2.404   6.343   1.424 -0.0629 -0.2756 -0.1060
  651poe    c31 3492   2.422   6.205   1.401  0.5196 -0.2800  0.3334
  652poe    c31 3493   1.530   0.859   0.121  0.2737  0.0321 -0.3200
  652poe     o2 3494   1.641   0.930   0.071  0.1718  0.4978  0.1049
  652poe    c23 3495   1.624   0.950  -0.067 -0.3126  0.5524  0.1721
  652poe    c23 3496   1.688   0.832  -0.143 -0.0230  0.7278  0.1417
  652poe     o2 3497   1.825   0.827  -0.114  0.0324 -0.4640 -0.2494
  652poe    c23 3498   1.870   0.707  -0.171 -0.0049 -0.5005 -0.2024
  652poe    c23 3499   1.987   0.643  -0.094 -0.3165 -0.1614  0.5589
  652poe     o2 3500   2.079   0.745  -0.059 -0.0192 -0.1261 -0.2999
  652poe    c23 3501   2.168   0.707   0.043 -0.4126 -0.3080 -0.0215
  652poe    c23 3502   2.258   0.829   0.072 -0.3518 -0.1149 -1.0053
  652poe     o2 3503   2.170   0.935   0.099 -0.0026 -0.2099  0.5856
  652poe    c31 3504   2.251   1.047   0.123  0.2324 -0.2309 -0.0846
  653poe    c31 3505   6.613   3.961   0.443 -0.2530 -0.0746  0.2303
  653poe     o2 3506   6.572   3.879   0.337  0.2385  0.1410 -0.1310
  653poe    c23 3507   6.678   3.819   0.266  0.3668  0.5115 -0.2553
  653poe    c23 3508   6.616   3.730   0.157 -0.3221  0.0939  0.4690
  653poe     o2 3509   6.520   3.651   0.225 -0.4280 -0.0746  0.1257
  653poe    c23 3510   6.495   3.542   0.138 -0.0734  0.1280 -0.2358
  653poe    c23 3511   6.383   3.449   0.187 -0.0889  0.1393 -0.2492
  653poe     o2 3512   6.252   3.497   0.167 -0.1630 -0.1016 -0.3445
  653poe    c23 3513   6.148   3.403   0.180 -0.2462 -0.0282 -0.4791
  653poe    c23 3514   6.021   3.482   0.216  0.0605  0.1941  0.1293
  653poe     o2 3515   6.042   3.562   0.331 -0.2540 -0.3078  0.5418
  653poe    c31 3516   5.968   3.681   0.321  0.0330 -0.0844  1.0654
  654poe    c31 3517   5.749   4.363   6.050  0.5645  0.2123 -0.0861
  654poe     o2 3518   5.712   4.382   6.185  0.3655  0.1394 -0.1304
  654poe    c23 3519   5.810   4.313   6.260  0.3880  0.0865 -0.2088
  654poe    c23 3520   5.788   4.336   6.411 -0.2938 -0.4256 -0.2246
  654poe     o2 3521   5.662   4.288   6.451 -0.1615 -0.5760  0.0149
  654poe    c23 3522   5.664   4.237   6.582 -0.3472  0.1507  0.3066
  654poe    c23 3523   5.527   4.167   6.589 -0.3473  0.1282  0.0964
  654poe     o2 3524   5.424   4.262   6.602  0.3955  0.9568  0.0397
  654poe    c23 3525   5.307   4.204   6.656  0.1387  0.5564 -0.9186
  654poe    c23 3526   5.189   4.302   6.647 -0.0959  0.3651 -0.0549
  654poe     o2 3527   5.197   4.351   6.515  0.4518  0.0775 -0.1323
  654poe    c31 3528   5.100   4.452   6.499 -0.6117 -0.9245 -0.1269
  655poe    c31 3529   3.442   2.899   6.223 -0.5773  0.8313 -0.0978
  655poe     o2 3530   3.473   2.827   6.106  0.4625  0.2408  0.5236
  655poe    c23 3531   3.534   2.902   6.003  0.1880  0.1820  0.3155
  655poe    c23 3532   3.567   2.810   5.884 -0.4767  0.3662 -0.0175
  655poe     o2 3533   3.517   2.678   5.897  0.5823 -0.0221  0.2435
  655poe    c23 3534   3.611   2.585   5.848  0.1163 -0.1754 -0.3759
  655poe    c23 3535   3.554   2.451   5.897 -0.2219  0.0160 -0.2394
  655poe     o2 3536   3.483   2.478   6.016 -0.1907 -0.2247 -0.1656
  655poe    c23 3537   3.411   2.370   6.070 -0.2387  0.0046  0.2316
  655poe    c23 3538   3.363   2.430   6.203  0.2014  0.0422  0.3743
  655poe     o2 3539   3.333   2.567   6.188 -0.7420 -0.1796  0.1291
  655poe    c31 3540   3.304   2.607   6.320 -0.9314 -0.0212  0.0398
  656poe    c31 3541   0.087   1.278   3.947  0.4131  0.2035  0.0646
  656poe     o2 3542   0.165   1.161   3.958  0.1717  0.0372 -0.0028
  656poe    c23 3543   0.243   1.149   4.074  0.2619  0.3655 -0.0294
  656poe    c23 3544   0.181   1.039   4.161  0.1597 -0.2027 -0.8211
  656poe     o2 3545   0.165   0.926   4.078  0.2683 -0.8797  0.0660
  656poe    c23 3546   0.069   0.826   4.109  0.2322 -0.7026  0.5194
  656poe    c23 3547   0.051   0.749   3.978 -0.7659  0.5403 -0.0988
  656poe     o2 3548   0.038   0.850   3.881 -0.7216  0.2702 -0.3886
  656poe    c23 3549   0.046   0.792   3.752  0.4665  0.0103 -0.2107
  656poe    c23 3550   0.053   0.906   3.649 -0.2053  0.0744 -0.1901
  656poe     o2 3551   0.114   1.017   3.712 -0.0886 -0.1244  0.0508
  656poe    c31 3552   0.089   1.127   3.627 -0.0038 -0.1562 -0.0152
  657poe    c31 3553   0.567   1.195   0.162 -0.2873 -0.4817 -0.0596
  657poe     o2 3554   0.659   1.184   0.269 -0.3785  0.2656  0.0978
  657poe    c23 3555   0.676   1.308   0.335  0.2460 -0.2660  0.9455
  657poe    c23 3556   0.793   1.315   0.434  0.5551  0.3581  0.5414
  657poe     o2 3557   0.797   1.216   0.535 -0.3929  0.1592  0.3844
  657poe    c23 3558   0.708   1.250   0.639  0.0950  0.6503  0.6454
  657poe    c23 3559   0.734   1.157   0.759 -0.3959 -0.2165  0.0928
  657poe     o2 3560   0.739   1.024   0.713  0.4190 -0.2722  0.3311
  657poe    c23 3561   0.766   0.923   0.808  0.3860 -0.3139  0.2960
  657poe    c23 3562   0.772   0.792   0.727 -0.5340 -0.2973  0.1869
  657poe     o2 3563   0.838   0.830   0.607 -0.4423 -0.4232  0.1979
  657poe    c31 3564   0.869   0.715   0.531 -0.9876 -1.0418  0.8814
  658poe    c31 3565   1.848   3.209   2.516  0.5765 -0.1049 -0.4201
  658poe     o2 3566   1.858   3.305   2.414  0.0898  0.2005 -0.1867
  658poe    c23 3567   1.982   3.305   2.346  0.0765  0.1619 -0.2109
  658poe    c23 3568   1.970   3.354   2.200 -0.6449 -0.3084 -0.3123
  658poe     o2 3569   1.888   3.469   2.203 -0.0638  0.0930  0.7681
  658poe    c23 3570   1.822   3.469   2.078  0.2261  0.7375  0.6114
  658poe    c23 3571   1.719   3.581   2.054 -0.0997  0.2204 -0.4685
  658poe     o2 3572   1.621   3.564   2.154  0.1131 -0.2702 -0.3398
  658poe    c23 3573   1.545   3.681   2.138  0.3506  0.0254  0.5970
  658poe    c23 3574   1.418   3.657   2.223 -0.3597 -0.8809 -0.6798
  658poe     o2 3575   1.449   3.603   2.349 -0.3171 -0.1901 -0.3889
  658poe    c31 3576   1.343   3.595   2.442  0.3527 -0.5255  0.3640
  659poe    c31 3577   2.400   5.908   4.222 -0.6426 -0.1019 -0.1700
  659poe     o2 3578   2.384   5.768   4.209 -0.4716 -0.1529  0.1523
  659poe    c23 3579   2.432   5.716   4.088  0.0429 -0.2563  0.3997
  659poe    c23 3580   2.440   5.563   4.075  0.0580 -0.2045 -0.2185
  659poe     o2 3581   2.324   5.505   4.132  0.3366 -0.4300  0.1206
  659poe    c23 3582   2.309   5.370   4.097 -0.1571 -0.2392 -0.4276
  659poe    c23 3583   2.198   5.305   4.182  0.2574 -0.1280  0.2083
  659poe     o2 3584   2.175   5.358   4.310 -0.1447  0.5562 -0.1407
  659poe    c23 3585   2.093   5.263   4.374 -0.0837  0.4129 -0.2752
  659poe    c23 3586   2.021   5.311   4.502 -0.2027  0.3701 -0.3258
  659poe     o2 3587   2.116   5.325   4.605 -0.1180 -0.1393 -0.3288
  659poe    c31 3588   2.065   5.401   4.712 -0.0263 -0.0781 -0.3274
  660poe    c31 3589   2.766   5.676   5.526  0.0248 -0.0531  0.0821
  660poe     o2 3590   2.745   5.537   5.522 -0.0065 -0.0257 -0.7779
  660poe    c23 3591   2.703   5.494   5.394  0.0168 -0.3945 -0.6632
  660poe    c23 3592   2.681   5.342   5.386 -0.2097 -0.3969 -0.0522
  660poe     o2 3593   2.597   5.313   5.496  0.2460 -0.5218  0.2662
  660poe    c23 3594   2.530   5.189   5.491  0.4556 -0.6145 -0.3632
  660poe    c23 3595   2.468   5.194   5.632  0.4215  0.7529 -0.4138
  660poe     o2 3596   2.568   5.177   5.730 -0.3893 -0.1052  0.2849
  660poe    c23 3597   2.508   5.192   5.857 -0.1072  0.3308  0.3659
  660poe    c23 3598   2.597   5.162   5.979  0.1643 -0.5621 -0.0408
  660poe     o2 3599   2.723   5.221   5.954 -0.0338 -0.2445 -0.2936
  660poe    c31 3600   2.820   5.143   6.020  0.4605  0.7616  0.1817
  661poe    c31 3601   1.321   0.716   5.871 -0.1962  0.0380 -0.1998
  661poe     o2 3602   1.357   0.580   5.876 -0.3098  0.0120 -0.0692
  661poe    c23 3603   1.457   0.583   5.776 -0.1939 -0.1369  0.0418
  661poe    c23 3604   1.541   0.454   5.789  0.2812  0.1959  0.3075
  661poe     o2 3605   1.449   0.349   5.773  0.0471  0.4369  0.0505
  661poe    c23 3606   1.505   0.224   5.807 -0.4462  0.0129 -0.6739
  661poe    c23 3607   1.391   0.139   5.865 -0.1502 -0.1557 -0.3342
  661poe     o2 3608   1.300   0.230   5.923 -0.0924 -0.2752 -0.0553
  661poe    c23 3609   1.177   0.169   5.955  0.0158 -0.3179  0.2865
  661poe    c23 3610   1.118   0.277   6.047  0.2651  0.2248 -0.1913
  661poe     o2 3611   1.113   0.405   5.987  0.1117  0.2826 -0.0559
  661poe    c31 3612   1.021   0.485   6.058 -0.2856 -0.5922  0.4295
  662poe    c31 3613   0.015   2.711   0.205  0.3121 -0.4681  0.2308
  662poe     o2 3614  -0.026   2.728   0.339  0.1342  0.5809  0.0494
  662poe    c23 3615  -0.160   2.686   0.341  0.0809  0.7551  0.1318
  662poe    c23 3616  -0.183   2.677   0.493  0.5503 -0.6008  0.1303
  662poe     o2 3617  -0.112   2.783   0.553 -0.1203 -0.2601  0.3341
  662poe    c23 3618  -0.203   2.873   0.611  0.2107  0.0422  0.3867
  662poe    c23 3619  -0.119   2.998   0.642  0.3292  0.0715 -0.0533
  662poe     o2 3620  -0.077   3.032   0.511  0.2848  0.0895 -0.0630
  662poe    c23 3621  -0.010   3.154   0.488 -0.1670  0.4399  0.4612
  662poe    c23 3622   0.036   3.138   0.342  0.4696 -0.0774  0.7130
  662poe     o2 3623   0.083   3.006   0.327 -0.0472 -0.1267 -0.6423
  662poe    c31 3624   0.170   2.998   0.217  0.1459  0.2838 -0.5220
  663poe    c31 3625   1.700   4.154   0.709 -0.3182 -0.3505  1.0139
  663poe     o2 3626   1.619   4.186   0.598  0.2818 -0.0860  0.6471
  663poe    c23 3627   1.527   4.284   0.642 -0.4417 -0.4691 -0.0081
  663poe    c23 3628   1.444   4.328   0.520  0.1910  1.2915  0.1766
  663poe     o2 3629   1.522   4.330   0.403  0.0173  0.9153  0.0542
  663poe    c23 3630   1.448   4.364   0.288  0.0150  0.2769 -0.1396
  663poe    c23 3631   1.519   4.284   0.177 -0.0800  0.0277 -0.0220
  663poe     o2 3632   1.530   4.156   0.234 -0.1942 -0.1162 -0.3228
  663poe    c23 3633   1.584   4.061   0.144 -0.5662 -0.4878 -0.1562
  663poe    c23 3634   1.654   3.962   0.238 -0.5050  0.0883  0.4106
  663poe     o2 3635   1.705   4.031   0.350 -0.3056  0.2889  0.1959
  663poe    c31 3636   1.786   3.944   0.426  0.0154  0.3887 -0.0285
  664poe    c31 3637   3.451   1.187   1.380  0.3336  0.4107 -0.1189
  664poe     o2 3638   3.561   1.106   1.344 -0.3660 -0.6248  0.0215
  664poe    c23 3639   3.509   1.009   1.255 -0.4554 -0.0905 -0.5165
  664poe    c23 3640   3.579   0.873   1.271  0.1434  0.2001 -0.6288
  664poe     o2 3641   3.718   0.896   1.278  0.1267  0.1480 -0.1060
  664poe    c23 3642   3.785   0.773   1.259 -0.0054  0.0967 -0.2453
  664poe    c23 3643   3.918   0.811   1.191  0.3913 -0.2832  0.3082
  664poe     o2 3644   3.986   0.906   1.271 -0.0238  0.0538  0.2693
  664poe    c23 3645   4.125   0.927   1.254  0.0181 -0.5056 -0.1115
  664poe    c23 3646   4.156   1.013   1.377 -0.4792 -0.2384 -0.1711
  664poe     o2 3647   4.072   1.126   1.389 -0.3241 -0.1471  0.0739
  664poe    c31 3648   4.087   1.198   1.509  0.1516 -0.2152  0.0549
  665poe    c31 3649   2.240   1.361   4.506 -0.4152 -0.2004 -0.0429
  665poe     o2 3650   2.206   1.463   4.416  0.4061  0.4116  0.3285
  665poe    c23 3651   2.068   1.493   4.422  0.3156  0.2328 -0.5831
  665poe    c23 3652   2.029   1.564   4.291 -0.2671  0.1451 -0.4590
  665poe     o2 3653   2.086   1.485   4.189 -0.3053  0.0500 -0.4074
  665poe    c23 3654   2.076   1.555   4.066 -0.0584  0.0732 -0.4140
  665poe    c23 3655   2.210   1.543   3.991  0.0705 -0.1316 -0.1557
  665poe     o2 3656   2.301   1.563   4.096 -0.3097  0.3006  0.0955
  665poe    c23 3657   2.433   1.555   4.047 -0.2104  0.4746  0.3294
  665poe    c23 3658   2.525   1.560   4.170  0.2060  0.4226  0.0222
  665poe     o2 3659   2.459   1.499   4.279  0.4265  0.0939 -0.0282
  665poe    c31 3660   2.562   1.433   4.350  0.2411 -0.0556  0.1017
  666poe    c31 3661   2.031   5.263   3.203 -0.0584  0.2632  0.3069
  666poe     o2 3662   2.089   5.328   3.092  0.1035 -0.2783  0.0730
  666poe    c23 3663   2.011   5.443   3.073  0.4489 -0.1131 -0.3676
  666poe    c23 3664   2.066   5.519   2.951  0.6352  0.0776 -0.1668
  666poe     o2 3665   2.196   5.562   2.981  0.4363  0.2510  0.4597
  666poe    c23 3666   2.279   5.613   2.878 -0.2985 -0.3349 -0.4413
  666poe    c23 3667   2.403   5.689   2.931 -0.2815 -0.4940 -0.2514
  666poe     o2 3668   2.437   5.614   3.045 -0.1397 -0.0777 -0.0188
  666poe    c23 3669   2.550   5.655   3.118 -0.2423 -0.7339  0.5244
  666poe    c23 3670   2.508   5.741   3.238  0.1121  0.0643  0.0916
  666poe     o2 3671   2.503   5.879   3.214  0.0063  0.0910  0.2617
  666poe    c31 3672   2.411   5.935   3.305 -0.3727  0.1445 -0.1472
  667poe    c31 3673   0.454   3.616   3.762 -0.4788 -1.1866  0.3148
  667poe     o2 3674   0.354   3.647   3.668  0.3415  0.3143 -0.0998
  667poe    c23 3675   0.253   3.721   3.734 -0.0004 -0.0754 -0.1802
  667poe    c23 3676   0.160   3.778   3.625 -0.4226  0.0019  0.2205
  667poe     o2 3677   0.145   3.672   3.534 -0.0051  0.1871 -0.0681
  667poe    c23 3678   0.060   3.700   3.425 -0.1513  0.7036  0.1764
  667poe    c23 3679   0.063   3.583   3.324 -0.2872  1.0090 -0.1853
  667poe     o2 3680   0.195   3.566   3.278 -0.3046  0.1595  0.0577
  667poe    c23 3681   0.210   3.452   3.198  0.4040 -0.3520  0.9047
  667poe    c23 3682   0.335   3.477   3.111 -0.0284  0.3499  0.4751
  667poe     o2 3683   0.453   3.485   3.188  0.1591  0.4878  0.1711
  667poe    c31 3684   0.564   3.513   3.105  0.1500 -0.0209 -0.0177
  668poe    c31 3685   0.793   6.305   3.403 -0.1219 -0.2150  0.0020
  668poe     o2 3686   0.796   6.328   3.542 -0.3228  0.0329 -0.0322
  668poe    c23 3687   0.714   6.239   3.615 -0.3911 -0.2433 -0.4416
  668poe    c23 3688   0.694   6.301   3.754 -0.0431 -1.0501 -0.0280
  668poe     o2 3689   0.827   6.326   3.795 -0.2367  0.0373 -0.0287
  668poe    c23 3690   0.841   6.391   3.919 -0.0315 -0.6505  0.3119
  668poe    c23 3691   0.992   6.420   3.912 -0.0785 -0.5498 -0.3754
  668poe     o2 3692   1.005   6.497   3.795 -0.5982 -0.0216 -0.0937
  668poe    c23 3693   1.145   6.509   3.778 -0.5010 -0.0698  0.6413
  668poe    c23 3694   1.175   6.531   3.629 -0.5491 -0.0994  0.6272
  668poe     o2 3695   1.085   6.446   3.561 -0.2738 -0.4267  0.6670
  668poe    c31 3696   1.148   6.409   3.441 -0.8825  0.0980  0.1748
  669poe    c31 3697   0.424   0.918   0.566 -0.1988 -0.8763  0.3034
  669poe     o2 3698   0.296   0.945   0.512 -0.0732 -0.1050  0.3747
  669poe    c23 3699   0.291   1.079   0.469  0.1590 -0.1283  0.2760
  669poe    c23 3700   0.147   1.119   0.431  0.3510  0.1608 -0.1579
  669poe     o2 3701   0.072   1.046   0.526  0.1799 -0.3474 -0.6793
  669poe    c23 3702  -0.067   1.057   0.504  0.0513  0.1674  0.3277
  669poe    c23 3703  -0.142   0.953   0.590  0.3119 -0.1928  0.1232
  669poe     o2 3704  -0.063   0.838   0.571  0.9349  0.2578 -0.0662
  669poe    c23 3705  -0.065   0.761   0.689  0.2585  0.4421  0.0457
  669poe    c23 3706   0.035   0.647   0.661  0.3374  0.4574  0.2617
  669poe     o2 3707   0.140   0.711   0.591  0.2196  0.5817  0.1958
  669poe    c31 3708   0.247   0.618   0.591 -0.3255 -0.0566 -0.0949
  670poe    c31 3709   0.349   0.315   6.474 -0.3153 -0.4902 -0.1901
  670poe     o2 3710   0.235   0.375   6.416 -0.1557  0.2437  0.2565
  670poe    c23 3711   0.163   0.464   6.499 -0.1188  0.4747  0.0437
  670poe    c23 3712   0.061   0.549   6.423 -0.3890  0.5478  0.4851
  670poe     o2 3713  -0.046   0.471   6.373  0.0918 -0.0943  0.4605
  670poe    c23 3714  -0.138   0.527   6.283  0.1540 -0.3346  0.2449
  670poe    c23 3715  -0.270   0.450   6.264 -0.1205  0.2866 -0.4088
  670poe     o2 3716  -0.242   0.339   6.182 -0.3297 -0.0384 -0.0455
  670poe    c23 3717  -0.346   0.244   6.178  0.1086 -0.5225  0.0435
  670poe    c23 3718  -0.321   0.159   6.051  0.5025  0.0778 -0.2871
  670poe     o2 3719  -0.189   0.118   6.078  0.3019 -0.0454  0.5490
  670poe    c31 3720  -0.148   0.003   6.006 -0.1274  0.0460  0.1476
  671poe    c31 3721   1.047   1.019   4.563 -0.0749 -0.1420 -0.5295
  671poe     o2 3722   1.071   0.938   4.450  0.2295 -0.2215 -0.4109
  671poe    c23 3723   0.951   0.891   4.393  0.3207  0.1137 -0.8875
  671poe    c23 3724   0.894   0.968   4.272 -0.1278  0.7217 -0.2955
  671poe     o2 3725   0.984   0.953   4.165  0.3982  0.2754  0.2011
  671poe    c23 3726   0.932   0.980   4.037  0.3538  0.4156  0.2492
  671poe    c23 3727   1.039   0.945   3.932 -0.1366 -0.4843  0.0415
  671poe     o2 3728   1.078   0.809   3.925 -0.0748 -0.4656  0.0215
  671poe    c23 3729   1.179   0.795   3.828  0.1909  0.1592  0.1979
  671poe    c23 3730   1.219   0.646   3.836  1.4218  0.4816  0.1364
  671poe     o2 3731   1.232   0.609   3.971  0.5065  0.1928  0.1496
  671poe    c31 3732   1.268   0.472   3.966  0.3076  0.1471 -0.0695
  672poe    c31 3733   1.366   4.944   3.931 -0.2110  0.6483  0.5712
  672poe     o2 3734   1.448   5.053   3.894  0.2993 -0.0637 -0.4649
  672poe    c23 3735   1.580   5.005   3.904  0.2003 -0.1840  0.3332
  672poe    c23 3736   1.685   5.106   3.855 -0.3247  0.6452  0.8826
  672poe     o2 3737   1.714   5.098   3.717 -0.6948 -0.6814  0.8617
  672poe    c23 3738   1.838   5.152   3.679 -1.0953 -0.0032  0.4809
  672poe    c23 3739   1.830   5.227   3.545 -0.0696 -0.2945  0.2441
  672poe     o2 3740   1.737   5.333   3.549  0.1430 -0.0671 -0.6104
  672poe    c23 3741   1.736   5.418   3.437  0.4902 -0.4698 -0.9221
  672poe    c23 3742   1.642   5.529   3.487  0.3694 -0.7159 -0.5986
  672poe     o2 3743   1.525   5.466   3.533  0.4134 -0.1990  0.2360
  672poe    c31 3744   1.417   5.556   3.517  0.2086 -0.7101 -1.3579
  673poe    c31 3745   1.292   3.805   5.277  0.6889  0.1726 -0.2990
  673poe     o2 3746   1.359   3.712   5.359  0.2961 -0.0111 -0.1823
  673poe    c23 3747   1.371   3.766   5.489 -0.6252 -0.2874  0.0232
  673poe    c23 3748   1.429   3.656   5.579  0.5022 -0.0783 -0.4266
  673poe     o2 3749   1.400   3.527   5.531 -0.2320 -0.0627 -0.0479
  673poe    c23 3750   1.463   3.432   5.614 -0.0906  0.0977  0.0295
  673poe    c23 3751   1.446   3.283   5.579  0.2163  0.1012 -0.1396
  673poe     o2 3752   1.308   3.257   5.571  0.2821 -0.5111  0.5722
  673poe    c23 3753   1.272   3.124   5.539 -0.0349 -0.3346  0.1799
  673poe    c23 3754   1.119   3.117   5.529  0.0116 -0.5496 -0.4186
  673poe     o2 3755   1.078   3.222   5.444 -0.5580 -0.2948  0.1586
  673poe    c31 3756   0.939   3.217   5.423 -0.5797 -0.0309  0.2414
  674poe    c31 3757   4.343   2.169   2.039 -0.1729 -0.0475  0.3562
  674poe     o2 3758   4.436   2.072   1.995 -0.6982 -0.4809  0.1961
  674poe    c23 3759   4.431   2.078   1.855 -0.1280 -0.1015  0.1899
  674poe    c23 3760   4.524   1.978   1.784  0.5169  0.1249  0.7064
  674poe     o2 3761   4.640   1.958   1.862  0.6289 -0.1788  0.4651
  674poe    c23 3762   4.720   1.861   1.799  0.1172 -0.2589 -0.0756
  674poe    c23 3763   4.859   1.864   1.865 -0.2436 -0.4612  0.7097
  674poe     o2 3764   4.843   1.848   2.004 -0.8356  0.1146  0.7097
  674poe    c23 3765   4.897   1.726   2.049 -0.4769 -0.1674 -0.4497
  674poe    c23 3766   4.854   1.694   2.194 -0.3464  0.2829 -0.3103
  674poe     o2 3767   4.718   1.655   2.193 -0.3565  0.2905  0.2854
  674poe    c31 3768   4.697   1.566   2.299  0.2815 -0.0661  0.1171
  675poe    c31 3769   6.227   4.205   6.414  0.0476 -0.5342 -0.1572
  675poe     o2 3770   6.233   4.238   6.551 -0.1911 -0.2133 -0.2237
  675poe    c23 3771   6.355   4.174   6.581  0.1817  0.7758  0.3795
  675poe    c23 3772   6.365   4.140   6.731 -0.2169 -0.3506  0.1542
  675poe     o2 3773   6.339   4.256   6.806  0.5394 -0.3030  0.3471
  675poe    c23 3774   6.323   4.223   6.942 -0.2479 -0.2240  0.2746
  675poe    c23 3775   6.294   4.345   7.032  0.7800  0.1830  0.0698
  675poe     o2 3776   6.224   4.434   6.947  0.1230 -0.3314  0.0616
  675poe    c23 3777   6.237   4.561   7.007 -0.2181 -0.1968 -0.1484
  675poe    c23 3778   6.143   4.661   6.937  0.1957  0.3024  0.0036
  675poe     o2 3779   6.207   4.717   6.824  0.3543  0.2935  0.0885
  675poe    c31 3780   6.147   4.835   6.775  0.0041 -0.1591 -0.6006
  676poe    c31 3781   4.115   0.101   0.191  0.3917  0.4976  0.4922
  676poe     o2 3782   3.977   0.086   0.163  0.4370  0.5885  0.2149
  676poe    c23 3783   3.958   0.138   0.034 -0.1632  0.1840  0.1336
  676poe    c23 3784   3.815   0.107  -0.013  0.0090 -0.0563 -0.2400
  676poe     o2 3785   3.738   0.132   0.103 -0.0024  0.1062 -0.2833
  676poe    c23 3786   3.609   0.077   0.104  0.5529 -1.2092  0.4459
  676poe    c23 3787   3.519   0.120   0.222  0.0439 -1.0606  0.0059
  676poe     o2 3788   3.605   0.129   0.333  0.0895 -0.0792 -0.1064
  676poe    c23 3789   3.530   0.133   0.452  0.0904  0.0090 -0.1084
  676poe    c23 3790   3.520   0.273   0.514  0.4736 -0.1076  0.2152
  676poe     o2 3791   3.651   0.313   0.550  0.4397  0.1092  0.0954
  676poe    c31 3792   3.694   0.309   0.684 -0.2732  0.4525  0.3414
  677poe    c31 3793   0.120   2.325   1.511  0.6906  0.6918  0.2909
  677poe     o2 3794   0.067   2.325   1.380  0.0904 -0.0091  0.5278
  677poe    c23 3795  -0.072   2.344   1.394  0.0653  0.3345 -0.1398
  677poe    c23 3796  -0.121   2.354   1.249  0.4132  0.1510 -0.2710
  677poe     o2 3797  -0.066   2.251   1.169 -0.1436 -0.2295 -0.1744
  677poe    c23 3798  -0.102   2.234   1.034  0.2766 -0.0473 -0.3116
  677poe    c23 3799  -0.064   2.088   1.004  0.0349 -0.0892 -0.4176
  677poe     o2 3800   0.067   2.076   1.056 -0.2437 -0.0339  0.3130
  677poe    c23 3801   0.117   1.951   1.014  0.1329  0.4809 -0.8029
  677poe    c23 3802   0.264   1.934   1.059 -0.2870 -0.9199  0.0965
  677poe     o2 3803   0.264   1.924   1.199 -0.2095 -0.2235  0.1450
  677poe    c31 3804   0.393   1.929   1.256 -0.1000 -0.1270 -0.1092
  678poe    c31 3805   0.540   5.889   4.020  0.0300 -0.1856 -0.1617
  678poe     o2 3806   0.426   5.927   4.094  0.1596 -0.2224  0.0566
  678poe    c23 3807   0.438   5.913   4.234 -0.0878  0.1566  0.1166
  678poe    c23 3808   0.313   5.987   4.285 -0.1795  0.3448 -0.3789
  678poe     o2 3809   0.207   5.943   4.202 -0.2283  0.4038 -0.3482
  678poe    c23 3810   0.078   5.972   4.251  0.0784 -0.0121  0.7303
  678poe    c23 3811  -0.016   5.905   4.150  0.2640 -0.0375  0.5742
  678poe     o2 3812   0.022   5.955   4.023 -0.2641 -0.3590  0.2868
  678poe    c23 3813  -0.085   5.969   3.932 -0.1519 -0.0834  0.1983
  678poe    c23 3814  -0.123   5.839   3.858  0.4226  0.3209 -0.8313
  678poe     o2 3815  -0.021   5.780   3.780  0.2964 -0.6963 -0.2397
  678poe    c31 3816  -0.073   5.674   3.703  0.1907 -0.3670 -0.6238
  679poe    c31 3817   0.518   1.552   5.547 -0.0423  0.2658  0.2206
  679poe     o2 3818   0.430   1.501   5.450  0.7039 -0.0040 -0.3306
  679poe    c23 3819   0.341   1.601   5.406  0.1484 -0.4295 -0.1860
  679poe    c23 3820   0.246   1.543   5.299 -0.5988  0.0859  0.1850
  679poe     o2 3821   0.330   1.449   5.236 -0.1187  0.5035  0.1986
  679poe    c23 3822   0.413   1.503   5.135  0.3795 -0.0233  0.3235
  679poe    c23 3823   0.523   1.395   5.135  0.3097 -0.0971 -0.2534
  679poe     o2 3824   0.558   1.350   5.264  0.1740 -0.0064 -0.1844
  679poe    c23 3825   0.645   1.239   5.264  0.4676  0.2229 -0.2292
  679poe    c23 3826   0.671   1.207   5.413 -0.5092  0.2668 -0.0459
  679poe     o2 3827   0.543   1.216   5.471 -0.5212  0.0346 -0.0340
  679poe    c31 3828   0.539   1.149   5.595  0.0047  0.3074  0.1315
  680poe    c31 3829   3.226   4.061   2.756 -0.4438 -0.3483 -0.5783
  680poe     o2 3830   3.181   4.155   2.851 -0.1685 -0.4274 -0.3664
  680poe    c23 3831   3.040   4.157   2.857 -0.1712 -0.6099 -0.3743
  680poe    c23 3832   2.982   4.257   2.959  0.2224 -0.7904  0.0326
  680poe     o2 3833   3.014   4.224   3.092  0.1059 -0.0323  0.2526
  680poe    c23 3834   2.927   4.132   3.153 -0.3822 -0.0781 -0.4987
  680poe    c23 3835   2.924   4.148   3.307 -0.0869  0.5170 -0.5508
  680poe     o2 3836   3.061   4.143   3.340 -0.2939  0.2385  0.2767
  680poe    c23 3837   3.082   4.103   3.473  0.2922  0.0286  0.1205
  680poe    c23 3838   3.232   4.070   3.491  0.1921 -0.2085  0.5321
  680poe     o2 3839   3.305   4.149   3.401 -0.0660 -0.3178  0.2254
  680poe    c31 3840   3.427   4.181   3.463 -0.0512 -0.1424  0.1063
  681poe    c31 3841   1.194   3.435   3.951  0.6582  0.0810  0.3808
  681poe     o2 3842   1.141   3.565   3.956  0.6151  0.0705  0.1911
  681poe    c23 3843   1.093   3.586   4.086  0.4751  0.4926  0.0747
  681poe    c23 3844   1.194   3.633   4.193 -0.2063  0.2122  0.8597
  681poe     o2 3845   1.298   3.548   4.236  0.2727  0.3427 -0.0121
  681poe    c23 3846   1.255   3.435   4.309 -0.4016  0.3983 -0.3124
  681poe    c23 3847   1.378   3.360   4.364 -0.3962  0.3163 -0.4367
  681poe     o2 3848   1.470   3.459   4.404  0.0529 -0.1514 -0.3065
  681poe    c23 3849   1.569   3.401   4.487  0.0371  0.4946  0.1742
  681poe    c23 3850   1.669   3.516   4.512  0.0619  0.3818  0.6000
  681poe     o2 3851   1.671   3.597   4.396  0.1395 -0.5398 -0.0548
  681poe    c31 3852   1.743   3.718   4.407 -0.0140 -0.4935  0.4821
  682poe    c31 3853   4.731   1.405   0.599 -0.8201  0.1654  0.2802
  682poe     o2 3854   4.799   1.383   0.720  0.2162 -0.0944 -0.3357
  682poe    c23 3855   4.716   1.427   0.826  0.3108 -0.2661 -0.1894
  682poe    c23 3856   4.783   1.422   0.965  0.2853  0.2097 -0.1591
  682poe     o2 3857   4.834   1.295   0.999  0.4760  0.2723 -0.2099
  682poe    c23 3858   4.867   1.302   1.136  0.6056  0.3832 -0.2462
  682poe    c23 3859   4.925   1.166   1.180  0.1187  0.0145 -0.7242
  682poe     o2 3860   4.855   1.047   1.148  0.0084 -0.0213 -0.3629
  682poe    c23 3861   4.937   0.937   1.182 -0.3938 -0.1333  0.2554
  682poe    c23 3862   4.893   0.812   1.105 -0.3347 -0.0816  0.1373
  682poe     o2 3863   4.827   0.860   0.990  0.0687  0.1469  0.0017
  682poe    c31 3864   4.802   0.759   0.895 -0.4390  0.4653 -0.2053
  683poe    c31 3865   2.184   6.594   4.338 -0.4684 -0.1357 -0.6204
  683poe     o2 3866   2.113   6.669   4.242 -0.4707  0.5542 -0.0822
  683poe    c23 3867   2.187   6.784   4.207 -0.3003  0.3964 -0.2419
  683poe    c23 3868   2.100   6.882   4.126  0.1043  0.4125 -0.6580
  683poe     o2 3869   2.081   6.802   4.012 -0.3534 -0.5101  0.0558
  683poe    c23 3870   2.000   6.868   3.917 -0.1373 -0.2420  0.0590
  683poe    c23 3871   1.980   6.773   3.798  0.0777 -0.2490  0.0282
  683poe     o2 3872   1.927   6.658   3.859 -0.4776 -0.0063  0.0057
  683poe    c23 3873   1.871   6.557   3.779 -0.0712 -0.1476 -0.1023
  683poe    c23 3874   1.962   6.485   3.677  0.3212  0.5264 -0.2348
  683poe     o2 3875   2.077   6.426   3.733  0.1475  0.2020 -0.2184
  683poe    c31 3876   2.136   6.345   3.634 -0.0095  0.3107 -0.4035
  684poe    c31 3877   3.659   4.978   0.757  0.0007  0.4453  0.1585
  684poe     o2 3878   3.792   4.974   0.803  0.2257 -0.2079 -0.5183
  684poe    c23 3879   3.871   5.031   0.702  0.1297  0.2076 -0.3650
  684poe    c23 3880   4.012   5.046   0.762 -0.1372 -0.2660  0.3887
  684poe     o2 3881   4.018   5.113   0.885  0.3627 -0.2469  0.3549
  684poe    c23 3882   4.153   5.124   0.927  0.3217  0.4185  0.3319
  684poe    c23 3883   4.156   5.125   1.081  0.1235  0.0458  0.3409
  684poe     o2 3884   4.068   5.230   1.114  0.2413  0.2632 -0.0264
  684poe    c23 3885   4.060   5.244   1.254  0.6478  0.2804 -0.0057
  684poe    c23 3886   3.949   5.349   1.268  0.1682 -0.2053 -0.1577
  684poe     o2 3887   3.845   5.312   1.180  0.1105  0.5481 -0.4136
  684poe    c31 3888   3.746   5.412   1.194 -0.1732  0.2612 -0.3398
  685poe    c31 3889   4.339   5.753   3.775 -0.0675 -0.1287 -0.2003
  685poe     o2 3890   4.246   5.859   3.767  0.3234  0.2278 -0.0634
  685poe    c23 3891   4.122   5.842   3.832  0.0308  0.1041 -0.6555
  685poe    c23 3892   4.038   5.972   3.840 -0.2208 -0.1233  0.5936
  685poe     o2 3893   4.121   6.071   3.895 -0.2825  0.1986  0.1132
  685poe    c23 3894   4.033   6.181   3.905 -0.1656  0.3302 -0.2911
  685poe    c23 3895   4.118   6.302   3.946  0.1200  0.0985 -0.1898
  685poe     o2 3896   4.241   6.292   3.878 -0.0735 -0.8781 -0.4103
  685poe    c23 3897   4.308   6.416   3.882 -0.0002 -0.9257 -0.1883
  685poe    c23 3898   4.446   6.420   3.812 -0.1896  0.2575 -0.5112
  685poe     o2 3899   4.442   6.407   3.672  0.0123  0.3120 -0.5224
  685poe    c31 3900   4.574   6.413   3.624  0.0730 -0.2592 -0.4297
  686poe    c31 3901   5.323   5.030   4.905 -0.1412 -0.0225  0.2650
  686poe     o2 3902   5.408   5.137   4.870 -0.3090  0.1745  0.4573
  686poe    c23 3903   5.346   5.263   4.882  0.2341  0.5687 -0.7789
  686poe    c23 3904   5.463   5.363   4.883  0.3113  0.4701  0.0263
  686poe     o2 3905   5.567   5.313   4.964  0.1090  0.5018  0.3105
  686poe    c23 3906   5.674   5.406   4.967  0.3660  0.2260 -0.1534
  686poe    c23 3907   5.797   5.343   5.035  0.1409 -0.1604 -0.0938
  686poe     o2 3908   5.794   5.211   4.986  0.1688 -0.0537 -0.3916
  686poe    c23 3909   5.889   5.122   5.039  0.0783 -0.0714 -0.2565
  686poe    c23 3910   6.002   5.089   4.940  0.1631  0.1226 -0.2227
  686poe     o2 3911   5.946   5.010   4.838  0.5660 -0.0418 -0.3175
  686poe    c31 3912   6.059   4.962   4.767  1.0004  0.2934  0.1407
  687poe    c31 3913   5.064   0.135   1.223  0.0942  0.2053  0.0049
  687poe     o2 3914   4.953   0.049   1.218  0.3744 -0.2044  0.7246
  687poe    c23 3915   4.948  -0.031   1.334 -0.0724 -0.3526  0.6065
  687poe    c23 3916   4.827  -0.125   1.314 -0.1514 -0.2322  0.5198
  687poe     o2 3917   4.711  -0.054   1.278  0.1414 -0.0695 -0.1342
  687poe    c23 3918   4.596  -0.124   1.320  0.1612 -0.0966 -0.1247
  687poe    c23 3919   4.473  -0.039   1.284  0.1621  0.0170  0.1397
  687poe     o2 3920   4.480  -0.008   1.146 -0.0740  0.2401  0.1773
  687poe    c23 3921   4.362   0.058   1.107 -0.3636 -0.4443 -0.1210
  687poe    c23 3922   4.362   0.062   0.953 -0.0599  0.6304 -0.1040
  687poe     o2 3923   4.494   0.098   0.917 -0.0103  0.2461 -0.3086
  687poe    c31 3924   4.519   0.079   0.779  0.3860  0.1710 -0.2262
  688poe    c31 3925   3.305   2.797   0.473  0.3484 -0.4067  0.0686
  688poe     o2 3926   3.191   2.715   0.457  0.0255 -0.0042  0.2741
  688poe    c23 3927   3.195   2.617   0.558  0.0377 -0.3466 -0.0548
  688poe    c23 3928   3.090   2.507   0.535 -0.3071 -0.1529  0.5813
  688poe     o2 3929   3.104   2.445   0.409 -0.1991  0.6351  0.1987
  688poe    c23 3930   3.004   2.346   0.399  0.6042 -0.2194  0.4125
  688poe    c23 3931   3.081   2.231   0.333 -0.0247 -0.3206 -0.1538
  688poe     o2 3932   3.144   2.284   0.218  0.1235  0.3156  0.2176
  688poe    c23 3933   3.227   2.201   0.140 -0.4484  0.2277 -0.3112
  688poe    c23 3934   3.297   2.279   0.027 -0.8891  0.3027 -0.5324
  688poe     o2 3935   3.342   2.391   0.100 -0.8377 -0.0353 -0.0451
  688poe    c31 3936   3.439   2.473   0.040 -0.1473 -0.3186  0.6512
  689poe    c31 3937   2.978   5.446   0.533 -0.1898 -0.6548 -0.6000
  689poe     o2 3938   3.107   5.421   0.583 -0.2840 -0.2408 -0.1324
  689poe    c23 3939   3.195   5.400   0.475  0.0017 -0.2856  0.1076
  689poe    c23 3940   3.336   5.440   0.522  0.0708 -0.3157 -0.0711
  689poe     o2 3941   3.332   5.393   0.655 -0.0702 -0.1597 -0.0189
  689poe    c23 3942   3.464   5.400   0.706 -0.2935  0.4977  0.4840
  689poe    c23 3943   3.446   5.333   0.844 -0.1015 -0.5649  0.0087
  689poe     o2 3944   3.347   5.406   0.913  0.2855  0.2812 -0.3053
  689poe    c23 3945   3.393   5.495   1.012  0.3646 -0.5572  0.4276
  689poe    c23 3946   3.288   5.522   1.122  0.1423  0.3203  0.0142
  689poe     o2 3947   3.158   5.546   1.074 -0.1233 -0.7735  0.1608
  689poe    c31 3948   3.075   5.529   1.186 -0.0725  0.2784  0.3648
  690poe    c31 3949   3.956   5.758   5.885  0.2637 -0.2763 -0.0320
  690poe     o2 3950   3.903   5.628   5.905 -0.6861  0.0818 -0.1541
  690poe    c23 3951   3.981   5.525   5.848 -0.4356  0.0532  0.2366
  690poe    c23 3952   3.926   5.383   5.870 -0.5049 -0.0143 -0.3577
  690poe     o2 3953   3.901   5.391   6.009 -0.0434 -0.0384 -0.2693
  690poe    c23 3954   3.845   5.273   6.063  0.5211 -0.0794  0.2289
  690poe    c23 3955   3.799   5.319   6.203  0.5250  0.2113  0.1346
  690poe     o2 3956   3.751   5.451   6.191 -0.1473 -0.0574 -0.1767
  690poe    c23 3957   3.750   5.519   6.315  0.0144 -0.2969 -0.0450
  690poe    c23 3958   3.683   5.651   6.275  0.4386  0.2162  0.9122
  690poe     o2 3959   3.737   5.684   6.149 -0.3862  0.0625  0.5110
  690poe    c31 3960   3.685   5.811   6.116 -0.0878  0.1951  0.5416
  691poe    c31 3961   1.317   3.118   6.739  0.1422  0.5520 -0.1987
  691poe     o2 3962   1.205   3.064   6.673  0.0311 -0.0301  0.4511
  691poe    c23 3963   1.192   2.925   6.691 -0.3565 -0.0793 -0.1754
  691poe    c23 3964   1.066   2.865   6.626  0.0341  0.0385 -1.0642
  691poe     o2 3965   0.950   2.903   6.697  0.6517  0.0689 -0.0480
  691poe    c23 3966   0.874   2.787   6.722  0.2063  0.2285 -0.6320
  691poe    c23 3967   0.749   2.806   6.810  0.5741  0.3123 -0.1244
  691poe     o2 3968   0.771   2.870   6.934  0.1862 -0.2219  0.2239
  691poe    c23 3969   0.658   2.940   6.982  0.2989 -0.0988  0.3089
  691poe    c23 3970   0.682   2.983   7.128  0.0902 -0.1667  0.3639
  691poe     o2 3971   0.808   3.046   7.123  0.0849 -0.1945 -0.2253
  691poe    c31 3972   0.829   3.108   7.248  0.0243 -0.6422  0.0074
  692poe    c31 3973   6.301   0.259   1.315 -0.4933  0.1961 -0.8647
  692poe     o2 3974   6.379   0.220   1.204  0.3288 -0.1249 -0.1750
  692poe    c23 3975   6.504   0.179   1.256  0.4174  0.1674 -0.1570
  692poe    c23 3976   6.605   0.121   1.154  0.8818  0.1482  0.3109
  692poe     o2 3977   6.548   0.015   1.081  0.3381  0.3127  0.4921
  692poe    c23 3978   6.493  -0.097   1.148  0.4148 -0.2548 -0.3851
  692poe    c23 3979   6.490  -0.216   1.050 -0.2472 -0.4094 -0.1879
  692poe     o2 3980   6.422  -0.161   0.939 -1.0676 -0.2358  0.3957
  692poe    c23 3981   6.404  -0.236   0.822  0.2583 -0.1974  0.1483
  692poe    c23 3982   6.320  -0.136   0.740  0.3504 -0.1406  0.1236
  692poe     o2 3983   6.398  -0.019   0.731 -0.4146  0.3799  0.1356
  692poe    c31 3984   6.367   0.043   0.608 -0.5517  0.2174  0.0880
  693poe    c31 3985   3.229   2.092   4.524  0.3758 -0.2957  0.5118
  693poe     o2 3986   3.149   2.166   4.434  0.3415 -0.4806  0.3906
  693poe    c23 3987   3.124   2.298   4.476 -0.1212 -0.4169 -0.0756
  693poe    c23 3988   3.129   2.376   4.344 -0.0244 -0.1588  0.0803
  693poe     o2 3989   3.039   2.305   4.262  0.1510 -0.1562 -0.1129
  693poe    c23 3990   2.968   2.373   4.160 -0.2432 -0.2942  0.0682
  693poe    c23 3991   2.868   2.283   4.086  0.0989 -0.3932 -0.2758
  693poe     o2 3992   2.793   2.196   4.168  0.0039 -0.0125  0.0408
  693poe    c23 3993   2.716   2.102   4.097  0.7038 -0.5633  0.0066
  693poe    c23 3994   2.616   2.032   4.191  0.4262  0.2075  0.2894
  693poe     o2 3995   2.661   1.950   4.295  0.1647 -0.2479  0.0456
  693poe    c31 3996   2.566   1.925   4.396  0.2847  0.1888  0.2685
  694poe    c31 3997   3.927   1.933   6.279  0.4438 -0.0856  0.0473
  694poe     o2 3998   3.946   2.003   6.158  0.3071  0.1102  0.1385
  694poe    c23 3999   3.999   2.130   6.189  0.5729  0.1355 -0.4198
  694poe    c23 4000   3.984   2.219   6.064 -0.5813 -0.2659 -0.5817
  694poe     o2 4001   4.037   2.151   5.953 -0.1188 -0.4707 -0.2363
  694poe    c23 4002   4.009   2.217   5.831 -0.0002 -0.1202 -0.0766
  694poe    c23 4003   3.942   2.105   5.750 -0.0002  0.1424 -0.4408
  694poe     o2 4004   3.872   2.020   5.838 -0.7427  0.5922 -0.5912
  694poe    c23 4005   3.789   1.925   5.775  0.1921 -0.5003 -0.2160
  694poe    c23 4006   3.692   1.882   5.886  0.0771  0.2800 -0.0068
  694poe     o2 4007   3.776   1.842   5.993 -0.5302  0.2379  0.4609
  694poe    c31 4008   3.705   1.765   6.087 -0.0521  0.1536  0.7516
  695poe    c31 4009   5.904   5.150   5.647  0.1638  0.5330  0.2929
  695poe     o2 4010   5.805   5.153   5.748  0.0604 -0.6720  0.2494
  695poe    c23 4011   5.868   5.170   5.874 -0.3485  0.7629  0.2852
  695poe    c23 4012   5.779   5.212   5.992  0.4677  0.2488  1.0924
  695poe     o2 4013   5.738   5.342   5.957  0.4406 -0.0144  0.1326
  695poe    c23 4014   5.643   5.400   6.044  0.9930  0.2374  0.5672
  695poe    c23 4015   5.609   5.545   6.004 -0.2031 -0.2676 -0.3034
  695poe     o2 4016   5.575   5.538   5.867 -0.3575  0.0607 -0.2807
  695poe    c23 4017   5.513   5.652   5.812  0.3391  0.5742 -0.0175
  695poe    c23 4018   5.459   5.622   5.671  0.2036 -0.0169  0.1594
  695poe     o2 4019   5.561   5.551   5.606  0.4584  0.1012  0.4299
  695poe    c31 4020   5.520   5.552   5.471 -0.0740  0.3442  0.5925
  696poe    c31 4021   5.125   5.539   0.868 -0.4011 -0.0205  1.2307
  696poe     o2 4022   4.999   5.507   0.813  0.0426 -0.0624  0.2048
  696poe    c23 4023   4.993   5.368   0.787 -0.0463 -0.1069  0.4604
  696poe    c23 4024   4.871   5.316   0.709 -0.0836  0.8154 -0.1117
  696poe     o2 4025   4.869   5.358   0.575  0.7485  0.1686 -0.3291
  696poe    c23 4026   4.778   5.280   0.501  0.1208  0.4083  0.1885
  696poe    c23 4027   4.705   5.363   0.393  0.0193  0.0188 -0.0449
  696poe     o2 4028   4.813   5.441   0.346  0.0896  0.0119  0.1034
  696poe    c23 4029   4.760   5.522   0.243  0.2036 -0.1262 -0.0657
  696poe    c23 4030   4.875   5.617   0.201 -0.4407  0.6792 -0.0375
  696poe     o2 4031   4.936   5.658   0.322 -0.4663  0.6996 -0.0314
  696poe    c31 4032   5.015   5.767   0.282  0.5291  0.4181  1.1263
  697poe    c31 4033   3.047   3.397   1.150  0.2773  0.0529 -0.3822
  697poe     o2 4034   2.944   3.305   1.124 -0.2410  0.5530 -0.1173
  697poe    c23 4035   2.816   3.360   1.145 -0.3267  0.2023  0.3048
  697poe    c23 4036   2.737   3.379   1.014  0.5291  0.1059 -0.2284
  697poe     o2 4037   2.713   3.253   0.956  0.2805  0.0582 -0.0206
  697poe    c23 4038   2.600   3.263   0.873  0.4843 -0.0698 -0.3124
  697poe    c23 4039   2.551   3.121   0.838 -0.3166  0.2423 -0.4710
  697poe     o2 4040   2.666   3.049   0.803 -0.1089  0.0740  0.5348
  697poe    c23 4041   2.639   2.922   0.747  0.3470  0.4286 -0.5009
  697poe    c23 4042   2.773   2.863   0.698  0.2065 -0.5029  0.2307
  697poe     o2 4043   2.857   2.878   0.810  0.0464 -0.0672  0.2936
  697poe    c31 4044   2.987   2.844   0.768 -0.2112 -0.4769 -0.1787
  698poe    c31 4045   6.718   0.700   6.642 -0.2505  0.2039 -0.3987
  698poe     o2 4046   6.668   0.753   6.763 -0.2716 -0.0081 -0.3154
  698poe    c23 4047   6.592   0.867   6.731  0.4197  0.4737 -0.2652
  698poe    c23 4048   6.582   0.945   6.863  0.5590  0.3417 -0.1760
  698poe     o2 4049   6.538   0.846   6.955 -0.4517  0.7468 -0.2103
  698poe    c23 4050   6.517   0.904   7.082  0.2659  0.6658 -0.0501
  698poe    c23 4051   6.466   0.787   7.167  0.2993  0.2384 -0.6166
  698poe     o2 4052   6.565   0.690   7.138  0.3639 -0.0264  0.4531
  698poe    c23 4053   6.527   0.567   7.195  0.0292 -0.3803 -0.5161
  698poe    c23 4054   6.637   0.476   7.137 -0.1610 -0.8762 -0.1042
  698poe     o2 4055   6.642   0.504   6.999 -0.5585 -0.1099  0.0304
  698poe    c31 4056   6.644   0.395   6.909  0.1647 -0.6678  0.7033
  699poe    c31 4057   6.360   0.209   3.917 -0.5077  0.3582 -0.4460
  699poe     o2 4058   6.314   0.278   3.804  0.1965  1.0441 -0.3246
  699poe    c23 4059   6.388   0.235   3.691 -0.1460  0.2269 -0.2485
  699poe    c23 4060   6.405   0.350   3.590  0.3294  0.3112 -0.0751
  699poe     o2 4061   6.267   0.374   3.575  0.1990 -0.2734  0.1658
  699poe    c23 4062   6.250   0.492   3.499  0.0359 -0.3875  0.0249
  699poe    c23 4063   6.116   0.555   3.539  0.0111 -0.6150  0.3111
  699poe     o2 4064   6.112   0.546   3.679  0.5484  0.8037  0.4384
  699poe    c23 4065   5.991   0.600   3.728  0.3945  0.6583  0.2205
  699poe    c23 4066   5.979   0.562   3.877 -0.3605  0.4876  0.1166
  699poe     o2 4067   6.059   0.446   3.885 -0.5777  0.3474  0.2582
  699poe    c31 4068   6.080   0.407   4.019  0.6447  0.5553  0.1350
  700poe    c31 4069   5.829   1.176   0.142  0.2225  0.3347 -0.3426
  700poe     o2 4070   5.890   1.100   0.244 -0.1230  0.3581 -0.1153
  700poe    c23 4071   6.014   1.150   0.289  0.0084  0.1590 -0.2504
  700poe    c23 4072   6.050   1.057   0.406 -0.5227  0.0112 -0.2003
  700poe     o2 4073   5.998   0.931   0.373 -0.2875 -0.1485  0.0324
  700poe    c23 4074   6.009   0.848   0.486 -0.5976  0.1354  0.2741
  700poe    c23 4075   5.948   0.712   0.449 -0.1007 -0.0476  0.1162
  700poe     o2 4076   5.828   0.727   0.377 -0.1935  0.2339  0.3293
  700poe    c23 4077   5.744   0.619   0.410  0.2281 -0.0678  0.4135
  700poe    c23 4078   5.613   0.622   0.329  0.3654 -0.3243  0.1799
  700poe     o2 4079   5.539   0.736   0.368 -0.3670 -0.7610  0.0946
  700poe    c31 4080   5.413   0.737   0.306 -0.1697 -0.0175 -0.2991
  701poe    c31 4081   5.619   0.376   2.457 -0.6384 -0.1525 -0.0579
  701poe     o2 4082   5.707   0.315   2.548 -0.2172  0.6004  0.0455
  701poe    c23 4083   5.834   0.377   2.558 -0.0571  0.2903 -0.0563
  701poe    c23 4084   5.934   0.269   2.602 -0.2176  0.1663  0.0079
  701poe     o2 4085   5.870   0.189   2.699  0.3113 -0.1041  0.1391
  701poe    c23 4086   5.967   0.090   2.727  0.2641 -0.1429  0.1664
  701poe    c23 4087   5.901   0.002   2.835  0.7355  0.1921  0.7375
  701poe     o2 4088   5.772  -0.046   2.804  0.6060  0.4527  0.8755
  701poe    c23 4089   5.740  -0.145   2.899  0.0913  0.3326  0.5789
  701poe    c23 4090   5.603  -0.202   2.857  0.2901  0.2562  0.0258
  701poe     o2 4091   5.502  -0.104   2.870  0.0826  0.0342  0.0939
  701poe    c31 4092   5.375  -0.164   2.857 -0.1772  0.6256 -0.1328
  702poe    c31 4093   0.881   1.780   1.437 -0.3114  0.2973  0.6245
  702poe     o2 4094   0.996   1.780   1.518  0.0095 -0.0939  0.1818
  702poe    c23 4095   1.113   1.736   1.454  0.1024  0.5254 -0.0805
  702poe    c23 4096   1.223   1.732   1.562 -0.1364  0.0877  0.1469
  702poe     o2 4097   1.214   1.856   1.628 -0.3764 -0.0733  0.4233
  702poe    c23 4098   1.313   1.874   1.727 -0.0255  0.4046 -0.0045
  702poe    c23 4099   1.300   2.006   1.805  0.4359  0.2491  0.3365
  702poe     o2 4100   1.180   2.003   1.880  0.2621  0.1191  0.0525
  702poe    c23 4101   1.150   2.113   1.963  0.2181 -0.1277  0.3616
  702poe    c23 4102   1.038   2.069   2.059 -0.3768  0.3315 -0.1160
  702poe     o2 4103   0.918   2.032   1.995 -0.4341  0.5052 -0.1089
  702poe    c31 4104   0.821   2.002   2.093 -0.0097 -0.4763  0.0256
  703poe    c31 4105   2.727   1.951   6.791 -0.4932  0.5916  0.1257
  703poe     o2 4106   2.770   2.054   6.705  0.3451  0.2901  0.1774
  703poe    c23 4107   2.895   2.025   6.645 -0.1290 -0.2485 -0.5668
  703poe    c23 4108   2.956   2.149   6.578  0.5318 -0.4288 -0.3025
  703poe     o2 4109   2.974   2.258   6.666 -0.3269  0.0891 -0.7555
  703poe    c23 4110   3.058   2.357   6.612 -0.3485  0.3759 -0.2731
  703poe    c23 4111   3.074   2.462   6.722 -0.4986 -0.1773  0.2809
  703poe     o2 4112   2.961   2.546   6.737 -0.2041  0.2289  0.2618
  703poe    c23 4113   2.951   2.619   6.857 -0.2517  0.2737  0.2305
  703poe    c23 4114   2.810   2.681   6.853 -0.0875  0.5888 -0.9284
  703poe     o2 4115   2.717   2.584   6.809  0.1045  0.0769 -0.2257
  703poe    c31 4116   2.591   2.646   6.821  0.0993  0.0420 -0.1045
  704poe    c31 4117   1.334   0.746   4.532  0.1101  0.0360 -0.1587
  704poe     o2 4118   1.292   0.636   4.609  0.4671 -0.1105 -0.1681
  704poe    c23 4119   1.151   0.641   4.616  0.4632 -0.0994 -0.2642
  704poe    c23 4120   1.111   0.547   4.731 -1.4085  0.7093 -0.2166
  704poe     o2 4121   1.173   0.577   4.853 -0.2494  0.0034 -0.6186
  704poe    c23 4122   1.138   0.491   4.959  0.3666  0.5621  0.0568
  704poe    c23 4123   1.179   0.574   5.082 -0.0765  0.7717  0.0659
  704poe     o2 4124   1.311   0.624   5.078  0.1864  0.0771 -0.0546
  704poe    c23 4125   1.365   0.618   5.208 -0.4950  0.2641  0.2405
  704poe    c23 4126   1.510   0.668   5.196 -0.6725  0.5071 -0.9934
  704poe     o2 4127   1.557   0.622   5.071 -0.0478 -0.3229 -0.4653
  704poe    c31 4128   1.679   0.675   5.025  0.0406  0.1819  0.3385
  705poe    c31 4129   6.718   2.153   3.794 -0.1034 -0.6451 -0.1620
  705poe     o2 4130   6.849   2.101   3.791  0.1693  0.0009  0.4449
  705poe    c23 4131   6.840   1.966   3.753  0.9302  0.0787 -0.0307
  705poe    c23 4132   6.977   1.908   3.710  0.7529 -0.2396 -0.1746
  705poe     o2 4133   7.042   1.873   3.830 -0.1403  0.6000  0.5802
  705poe    c23 4134   7.176   1.837   3.805 -0.1697  0.7316  0.2291
  705poe    c23 4135   7.228   1.771   3.934 -0.3613  0.4599  0.1670
  705poe     o2 4136   7.208   1.862   4.040  0.7364  0.4114  0.4263
  705poe    c23 4137   7.242   1.799   4.161  0.1288 -0.4287  0.1697
  705poe    c23 4138   7.241   1.923   4.253  0.0995 -0.2586 -0.0591
  705poe     o2 4139   7.117   1.985   4.230  0.1386 -0.1340  0.0689
  705poe    c31 4140   7.105   2.098   4.315  0.1684 -0.2065  0.1694
  706poe    c31 4141   2.830   1.153   2.631  0.8036  0.1206  0.1885
  706poe     o2 4142   2.854   1.271   2.704 -0.2572  0.2922  0.2791
  706poe    c23 4143   2.978   1.255   2.769 -0.3633 -0.1554  0.3738
  706poe    c23 4144   2.992   1.358   2.883  0.1139 -0.1778  0.3361
  706poe     o2 4145   2.961   1.483   2.826 -0.1305 -0.1302  0.5716
  706poe    c23 4146   2.904   1.580   2.911 -0.3965 -0.2279  0.5058
  706poe    c23 4147   2.862   1.693   2.815  0.4300 -0.4253 -0.0981
  706poe     o2 4148   2.784   1.634   2.713  0.2828 -0.6448  0.1410
  706poe    c23 4149   2.798   1.703   2.591 -0.0546 -0.6029  0.1250
  706poe    c23 4150   2.738   1.614   2.481  0.3976 -0.4088 -0.2844
  706poe     o2 4151   2.771   1.480   2.511 -0.5674 -0.5252  0.2975
  706poe    c31 4152   2.736   1.404   2.398 -0.1358  0.9026 -0.8266
  707poe    c31 4153   3.123   4.481   0.669  0.4323  0.2053 -0.2539
  707poe     o2 4154   3.175   4.428   0.789  0.4819 -0.4100 -0.5439
  707poe    c23 4155   3.275   4.504   0.854  0.1628  0.1345 -0.6823
  707poe    c23 4156   3.302   4.441   0.992  0.3081  0.3029 -0.6328
  707poe     o2 4157   3.317   4.303   0.967  0.2906  0.2250 -0.2184
  707poe    c23 4158   3.386   4.243   1.075  0.8775  0.0915 -0.6614
  707poe    c23 4159   3.329   4.101   1.095 -0.2085  0.5724 -0.2389
  707poe     o2 4160   3.196   4.105   1.141 -0.1394  0.0164  0.0185
  707poe    c23 4161   3.141   3.975   1.143  0.1586 -0.1135 -0.0572
  707poe    c23 4162   2.992   3.998   1.175  0.2883  0.4818  0.1404
  707poe     o2 4163   2.932   4.079   1.076 -0.3320 -0.1922 -0.0438
  707poe    c31 4164   2.798   4.100   1.114 -0.0597  0.1538  0.7418
  708poe    c31 4165   5.276   0.790   2.286  0.4505 -0.3433 -0.0098
  708poe     o2 4166   5.270   0.833   2.152 -0.1815 -0.1175  0.0860
  708poe    c23 4167   5.224   0.965   2.133 -0.0071 -0.1440 -0.5327
  708poe    c23 4168   5.237   1.026   1.992  0.1437  0.3740 -0.2976
  708poe     o2 4169   5.365   1.064   1.946  0.2228  0.4755  0.0036
  708poe    c23 4170   5.377   1.113   1.814  0.1995  0.2733 -0.0735
  708poe    c23 4171   5.526   1.104   1.775  0.1778 -0.9508  0.0698
  708poe     o2 4172   5.595   1.156   1.886  0.0145 -0.3306 -0.1126
  708poe    c23 4173   5.736   1.157   1.876  0.0828 -0.6408  0.7231
  708poe    c23 4174   5.784   1.252   1.986  0.0523  0.0764  0.1270
  708poe     o2 4175   5.719   1.237   2.110  0.0943  0.0917  0.1509
  708poe    c31 4176   5.768   1.310   2.221 -0.0799  0.4829 -0.0282
  709poe    c31 4177   3.029   4.030   6.631 -0.0596 -0.1420 -0.3662
  709poe     o2 4178   2.926   3.958   6.696 -0.2787  0.2030 -0.3298
  709poe    c23 4179   2.806   4.030   6.673 -0.3898  0.1520  0.0881
  709poe    c23 4180   2.690   3.937   6.711  0.4998 -0.8851  0.3083
  709poe     o2 4181   2.723   3.865   6.828  0.3660 -0.3872  0.6543
  709poe    c23 4182   2.641   3.755   6.861  0.1095 -0.5122 -0.3555
  709poe    c23 4183   2.700   3.705   6.995 -0.4575 -0.6229 -0.1452
  709poe     o2 4184   2.839   3.689   6.985 -0.3514  0.0170  0.2594
  709poe    c23 4185   2.916   3.695   7.103  0.0443 -0.4803  0.0330
  709poe    c23 4186   2.979   3.835   7.111  0.3178 -0.6223  0.3769
  709poe     o2 4187   3.000   3.907   6.992  0.0696 -0.0183  0.6904
  709poe    c31 4188   3.102   4.003   7.009  0.4694 -0.4285  0.6239
  710poe    c31 4189   4.030   0.163   3.873  0.0499 -0.0084  0.0663
  710poe     o2 4190   3.941   0.186   3.979  0.4913 -0.0411  0.4485
  710poe    c23 4191   3.970   0.316   4.026  0.1743  0.2516 -0.1563
  710poe    c23 4192   3.881   0.349   4.147  0.3434 -0.1560  0.0816
  710poe     o2 4193   3.884   0.231   4.224 -0.1430 -0.1678  0.0910
  710poe    c23 4194   3.807   0.229   4.342 -0.2016  0.4866  0.0636
  710poe    c23 4195   3.780   0.093   4.407 -0.1903  0.5699  0.2415
  710poe     o2 4196   3.733  -0.008   4.321  0.0636  0.2573  0.4663
  710poe    c23 4197   3.620  -0.077   4.371  0.2253  0.0168  0.4996
  710poe    c23 4198   3.600  -0.206   4.289  0.3776  0.1595  0.2368
  710poe     o2 4199   3.564  -0.173   4.156 -0.2173 -0.7768  0.1594
  710poe    c31 4200   3.426  -0.184   4.129 -0.2084 -0.0161 -0.1914
  711poe    c31 4201   4.938   1.582   2.608  0.1425 -0.1143  0.3644
  711poe     o2 4202   4.935   1.721   2.633 -0.7219 -0.0391 -0.1240
  711poe    c23 4203   4.907   1.733   2.771  1.1675  0.6102  0.2323
  711poe    c23 4204   4.844   1.867   2.811  0.0465  0.0823  0.2876
  711poe     o2 4205   4.921   1.986   2.803  0.2208 -0.0475  0.0186
  711poe    c23 4206   4.852   2.107   2.826  0.2417 -0.0456  0.0706
  711poe    c23 4207   4.942   2.228   2.858 -0.1903  0.0915  0.7871
  711poe     o2 4208   5.058   2.208   2.780 -0.4099  0.2861  0.4043
  711poe    c23 4209   5.178   2.274   2.814  0.0129  0.1046 -0.6974
  711poe    c23 4210   5.290   2.246   2.713  0.4104 -0.8191 -0.0228
  711poe     o2 4211   5.271   2.108   2.691 -0.2535 -0.7828  0.3104
  711poe    c31 4212   5.378   2.053   2.617 -0.3119 -0.3380 -0.1074
  712poe    c31 4213   3.261   1.782   2.811  0.2950  0.6599  0.2110
  712poe     o2 4214   3.225   1.786   2.675  0.1796  0.2490  0.2290
  712poe    c23 4215   3.188   1.658   2.627  0.8411  0.1125  0.0630
  712poe    c23 4216   3.190   1.655   2.473 -0.2989 -0.6146  0.0453
  712poe     o2 4217   3.132   1.779   2.442  0.2288 -0.3656  0.0389
  712poe    c23 4218   3.127   1.803   2.303  0.6651  0.5428  0.1736
  712poe    c23 4219   3.029   1.920   2.279 -0.0672 -0.1551 -0.2668
  712poe     o2 4220   3.059   2.038   2.350 -0.1776 -0.2097 -0.1272
  712poe    c23 4221   2.983   2.150   2.312  0.1970  0.1709  0.2408
  712poe    c23 4222   2.968   2.261   2.418  0.3342 -0.0552  0.4973
  712poe     o2 4223   2.886   2.227   2.528  0.0420 -0.1917  0.2389
  712poe    c31 4224   2.885   2.338   2.614 -0.3983 -0.2612  0.3225
  713poe    c31 4225   0.580   4.691   2.709 -0.0334  0.8698  0.5798
  713poe     o2 4226   0.486   4.795   2.722 -0.5155  0.5564 -0.3000
  713poe    c23 4227   0.440   4.805   2.855  0.3507 -0.4358  0.0889
  713poe    c23 4228   0.337   4.915   2.886  0.4842 -0.3559  0.2546
  713poe     o2 4229   0.392   5.039   2.850 -0.2829 -0.1547 -0.2613
  713poe    c23 4230   0.315   5.144   2.905 -0.3777 -0.5151  0.3018
  713poe    c23 4231   0.371   5.281   2.863 -0.0960 -0.7190  0.0052
  713poe     o2 4232   0.397   5.274   2.724 -0.5699 -0.1400 -0.1220
  713poe    c23 4233   0.436   5.402   2.681 -0.0950 -0.2114  0.0835
  713poe    c23 4234   0.488   5.372   2.539 -0.1317 -0.4552  0.1216
  713poe     o2 4235   0.591   5.276   2.552  0.1581 -0.1125  0.3623
  713poe    c31 4236   0.650   5.267   2.424 -0.3140 -0.8146  0.1894
  714poe    c31 4237   2.378   1.528   0.805 -0.0456  0.3292 -0.3232
  714poe     o2 4238   2.336   1.631   0.720 -0.0242  0.3822 -0.2696
  714poe    c23 4239   2.235   1.712   0.778  0.1076  0.0805  0.3909
  714poe    c23 4240   2.281   1.859   0.773  0.2724  0.0229  0.1724
  714poe     o2 4241   2.349   1.877   0.651  0.1091 -0.2772  0.0351
  714poe    c23 4242   2.275   1.953   0.559  0.2942  0.2015  0.2738
  714poe    c23 4243   2.345   1.923   0.425 -0.7542 -0.6548 -0.1065
  714poe     o2 4244   2.370   1.785   0.437  0.4570 -0.4218  0.2008
  714poe    c23 4245   2.384   1.717   0.314 -0.1935  0.4498 -0.3617
  714poe    c23 4246   2.439   1.576   0.340 -0.1535  0.5436  0.0624
  714poe     o2 4247   2.502   1.577   0.467 -0.4953 -0.4322  0.2464
  714poe    c31 4248   2.586   1.464   0.461  0.4979  0.3217 -0.4454
  715poe    c31 4249   5.753   0.080   4.957  0.0259 -0.2195 -0.4098
  715poe     o2 4250   5.675  -0.009   4.880 -0.9415  0.3215 -0.0615
  715poe    c23 4251   5.661   0.021   4.743  0.4382 -0.4140 -0.3782
  715poe    c23 4252   5.650  -0.112   4.665 -0.3891 -0.4095 -0.2784
  715poe     o2 4253   5.540  -0.190   4.704 -0.2629 -0.2186  0.4777
  715poe    c23 4254   5.508  -0.294   4.614  0.3910 -0.1244  0.1333
  715poe    c23 4255   5.396  -0.385   4.668 -0.0252  0.3318  0.0425
  715poe     o2 4256   5.304  -0.314   4.747  0.4444  0.4437  0.4962
  715poe    c23 4257   5.204  -0.400   4.796  0.3725  0.4717  0.3987
  715poe    c23 4258   5.112  -0.320   4.890 -0.1323  0.0590  0.2610
  715poe     o2 4259   5.187  -0.233   4.971  0.1715  0.1749 -0.1476
  715poe    c31 4260   5.107  -0.163   5.063 -0.0888 -0.6175  0.2292
  716poe    c31 4261   2.705   3.983   0.765 -1.0238  0.5784  0.4732
  716poe     o2 4262   2.649   4.014   0.639 -0.3228 -0.2386 -0.0552
  716poe    c23 4263   2.759   4.052   0.559  0.1079 -0.4846  0.4150
  716poe    c23 4264   2.701   4.087   0.421  0.0797 -0.4143  0.4450
  716poe     o2 4265   2.613   3.981   0.392 -0.0051 -0.1946 -0.1180
  716poe    c23 4266   2.511   4.018   0.302 -0.1833 -0.2874  0.0463
  716poe    c23 4267   2.402   3.910   0.323 -0.2989 -0.2175 -0.1898
  716poe     o2 4268   2.377   3.935   0.460 -0.2229 -0.4562 -0.1320
  716poe    c23 4269   2.260   4.009   0.485  0.0619 -0.0428 -0.0201
  716poe    c23 4270   2.245   4.002   0.638  0.3795 -0.3985 -0.0028
  716poe     o2 4271   2.372   4.007   0.698  0.1816 -0.5672  0.4357
  716poe    c31 4272   2.341   3.980   0.833 -0.2796 -0.4149  0.3627
  717poe    c31 4273   3.519   5.179   2.840  0.3834 -0.0498  0.5422
  717poe     o2 4274   3.599   5.158   2.954 -0.0709 -0.4070  0.7997
  717poe    c23 4275   3.594   5.026   3.001 -0.5811 -0.5034  0.4803
  717poe    c23 4276   3.713   4.984   3.089 -0.2126 -0.1468  0.1481
  717poe     o2 4277   3.748   5.093   3.172 -0.2165  0.0938 -0.1622
  717poe    c23 4278   3.811   5.059   3.294 -0.2979 -0.0657 -0.1635
  717poe    c23 4279   3.879   5.189   3.342 -0.0106 -0.3051  0.0820
  717poe     o2 4280   3.771   5.279   3.346  0.0782 -0.2065  0.2690
  717poe    c23 4281   3.805   5.408   3.391 -0.0504 -0.0885  0.0247
  717poe    c23 4282   3.697   5.509   3.437  0.0345  0.0978 -0.1830
  717poe     o2 4283   3.602   5.518   3.333 -0.0105 -0.1231 -0.1617
  717poe    c31 4284   3.501   5.609   3.369 -0.1178 -0.3643  0.1436
  718poe    c31 4285   4.925   4.670   3.668  0.1453 -0.8536 -0.1504
  718poe     o2 4286   4.787   4.652   3.692  0.0466 -0.1676 -0.2064
  718poe    c23 4287   4.744   4.519   3.682 -0.4495  0.0258 -0.7029
  718poe    c23 4288   4.592   4.518   3.704 -0.3278 -0.0835  0.1422
  718poe     o2 4289   4.516   4.618   3.640 -0.4160 -0.0955  0.2268
  718poe    c23 4290   4.407   4.562   3.571 -0.0257 -0.6781  0.0719
  718poe    c23 4291   4.413   4.611   3.426  0.1003 -0.6031  0.1024
  718poe     o2 4292   4.421   4.752   3.430  0.0715 -0.5675 -0.7415
  718poe    c23 4293   4.515   4.808   3.341 -0.0277  0.2796 -0.3229
  718poe    c23 4294   4.661   4.783   3.380 -0.2248 -0.1600  0.1385
  718poe     o2 4295   4.698   4.834   3.506  0.3444  0.2692 -0.1978
  718poe    c31 4296   4.778   4.949   3.490  0.1242  0.4145 -0.2647
  719poe    c31 4297   2.323   5.841   1.418  0.2757  0.3104 -0.2156
  719poe     o2 4298   2.249   5.733   1.366  0.1647  0.2098  0.1456
  719poe    c23 4299   2.124   5.727   1.432  0.4725  0.1356  0.7270
  719poe    c23 4300   2.027   5.631   1.362  0.4799  0.4411  0.2914
  719poe     o2 4301   2.101   5.511   1.361 -0.3402 -0.0677  0.3148
  719poe    c23 4302   2.040   5.402   1.294  0.1026 -0.1572  0.0520
  719poe    c23 4303   2.110   5.267   1.318  0.3405  0.0933  0.8139
  719poe     o2 4304   2.241   5.271   1.265  0.1087 -0.1582  0.2073
  719poe    c23 4305   2.304   5.151   1.302 -0.0606 -0.0285  0.9359
  719poe    c23 4306   2.455   5.166   1.277 -0.1245  0.0847  0.6173
  719poe     o2 4307   2.520   5.278   1.333  0.5294 -0.0579  0.1571
  719poe    c31 4308   2.660   5.271   1.319  0.4606 -0.5994 -0.2803
  720poe    c31 4309   5.816   2.128   3.569 -0.3296 -0.2939  0.0237
  720poe     o2 4310   5.675   2.117   3.578 -0.3674  0.2423  0.0792
  720poe    c23 4311   5.625   2.221   3.659 -0.0603  0.4665 -0.0135
  720poe    c23 4312   5.503   2.166   3.736  0.1329 -0.1414 -0.1298
  720poe     o2 4313   5.394   2.131   3.653  0.3205 -0.5234 -0.2145
  720poe    c23 4314   5.298   2.062   3.730  0.7031 -0.7159  0.0935
  720poe    c23 4315   5.202   1.992   3.633  0.5428 -0.3156 -0.0389
  720poe     o2 4316   5.171   2.087   3.533  0.2587 -0.4444 -0.0771
  720poe    c23 4317   5.078   2.048   3.435  0.0813  0.2979 -0.2101
  720poe    c23 4318   5.090   2.143   3.314 -0.5160 -0.0224 -0.5270
  720poe     o2 4319   5.228   2.170   3.297 -0.5400  0.5811  0.1791
  720poe    c31 4320   5.245   2.241   3.177 -0.4402 -0.3699 -0.3827
  721poe    c31 4321   5.144   0.142   6.707  0.3875  0.3754 -0.5041
  721poe     o2 4322   5.087   0.159   6.834  0.4501  0.2550 -0.4603
  721poe    c23 4323   5.183   0.219   6.918  0.1547  0.5085 -0.2997
  721poe    c23 4324   5.116   0.241   7.055 -0.3369 -0.6483 -0.3388
  721poe     o2 4325   5.026   0.349   7.065  0.3643 -0.0682 -0.2170
  721poe    c23 4326   5.071   0.460   7.140 -0.2328 -0.1348  0.2414
  721poe    c23 4327   4.943   0.545   7.154 -0.5113 -0.5844  0.4588
  721poe     o2 4328   4.865   0.558   7.038 -0.1113 -0.3789  0.2118
  721poe    c23 4329   4.739   0.611   7.072  0.2888  0.2989  0.6477
  721poe    c23 4330   4.681   0.628   6.931  0.4456  0.1607  0.5661
  721poe     o2 4331   4.702   0.510   6.857 -0.7356 -0.1261  0.6644
  721poe    c31 4332   4.609   0.521   6.752 -0.3741 -0.7820  0.2682
  722poe    c31 4333   3.332   3.353   3.795 -0.2665  0.2025 -0.0114
  722poe     o2 4334   3.408   3.239   3.826 -0.0369  0.2890 -0.2494
  722poe    c23 4335   3.387   3.207   3.962  0.0336  0.3118 -0.2331
  722poe    c23 4336   3.497   3.112   4.012  0.2223  0.6324 -0.0292
  722poe     o2 4337   3.528   3.022   3.907  0.5208  0.3056  0.3381
  722poe    c23 4338   3.637   2.937   3.935  0.6001  0.0644 -0.6728
  722poe    c23 4339   3.660   2.840   3.817  0.6973 -0.2961 -0.3595
  722poe     o2 4340   3.658   2.898   3.689 -0.0473  0.5042 -0.0024
  722poe    c23 4341   3.708   2.809   3.591  0.1153  0.0874  0.4532
  722poe    c23 4342   3.661   2.847   3.449 -0.0230 -0.0924  0.4516
  722poe     o2 4343   3.526   2.888   3.449  0.1084  0.3487 -0.2117
  722poe    c31 4344   3.473   2.878   3.318  0.3336 -0.7160 -0.2307
  723poe    c31 4345   2.641   5.733   2.152  0.6672  0.0204 -0.0715
  723poe     o2 4346   2.560   5.840   2.194  0.1161 -0.2786 -0.3649
  723poe    c23 4347   2.651   5.947   2.195 -0.0610 -0.1243  0.4194
  723poe    c23 4348   2.604   6.056   2.293  0.1583  0.0318  0.3544
  723poe     o2 4349   2.485   6.114   2.243  0.0163 -0.3591  0.2315
  723poe    c23 4350   2.423   6.215   2.319  0.1063 -0.0232 -0.1364
  723poe    c23 4351   2.286   6.255   2.261  0.1991  0.0511 -0.3011
  723poe     o2 4352   2.202   6.145   2.237 -0.4537  0.5153 -0.1457
  723poe    c23 4353   2.070   6.180   2.201 -0.5727  0.2699  0.0485
  723poe    c23 4354   2.002   6.080   2.106 -0.1212  0.0412 -0.0373
  723poe     o2 4355   2.052   5.957   2.154 -0.2586 -0.0092 -0.0212
  723poe    c31 4356   1.985   5.852   2.088 -0.2815 -0.3886  0.5882
  724poe    c31 4357   0.184   4.036   6.787 -0.1303 -0.5477  0.4460
  724poe     o2 4358   0.258   4.000   6.902  0.2907 -0.5942  0.1584
  724poe    c23 4359   0.336   4.109   6.945 -0.6955  0.0247  0.3929
  724poe    c23 4360   0.488   4.094   6.925 -0.8011 -0.5072 -0.0118
  724poe     o2 4361   0.560   4.003   7.005 -0.2584 -0.1054 -0.0430
  724poe    c23 4362   0.697   4.037   7.010 -0.3652  0.2424  0.5271
  724poe    c23 4363   0.774   3.935   7.096  0.2853  0.0975 -0.2225
  724poe     o2 4364   0.672   3.880   7.176  0.5361  0.3627  0.2815
  724poe    c23 4365   0.722   3.756   7.220 -0.0345  0.1361  0.3056
  724poe    c23 4366   0.600   3.688   7.284 -0.2186  0.3125  0.1444
  724poe     o2 4367   0.483   3.725   7.214 -0.2740 -0.1758 -0.0257
  724poe    c31 4368   0.381   3.634   7.249 -0.1704 -0.1148  0.4499
  725poe    c31 4369   5.701   1.703   6.139  0.0613  0.2237  0.0711
  725poe     o2 4370   5.747   1.831   6.101 -0.1754  0.3468  0.2035
  725poe    c23 4371   5.826   1.818   5.986 -0.1711  0.0117  0.2451
  725poe    c23 4372   5.825   1.953   5.913 -0.2976  0.0389  0.2979
  725poe     o2 4373   5.889   2.069   5.962  0.5033 -0.2005 -0.1687
  725poe    c23 4374   6.028   2.061   5.985  0.4107  0.0803  0.5129
  725poe    c23 4375   6.065   2.205   6.025 -0.1329  0.3491  0.0572
  725poe     o2 4376   5.986   2.228   6.139 -0.0939 -0.2435  0.2066
  725poe    c23 4377   6.041   2.343   6.200 -0.0729 -0.0105 -0.2472
  725poe    c23 4378   5.938   2.382   6.309 -0.2442  0.1555 -0.4674
  725poe     o2 4379   5.808   2.357   6.259 -0.0515 -0.3419 -0.7345
  725poe    c31 4380   5.706   2.402   6.345  0.0405 -0.0862 -0.7571
  726poe    c31 4381   5.313   4.751   4.090 -0.1276  0.4575 -0.6205
  726poe     o2 4382   5.440   4.779   4.037 -0.0043 -0.0882 -0.6167
  726poe    c23 4383   5.444   4.744   3.901 -0.5014 -0.2163 -0.5999
  726poe    c23 4384   5.578   4.791   3.841 -0.2597  0.0411  0.1338
  726poe     o2 4385   5.662   4.769   3.952  0.0875 -0.4840 -0.2251
  726poe    c23 4386   5.794   4.794   3.911 -0.0010  0.5760  0.1058
  726poe    c23 4387   5.893   4.782   4.028  0.2792 -0.5453 -0.2351
  726poe     o2 4388   5.852   4.843   4.148  0.0828 -0.9832 -0.0751
  726poe    c23 4389   5.947   4.846   4.252 -0.0976  0.0292  0.0686
  726poe    c23 4390   5.906   4.918   4.382  0.3685  0.3126  0.0649
  726poe     o2 4391   5.829   5.036   4.367  0.3047  0.3069  0.3329
  726poe    c31 4392   5.835   5.136   4.466 -0.4980  0.8755 -0.1881
  727poe    c31 4393   3.204   0.688   2.486 -0.5556  0.9783  0.1372
  727poe     o2 4394   3.243   0.628   2.608 -0.2806  0.3509 -0.2592
  727poe    c23 4395   3.128   0.603   2.685 -0.1849 -0.3566 -0.3370
  727poe    c23 4396   3.168   0.578   2.832 -0.0467  0.0611 -0.3001
  727poe     o2 4397   3.248   0.462   2.833 -0.1442 -0.0086 -0.4342
  727poe    c23 4398   3.339   0.447   2.940 -0.3297  0.4597 -0.2070
  727poe    c23 4399   3.482   0.435   2.884 -0.2401  0.2757  0.0616
  727poe     o2 4400   3.505   0.527   2.780 -0.3191  0.0981 -0.1133
  727poe    c23 4401   3.644   0.544   2.766 -0.3153  0.2731  0.1321
  727poe    c23 4402   3.658   0.644   2.649 -0.3556  0.4340  0.2642
  727poe     o2 4403   3.563   0.605   2.552  0.0689 -0.5096  0.2140
  727poe    c31 4404   3.608   0.646   2.425  0.0179 -0.1110  0.3226
  728poe    c31 4405   3.399   2.519   3.120 -0.2960  0.5784  0.2925
  728poe     o2 4406   3.271   2.472   3.157 -0.0482 -0.6263 -0.3425
  728poe    c23 4407   3.192   2.446   3.043 -0.1157 -0.7612 -0.2655
  728poe    c23 4408   3.050   2.485   3.087  0.1809 -0.1376  0.1499
  728poe     o2 4409   3.024   2.419   3.209 -0.5386 -0.3041 -0.0877
  728poe    c23 4410   2.886   2.423   3.238 -0.5802  0.2371 -0.3485
  728poe    c23 4411   2.870   2.331   3.360  0.2522 -0.4176 -0.7157
  728poe     o2 4412   2.984   2.357   3.440 -0.6856  0.1754  0.4645
  728poe    c23 4413   3.048   2.249   3.504  0.5951  0.4754 -0.2709
  728poe    c23 4414   3.193   2.283   3.540  0.5701  0.4204 -0.1176
  728poe     o2 4415   3.258   2.351   3.435  0.2499 -0.0801 -0.6441
  728poe    c31 4416   3.378   2.411   3.479 -0.1376  0.3985 -0.2183
  729poe    c31 4417   2.907   5.016   2.482  0.1142  0.1855 -0.1794
  729poe     o2 4418   2.911   4.876   2.499 -0.3462  0.1662 -0.2385
  729poe    c23 4419   2.923   4.818   2.371  0.0611 -0.2808  0.0029
  729poe    c23 4420   2.914   4.664   2.378 -0.0328 -0.2646  0.2592
  729poe     o2 4421   3.024   4.605   2.444 -0.0582 -0.4598  0.1272
  729poe    c23 4422   2.992   4.471   2.472  0.0641 -0.6841 -0.7755
  729poe    c23 4423   3.121   4.396   2.508 -0.0912 -0.4865  0.2185
  729poe     o2 4424   3.164   4.477   2.615  0.6789 -0.0720 -0.3912
  729poe    c23 4425   3.257   4.425   2.707 -0.0190 -0.1002  0.3072
  729poe    c23 4426   3.294   4.541   2.802 -0.0565 -0.1172  0.3426
  729poe     o2 4427   3.298   4.655   2.719 -0.8280  0.4783  1.1023
  729poe    c31 4428   3.352   4.758   2.800 -0.1032  0.2991  0.8543
  730poe    c31 4429   0.987   0.764   1.194  0.3940  0.3720 -0.2767
  730poe     o2 4430   0.933   0.840   1.299 -0.3229 -0.0966 -0.3024
  730poe    c23 4431   0.807   0.789   1.336 -0.2535  0.1350  0.2657
  730poe    c23 4432   0.727   0.878   1.434  0.0421  0.1635  0.4830
  730poe     o2 4433   0.801   0.908   1.550  0.2710  0.5628  0.2372
  730poe    c23 4434   0.747   1.018   1.619 -0.6597  0.0820  0.2923
  730poe    c23 4435   0.805   1.022   1.762 -0.2167  0.5981  0.1003
  730poe     o2 4436   0.944   1.028   1.744 -0.1864  0.3424  0.2437
  730poe    c23 4437   1.008   0.999   1.866 -0.0228  0.3438  0.1594
  730poe    c23 4438   1.151   0.951   1.837  0.0976  0.7241  0.1166
  730poe     o2 4439   1.153   0.870   1.722 -0.0779 -0.0723  0.6643
  730poe    c31 4440   1.288   0.849   1.686 -0.2769 -0.6635  0.2425
  731poe    c31 4441   6.060   4.141   3.231 -0.5582 -0.2995  0.2749
  731poe     o2 4442   5.996   4.224   3.324  0.1642 -0.1125  0.6134
  731poe    c23 4443   5.992   4.353   3.267 -0.4640 -0.4377 -0.0956
  731poe    c23 4444   5.892   4.424   3.360 -0.1637 -0.0259 -0.0835
  731poe     o2 4445   5.903   4.376   3.493 -0.1369 -0.0138 -0.0813
  731poe    c23 4446   5.797   4.437   3.564 -0.2985 -0.2509 -0.1185
  731poe    c23 4447   5.802   4.397   3.712  0.3750 -0.0790 -0.0898
  731poe     o2 4448   5.786   4.257   3.714  0.1878 -0.0589 -0.1255
  731poe    c23 4449   5.805   4.214   3.847 -0.2628 -0.2223 -0.1141
  731poe    c23 4450   5.674   4.158   3.906 -0.4180 -0.0307 -0.2759
  731poe     o2 4451   5.668   4.026   3.856 -0.7341 -0.2019  0.2064
  731poe    c31 4452   5.533   3.989   3.840 -0.7093 -0.2693  0.1560
  732poe    c31 4453   2.565   3.024   2.616  0.3791 -0.5381  0.8681
  732poe     o2 4454   2.672   2.966   2.544  0.4974  0.2113  0.4330
  732poe    c23 4455   2.671   3.008   2.409  0.0648 -0.0785  0.3424
  732poe    c23 4456   2.790   2.952   2.330 -0.0422 -0.1479  0.2306
  732poe     o2 4457   2.918   2.964   2.389  0.4172  0.1105 -0.7886
  732poe    c23 4458   2.953   3.094   2.432 -0.0142  0.0915 -0.3630
  732poe    c23 4459   3.097   3.074   2.484 -0.2390  0.0118  0.2311
  732poe     o2 4460   3.106   2.957   2.563 -0.0990  0.0040  0.2036
  732poe    c23 4461   3.238   2.929   2.604 -0.2771  0.3190  0.9914
  732poe    c23 4462   3.215   2.797   2.680  0.2462 -0.1695  0.3008
  732poe     o2 4463   3.155   2.708   2.589 -0.0861  0.1831  0.1739
  732poe    c31 4464   3.174   2.572   2.620 -0.8914 -0.0509 -0.3422
  733poe    c31 4465   0.698   2.277   6.280 -0.0683 -0.1353 -0.1793
  733poe     o2 4466   0.701   2.175   6.184  0.1882  0.2427 -0.5769
  733poe    c23 4467   0.566   2.136   6.170  0.1267  0.2873 -0.1107
  733poe    c23 4468   0.548   2.007   6.088  0.2786  0.2325 -0.0581
  733poe     o2 4469   0.615   2.002   5.964 -0.3457 -0.1659 -0.3843
  733poe    c23 4470   0.691   1.884   5.956 -0.0732 -0.0439  0.3550
  733poe    c23 4471   0.732   1.857   5.810 -0.1329 -0.5165  0.4228
  733poe     o2 4472   0.779   1.982   5.764  0.3013 -0.9054 -0.2006
  733poe    c23 4473   0.793   1.983   5.624  0.2715  0.1669 -0.1993
  733poe    c23 4474   0.810   2.132   5.588  0.5988  0.3226  0.5795
  733poe     o2 4475   0.731   2.216   5.669 -0.3878  0.0859 -0.1117
  733poe    c31 4476   0.714   2.339   5.602  0.0656  0.5877  0.6668
  734poe    c31 4477   5.874   5.799   1.484  0.9549 -0.6434  0.5085
  734poe     o2 4478   5.738   5.765   1.504  0.4772  0.9304  0.1078
  734poe    c23 4479   5.662   5.881   1.484 -0.1341  0.6524  0.7653
  734poe    c23 4480   5.533   5.874   1.568 -0.6329  0.0789 -0.0356
  734poe     o2 4481   5.581   5.845   1.697 -0.0706 -0.1341 -0.2883
  734poe    c23 4482   5.485   5.775   1.773  0.3652 -0.3345  0.0833
  734poe    c23 4483   5.431   5.643   1.715 -0.0598 -0.5651  0.9860
  734poe     o2 4484   5.545   5.567   1.683  0.1677  0.2867 -0.3389
  734poe    c23 4485   5.502   5.443   1.631 -0.0352  0.2474 -0.0806
  734poe    c23 4486   5.605   5.387   1.530  0.1940  0.2269  0.1618
  734poe     o2 4487   5.678   5.500   1.487  0.1364  0.3653  0.4190
  734poe    c31 4488   5.759   5.467   1.377  0.1721  0.0694  0.5314
  735poe    c31 4489   3.181   4.901   4.426 -0.5732  0.1358  0.0456
  735poe     o2 4490   3.172   4.788   4.510  0.0523  0.2886  0.3222
  735poe    c23 4491   3.202   4.674   4.433 -0.1926  0.2675  0.2576
  735poe    c23 4492   3.219   4.557   4.532  0.2934  0.3687  0.2947
  735poe     o2 4493   3.118   4.576   4.628 -0.0326 -0.0713  0.0405
  735poe    c23 4494   3.152   4.529   4.756 -0.4024 -0.0197  0.1602
  735poe    c23 4495   3.210   4.646   4.838 -0.2327 -0.1184  0.1825
  735poe     o2 4496   3.117   4.749   4.812  0.0925  0.0648 -0.2706
  735poe    c23 4497   3.160   4.862   4.885  0.3212  0.0679 -0.4090
  735poe    c23 4498   3.060   4.973   4.849 -0.1195 -0.2589 -0.1963
  735poe     o2 4499   3.052   4.997   4.711 -0.4985 -0.3611 -0.1924
  735poe    c31 4500   2.949   5.088   4.679 -0.2488 -0.0247 -0.0464
  736poe    c31 4501   0.675   5.972   0.454 -0.2493 -0.3225  0.8191
  736poe     o2 4502   0.727   5.858   0.520  0.8228 -0.1702  0.2671
  736poe    c23 4503   0.843   5.816   0.453  0.7818  0.1048  0.0205
  736poe    c23 4504   0.850   5.665   0.426  0.3198  0.1052 -0.1065
  736poe     o2 4505   0.780   5.588   0.521  0.0925  0.1443 -0.2426
  736poe    c23 4506   0.776   5.455   0.473  0.4698 -0.0069  0.1427
  736poe    c23 4507   0.722   5.373   0.591  0.8903  0.0795  0.3987
  736poe     o2 4508   0.621   5.449   0.652 -0.4999 -0.8033 -0.7298
  736poe    c23 4509   0.540   5.374   0.740 -0.1181 -0.2868  0.0812
  736poe    c23 4510   0.415   5.448   0.790  0.0802  0.0984  0.0067
  736poe     o2 4511   0.446   5.551   0.881  0.2645 -0.1363  0.2076
  736poe    c31 4512   0.327   5.613   0.924  0.2114 -0.4943  0.5845
  737poe    c31 4513   3.201   1.469   6.082  0.3900  0.5471 -0.7235
  737poe     o2 4514   3.076   1.498   6.024 -0.0276  0.3767  0.0680
  737poe    c23 4515   3.010   1.374   6.017 -0.0800  0.4046  0.0689
  737poe    c23 4516   2.877   1.409   5.948 -0.5198 -0.3699  0.5091
  737poe     o2 4517   2.917   1.504   5.852 -0.2649 -0.0573  0.9185
  737poe    c23 4518   2.805   1.551   5.779  0.3001  0.5542  0.4377
  737poe    c23 4519   2.850   1.671   5.692  0.0929  0.3125 -0.0033
  737poe     o2 4520   2.932   1.737   5.786  0.4655  0.0256 -0.1248
  737poe    c23 4521   2.964   1.871   5.757  0.0821  0.2492  0.4856
  737poe    c23 4522   3.037   1.917   5.884  0.1435 -0.1283  0.5864
  737poe     o2 4523   3.079   1.798   5.947  0.1171 -0.5203 -0.1344
  737poe    c31 4524   3.170   1.844   6.044  0.1526 -0.9038  0.0161
  738poe    c31 4525   4.701   6.224   1.152  0.8066  0.0268 -0.2847
  738poe     o2 4526   4.697   6.150   1.033 -0.5353  0.0297 -0.2656
  738poe    c23 4527   4.818   6.180   0.966 -0.1358 -0.2560  0.3208
  738poe    c23 4528   4.835   6.070   0.860  0.1983 -0.2434  0.3606
  738poe     o2 4529   4.725   6.077   0.772  0.1391  0.1601  0.4624
  738poe    c23 4530   4.726   5.968   0.682 -0.0497  0.7069 -0.2058
  738poe    c23 4531   4.616   6.000   0.579 -0.1398  0.0746 -0.3104
  738poe     o2 4532   4.498   6.022   0.654  0.1569  0.4000  0.0641
  738poe    c23 4533   4.383   6.033   0.574  0.4505  0.1090 -0.4039
  738poe    c23 4534   4.268   5.959   0.646  0.4908  0.3362 -0.1045
  738poe     o2 4535   4.245   6.017   0.772 -0.1136  0.5359 -0.3014
  738poe    c31 4536   4.124   5.968   0.825  0.5494 -0.3406  0.4239
  739poe    c31 4537   6.505   1.240   5.860 -0.4433 -0.1715  0.3179
  739poe     o2 4538   6.526   1.363   5.927 -0.1334 -0.1407  0.1644
  739poe    c23 4539   6.561   1.470   5.842  0.2222 -0.1512  0.2960
  739poe    c23 4540   6.626   1.582   5.925 -0.5710  0.9809 -0.5748
  739poe     o2 4541   6.544   1.580   6.039  0.1468  0.4282 -0.0542
  739poe    c23 4542   6.581   1.674   6.137  0.5435  0.0559  0.1544
  739poe    c23 4543   6.477   1.672   6.250  0.2784  0.4911 -0.0791
  739poe     o2 4544   6.448   1.539   6.285  0.5070  0.5733  0.4345
  739poe    c23 4545   6.351   1.534   6.388 -0.0684  0.2388 -0.1162
  739poe    c23 4546   6.374   1.401   6.462 -0.5420  0.0019 -0.3898
  739poe     o2 4547   6.492   1.409   6.540 -0.3062 -0.1826 -0.7231
  739poe    c31 4548   6.510   1.295   6.620 -0.1169  0.0339 -0.4537
  740poe    c31 4549   4.899   2.242   0.487  0.9716 -0.1667 -0.3980
  740poe     o2 4550   4.865   2.204   0.356  0.2500 -0.9295 -0.0038
  740poe    c23 4551   4.768   2.294   0.306  0.7456 -0.4450 -0.1084
  740poe    c23 4552   4.724   2.222   0.177  0.1309  0.2689 -0.3028
  740poe     o2 4553   4.826   2.149   0.114  0.1464  0.0871 -0.0668
  740poe    c23 4554   4.777   2.066   0.011 -0.2740  0.0572  0.1569
  740poe    c23 4555   4.889   1.961  -0.003 -0.6456 -0.3251  0.0217
  740poe     o2 4556   4.921   1.907   0.123  0.3997  0.0183 -0.0875
  740poe    c23 4557   4.978   1.783   0.087  0.6467  0.2054 -0.3489
  740poe    c23 4558   4.991   1.694   0.212  0.6236  0.3063 -0.2751
  740poe     o2 4559   5.080   1.737   0.313 -0.1384  0.7341  0.2256
  740poe    c31 4560   5.061   1.653   0.425  0.9433 -0.2439 -0.3048
  741poe    c31 4561   4.277   5.677   4.813 -0.1384  0.3306  0.0396
  741poe     o2 4562   4.350   5.561   4.778 -0.7850 -0.1442  0.2534
  741poe    c23 4563   4.326   5.463   4.877  0.2073 -0.1900  0.4594
  741poe    c23 4564   4.394   5.330   4.840  0.6056  0.1308  0.0117
  741poe     o2 4565   4.393   5.331   4.699  0.4546 -0.1240  0.0093
  741poe    c23 4566   4.452   5.217   4.642  0.0495 -0.1690 -0.3202
  741poe    c23 4567   4.418   5.197   4.493 -0.1208 -0.2933 -0.2656
  741poe     o2 4568   4.433   5.321   4.427  0.1524  0.0766  0.4836
  741poe    c23 4569   4.512   5.315   4.310 -0.5344 -0.2250  0.0315
  741poe    c23 4570   4.545   5.456   4.258  0.4422 -0.4047  0.1528
  741poe     o2 4571   4.635   5.538   4.329  0.3131  0.2598 -0.4382
  741poe    c31 4572   4.770   5.510   4.299  0.4835 -0.3218  0.8116
  742poe    c31 4573   6.670   3.702   6.112  0.2061 -0.5208  0.2910
  742poe     o2 4574   6.550   3.638   6.147 -0.0428 -0.2289 -0.0216
  742poe    c23 4575   6.501   3.562   6.039 -0.1982  0.1005 -0.1854
  742poe    c23 4576   6.378   3.476   6.072 -0.1863 -0.0964 -0.6340
  742poe     o2 4577   6.418   3.377   6.164 -0.4001  0.2224 -0.1949
  742poe    c23 4578   6.316   3.283   6.192  0.2624 -0.4752 -0.0962
  742poe    c23 4579   6.385   3.155   6.242  0.1233 -0.4429  0.1800
  742poe     o2 4580   6.461   3.180   6.358 -0.0231  0.1115  0.1569
  742poe    c23 4581   6.497   3.060   6.422 -0.1187  0.1931  0.3657
  742poe    c23 4582   6.604   3.090   6.529 -0.0205  0.4720  0.1883
  742poe     o2 4583   6.683   3.201   6.491  0.0883  0.1619 -0.5172
  742poe    c31 4584   6.815   3.199   6.541  0.0361  0.0164 -0.3860
  743poe    c31 4585   5.420   5.332   0.999 -0.0277  0.1891 -0.1066
  743poe     o2 4586   5.467   5.400   0.885  0.2536  0.1610 -0.0070
  743poe    c23 4587   5.443   5.314   0.776 -0.1889 -0.0844  0.2816
  743poe    c23 4588   5.569   5.320   0.688 -0.3873  0.5492  0.0392
  743poe     o2 4589   5.666   5.371   0.776  0.0781  0.0980 -0.2053
  743poe    c23 4590   5.781   5.379   0.695  0.2380  0.1490  0.0257
  743poe    c23 4591   5.875   5.472   0.773  0.1805  0.3655 -0.1627
  743poe     o2 4592   5.782   5.571   0.812  0.0995  0.2357 -0.0203
  743poe    c23 4593   5.826   5.644   0.924  0.0595  0.2323 -0.0027
  743poe    c23 4594   5.706   5.715   0.991  0.1630 -0.0678  0.5043
  743poe     o2 4595   5.592   5.632   0.980  0.2114 -0.0737  0.0249
  743poe    c31 4596   5.497   5.682   1.071 -0.3100 -0.3977 -0.3394
  744poe    c31 4597   5.606   5.391   0.254 -0.4882  0.1073  0.0802
  744poe     o2 4598   5.546   5.328   0.142  0.6846  0.2702 -0.6546
  744poe    c23 4599   5.600   5.198   0.144 -0.0505 -0.0312  0.1869
  744poe    c23 4600   5.532   5.130   0.023  0.5246 -0.2810 -0.0001
  744poe     o2 4601   5.519   5.233  -0.071  0.0618 -0.7174 -0.4239
  744poe    c23 4602   5.447   5.189  -0.184 -0.6696 -0.0665 -0.2221
  744poe    c23 4603   5.379   5.307  -0.256 -0.1053  0.1018 -0.4794
  744poe     o2 4604   5.348   5.396  -0.151  0.2428  0.2762 -0.5240
  744poe    c23 4605   5.274   5.513  -0.179  0.2337  0.3522 -0.1789
  744poe    c23 4606   5.259   5.589  -0.046 -0.1531 -0.0293 -0.0024
  744poe     o2 4607   5.376   5.558   0.026 -0.2616 -0.0354  0.1730
  744poe    c31 4608   5.373   5.635   0.144  0.0476 -0.0938  0.2191
  745poe    c31 4609   5.854   3.426   4.784 -0.0467  0.1351  0.4416
  745poe     o2 4610   5.841   3.461   4.920 -0.4103 -0.4691  0.5632
  745poe    c23 4611   5.766   3.580   4.918  0.1359 -0.1316 -0.5737
  745poe    c23 4612   5.683   3.613   5.044  0.4471  0.0447 -0.4122
  745poe     o2 4613   5.770   3.632   5.153 -0.3777 -0.3723  0.3306
  745poe    c23 4614   5.700   3.699   5.255 -0.7551  0.2704 -0.3472
  745poe    c23 4615   5.780   3.826   5.289  0.2410 -0.3350 -0.4087
  745poe     o2 4616   5.918   3.798   5.275  0.3880  0.0980  0.1327
  745poe    c23 4617   6.000   3.910   5.299  0.0230  0.5237 -0.5489
  745poe    c23 4618   6.135   3.889   5.228  0.2216  0.0378 -0.0399
  745poe     o2 4619   6.157   3.750   5.221 -0.3677 -0.0601  0.0421
  745poe    c31 4620   6.276   3.710   5.158  0.1205  0.7969  0.4180
  746poe    c31 4621   6.396   5.232   3.629 -0.4366  0.1283 -0.5378
  746poe     o2 4622   6.299   5.224   3.731 -0.1285 -0.0638 -0.2564
  746poe    c23 4623   6.189   5.304   3.692 -0.1364  0.1762  0.2522
  746poe    c23 4624   6.068   5.275   3.783  0.1187 -0.5626  0.3646
  746poe     o2 4625   6.074   5.334   3.911 -0.0560  0.3828 -0.0529
  746poe    c23 4626   5.998   5.254   3.998  0.7640 -0.6200 -0.2338
  746poe    c23 4627   6.022   5.291   4.146 -0.0557 -0.2884 -0.1770
  746poe     o2 4628   6.160   5.298   4.172 -0.0559  0.0205 -0.2515
  746poe    c23 4629   6.185   5.312   4.310 -0.1802 -0.6467 -0.1562
  746poe    c23 4630   6.337   5.312   4.334 -0.1606  0.0789 -0.2650
  746poe     o2 4631   6.397   5.350   4.211 -0.0017 -0.1510 -0.2608
  746poe    c31 4632   6.531   5.386   4.235 -0.0909  0.1150 -0.1574
  747poe    c31 4633   6.076   2.739   4.750 -0.2770  0.6461  0.0443
  747poe     o2 4634   6.039   2.718   4.885  1.2513  0.3476  0.4423
  747poe    c23 4635   6.036   2.578   4.900 -0.0697  0.3054 -0.0749
  747poe    c23 4636   5.934   2.567   5.015  0.1344  0.6987  0.1437
  747poe     o2 4637   5.969   2.666   5.109  0.2933  0.7314  0.0502
  747poe    c23 4638   5.903   2.641   5.231 -0.1589  0.4617 -0.2475
  747poe    c23 4639   5.915   2.762   5.325  0.4782 -0.0341  0.3223
  747poe     o2 4640   5.911   2.879   5.246  0.0872 -0.0888  0.2591
  747poe    c23 4641   5.895   3.004   5.309 -0.8877 -0.2185  0.2890
  747poe    c23 4642   5.915   3.121   5.211 -0.5542 -0.2315  0.3388
  747poe     o2 4643   5.834   3.111   5.096  0.3538  0.0008 -0.3346
  747poe    c31 4644   5.727   3.203   5.099  0.7180  0.4074  0.8489
  748poe    c31 4645   2.335   0.470   6.275 -0.0534 -0.4205 -0.0105
  748poe     o2 4646   2.260   0.542   6.180 -0.2218 -0.0660  0.3903
  748poe    c23 4647   2.152   0.614   6.236 -0.0549  0.7862 -0.3607
  748poe    c23 4648   2.049   0.654   6.129  0.1086  0.5509 -0.6075
  748poe     o2 4649   2.090   0.756   6.040  0.7578  0.2847 -0.6187
  748poe    c23 4650   1.982   0.795   5.960 -0.1797  0.2671  0.6067
  748poe    c23 4651   1.992   0.937   5.902  0.2702 -0.0104 -0.0097
  748poe     o2 4652   2.116   0.967   5.842  0.0455  0.3689 -0.2882
  748poe    c23 4653   2.152   0.899   5.723 -0.7813 -0.2628 -0.1832
  748poe    c23 4654   2.289   0.936   5.664 -0.7918  0.9946  0.5537
  748poe     o2 4655   2.372   0.979   5.770  0.0554  0.0604  0.2744
  748poe    c31 4656   2.505   0.994   5.723 -0.0989  0.2705 -0.0999
  749poe    c31 4657   3.021   6.712   5.195 -0.4184  0.1746  0.1390
  749poe     o2 4658   3.063   6.822   5.272 -0.2083  0.2533 -0.0870
  749poe    c23 4659   3.005   6.814   5.400  0.0350 -0.0236  0.0071
  749poe    c23 4660   3.025   6.937   5.490 -0.2659 -0.1241  0.2149
  749poe     o2 4661   3.157   6.976   5.522 -0.0157 -0.2675 -0.6140
  749poe    c23 4662   3.161   7.051   5.642  0.1607 -0.7054 -0.3429
  749poe    c23 4663   3.285   7.142   5.648 -0.3275 -0.0928  0.7127
  749poe     o2 4664   3.383   7.045   5.617 -0.0942  0.3091  0.1767
  749poe    c23 4665   3.512   7.099   5.598  0.0126 -0.1151 -0.3205
  749poe    c23 4666   3.605   6.980   5.567  0.5899  0.2875 -0.1482
  749poe     o2 4667   3.551   6.888   5.474  0.3500 -0.1476  0.4175
  749poe    c31 4668   3.655   6.807   5.425  0.2492 -0.2826  0.4270
  750poe    c31 4669   4.658   4.572   6.107  0.5425  0.1938  0.7327
  750poe     o2 4670   4.645   4.712   6.109  0.1355  0.1733  0.1293
  750poe    c23 4671   4.746   4.767   6.192  0.9631 -0.5703 -0.3638
  750poe    c23 4672   4.784   4.902   6.128  0.5221 -0.2833 -0.0278
  750poe     o2 4673   4.666   4.953   6.070  0.3605  0.1779  0.6917
  750poe    c23 4674   4.670   5.082   6.014 -0.1934 -0.1084 -0.0340
  750poe    c23 4675   4.522   5.119   6.034 -0.1169 -0.3856  1.1175
  750poe     o2 4676   4.451   5.015   5.971  0.1065 -0.0025  0.2140
  750poe    c23 4677   4.311   5.023   5.990 -0.0202  0.1740 -0.7626
  750poe    c23 4678   4.264   4.877   5.974 -0.2554  0.1118  0.3819
  750poe     o2 4679   4.358   4.804   6.049  0.1086 -0.1750 -0.3414
  750poe    c31 4680   4.296   4.697   6.117 -0.4647  0.0953 -0.4299
  751poe    c31 4681   6.678   0.390   3.896 -0.4671  0.1365  0.3834
  751poe     o2 4682   6.808   0.400   3.950 -0.3669  0.7377  0.0430
  751poe    c23 4683   6.800   0.411   4.091  0.3575  0.1187  0.1354
  751poe    c23 4684   6.945   0.413   4.145  0.5193  0.5078 -0.3062
  751poe     o2 4685   7.031   0.323   4.079 -0.0162 -0.1712 -0.0889
  751poe    c23 4686   7.137   0.294   4.168  0.0916  0.1761 -0.1010
  751poe    c23 4687   7.201   0.164   4.116  0.1803  0.2394 -0.1497
  751poe     o2 4688   7.262   0.194   3.993  0.4012  0.0957 -0.0784
  751poe    c23 4689   7.271   0.084   3.905 -0.3789 -0.1515  0.1383
  751poe    c23 4690   7.321   0.148   3.774 -0.0181 -0.1412  0.2779
  751poe     o2 4691   7.233   0.238   3.709 -0.1045 -0.2255  0.2775
  751poe    c31 4692   7.274   0.248   3.574 -0.0827 -0.3293  0.2764
  752poe    c31 4693   1.568   2.798   0.392  0.0635  0.2393 -0.2965
  752poe     o2 4694   1.628   2.743   0.507  0.2121 -0.1934 -0.5790
  752poe    c23 4695   1.752   2.807   0.533  0.0064 -0.0111 -0.0439
  752poe    c23 4696   1.787   2.763   0.676  0.3275 -0.0357 -0.1302
  752poe     o2 4697   1.744   2.630   0.693  0.2290  0.0204  0.0581
  752poe    c23 4698   1.709   2.596   0.826  0.1209  0.1327  0.0583
  752poe    c23 4699   1.610   2.478   0.820 -0.0853  0.2764  0.5588
  752poe     o2 4700   1.536   2.511   0.704  0.4630 -0.3606  0.0187
  752poe    c23 4701   1.436   2.422   0.660  0.1017 -0.1247  0.3586
  752poe    c23 4702   1.383   2.488   0.532  0.3366  0.4023  0.5332
  752poe     o2 4703   1.502   2.499   0.457 -0.2167 -0.1085 -0.4368
  752poe    c31 4704   1.475   2.481   0.320  0.1983  0.2722 -0.5710
  753poe    c31 4705   3.685   1.178   5.701  0.1689  0.1649  0.2131
  753poe     o2 4706   3.759   1.256   5.609  0.4767 -0.1639  0.1797
  753poe    c23 4707   3.661   1.322   5.533  0.3571 -0.3414  0.1775
  753poe    c23 4708   3.721   1.455   5.483 -0.0660 -0.1702  0.1184
  753poe     o2 4709   3.837   1.415   5.414 -0.2595 -0.3157 -0.1215
  753poe    c23 4710   3.817   1.425   5.275  0.0139  0.1423 -0.1298
  753poe    c23 4711   3.929   1.343   5.209 -0.4986 -0.1139 -0.6944
  753poe     o2 4712   3.913   1.226   5.286  0.1050  0.4350  0.2842
  753poe    c23 4713   4.006   1.121   5.266 -0.3248  0.1736 -0.3739
  753poe    c23 4714   3.992   1.011   5.372  0.1658  0.3887 -0.0832
  753poe     o2 4715   3.967   1.060   5.502 -0.4300 -0.0670 -0.0183
  753poe    c31 4716   3.958   0.967   5.607  0.0244 -0.0645  0.0268
  754poe    c31 4717   1.644   1.350   6.506 -0.7980 -0.4848 -0.1582
  754poe     o2 4718   1.615   1.435   6.397 -0.1752 -0.5000 -0.3393
  754poe    c23 4719   1.484   1.403   6.355 -0.2201 -0.5914 -0.1329
  754poe    c23 4720   1.439   1.517   6.262  0.3803 -0.1827  0.0700
  754poe     o2 4721   1.508   1.533   6.140 -0.1205 -0.3513 -0.2373
  754poe    c23 4722   1.458   1.644   6.069 -0.2594 -0.3038 -0.0661
  754poe    c23 4723   1.501   1.639   5.921  0.2413  0.3446  0.0532
  754poe     o2 4724   1.640   1.617   5.931  0.2580  0.4000 -0.0556
  754poe    c23 4725   1.692   1.603   5.801 -0.1672 -0.0618 -0.1763
  754poe    c23 4726   1.833   1.544   5.818 -0.0935  0.4002  0.8495
  754poe     o2 4727   1.833   1.456   5.928 -0.0500  0.0258  0.5531
  754poe    c31 4728   1.960   1.396   5.929  0.2196  0.5736 -0.2559
  755poe    c31 4729   0.786   3.935   3.903 -0.7673 -0.2349 -0.1638
  755poe     o2 4730   0.775   3.843   3.797  0.3460 -0.0236 -0.4679
  755poe    c23 4731   0.777   3.901   3.668 -0.0642 -0.1155 -0.5174
  755poe    c23 4732   0.755   3.781   3.574 -0.1633 -0.5398  0.0432
  755poe     o2 4733   0.819   3.661   3.614 -0.1782 -0.3258  0.7238
  755poe    c23 4734   0.767   3.549   3.546  0.0929  0.0055 -0.0326
  755poe    c23 4735   0.814   3.418   3.611  0.4502 -0.0007 -0.2994
  755poe     o2 4736   0.789   3.432   3.749 -0.5691 -0.3218 -0.4456
  755poe    c23 4737   0.798   3.305   3.811 -0.1788 -0.2348 -0.3195
  755poe    c23 4738   0.668   3.269   3.885 -0.1444  0.0821 -0.1002
  755poe     o2 4739   0.663   3.367   3.986  0.1982 -0.1881  0.1814
  755poe    c31 4740   0.541   3.377   4.055  0.1212  0.3366 -0.0259
  756poe    c31 4741   5.229   2.997   5.080  0.0928 -0.4755 -0.5134
  756poe     o2 4742   5.148   2.958   4.971  0.1620 -0.2448 -0.6477
  756poe    c23 4743   5.045   2.879   5.027  0.1851  0.4088  0.3429
  756poe    c23 4744   4.956   2.833   4.910  1.3528  0.1719 -0.4670
  756poe     o2 4745   4.917   2.953   4.846  0.6099 -0.0294 -0.3942
  756poe    c23 4746   4.832   2.920   4.739 -0.2567  0.3711  0.1539
  756poe    c23 4747   4.882   2.968   4.601  0.2112 -0.0987  0.1538
  756poe     o2 4748   4.955   3.084   4.636 -0.2338  0.3362 -0.3321
  756poe    c23 4749   5.043   3.100   4.528  0.3872  0.0907  0.1284
  756poe    c23 4750   5.186   3.102   4.586  0.6150  0.3531 -0.4261
  756poe     o2 4751   5.178   3.004   4.687  0.4528  0.1818 -0.6039
  756poe    c31 4752   5.306   2.952   4.714 -0.0664 -0.8143 -0.0031
  757poe    c31 4753   4.692   3.070   0.006 -0.0411  0.5202 -0.1211
  757poe     o2 4754   4.737   2.977  -0.090  0.2723  0.4890  0.0541
  757poe    c23 4755   4.720   2.840  -0.060  0.4660  0.5484  0.4427
  757poe    c23 4756   4.812   2.763  -0.158  0.0342  0.4612  0.1005
  757poe     o2 4757   4.778   2.820  -0.282  0.7622  0.3141 -0.1695
  757poe    c23 4758   4.845   2.755  -0.388 -0.1555 -0.1468 -0.4730
  757poe    c23 4759   4.785   2.820  -0.514 -0.5627 -0.2683 -0.3428
  757poe     o2 4760   4.805   2.960  -0.511 -0.6198 -0.2695  0.4644
  757poe    c23 4761   4.770   3.031  -0.628 -0.7542 -0.2620  0.5084
  757poe    c23 4762   4.765   3.182  -0.598 -0.1232 -0.1713  0.1952
  757poe     o2 4763   4.661   3.223  -0.511  0.0695  0.3240  0.1908
  757poe    c31 4764   4.673   3.354  -0.459 -0.7724  0.5936 -0.2888
  758poe    c31 4765   4.425   6.698   2.742  0.2137 -0.0789 -0.6460
  758poe     o2 4766   4.394   6.753   2.615  0.0511  0.1864 -0.4917
  758poe    c23 4767   4.486   6.859   2.599 -0.3938  0.6418 -0.0760
  758poe    c23 4768   4.515   6.901   2.454  0.5284 -0.3346 -0.1901
  758poe     o2 4769   4.441   7.012   2.409  0.3386 -0.2246  0.3799
  758poe    c23 4770   4.437   7.026   2.268  0.1378 -0.5471  0.3508
  758poe    c23 4771   4.358   7.151   2.227  0.0109 -0.4106  0.9908
  758poe     o2 4772   4.410   7.271   2.281 -0.0134  0.2941 -0.4838
  758poe    c23 4773   4.365   7.385   2.211  0.3974  0.0587 -1.1441
  758poe    c23 4774   4.439   7.496   2.289 -0.9870  0.0852  0.1837
  758poe     o2 4775   4.454   7.460   2.424  0.2194  0.1637  0.0792
  758poe    c31 4776   4.479   7.574   2.504  0.0652  0.4236 -0.2414
  759poe    c31 4777   4.959   3.840   4.436  0.0456 -0.2310 -0.4898
  759poe     o2 4778   4.886   3.948   4.488  0.7739 -0.0962  0.2724
  759poe    c23 4779   4.969   4.048   4.543  0.2314  0.4845  0.0611
  759poe    c23 4780   4.892   4.171   4.592 -0.1895  0.1429  0.2642
  759poe     o2 4781   4.818   4.147   4.710  0.1296  0.1082  0.4574
  759poe    c23 4782   4.738   4.262   4.722  0.1778  0.1655  0.2426
  759poe    c23 4783   4.591   4.220   4.701  0.3526 -0.1262 -0.4071
  759poe     o2 4784   4.567   4.144   4.817  0.4101 -0.0921 -0.3726
  759poe    c23 4785   4.440   4.083   4.821  0.5425 -0.3574 -0.0974
  759poe    c23 4786   4.431   4.005   4.953 -0.3175 -0.0865  0.0137
  759poe     o2 4787   4.546   3.924   4.962 -0.7084 -0.6488 -0.0317
  759poe    c31 4788   4.551   3.870   5.092 -0.5637 -0.1588  0.1670
  760poe    c31 4789   1.460   3.510   3.666 -0.4724 -0.2416 -0.3276
  760poe     o2 4790   1.553   3.505   3.560  0.4935  0.1439  0.4926
  760poe    c23 4791   1.542   3.379   3.499  0.2998  0.5441 -0.3178
  760poe    c23 4792   1.637   3.392   3.379  0.5762 -0.4871 -0.2216
  760poe     o2 4793   1.771   3.414   3.419  0.4869 -0.0926 -0.1420
  760poe    c23 4794   1.854   3.433   3.307  0.0916  0.7685 -0.2952
  760poe    c23 4795   1.999   3.420   3.357  0.0079 -0.2841 -0.3091
  760poe     o2 4796   2.021   3.488   3.478  0.0865  0.1817 -0.5835
  760poe    c23 4797   2.154   3.467   3.520 -0.1203  0.6997  0.3760
  760poe    c23 4798   2.181   3.549   3.647 -0.3911  1.1061  0.1746
  760poe     o2 4799   2.096   3.512   3.753 -0.2492  0.8530  0.2025
  760poe    c31 4800   2.138   3.556   3.880  0.4733  0.2857  0.1670
  761poe    c31 4801   1.429   2.055   2.345 -0.3703 -0.0263  0.1078
  761poe     o2 4802   1.417   1.933   2.415  0.1235  0.1438  0.4971
  761poe    c23 4803   1.545   1.875   2.414  0.2651  0.4545  0.4283
  761poe    c23 4804   1.565   1.793   2.543 -0.5591 -0.1779  0.1607
  761poe     o2 4805   1.455   1.705   2.535 -0.4841 -0.2819  0.2708
  761poe    c23 4806   1.447   1.615   2.643  0.4264  0.2290  0.7781
  761poe    c23 4807   1.328   1.518   2.625  0.3624  0.3525  0.5404
  761poe     o2 4808   1.230   1.610   2.582 -0.3981 -0.8792 -0.4108
  761poe    c23 4809   1.141   1.556   2.486 -0.7969 -0.4424 -0.2880
  761poe    c23 4810   1.181   1.583   2.340 -0.4545 -0.2359 -0.1570
  761poe     o2 4811   1.221   1.719   2.336  0.4721 -0.5051 -0.1141
  761poe    c31 4812   1.259   1.748   2.204  0.6356  0.1173  0.0668
  762poe    c31 4813   5.441   3.368   0.531  0.2819 -0.2745  0.4213
  762poe     o2 4814   5.496   3.498   0.528 -0.4863  0.0500  0.2085
  762poe    c23 4815   5.508   3.533   0.391  0.1612  0.1367  0.2863
  762poe    c23 4816   5.593   3.659   0.364 -0.2543  0.2771 -0.3747
  762poe     o2 4817   5.540   3.761   0.446  0.1825  0.2870 -0.1059
  762poe    c23 4818   5.615   3.881   0.449 -0.0926  0.4495  0.3242
  762poe    c23 4819   5.559   3.986   0.546 -0.3571  0.6041  0.0055
  762poe     o2 4820   5.560   3.932   0.676  0.0426 -0.2458 -0.3455
  762poe    c23 4821   5.516   4.028   0.769  0.0318 -0.2910 -0.3034
  762poe    c23 4822   5.483   3.949   0.897  0.0268 -0.5650 -0.4731
  762poe     o2 4823   5.581   3.849   0.913  0.4505 -0.1109 -0.1656
  762poe    c31 4824   5.595   3.806   1.047  0.4320 -0.1675 -0.1816
  763poe    c31 4825   0.095   2.809   3.961 -0.0599  0.2542 -0.3709
  763poe     o2 4826   0.235   2.807   3.942 -0.0777 -0.3507 -0.4817
  763poe    c23 4827   0.287   2.925   3.885 -0.1101  0.1072  0.4102
  763poe    c23 4828   0.440   2.920   3.876 -0.1270  0.2815 -0.0153
  763poe     o2 4829   0.500   2.921   4.004  0.0125  0.0452 -0.0785
  763poe    c23 4830   0.639   2.896   3.994  0.0263 -0.0745  0.3989
  763poe    c23 4831   0.695   2.854   4.131 -0.3661  0.2941  0.6771
  763poe     o2 4832   0.648   2.724   4.159 -0.0502  0.1869  0.7232
  763poe    c23 4833   0.703   2.680   4.281  0.7160 -0.2518  0.2261
  763poe    c23 4834   0.681   2.528   4.272 -0.0577 -0.1492  0.3241
  763poe     o2 4835   0.554   2.489   4.222 -0.0832 -0.1772  0.4103
  763poe    c31 4836   0.556   2.348   4.219  0.2155 -0.1610 -0.4474
  764poe    c31 4837   2.161   1.951   1.744  0.1738 -0.1510  0.2169
  764poe     o2 4838   2.062   2.034   1.688  0.1752 -0.1581  0.2035
  764poe    c23 4839   2.007   2.123   1.783  0.2680  0.1465 -0.0280
  764poe    c23 4840   1.895   2.215   1.731  0.3045  0.2274  0.0373
  764poe     o2 4841   1.772   2.160   1.689  0.2940  0.0206  0.3303
  764poe    c23 4842   1.685   2.261   1.643  0.0893 -0.5653 -0.6145
  764poe    c23 4843   1.556   2.195   1.591 -0.5651 -0.0451  0.3044
  764poe     o2 4844   1.608   2.095   1.506  0.0887  0.6360 -0.1097
  764poe    c23 4845   1.515   2.052   1.408  0.5261 -0.1743 -0.1751
  764poe    c23 4846   1.548   1.921   1.334  0.4045 -0.3226  0.0321
  764poe     o2 4847   1.570   1.820   1.430  0.6372 -0.2237  0.0823
  764poe    c31 4848   1.637   1.708   1.378  0.1235 -0.1770 -0.6995
  765poe    c31 4849   1.279   4.479   6.015 -0.1351 -0.0017  0.0397
  765poe     o2 4850   1.354   4.489   5.896  0.1298 -0.0506  0.2017
  765poe    c23 4851   1.351   4.365   5.828  0.5620 -0.2019  0.4513
  765poe    c23 4852   1.367   4.405   5.680  0.0835 -0.4477  0.3294
  765poe     o2 4853   1.455   4.512   5.652 -0.6456  0.1927  0.4632
  765poe    c23 4854   1.489   4.523   5.516 -0.1740 -0.3923  0.5296
  765poe    c23 4855   1.582   4.638   5.475 -0.4138 -0.2095  0.4966
  765poe     o2 4856   1.515   4.760   5.498 -0.2808 -0.0907  0.2558
  765poe    c23 4857   1.571   4.862   5.418 -0.0096 -0.1457  0.3772
  765poe    c23 4858   1.556   4.998   5.489  0.1557 -0.0789  0.2853
  765poe     o2 4859   1.427   5.055   5.493 -0.0300 -0.5012  0.3539
  765poe    c31 4860   1.423   5.168   5.577 -0.0661 -0.0074 -0.3042
  766poe    c31 4861   1.677   2.953   1.342 -0.5457 -0.5644 -0.1158
  766poe     o2 4862   1.710   3.056   1.251  0.2547 -0.8881 -0.2033
  766poe    c23 4863   1.793   2.996   1.154  0.5552 -0.6155 -0.1132
  766poe    c23 4864   1.839   3.094   1.043  0.5451 -0.0529  0.3735
  766poe     o2 4865   1.884   3.217   1.095  0.0234  0.5090 -0.4927
  766poe    c23 4866   1.982   3.287   1.022  0.0561  0.2880 -0.6635
  766poe    c23 4867   2.040   3.387   1.124 -0.0880 -0.5288  0.2346
  766poe     o2 4868   1.937   3.472   1.169  0.4027  0.2760 -0.1440
  766poe    c23 4869   1.975   3.600   1.214  0.7620  0.3467 -0.6392
  766poe    c23 4870   1.857   3.695   1.189 -0.1775 -0.8066 -0.6805
  766poe     o2 4871   1.745   3.621   1.232 -0.2013 -0.3490  0.0716
  766poe    c31 4872   1.695   3.668   1.355 -0.1557 -0.0366 -0.0294
  767poe    c31 4873   2.785   4.918   0.109 -0.0694  0.4244  0.4729
  767poe     o2 4874   2.856   4.975   0.001 -0.0003 -0.0927  0.2414
  767poe    c23 4875   2.904   5.104   0.032 -0.3095  0.1832 -0.4252
  767poe    c23 4876   3.006   5.130  -0.080  0.0884  0.3336 -0.0316
  767poe     o2 4877   2.944   5.101  -0.204  0.5321 -0.3940 -0.0948
  767poe    c23 4878   3.033   5.098  -0.312  0.2861 -0.0274 -0.3122
  767poe    c23 4879   2.944   5.063  -0.433 -0.1220  0.1540 -0.0641
  767poe     o2 4880   2.883   4.938  -0.407  0.2506  0.0158  0.1559
  767poe    c23 4881   2.816   4.893  -0.522 -0.0032  0.6962  0.0307
  767poe    c23 4882   2.703   4.794  -0.487  0.3604  0.2101 -0.1486
  767poe     o2 4883   2.601   4.854  -0.411 -0.0191  0.1593 -0.6084
  767poe    c31 4884   2.479   4.785  -0.409  0.0546  0.0399 -0.0770
  768poe    c31 4885   4.239   2.045   0.740 -0.8021  0.2869  0.9727
  768poe     o2 4886   4.174   2.167   0.715 -0.3691  0.2501 -0.4210
  768poe    c23 4887   4.201   2.228   0.591 -0.6952  0.4494 -0.3963
  768poe    c23 4888   4.207   2.381   0.605  0.4004  0.4119 -0.3296
  768poe     o2 4889   4.091   2.409   0.681  0.3341 -0.3313 -0.1533
  768poe    c23 4890   4.082   2.540   0.733 -0.1792 -0.2262 -0.4973
  768poe    c23 4891   3.950   2.540   0.811  0.0542  0.0805 -0.0994
  768poe     o2 4892   3.972   2.432   0.899 -0.4046 -0.4094 -0.5831
  768poe    c23 4893   3.850   2.362   0.911 -0.5159 -0.2504 -0.7813
  768poe    c23 4894   3.884   2.235   0.991 -0.4417  0.1418 -0.1806
  768poe     o2 4895   3.984   2.164   0.921 -0.2173 -0.1087  0.3925
  768poe    c31 4896   4.006   2.041   0.988 -0.0814 -0.1118  0.3423
  769poe    c31 4897   6.780   6.312   1.036  0.2969 -0.0842  0.8721
  769poe     o2 4898   6.657   6.313   1.105  0.1051  0.4483  0.5273
  769poe    c23 4899   6.633   6.182   1.153 -0.9855  0.2963 -0.3937
  769poe    c23 4900   6.515   6.148   1.246 -0.4546 -0.3978  0.0270
  769poe     o2 4901   6.543   6.182   1.380  0.2854 -0.5687 -0.0792
  769poe    c23 4902   6.601   6.079   1.456  1.3281  0.3470  0.3892
  769poe    c23 4903   6.576   6.112   1.605 -0.7079  0.4238  0.0539
  769poe     o2 4904   6.627   6.243   1.615  0.9343 -0.2121  0.2475
  769poe    c23 4905   6.621   6.299   1.745 -0.0016  0.1469  0.0571
  769poe    c23 4906   6.631   6.448   1.710  0.0285  0.1341  0.0103
  769poe     o2 4907   6.559   6.490   1.596 -0.3643  0.1939  0.2801
  769poe    c31 4908   6.531   6.628   1.608 -0.0366  0.2981 -0.1368
  770poe    c31 4909   0.408   0.405   1.239 -0.3292  0.1331 -0.2830
  770poe     o2 4910   0.475   0.301   1.308 -0.0891  0.1095 -0.5474
  770poe    c23 4911   0.599   0.267   1.249 -0.0898  0.5116 -0.7877
  770poe    c23 4912   0.651   0.127   1.288 -0.7628  0.3721 -0.3732
  770poe     o2 4913   0.617   0.125   1.425 -0.0027 -0.0081 -0.1900
  770poe    c23 4914   0.581  -0.006   1.463  0.5022  0.0622  0.5681
  770poe    c23 4915   0.499   0.007   1.592 -0.3732  0.1518  0.0145
  770poe     o2 4916   0.411   0.115   1.574 -0.1827  0.2459 -0.3524
  770poe    c23 4917   0.336   0.144   1.690  0.1946  0.0029 -0.0460
  770poe    c23 4918   0.218   0.240   1.664 -0.1160 -0.2644  0.3587
  770poe     o2 4919   0.276   0.314   1.559  0.0812  0.3793  0.9176
  770poe    c31 4920   0.179   0.399   1.503 -0.1715 -0.3747  0.1883
  771poe    c31 4921   6.285   1.231   4.053 -0.1122 -0.1111  0.3407
  771poe     o2 4922   6.188   1.333   4.045  0.4573  0.4043 -0.0622
  771poe    c23 4923   6.075   1.317   4.128  0.1004  0.4549 -0.5327
  771poe    c23 4924   5.944   1.382   4.082 -0.0094  0.4038 -0.2942
  771poe     o2 4925   5.980   1.519   4.082 -0.4915  0.5350  0.1372
  771poe    c23 4926   5.879   1.592   4.016 -0.6649 -0.4608 -0.7454
  771poe    c23 4927   5.933   1.717   3.946 -0.1040 -0.1569  0.2066
  771poe     o2 4928   6.022   1.766   4.043  0.3364 -0.3173 -0.1102
  771poe    c23 4929   6.076   1.884   3.987 -0.1566  0.2001  0.4789
  771poe    c23 4930   6.154   1.957   4.098 -0.0523  0.4618  0.2355
  771poe     o2 4931   6.229   1.858   4.165 -0.1992  0.2481  0.0884
  771poe    c31 4932   6.255   1.888   4.301  0.5818  0.2393 -0.0550
  772poe    c31 4933   4.640   3.042   0.748  0.4803  0.2320 -0.3090
  772poe     o2 4934   4.551   3.116   0.828  0.0305 -0.7407  0.1043
  772poe    c23 4935   4.572   3.084   0.964 -0.1327 -0.0304  0.3049
  772poe    c23 4936   4.486   3.180   1.047 -0.2092  0.4431 -0.3171
  772poe     o2 4937   4.367   3.211   0.977 -0.4860  0.2866  0.0759
  772poe    c23 4938   4.309   3.331   1.023 -0.2178  0.4232  0.0644
  772poe    c23 4939   4.338   3.444   0.923  0.2093 -0.1385 -0.4520
  772poe     o2 4940   4.332   3.367   0.805  0.1774 -0.1490 -0.4435
  772poe    c23 4941   4.353   3.450   0.693 -0.0752  0.8250  0.2283
  772poe    c23 4942   4.344   3.371   0.562  0.1361 -0.0030  0.7086
  772poe     o2 4943   4.411   3.249   0.587  0.5981  0.0950 -0.0149
  772poe    c31 4944   4.438   3.196   0.459 -0.8241 -0.7748  0.0238
  773poe    c31 4945   2.129   3.716   2.220  0.4517  0.7239  0.0277
  773poe     o2 4946   2.128   3.695   2.359 -0.2202  0.3433 -0.0284
  773poe    c23 4947   2.225   3.767   2.432  0.3953 -0.4302 -0.0792
  773poe    c23 4948   2.205   3.770   2.585 -0.0695  0.3312 -0.1516
  773poe     o2 4949   2.090   3.843   2.621 -0.1775  0.0848 -0.0011
  773poe    c23 4950   2.062   3.821   2.757  0.6996 -0.2307  0.1348
  773poe    c23 4951   1.948   3.907   2.815  0.8226  0.4084 -0.5512
  773poe     o2 4952   1.837   3.868   2.737  0.3228  0.3415  0.1842
  773poe    c23 4953   1.715   3.894   2.804  0.4396 -0.2893  0.6525
  773poe    c23 4954   1.610   3.827   2.713  0.9564 -0.1551 -0.0520
  773poe     o2 4955   1.639   3.869   2.581  0.1753  0.1298 -0.1407
  773poe    c31 4956   1.517   3.904   2.521  0.4420  0.6646 -0.3874
  774poe    c31 4957   2.929   5.126   1.576  0.5847  0.2005  0.2596
  774poe     o2 4958   3.045   5.052   1.603  0.3069 -0.2710  0.1760
  774poe    c23 4959   3.050   4.951   1.505 -0.0411 -0.2463  0.1317
  774poe    c23 4960   3.163   4.857   1.551  0.1319 -0.2596 -0.3154
  774poe     o2 4961   3.177   4.863   1.691  0.1997 -0.0465 -0.3313
  774poe    c23 4962   3.301   4.815   1.738  0.3839  0.2788 -0.4820
  774poe    c23 4963   3.298   4.877   1.879 -0.0227 -0.2738 -0.2425
  774poe     o2 4964   3.266   5.014   1.864  0.3832 -0.0834  0.5902
  774poe    c23 4965   3.289   5.092   1.979 -0.5319 -0.4444  1.0277
  774poe    c23 4966   3.229   5.227   1.935  0.4584 -0.3660 -0.1252
  774poe     o2 4967   3.124   5.211   1.842  0.3436  0.0328 -0.0681
  774poe    c31 4968   3.031   5.317   1.849  0.4213  0.1231 -0.3930
  775poe    c31 4969   2.672   2.614   1.647  0.3606  0.1845 -0.1405
  775poe     o2 4970   2.679   2.474   1.633 -0.1010  0.1591 -0.1312
  775poe    c23 4971   2.655   2.429   1.502  0.5204  0.6969 -0.4353
  775poe    c23 4972   2.629   2.278   1.508  0.3795  0.7549  0.5853
  775poe     o2 4973   2.753   2.216   1.534  0.0727 -0.0251  0.2314
  775poe    c23 4974   2.740   2.079   1.562  0.1093 -0.1366 -0.2917
  775poe    c23 4975   2.880   2.015   1.579  0.0406 -0.1577  0.1999
  775poe     o2 4976   2.951   2.065   1.690  0.2229 -0.4655  0.2218
  775poe    c23 4977   3.074   1.997   1.704  0.4112 -0.0778  0.4671
  775poe    c23 4978   3.157   2.080   1.803  0.0855 -0.4227  1.0353
  775poe     o2 4979   3.085   2.140   1.909 -0.4050  0.6769  0.0998
  775poe    c31 4980   3.164   2.233   1.978  0.0355  0.3535  0.0345
  776poe    c31 4981   6.454   6.269   4.835 -0.3979  0.4049 -0.3931
  776poe     o2 4982   6.362   6.166   4.867 -0.1108  0.2019 -0.2190
  776poe    c23 4983   6.367   6.051   4.787 -0.1034 -0.0737  0.1775
  776poe    c23 4984   6.266   5.951   4.848 -0.3200  0.4899  0.7493
  776poe     o2 4985   6.297   5.947   4.985  0.3753 -0.2084  0.5778
  776poe    c23 4986   6.247   5.829   5.042 -0.2494 -0.2867 -0.1185
  776poe    c23 4987   6.218   5.855   5.192 -0.0059  0.2567 -0.1633
  776poe     o2 4988   6.159   5.978   5.226 -0.2379  0.0543  0.1691
  776poe    c23 4989   6.135   6.011   5.361 -0.3763  0.1205  0.1286
  776poe    c23 4990   6.250   6.003   5.464 -0.5412 -0.1411  0.2967
  776poe     o2 4991   6.351   6.092   5.420 -0.2395 -0.5669  0.1238
  776poe    c31 4992   6.472   6.100   5.491  0.0215  0.8746 -0.4430
  777poe    c31 4993   1.056   2.401   1.020  0.3295  0.0513  0.3222
  777poe     o2 4994   0.958   2.418   0.920  0.6663 -0.1184 -0.0439
  777poe    c23 4995   1.028   2.418   0.798 -0.2046  0.1190 -0.5522
  777poe    c23 4996   0.916   2.423   0.692 -0.4992 -0.4329 -0.2695
  777poe     o2 4997   0.817   2.511   0.740  0.2294  0.0392  0.4001
  777poe    c23 4998   0.813   2.641   0.688  0.5290  0.2825  0.9742
  777poe    c23 4999   0.702   2.712   0.768  0.1595  0.6264  0.1733
  777poe     o2 5000   0.723   2.668   0.900  0.0332  0.1813  0.0475
  777poe    c23 5001   0.602   2.691   0.970 -0.0029 -0.3937  0.1850
  777poe    c23 5002   0.631   2.647   1.114  0.3344 -0.6142  0.0503
  777poe     o2 5003   0.736   2.552   1.116  0.6234 -0.2945  0.2391
  777poe    c31 5004   0.781   2.544   1.249  0.5780 -0.4675  0.2449
  778poe    c31 5005   3.851   4.732   4.226  0.5154 -0.0752 -0.5001
  778poe     o2 5006   3.973   4.789   4.268 -0.1424  0.5977  0.5296
  778poe    c23 5007   4.077   4.724   4.197 -0.2312  0.5888  0.4075
  778poe    c23 5008   4.211   4.799   4.208  0.1366  0.0144 -0.1350
  778poe     o2 5009   4.197   4.926   4.148 -0.6096 -0.0094 -0.0209
  778poe    c23 5010   4.329   4.968   4.125 -0.4874 -0.3819 -0.0104
  778poe    c23 5011   4.319   5.090   4.031 -0.0107  0.1589  0.6315
  778poe     o2 5012   4.243   5.183   4.105 -0.4593  0.3310 -0.0348
  778poe    c23 5013   4.235   5.316   4.060 -0.4288  0.4884  0.4157
  778poe    c23 5014   4.112   5.392   4.114 -0.5109  0.2139  0.6162
  778poe     o2 5015   4.008   5.297   4.128 -0.0721 -0.2795  0.5828
  778poe    c31 5016   3.895   5.374   4.161  0.1254  0.0580  0.4866
  779poe    c31 5017   3.163   2.789   4.175 -0.0456 -0.2018  0.3894
  779poe     o2 5018   3.170   2.899   4.263 -0.3427  0.3136 -0.2233
  779poe    c23 5019   3.304   2.913   4.306 -0.1366 -0.4829 -0.5909
  779poe    c23 5020   3.293   2.962   4.451  0.3267  0.0135 -0.7184
  779poe     o2 5021   3.193   3.061   4.447 -0.1548 -0.3992  0.3989
  779poe    c23 5022   3.168   3.119   4.573 -0.8615 -0.3186  0.2237
  779poe    c23 5023   3.073   3.233   4.533  0.0798  0.2543 -0.4216
  779poe     o2 5024   2.980   3.180   4.441  0.0092  0.2725 -0.3609
  779poe    c23 5025   2.928   3.274   4.350 -0.0393  0.2123 -0.3962
  779poe    c23 5026   2.862   3.201   4.232 -0.5201 -0.2177  0.1353
  779poe     o2 5027   2.963   3.109   4.194  0.1093  0.5860 -0.1652
  779poe    c31 5028   2.937   3.049   4.069 -0.4990  0.0327  0.2190
  780poe    c31 5029   4.814   5.175   2.639 -0.2632  0.0569  0.5046
  780poe     o2 5030   4.946   5.153   2.595 -0.0977 -0.2405  1.1380
  780poe    c23 5031   5.050   5.189   2.683  0.6119  0.3731  0.0813
  780poe    c23 5032   5.150   5.074   2.706  0.3653  0.1129 -0.1465
  780poe     o2 5033   5.210   5.046   2.581  0.2381  0.0598 -0.1962
  780poe    c23 5034   5.324   4.966   2.603  0.2971  0.2797  0.3125
  780poe    c23 5035   5.414   4.963   2.479 -0.0881 -0.2220  0.0403
  780poe     o2 5036   5.341   4.947   2.359  0.0036 -0.1093 -0.0319
  780poe    c23 5037   5.392   4.954   2.228 -0.0705  0.6039 -0.0278
  780poe    c23 5038   5.270   4.933   2.137  0.1014 -0.0907 -0.1092
  780poe     o2 5039   5.170   5.027   2.169  0.4831  0.2882 -0.0110
  780poe    c31 5040   5.074   5.055   2.069  0.2745  0.3232  0.1974
  781poe    c31 5041   3.036   5.978   5.497 -0.5676  0.1200  0.4651
  781poe     o2 5042   3.076   5.843   5.496  0.1904  0.3367 -0.1981
  781poe    c23 5043   3.146   5.817   5.377 -0.6135 -0.0968 -0.5824
  781poe    c23 5044   3.154   5.664   5.356  0.5885 -0.0893 -0.2705
  781poe     o2 5045   3.192   5.622   5.485  0.5116 -0.2574 -0.3034
  781poe    c23 5046   3.140   5.492   5.504 -0.4462  0.2296  0.5289
  781poe    c23 5047   3.137   5.479   5.658  0.0080 -0.2029  0.5045
  781poe     o2 5048   3.096   5.606   5.702 -0.2959 -0.1296  0.0169
  781poe    c23 5049   3.093   5.609   5.843  0.0909 -0.0182  0.0234
  781poe    c23 5050   3.053   5.753   5.879  0.2778 -0.0398  0.3173
  781poe     o2 5051   3.120   5.840   5.791  0.4483 -0.1324  0.3549
  781poe    c31 5052   3.161   5.956   5.861  0.6268  0.3113 -0.4735
  782poe    c31 5053   0.655   0.706   2.200 -0.0283 -0.5650  1.5445
  782poe     o2 5054   0.553   0.610   2.199 -0.5091 -0.0588 -0.2694
  782poe    c23 5055   0.449   0.644   2.109 -0.4980  0.3877 -0.1110
  782poe    c23 5056   0.315   0.589   2.162 -0.5272  0.4369 -0.1340
  782poe     o2 5057   0.309   0.451   2.189 -0.0823  0.4784  0.1838
  782poe    c23 5058   0.309   0.365   2.078 -0.4972  0.3279  0.2974
  782poe    c23 5059   0.414   0.253   2.088 -0.5512  0.2785  0.3051
  782poe     o2 5060   0.533   0.324   2.112 -0.2399  0.0131 -0.4436
  782poe    c23 5061   0.641   0.243   2.071 -0.0472  0.0924 -0.0887
  782poe    c23 5062   0.770   0.315   2.117  0.0136 -0.2220  0.2420
  782poe     o2 5063   0.733   0.365   2.243 -0.0193 -0.8475  0.4857
  782poe    c31 5064   0.854   0.378   2.313  0.1466  0.2419  0.0231
  783poe    c31 5065   6.508   1.142   3.534  0.7913  0.0895 -0.3091
  783poe     o2 5066   6.600   1.115   3.431  0.4773 -0.5589 -0.4244
  783poe    c23 5067   6.648   1.237   3.380 -0.4594  0.0823  0.1982
  783poe    c23 5068   6.780   1.215   3.304 -0.2854 -0.1623  0.5717
  783poe     o2 5069   6.755   1.161   3.176  0.4327 -0.4078  0.5301
  783poe    c23 5070   6.875   1.106   3.126  0.2426 -0.2928 -0.0621
  783poe    c23 5071   6.840   1.041   2.991 -1.0419 -0.4765  0.3444
  783poe     o2 5072   6.808   1.138   2.893  0.3889 -0.5265 -0.1921
  783poe    c23 5073   6.806   1.067   2.771 -0.0006 -0.8530  0.0043
  783poe    c23 5074   6.742   1.149   2.658 -0.0682 -0.5978  0.2250
  783poe     o2 5075   6.785   1.282   2.667 -0.3290 -0.4449 -0.6459
  783poe    c31 5076   6.754   1.351   2.548 -0.3736  0.4898 -0.1110
  784poe    c31 5077   1.430   0.808   0.460 -0.4300  0.1266 -0.0655
  784poe     o2 5078   1.436   0.668   0.478  0.2416  0.2428  0.6611
  784poe    c23 5079   1.448   0.620   0.609 -0.1294  0.5422  0.8079
  784poe    c23 5080   1.346   0.506   0.627  0.3275  0.0690  0.4424
  784poe     o2 5081   1.344   0.418   0.517  0.5273  0.2740  0.2740
  784poe    c23 5082   1.251   0.315   0.543  1.0378 -0.1988  0.2376
  784poe    c23 5083   1.271   0.207   0.435 -0.0624 -0.7098  0.5370
  784poe     o2 5084   1.259   0.258   0.304  0.2542 -1.0827  0.3605
  784poe    c23 5085   1.324   0.177   0.209  0.6714  0.0193 -0.3059
  784poe    c23 5086   1.270   0.212   0.069  0.3503  0.0995 -0.1626
  784poe     o2 5087   1.133   0.185   0.053  0.2913  0.1517  0.2475
  784poe    c31 5088   1.095   0.283  -0.041 -0.2036 -0.8351 -0.6085
  785poe    c31 5089   3.587   3.218   2.963  0.0585 -0.2232 -0.0572
  785poe     o2 5090   3.660   3.328   3.013 -0.0009 -0.2753  0.1458
  785poe    c23 5091   3.799   3.311   2.995  0.0419  0.1671  0.0627
  785poe    c23 5092   3.880   3.413   3.077 -0.1297  0.2711  0.1045
  785poe     o2 5093   3.801   3.529   3.065 -0.3246  0.0981 -0.2950
  785poe    c23 5094   3.847   3.617   3.165  0.0997  0.0003 -0.4001
  785poe    c23 5095   3.801   3.749   3.101 -0.6821  0.0552  0.2525
  785poe     o2 5096   3.665   3.729   3.070 -0.4303 -0.2228 -0.7061
  785poe    c23 5097   3.599   3.853   3.088  0.1867 -0.0346  0.3214
  785poe    c23 5098   3.448   3.858   3.059  0.2332 -0.3146  0.0294
  785poe     o2 5099   3.378   3.755   3.126 -0.2272  0.0601  0.1272
  785poe    c31 5100   3.245   3.781   3.088 -0.0726  0.1053 -0.3878
  786poe    c31 5101   2.265   4.317   4.157  0.1766 -0.3537 -0.4157
  786poe     o2 5102   2.371   4.410   4.143 -0.1649  0.2032  0.6088
  786poe    c23 5103   2.345   4.520   4.059  0.3610 -0.4603 -0.4498
  786poe    c23 5104   2.468   4.611   4.039  0.1256  0.0486  0.3356
  786poe     o2 5105   2.580   4.533   4.003 -0.0049  0.0715 -0.1271
  786poe    c23 5106   2.681   4.611   3.943 -0.0972  0.1847 -0.1348
  786poe    c23 5107   2.797   4.521   3.898 -0.2411 -0.2133  0.2819
  786poe     o2 5108   2.816   4.431   4.005  0.2023  0.2994  0.6420
  786poe    c23 5109   2.944   4.376   3.986 -0.2447 -0.7160  0.4836
  786poe    c23 5110   2.966   4.265   4.090 -0.0230 -0.6718  0.4860
  786poe     o2 5111   2.908   4.139   4.068  0.8603 -0.9809 -0.0892
  786poe    c31 5112   2.948   4.061   3.958  0.4286 -0.2557 -0.7738
  787poe    c31 5113   5.367   3.508   6.695 -0.2062 -0.2285  0.4728
  787poe     o2 5114   5.239   3.565   6.708 -0.0386  0.1637  0.4189
  787poe    c23 5115   5.246   3.703   6.683  0.0647  0.0573 -0.1500
  787poe    c23 5116   5.107   3.747   6.632  0.1105 -0.4317 -0.7004
  787poe     o2 5117   5.015   3.664   6.700  0.0840 -0.3033 -0.5793
  787poe    c23 5118   4.898   3.738   6.727  0.3465 -0.1650  0.2011
  787poe    c23 5119   4.836   3.666   6.848  0.2664  0.1721  0.3620
  787poe     o2 5120   4.881   3.532   6.838  0.4579  0.2765 -0.2400
  787poe    c23 5121   4.845   3.454   6.950  0.2619 -0.2780 -0.6858
  787poe    c23 5122   4.966   3.460   7.045 -0.2982  0.7372 -0.0129
  787poe     o2 5123   5.080   3.484   6.965 -0.0741  0.3720  0.1981
  787poe    c31 5124   5.200   3.497   7.038  0.0605  0.2735 -0.0043
  788poe    c31 5125   6.754   5.167   4.419 -0.2303 -0.2920  0.3900
  788poe     o2 5126   6.881   5.141   4.476  0.2725  0.9071 -0.1570
  788poe    c23 5127   6.980   5.146   4.376 -0.4280 -0.2189 -0.9376
  788poe    c23 5128   7.109   5.137   4.461 -0.8598  0.0252 -0.2512
  788poe     o2 5129   7.085   5.070   4.582 -0.1903  0.2342 -0.0027
  788poe    c23 5130   7.205   5.043   4.653 -0.2212 -0.3801 -0.1760
  788poe    c23 5131   7.148   4.939   4.751  0.2142 -0.7765 -0.3399
  788poe     o2 5132   7.020   4.967   4.804  0.6645 -0.0108  0.3757
  788poe    c23 5133   6.984   4.861   4.889 -0.3003  0.1646  0.1894
  788poe    c23 5134   6.839   4.900   4.923 -0.2159  0.5622  0.0916
  788poe     o2 5135   6.768   4.923   4.803 -0.2021  0.5704  0.0851
  788poe    c31 5136   6.628   4.927   4.814 -0.2748  0.0987 -0.5947
  789poe    c31 5137   2.964   0.375   0.098  0.5348  0.4690 -0.4562
  789poe     o2 5138   2.996   0.273   0.006  0.2508 -0.1220  0.0904
  789poe    c23 5139   3.029   0.156   0.078  0.6222 -0.1410 -0.1097
  789poe    c23 5140   3.032   0.032  -0.014 -0.1347 -0.3040  0.0795
  789poe     o2 5141   3.085   0.064  -0.141 -0.2190  0.4758  0.2309
  789poe    c23 5142   3.059  -0.049  -0.222  1.0623  0.4580 -0.1798
  789poe    c23 5143   3.090  -0.016  -0.369  0.5503 -0.3900 -0.4843
  789poe     o2 5144   3.029   0.109  -0.391 -0.0346 -0.5738  0.0546
  789poe    c23 5145   3.016   0.142  -0.528 -0.0488  0.0861  0.2083
  789poe    c23 5146   2.920   0.260  -0.552 -0.3828 -0.1455  0.3819
  789poe     o2 5147   2.977   0.378  -0.500  0.1076 -0.2497  0.0886
  789poe    c31 5148   2.916   0.503  -0.525  0.2685 -0.2214 -0.1671
  790poe    c31 5149   4.501   5.698   5.163 -0.1864 -0.4579  0.3220
  790poe     o2 5150   4.525   5.560   5.142 -0.5560 -0.3683 -0.7565
  790poe    c23 5151   4.656   5.563   5.088  0.0372 -0.2043  0.6468
  790poe    c23 5152   4.699   5.422   5.044 -0.3953 -0.1353 -0.0104
  790poe     o2 5153   4.734   5.345   5.157  0.0948  0.1612  0.0454
  790poe    c23 5154   4.698   5.210   5.142 -0.4628  0.2802  0.2473
  790poe    c23 5155   4.725   5.159   5.285 -0.1878  0.4862  0.2694
  790poe     o2 5156   4.603   5.136   5.351 -0.4082 -0.2905 -0.3951
  790poe    c23 5157   4.614   5.077   5.479  0.5226 -0.6050 -0.6108
  790poe    c23 5158   4.468   5.053   5.523  0.7274 -0.0505  0.4110
  790poe     o2 5159   4.385   5.166   5.518  0.2764 -0.4079 -0.3411
  790poe    c31 5160   4.285   5.152   5.617 -0.3675  0.7401 -0.8039
  791poe    c31 5161   5.122   1.262   2.782  0.0670 -0.4784 -0.0471
  791poe     o2 5162   5.060   1.174   2.692 -0.6445  0.1039 -0.1407
  791poe    c23 5163   5.123   1.184   2.566  0.1471  0.2529  0.2642
  791poe    c23 5164   5.039   1.107   2.464  0.6868 -0.1468  0.1148
  791poe     o2 5165   5.015   0.980   2.520  0.5232 -0.1800 -0.0263
  791poe    c23 5166   4.968   0.878   2.434 -0.7097  0.3722 -0.0276
  791poe    c23 5167   4.982   0.747   2.514 -0.3912  0.1669 -0.4179
  791poe     o2 5168   4.937   0.769   2.646  0.0601 -0.2179 -0.1981
  791poe    c23 5169   4.931   0.646   2.714  0.6775  0.3119  0.8471
  791poe    c23 5170   4.878   0.667   2.857 -0.3200  0.2909  0.4830
  791poe     o2 5171   4.973   0.714   2.949  0.0589  0.3153  0.0842
  791poe    c31 5172   4.989   0.623   3.056 -0.0111 -0.1086 -0.2656
  792poe    c31 5173   2.731   3.467   5.990  0.1931 -0.2430  0.0150
  792poe     o2 5174   2.837   3.375   6.000  0.5421  0.1518 -0.0174
  792poe    c23 5175   2.842   3.280   5.896  0.3326  0.3169 -0.1782
  792poe    c23 5176   2.966   3.199   5.937 -0.2153 -0.1601  0.5682
  792poe     o2 5177   3.079   3.279   5.963 -0.1483 -0.0715  0.0163
  792poe    c23 5178   3.194   3.200   5.984 -0.5533 -0.7172 -0.1499
  792poe    c23 5179   3.321   3.283   6.013 -0.9347 -0.2438  0.2028
  792poe     o2 5180   3.288   3.362   6.125 -0.3878  0.2966 -0.0116
  792poe    c23 5181   3.388   3.461   6.129 -0.1840  0.1197 -0.6459
  792poe    c23 5182   3.334   3.575   6.216 -0.1951 -0.6200  0.3316
  792poe     o2 5183   3.219   3.632   6.157 -0.2567 -0.3557  0.7014
  792poe    c31 5184   3.180   3.751   6.222  0.7416  0.4767 -0.1690
  793poe    c31 5185   4.941   3.757   3.646  0.0837  0.1543 -0.1153
  793poe     o2 5186   4.913   3.685   3.528  0.3424  0.0068 -0.0874
  793poe    c23 5187   4.774   3.688   3.507  0.2975 -0.2201  0.1758
  793poe    c23 5188   4.708   3.593   3.406 -0.2227  0.8217 -0.4835
  793poe     o2 5189   4.814   3.596   3.313  0.2761 -0.5830  0.0053
  793poe    c23 5190   4.819   3.497   3.212 -0.3980 -0.2381 -0.3760
  793poe    c23 5191   4.960   3.512   3.152 -0.3151  0.5368  0.0004
  793poe     o2 5192   5.037   3.503   3.270 -0.0452  0.0028 -0.2175
  793poe    c23 5193   5.176   3.500   3.245  0.0344 -0.1258  0.2358
  793poe    c23 5194   5.240   3.516   3.385  0.0445 -0.0732  0.2252
  793poe     o2 5195   5.178   3.627   3.445 -0.1595 -0.0744  0.0202
  793poe    c31 5196   5.263   3.681   3.544  0.2466  0.1161 -0.4256
  794poe    c31 5197   0.355   1.403   6.718 -0.0922 -0.1418  0.1488
  794poe     o2 5198   0.379   1.303   6.621  0.0746  0.2542 -0.2196
  794poe    c23 5199   0.482   1.348   6.536  0.1172 -0.0692 -0.3417
  794poe    c23 5200   0.493   1.267   6.405  0.3550 -0.2822 -0.1902
  794poe     o2 5201   0.449   1.142   6.454  0.0813 -0.2171 -0.2654
  794poe    c23 5202   0.444   1.045   6.352 -0.0699 -0.4083 -0.0790
  794poe    c23 5203   0.408   0.915   6.425 -0.5722 -0.3284 -0.1790
  794poe     o2 5204   0.305   0.928   6.521 -0.3448 -0.0536  0.0313
  794poe    c23 5205   0.177   0.926   6.463 -0.1604 -0.1079 -0.3784
  794poe    c23 5206   0.087   1.001   6.562  0.1554 -0.2540  0.0212
  794poe     o2 5207   0.154   1.119   6.599  0.0918 -0.2651  0.1766
  794poe    c31 5208   0.062   1.213   6.648  0.1629  0.0628 -0.3103
  795poe    c31 5209   2.951   6.148   3.108  0.2884 -0.6905  0.2676
  795poe     o2 5210   2.870   6.171   3.220  0.1224 -0.2664  0.0626
  795poe    c23 5211   2.903   6.094   3.334  0.5921  0.0035  0.1104
  795poe    c23 5212   2.823   6.154   3.451 -0.0501  0.4803 -0.5586
  795poe     o2 5213   2.712   6.228   3.406 -0.3997  0.1997 -0.1778
  795poe    c23 5214   2.660   6.290   3.521 -0.3633  0.3931 -0.2639
  795poe    c23 5215   2.529   6.341   3.457 -0.7040 -0.4842 -0.2867
  795poe     o2 5216   2.556   6.405   3.334  0.3635 -0.5750 -0.1138
  795poe    c23 5217   2.454   6.400   3.236  0.3023 -0.0931 -0.0793
  795poe    c23 5218   2.451   6.267   3.158  0.3899 -0.1331 -0.0160
  795poe     o2 5219   2.587   6.241   3.128  0.1370 -0.9211 -0.5161
  795poe    c31 5220   2.594   6.131   3.041  1.2097 -1.1748 -0.1214
  796poe    c31 5221   2.829   6.865   4.149 -0.0986  0.5619  0.3107
  796poe     o2 5222   2.769   6.880   4.022  0.2505  0.0210  0.0786
  796poe    c23 5223   2.656   6.797   4.022  0.1786  0.1186  0.1717
  796poe    c23 5224   2.618   6.761   3.877  0.1901  0.6237  0.0421
  796poe     o2 5225   2.599   6.880   3.804  0.3345  0.2706 -0.5773
  796poe    c23 5226   2.555   6.843   3.676 -0.7053 -0.4111 -0.0397
  796poe    c23 5227   2.510   6.973   3.606 -0.0769  0.0447  0.3939
  796poe     o2 5228   2.616   7.067   3.607  0.4884 -0.5643 -0.8326
  796poe    c23 5229   2.593   7.197   3.557 -0.6321  0.1451  1.3748
  796poe    c23 5230   2.723   7.269   3.595 -0.0021 -0.1312 -0.1731
  796poe     o2 5231   2.772   7.223   3.719 -0.3255 -0.6703 -0.2411
  796poe    c31 5232   2.870   7.308   3.775 -0.7104 -0.3929  0.0174
  797poe    c31 5233   5.195   5.160   4.253  0.0915  0.3718 -0.1665
  797poe     o2 5234   5.244   5.282   4.305 -0.5396  0.6869 -0.2980
  797poe    c23 5235   5.286   5.275   4.439 -0.5834  0.4646 -0.2953
  797poe    c23 5236   5.371   5.403   4.438 -0.1431  0.1788  0.1235
  797poe     o2 5237   5.300   5.498   4.362  0.0448 -0.1066 -0.4069
  797poe    c23 5238   5.355   5.627   4.376 -0.1075 -0.1048  0.1696
  797poe    c23 5239   5.276   5.714   4.278  0.4059 -0.2479 -0.3741
  797poe     o2 5240   5.289   5.672   4.144 -0.3802 -0.3040 -0.4335
  797poe    c23 5241   5.251   5.770   4.050 -0.2615  0.4767  0.3272
  797poe    c23 5242   5.198   5.720   3.914  0.9848 -0.7683  0.2777
  797poe     o2 5243   5.082   5.641   3.918  0.2294  0.3095  0.0429
  797poe    c31 5244   5.026   5.627   3.789  0.1610 -0.0963  0.1148
  798poe    c31 5245   5.184   3.655   1.272  0.4155  0.1507 -0.3413
  798poe     o2 5246   5.176   3.587   1.149 -0.1987  0.1092 -0.2799
  798poe    c23 5247   5.304   3.558   1.099 -0.0180 -0.0752  0.2745
  798poe    c23 5248   5.310   3.535   0.947  0.1020 -0.0977  0.2824
  798poe     o2 5249   5.270   3.650   0.875  0.1112 -0.4066 -0.2226
  798poe    c23 5250   5.260   3.632   0.735 -0.1273  0.1604 -0.2783
  798poe    c23 5251   5.175   3.743   0.671 -0.4154 -0.1169 -0.3752
  798poe     o2 5252   5.041   3.721   0.711 -0.2508 -0.1144  0.1877
  798poe    c23 5253   4.952   3.810   0.649  0.0169  0.0419  0.0251
  798poe    c23 5254   4.811   3.748   0.656  0.1189 -0.1762  0.1512
  798poe     o2 5255   4.806   3.725   0.795  0.1301  0.5344  0.2717
  798poe    c31 5256   4.678   3.688   0.842  0.3515  0.3831  0.7622
  799poe    c31 5257   2.397   3.204   6.191  0.2080 -0.6308  0.1215
  799poe     o2 5258   2.285   3.208   6.276 -0.2795  0.0174 -0.5360
  799poe    c23 5259   2.180   3.121   6.242 -0.3082 -0.1131 -0.1167
  799poe    c23 5260   2.057   3.175   6.318 -0.4157 -0.0544 -0.3319
  799poe     o2 5261   2.081   3.183   6.457 -0.1707 -0.1736 -0.3671
  799poe    c23 5262   1.964   3.201   6.533  0.3743  0.3522  0.3596
  799poe    c23 5263   2.002   3.188   6.681  0.0416  0.1367  0.4269
  799poe     o2 5264   2.115   3.267   6.711 -0.3644  0.7251  0.3954
  799poe    c23 5265   2.166   3.260   6.842  0.2639 -0.3196  0.0985
  799poe    c23 5266   2.312   3.309   6.839  0.3267 -0.4903  0.3216
  799poe     o2 5267   2.387   3.247   6.737 -0.1447  0.0300 -0.3546
  799poe    c31 5268   2.523   3.280   6.756 -0.1010 -0.2509 -0.1737
  800poe    c31 5269   3.982   3.238   5.438 -0.6346  0.1661  0.2655
  800poe     o2 5270   4.075   3.271   5.538  0.0205  0.0682 -0.3081
  800poe    c23 5271   4.185   3.340   5.483  0.0115  0.2706 -0.0758
  800poe    c23 5272   4.269   3.398   5.598  0.1959  0.2294 -0.1879
  800poe     o2 5273   4.302   3.301   5.694  0.2150  0.1697 -0.2549
  800poe    c23 5274   4.440   3.276   5.710  0.1108 -0.0191  0.3919
  800poe    c23 5275   4.491   3.195   5.831  0.0656 -0.4133  0.1450
  800poe     o2 5276   4.441   3.261   5.945 -0.3247 -0.0407 -0.2373
  800poe    c23 5277   4.454   3.175   6.056 -0.7984 -0.6364 -0.6340
  800poe    c23 5278   4.362   3.197   6.177 -0.1608 -0.0326 -0.2489
  800poe     o2 5279   4.365   3.318   6.249 -0.0572 -0.1255 -0.0959
  800poe    c31 5280   4.270   3.339   6.351 -0.3771  0.0802 -0.4301
  801poe    c31 5281   0.218   5.272   1.788  0.4132 -0.1626  0.1595
  801poe     o2 5282   0.309   5.342   1.707  0.5024 -0.3274  0.1169
  801poe    c23 5283   0.241   5.356   1.584  0.4248  0.3569  0.2362
  801poe    c23 5284   0.353   5.382   1.481  0.1257  0.1305 -0.1460
  801poe     o2 5285   0.426   5.489   1.536 -0.0057 -0.3206  0.9325
  801poe    c23 5286   0.547   5.516   1.469 -1.1563  0.6830 -0.8284
  801poe    c23 5287   0.594   5.627   1.565 -0.2250 -0.3611 -0.0427
  801poe     o2 5288   0.586   5.583   1.699  0.1053  0.2174  0.1703
  801poe    c23 5289   0.646   5.686   1.774  0.1036  0.2718  0.0961
  801poe    c23 5290   0.623   5.681   1.926  0.0517  1.0823  0.1223
  801poe     o2 5291   0.486   5.704   1.952 -0.1120  0.1037  0.1522
  801poe    c31 5292   0.457   5.657   2.081 -0.7441 -0.0899 -0.0587
  802poe    c31 5293   3.175   4.155   4.510  0.1618 -0.5552 -0.1124
  802poe     o2 5294   3.270   4.062   4.558  0.2979 -0.2850  0.1488
  802poe    c23 5295   3.304   3.978   4.450 -0.2230  0.1410 -0.3583
  802poe    c23 5296   3.424   3.894   4.496 -0.4815 -0.0382 -0.0107
  802poe     o2 5297   3.392   3.846   4.625 -0.3896 -0.2894 -0.0813
  802poe    c23 5298   3.498   3.768   4.676 -0.6978 -0.6850 -0.0380
  802poe    c23 5299   3.444   3.677   4.788 -0.2797 -0.6212  0.2157
  802poe     o2 5300   3.366   3.757   4.873 -0.2287 -0.0236 -0.2941
  802poe    c23 5301   3.286   3.684   4.963  0.2735 -0.1097  0.0873
  802poe    c23 5302   3.230   3.779   5.070  0.0579 -0.4038  0.2392
  802poe     o2 5303   3.128   3.859   5.015  0.1267 -0.2513  0.3288
  802poe    c31 5304   3.043   3.918   5.111 -0.1342  0.3151 -0.2425
  803poe    c31 5305   0.998   4.694   5.077 -0.2791 -0.7958  0.1834
  803poe     o2 5306   0.966   4.677   5.213 -0.5608  0.1318  0.2337
  803poe    c23 5307   0.832   4.718   5.230 -0.4941  0.5135 -0.1399
  803poe    c23 5308   0.782   4.712   5.375 -0.0870  0.2630 -0.0062
  803poe     o2 5309   0.831   4.601   5.445 -0.3875 -0.1751 -0.4844
  803poe    c23 5310   0.747   4.565   5.552  0.0160  0.7276  0.1525
  803poe    c23 5311   0.825   4.468   5.642 -0.4184  0.0281 -0.2122
  803poe     o2 5312   0.902   4.380   5.563  0.0169  0.1999  0.0167
  803poe    c23 5313   0.945   4.267   5.635 -0.6084 -0.0671 -0.0247
  803poe    c23 5314   1.031   4.180   5.540  0.2550  0.1463  0.5503
  803poe     o2 5315   1.152   4.239   5.498  0.2285 -0.4543 -0.3792
  803poe    c31 5316   1.246   4.146   5.450  0.6196 -0.3160  0.1154
  804poe    c31 5317   6.425   2.787   4.433 -0.5491  0.5357  0.0693
  804poe     o2 5318   6.512   2.690   4.379 -0.1554  0.8837  0.0752
  804poe    c23 5319   6.477   2.671   4.244  0.6705  0.3016 -0.0624
  804poe    c23 5320   6.581   2.584   4.171  0.2071  0.1226 -0.5160
  804poe     o2 5321   6.713   2.619   4.207  0.0099  0.2655  0.0746
  804poe    c23 5322   6.814   2.528   4.172  0.0134  0.2468  0.1333
  804poe    c23 5323   6.938   2.584   4.244  0.2689  0.2504 -0.3078
  804poe     o2 5324   6.915   2.621   4.378  0.4208 -0.3681 -0.1089
  804poe    c23 5325   7.020   2.575   4.458  0.0395 -0.1539  0.5216
  804poe    c23 5326   7.012   2.652   4.591 -0.1483  0.1508  0.3315
  804poe     o2 5327   6.918   2.607   4.686 -0.1701 -0.4831  0.0140
  804poe    c31 5328   6.959   2.659   4.811 -1.5327 -0.2330  0.3744
  805poe    c31 5329   4.995   3.637   1.780 -0.0180 -0.6703 -0.2385
  805poe     o2 5330   5.034   3.551   1.675 -0.0117 -0.3982 -0.4583
  805poe    c23 5331   4.925   3.472   1.634 -0.3251 -0.2922  0.1537
  805poe    c23 5332   4.955   3.408   1.497 -0.1938  0.0912  0.0037
  805poe     o2 5333   5.090   3.367   1.487 -0.0344  0.5455  0.2200
  805poe    c23 5334   5.108   3.275   1.382  0.1806 -0.1640  0.8695
  805poe    c23 5335   5.254   3.225   1.388  0.0381 -0.7182 -0.0162
  805poe     o2 5336   5.337   3.338   1.388 -0.0864 -0.6263 -0.0929
  805poe    c23 5337   5.474   3.306   1.395  0.1430  0.3123 -0.1309
  805poe    c23 5338   5.552   3.437   1.370  0.2601  0.3008  0.1769
  805poe     o2 5339   5.532   3.534   1.471 -0.2768  0.4664 -0.0864
  805poe    c31 5340   5.609   3.651   1.460  0.5586 -0.0133  0.5374
  806poe    c31 5341   0.654   5.520   5.832  0.2807  0.5867  0.0911
  806poe     o2 5342   0.559   5.581   5.748 -0.0906 -0.1216 -0.0066
  806poe    c23 5343   0.530   5.712   5.791  0.5077  0.0859 -0.2246
  806poe    c23 5344   0.429   5.769   5.690  0.0362 -0.5105 -0.0929
  806poe     o2 5345   0.316   5.686   5.668 -0.3977  0.0294  0.0805
  806poe    c23 5346   0.232   5.733   5.565 -0.4342 -0.2843 -0.0333
  806poe    c23 5347   0.214   5.603   5.485 -0.1100  0.1578 -0.8308
  806poe     o2 5348   0.345   5.551   5.472  0.0467  0.3698 -0.1202
  806poe    c23 5349   0.379   5.498   5.346  0.5574  0.5359 -0.0522
  806poe    c23 5350   0.520   5.445   5.377  0.1763 -0.2505  0.3515
  806poe     o2 5351   0.537   5.403   5.510 -0.0665 -0.4661  0.3158
  806poe    c31 5352   0.667   5.350   5.523  0.1296  0.0444  0.4451
  807poe    c31 5353   5.795   3.529   2.054 -0.3558  0.2075 -0.1564
  807poe     o2 5354   5.704   3.447   1.985  0.0070  0.0231 -0.4225
  807poe    c23 5355   5.756   3.439   1.854 -0.3181  0.1319 -0.5589
  807poe    c23 5356   5.673   3.328   1.789  0.5788 -0.3041 -0.9685
  807poe     o2 5357   5.686   3.212   1.868  0.3416  0.1952 -0.1860
  807poe    c23 5358   5.639   3.097   1.801 -0.0339  0.2373  0.0034
  807poe    c23 5359   5.671   2.966   1.876  0.2669  0.2358 -0.1235
  807poe     o2 5360   5.641   2.977   2.013  0.0766 -0.3204 -0.1205
  807poe    c23 5361   5.689   2.857   2.068  0.5334 -0.1385 -0.1230
  807poe    c23 5362   5.723   2.854   2.219 -0.0894 -0.2217  0.0168
  807poe     o2 5363   5.831   2.937   2.255 -0.3066 -0.0568  0.2916
  807poe    c31 5364   5.955   2.885   2.213 -0.4392 -0.3482  0.2530
  808poe    c31 5365   6.579   3.019   3.905  0.2928  0.5388  0.3808
  808poe     o2 5366   6.536   3.025   3.771 -0.1443 -0.6935  0.4475
  808poe    c23 5367   6.396   3.024   3.765 -0.1568 -0.7797  0.7418
  808poe    c23 5368   6.343   3.036   3.621  0.4421 -0.0498  0.5776
  808poe     o2 5369   6.365   3.164   3.564 -0.2370 -0.1441  0.0892
  808poe    c23 5370   6.286   3.191   3.450 -0.2353  0.1309  0.1542
  808poe    c23 5371   6.359   3.274   3.342 -0.1675 -0.0810  0.0351
  808poe     o2 5372   6.415   3.378   3.420 -0.6393  0.1849  0.0239
  808poe    c23 5373   6.495   3.472   3.352 -0.0780 -0.3334 -0.0417
  808poe    c23 5374   6.521   3.588   3.450 -0.3037 -0.1627 -0.1833
  808poe     o2 5375   6.563   3.529   3.571  0.1697  0.2983 -0.1219
  808poe    c31 5376   6.651   3.612   3.644 -0.1857  0.1750  0.4448
  809poe    c31 5377   0.410   3.747   4.654  0.4371 -0.2498 -0.1636
  809poe     o2 5378   0.301   3.657   4.666  0.3509 -0.1515 -0.2073
  809poe    c23 5379   0.255   3.620   4.539  0.0006 -0.0753 -0.1024
  809poe    c23 5380   0.108   3.579   4.557  0.0744 -0.1907  0.2282
  809poe     o2 5381   0.078   3.491   4.663 -0.3936 -0.3066  0.0029
  809poe    c23 5382   0.131   3.360   4.656 -0.1613 -0.2177  0.0902
  809poe    c23 5383   0.159   3.314   4.800 -0.0655  0.4605  0.2928
  809poe     o2 5384   0.269   3.391   4.843  0.1533  0.1395  0.3132
  809poe    c23 5385   0.299   3.348   4.974  0.0374 -0.6972  0.0729
  809poe    c23 5386   0.413   3.436   5.029 -0.3534  0.0217 -0.2440
  809poe     o2 5387   0.393   3.575   5.014  0.2174  0.1842  0.4577
  809poe    c31 5388   0.495   3.664   5.053  0.6281 -0.1555  0.1731
  810poe    c31 5389   1.869   4.364   4.810  0.3697 -0.0358  0.4394
  810poe     o2 5390   1.913   4.395   4.679 -0.0979  0.2812  0.3523
  810poe    c23 5391   2.038   4.335   4.652 -0.1633  0.2589  0.1006
  810poe    c23 5392   2.119   4.409   4.544 -0.1462  0.1259  0.0225
  810poe     o2 5393   2.138   4.544   4.578  0.0987  0.0786  0.0765
  810poe    c23 5394   2.265   4.576   4.524  0.5074 -0.4816  0.6810
  810poe    c23 5395   2.262   4.730   4.514  0.9670 -0.4942  0.3103
  810poe     o2 5396   2.174   4.782   4.611  0.5584 -0.3254 -0.1477
  810poe    c23 5397   2.162   4.922   4.623  0.2025 -0.3758  0.1133
  810poe    c23 5398   2.282   5.010   4.665  0.3994 -0.7915  0.4330
  810poe     o2 5399   2.332   4.997   4.796  0.0885 -0.7117  0.5604
  810poe    c31 5400   2.450   5.068   4.826 -0.5545  0.3570  0.6187
  811poe    c31 5401   2.805   0.417   4.598 -0.2042  0.2572  0.3136
  811poe     o2 5402   2.824   0.277   4.610  0.3495  0.2982 -0.0514
  811poe    c23 5403   2.947   0.239   4.553  0.0556 -0.4155 -0.2110
  811poe    c23 5404   2.956   0.085   4.551  0.1146 -0.4155  0.1125
  811poe     o2 5405   2.897   0.044   4.673 -0.2496 -0.5147 -0.0952
  811poe    c23 5406   2.886  -0.096   4.682 -0.7324 -0.4733 -0.0209
  811poe    c23 5407   2.807  -0.112   4.813  0.1005 -0.1277  0.5335
  811poe     o2 5408   2.695  -0.026   4.816  0.1013 -0.1079  0.0269
  811poe    c23 5409   2.667   0.003   4.951  0.3154 -0.3513  0.1257
  811poe    c23 5410   2.574   0.126   4.940 -0.1456 -0.7219 -0.1910
  811poe     o2 5411   2.645   0.226   4.871 -0.2297 -0.0310  0.6963
  811poe    c31 5412   2.592   0.355   4.892 -0.1369  0.1311 -0.0218
  812poe    c31 5413   0.927   0.249   2.994  0.4221 -0.2177  0.1159
  812poe     o2 5414   0.842   0.340   3.060  0.1109 -0.1058 -0.4290
  812poe    c23 5415   0.739   0.275   3.130  0.1948  0.0192 -0.1887
  812poe    c23 5416   0.720   0.329   3.273  0.0699 -0.2842 -0.0895
  812poe     o2 5417   0.641   0.445   3.284 -0.3503 -0.5542 -0.2335
  812poe    c23 5418   0.649   0.506   3.411  0.2837  0.2871 -0.6711
  812poe    c23 5419   0.566   0.636   3.408 -0.2836 -0.0512  0.1341
  812poe     o2 5420   0.569   0.692   3.279 -0.7968 -0.5927 -0.1181
  812poe    c23 5421   0.508   0.819   3.276 -0.2438 -0.3211  0.0973
  812poe    c23 5422   0.502   0.868   3.130 -0.0916 -0.0701  0.1745
  812poe     o2 5423   0.441   0.763   3.058 -0.2928  0.4565 -0.4358
  812poe    c31 5424   0.428   0.800   2.923 -0.7555  0.3198 -0.4313
  813poe    c31 5425   2.297   2.882   5.902  0.0552 -0.0323  0.5887
  813poe     o2 5426   2.193   2.935   5.823  0.3774 -0.6565 -0.2751
  813poe    c23 5427   2.211   2.937   5.683  0.0286  0.4102 -0.3125
  813poe    c23 5428   2.076   2.976   5.620  0.1059  0.2819 -0.5551
  813poe     o2 5429   2.036   3.109   5.644 -0.7735 -0.0420 -0.1710
  813poe    c23 5430   1.914   3.141   5.581 -0.4788  0.1177 -0.6673
  813poe    c23 5431   1.892   3.290   5.614 -0.1399  0.1633 -0.6472
  813poe     o2 5432   1.910   3.303   5.753 -0.8265 -0.2761 -0.5177
  813poe    c23 5433   1.870   3.431   5.795 -0.0927 -0.1635 -0.1510
  813poe    c23 5434   1.957   3.453   5.920 -0.0523  0.4503 -0.2829
  813poe     o2 5435   2.086   3.398   5.910 -0.0173  0.4942 -0.0856
  813poe    c31 5436   2.175   3.441   6.011 -0.3422  0.7177  0.1071
  814poe    c31 5437   0.606   4.815   0.093 -0.1283  0.8189  0.1169
  814poe     o2 5438   0.626   4.788   0.230 -0.7789 -0.4169 -0.0164
  814poe    c23 5439   0.593   4.901   0.308  0.0788 -0.5873  0.6046
  814poe    c23 5440   0.669   4.896   0.442  0.6463 -0.3444  0.2962
  814poe     o2 5441   0.652   4.762   0.485 -0.8872 -0.2216  0.1430
  814poe    c23 5442   0.735   4.736   0.595 -0.4578 -0.5794 -0.2594
  814poe    c23 5443   0.863   4.661   0.552 -0.1584 -0.6014  0.6335
  814poe     o2 5444   0.813   4.566   0.460 -0.4698 -0.2587  0.4466
  814poe    c23 5445   0.914   4.523   0.372 -0.3232  0.0694  0.4526
  814poe    c23 5446   0.839   4.437   0.269  0.2303 -0.1982  0.2682
  814poe     o2 5447   0.746   4.521   0.205  0.3918 -0.2123  0.0131
  814poe    c31 5448   0.662   4.448   0.118  0.2906 -0.3397  0.2186
  815poe    c31 5449   0.811   2.393   2.041  0.1121  0.1485  0.2426
  815poe     o2 5450   0.819   2.485   1.935  0.2470 -0.0427  0.0877
  815poe    c23 5451   0.950   2.533   1.919  0.3200 -0.2944 -0.0929
  815poe    c23 5452   0.932   2.678   1.870 -0.6853 -0.1791  0.5928
  815poe     o2 5453   0.836   2.674   1.768 -0.2999 -0.0933  0.2251
  815poe    c23 5454   0.832   2.790   1.687 -0.3143 -0.2172  0.0465
  815poe    c23 5455   0.726   2.761   1.580 -1.1375  0.4969  0.6493
  815poe     o2 5456   0.633   2.677   1.645 -0.6217 -0.1416  0.5707
  815poe    c23 5457   0.567   2.584   1.561 -0.0552  0.2199 -0.2912
  815poe    c23 5458   0.480   2.507   1.662  0.2757 -0.0421 -0.2076
  815poe     o2 5459   0.569   2.465   1.764  0.1465  0.4726  0.1201
  815poe    c31 5460   0.505   2.371   1.847 -0.0145  0.2878 -0.2099
  816poe    c31 5461   6.872   2.665   6.490  0.1238 -0.8116  0.2133
  816poe     o2 5462   6.740   2.663   6.441  0.3692 -0.0987 -0.4945
  816poe    c23 5463   6.744   2.744   6.325 -0.2568 -0.0705 -0.4981
  816poe    c23 5464   6.605   2.748   6.258 -0.5422 -0.0275  0.0851
  816poe     o2 5465   6.509   2.769   6.359 -0.3666 -0.0211  0.2526
  816poe    c23 5466   6.386   2.703   6.338 -0.4133  0.1851 -0.1407
  816poe    c23 5467   6.392   2.553   6.373  0.2392  0.2936  0.2392
  816poe     o2 5468   6.450   2.541   6.501 -0.0206  0.1264  0.3433
  816poe    c23 5469   6.457   2.408   6.546  0.0887  0.1702  0.4557
  816poe    c23 5470   6.533   2.406   6.680 -0.0489 -0.7829  0.5224
  816poe     o2 5471   6.637   2.500   6.685 -0.5887 -0.1549  0.0392
  816poe    c31 5472   6.704   2.468   6.805  0.2346  0.3774 -0.2638
  817poe    c31 5473   4.769   2.717   4.067  0.1424  0.1385  0.4157
  817poe     o2 5474   4.877   2.715   3.975 -0.1417  0.0943  0.0789
  817poe    c23 5475   4.871   2.842   3.914  0.1178 -0.0613 -0.2704
  817poe    c23 5476   4.998   2.875   3.834 -0.1843  0.2013 -0.6462
  817poe     o2 5477   5.021   2.799   3.717 -0.0397  0.3557 -0.7190
  817poe    c23 5478   5.157   2.763   3.727 -0.2020 -0.1829 -0.3522
  817poe    c23 5479   5.151   2.609   3.727 -0.2534 -0.1807 -0.2389
  817poe     o2 5480   5.073   2.551   3.829 -0.2040  0.1183 -0.0288
  817poe    c23 5481   5.042   2.420   3.787  0.1042 -0.1450  0.5580
  817poe    c23 5482   4.918   2.362   3.859  0.1908 -1.2061 -0.1241
  817poe     o2 5483   4.912   2.412   3.990 -0.3929 -0.3564 -0.4662
  817poe    c31 5484   4.847   2.325   4.080 -0.1875  0.0817  0.1172
  818poe    c31 5485   4.743   3.725   3.970  0.0368 -0.0450  1.2571
  818poe     o2 5486   4.777   3.850   4.025  0.2902  0.5853 -0.2664
  818poe    c23 5487   4.685   3.871   4.130  0.4263  0.0541 -0.0394
  818poe    c23 5488   4.702   4.013   4.186 -0.1845  0.0476  0.1750
  818poe     o2 5489   4.837   4.048   4.166 -0.2130 -0.0876 -0.2756
  818poe    c23 5490   4.856   4.187   4.180  0.2471 -0.1511 -0.2456
  818poe    c23 5491   4.985   4.234   4.111  0.2137  0.1830 -0.0856
  818poe     o2 5492   4.989   4.185   3.978  0.3964  0.3637 -0.1473
  818poe    c23 5493   5.084   4.249   3.896  0.2308  0.4729 -0.2538
  818poe    c23 5494   5.072   4.210   3.748  0.2434 -0.0520 -0.1183
  818poe     o2 5495   4.944   4.232   3.693  0.2570 -0.2139 -0.2135
  818poe    c31 5496   4.949   4.196   3.556  0.4198 -0.1357 -0.2274
  819poe    c31 5497   1.838   1.890   4.579 -0.0227 -0.2373 -0.4454
  819poe     o2 5498   1.784   1.984   4.669  0.3824 -0.1897 -0.2501
  819poe    c23 5499   1.885   2.058   4.733  0.2782  0.2077 -0.5390
  819poe    c23 5500   1.833   2.179   4.813  0.0075 -0.1783 -0.1207
  819poe     o2 5501   1.767   2.125   4.925  0.2662 -0.3692 -0.0624
  819poe    c23 5502   1.745   2.212   5.034  0.3008 -0.2446 -0.1543
  819poe    c23 5503   1.599   2.263   5.036  0.1327 -0.7056 -0.5090
  819poe     o2 5504   1.511   2.154   5.022 -0.3484 -0.4146  0.2291
  819poe    c23 5505   1.375   2.182   5.047 -0.0735  0.1214  1.1359
  819poe    c23 5506   1.299   2.050   5.067  0.0595 -0.1374 -0.0040
  819poe     o2 5507   1.346   1.957   4.973  0.1498  0.2929 -0.3918
  819poe    c31 5508   1.273   1.836   4.988  0.5274  0.1270  0.1438
  820poe    c31 5509   2.538   1.949   5.278 -1.0005 -0.3536  0.6442
  820poe     o2 5510   2.611   1.878   5.180 -0.3828  0.4179  0.5377
  820poe    c23 5511   2.744   1.918   5.157 -0.3111  0.0080  0.2412
  820poe    c23 5512   2.768   1.909   5.005  0.2666 -0.0534  0.3343
  820poe     o2 5513   2.671   1.979   4.931  0.3516 -0.0511  0.2250
  820poe    c23 5514   2.721   1.985   4.799  0.0033  0.3654  0.1105
  820poe    c23 5515   2.629   2.083   4.724 -0.2047 -0.1574 -0.3222
  820poe     o2 5516   2.496   2.049   4.757 -0.0383 -0.3434  0.1654
  820poe    c23 5517   2.413   2.163   4.748  0.0618 -0.2960 -0.1771
  820poe    c23 5518   2.292   2.134   4.839 -0.1166  0.1153 -0.2783
  820poe     o2 5519   2.334   2.076   4.961  0.0103  0.0877 -0.3348
  820poe    c31 5520   2.233   2.068   5.060  0.1293 -0.1239 -0.2296
  821poe    c31 5521   1.336   2.839   3.122  0.2132 -0.4618  0.5797
  821poe     o2 5522   1.389   2.829   3.253  0.5489  0.0402  0.4881
  821poe    c23 5523   1.529   2.828   3.239  0.5030  0.2744 -0.0188
  821poe    c23 5524   1.591   2.873   3.373  0.7093  0.0305 -0.0316
  821poe     o2 5525   1.530   2.790   3.470 -0.1101  0.4997 -0.1384
  821poe    c23 5526   1.594   2.810   3.593 -0.0406  0.3352 -0.1487
  821poe    c23 5527   1.516   2.726   3.696  0.1213  0.8123  0.3691
  821poe     o2 5528   1.378   2.757   3.698 -0.0011  0.3079 -0.0194
  821poe    c23 5529   1.310   2.682   3.796  0.3217  0.6586  0.4823
  821poe    c23 5530   1.159   2.693   3.766  0.4063  0.3752 -0.0680
  821poe     o2 5531   1.105   2.618   3.660  0.2652 -0.1448  0.3630
  821poe    c31 5532   0.965   2.634   3.658  0.2841  0.0317  0.4186
  822poe    c31 5533   3.105   0.010   0.814 -0.6615 -0.1664  0.0979
  822poe     o2 5534   3.157  -0.007   0.944 -0.0463 -0.0359 -0.1302
  822poe    c23 5535   3.241  -0.119   0.954  0.2877  0.2136 -0.1301
  822poe    c23 5536   3.349  -0.112   1.064  0.2259 -0.0905 -0.0493
  822poe     o2 5537   3.281  -0.068   1.179 -0.0810  0.1136 -0.3049
  822poe    c23 5538   3.359  -0.073   1.297 -0.5337 -0.4797 -0.0195
  822poe    c23 5539   3.252  -0.039   1.402 -0.0760  0.1974  0.2366
  822poe     o2 5540   3.191   0.078   1.352  0.1661  0.0423 -0.4333
  822poe    c23 5541   3.063   0.085   1.411  0.4994  0.4419  0.2433
  822poe    c23 5542   2.974   0.157   1.308 -0.0634 -0.2977  0.2064
  822poe     o2 5543   2.982   0.096   1.181 -0.3017  0.1600 -0.0294
  822poe    c31 5544   2.891   0.150   1.087  0.2220  0.1079 -0.5735
  823poe    c31 5545   6.112   3.169   4.914 -0.2971  0.1629  1.1634
  823poe     o2 5546   6.189   3.286   4.902  0.0519 -0.1527  0.2221
  823poe    c23 5547   6.327   3.271   4.927  0.1545  0.6397  0.1462
  823poe    c23 5548   6.419   3.390   4.890  0.2722  0.5105  0.0247
  823poe     o2 5549   6.447   3.397   4.752  0.7039 -0.3020  0.0645
  823poe    c23 5550   6.541   3.499   4.727 -0.1699  0.4678 -0.1258
  823poe    c23 5551   6.615   3.473   4.594 -0.5073 -0.7276 -0.0926
  823poe     o2 5552   6.513   3.458   4.498 -0.1839 -0.1301 -0.5326
  823poe    c23 5553   6.557   3.426   4.368  0.3810 -0.8699 -0.1661
  823poe    c23 5554   6.428   3.418   4.285 -0.0060  0.7636  0.2427
  823poe     o2 5555   6.338   3.339   4.359  0.3090  0.1295 -0.0500
  823poe    c31 5556   6.216   3.332   4.289  0.2883 -0.1632  0.0130
  824poe    c31 5557   4.037   3.625   6.612  0.3618  0.1867  0.2336
  824poe     o2 5558   4.104   3.748   6.609  0.3541  0.1976  0.5676
  824poe    c23 5559   4.215   3.744   6.521 -0.0021  0.1017  0.1225
  824poe    c23 5560   4.282   3.882   6.530 -0.2255  0.2060  0.2245
  824poe     o2 5561   4.304   3.908   6.667 -0.2459  0.3507  0.2010
  824poe    c23 5562   4.403   4.003   6.700  0.7455 -0.5492 -0.1322
  824poe    c23 5563   4.402   4.018   6.853 -0.1328 -0.3802 -0.1510
  824poe     o2 5564   4.280   4.076   6.895  0.0961  0.0479 -0.0681
  824poe    c23 5565   4.294   4.124   7.027  0.0218 -0.6603  0.1994
  824poe    c23 5566   4.158   4.160   7.089  0.2702 -0.1873  0.4749
  824poe     o2 5567   4.071   4.049   7.073  0.5507 -0.3836  0.3074
  824poe    c31 5568   3.961   4.073   7.158  0.1415 -0.1823 -0.2768
  825poe    c31 5569   3.104   3.423   1.582 -0.8201 -0.6153 -0.6216
  825poe     o2 5570   3.223   3.382   1.520 -0.1026  0.5291 -0.0338
  825poe    c23 5571   3.308   3.494   1.505 -0.0045  0.4234 -0.2812
  825poe    c23 5572   3.428   3.465   1.414  0.0569 -0.0945 -0.0376
  825poe     o2 5573   3.514   3.367   1.469  0.3425  0.1393 -0.0668
  825poe    c23 5574   3.499   3.237   1.417  1.0116  0.1178 -0.2260
  825poe    c23 5575   3.595   3.158   1.508  0.1694 -0.0953  0.4964
  825poe     o2 5576   3.723   3.210   1.482  0.0597 -0.1012 -0.0834
  825poe    c23 5577   3.823   3.164   1.570  0.2169  0.6743  0.1545
  825poe    c23 5578   3.962   3.222   1.540  0.4658  0.0331  0.0491
  825poe     o2 5579   3.944   3.360   1.515  0.0682 -0.0614 -0.1814
  825poe    c31 5580   4.050   3.444   1.479  0.4348 -0.3715  0.1706
  826poe    c31 5581   0.237   3.821   2.466  0.1242 -0.3780  0.3078
  826poe     o2 5582   0.278   3.714   2.383 -0.1589 -0.0923 -0.2053
  826poe    c23 5583   0.308   3.600   2.460  0.1738  0.5266  0.5895
  826poe    c23 5584   0.373   3.480   2.389  0.0887  0.0251  1.3501
  826poe     o2 5585   0.499   3.502   2.330 -0.3089  0.1886  0.5546
  826poe    c23 5586   0.557   3.380   2.292 -0.3815  0.1672  0.5121
  826poe    c23 5587   0.691   3.407   2.220 -0.3548  0.1122  0.5403
  826poe     o2 5588   0.661   3.473   2.099 -0.3688 -0.2362  0.3530
  826poe    c23 5589   0.785   3.485   2.032 -0.2403  0.0829  0.6453
  826poe    c23 5590   0.744   3.550   1.898  0.1664 -0.0546  0.4526
  826poe     o2 5591   0.656   3.656   1.928  0.6001  0.5108 -0.2661
  826poe    c31 5592   0.628   3.728   1.810 -0.0529  0.3855 -0.1905
  827poe    c31 5593   6.433   1.551   3.444  0.3067 -0.0069  0.5271
  827poe     o2 5594   6.439   1.689   3.471 -0.2233  0.0803  0.2112
  827poe    c23 5595   6.539   1.703   3.570 -0.1588 -0.3346  0.2068
  827poe    c23 5596   6.518   1.842   3.631  0.7730 -0.1858  0.2043
  827poe     o2 5597   6.465   1.922   3.527  0.4091  0.2293  0.7051
  827poe    c23 5598   6.390   2.029   3.581  0.3758  0.5271  0.0694
  827poe    c23 5599   6.363   2.127   3.465 -0.0035 -0.0015 -0.2948
  827poe     o2 5600   6.289   2.066   3.362  0.1842  0.0932 -0.4842
  827poe    c23 5601   6.282   2.160   3.257 -0.0890  0.4658 -0.1346
  827poe    c23 5602   6.162   2.135   3.164 -0.0748 -0.3434  0.0602
  827poe     o2 5603   6.179   2.003   3.117 -0.6930 -0.5542  0.4228
  827poe    c31 5604   6.083   1.975   3.018 -0.2375 -0.0836 -0.1536
  828poe    c31 5605   0.970   5.331   6.380 -0.4072  0.4466  0.1496
  828poe     o2 5606   0.895   5.277   6.274  0.1150  0.0545 -0.0272
  828poe    c23 5607   0.806   5.371   6.217 -0.3214 -0.2629  0.1228
  828poe    c23 5608   0.675   5.301   6.177 -0.2226 -0.3202 -0.0966
  828poe     o2 5609   0.725   5.185   6.114 -0.1163 -0.1897 -0.2569
  828poe    c23 5610   0.613   5.107   6.077 -0.4692  0.2675 -0.1758
  828poe    c23 5611   0.653   4.995   5.979 -0.1741  0.1382  0.0904
  828poe     o2 5612   0.748   4.904   6.032 -0.5796 -0.0531  0.4993
  828poe    c23 5613   0.805   4.830   5.926 -0.5111 -0.1912  0.6333
  828poe    c23 5614   0.852   4.696   5.985  0.3953 -0.0954  0.1304
  828poe     o2 5615   0.950   4.721   6.083  0.0399  1.1767  0.1734
  828poe    c31 5616   0.957   4.607   6.165  0.6650  0.1444 -1.2631
  829poe    c31 5617   6.776   1.983   5.361  0.0569 -0.0875 -0.2909
  829poe     o2 5618   6.797   1.946   5.496 -0.4345 -0.0099 -0.1918
  829poe    c23 5619   6.688   1.981   5.578 -0.2551  0.2196 -0.0500
  829poe    c23 5620   6.748   2.010   5.717 -0.2520  0.1217 -0.0308
  829poe     o2 5621   6.832   1.899   5.745 -0.1697  0.2699  0.3143
  829poe    c23 5622   6.881   1.920   5.875 -0.3005 -0.4587  0.4841
  829poe    c23 5623   6.945   1.784   5.908 -0.1018 -0.4651  0.0675
  829poe     o2 5624   7.005   1.746   5.786  0.1873  0.3832 -0.0616
  829poe    c23 5625   7.112   1.657   5.802  0.1661  0.5118  0.8290
  829poe    c23 5626   7.049   1.517   5.796 -0.4331  0.7973  0.3776
  829poe     o2 5627   6.995   1.485   5.670  0.1362  0.4288  0.2213
  829poe    c31 5628   6.914   1.372   5.695  0.1544  0.5060  0.6308
  830poe    c31 5629   3.801   5.735   2.926 -0.4412  0.4750  0.2200
  830poe     o2 5630   3.918   5.771   2.856 -0.4227  0.7038  0.3695
  830poe    c23 5631   3.889   5.838   2.735 -0.2319  0.1888  0.0349
  830poe    c23 5632   3.984   5.957   2.712 -0.0079 -0.0658 -0.3787
  830poe     o2 5633   4.117   5.919   2.689  0.0862 -0.2945  0.5251
  830poe    c23 5634   4.196   6.035   2.688 -0.1670 -0.1282 -0.1249
  830poe    c23 5635   4.337   5.976   2.706  0.1048  0.5119 -0.1111
  830poe     o2 5636   4.350   5.859   2.628  0.6718  0.3047  0.2887
  830poe    c23 5637   4.443   5.773   2.691  0.4377 -0.0618  0.1359
  830poe    c23 5638   4.465   5.642   2.614  0.0533  0.2117 -0.4483
  830poe     o2 5639   4.336   5.590   2.593  0.0692 -0.0632  0.1319
  830poe    c31 5640   4.335   5.464   2.529 -0.0569  0.0673 -0.1228
  831poe    c31 5641   4.977   6.274   5.250 -0.5261  0.2282 -0.1377
  831poe     o2 5642   4.925   6.155   5.305 -0.1963  0.0592 -0.1873
  831poe    c23 5643   4.839   6.194   5.410  0.3727 -0.0496  0.3217
  831poe    c23 5644   4.755   6.067   5.432  0.2959 -0.0738 -0.1004
  831poe     o2 5645   4.839   5.955   5.442 -0.0868 -0.3701 -0.1836
  831poe    c23 5646   4.768   5.843   5.490  0.0222 -0.3617 -0.0030
  831poe    c23 5647   4.870   5.727   5.485 -0.2291 -0.5789 -0.1360
  831poe     o2 5648   4.922   5.721   5.354 -0.0992 -0.3706 -0.0954
  831poe    c23 5649   5.002   5.605   5.350 -0.3805 -0.5629 -0.1560
  831poe    c23 5650   5.081   5.584   5.219  0.4473 -0.0773  0.2574
  831poe     o2 5651   5.171   5.692   5.208 -0.1111  0.3177 -0.5478
  831poe    c31 5652   5.231   5.699   5.081  0.8197  0.1992 -0.1239
  832poe    c31 5653   1.259   2.034   6.105  0.3219  0.1958 -0.2783
  832poe     o2 5654   1.243   2.124   5.998  0.4488  0.2894 -0.2193
  832poe    c23 5655   1.170   2.242   6.024 -0.0662 -0.0673 -0.0460
  832poe    c23 5656   1.155   2.325   5.896 -0.2497 -0.6364 -0.3979
  832poe     o2 5657   1.265   2.377   5.825  0.0355 -0.2092  0.3518
  832poe    c23 5658   1.227   2.460   5.718  0.1818 -1.0447 -0.3617
  832poe    c23 5659   1.356   2.507   5.649 -0.2539 -0.1681 -0.5900
  832poe     o2 5660   1.438   2.396   5.621 -0.3457 -0.2627 -0.4891
  832poe    c23 5661   1.532   2.412   5.517 -0.4424  0.0451 -0.5306
  832poe    c23 5662   1.639   2.307   5.552 -0.3723  0.2659 -0.0705
  832poe     o2 5663   1.684   2.326   5.684  0.5382 -0.0753 -0.3270
  832poe    c31 5664   1.806   2.256   5.688  0.3694 -0.3444  0.2103
  833poe    c31 5665   0.421   4.131   4.577 -0.8325  0.3130  0.1471
  833poe     o2 5666   0.550   4.163   4.529 -0.7471  0.1577  0.2714
  833poe    c23 5667   0.546   4.235   4.407 -0.6323 -0.0524  0.1433
  833poe    c23 5668   0.689   4.270   4.365 -0.5450  0.0673  0.5316
  833poe     o2 5669   0.762   4.154   4.397  0.0013  0.3344  0.2801
  833poe    c23 5670   0.899   4.178   4.373 -0.0118 -0.0442 -0.1959
  833poe    c23 5671   0.969   4.045   4.404 -0.2986 -0.0193  0.5844
  833poe     o2 5672   0.950   4.019   4.541 -0.0078 -0.3825  0.5590
  833poe    c23 5673   1.073   3.973   4.593  0.2674  0.4798  0.6937
  833poe    c23 5674   1.039   3.884   4.714  0.3828 -0.5834 -0.0458
  833poe     o2 5675   0.966   3.964   4.804  0.3134 -0.3894 -0.2735
  833poe    c31 5676   0.971   3.900   4.929 -0.0969 -0.3294 -0.2254
  834poe    c31 5677   2.919   3.349   6.812  0.0500 -0.0524 -0.2494
  834poe     o2 5678   2.891   3.246   6.904  0.7647  0.2109  0.2704
  834poe    c23 5679   2.827   3.137   6.842  0.2922  0.7009 -0.1025
  834poe    c23 5680   2.776   3.040   6.950  0.6629 -0.1586 -0.6944
  834poe     o2 5681   2.892   3.028   7.031  0.0822  0.1499  0.1967
  834poe    c23 5682   2.867   2.967   7.155 -0.0374  0.2674  0.2311
  834poe    c23 5683   3.000   2.989   7.230  0.5508 -0.5540 -0.5568
  834poe     o2 5684   3.032   3.126   7.237 -0.6380 -0.3309  0.9983
  834poe    c23 5685   3.141   3.142   7.324 -0.5746 -0.2120  0.8980
  834poe    c23 5686   3.163   3.294   7.322 -0.0042 -0.2976 -0.5366
  834poe     o2 5687   3.229   3.336   7.205 -0.4953 -0.3478 -0.8348
  834poe    c31 5688   3.229   3.477   7.204 -0.7605 -0.3407 -0.0247
  835poe    c31 5689   1.716   1.793   3.972 -0.5155 -0.2667 -0.4830
  835poe     o2 5690   1.619   1.815   4.072 -0.2072 -0.5547 -0.1170
  835poe    c23 5691   1.679   1.864   4.189 -0.1282  0.1567 -0.4476
  835poe    c23 5692   1.608   1.833   4.323  0.3688 -0.5552 -0.3414
  835poe     o2 5693   1.558   1.701   4.327  0.2615 -0.5146 -0.3291
  835poe    c23 5694   1.560   1.655   4.460 -0.5767  0.3635 -0.0028
  835poe    c23 5695   1.557   1.502   4.448 -0.0207  0.3082  0.4957
  835poe     o2 5696   1.429   1.455   4.413  0.2417 -0.1474  0.1241
  835poe    c23 5697   1.430   1.316   4.388 -0.2042 -0.0889 -0.2330
  835poe    c23 5698   1.292   1.256   4.356 -0.2291  0.0581 -0.4032
  835poe     o2 5699   1.220   1.366   4.303 -0.9580 -0.0994  0.2462
  835poe    c31 5700   1.111   1.323   4.224 -0.3308 -0.9287 -0.1849
  836poe    c31 5701   1.422   1.388   5.185 -0.3170 -0.4046  0.2039
  836poe     o2 5702   1.339   1.329   5.283 -0.1476  0.1893  0.7102
  836poe    c23 5703   1.384   1.200   5.317 -0.4344 -0.2954 -0.6848
  836poe    c23 5704   1.290   1.128   5.416  0.2044 -0.1648  0.0312
  836poe     o2 5705   1.176   1.210   5.433  0.3272 -0.0017  0.0654
  836poe    c23 5706   1.106   1.169   5.548  0.4065 -0.7335 -0.1369
  836poe    c23 5707   0.983   1.257   5.578  0.5880 -0.3513 -0.4996
  836poe     o2 5708   1.021   1.392   5.570  0.3337 -0.1952  0.6891
  836poe    c23 5709   0.980   1.454   5.689  0.3430  0.7403  0.2149
  836poe    c23 5710   1.000   1.607   5.692 -0.1073  0.8003  0.1073
  836poe     o2 5711   1.137   1.632   5.713  0.1504 -0.0498 -0.5052
  836poe    c31 5712   1.178   1.766   5.725  0.1436 -0.1475  0.7216
  837poe    c31 5713   4.358   0.007   5.444 -0.6173  0.0905 -0.0443
  837poe     o2 5714   4.345   0.082   5.325  0.1897 -0.0734 -0.2419
  837poe    c23 5715   4.460   0.160   5.298 -0.1552  0.5041 -0.0676
  837poe    c23 5716   4.410   0.282   5.219  0.2737  0.4004 -0.5057
  837poe     o2 5717   4.321   0.226   5.126 -0.1093  0.4365 -0.1632
  837poe    c23 5718   4.266   0.325   5.042 -0.5791  0.3871  0.0777
  837poe    c23 5719   4.173   0.429   5.107  0.0822  0.3828  1.0468
  837poe     o2 5720   4.063   0.372   5.173 -0.0463 -0.2008  0.3367
  837poe    c23 5721   3.978   0.469   5.228  0.6639  0.5209  0.1717
  837poe    c23 5722   3.854   0.403   5.290  0.3947 -0.0343 -0.9305
  837poe     o2 5723   3.751   0.422   5.196 -0.3608  0.1902 -0.0742
  837poe    c31 5724   3.643   0.335   5.223 -0.2046 -0.0707 -0.2877
  838poe    c31 5725   1.255   6.166   5.546  0.4870 -0.1850  0.6954
  838poe     o2 5726   1.353   6.238   5.618  0.3202  0.1382  0.6020
  838poe    c23 5727   1.457   6.277   5.531 -0.4303  0.0360 -0.3633
  838poe    c23 5728   1.569   6.343   5.613 -0.5222  0.3057 -0.4567
  838poe     o2 5729   1.519   6.433   5.710 -0.1231  0.0420 -0.0063
  838poe    c23 5730   1.613   6.477   5.806 -0.1486 -0.2320  0.1475
  838poe    c23 5731   1.522   6.531   5.918 -0.2291 -0.4064  0.1664
  838poe     o2 5732   1.417   6.439   5.932 -0.1493 -0.5286 -0.0447
  838poe    c23 5733   1.316   6.469   6.025 -0.5008  0.3479 -0.6915
  838poe    c23 5734   1.230   6.341   6.022  0.2174 -0.1709  0.0809
  838poe     o2 5735   1.219   6.291   5.891  0.4413  0.0637 -0.0286
  838poe    c31 5736   1.117   6.193   5.886 -0.0746  0.5796  0.2506
  839poe    c31 5737   3.506   0.045   2.992 -0.6424  0.1706 -0.2717
  839poe     o2 5738   3.388   0.061   3.068 -0.6836 -0.1028 -0.2792
  839poe    c23 5739   3.428   0.107   3.195 -0.9886  0.1910 -0.2878
  839poe    c23 5740   3.328   0.048   3.297 -0.0638 -0.1102  0.4604
  839poe     o2 5741   3.204   0.081   3.240  0.0448  0.4445  0.5307
  839poe    c23 5742   3.091   0.050   3.319  0.1906 -0.6838  0.3095
  839poe    c23 5743   2.967   0.106   3.247 -0.0113 -0.6830  0.6541
  839poe     o2 5744   2.986   0.086   3.108 -0.5666  0.2653  0.4384
  839poe    c23 5745   2.965   0.205   3.034 -0.1044  0.2015  0.1970
  839poe    c23 5746   3.031   0.191   2.896  0.0599 -0.1130  0.3064
  839poe     o2 5747   3.164   0.143   2.904  0.2212  0.2686 -0.0462
  839poe    c31 5748   3.223   0.157   2.777 -0.0096  0.2109 -0.1612
  840poe    c31 5749   5.855   1.805   5.551 -0.2633 -0.4804  0.0670
  840poe     o2 5750   5.932   1.836   5.437  0.1821 -0.1041  0.4644
  840poe    c23 5751   6.001   1.958   5.455  0.0340 -0.0682  0.7923
  840poe    c23 5752   6.093   1.991   5.336 -0.1009 -0.2559  0.6336
  840poe     o2 5753   6.203   1.902   5.325  0.1779  0.1485  0.1069
  840poe    c23 5754   6.298   1.932   5.226  0.0605  0.2261  0.0165
  840poe    c23 5755   6.249   1.894   5.085 -0.5619  0.4206  0.1793
  840poe     o2 5756   6.225   1.755   5.082 -0.3086  0.3835 -0.2830
  840poe    c23 5757   6.190   1.706   4.955 -0.1035  0.1380 -0.2445
  840poe    c23 5758   6.208   1.553   4.952 -0.8276  0.0292  0.5212
  840poe     o2 5759   6.167   1.498   5.075  0.0468 -0.1311  0.7501
  840poe    c31 5760   6.121   1.366   5.057 -0.0279  0.0146 -0.1787
  841poe    c31 5761   4.074   3.390   3.971  0.6265 -0.0201 -0.3903
  841poe     o2 5762   4.083   3.447   3.842  0.1387 -0.1096 -0.4648
  841poe    c23 5763   4.165   3.562   3.843 -0.6527  0.4607 -0.3239
  841poe    c23 5764   4.184   3.603   3.696  0.9312  0.6130 -0.0947
  841poe     o2 5765   4.207   3.479   3.633  0.1664  0.3376  0.1552
  841poe    c23 5766   4.220   3.492   3.493  0.0415  0.3129  0.1411
  841poe    c23 5767   4.212   3.349   3.437 -0.5951  0.2493  0.3878
  841poe     o2 5768   4.093   3.288   3.481 -0.0479 -0.9490  0.2605
  841poe    c23 5769   4.097   3.148   3.465 -0.3324 -1.0011  0.6311
  841poe    c23 5770   4.045   3.105   3.604 -0.2595 -1.0073  0.6567
  841poe     o2 5771   4.122   3.162   3.707  0.5078  0.2186 -0.5630
  841poe    c31 5772   4.241   3.093   3.739  0.4150  0.2709 -0.1077
  842poe    c31 5773   3.793   2.859   1.258 -0.0325 -0.0340 -0.4667
  842poe     o2 5774   3.876   2.745   1.265  0.2629  0.2179  0.2615
  842poe    c23 5775   3.796   2.630   1.273  0.5876 -0.0284 -0.0266
  842poe    c23 5776   3.875   2.504   1.316  0.4833  0.1554  0.7144
  842poe     o2 5777   4.001   2.510   1.253  0.1162 -0.4983 -0.0989
  842poe    c23 5778   4.078   2.403   1.302  0.4947  0.0395  0.4986
  842poe    c23 5779   4.219   2.418   1.241  0.4517 -0.4284  0.2773
  842poe     o2 5780   4.283   2.536   1.284  0.0875 -0.2660  0.3773
  842poe    c23 5781   4.412   2.540   1.228 -0.0926 -0.1558 -0.0329
  842poe    c23 5782   4.449   2.667   1.148 -0.0757 -0.1852 -0.0727
  842poe     o2 5783   4.366   2.690   1.037 -0.0887  0.0753 -0.0084
  842poe    c31 5784   4.428   2.782   0.949 -0.4385  0.1686 -0.1587
  843poe    c31 5785   3.790   2.910   5.180  0.4608 -0.6256  0.7913
  843poe     o2 5786   3.903   2.968   5.117 -0.1723 -0.2128  0.0106
  843poe    c23 5787   3.868   3.010   4.987  0.5403 -0.0755 -0.1386
  843poe    c23 5788   3.989   3.051   4.901  0.5783  0.2692  0.0764
  843poe     o2 5789   4.090   2.952   4.904  0.1363 -0.1775  0.3590
  843poe    c23 5790   4.197   2.990   4.821 -0.3705  0.3771 -0.0535
  843poe    c23 5791   4.298   2.874   4.818 -0.3244  0.4141  0.0711
  843poe     o2 5792   4.360   2.859   4.944 -0.5425 -0.1630  0.1143
  843poe    c23 5793   4.460   2.760   4.938 -0.1593  0.2576 -0.6334
  843poe    c23 5794   4.500   2.727   5.083 -0.5155 -0.6616 -0.7374
  843poe     o2 5795   4.383   2.727   5.161  0.2153  0.0640  0.3841
  843poe    c31 5796   4.407   2.646   5.274  0.2435 -0.9204 -0.3161
  844poe    c31 5797   5.955   6.500   6.129 -0.7718 -0.1889  0.0974
  844poe     o2 5798   6.029   6.430   6.226 -0.3370  0.3775  0.1792
  844poe    c23 5799   6.125   6.524   6.268  0.1923 -0.1266  0.1149
  844poe    c23 5800   6.214   6.447   6.367 -0.0515  0.1635  0.5630
  844poe     o2 5801   6.122   6.377   6.449  0.0038 -0.3542  0.1899
  844poe    c23 5802   6.173   6.376   6.580 -0.4488 -0.1409  0.3699
  844poe    c23 5803   6.128   6.243   6.644  0.4691 -0.5716  0.1390
  844poe     o2 5804   5.988   6.224   6.642  0.3832  0.0625 -0.1340
  844poe    c23 5805   5.953   6.094   6.600  0.0292  0.2957 -0.5602
  844poe    c23 5806   5.838   6.131   6.503 -0.2854 -0.1918 -0.3750
  844poe     o2 5807   5.863   6.217   6.395  0.3776 -0.0408 -0.1082
  844poe    c31 5808   5.747   6.255   6.325  0.0594 -0.2808  0.2847
  845poe    c31 5809   6.854   4.270   0.087 -0.5879 -0.1756 -0.4056
  845poe     o2 5810   6.842   4.391   0.015 -0.6947  0.1093  0.0822
  845poe    c23 5811   6.708   4.426  -0.007 -0.7104 -0.1392 -0.2162
  845poe    c23 5812   6.670   4.552  -0.086 -0.0317  0.1931 -0.0153
  845poe     o2 5813   6.695   4.673  -0.017  0.1892  0.0549  0.1459
  845poe    c23 5814   6.653   4.781  -0.096  0.0290 -0.2854 -0.2377
  845poe    c23 5815   6.671   4.913  -0.018  0.2206 -0.3398 -0.1907
  845poe     o2 5816   6.798   4.905   0.042  0.3994 -0.2002 -0.5503
  845poe    c23 5817   6.856   5.029   0.077 -0.4942  0.2007 -0.4783
  845poe    c23 5818   6.961   4.990   0.182 -0.1072  0.4287 -0.7822
  845poe     o2 5819   6.921   4.879   0.258  0.4480  1.0936  0.5162
  845poe    c31 5820   7.020   4.846   0.353  0.6508  0.2445  0.0220
  846poe    c31 5821   4.691   6.324   2.661  0.0707 -0.1400 -0.3949
  846poe     o2 5822   4.791   6.273   2.747 -0.8111 -0.2664  0.5777
  846poe    c23 5823   4.857   6.379   2.812  0.4390 -0.3745 -0.4622
  846poe    c23 5824   4.872   6.334   2.959 -0.1383 -0.0018 -0.2869
  846poe     o2 5825   4.935   6.209   2.973 -0.0690  0.0832  0.1850
  846poe    c23 5826   4.946   6.185   3.111 -0.0742  0.1046  0.1890
  846poe    c23 5827   5.021   6.057   3.155  0.0836  0.2445  0.3329
  846poe     o2 5828   4.932   5.954   3.118  0.1469  0.2055  0.2916
  846poe    c23 5829   5.004   5.837   3.089 -0.2708  0.0704 -0.2245
  846poe    c23 5830   4.940   5.751   2.978  0.1972 -0.6601  0.0594
  846poe     o2 5831   4.953   5.811   2.850 -0.8341  0.2544  0.3689
  846poe    c31 5832   4.955   5.698   2.766  0.0577  0.2433  0.4015
  847poe    c31 5833   4.994   4.172   2.087 -0.0126  0.2378  0.2142
  847poe     o2 5834   4.908   4.246   2.004 -0.2557 -0.0045  0.2462
  847poe    c23 5835   4.882   4.368   2.069  0.2625 -0.0027  0.4523
  847poe    c23 5836   4.813   4.477   1.986  0.4861  0.0477  0.3322
  847poe     o2 5837   4.904   4.511   1.883  0.2166 -0.1173  0.0372
  847poe    c23 5838   4.848   4.606   1.796 -0.1075 -0.1144  0.2469
  847poe    c23 5839   4.949   4.670   1.700 -0.0929 -0.2942  0.1422
  847poe     o2 5840   5.002   4.582   1.604  0.3251 -0.3300  0.4055
  847poe    c23 5841   5.098   4.646   1.522 -0.6758  0.3830 -0.2344
  847poe    c23 5842   5.232   4.569   1.519 -0.7633  0.2270 -0.1879
  847poe     o2 5843   5.206   4.431   1.518  0.5140 -0.0257 -0.8931
  847poe    c31 5844   5.325   4.363   1.488  0.4278 -0.5882  0.0008
  848poe    c31 5845   1.710   6.763   3.303  0.3660 -0.5325 -0.0058
  848poe     o2 5846   1.669   6.690   3.190 -0.6660  0.0095  0.0020
  848poe    c23 5847   1.547   6.738   3.138 -0.7140 -0.1181 -0.0024
  848poe    c23 5848   1.507   6.653   3.016 -0.2227  0.6288 -0.6957
  848poe     o2 5849   1.622   6.627   2.938  0.1123 -0.5235  0.1518
  848poe    c23 5850   1.603   6.545   2.826  0.2448 -0.5945  0.1822
  848poe    c23 5851   1.744   6.497   2.785  0.4513 -0.3393  0.5827
  848poe     o2 5852   1.799   6.446   2.904  0.1734 -0.1414  0.7960
  848poe    c23 5853   1.915   6.374   2.871  0.1724  0.3303 -0.2593
  848poe    c23 5854   1.983   6.341   3.005 -0.0710  0.1154 -0.1894
  848poe     o2 5855   1.972   6.453   3.089 -0.2962  0.0596 -0.1468
  848poe    c31 5856   2.047   6.444   3.209 -0.7276  0.1781  0.1361
  849poe    c31 5857   5.400   3.373   4.236 -0.3504  1.1790 -0.3684
  849poe     o2 5858   5.523   3.419   4.288  0.1412 -0.4637 -0.0238
  849poe    c23 5859   5.488   3.467   4.415  0.1274  0.3141 -0.3127
  849poe    c23 5860   5.609   3.480   4.510 -0.0747 -0.6245  0.0914
  849poe     o2 5861   5.695   3.588   4.479 -0.3998 -0.2986  0.3179
  849poe    c23 5862   5.642   3.713   4.517  0.0341 -0.2069  0.6290
  849poe    c23 5863   5.752   3.818   4.495 -0.7244  0.4882  0.0748
  849poe     o2 5864   5.772   3.828   4.356  0.5722 -0.7029  0.1459
  849poe    c23 5865   5.870   3.922   4.318 -0.2793  0.0254 -0.2994
  849poe    c23 5866   5.879   3.941   4.165  0.4299  0.2490 -0.2362
  849poe     o2 5867   5.881   3.809   4.116 -0.2302  0.1883 -0.1127
  849poe    c31 5868   5.889   3.809   3.976 -0.5478  0.2426 -0.1311
  850poe    c31 5869   2.682   4.397   5.734  0.2588  0.3865 -0.7903
  850poe     o2 5870   2.798   4.476   5.716  0.6598  0.0718  0.2929
  850poe    c23 5871   2.875   4.426   5.609 -0.0794  0.7768 -0.5876
  850poe    c23 5872   3.003   4.508   5.584  0.6071  0.0429  0.4607
  850poe     o2 5873   3.123   4.482   5.654  0.5806 -0.3400  0.3648
  850poe    c23 5874   3.179   4.358   5.617  0.1800 -0.4569  0.1426
  850poe    c23 5875   3.321   4.355   5.677  0.1839  0.2123  0.1706
  850poe     o2 5876   3.315   4.438   5.791 -0.1634 -0.3088  0.5361
  850poe    c23 5877   3.442   4.497   5.804 -0.2490  0.1085 -0.4559
  850poe    c23 5878   3.426   4.604   5.914  0.3109  0.0022 -0.2659
  850poe     o2 5879   3.296   4.657   5.907  0.3730  0.1809 -0.0582
  850poe    c31 5880   3.277   4.774   5.984  0.6951 -0.1287  0.4993
  851poe    c31 5881   1.204   5.301   0.577  0.1034 -0.1755 -0.4040
  851poe     o2 5882   1.173   5.189   0.657 -0.6454  0.2701 -0.0581
  851poe    c23 5883   1.033   5.182   0.673 -0.6202 -0.0765  0.0062
  851poe    c23 5884   1.007   5.075   0.781 -0.0006 -0.0493  0.1864
  851poe     o2 5885   1.095   5.092   0.890  0.3607 -0.0576 -0.1039
  851poe    c23 5886   1.094   4.992   0.990  0.2173 -0.3424 -0.3894
  851poe    c23 5887   1.186   5.049   1.099 -0.6274  0.2520  0.0254
  851poe     o2 5888   1.319   5.061   1.053 -0.3795 -0.5942  0.5205
  851poe    c23 5889   1.417   5.037   1.153  0.3245  0.2820  0.0518
  851poe    c23 5890   1.554   5.092   1.108  0.2936 -0.4240 -0.9467
  851poe     o2 5891   1.541   5.227   1.069  0.4517  0.0184  0.4621
  851poe    c31 5892   1.661   5.270   1.009  0.5774  0.0061  0.7058
  852poe    c31 5893   2.398   4.891   1.994 -0.3894  0.3779  0.0787
  852poe     o2 5894   2.276   4.822   1.979 -0.3597  0.2236  0.5419
  852poe    c23 5895   2.297   4.686   2.010 -0.2196  0.0576 -0.2504
  852poe    c23 5896   2.158   4.628   2.043  0.0008 -0.3851 -0.1005
  852poe     o2 5897   2.063   4.676   1.951  0.3171 -0.2773 -0.3715
  852poe    c23 5898   1.936   4.625   1.983  0.1825  0.1130 -0.2714
  852poe    c23 5899   1.842   4.679   1.873 -0.2970 -0.0451  0.0563
  852poe     o2 5900   1.870   4.817   1.865 -0.0696 -0.1014 -0.1224
  852poe    c23 5901   1.853   4.866   1.734  0.1936  0.0157 -0.1135
  852poe    c23 5902   1.955   4.982   1.731  0.1059  0.0931 -0.1133
  852poe     o2 5903   2.085   4.948   1.774  0.0557 -0.6226 -0.5068
  852poe    c31 5904   2.178   5.051   1.745  0.3183 -0.7181 -0.0120
  853poe    c31 5905   4.212   0.877   6.748  0.1090  0.2330  0.0979
  853poe     o2 5906   4.214   0.997   6.822  0.6072  0.0675  0.3564
  853poe    c23 5907   4.100   1.003   6.906 -0.1343  0.5635 -0.6721
  853poe    c23 5908   4.146   1.096   7.020 -0.1166 -0.2089 -0.0447
  853poe     o2 5909   4.172   1.220   6.959 -0.4102 -0.0175  0.2177
  853poe    c23 5910   4.217   1.320   7.048  0.0973 -0.4345  0.4378
  853poe    c23 5911   4.289   1.428   6.966 -0.5226 -0.2802  0.0912
  853poe     o2 5912   4.343   1.350   6.862 -0.5819  0.2963 -0.3850
  853poe    c23 5913   4.430   1.420   6.776  0.1353 -0.5807 -0.3892
  853poe    c23 5914   4.522   1.309   6.721  0.6059 -0.2578 -0.2680
  853poe     o2 5915   4.430   1.206   6.690  0.1891  0.0536 -0.0782
  853poe    c31 5916   4.493   1.098   6.625  0.1268  0.3333 -0.6114
  854poe    c31 5917   0.265   5.853   2.950 -0.1450  0.3416  0.0552
  854poe     o2 5918   0.377   5.770   2.970 -0.2369  0.2506  0.1984
  854poe    c23 5919   0.475   5.782   2.869  0.1602  0.2980  0.5851
  854poe    c23 5920   0.597   5.714   2.933 -0.0349 -0.2597  0.3734
  854poe     o2 5921   0.604   5.753   3.069 -0.2979 -0.5083  0.4599
  854poe    c23 5922   0.731   5.750   3.130 -0.0884 -0.3700  0.0339
  854poe    c23 5923   0.704   5.812   3.268 -0.1540 -0.1568 -0.0737
  854poe     o2 5924   0.616   5.741   3.352 -0.4961  0.2787 -0.0642
  854poe    c23 5925   0.598   5.791   3.483 -0.2470  0.1686  0.0109
  854poe    c23 5926   0.494   5.708   3.562  0.1098 -0.5833 -0.2942
  854poe     o2 5927   0.363   5.726   3.512  0.2038  0.0768 -0.3150
  854poe    c31 5928   0.270   5.631   3.558 -0.6526  0.5545 -1.0423
  855poe    c31 5929   5.763   0.733   3.313 -0.2836  0.0947  0.5700
  855poe     o2 5930   5.632   0.721   3.363 -0.2977 -0.5124  0.3960
  855poe    c23 5931   5.612   0.801   3.477 -0.0487 -0.2999  0.2920
  855poe    c23 5932   5.464   0.779   3.515 -0.1271  0.0416  0.1851
  855poe     o2 5933   5.427   0.647   3.485  0.0101  0.0465 -0.0102
  855poe    c23 5934   5.288   0.655   3.462  0.0989  0.1037 -0.5357
  855poe    c23 5935   5.240   0.511   3.431 -0.5804  0.2165 -0.0506
  855poe     o2 5936   5.317   0.464   3.323 -0.0419  0.2409  0.3167
  855poe    c23 5937   5.268   0.337   3.284  0.3001  0.1814  0.0683
  855poe    c23 5938   5.354   0.265   3.179 -0.2260 -0.8222  0.3084
  855poe     o2 5939   5.479   0.224   3.230  0.2066 -0.4881 -0.4621
  855poe    c31 5940   5.555   0.159   3.131  0.2238 -0.1630 -0.6619
  856poe    c31 5941   2.151   6.707   4.840  0.1612 -0.4966  0.2701
  856poe     o2 5942   2.029   6.655   4.791  0.1000 -0.0627 -0.0430
  856poe    c23 5943   1.966   6.762   4.724 -0.0448 -0.2726 -0.2410
  856poe    c23 5944   1.877   6.731   4.602  0.0572 -0.2502 -0.3215
  856poe     o2 5945   1.774   6.636   4.620 -0.2105  0.0946 -0.0014
  856poe    c23 5946   1.701   6.629   4.500 -0.9052  0.5666  0.3851
  856poe    c23 5947   1.608   6.506   4.501  0.0381 -0.1703 -0.1174
  856poe     o2 5948   1.546   6.503   4.628  0.2375  0.2955 -0.0042
  856poe    c23 5949   1.477   6.386   4.665 -0.5943  0.7423 -0.1071
  856poe    c23 5950   1.404   6.412   4.798 -0.4107  0.3132  0.0788
  856poe     o2 5951   1.507   6.457   4.883  0.3284 -0.5712 -0.3273
  856poe    c31 5952   1.477   6.425   5.017 -0.0985 -0.3455 -0.3680
  857poe    c31 5953   5.358   1.231   0.962 -0.3812 -0.1089 -0.4541
  857poe     o2 5954   5.368   1.102   1.018 -0.2186  0.2741  0.4189
  857poe    c23 5955   5.432   1.122   1.142 -0.3751  0.1821  0.5147
  857poe    c23 5956   5.573   1.062   1.138 -0.3751  0.1985  0.2951
  857poe     o2 5957   5.567   0.949   1.054  0.0508  0.0310  0.4879
  857poe    c23 5958   5.693   0.886   1.046  0.0432  0.1178 -0.3932
  857poe    c23 5959   5.708   0.847   0.897 -0.0476 -0.3592 -0.2805
  857poe     o2 5960   5.582   0.819   0.839 -0.3920  0.3899  0.0868
  857poe    c23 5961   5.578   0.820   0.698 -0.3769 -0.1667  0.0820
  857poe    c23 5962   5.428   0.837   0.669 -0.2113  0.2504 -0.5312
  857poe     o2 5963   5.375   0.931   0.760  0.0653 -0.2735  0.1762
  857poe    c31 5964   5.271   0.994   0.690 -0.1160  0.3040  0.9541
  858poe    c31 5965   1.841   5.385   5.515 -0.1648  0.9179 -0.6468
  858poe     o2 5966   1.926   5.498   5.520  0.2456  0.5929 -0.1338
  858poe    c23 5967   1.992   5.499   5.645 -0.3576 -0.0573  0.1960
  858poe    c23 5968   2.073   5.629   5.643 -0.2359 -0.1361 -0.1259
  858poe     o2 5969   2.152   5.628   5.526 -0.4261  0.1519 -0.2608
  858poe    c23 5970   2.213   5.752   5.498  0.5749 -0.2465  0.1062
  858poe    c23 5971   2.293   5.740   5.367  0.0292 -0.1391 -0.2424
  858poe     o2 5972   2.201   5.681   5.278 -0.2880 -0.0917  0.0562
  858poe    c23 5973   2.256   5.681   5.148 -0.0294 -0.2875  0.1653
  858poe    c23 5974   2.147   5.748   5.063 -0.1031  0.2264  0.6576
  858poe     o2 5975   2.034   5.671   5.027  0.4393 -0.0489 -0.4892
  858poe    c31 5976   1.947   5.751   4.950  0.2226  0.3588  0.1716
  859poe    c31 5977   5.991   2.402   1.963  0.1125 -0.1436 -0.2473
  859poe     o2 5978   5.910   2.362   1.854 -0.3239 -0.1505  0.0782
  859poe    c23 5979   5.985   2.314   1.745  0.2247 -0.6194  0.6552
  859poe    c23 5980   5.889   2.244   1.647  0.1924  0.1196  0.1499
  859poe     o2 5981   5.767   2.314   1.649  0.1683  0.0818  0.0123
  859poe    c23 5982   5.658   2.269   1.571  0.0482  0.0211  0.2155
  859poe    c23 5983   5.523   2.344   1.569 -0.2862 -0.5874 -0.3862
  859poe     o2 5984   5.464   2.364   1.695  0.4042  0.5118 -0.2214
  859poe    c23 5985   5.341   2.433   1.684  0.1637  0.0243 -0.6176
  859poe    c23 5986   5.315   2.465   1.833  0.7195 -0.0412 -0.5064
  859poe     o2 5987   5.419   2.537   1.896  0.1397  0.1776  0.2098
  859poe    c31 5988   5.441   2.675   1.873 -0.2643  0.1854 -0.1601
  860poe    c31 5989   3.124   2.454   1.597 -0.0393 -0.0217 -0.1920
  860poe     o2 5990   3.169   2.588   1.598 -0.0523 -0.0182 -0.0107
  860poe    c23 5991   3.130   2.656   1.715  0.5718  0.2230  0.0593
  860poe    c23 5992   3.195   2.795   1.725  0.0732  0.4427  0.3017
  860poe     o2 5993   3.198   2.841   1.592  0.0873  0.0924  0.1795
  860poe    c23 5994   3.204   2.982   1.589  0.3967  0.0779  0.0653
  860poe    c23 5995   3.179   3.041   1.450 -0.1283  0.0414  0.1416
  860poe     o2 5996   3.267   2.972   1.364  0.6940  1.3086 -0.0772
  860poe    c23 5997   3.251   3.019   1.232 -0.3926 -0.1379 -0.4925
  860poe    c23 5998   3.270   2.905   1.130 -0.5179 -0.8032  0.2254
  860poe     o2 5999   3.385   2.824   1.145 -0.1170 -0.2546  0.1204
  860poe    c31 6000   3.395   2.760   1.019  0.7343 -0.1640  0.1417
  861poe    c31 6001   6.041   4.207   1.975 -0.0699 -0.5895  0.7756
  861poe     o2 6002   5.907   4.203   1.930  0.2790 -0.4522 -0.2871
  861poe    c23 6003   5.829   4.101   1.987  0.2106 -0.1477  0.1688
  861poe    c23 6004   5.728   4.163   2.086  0.0290 -0.1861  0.0070
  861poe     o2 6005   5.626   4.237   2.025 -0.0671  0.1516  0.5707
  861poe    c23 6006   5.518   4.261   2.113 -0.1014 -0.0404  0.5810
  861poe    c23 6007   5.401   4.332   2.043  0.2851 -0.4885 -0.5426
  861poe     o2 6008   5.458   4.428   1.957  0.2335 -0.0298 -0.0700
  861poe    c23 6009   5.352   4.492   1.889  0.0760 -0.6982 -0.4667
  861poe    c23 6010   5.417   4.611   1.815  0.0854 -0.3907  0.0339
  861poe     o2 6011   5.512   4.564   1.722  0.2074  0.3788 -0.2320
  861poe    c31 6012   5.577   4.656   1.637  0.0899 -0.0789 -0.8251
  862poe    c31 6013   5.605   1.605   6.549 -0.2787 -0.1994 -0.2109
  862poe     o2 6014   5.491   1.660   6.485  0.1050  0.7389 -0.1046
  862poe    c23 6015   5.383   1.570   6.477  0.3720  0.4947 -1.0029
  862poe    c23 6016   5.238   1.614   6.448  0.1707  0.5412  0.0619
  862poe     o2 6017   5.226   1.672   6.320  0.1608 -0.1286 -0.2446
  862poe    c23 6018   5.234   1.598   6.201 -0.1632 -0.1859 -0.2298
  862poe    c23 6019   5.201   1.691   6.083  0.0582 -0.1251 -0.2427
  862poe     o2 6020   5.270   1.812   6.106  0.3067 -0.2453 -0.3497
  862poe    c23 6021   5.242   1.908   6.007  0.0820 -0.1407 -0.1846
  862poe    c23 6022   5.321   2.039   6.029  0.1187 -0.2290  0.1998
  862poe     o2 6023   5.298   2.080   6.162  0.2060  0.2202  0.0780
  862poe    c31 6024   5.341   2.212   6.185 -0.2810  0.4672 -0.4231
  863poe    c31 6025   3.225   0.829   5.255  0.0553 -0.2877  0.1128
  863poe     o2 6026   3.090   0.801   5.226  0.2568 -0.2113 -0.9517
  863poe    c23 6027   3.063   0.839   5.093  0.1612  0.3964 -0.7646
  863poe    c23 6028   2.914   0.814   5.065  0.2053 -0.2929 -0.4216
  863poe     o2 6029   2.838   0.821   5.183  0.0487 -0.2954 -0.5217
  863poe    c23 6030   2.698   0.806   5.175  0.0283 -0.4997  0.1378
  863poe    c23 6031   2.671   0.774   5.323 -0.3630  0.1468  0.2141
  863poe     o2 6032   2.771   0.681   5.358 -0.1839  0.3778  0.3117
  863poe    c23 6033   2.778   0.612   5.481 -0.1892 -0.4926 -0.1737
  863poe    c23 6034   2.892   0.510   5.463 -0.0442 -0.3119 -0.2832
  863poe     o2 6035   2.986   0.586   5.391 -0.1614 -0.6754 -0.8230
  863poe    c31 6036   3.106   0.513   5.374  0.1338 -0.3894 -0.0130
  864poe    c31 6037   1.501   5.753   1.754  0.1123  0.5780  0.1039
  864poe     o2 6038   1.362   5.769   1.733  0.0659  0.1685  0.0977
  864poe    c23 6039   1.305   5.653   1.676  0.6758  0.1321 -0.4638
  864poe    c23 6040   1.158   5.670   1.718  0.6750 -0.6541 -0.1324
  864poe     o2 6041   1.124   5.805   1.702  0.5647 -0.5938  0.5494
  864poe    c23 6042   0.991   5.842   1.733  0.4253 -0.2663 -0.3779
  864poe    c23 6043   0.970   5.988   1.690 -0.1013 -0.1521  0.2466
  864poe     o2 6044   1.055   6.068   1.768 -0.1486 -0.0561  0.2006
  864poe    c23 6045   1.030   6.204   1.742 -0.0931 -0.0895 -0.0307
  864poe    c23 6046   1.121   6.289   1.832 -0.0887 -0.8563  0.7025
  864poe     o2 6047   1.248   6.290   1.770 -0.1733  0.0100  0.5314
  864poe    c31 6048   1.355   6.331   1.852  0.4012  0.0066 -0.2127
  865poe    c31 6049   0.200   0.437   4.842 -0.0321 -0.0353 -0.4471
  865poe     o2 6050   0.292   0.517   4.771  0.3750 -0.0677  0.0338
  865poe    c23 6051   0.257   0.494   4.636  0.5177  0.0195 -0.0190
  865poe    c23 6052   0.323   0.599   4.546  0.3688 -0.4619 -0.6999
  865poe     o2 6053   0.453   0.629   4.593 -0.0887  0.1093  0.2491
  865poe    c23 6054   0.502   0.729   4.506 -0.2655 -0.1744 -0.1815
  865poe    c23 6055   0.626   0.797   4.565 -0.3048 -0.1147 -0.1674
  865poe     o2 6056   0.614   0.824   4.703  0.1329 -0.1100 -0.1297
  865poe    c23 6057   0.702   0.926   4.745 -0.2022  0.1733 -0.1135
  865poe    c23 6058   0.702   0.916   4.898  0.3736 -0.1809 -0.1335
  865poe     o2 6059   0.723   0.781   4.935 -0.0569 -0.2698 -0.2062
  865poe    c31 6060   0.737   0.761   5.074 -0.5946  0.0338 -0.1024
  866poe    c31 6061   4.186   0.896   0.478 -0.3678  0.2693  0.6455
  866poe     o2 6062   4.256   0.788   0.536  0.5113  0.3951 -0.1468
  866poe    c23 6063   4.286   0.817   0.671  0.2677 -0.1538  0.0327
  866poe    c23 6064   4.431   0.768   0.684  0.3782  0.0279 -0.4769
  866poe     o2 6065   4.421   0.635   0.636 -0.1449  0.2692 -1.0603
  866poe    c23 6066   4.543   0.566   0.648 -0.4083 -0.0760 -0.2922
  866poe    c23 6067   4.523   0.431   0.577  0.2443 -0.1109 -0.4219
  866poe     o2 6068   4.450   0.450   0.458 -0.2758 -0.3791 -0.1519
  866poe    c23 6069   4.451   0.326   0.389  0.0033 -0.4762  0.0231
  866poe    c23 6070   4.564   0.294   0.290  0.2498  0.7069 -0.0986
  866poe     o2 6071   4.673   0.235   0.357 -0.1265 -0.2292 -0.2937
  866poe    c31 6072   4.766   0.166   0.277  0.2747  0.1107 -0.1258
  867poe    c31 6073   3.387   5.768   0.290  0.2703 -0.2684  0.1996
  867poe     o2 6074   3.285   5.713   0.210 -0.0080  0.5817 -0.0412
  867poe    c23 6075   3.331   5.613   0.122 -0.5198 -0.4679  0.8565
  867poe    c23 6076   3.205   5.549   0.062  0.2388 -0.4232 -0.8706
  867poe     o2 6077   3.123   5.634  -0.014 -0.5186 -0.7315 -0.4153
  867poe    c23 6078   3.001   5.562  -0.021 -0.4955 -0.8109 -0.0235
  867poe    c23 6079   2.898   5.641  -0.104  0.0327  0.1603  0.2196
  867poe     o2 6080   2.911   5.779  -0.078  0.5817  0.2574 -0.5256
  867poe    c23 6081   2.834   5.863  -0.161 -0.3482  0.0698  0.1224
  867poe    c23 6082   2.850   6.006  -0.108  0.4369  0.0210  0.0432
  867poe     o2 6083   2.990   6.022  -0.107  0.4668 -0.2471  0.2121
  867poe    c31 6084   3.028   6.158  -0.103  0.4825 -0.2524  0.2428
  868poe    c31 6085   1.876   5.843   0.464 -0.2245  0.4189 -0.0788
  868poe     o2 6086   1.893   5.845   0.604 -0.5630  0.3029 -0.0351
  868poe    c23 6087   1.948   5.723   0.647  0.0999  0.5948 -0.0384
  868poe    c23 6088   1.981   5.730   0.797  0.1460 -0.1520 -0.0068
  868poe     o2 6089   1.866   5.771   0.867 -0.0439 -0.1375 -0.3279
  868poe    c23 6090   1.876   5.719   0.998 -0.4118 -0.5917 -0.4775
  868poe    c23 6091   1.738   5.747   1.062 -0.0456  0.3170 -0.0724
  868poe     o2 6092   1.711   5.885   1.051 -0.7247  0.2213  0.3371
  868poe    c23 6093   1.595   5.926   1.119 -0.8124  0.4715  0.0409
  868poe    c23 6094   1.603   6.072   1.167  0.3348  0.4505 -0.0552
  868poe     o2 6095   1.572   6.161   1.062  0.1960  0.0987 -0.3132
  868poe    c31 6096   1.559   6.299   1.087 -0.3176  0.0161 -0.1092
  869poe    c31 6097   1.452   2.891   4.934  0.2286  0.1545 -0.4446
  869poe     o2 6098   1.585   2.870   4.974  0.1580  0.4255 -0.0611
  869poe    c23 6099   1.570   2.778   5.080 -0.0253  0.2773 -0.2131
  869poe    c23 6100   1.709   2.736   5.132 -0.0612 -0.0415 -0.3732
  869poe     o2 6101   1.775   2.860   5.137  0.1098 -0.1120 -0.8360
  869poe    c23 6102   1.907   2.840   5.185 -0.0911  0.6427  0.0619
  869poe    c23 6103   2.000   2.958   5.152  0.1903  0.4162  0.0474
  869poe     o2 6104   1.998   2.995   5.016 -0.3844 -0.2339 -0.1281
  869poe    c23 6105   2.050   3.124   4.992 -0.7848 -0.0645 -0.0995
  869poe    c23 6106   2.062   3.173   4.847  0.2989  0.0139  0.0056
  869poe     o2 6107   1.935   3.175   4.786  0.3890 -1.0134 -0.2336
  869poe    c31 6108   1.919   3.220   4.654  0.6247  0.4989  0.2334
  870poe    c31 6109   0.688   6.128   0.956 -0.1582 -0.2191 -0.1660
  870poe     o2 6110   0.741   6.229   0.872 -0.1493  0.0427  0.1536
  870poe    c23 6111   0.658   6.341   0.859  0.0413  0.1449 -0.1809
  870poe    c23 6112   0.545   6.353   0.754  0.0210  0.1751 -0.1558
  870poe     o2 6113   0.479   6.478   0.763  0.0030  0.1442  0.1565
  870poe    c23 6114   0.348   6.470   0.711  0.0073  0.3403  0.1151
  870poe    c23 6115   0.320   6.609   0.651  0.1061  0.2941 -0.0407
  870poe     o2 6116   0.347   6.703   0.752  0.4822 -0.0785  0.2119
  870poe    c23 6117   0.301   6.825   0.698  0.0013 -0.3465  0.0139
  870poe    c23 6118   0.320   6.942   0.797 -0.4029  0.1271 -0.4592
  870poe     o2 6119   0.457   6.935   0.829 -0.4669 -0.0012 -0.2109
  870poe    c31 6120   0.500   7.065   0.863  0.0756 -0.2248 -0.0300
  871poe    c31 6121   0.129   2.767   3.486  0.2277  0.0556 -0.0038
  871poe     o2 6122   0.018   2.816   3.413  0.1619  0.1102  0.1338
  871poe    c23 6123   0.037   2.954   3.390  0.1725  0.0838 -0.0139
  871poe    c23 6124  -0.094   3.020   3.342 -0.0559  0.1110  0.6327
  871poe     o2 6125  -0.197   2.968   3.423 -0.3484 -0.0309  0.1738
  871poe    c23 6126  -0.315   2.927   3.357 -0.2016  0.5409 -0.4609
  871poe    c23 6127  -0.307   2.795   3.279  0.3437  0.3784 -0.1353
  871poe     o2 6128  -0.246   2.696   3.359 -0.2342  0.2791  0.1929
  871poe    c23 6129  -0.246   2.576   3.284  0.4297  0.2648  0.2093
  871poe    c23 6130  -0.183   2.467   3.372  0.2948 -0.1181 -0.1669
  871poe     o2 6131  -0.077   2.524   3.445 -0.2585  0.7178  0.0020
  871poe    c31 6132  -0.012   2.417   3.511 -0.2675  0.4400 -0.4291
  872poe    c31 6133   5.128   1.117   0.040 -0.0395  0.3011 -0.1697
  872poe     o2 6134   5.165   1.107  -0.095  0.0683 -0.0472 -0.1162
  872poe    c23 6135   5.050   1.096  -0.176 -0.0758 -0.1039  0.0954
  872poe    c23 6136   5.095   1.092  -0.323  0.0498  0.1287  0.1258
  872poe     o2 6137   5.195   0.993  -0.324 -0.4298 -0.3611 -0.3849
  872poe    c23 6138   5.251   0.982  -0.453  0.2800 -0.0355 -0.1135
  872poe    c23 6139   5.404   0.964  -0.451  0.3037  0.0780 -0.7432
  872poe     o2 6140   5.476   1.061  -0.378  0.6554 -0.3481 -0.5210
  872poe    c23 6141   5.607   1.076  -0.427  0.7158 -0.1492 -0.2967
  872poe    c23 6142   5.675   1.209  -0.388  0.7597 -0.1889 -0.2359
  872poe     o2 6143   5.699   1.228  -0.251 -1.2369  0.3060  0.0705
  872poe    c31 6144   5.782   1.341  -0.232  0.1823 -0.7666  0.3954
  873poe    c31 6145   1.323   5.659   2.437 -0.3318  0.0513  0.3223
  873poe     o2 6146   1.448   5.620   2.488  0.1619  0.0836 -0.8281
  873poe    c23 6147   1.552   5.706   2.448  0.4057  0.3168  0.2902
  873poe    c23 6148   1.681   5.622   2.445  0.2278  0.0550 -0.1165
  873poe     o2 6149   1.649   5.493   2.400  0.1639  0.0439 -0.0385
  873poe    c23 6150   1.751   5.396   2.413  0.2608  0.2130  0.4589
  873poe    c23 6151   1.688   5.258   2.388 -0.2804  0.4963  0.2405
  873poe     o2 6152   1.574   5.248   2.470 -0.1884 -0.2200  0.2903
  873poe    c23 6153   1.480   5.148   2.439 -0.1491  0.1512 -1.0961
  873poe    c23 6154   1.361   5.176   2.532  0.6069  0.1674 -0.1113
  873poe     o2 6155   1.343   5.315   2.533 -0.3688  0.0502  0.3473
  873poe    c31 6156   1.225   5.344   2.604 -0.1831  0.6657  0.4203
  874poe    c31 6157   0.613   3.893   2.863 -0.2637 -0.4574  0.6721
  874poe     o2 6158   0.490   3.959   2.884 -0.4371 -0.7128  0.4605
  874poe    c23 6159   0.388   3.863   2.903 -0.4611 -0.6572  0.6105
  874poe    c23 6160   0.243   3.915   2.908 -0.2208  0.2522 -1.0413
  874poe     o2 6161   0.208   3.965   3.035 -0.0331  0.4230 -1.0566
  874poe    c23 6162   0.069   3.987   3.040 -0.0211  0.3919 -0.5359
  874poe    c23 6163   0.031   4.077   3.160  0.2136  0.1671 -0.2923
  874poe     o2 6164   0.108   4.192   3.135  0.4162  0.1686  0.3304
  874poe    c23 6165   0.039   4.291   3.209 -0.0531  0.1833 -0.1264
  874poe    c23 6166   0.144   4.373   3.285 -0.0820  0.5749 -0.5064
  874poe     o2 6167   0.255   4.368   3.199 -0.0342 -0.0378 -0.4089
  874poe    c31 6168   0.347   4.469   3.234 -0.2713 -0.0652  0.2995
  875poe    c31 6169   3.077   3.151   3.437 -0.7814 -0.1964 -0.4666
  875poe     o2 6170   3.103   3.284   3.476 -0.2112 -0.3162 -0.4413
  875poe    c23 6171   3.200   3.335   3.387  0.1118  0.0666  0.1234
  875poe    c23 6172   3.219   3.474   3.450  0.4272 -0.0696  0.3301
  875poe     o2 6173   3.094   3.534   3.476  0.7837  0.7781  0.1187
  875poe    c23 6174   3.101   3.654   3.551  0.1248  1.0183 -0.2002
  875poe    c23 6175   2.957   3.705   3.571 -0.0820  0.0648  0.8801
  875poe     o2 6176   2.891   3.610   3.650  0.0583 -0.7467  0.0377
  875poe    c23 6177   2.763   3.653   3.691  0.3959 -0.2279  0.5604
  875poe    c23 6178   2.716   3.568   3.812 -0.1093  0.5381  0.9120
  875poe     o2 6179   2.727   3.428   3.797  0.1772  0.6227  0.2942
  875poe    c31 6180   2.637   3.357   3.879  0.3380  0.1041  0.0264
  876poe    c31 6181   5.901   4.663   3.009 -0.7838  0.2878  0.4728
  876poe     o2 6182   5.915   4.676   2.869 -0.0484  0.5643  0.5670
  876poe    c23 6183   5.811   4.747   2.806  0.6012  0.7386 -0.3182
  876poe    c23 6184   5.817   4.715   2.655 -0.3304 -0.0696 -0.1954
  876poe     o2 6185   5.955   4.722   2.626 -0.3027  0.8820  0.1073
  876poe    c23 6186   5.981   4.657   2.504  0.1329  0.0830  0.6113
  876poe    c23 6187   6.129   4.669   2.465 -0.0169 -0.5475 -0.1879
  876poe     o2 6188   6.194   4.607   2.574  0.2353 -0.2169 -0.1466
  876poe    c23 6189   6.333   4.603   2.553  0.2553 -0.3448  0.0071
  876poe    c23 6190   6.415   4.535   2.664  0.4791 -0.6869 -0.3650
  876poe     o2 6191   6.375   4.402   2.691  0.6690 -0.7541 -0.4103
  876poe    c31 6192   6.445   4.355   2.804 -0.1358 -0.0035  0.4164
  877poe    c31 6193   4.299   2.786   3.011  0.2558  0.2181  0.2146
  877poe     o2 6194   4.375   2.854   3.108 -0.1332 -0.3344  0.9166
  877poe    c23 6195   4.325   2.982   3.138  0.0360  0.0639 -0.4377
  877poe    c23 6196   4.420   3.069   3.224 -0.2412 -0.2013  0.1428
  877poe     o2 6197   4.551   3.056   3.174 -0.2255  0.4891  0.0007
  877poe    c23 6198   4.637   3.157   3.222  0.0942  0.4171 -0.4127
  877poe    c23 6199   4.775   3.090   3.239 -0.3768 -0.2555  0.8970
  877poe     o2 6200   4.764   2.972   3.315  0.0019 -0.3354  0.8319
  877poe    c23 6201   4.897   2.926   3.327  0.2526 -0.0833 -0.8321
  877poe    c23 6202   4.891   2.802   3.418  0.1435  0.4362 -0.1207
  877poe     o2 6203   4.767   2.736   3.410  0.1211  0.5204 -0.4824
  877poe    c31 6204   4.776   2.620   3.490  0.3207  0.7732 -0.1339
  878poe    c31 6205   6.064   5.744   2.444 -0.8753 -0.8832 -0.4495
  878poe     o2 6206   6.153   5.738   2.334  0.0232 -0.4506  0.2362
  878poe    c23 6207   6.081   5.754   2.214 -0.0688  0.1286  0.3684
  878poe    c23 6208   6.174   5.822   2.111 -0.6622 -0.2440 -0.4248
  878poe     o2 6209   6.297   5.756   2.129 -0.2207  0.7033  0.1240
  878poe    c23 6210   6.398   5.777   2.033  0.0652  0.2779  0.3289
  878poe    c23 6211   6.502   5.675   2.084 -0.2377 -0.2007  0.0027
  878poe     o2 6212   6.505   5.698   2.223  0.2410  0.0287 -0.0449
  878poe    c23 6213   6.574   5.597   2.293 -0.3138 -0.0342  0.4177
  878poe    c23 6214   6.538   5.605   2.442 -0.0775 -0.2432  0.4864
  878poe     o2 6215   6.397   5.614   2.431 -0.0125 -0.2593 -0.4168
  878poe    c31 6216   6.344   5.572   2.555 -0.1794  0.9390 -0.0727
  879poe    c31 6217   0.839   5.761   4.206 -0.1530  1.0387  0.1187
  879poe     o2 6218   0.787   5.675   4.304 -0.0856  0.2327 -0.5363
  879poe    c23 6219   0.742   5.748   4.416  0.1525 -0.1869 -0.1624
  879poe    c23 6220   0.683   5.648   4.518  0.4633 -0.1869  0.0180
  879poe     o2 6221   0.756   5.529   4.495 -0.1162 -0.4788 -0.3264
  879poe    c23 6222   0.703   5.421   4.569 -0.0671 -0.1605  0.1782
  879poe    c23 6223   0.799   5.308   4.528  0.0155 -0.0944  0.1869
  879poe     o2 6224   0.779   5.282   4.391  0.3785  0.1219  0.0916
  879poe    c23 6225   0.811   5.151   4.348  0.1785  0.0350  0.2044
  879poe    c23 6226   0.781   5.145   4.197 -0.9176  0.1634  0.4054
  879poe     o2 6227   0.878   5.215   4.121 -0.0468 -0.6466  0.7494
  879poe    c31 6228   0.986   5.131   4.087  0.4452  0.5328 -0.6476
  880poe    c31 6229   4.865   4.716   0.933 -0.0216  0.1911  0.1029
  880poe     o2 6230   4.969   4.647   0.868 -0.1669 -0.2384  0.3204
  880poe    c23 6231   4.939   4.607   0.736  0.5943 -0.0775  0.0964
  880poe    c23 6232   5.024   4.481   0.711  0.5711  0.0691 -0.7584
  880poe     o2 6233   5.155   4.514   0.751  0.2901  0.0809  0.1862
  880poe    c23 6234   5.238   4.400   0.748 -0.4475 -0.4534 -0.1026
  880poe    c23 6235   5.353   4.417   0.849 -0.5772 -0.4291  0.0424
  880poe     o2 6236   5.283   4.476   0.957 -0.1926  0.2434 -0.0690
  880poe    c23 6237   5.377   4.532   1.045  0.0730 -0.0766 -0.1451
  880poe    c23 6238   5.303   4.642   1.123  0.1593 -0.0031 -0.1650
  880poe     o2 6239   5.233   4.714   1.025  0.2019  0.3061  0.0314
  880poe    c31 6240   5.168   4.826   1.081  0.1417  0.0605  0.4562
  881poe    c31 6241   0.466   0.256   5.570 -0.0556 -0.3980 -0.1710
  881poe     o2 6242   0.502   0.278   5.436  0.2179 -0.0733 -0.0473
  881poe    c23 6243   0.430   0.384   5.377 -0.3981 -0.1811  0.4948
  881poe    c23 6244   0.460   0.380   5.226  0.0174 -0.0945  0.5717
  881poe     o2 6245   0.598   0.373   5.202 -0.0807 -0.0079 -0.0531
  881poe    c23 6246   0.629   0.343   5.068 -0.2471 -0.2991 -0.0256
  881poe    c23 6247   0.737   0.233   5.077 -0.0804 -0.1774 -0.5256
  881poe     o2 6248   0.712   0.166   5.199  0.0837  0.5209 -0.1028
  881poe    c23 6249   0.806   0.063   5.218  0.0528  0.6453  0.7614
  881poe    c23 6250   0.787   0.007   5.360  0.9727  0.1853  0.7085
  881poe     o2 6251   0.782   0.120   5.444  0.7867  0.6449  0.0847
  881poe    c31 6252   0.753   0.079   5.575 -0.7977  0.3839 -0.3209
  882poe    c31 6253   5.144   4.940   3.073 -0.0675 -0.0220  0.3005
  882poe     o2 6254   5.122   4.802   3.089  0.2262 -0.0378  0.5790
  882poe    c23 6255   5.037   4.767   3.197 -0.4703 -0.3172 -0.0444
  882poe    c23 6256   4.993   4.621   3.181 -0.1081 -0.5128  0.7111
  882poe     o2 6257   5.107   4.550   3.138  0.0924  0.4126 -0.3269
  882poe    c23 6258   5.096   4.411   3.119 -0.0025  0.3004  0.4805
  882poe    c23 6259   5.228   4.367   3.053 -0.1651  0.1366  0.2600
  882poe     o2 6260   5.254   4.481   2.973  0.2757  0.1405  0.4068
  882poe    c23 6261   5.362   4.467   2.884  0.1866  0.5958  0.2289
  882poe    c23 6262   5.399   4.612   2.845  0.1988  0.4735 -0.2164
  882poe     o2 6263   5.369   4.693   2.956  0.1103  0.2914 -0.1053
  882poe    c31 6264   5.424   4.820   2.926  0.2828  0.3648  0.5229
  883poe    c31 6265   3.227   1.754   0.312 -0.3365  0.4359 -0.2177
  883poe     o2 6266   3.287   1.829   0.416 -0.0080 -0.3416  0.1580
  883poe    c23 6267   3.191   1.862   0.514  0.1122 -0.2525  0.2456
  883poe    c23 6268   3.259   1.954   0.617  0.0305  0.3431 -0.2286
  883poe     o2 6269   3.376   1.889   0.661 -0.3551 -0.0468  0.2315
  883poe    c23 6270   3.424   1.956   0.776  0.3754  0.3721 -0.3115
  883poe    c23 6271   3.554   1.887   0.822  0.0792  0.0935  0.1077
  883poe     o2 6272   3.649   1.883   0.718  0.1601 -0.0209  0.1853
  883poe    c23 6273   3.743   1.987   0.711  0.1049 -0.0084 -0.3884
  883poe    c23 6274   3.852   1.945   0.610  0.7238  0.1288  0.2189
  883poe     o2 6275   3.813   1.957   0.475  0.4765  0.7229  0.3406
  883poe    c31 6276   3.915   1.942   0.379 -0.2751  0.5206 -0.4295
  884poe    c31 6277   2.514   0.971   1.141 -0.8728  0.2269 -0.2491
  884poe     o2 6278   2.552   0.848   1.196  0.3699  0.7857  0.1770
  884poe    c23 6279   2.510   0.837   1.330 -0.5102  0.1562 -0.1365
  884poe    c23 6280   2.537   0.695   1.385 -0.0328  0.1961 -0.2587
  884poe     o2 6281   2.660   0.654   1.330  0.0862 -0.3119  0.3818
  884poe    c23 6282   2.657   0.513   1.324 -0.0955 -0.2832 -0.2944
  884poe    c23 6283   2.759   0.483   1.212  0.5021 -0.2733  0.2435
  884poe     o2 6284   2.717   0.559   1.101 -0.5368 -0.1560  0.7064
  884poe    c23 6285   2.809   0.564   0.994 -0.9525 -0.2494  0.3438
  884poe    c23 6286   2.775   0.686   0.906  0.1414 -0.2206 -0.0444
  884poe     o2 6287   2.760   0.800   0.987 -0.2972 -0.1845 -0.1773
  884poe    c31 6288   2.724   0.906   0.901 -0.4572 -0.3797 -0.3505
  885poe    c31 6289   6.525   5.602   3.121 -1.0612  1.0464 -0.1181
  885poe     o2 6290   6.399   5.540   3.137 -0.4898  0.0949  0.7853
  885poe    c23 6291   6.412   5.404   3.171 -0.1099  0.0406  0.4279
  885poe    c23 6292   6.290   5.311   3.158  0.0217 -0.1309  0.4133
  885poe     o2 6293   6.186   5.405   3.166 -0.0719 -0.1704 -0.2947
  885poe    c23 6294   6.057   5.351   3.146 -0.4267  0.1176  1.1120
  885poe    c23 6295   5.953   5.463   3.127 -0.3433  0.0288  0.0421
  885poe     o2 6296   6.010   5.585   3.085 -0.2589 -0.2318 -0.6001
  885poe    c23 6297   5.904   5.669   3.046 -0.0655  0.1354 -0.3399
  885poe    c23 6298   5.940   5.803   2.979  0.0897  0.2372 -0.0557
  885poe     o2 6299   6.018   5.783   2.863 -0.3157 -0.0680 -0.2776
  885poe    c31 6300   6.065   5.909   2.820 -0.1389 -0.0039  0.0985
  886poe    c31 6301   4.654   1.298   3.383 -0.4359  0.2943 -0.4327
  886poe     o2 6302   4.568   1.189   3.358  0.0285 -0.1043 -0.3036
  886poe    c23 6303   4.473   1.218   3.258  0.0225 -0.2044 -0.3280
  886poe    c23 6304   4.394   1.087   3.269  0.3394 -0.3677 -0.0008
  886poe     o2 6305   4.483   0.979   3.250  0.4743 -0.3262  0.3927
  886poe    c23 6306   4.420   0.855   3.224  0.2837 -0.1200 -0.1418
  886poe    c23 6307   4.521   0.739   3.215 -0.3000 -0.6558  0.1825
  886poe     o2 6308   4.585   0.738   3.341 -0.0317  0.5098  0.0638
  886poe    c23 6309   4.654   0.617   3.363  0.2408  0.6239 -0.1573
  886poe    c23 6310   4.753   0.634   3.480 -0.2551  0.2388  0.3224
  886poe     o2 6311   4.867   0.714   3.461 -0.2439  0.1070 -0.2015
  886poe    c31 6312   4.929   0.725   3.588 -0.5865 -0.9898  0.0673
  887poe    c31 6313   3.626   4.541   1.801 -0.2358 -0.5946 -0.2028
  887poe     o2 6314   3.512   4.570   1.723  0.0014  0.3373 -0.2156
  887poe    c23 6315   3.454   4.458   1.661  0.0176  0.2814 -0.1299
  887poe    c23 6316   3.535   4.340   1.603 -0.1794 -0.1151  0.3984
  887poe     o2 6317   3.610   4.393   1.496 -0.1178 -0.2785  0.3604
  887poe    c23 6318   3.719   4.306   1.480  0.0919 -0.0286  0.4331
  887poe    c23 6319   3.776   4.327   1.338  0.4964  0.0298  0.6024
  887poe     o2 6320   3.779   4.455   1.279  0.5906 -0.0920  0.3418
  887poe    c23 6321   3.838   4.442   1.152 -0.2181 -0.2043 -0.0247
  887poe    c23 6322   3.845   4.573   1.070 -0.3841  0.0567  0.3733
  887poe     o2 6323   3.714   4.625   1.067 -0.4162 -0.0285  0.2848
  887poe    c31 6324   3.702   4.728   0.972  0.1336 -0.5953 -0.4097
  888poe    c31 6325   5.142   2.323   0.109  0.6394  0.0027  0.7528
  888poe     o2 6326   5.178   2.459   0.099  0.8682 -0.0844  0.3736
  888poe    c23 6327   5.107   2.552   0.177  0.8323 -0.0881  0.3453
  888poe    c23 6328   5.167   2.692   0.151  0.0656  0.1568 -0.1528
  888poe     o2 6329   5.305   2.665   0.142  0.1484  0.2448  0.7324
  888poe    c23 6330   5.393   2.765   0.096  0.0014  0.1570  0.2469
  888poe    c23 6331   5.534   2.703   0.098  0.0479  0.2622  0.2470
  888poe     o2 6332   5.530   2.569   0.054  0.2660  0.3738 -0.1151
  888poe    c23 6333   5.632   2.491   0.111 -0.2421  0.0670  0.3828
  888poe    c23 6334   5.599   2.342   0.089  0.0968 -0.0111  0.3980
  888poe     o2 6335   5.460   2.323   0.083  0.0336  0.5358 -0.0450
  888poe    c31 6336   5.441   2.183   0.075 -0.3332  0.5346  0.6781
  889poe    c31 6337   6.646   4.047   5.196  0.1651  0.0869  0.0270
  889poe     o2 6338   6.611   4.125   5.084  0.1508  0.3403  0.2075
  889poe    c23 6339   6.482   4.096   5.036  0.4456 -0.1574 -0.2962
  889poe    c23 6340   6.440   4.211   4.942 -0.4869 -0.5383 -0.3627
  889poe     o2 6341   6.551   4.227   4.857 -0.3694 -0.0712 -0.1254
  889poe    c23 6342   6.532   4.342   4.777  0.3531  0.2311  0.1304
  889poe    c23 6343   6.674   4.369   4.721  0.2498 -0.4288 -0.4774
  889poe     o2 6344   6.750   4.387   4.838  0.0395  0.1138 -0.4212
  889poe    c23 6345   6.881   4.417   4.794  0.1510  0.1748 -0.0529
  889poe    c23 6346   6.969   4.414   4.921 -0.4581  0.0348  0.3717
  889poe     o2 6347   6.937   4.297   4.992  0.5779 -0.2263  0.4185
  889poe    c31 6348   6.978   4.304   5.127 -0.2877 -0.5047  0.7045
  890poe    c31 6349   0.305   1.482   0.654  0.1164  0.6484 -0.3268
  890poe     o2 6350   0.175   1.533   0.638 -0.4281 -0.5462  0.1656
  890poe    c23 6351   0.088   1.426   0.668 -0.8508 -0.3799 -0.4413
  890poe    c23 6352  -0.056   1.475   0.649 -0.7924  0.1563  0.4741
  890poe     o2 6353  -0.058   1.614   0.672  0.0042  0.2293  0.1159
  890poe    c23 6354  -0.170   1.670   0.607 -0.4298  0.0776  0.7211
  890poe    c23 6355  -0.166   1.824   0.605 -0.2628  0.0716 -0.1595
  890poe     o2 6356  -0.037   1.843   0.551 -0.2180  0.6118  0.1317
  890poe    c23 6357   0.009   1.976   0.558 -0.3207  0.6730 -0.3507
  890poe    c23 6358   0.158   1.977   0.518 -0.2674  0.4790 -0.1590
  890poe     o2 6359   0.204   1.857   0.577 -0.2665  0.4112 -0.2981
  890poe    c31 6360   0.340   1.879   0.608 -0.0549  0.1106 -0.9890
  891poe    c31 6361   6.446   4.899   4.286  0.9062 -0.2066  0.3826
  891poe     o2 6362   6.530   4.993   4.223  0.0126  0.3420 -0.0001
  891poe    c23 6363   6.596   4.922   4.121  0.0293 -0.1402  0.3446
  891poe    c23 6364   6.694   5.022   4.056 -0.0978 -0.1711  0.1026
  891poe     o2 6365   6.626   5.132   4.000  0.1585 -0.4206 -0.7138
  891poe    c23 6366   6.710   5.232   3.946 -0.4346  0.6229  0.2407
  891poe    c23 6367   6.653   5.345   3.858 -0.1273  0.2291 -0.4726
  891poe     o2 6368   6.570   5.423   3.941  0.0026 -0.0146 -0.1059
  891poe    c23 6369   6.497   5.509   3.856 -0.2270 -0.1073 -0.0033
  891poe    c23 6370   6.389   5.593   3.926 -0.1582 -0.2818  0.3160
  891poe     o2 6371   6.297   5.518   4.002 -0.4849 -0.1688  0.0373
  891poe    c31 6372   6.180   5.594   4.020 -0.2333  0.2317 -0.0018
  892poe    c31 6373   3.498   5.574   4.286  0.1139 -1.0440 -0.0430
  892poe     o2 6374   3.360   5.558   4.311 -0.0443  0.3411  0.0267
  892poe    c23 6375   3.347   5.460   4.411 -0.2760  0.2047 -0.1377
  892poe    c23 6376   3.204   5.465   4.469 -0.2879  0.4940 -0.1924
  892poe     o2 6377   3.178   5.593   4.522  0.0004  0.4936 -0.0436
  892poe    c23 6378   3.049   5.584   4.579  0.1373  0.0385  0.1947
  892poe    c23 6379   2.985   5.719   4.614 -0.4609 -0.1660 -0.1126
  892poe     o2 6380   2.965   5.797   4.498 -0.6781  0.3106  0.2388
  892poe    c23 6381   2.860   5.756   4.413  0.0593 -0.1705 -0.4522
  892poe    c23 6382   2.842   5.855   4.297  0.4195  0.1920 -0.2010
  892poe     o2 6383   2.970   5.894   4.253  0.4675  0.4032  0.1289
  892poe    c31 6384   2.945   5.995   4.158  0.0196 -0.6135 -0.8575
  893poe    c31 6385   1.778   2.412   1.213 -0.2743 -0.9041  0.5439
  893poe     o2 6386   1.736   2.520   1.293 -0.0710 -0.1650 -0.3294
  893poe    c23 6387   1.606   2.488   1.336 -0.0686  0.1797 -0.0601
  893poe    c23 6388   1.561   2.605   1.425 -0.1691 -0.4527  0.7271
  893poe     o2 6389   1.650   2.621   1.534  0.2712  0.1532  0.2873
  893poe    c23 6390   1.612   2.725   1.621 -0.3874  0.2002 -0.0555
  893poe    c23 6391   1.682   2.716   1.757  0.1021  0.6310 -0.2782
  893poe     o2 6392   1.822   2.728   1.739  0.1990 -0.1960 -0.1211
  893poe    c23 6393   1.880   2.636   1.828 -0.4209 -0.2752  0.2072
  893poe    c23 6394   2.034   2.640   1.825 -0.4462  0.3387 -0.4848
  893poe     o2 6395   2.073   2.628   1.690  0.4554  0.0155 -0.2055
  893poe    c31 6396   2.212   2.649   1.675  0.5388 -0.4726 -0.1060
  894poe    c31 6397   2.773   1.254   3.285  0.5123  0.7269  0.0981
  894poe     o2 6398   2.821   1.155   3.373  0.3040 -0.2999 -0.9144
  894poe    c23 6399   2.934   1.212   3.437 -0.4854  0.3491 -0.0812
  894poe    c23 6400   2.993   1.120   3.544  0.4995  0.9765 -0.0712
  894poe     o2 6401   2.889   1.125   3.640 -0.1746 -0.3839 -0.7035
  894poe    c23 6402   2.883   1.029   3.743  0.0015  0.3462 -0.0093
  894poe    c23 6403   2.822   0.903   3.680  0.0352  0.1198  0.4055
  894poe     o2 6404   2.706   0.943   3.610  0.3685  0.0388 -0.2051
  894poe    c23 6405   2.639   0.837   3.545 -0.5166  0.2536  0.3280
  894poe    c23 6406   2.514   0.886   3.470 -0.0684 -0.4865 -0.9369
  894poe     o2 6407   2.568   1.001   3.409  0.0011  0.3517  0.6616
  894poe    c31 6408   2.465   1.074   3.344 -0.0165 -0.2567 -0.0028
  895poe    c31 6409   0.820   6.622   2.768  0.0127  0.0724  0.4147
  895poe     o2 6410   0.819   6.649   2.630  0.7014 -0.5205  0.2904
  895poe    c23 6411   0.910   6.756   2.624  0.7888 -0.6013  0.1494
  895poe    c23 6412   0.958   6.793   2.483  0.2431  0.0059  0.1149
  895poe     o2 6413   1.034   6.683   2.436 -0.4564 -0.4303 -0.0083
  895poe    c23 6414   1.070   6.700   2.301 -0.1086  0.2159  0.1608
  895poe    c23 6415   1.190   6.617   2.253 -0.1201  0.0493  0.4200
  895poe     o2 6416   1.178   6.487   2.306 -0.2270  0.1305  0.5954
  895poe    c23 6417   1.252   6.377   2.256 -0.1827  0.0928  0.7409
  895poe    c23 6418   1.222   6.257   2.347  0.3005 -0.7355 -0.1694
  895poe     o2 6419   1.217   6.287   2.485 -0.1258 -0.3973 -0.2569
  895poe    c31 6420   1.169   6.168   2.544 -0.7911 -0.3104 -0.6197
  896poe    c31 6421   4.205   4.317   2.679  0.3222 -0.4873  0.3255
  896poe     o2 6422   4.294   4.257   2.770  0.3055 -0.6010  0.2665
  896poe    c23 6423   4.221   4.216   2.884  0.0555  0.3399  0.4499
  896poe    c23 6424   4.309   4.128   2.975 -0.1624  0.0760  0.4061
  896poe     o2 6425   4.433   4.195   2.964 -0.1370  0.0134  0.3180
  896poe    c23 6426   4.534   4.101   2.992 -0.2947 -0.2346  0.0644
  896poe    c23 6427   4.664   4.183   3.001 -0.4962  0.1681 -0.6490
  896poe     o2 6428   4.682   4.270   2.891 -0.0546  0.1457 -0.5979
  896poe    c23 6429   4.821   4.286   2.873  0.2250 -1.1586  0.2415
  896poe    c23 6430   4.843   4.352   2.735  0.4472 -0.3600  0.6520
  896poe     o2 6431   4.777   4.289   2.628  0.5592  0.1126  0.2997
  896poe    c31 6432   4.820   4.331   2.501 -0.5064 -0.5610 -0.3048
  897poe    c31 6433   6.802   5.533   4.501  0.3131 -0.0613  0.3606
  897poe     o2 6434   6.885   5.597   4.596 -0.4739  0.3866  0.7616
  897poe    c23 6435   7.010   5.642   4.547 -0.7231  0.3811  0.1039
  897poe    c23 6436   7.103   5.640   4.670  0.0048  0.0154 -0.4460
  897poe     o2 6437   7.050   5.720   4.773  0.3273 -0.3390 -0.0019
  897poe    c23 6438   7.131   5.725   4.888 -0.5097 -0.2264  0.5956
  897poe    c23 6439   7.049   5.760   5.013 -0.2789  0.3771  0.5820
  897poe     o2 6440   6.925   5.692   5.007 -0.1880  0.2610  0.0232
  897poe    c23 6441   6.839   5.742   5.106 -0.2329 -0.2194  0.2301
  897poe    c23 6442   6.713   5.656   5.127 -0.3256 -0.1442 -0.0267
  897poe     o2 6443   6.625   5.681   5.019 -0.1595  0.2079 -0.0826
  897poe    c31 6444   6.546   5.567   4.995 -0.1253  0.1756 -0.0432
  898poe    c31 6445   3.229   1.288   6.838  0.3060  0.2117  0.3134
  898poe     o2 6446   3.276   1.162   6.796 -0.2076  0.1081  0.0406
  898poe    c23 6447   3.228   1.079   6.900 -0.3622  0.0938 -0.0417
  898poe    c23 6448   3.194   0.943   6.837  0.1347 -0.0276 -0.0564
  898poe     o2 6449   3.319   0.903   6.786  0.0799 -0.4246  0.1158
  898poe    c23 6450   3.326   0.778   6.722 -0.2272 -0.4882  0.2062
  898poe    c23 6451   3.470   0.741   6.684 -0.1389  0.2632 -0.2011
  898poe     o2 6452   3.525   0.846   6.607  0.0381  0.0421 -0.3759
  898poe    c23 6453   3.660   0.817   6.577  0.2638  0.6734  0.0160
  898poe    c23 6454   3.718   0.899   6.460  0.4033  0.0150 -0.3794
  898poe     o2 6455   3.741   1.033   6.497 -0.7264  0.2959 -0.6380
  898poe    c31 6456   3.799   1.112   6.396 -0.3051  1.1621  0.2723
  899poe    c31 6457   5.018   3.351   2.347  0.0941  0.6852 -0.7863
  899poe     o2 6458   4.959   3.412   2.461 -0.1900  0.1701 -0.6547
  899poe    c23 6459   4.954   3.552   2.448 -0.0455  0.1830 -0.5744
  899poe    c23 6460   4.915   3.607   2.586  0.5261 -0.6804 -0.0628
  899poe     o2 6461   4.815   3.525   2.642 -0.5661  0.3934 -0.3913
  899poe    c23 6462   4.746   3.599   2.740 -0.1278  0.5371 -0.1924
  899poe    c23 6463   4.644   3.512   2.815  0.2699  0.1779 -0.0597
  899poe     o2 6464   4.701   3.387   2.845 -0.3048  0.0691  0.6214
  899poe    c23 6465   4.594   3.299   2.871 -0.1999 -0.2866 -0.1021
  899poe    c23 6466   4.622   3.148   2.873 -0.5809 -0.3581  0.0302
  899poe     o2 6467   4.655   3.107   2.742  0.2601  0.2984  0.0293
  899poe    c31 6468   4.634   2.968   2.739  0.0676  0.3216  0.2557
  900poe    c31 6469   0.427   3.256   1.619  0.2529 -0.0929 -0.0969
  900poe     o2 6470   0.386   3.130   1.572  0.2869 -0.1012 -0.1037
  900poe    c23 6471   0.448   3.030   1.651 -0.1463  0.0177  0.3919
  900poe    c23 6472   0.345   2.917   1.661 -0.7318  0.5282  0.2090
  900poe     o2 6473   0.296   2.886   1.532 -0.1399 -0.0293  0.1134
  900poe    c23 6474   0.202   2.780   1.541  0.1282 -0.2404  0.4535
  900poe    c23 6475   0.178   2.752   1.392  0.9546  0.0205  0.2649
  900poe     o2 6476   0.152   2.871   1.321  0.0379 -0.0334  0.5017
  900poe    c23 6477   0.074   2.854   1.205  0.4167  0.2700  0.2015
  900poe    c23 6478   0.060   2.978   1.115  0.0811  0.2980  0.2905
  900poe     o2 6479   0.003   3.093   1.173 -0.1528  0.2276  0.2018
  900poe    c31 6480  -0.022   3.198   1.081 -0.1550 -0.5079 -0.6523
  901poe    c31 6481   2.530   6.725   0.406  0.0764  0.5093  0.1521
  901poe     o2 6482   2.575   6.846   0.465 -0.0011  0.5055  0.2198
  901poe    c23 6483   2.715   6.845   0.486  0.0203 -0.2096  0.0966
  901poe    c23 6484   2.754   6.992   0.509  0.0337 -0.2052  0.0482
  901poe     o2 6485   2.660   7.028   0.609 -0.0035 -0.0396 -0.0451
  901poe    c23 6486   2.668   7.163   0.646  0.2867 -0.2257  0.5942
  901poe    c23 6487   2.535   7.210   0.709 -0.0424  0.1729 -0.3781
  901poe     o2 6488   2.434   7.180   0.615 -0.2198  0.8576 -0.4102
  901poe    c23 6489   2.307   7.236   0.642 -0.3577  0.5219 -0.3650
  901poe    c23 6490   2.195   7.186   0.549 -0.4563 -0.2624  0.1669
  901poe     o2 6491   2.240   7.211   0.417 -0.5224  0.2335  0.2390
  901poe    c31 6492   2.134   7.253   0.334 -0.3872 -0.0140 -0.0577
  902poe    c31 6493   4.355   1.576   1.232  0.1262 -0.2713 -0.4188
  902poe     o2 6494   4.226   1.525   1.208  0.0565 -0.1844 -0.2270
  902poe    c23 6495   4.147   1.554   1.321  0.2457 -0.2361 -0.0826
  902poe    c23 6496   4.011   1.484   1.311  0.0460  0.1853 -0.3298
  902poe     o2 6497   3.983   1.500   1.174 -0.2394  0.4606 -0.2396
  902poe    c23 6498   3.843   1.513   1.159 -0.2428  0.3746 -0.2880
  902poe    c23 6499   3.820   1.537   1.009  0.4147 -0.0376 -0.4588
  902poe     o2 6500   3.943   1.546   0.940  0.6235  0.1106 -0.0695
  902poe    c23 6501   3.904   1.580   0.809  0.3210 -0.2808 -0.0862
  902poe    c23 6502   4.017   1.588   0.704  0.0242  0.5402 -0.3521
  902poe     o2 6503   4.102   1.692   0.747  0.6523 -0.0802 -0.0701
  902poe    c31 6504   4.231   1.690   0.691  0.6106 -0.0380 -0.1685
  903poe    c31 6505   0.108   6.681   6.195  0.0750  0.1705 -0.9181
  903poe     o2 6506   0.243   6.656   6.227 -0.2080 -0.0025  0.1779
  903poe    c23 6507   0.283   6.713   6.350 -0.1328 -0.2517  0.2703
  903poe    c23 6508   0.433   6.742   6.367 -0.1424  0.3641 -0.6199
  903poe     o2 6509   0.523   6.635   6.345 -0.1309  0.2831 -0.1872
  903poe    c23 6510   0.557   6.561   6.460  0.0560  0.1937 -0.2999
  903poe    c23 6511   0.694   6.499   6.430 -0.1285 -0.1601 -0.4170
  903poe     o2 6512   0.694   6.451   6.297  0.5230 -0.6786 -0.2344
  903poe    c23 6513   0.821   6.404   6.258  0.7284 -0.3064 -0.0197
  903poe    c23 6514   0.805   6.365   6.110 -0.1416 -0.3852  0.0935
  903poe     o2 6515   0.712   6.453   6.052 -0.0306 -0.2873  0.0654
  903poe    c31 6516   0.665   6.407   5.928  0.4029 -0.7961  0.0890
  904poe    c31 6517   5.366   0.667   6.102 -0.0412 -0.3047 -0.1951
  904poe     o2 6518   5.281   0.624   5.998  0.0246 -0.3015 -0.2505
  904poe    c23 6519   5.348   0.521   5.927  0.3131 -0.0904 -0.2878
  904poe    c23 6520   5.257   0.444   5.829  0.3884 -0.6874  0.1060
  904poe     o2 6521   5.173   0.538   5.765  0.6370 -0.4552  0.1185
  904poe    c23 6522   5.092   0.492   5.660 -0.1642 -0.0606  0.5554
  904poe    c23 6523   4.986   0.602   5.638 -0.0312 -0.1428 -0.5766
  904poe     o2 6524   4.961   0.645   5.770 -0.5635  0.0786 -0.7460
  904poe    c23 6525   4.852   0.578   5.829 -0.4066  0.8205  0.4114
  904poe    c23 6526   4.873   0.596   5.981  0.5029  0.4442  0.3352
  904poe     o2 6527   5.007   0.570   6.014  0.3797 -0.6849 -0.0014
  904poe    c31 6528   5.021   0.523   6.146 -0.2185 -0.5557  0.1114
  905poe    c31 6529   2.820   1.619   6.407 -0.3019 -0.5292  0.1997
  905poe     o2 6530   2.775   1.552   6.291  0.0882 -0.7332  0.1634
  905poe    c23 6531   2.760   1.413   6.303  0.2265 -0.7463  0.1782
  905poe    c23 6532   2.642   1.356   6.384 -0.3437 -0.0561 -0.1630
  905poe     o2 6533   2.648   1.217   6.366 -0.1453 -0.0792  0.0765
  905poe    c23 6534   2.552   1.153   6.448 -0.4161 -0.1313 -0.2776
  905poe    c23 6535   2.574   1.002   6.468 -0.2073 -0.1336 -0.5147
  905poe     o2 6536   2.623   0.955   6.345  0.1812  0.1590 -0.4752
  905poe    c23 6537   2.602   0.816   6.334 -0.1841  0.2112 -0.4278
  905poe    c23 6538   2.671   0.746   6.216 -0.3422 -0.4467 -0.1366
  905poe     o2 6539   2.599   0.762   6.096  0.0593 -0.0263 -0.3256
  905poe    c31 6540   2.684   0.744   5.985  0.4280 -0.3321  0.0055
  906poe    c31 6541   3.005   4.537   1.262  0.0864 -0.0134 -0.7408
  906poe     o2 6542   2.977   4.457   1.374  0.2724  0.0485 -0.6505
  906poe    c23 6543   3.086   4.437   1.462 -0.5058  0.0487  0.3407
  906poe    c23 6544   3.053   4.318   1.553  0.3216 -0.1495  0.3949
  906poe     o2 6545   2.922   4.342   1.601  0.1513 -0.0029 -0.1445
  906poe    c23 6546   2.856   4.239   1.670 -0.0709  0.3962  0.2410
  906poe    c23 6547   2.719   4.276   1.730 -0.3062 -0.1918  0.0699
  906poe     o2 6548   2.636   4.329   1.629  0.0045  0.3203  0.0809
  906poe    c23 6549   2.498   4.309   1.653  0.0845 -0.3682 -0.0167
  906poe    c23 6550   2.416   4.332   1.525 -0.1201  0.2504  0.2267
  906poe     o2 6551   2.429   4.249   1.413 -0.5431  0.2831  0.1495
  906poe    c31 6552   2.329   4.150   1.416  0.0436 -0.3449 -0.3836
  907poe    c31 6553   3.016   1.670   5.263  0.0891  0.0212  0.3124
  907poe     o2 6554   3.052   1.536   5.239 -0.4298 -0.1544  0.4960
  907poe    c23 6555   3.191   1.529   5.264 -0.1981  0.0380 -0.6500
  907poe    c23 6556   3.245   1.394   5.214  0.5250 -0.1746  0.6544
  907poe     o2 6557   3.167   1.367   5.100  0.0777 -0.1998  0.9617
  907poe    c23 6558   3.209   1.248   5.037 -0.0970  0.6249 -0.7681
  907poe    c23 6559   3.077   1.203   4.971 -0.1586 -0.1501 -0.1277
  907poe     o2 6560   2.967   1.240   5.050  0.0859 -0.5125  0.3834
  907poe    c23 6561   2.851   1.240   4.971 -0.0267  1.0637  0.5199
  907poe    c23 6562   2.746   1.271   5.079 -0.3135  0.0586  0.5466
  907poe     o2 6563   2.788   1.392   5.139  0.1928  0.2137 -0.1109
  907poe    c31 6564   2.706   1.426   5.248  0.4709  1.0117 -0.1468
  908poe    c31 6565   3.064   3.816   1.662  0.0520 -0.5736 -0.1456
  908poe     o2 6566   2.927   3.805   1.692  0.1108  0.5379  0.5851
  908poe    c23 6567   2.907   3.725   1.806 -0.0352  0.7128  0.6819
  908poe    c23 6568   2.763   3.725   1.860 -0.2667 -0.2848  0.0796
  908poe     o2 6569   2.745   3.818   1.964  0.2475  0.1663 -0.2294
  908poe    c23 6570   2.612   3.866   1.962  0.1401 -0.1402 -0.4253
  908poe    c23 6571   2.568   3.916   2.100 -0.0681 -0.5102 -0.3573
  908poe     o2 6572   2.636   3.836   2.194 -0.5182  0.1978  0.5944
  908poe    c23 6573   2.597   3.880   2.322 -0.0691  0.8069  0.5289
  908poe    c23 6574   2.691   3.809   2.422 -0.3987  0.2786  0.4698
  908poe     o2 6575   2.818   3.835   2.366 -0.4350 -0.1276  0.1973
  908poe    c31 6576   2.914   3.869   2.463 -0.4522 -0.8124  0.4660
  909poe    c31 6577   5.249   6.086   0.047  0.1534  0.4237 -0.1075
  909poe     o2 6578   5.237   6.217  -0.003 -0.1216  0.3141 -0.3257
  909poe    c23 6579   5.117   6.277   0.040  0.2012  0.4451  0.4075
  909poe    c23 6580   5.113   6.414  -0.031  0.7911  0.2332 -0.0374
  909poe     o2 6581   5.086   6.403  -0.169  0.2818  0.2027  0.0634
  909poe    c23 6582   5.088   6.527  -0.236 -0.2671  0.0159 -0.3017
  909poe    c23 6583   5.070   6.512  -0.389 -0.0939 -0.2629 -0.2958
  909poe     o2 6584   5.179   6.435  -0.435  0.6491  0.7559 -0.2791
  909poe    c23 6585   5.200   6.418  -0.573  0.2869  0.1219 -0.2605
  909poe    c23 6586   5.303   6.304  -0.591  0.5089  0.3304 -0.3257
  909poe     o2 6587   5.278   6.190  -0.511 -0.1274  0.4312 -0.3741
  909poe    c31 6588   5.358   6.083  -0.557 -0.3358 -0.2246  0.7609
  910poe    c31 6589   0.284   4.985   4.046 -0.2991 -0.1377 -0.1621
  910poe     o2 6590   0.318   4.862   3.985  0.3086 -0.0815  0.0513
  910poe    c23 6591   0.456   4.835   3.977  0.3194 -0.0868  0.2593
  910poe    c23 6592   0.458   4.685   3.941 -0.3181 -0.1244  0.3607
  910poe     o2 6593   0.381   4.657   3.826 -0.6398  0.0107  0.5415
  910poe    c23 6594   0.363   4.517   3.818  0.5362 -0.1363  0.2663
  910poe    c23 6595   0.255   4.474   3.717  0.4891 -0.3357  0.4011
  910poe     o2 6596   0.128   4.468   3.779  0.4042 -0.5492  0.2066
  910poe    c23 6597   0.017   4.451   3.693 -0.0426  0.3433  0.5975
  910poe    c23 6598  -0.118   4.439   3.765 -0.3373  0.6820  0.1041
  910poe     o2 6599  -0.149   4.565   3.821  0.1280  0.8653 -0.0515
  910poe    c31 6600  -0.269   4.551   3.893  0.6621 -0.5714  0.6070
  911poe    c31 6601   0.814   2.110   4.986 -0.1019  0.1638 -0.3422
  911poe     o2 6602   0.774   2.243   5.010  0.6222  0.3019  0.1239
  911poe    c23 6603   0.665   2.255   5.098  0.5508 -0.6575  0.1776
  911poe    c23 6604   0.610   2.396   5.070  0.2377 -0.7782  0.1856
  911poe     o2 6605   0.716   2.477   5.026 -0.2086  0.0314  0.5881
  911poe    c23 6606   0.681   2.612   5.005 -0.5033 -0.0995  0.2357
  911poe    c23 6607   0.801   2.669   4.928 -0.4749 -0.2427  0.1740
  911poe     o2 6608   0.860   2.556   4.868  0.4100  0.4782 -0.3422
  911poe    c23 6609   0.971   2.583   4.785  1.1424 -0.0145  0.4670
  911poe    c23 6610   0.994   2.446   4.718  0.1997 -0.0386  0.1821
  911poe     o2 6611   0.977   2.344   4.814  0.0142 -0.2499 -0.0762
  911poe    c31 6612   1.034   2.221   4.774 -0.3116 -0.3938 -0.1046
  912poe    c31 6613   3.550   0.719   5.903 -0.3695 -0.1093 -0.6894
  912poe     o2 6614   3.462   0.664   5.998 -0.3270  0.3566 -0.3795
  912poe    c23 6615   3.331   0.716   5.986 -0.0460  1.1333 -0.1399
  912poe    c23 6616   3.251   0.633   6.088 -0.0059  0.3971 -0.6967
  912poe     o2 6617   3.286   0.499   6.063  0.1984  0.2069  0.5598
  912poe    c23 6618   3.176   0.413   6.080  0.0563  0.1833 -0.4377
  912poe    c23 6619   3.211   0.278   6.015  0.6263  0.6740 -1.1649
  912poe     o2 6620   3.307   0.193   6.074 -0.9444 -0.2223  0.1692
  912poe    c23 6621   3.324   0.078   5.995 -0.3538  0.0723 -0.1387
  912poe    c23 6622   3.463   0.016   6.016 -0.2917  0.2695  0.0308
  912poe     o2 6623   3.566   0.103   5.972  0.1980 -0.0531  0.5248
  912poe    c31 6624   3.680   0.020   5.970  0.2591  0.0445 -0.2093
  913poe    c31 6625   6.382   2.376   2.372  0.5159  0.7859  0.4926
  913poe     o2 6626   6.491   2.414   2.292  0.7567 -0.0165  0.4319
  913poe    c23 6627   6.470   2.402   2.153  0.6060 -0.4355  0.4889
  913poe    c23 6628   6.609   2.381   2.089  0.1126 -0.0751 -0.7200
  913poe     o2 6629   6.691   2.481   2.145 -0.3364  0.0765 -0.3257
  913poe    c23 6630   6.825   2.453   2.111 -0.0433  0.9033  0.1296
  913poe    c23 6631   6.911   2.560   2.181 -0.4132  1.1904  0.1488
  913poe     o2 6632   6.849   2.572   2.307 -0.0452 -0.2489  0.4772
  913poe    c23 6633   6.934   2.649   2.389 -0.1967  0.2253  0.1889
  913poe    c23 6634   6.883   2.637   2.534  0.3863 -0.0097  0.3728
  913poe     o2 6635   6.757   2.695   2.559  0.2780 -0.3129  0.5422
  913poe    c31 6636   6.740   2.749   2.687  0.1940  0.1212  0.3484
  914poe    c31 6637   4.834   3.875   1.451  0.2241  0.6274 -0.3081
  914poe     o2 6638   4.720   3.943   1.500 -0.2912 -0.2469 -0.2695
  914poe    c23 6639   4.735   3.979   1.636 -0.1766 -0.2482 -0.2815
  914poe    c23 6640   4.594   4.004   1.693 -0.0606  0.1164 -0.1539
  914poe     o2 6641   4.505   4.050   1.593  0.1863  0.4270 -0.2346
  914poe    c23 6642   4.372   4.055   1.642  0.1586 -1.1166 -0.0855
  914poe    c23 6643   4.277   4.102   1.530  0.0263 -0.3307  0.3524
  914poe     o2 6644   4.292   4.020   1.417  0.3759 -0.0014  0.1542
  914poe    c23 6645   4.187   4.042   1.326  0.2774  0.1154  0.2950
  914poe    c23 6646   4.224   3.972   1.194  0.0199 -0.1232  0.3487
  914poe     o2 6647   4.332   4.042   1.137  0.1302 -0.3218  0.3092
  914poe    c31 6648   4.338   4.026   0.997  0.3446 -0.8421  0.3778
  915poe    c31 6649   5.746   2.397   3.975  0.2156 -0.2379 -0.2602
  915poe     o2 6650   5.779   2.417   4.111  0.7653  0.7759 -0.5330
  915poe    c23 6651   5.875   2.321   4.148 -0.4841 -0.4321 -0.3050
  915poe    c23 6652   5.934   2.334   4.290 -0.2397  0.1277 -0.4538
  915poe     o2 6653   5.820   2.353   4.370  0.0536  0.1720 -0.0454
  915poe    c23 6654   5.859   2.408   4.494 -0.2111 -0.7645  0.4707
  915poe    c23 6655   5.729   2.478   4.538 -0.2379 -0.7303  0.3372
  915poe     o2 6656   5.693   2.555   4.425  0.1679 -0.3973  0.4294
  915poe    c23 6657   5.621   2.674   4.450  0.3479 -0.0966 -0.4362
  915poe    c23 6658   5.625   2.749   4.316 -0.8706  0.1265 -0.3514
  915poe     o2 6659   5.659   2.660   4.212  0.7274  0.4283 -0.1059
  915poe    c31 6660   5.662   2.721   4.085 -0.0643  0.5577 -0.0691
  916poe    c31 6661   0.045   4.221   1.435 -0.2069  0.2490 -0.0318
  916poe     o2 6662   0.076   4.155   1.314  0.0150  0.2100  0.0469
  916poe    c23 6663   0.200   4.087   1.312 -0.0134  0.1529  0.2172
  916poe    c23 6664   0.206   4.006   1.181 -0.4682  0.6610 -0.1232
  916poe     o2 6665   0.163   4.083   1.071  0.3499  0.1073 -0.8477
  916poe    c23 6666   0.268   4.160   1.019  0.6614  0.0274 -0.3478
  916poe    c23 6667   0.237   4.219   0.880 -0.2965  0.7290  0.1528
  916poe     o2 6668   0.099   4.249   0.885 -0.3524  0.3925  0.6213
  916poe    c23 6669   0.051   4.269   0.754 -0.0868  0.7758  0.5791
  916poe    c23 6670  -0.101   4.288   0.776 -0.0847  0.5952  0.7568
  916poe     o2 6671  -0.142   4.187   0.865  0.4742 -0.1799  0.1465
  916poe    c31 6672  -0.282   4.177   0.875  0.4924 -0.2078  0.3835
  917poe    c31 6673   6.388   1.660   2.416  0.6439  0.0462 -0.3259
  917poe     o2 6674   6.303   1.771   2.435  0.5488 -0.1499  0.4013
  917poe    c23 6675   6.372   1.892   2.451  0.0073  0.0961  0.9308
  917poe    c23 6676   6.283   2.016   2.472  0.0987  0.3120  0.0687
  917poe     o2 6677   6.169   1.983   2.549  0.2233  0.2151  0.2117
  917poe    c23 6678   6.065   2.077   2.545  0.0140 -0.0340 -0.3251
  917poe    c23 6679   5.937   2.041   2.623 -0.0303  0.3394 -0.2219
  917poe     o2 6680   5.903   1.915   2.571 -0.0783  0.2850 -0.0580
  917poe    c23 6681   5.790   1.858   2.635  0.2896 -0.4287 -0.0273
  917poe    c23 6682   5.764   1.720   2.572 -0.7580 -0.5896  0.7373
  917poe     o2 6683   5.859   1.625   2.615 -0.1905 -0.4443 -0.1679
  917poe    c31 6684   5.843   1.507   2.539 -0.0926 -0.7297  0.2514
  918poe    c31 6685   5.240   1.480   5.451  0.1672 -0.2672 -0.4258
  918poe     o2 6686   5.118   1.449   5.388 -0.4180 -0.0870  0.5874
  918poe    c23 6687   5.120   1.332   5.309 -0.3342  0.2113  0.1414
  918poe    c23 6688   4.983   1.276   5.265 -0.2069  0.1500 -0.1781
  918poe     o2 6689   4.890   1.363   5.206  0.0874  0.1075 -0.7111
  918poe    c23 6690   4.757   1.330   5.240  0.2929 -0.1146 -0.1041
  918poe    c23 6691   4.670   1.416   5.145 -0.0207 -0.0458  0.2433
  918poe     o2 6692   4.684   1.551   5.180 -0.5016  0.0842 -0.0526
  918poe    c23 6693   4.594   1.623   5.100 -0.0498  0.4791 -0.2121
  918poe    c23 6694   4.581   1.761   5.168 -0.5099  0.0273  0.6287
  918poe     o2 6695   4.708   1.804   5.211 -0.2733  0.1330 -0.1614
  918poe    c31 6696   4.695   1.926   5.281 -0.6934 -0.0179  0.0268
  919poe    c31 6697   2.851   1.084   6.801 -0.6724 -0.0603 -0.6989
  919poe     o2 6698   2.785   1.002   6.895  0.0149  0.1155 -0.0576
  919poe    c23 6699   2.773   0.867   6.855 -0.0554  0.1760 -0.2411
  919poe    c23 6700   2.661   0.797   6.935  0.0169 -0.1746 -0.4475
  919poe     o2 6701   2.661   0.849   7.066  0.1541 -0.0210 -0.5085
  919poe    c23 6702   2.715   0.754   7.154  0.1221  0.3405 -0.0957
  919poe    c23 6703   2.725   0.821   7.293 -0.5532  0.2852 -0.0177
  919poe     o2 6704   2.801   0.937   7.270 -0.4173  0.2165  0.0834
  919poe    c23 6705   2.789   1.010   7.390 -0.4045  0.3895 -0.0200
  919poe    c23 6706   2.913   1.092   7.431 -0.0222  0.1261 -0.6251
  919poe     o2 6707   2.939   1.197   7.340 -0.1778  0.4248 -0.3313
  919poe    c31 6708   3.041   1.284   7.384 -0.1067  0.0268  0.3149
  920poe    c31 6709   5.286   0.175   1.553  0.1516  0.5879 -0.3789
  920poe     o2 6710   5.282   0.279   1.648  0.1217  0.1105  0.1457
  920poe    c23 6711   5.409   0.339   1.635  0.3212 -0.3021  0.1924
  920poe    c23 6712   5.407   0.456   1.735  0.0365  0.0272 -0.1976
  920poe     o2 6713   5.351   0.407   1.854 -0.1666  0.3741 -0.1502
  920poe    c23 6714   5.331   0.518   1.940 -0.3332 -0.1510  0.5001
  920poe    c23 6715   5.280   0.471   2.077  0.1079 -0.0437  0.7026
  920poe     o2 6716   5.188   0.367   2.053 -0.0203  0.2923 -0.2960
  920poe    c23 6717   5.141   0.309   2.173 -0.5772  0.3529 -0.4801
  920poe    c23 6718   5.011   0.230   2.149 -0.2597 -0.5772  0.7526
  920poe     o2 6719   5.035   0.131   2.051 -0.5036  0.1959 -0.1064
  920poe    c31 6720   4.925   0.046   2.032 -0.2012 -0.1475 -0.3389
  921poe    c31 6721   1.471   1.119   3.986 -0.0445 -0.2290 -0.1753
  921poe     o2 6722   1.347   1.182   4.007 -0.3108 -0.7475 -0.1579
  921poe    c23 6723   1.330   1.288   3.916 -0.0711 -0.2468  0.3725
  921poe    c23 6724   1.393   1.422   3.958  0.1493 -0.1299 -0.3099
  921poe     o2 6725   1.313   1.488   4.054  0.5330 -0.1058 -0.0011
  921poe    c23 6726   1.344   1.625   4.052 -0.5563  0.1457 -0.3500
  921poe    c23 6727   1.242   1.708   4.132  0.2457  0.6612  0.1587
  921poe     o2 6728   1.247   1.685   4.271 -0.0781 -0.4675 -0.0047
  921poe    c23 6729   1.136   1.743   4.335 -0.0397 -0.3640 -0.0324
  921poe    c23 6730   1.153   1.712   4.485  0.1136  0.3658  0.1087
  921poe     o2 6731   1.199   1.578   4.487 -0.5413  0.1207 -0.6451
  921poe    c31 6732   1.201   1.540   4.623  0.0337  0.2035 -0.6285
  922poe    c31 6733   3.508   6.369   4.909 -0.0453 -0.5999  0.1920
  922poe     o2 6734   3.414   6.264   4.914 -0.4208 -0.2813 -0.0828
  922poe    c23 6735   3.486   6.143   4.912  0.4019  0.1963  0.1521
  922poe    c23 6736   3.381   6.035   4.882  0.2671  0.3836 -0.0483
  922poe     o2 6737   3.271   6.054   4.968  0.3432 -0.2543  0.1935
  922poe    c23 6738   3.177   5.949   4.958 -0.0949  0.1673 -0.0959
  922poe    c23 6739   3.035   6.002   4.988  0.0540  0.6068 -0.1648
  922poe     o2 6740   3.040   6.079   5.106 -0.2741  0.2202  0.1012
  922poe    c23 6741   2.943   6.180   5.121 -0.4188  0.1395 -0.2815
  922poe    c23 6742   3.010   6.316   5.096  0.3796 -0.1128  0.4239
  922poe     o2 6743   3.108   6.306   4.994 -0.2375 -0.2069 -0.1684
  922poe    c31 6744   3.107   6.419   4.909 -0.0308 -0.0428  0.0457
  923poe    c31 6745   3.368   5.842   2.961 -0.6852  0.3167  0.2774
  923poe     o2 6746   3.291   5.934   2.885 -0.1905  0.5702  0.0755
  923poe    c23 6747   3.329   6.067   2.908  0.2999  0.3358  0.6628
  923poe    c23 6748   3.289   6.156   2.789  0.4618  0.1036  0.4331
  923poe     o2 6749   3.160   6.108   2.756  0.6640 -0.0828 -0.1071
  923poe    c23 6750   3.105   6.208   2.673  0.2483 -0.1008  0.1427
  923poe    c23 6751   2.956   6.202   2.709  0.1937  0.0728 -0.0549
  923poe     o2 6752   2.926   6.064   2.710  0.2272  0.0692  0.7091
  923poe    c23 6753   2.792   6.039   2.747  0.0889 -0.4502 -0.1196
  923poe    c23 6754   2.746   5.917   2.665  0.0637 -0.2252 -0.4412
  923poe     o2 6755   2.787   5.798   2.727 -0.0501  0.0674  0.2060
  923poe    c31 6756   2.767   5.680   2.653 -0.1490  0.0651  0.2366
  924poe    c31 6757   1.140   4.693   3.060 -0.4850 -0.0060 -0.1206
  924poe     o2 6758   1.041   4.594   3.066 -0.2399 -0.2740 -0.4013
  924poe    c23 6759   0.914   4.655   3.054 -0.2471 -0.1619  0.1830
  924poe    c23 6760   0.811   4.544   3.025 -0.0866 -0.4799  0.8109
  924poe     o2 6761   0.851   4.475   2.909  0.4401 -0.2318  0.8440
  924poe    c23 6762   0.765   4.374   2.864  0.9106 -0.2978  0.0718
  924poe    c23 6763   0.780   4.345   2.713 -0.0186  0.3403 -0.1503
  924poe     o2 6764   0.919   4.366   2.704  0.0493 -0.1545 -0.2700
  924poe    c23 6765   0.972   4.326   2.580  0.1977 -0.1070 -0.2225
  924poe    c23 6766   1.047   4.193   2.596 -0.0999 -0.2821 -0.2681
  924poe     o2 6767   1.158   4.199   2.682  0.0546  0.1531 -0.4948
  924poe    c31 6768   1.283   4.158   2.631  0.0104 -0.6380  0.0138
  925poe    c31 6769   6.179   6.577   5.199  0.1122  0.6868 -0.1665
  925poe     o2 6770   6.295   6.634   5.256 -0.1280  0.0297  1.0180
  925poe    c23 6771   6.412   6.563   5.223 -0.4773 -0.0302 -0.1451
  925poe    c23 6772   6.534   6.651   5.258 -0.3948 -0.3148  0.2860
  925poe     o2 6773   6.502   6.713   5.381  0.0422  0.0776  0.2045
  925poe    c23 6774   6.592   6.816   5.414  0.3623 -0.2898  0.4838
  925poe    c23 6775   6.515   6.928   5.487  0.4828  0.1855 -0.1055
  925poe     o2 6776   6.386   6.931   5.430  0.5300  0.0670 -0.2207
  925poe    c23 6777   6.287   7.024   5.468  0.0488 -0.5048 -0.0560
  925poe    c23 6778   6.173   7.028   5.365  0.0488  0.0135 -0.0375
  925poe     o2 6779   6.149   6.896   5.322  0.0864 -0.0619  0.1709
  925poe    c31 6780   6.021   6.886   5.265  0.3274 -0.5602 -0.2882
  926poe    c31 6781   5.798   0.730   1.360  0.2556  0.4412 -0.0053
  926poe     o2 6782   5.742   0.627   1.283 -0.2313  0.5203  0.2353
  926poe    c23 6783   5.700   0.515   1.357  0.2629 -0.0368 -0.3071
  926poe    c23 6784   5.647   0.402   1.267 -0.4223  0.3249 -0.3649
  926poe     o2 6785   5.757   0.350   1.195  0.0183  0.4656  0.1967
  926poe    c23 6786   5.734   0.401   1.066 -0.4432 -0.3279 -0.0388
  926poe    c23 6787   5.865   0.381   0.988  0.0466  0.4266  0.5800
  926poe     o2 6788   5.889   0.245   1.016 -0.0359  0.4395  0.7155
  926poe    c23 6789   5.992   0.191   0.936 -0.0018  0.7010  0.5834
  926poe    c23 6790   5.992   0.041   0.970 -0.3484  0.5835  0.0792
  926poe     o2 6791   5.985   0.034   1.111 -0.0461  0.4372  0.0859
  926poe    c31 6792   5.990  -0.102   1.150 -0.5925  0.4103  0.0679
  927poe    c31 6793   1.721   4.037   5.366 -0.2247 -0.0130 -0.2802
  927poe     o2 6794   1.736   3.939   5.266 -0.2657  0.0549 -0.3533
  927poe    c23 6795   1.845   3.861   5.308 -0.0101  0.1184 -0.8896
  927poe    c23 6796   1.858   3.729   5.229 -0.7937 -0.4314 -0.1156
  927poe     o2 6797   1.907   3.736   5.097  0.1621 -0.1870  0.2516
  927poe    c23 6798   2.047   3.759   5.092  0.1930 -0.4846 -0.2773
  927poe    c23 6799   2.082   3.773   4.943 -0.3056  0.0398 -0.3466
  927poe     o2 6800   1.977   3.856   4.898 -0.5696  0.0168  0.2146
  927poe    c23 6801   1.983   3.886   4.760 -0.5076 -0.8399  0.0295
  927poe    c23 6802   1.851   3.948   4.710 -0.0339 -0.3021 -0.5746
  927poe     o2 6803   1.742   3.866   4.743 -0.0467  0.2960  0.9472
  927poe    c31 6804   1.617   3.914   4.697  0.5884  0.3046 -0.8322
  928poe    c31 6805   2.128   4.504   3.736  0.5374  0.0842 -0.1874
  928poe     o2 6806   2.171   4.426   3.627  0.4602  0.5139 -0.5276
  928poe    c23 6807   2.063   4.360   3.565  0.3274 -0.3278  0.5756
  928poe    c23 6808   2.116   4.236   3.491 -0.4192 -0.0901 -0.3729
  928poe     o2 6809   2.237   4.259   3.422  0.1926 -0.3415  0.5948
  928poe    c23 6810   2.269   4.150   3.338 -0.1002 -0.2469  0.3551
  928poe    c23 6811   2.410   4.159   3.276 -0.5121 -0.4073 -0.6192
  928poe     o2 6812   2.419   4.276   3.198 -0.3382  0.0387  0.0589
  928poe    c23 6813   2.541   4.295   3.130 -0.1642  0.0266  0.3684
  928poe    c23 6814   2.528   4.434   3.065  0.2411  0.2611  0.7746
  928poe     o2 6815   2.555   4.529   3.165 -0.2752  0.6960  0.5059
  928poe    c31 6816   2.550   4.659   3.110 -0.1245  0.5150  0.0545
  929poe    c31 6817   0.848   0.316   6.583 -0.2095  0.3722 -0.1715
  929poe     o2 6818   0.766   0.271   6.689 -0.2097  0.1531 -0.2639
  929poe    c23 6819   0.696   0.362   6.770 -0.9385 -0.5582 -0.0829
  929poe    c23 6820   0.677   0.309   6.914  0.3845  0.0478  0.3286
  929poe     o2 6821   0.795   0.323   6.991  0.4587  0.3582  0.1594
  929poe    c23 6822   0.767   0.298   7.127  0.1999 -0.3942 -0.0296
  929poe    c23 6823   0.892   0.231   7.188  0.2179 -0.1583  0.1898
  929poe     o2 6824   0.944   0.118   7.123  0.2458  0.0931 -0.2302
  929poe    c23 6825   0.897  -0.009   7.164 -0.3556  0.1835 -0.6297
  929poe    c23 6826   0.991  -0.121   7.115 -1.0052 -0.4950 -0.3491
  929poe     o2 6827   1.032  -0.083   6.985 -0.2105 -0.0352  0.0273
  929poe    c31 6828   1.124  -0.171   6.926 -0.2874 -0.0433 -0.0823
  930poe    c31 6829   4.050   4.590   0.348  0.5085 -0.5426  0.1692
  930poe     o2 6830   4.105   4.720   0.339  0.4862 -0.5732 -0.4243
  930poe    c23 6831   4.023   4.808   0.412  0.5380 -0.3003 -0.6946
  930poe    c23 6832   4.116   4.931   0.408  0.6307 -0.3164  0.5977
  930poe     o2 6833   4.179   4.958   0.284 -0.1746 -0.1910  0.2100
  930poe    c23 6834   4.260   5.073   0.295 -0.0162 -0.2614 -0.2089
  930poe    c23 6835   4.357   5.074   0.176  0.4023 -0.2748  0.1292
  930poe     o2 6836   4.404   4.941   0.177 -0.3414 -0.5517 -0.7177
  930poe    c23 6837   4.512   4.933   0.087  0.0100 -0.3258 -0.3188
  930poe    c23 6838   4.653   4.924   0.149 -0.1384  0.2457  0.1057
  930poe     o2 6839   4.627   4.817   0.237 -0.3025  0.2663  0.0827
  930poe    c31 6840   4.739   4.801   0.321 -0.0484  0.4298 -0.2179
  931poe    c31 6841   3.613   3.914   5.039  0.3692 -0.0295  0.2220
  931poe     o2 6842   3.638   3.874   5.172  0.4397 -0.4993  0.0656
  931poe    c23 6843   3.775   3.898   5.196  0.4422 -0.3327 -0.1065
  931poe    c23 6844   3.812   3.809   5.317 -0.2652 -0.1830  0.2240
  931poe     o2 6845   3.735   3.833   5.432 -0.1817  0.1207  0.2188
  931poe    c23 6846   3.767   3.743   5.536  0.1821 -0.1855 -0.1585
  931poe    c23 6847   3.674   3.737   5.659  0.2009  0.2318 -0.1229
  931poe     o2 6848   3.542   3.702   5.621  0.2385  0.3639 -0.3808
  931poe    c23 6849   3.439   3.689   5.717  0.3512 -0.6682 -0.3957
  931poe    c23 6850   3.312   3.632   5.651 -0.0674 -0.0746 -0.0983
  931poe     o2 6851   3.280   3.700   5.531  0.0761  0.1842  0.0086
  931poe    c31 6852   3.152   3.673   5.478  0.2133 -0.6085  0.0702
  932poe    c31 6853   5.892   5.967   4.901  0.1708 -0.4228 -0.3508
  932poe     o2 6854   5.753   5.973   4.927  0.3122 -0.1363  0.3455
  932poe    c23 6855   5.732   5.936   5.062  0.2257 -0.1513  0.3279
  932poe    c23 6856   5.595   5.867   5.066 -0.0536  0.3857  0.1282
  932poe     o2 6857   5.521   5.916   4.956 -0.3606  0.2410  0.2694
  932poe    c23 6858   5.481   5.803   4.882  0.5550  0.3671 -0.4344
  932poe    c23 6859   5.448   5.855   4.740  0.0789 -0.0215 -0.4693
  932poe     o2 6860   5.548   5.950   4.711 -0.1520  0.2939 -0.2379
  932poe    c23 6861   5.525   6.042   4.607 -0.2515  0.4644 -0.0657
  932poe    c23 6862   5.654   6.125   4.595 -0.0512  0.1378 -0.1881
  932poe     o2 6863   5.669   6.173   4.727  0.3822  0.1449 -0.2357
  932poe    c31 6864   5.794   6.238   4.723  0.5881 -0.2748 -0.5907
  933poe    c31 6865   1.461   4.562   6.370 -0.0221  0.1202  0.3943
  933poe     o2 6866   1.391   4.453   6.313  0.5109 -0.0843  0.1270
  933poe    c23 6867   1.453   4.326   6.322  0.0735 -0.3345 -0.3389
  933poe    c23 6868   1.368   4.224   6.244 -0.2641 -0.0968 -0.2842
  933poe     o2 6869   1.247   4.197   6.311 -0.0624  0.2004  0.2061
  933poe    c23 6870   1.185   4.084   6.253 -0.0382  0.2802  0.0242
  933poe    c23 6871   1.084   4.014   6.346 -0.3579  0.1971 -0.3870
  933poe     o2 6872   1.011   4.114   6.414 -0.6573  0.1525 -0.6408
  933poe    c23 6873   0.906   4.071   6.497  0.5190 -0.0094  0.8102
  933poe    c23 6874   0.844   4.193   6.567  0.1475  0.2236  0.0931
  933poe     o2 6875   0.945   4.273   6.624  0.1022  0.2025  0.2037
  933poe    c31 6876   0.892   4.351   6.729 -0.3379  0.0277  0.1153
  934poe    c31 6877   5.526   3.222   3.212  0.0519 -0.2620  0.2291
  934poe     o2 6878   5.538   3.172   3.344 -0.1766 -0.3361  0.2228
  934poe    c23 6879   5.466   3.052   3.360  0.2384 -0.6022  0.1283
  934poe    c23 6880   5.390   3.075   3.492 -0.5003  0.5928 -0.4876
  934poe     o2 6881   5.486   3.092   3.593 -0.4511  0.1587 -0.4605
  934poe    c23 6882   5.445   3.054   3.723  0.3897  0.1363 -0.1956
  934poe    c23 6883   5.548   3.102   3.827  0.5616  0.1647 -0.3778
  934poe     o2 6884   5.565   3.242   3.817 -0.2338  0.3228  0.3636
  934poe    c23 6885   5.467   3.308   3.894 -1.0959 -0.0583 -0.3709
  934poe    c23 6886   5.503   3.457   3.888 -0.3555 -0.2200 -0.0873
  934poe     o2 6887   5.541   3.492   3.757  0.5667 -0.1883  0.1810
  934poe    c31 6888   5.578   3.629   3.755 -0.0313 -0.0322 -0.3284
  935poe    c31 6889   1.007   4.871   3.518  0.4435 -0.3095  0.5547
  935poe     o2 6890   0.914   4.971   3.554  0.5635 -0.0164  0.0540
  935poe    c23 6891   0.850   4.935   3.674 -0.1306  0.1600 -0.2517
  935poe    c23 6892   0.724   5.021   3.689 -0.3539  0.0614 -1.4675
  935poe     o2 6893   0.761   5.154   3.664  0.1672  0.2568  0.1913
  935poe    c23 6894   0.644   5.225   3.630 -0.0065  0.1280  0.5226
  935poe    c23 6895   0.692   5.368   3.598 -0.1174  0.0052 -0.1940
  935poe     o2 6896   0.783   5.352   3.492 -0.3978 -0.2543 -0.3991
  935poe    c23 6897   0.888   5.446   3.491 -0.1913 -0.4837 -0.6613
  935poe    c23 6898   1.019   5.366   3.474  0.0688 -0.0684 -0.6197
  935poe     o2 6899   1.017   5.242   3.540  0.3698  0.2245 -0.0494
  935poe    c31 6900   1.099   5.235   3.655 -0.0974 -0.3654  0.2555
  936poe    c31 6901   1.456   1.690   1.029 -0.0304 -0.5389  0.6460
  936poe     o2 6902   1.334   1.635   0.986 -0.2292  0.5202 -0.1972
  936poe    c23 6903   1.352   1.603   0.849 -0.2490  0.2272 -0.1333
  936poe    c23 6904   1.218   1.560   0.787 -0.0902 -0.3921 -0.0460
  936poe     o2 6905   1.124   1.661   0.761  0.5112  0.1390 -0.1725
  936poe    c23 6906   1.003   1.600   0.723  0.5499 -0.2416  0.3015
  936poe    c23 6907   0.883   1.696   0.718  0.2071 -0.6771  0.1085
  936poe     o2 6908   0.892   1.769   0.838  0.0637  0.2258 -0.4255
  936poe    c23 6909   0.773   1.839   0.869  0.0280 -0.3057  0.6737
  936poe    c23 6910   0.767   1.890   1.014  0.0247 -0.1833  0.6306
  936poe     o2 6911   0.888   1.954   1.050 -0.0976  0.1049  0.5302
  936poe    c31 6912   0.869   2.036   1.163  0.0318  0.9065 -0.0272
  937poe    c31 6913   1.485   6.620   6.846 -0.0985 -0.1649 -0.3166
  937poe     o2 6914   1.420   6.523   6.768 -0.6775 -0.4001  0.4430
  937poe    c23 6915   1.363   6.590   6.658 -0.3344  0.3925  0.7378
  937poe    c23 6916   1.262   6.487   6.602  0.2779 -0.1053  0.5365
  937poe     o2 6917   1.341   6.372   6.584  0.3404 -0.0848  0.6759
  937poe    c23 6918   1.257   6.260   6.604  0.1455 -0.0186  0.2407
  937poe    c23 6919   1.349   6.141   6.637  0.8108  0.3913 -0.1148
  937poe     o2 6920   1.431   6.195   6.738  0.5270  0.5998  0.0076
  937poe    c23 6921   1.547   6.114   6.742 -0.0477 -0.2339 -0.0102
  937poe    c23 6922   1.627   6.181   6.855 -0.0448 -0.0866 -0.0999
  937poe     o2 6923   1.625   6.321   6.836 -0.1338 -0.0333  0.2998
  937poe    c31 6924   1.716   6.374   6.930  0.2346 -0.2510  0.0721
  938poe    c31 6925   4.058   0.105   0.635 -0.7222 -0.7991 -0.3464
  938poe     o2 6926   4.098  -0.026   0.668 -0.1109 -0.6522 -0.5041
  938poe    c23 6927   4.000  -0.089   0.747 -0.1797  0.5207  0.3762
  938poe    c23 6928   4.055  -0.225   0.793 -1.1719 -0.1321 -0.3032
  938poe     o2 6929   4.078  -0.310   0.683 -0.7979 -0.2226 -0.1565
  938poe    c23 6930   4.185  -0.391   0.727 -0.7461 -0.1925 -0.2257
  938poe    c23 6931   4.238  -0.485   0.617  0.2658  0.1368 -0.0295
  938poe     o2 6932   4.260  -0.418   0.495  0.0992 -0.3415 -0.3257
  938poe    c23 6933   4.297  -0.503   0.389 -0.4754 -0.6305 -0.2972
  938poe    c23 6934   4.322  -0.412   0.267  0.6771  0.0046  0.3899
  938poe     o2 6935   4.200  -0.341   0.260  0.5927 -0.1988 -0.2938
  938poe    c31 6936   4.179  -0.274   0.138 -0.0881  0.4118  0.1509
  939poe    c31 6937   4.882   0.171   3.545  0.0360 -0.5041 -0.8268
  939poe     o2 6938   4.746   0.140   3.523 -0.1372 -0.1016 -0.3528
  939poe    c23 6939   4.659   0.233   3.583 -0.2173  0.1500 -0.8518
  939poe    c23 6940   4.535   0.151   3.621 -0.1748  0.5691  0.2361
  939poe     o2 6941   4.524   0.058   3.515 -0.7285  0.5478  0.3078
  939poe    c23 6942   4.449  -0.055   3.555  0.4842 -0.0257  1.0106
  939poe    c23 6943   4.482  -0.161   3.448 -0.7253  0.3234  0.2684
  939poe     o2 6944   4.620  -0.149   3.420 -0.7859  0.1765 -0.0934
  939poe    c23 6945   4.648  -0.218   3.300 -0.0982 -0.0136  0.1718
  939poe    c23 6946   4.798  -0.199   3.270  0.0248  0.0557  0.8281
  939poe     o2 6947   4.827  -0.062   3.287  0.0534  0.1662 -0.0618
  939poe    c31 6948   4.937  -0.020   3.210  0.3530 -0.3383  0.0898
  940poe    c31 6949   4.007   0.056   1.939  0.0989  0.5036  0.0333
  940poe     o2 6950   3.899   0.146   1.946 -0.0742  0.3256 -0.3054
  940poe    c23 6951   3.804   0.091   2.035 -0.4173  0.2105 -0.7412
  940poe    c23 6952   3.682   0.183   2.055 -0.0840  0.4600  0.1947
  940poe     o2 6953   3.626   0.220   1.931 -0.2233 -0.1235  0.0837
  940poe    c23 6954   3.501   0.276   1.964 -0.2186 -0.2331  0.2895
  940poe    c23 6955   3.445   0.345   1.838  0.0850 -0.4523  0.0349
  940poe     o2 6956   3.460   0.266   1.721  0.0214  0.1519 -0.3868
  940poe    c23 6957   3.437   0.347   1.608  0.0246  0.0561 -0.4558
  940poe    c23 6958   3.470   0.253   1.491  0.2847 -0.1346 -0.2313
  940poe     o2 6959   3.582   0.178   1.532  0.3623  0.1084  0.0026
  940poe    c31 6960   3.642   0.090   1.439 -0.0056 -0.4236  0.2675
  941poe    c31 6961   6.235   5.133   2.203  0.1014 -0.0178  0.1066
  941poe     o2 6962   6.221   5.216   2.090  0.0424 -0.0540  0.0876
  941poe    c23 6963   6.339   5.235   2.015  0.2438  0.4658  0.5288
  941poe    c23 6964   6.402   5.110   1.951 -0.4433  0.3585  0.0517
  941poe     o2 6965   6.321   5.067   1.843 -0.2914  0.0623  0.0547
  941poe    c23 6966   6.394   4.971   1.770 -0.0842  0.1239  0.1800
  941poe    c23 6967   6.351   4.973   1.622 -0.2902  0.2523  0.2403
  941poe     o2 6968   6.212   4.960   1.637 -0.3028  0.3024  0.1596
  941poe    c23 6969   6.156   4.982   1.509  0.2581  0.0159 -0.1397
  941poe    c23 6970   6.004   4.970   1.534  0.2905 -0.0814  0.0121
  941poe     o2 6971   5.982   5.037   1.656  0.3212  0.3181 -0.2031
  941poe    c31 6972   5.848   5.083   1.656  0.3149  0.3047 -0.5864
  942poe    c31 6973   5.196   4.747   6.272 -0.2644  0.0829 -0.0490
  942poe     o2 6974   5.301   4.749   6.178 -0.3312 -0.3181 -0.1347
  942poe    c23 6975   5.423   4.749   6.248 -0.2088  0.2498 -0.3431
  942poe    c23 6976   5.519   4.722   6.130  0.1134 -0.1684  0.0146
  942poe     o2 6977   5.486   4.791   6.012 -0.1086 -0.5043 -0.1206
  942poe    c23 6978   5.586   4.786   5.913 -0.3610  0.2681 -0.4200
  942poe    c23 6979   5.512   4.828   5.784 -0.1162  0.3863 -0.5237
  942poe     o2 6980   5.419   4.730   5.743  0.2638 -0.1297 -0.1702
  942poe    c23 6981   5.394   4.764   5.608 -0.2304 -0.0084 -0.0501
  942poe    c23 6982   5.301   4.676   5.522 -0.0326 -0.3556  0.0877
  942poe     o2 6983   5.344   4.543   5.509  0.4157 -0.1993 -0.0700
  942poe    c31 6984   5.261   4.468   5.595 -0.1536  0.1320 -0.3197
  943poe    c31 6985   6.627   6.667   2.387 -0.7499  0.4270 -0.4257
  943poe     o2 6986   6.611   6.527   2.386  0.0841  0.3226  0.0893
  943poe    c23 6987   6.532   6.503   2.271  0.0720 -0.2042  0.2079
  943poe    c23 6988   6.529   6.354   2.231 -0.1354 -0.0489 -0.3550
  943poe     o2 6989   6.664   6.313   2.241 -0.0570  0.2280 -0.2699
  943poe    c23 6990   6.675   6.188   2.177 -0.1899 -0.0769  0.2900
  943poe    c23 6991   6.819   6.132   2.178 -0.0440  0.2652 -0.4418
  943poe     o2 6992   6.879   6.086   2.297 -0.5817 -0.1524 -0.3266
  943poe    c23 6993   6.817   5.971   2.350  0.5802 -0.5419  0.2210
  943poe    c23 6994   6.895   5.893   2.458  0.5534 -0.1650  0.5122
  943poe     o2 6995   7.000   5.815   2.406  0.5711 -0.1875  0.5811
  943poe    c31 6996   7.082   5.749   2.500 -0.1793 -0.5927  0.9557
  944poe    c31 6997   0.438   0.007   4.714 -0.7036 -0.2096  0.3739
  944poe     o2 6998   0.457  -0.105   4.631 -0.1316 -0.0837  0.3302
  944poe    c23 6999   0.422  -0.081   4.497 -0.1947 -0.2939  0.3092
  944poe    c23 7000   0.492  -0.177   4.399 -0.3700  0.1582 -0.2601
  944poe     o2 7001   0.632  -0.192   4.406 -0.4165 -0.0737  0.1773
  944poe    c23 7002   0.672  -0.252   4.285 -0.0701 -0.2284  0.3688
  944poe    c23 7003   0.826  -0.240   4.284 -0.1176  0.3885 -0.1777
  944poe     o2 7004   0.878  -0.304   4.399  0.1397  0.6180 -0.1649
  944poe    c23 7005   1.015  -0.285   4.424  0.1503  1.1099 -0.5709
  944poe    c23 7006   1.026  -0.336   4.569 -0.7236  0.0608 -0.8615
  944poe     o2 7007   0.928  -0.290   4.659  0.3524 -0.1227  0.4326
  944poe    c31 7008   0.962  -0.312   4.794  0.6667 -0.8257  0.2390
  945poe    c31 7009   2.983   3.691   4.603 -0.4996 -0.5206 -0.9316
  945poe     o2 7010   2.864   3.756   4.642  0.1670  0.1674 -0.0130
  945poe    c23 7011   2.846   3.757   4.782  0.3954  0.3546  0.0179
  945poe    c23 7012   2.708   3.822   4.807 -0.2604 -0.8303 -0.4099
  945poe     o2 7013   2.627   3.796   4.695 -0.8049  0.3130 -0.2888
  945poe    c23 7014   2.487   3.809   4.714 -0.8937 -1.3567  0.3242
  945poe    c23 7015   2.415   3.777   4.582 -0.1144 -0.2669 -0.3796
  945poe     o2 7016   2.476   3.839   4.471  0.5363  0.4927  0.3841
  945poe    c23 7017   2.392   3.871   4.363  0.1661  0.0842  0.5477
  945poe    c23 7018   2.318   4.006   4.366 -0.2087 -0.1022 -0.1005
  945poe     o2 7019   2.223   4.012   4.470 -0.4335 -0.4937 -0.2787
  945poe    c31 7020   2.091   3.993   4.425 -0.4461 -0.1542 -0.3881
  946poe    c31 7021   1.616   1.008   1.727  0.8038 -0.0409 -0.5352
  946poe     o2 7022   1.669   0.968   1.851  0.5838  0.4334 -0.2903
  946poe    c23 7023   1.808   0.948   1.847  0.5913  0.3958  0.0702
  946poe    c23 7024   1.873   0.891   1.974 -0.7775 -0.1860  0.5236
  946poe     o2 7025   1.836   0.760   2.012 -0.5994 -0.6882 -0.9798
  946poe    c23 7026   1.915   0.659   1.955 -0.1456 -0.6726 -0.3845
  946poe    c23 7027   1.874   0.518   2.001 -0.3611 -0.2056  0.9012
  946poe     o2 7028   1.733   0.519   2.002 -0.3649  0.0145  0.4907
  946poe    c23 7029   1.676   0.398   2.046  0.0980 -0.3521  0.0902
  946poe    c23 7030   1.525   0.405   2.015  0.1129  0.4774  0.1887
  946poe     o2 7031   1.469   0.522   2.071  0.0842  0.2274  0.6794
  946poe    c31 7032   1.329   0.517   2.060  0.1319 -0.3995  0.3131
  947poe    c31 7033   3.262   0.913   0.622  0.5876  0.1403 -0.0839
  947poe     o2 7034   3.374   0.910   0.707  0.4304  0.0514  0.1224
  947poe    c23 7035   3.345   0.861   0.836 -0.1857 -0.8452 -0.3504
  947poe    c23 7036   3.451   0.752   0.857  0.3096 -0.4115 -0.5875
  947poe     o2 7037   3.577   0.812   0.834  0.2093  0.2980  0.6156
  947poe    c23 7038   3.674   0.710   0.823  0.0567  0.2428 -0.3273
  947poe    c23 7039   3.757   0.730   0.695  0.7348  0.1710  0.0952
  947poe     o2 7040   3.661   0.767   0.598  0.1137  0.1389  0.6923
  947poe    c23 7041   3.722   0.793   0.474 -0.1631  0.4228  0.6142
  947poe    c23 7042   3.613   0.852   0.383  0.0675 -0.1234 -0.0218
  947poe     o2 7043   3.541   0.941   0.465 -0.0652  0.0607 -0.3354
  947poe    c31 7044   3.492   1.055   0.398 -0.0272  0.5999  0.5332
  948poe    c31 7045   2.073   4.383   2.499 -0.0204 -0.4225  0.1668
  948poe     o2 7046   2.094   4.414   2.635  0.4370 -0.0407  0.0116
  948poe    c23 7047   2.083   4.292   2.706 -0.4811 -0.1275 -0.2776
  948poe    c23 7048   2.116   4.317   2.854 -0.5265  0.3058 -0.3381
  948poe     o2 7049   2.008   4.390   2.907 -0.5680  0.1192 -0.1631
  948poe    c23 7050   2.039   4.447   3.032 -0.8309  0.1688 -0.1200
  948poe    c23 7051   1.923   4.517   3.105 -0.4573  0.2997  0.3573
  948poe     o2 7052   1.886   4.613   3.009  0.3976  0.6438  0.3670
  948poe    c23 7053   1.799   4.707   3.069  0.1616  0.4440  0.3393
  948poe    c23 7054   1.742   4.802   2.962  0.9919  0.4045 -0.1448
  948poe     o2 7055   1.727   4.741   2.836  0.4291  0.2281  0.0064
  948poe    c31 7056   1.683   4.841   2.747 -0.3267  0.2369  0.3784
  949poe    c31 7057   1.535   1.048   3.273  0.2102 -0.5869 -0.1248
  949poe     o2 7058   1.644   1.066   3.361  0.4108 -0.0456 -0.4760
  949poe    c23 7059   1.701   1.194   3.360 -0.2328  0.2499 -0.0904
  949poe    c23 7060   1.841   1.159   3.413 -0.2048 -0.4502 -0.6217
  949poe     o2 7061   1.833   1.071   3.523 -0.0727 -0.3737 -0.5498
  949poe    c23 7062   1.956   1.062   3.590 -0.2017 -0.7927 -0.3654
  949poe    c23 7063   1.953   0.951   3.697 -0.0538 -0.5911 -0.1515
  949poe     o2 7064   1.882   0.836   3.658  0.1337 -0.6579 -0.2956
  949poe    c23 7065   1.878   0.749   3.768  0.2095  0.1750  0.3736
  949poe    c23 7066   1.796   0.620   3.747  0.3770  0.2211 -0.5832
  949poe     o2 7067   1.665   0.661   3.717  0.2827  0.7165  0.4531
  949poe    c31 7068   1.572   0.588   3.795 -0.1126 -0.1432 -0.7870
  950poe    c31 7069   5.854   3.396   6.034 -0.1909 -0.4397 -0.3433
  950poe     o2 7070   5.854   3.267   5.976  0.0841 -0.6658  0.1558
  950poe    c23 7071   5.949   3.260   5.873 -0.0788  0.2221 -0.0593
  950poe    c23 7072   5.888   3.186   5.753 -0.0183 -0.4463  0.3226
  950poe     o2 7073   5.848   3.059   5.801  0.3373 -0.6882 -0.0158
  950poe    c23 7074   5.765   3.005   5.700 -0.1440 -0.0857  0.0483
  950poe    c23 7075   5.684   2.897   5.773 -0.1033 -0.2042 -0.0831
  950poe     o2 7076   5.618   2.968   5.875  0.4785  0.0418  0.1268
  950poe    c23 7077   5.528   2.909   5.966  0.6671  0.1766  0.4000
  950poe    c23 7078   5.480   3.022   6.059  0.0093  0.0872  0.1817
  950poe     o2 7079   5.598   3.099   6.077  0.0651 -0.0050  0.2096
  950poe    c31 7080   5.577   3.186   6.185 -0.7744  0.2012 -0.1111
  951poe    c31 7081   6.399   0.457   3.146 -0.4145 -0.3714 -0.3450
  951poe     o2 7082   6.430   0.593   3.125 -0.1966 -0.3932 -0.1692
  951poe    c23 7083   6.457   0.605   2.987  0.1105 -0.3936 -0.1087
  951poe    c23 7084   6.532   0.739   2.975 -0.2420 -0.2102 -0.2843
  951poe     o2 7085   6.453   0.828   3.049  0.0228  0.1582 -0.4403
  951poe    c23 7086   6.487   0.964   3.065 -0.6341  0.3033 -0.2259
  951poe    c23 7087   6.370   1.053   3.110 -0.3208  0.7418 -0.2661
  951poe     o2 7088   6.321   1.011   3.236  0.2067 -0.0574 -0.3214
  951poe    c23 7089   6.208   1.090   3.265  0.2521 -0.0790 -0.0853
  951poe    c23 7090   6.148   1.043   3.398  0.3879  0.0391  0.0191
  951poe     o2 7091   6.099   0.910   3.401  0.0562  0.1602  0.0110
  951poe    c31 7092   6.018   0.897   3.516  0.1794  0.0342  0.0839
  952poe    c31 7093   4.138   0.186   4.657  0.3098  0.3220  0.1323
  952poe     o2 7094   4.218   0.127   4.757 -0.4275 -0.2392  0.4043
  952poe    c23 7095   4.332   0.061   4.707 -0.3495  0.2155 -0.0301
  952poe    c23 7096   4.394  -0.044   4.802  0.3420  0.6587  0.0111
  952poe     o2 7097   4.504  -0.114   4.748  0.3802  0.5819  0.1878
  952poe    c23 7098   4.581  -0.174   4.849 -0.2477 -0.4193  0.0797
  952poe    c23 7099   4.659  -0.282   4.771  0.5036  0.0565  0.1603
  952poe     o2 7100   4.576  -0.367   4.695  0.1877  0.1323  0.4164
  952poe    c23 7101   4.633  -0.474   4.622 -0.6488 -0.4764  0.6466
  952poe    c23 7102   4.545  -0.533   4.510 -0.5118  0.0955  0.2361
  952poe     o2 7103   4.521  -0.442   4.405 -0.3738  0.0213  0.1394
  952poe    c31 7104   4.432  -0.498   4.310 -0.5737 -0.3996  0.5681
  953poe    c31 7105   1.122   1.428   6.787  0.3619  0.6967  0.2736
  953poe     o2 7106   1.201   1.345   6.704 -0.7490 -0.3800  0.2501
  953poe    c23 7107   1.193   1.212   6.750 -0.9991 -0.3789  0.2110
  953poe    c23 7108   1.255   1.120   6.643  0.2301  0.5642  0.0791
  953poe     o2 7109   1.188   1.151   6.522 -0.4883  0.0791  0.3404
  953poe    c23 7110   1.240   1.070   6.419  0.4629  0.3591  0.5825
  953poe    c23 7111   1.171   1.099   6.285  0.0558 -0.1776  0.6724
  953poe     o2 7112   1.174   1.233   6.242  0.5782 -0.4515 -0.1761
  953poe    c23 7113   1.100   1.250   6.124  0.1518  0.1803  0.1780
  953poe    c23 7114   1.065   1.399   6.102  0.5819  0.2940  0.2674
  953poe     o2 7115   0.981   1.445   6.205  0.5952 -0.0598  0.4378
  953poe    c31 7116   0.945   1.572   6.157  0.4410 -0.2285  0.1075
  954poe    c31 7117   1.439   5.018   5.097 -0.6252 -0.6227 -0.3662
  954poe     o2 7118   1.330   5.037   5.184 -0.5275 -0.2822 -0.3165
  954poe    c23 7119   1.259   4.920   5.217  0.0355 -0.4996  0.1539
  954poe    c23 7120   1.159   4.956   5.328 -0.3130 -0.1397 -0.2706
  954poe     o2 7121   1.104   5.077   5.282  0.5553  0.4302  0.1639
  954poe    c23 7122   1.016   5.140   5.372  0.1912  0.2201 -0.0462
  954poe    c23 7123   1.045   5.289   5.350 -0.2135  0.3402  0.2202
  954poe     o2 7124   1.184   5.299   5.331 -0.2377  0.3575  0.0551
  954poe    c23 7125   1.235   5.424   5.372 -0.4208  0.2645  0.5768
  954poe    c23 7126   1.383   5.443   5.333 -0.5589  0.3851  0.0954
  954poe     o2 7127   1.398   5.356   5.224  0.6736  0.3482  0.2838
  954poe    c31 7128   1.472   5.395   5.110  0.6813 -0.0186  0.1587
  955poe    c31 7129   5.960   0.992   5.752 -0.0224 -0.0647  0.5245
  955poe     o2 7130   6.008   1.119   5.715 -0.2767 -0.0747  0.1578
  955poe    c23 7131   6.052   1.122   5.581  0.2550  0.1555  0.3330
  955poe    c23 7132   6.111   1.262   5.559  0.3768  0.0750  0.1458
  955poe     o2 7133   6.013   1.349   5.611  0.2349 -0.1198  0.2051
  955poe    c23 7134   5.941   1.403   5.502  0.4593 -0.2074  0.0107
  955poe    c23 7135   5.802   1.431   5.563  0.2783  0.0442 -0.5168
  955poe     o2 7136   5.808   1.510   5.679 -0.1354 -0.3469 -0.2271
  955poe    c23 7137   5.703   1.506   5.773  0.1827  0.2068  0.1562
  955poe    c23 7138   5.581   1.596   5.742  0.4469  0.2393 -0.8167
  955poe     o2 7139   5.614   1.732   5.758  0.4921  0.1087  0.3038
  955poe    c31 7140   5.502   1.813   5.733  0.5483 -0.0197 -0.3894
  956poe    c31 7141   4.789   6.576   5.690  0.3937  0.3743  0.0622
  956poe     o2 7142   4.897   6.651   5.638  0.3803  0.3609  0.0159
  956poe    c23 7143   4.854   6.721   5.523 -0.4381 -0.0666  0.0531
  956poe    c23 7144   4.973   6.777   5.444 -0.2785 -0.1995  0.1991
  956poe     o2 7145   5.054   6.835   5.544  0.1359  0.0325 -0.2656
  956poe    c23 7146   5.150   6.925   5.492  0.1916  0.3035  0.2986
  956poe    c23 7147   5.231   6.969   5.615  0.0798  0.6592  0.2453
  956poe     o2 7148   5.252   6.872   5.715 -0.0579  0.7113  0.3247
  956poe    c23 7149   5.345   6.920   5.810  0.6608  0.4030 -0.2088
  956poe    c23 7150   5.346   6.848   5.946 -0.2475  0.4050 -0.1970
  956poe     o2 7151   5.366   6.710   5.927  0.3335  0.4612  0.0042
  956poe    c31 7152   5.419   6.637   6.036 -0.2977 -0.0324 -0.0115
  957poe    c31 7153   2.180   0.971   4.641  0.6120  0.1373  0.3597
  957poe     o2 7154   2.074   0.892   4.691  0.4196  0.2986  0.2045
  957poe    c23 7155   2.060   0.889   4.831  0.1991 -0.5243  0.1708
  957poe    c23 7156   2.097   0.761   4.907 -0.1083 -0.2054  0.8672
  957poe     o2 7157   2.004   0.659   4.875 -0.1285 -0.0271  0.3485
  957poe    c23 7158   2.032   0.546   4.954  0.2442  0.0933  0.3941
  957poe    c23 7159   1.924   0.444   4.911  0.3371  0.2166 -0.1437
  957poe     o2 7160   1.900   0.456   4.773  0.1753  0.4377 -0.0963
  957poe    c23 7161   1.813   0.351   4.738  0.0322  0.6608 -0.4151
  957poe    c23 7162   1.784   0.355   4.587  0.6059  0.4086 -0.5321
  957poe     o2 7163   1.694   0.457   4.551 -0.1015 -0.0226 -0.0162
  957poe    c31 7164   1.664   0.457   4.413 -0.6281  0.1115  0.0968
  958poe    c31 7165   0.172   2.175   2.150  0.2341 -0.2012 -0.2944
  958poe     o2 7166   0.135   2.068   2.066 -0.1748 -0.1129 -0.2244
  958poe    c23 7167   0.122   2.110   1.932  0.4003  0.3832 -0.1273
  958poe    c23 7168  -0.003   2.049   1.867  0.6767  0.1404 -0.4360
  958poe     o2 7169  -0.015   1.913   1.899  0.0626  0.3333  0.1796
  958poe    c23 7170  -0.113   1.840   1.829  0.4466 -0.3230  0.3071
  958poe    c23 7171  -0.089   1.698   1.882 -0.4104 -0.5628  0.0807
  958poe     o2 7172  -0.049   1.696   2.017  0.2678 -0.1277 -0.1060
  958poe    c23 7173  -0.025   1.561   2.048  0.0145 -0.1931 -0.1928
  958poe    c23 7174  -0.022   1.567   2.201 -0.7119 -0.2229 -0.1737
  958poe     o2 7175   0.081   1.658   2.232 -0.3366 -0.8258  0.3637
  958poe    c31 7176   0.113   1.644   2.369  0.6706 -0.5909  0.1625
  959poe    c31 7177   4.320   3.114   5.141  0.1737 -0.5985  0.0164
  959poe     o2 7178   4.305   3.007   5.232 -0.2209 -0.3852  0.2029
  959poe    c23 7179   4.311   3.057   5.363 -0.7723  0.1921  0.0134
  959poe    c23 7180   4.230   2.956   5.447 -0.3609 -0.6388 -0.5807
  959poe     o2 7181   4.232   2.995   5.582  0.6961  0.2514 -0.8416
  959poe    c23 7182   4.140   2.928   5.666  0.9727  0.7579 -0.1232
  959poe    c23 7183   4.155   2.990   5.806  0.4210  0.1670  0.1980
  959poe     o2 7184   4.112   3.124   5.800  0.5790  0.2129  0.1020
  959poe    c23 7185   4.087   3.166   5.932 -0.3564 -0.0161  0.0004
  959poe    c23 7186   4.098   3.319   5.934 -0.7182  0.0156 -0.3894
  959poe     o2 7187   4.026   3.373   5.825  0.1229 -0.2352 -1.0778
  959poe    c31 7188   4.023   3.514   5.823 -0.2631 -0.2257 -0.2097
  960poe    c31 7189   2.077   5.963   0.013 -0.6369 -0.1863  0.1156
  960poe     o2 7190   2.096   5.867   0.116  0.3435 -0.1664 -0.0362
  960poe    c23 7191   2.171   5.756   0.074  0.6137  0.0260 -0.0703
  960poe    c23 7192   2.130   5.631   0.154  0.1744  0.4022  0.2915
  960poe     o2 7193   2.215   5.623   0.267  0.4218  0.0644  0.0809
  960poe    c23 7194   2.233   5.489   0.307 -0.0622 -0.1701 -0.4530
  960poe    c23 7195   2.342   5.487   0.417 -0.0328 -0.2364 -0.4833
  960poe     o2 7196   2.297   5.575   0.518  0.3231 -0.8260  0.1930
  960poe    c23 7197   2.396   5.606   0.614  0.3625  0.1309 -0.1392
  960poe    c23 7198   2.336   5.724   0.692  0.2095 -0.2849  0.3845
  960poe     o2 7199   2.320   5.817   0.587 -0.1153 -0.0402  0.6507
  960poe    c31 7200   2.316   5.949   0.637  0.3017  0.3440 -0.3098
  961poe    c31 7201   4.976   5.532   1.699  0.4163  0.2155 -0.4689
  961poe     o2 7202   4.890   5.448   1.773  0.2714  0.4397 -0.3798
  961poe    c23 7203   4.924   5.313   1.751  0.2287  0.2914  0.4454
  961poe    c23 7204   4.822   5.222   1.822 -0.1647  0.1442 -0.3065
  961poe     o2 7205   4.695   5.214   1.760 -0.1275  0.1833 -0.3891
  961poe    c23 7206   4.600   5.155   1.847 -0.1437  0.0055 -0.5269
  961poe    c23 7207   4.455   5.186   1.806 -0.2843  0.3175  0.1858
  961poe     o2 7208   4.416   5.311   1.858 -0.2178  0.3076  0.2585
  961poe    c23 7209   4.292   5.359   1.811 -0.4008 -0.4585 -0.0575
  961poe    c23 7210   4.268   5.497   1.876  0.1572 -0.5287  0.3079
  961poe     o2 7211   4.346   5.482   1.992  0.5630 -0.0456  0.0989
  961poe    c31 7212   4.381   5.612   2.034  1.1617 -0.0339 -0.4110
  962poe    c31 7213   4.045   1.034   3.489 -0.6891  0.5686  0.0416
  962poe     o2 7214   4.030   0.894   3.491 -0.0262  0.5024  0.4825
  962poe    c23 7215   4.061   0.844   3.363 -0.5804  0.2859  0.4305
  962poe    c23 7216   4.111   0.698   3.366 -0.2162  0.4096  0.4029
  962poe     o2 7217   4.026   0.642   3.464  0.1090  0.3890  0.6766
  962poe    c23 7218   4.040   0.502   3.457 -0.3424  0.3523  0.4952
  962poe    c23 7219   3.934   0.440   3.550 -0.3252 -0.2948  0.0864
  962poe     o2 7220   3.919   0.512   3.669 -0.3141  0.1393 -0.1733
  962poe    c23 7221   3.785   0.512   3.715 -0.1005 -0.1171  0.4682
  962poe    c23 7222   3.766   0.649   3.784 -0.7005  0.2072 -0.3254
  962poe     o2 7223   3.813   0.749   3.697  0.0091  0.1149 -0.0554
  962poe    c31 7224   3.752   0.875   3.719  0.1995  0.2135 -0.0880
  963poe    c31 7225   0.916   2.363   2.849 -0.2625 -0.6504  0.2137
  963poe     o2 7226   0.817   2.370   2.749 -0.4206 -0.2191  0.3966
  963poe    c23 7227   0.816   2.492   2.678  0.0499 -0.5047 -0.1036
  963poe    c23 7228   0.681   2.528   2.615  0.1768  0.4270  0.1507
  963poe     o2 7229   0.639   2.414   2.543  0.2991  0.2901  0.2974
  963poe    c23 7230   0.510   2.422   2.487  0.1852 -0.6002  0.4164
  963poe    c23 7231   0.473   2.277   2.450 -0.1217 -0.4881  0.2828
  963poe     o2 7232   0.516   2.195   2.556  0.1438 -0.2508  0.3595
  963poe    c23 7233   0.490   2.062   2.518  0.0131 -0.0078 -0.4203
  963poe    c23 7234   0.526   1.960   2.628 -0.0015 -0.2011 -0.5950
  963poe     o2 7235   0.468   1.978   2.755  0.3368 -0.3004 -0.4240
  963poe    c31 7236   0.536   1.915   2.861 -0.1018 -0.8038 -0.4383
  964poe    c31 7237   5.028   0.552   4.326  0.2156  0.1778 -0.3241
  964poe     o2 7238   4.936   0.658   4.336  0.2547  0.1897 -0.0884
  964poe    c23 7239   4.949   0.747   4.228  0.2357  0.1014 -0.1640
  964poe    c23 7240   4.815   0.814   4.193 -0.2746 -0.4671  0.6639
  964poe     o2 7241   4.710   0.725   4.163 -0.1282 -0.3924 -0.0800
  964poe    c23 7242   4.597   0.808   4.174  0.2512  0.1519 -0.2208
  964poe    c23 7243   4.466   0.732   4.146 -0.1454  0.7469 -0.0042
  964poe     o2 7244   4.488   0.611   4.215 -0.6830  0.8294  0.3183
  964poe    c23 7245   4.386   0.518   4.186  0.2300 -0.0445 -0.1421
  964poe    c23 7246   4.429   0.377   4.233  0.1736 -0.0633 -0.1465
  964poe     o2 7247   4.567   0.359   4.214  0.1506 -0.1093 -0.2716
  964poe    c31 7248   4.614   0.239   4.271  0.2883  0.0061 -0.1408
  965poe    c31 7249   6.753   6.324   6.177 -0.1185  0.1420  0.0134
  965poe     o2 7250   6.773   6.187   6.155 -0.0010  0.2017 -0.2498
  965poe    c23 7251   6.905   6.159   6.196 -0.0490  0.2238 -0.0812
  965poe    c23 7252   6.903   6.006   6.181 -0.2482  0.2256 -0.0841
  965poe     o2 7253   6.847   5.958   6.061 -0.2324  0.3478 -0.1399
  965poe    c23 7254   6.821   5.820   6.072  0.0993  0.3460  0.6590
  965poe    c23 7255   6.691   5.800   5.992  0.4267 -0.1209  0.2397
  965poe     o2 7256   6.595   5.896   6.030 -0.0177 -0.6052  0.3414
  965poe    c23 7257   6.468   5.898   5.967  0.3989  0.4772 -0.4949
  965poe    c23 7258   6.404   6.014   6.044  0.4772  0.0625  0.2057
  965poe     o2 7259   6.479   6.133   6.035 -0.0655  0.3663 -0.3077
  965poe    c31 7260   6.433   6.219   5.932 -0.0909  0.6314 -0.0767
  966poe    c31 7261   4.408   0.484   5.971  0.5672 -0.1698  0.3569
  966poe     o2 7262   4.414   0.617   5.924  0.2494 -0.3377 -0.1703
  966poe    c23 7263   4.435   0.618   5.785  0.9172 -0.0595 -0.0670
  966poe    c23 7264   4.451   0.767   5.750  0.8676  0.0707  0.4583
  966poe     o2 7265   4.356   0.836   5.828  0.4948  0.3853 -0.2653
  966poe    c23 7266   4.345   0.976   5.817 -0.2530  0.3232 -0.3879
  966poe    c23 7267   4.244   1.026   5.922 -0.3469 -0.5717 -0.0489
  966poe     o2 7268   4.255   0.950   6.040 -0.4180 -0.4675  0.0246
  966poe    c23 7269   4.166   0.998   6.138  0.4597  0.4490  0.3963
  966poe    c23 7270   4.155   0.900   6.257 -0.3059  0.0256 -0.0141
  966poe     o2 7271   4.084   0.782   6.229  0.5568 -0.4613 -0.1914
  966poe    c31 7272   4.069   0.710   6.349 -0.6367  0.3190  0.1402
  967poe    c31 7273   2.521   4.766   2.539 -0.4010  0.1577 -0.3752
  967poe     o2 7274   2.449   4.867   2.607  0.1065  0.0790  0.2863
  967poe    c23 7275   2.310   4.845   2.597  0.2127 -0.4360 -0.1537
  967poe    c23 7276   2.251   4.967   2.670 -0.1572 -0.5639 -0.2387
  967poe     o2 7277   2.249   5.088   2.597 -0.2517 -0.3935  0.0429
  967poe    c23 7278   2.203   5.185   2.688 -0.2152 -0.2194 -0.1245
  967poe    c23 7279   2.222   5.319   2.613 -0.1032 -0.0979  0.1208
  967poe     o2 7280   2.347   5.331   2.550 -0.1249  0.0304  0.1020
  967poe    c23 7281   2.361   5.458   2.491  0.4272  0.1719  0.5373
  967poe    c23 7282   2.511   5.468   2.458  0.2464  0.1764 -0.2901
  967poe     o2 7283   2.553   5.341   2.415 -0.0742 -0.0778  0.1388
  967poe    c31 7284   2.694   5.336   2.402 -0.0695  0.0299  0.1526
  968poe    c31 7285   4.825   2.602   2.576  0.1627  0.0186 -0.0897
  968poe     o2 7286   4.902   2.573   2.461  0.1818  0.1025 -0.0982
  968poe    c23 7287   5.002   2.478   2.487 -0.1124 -0.1919 -0.0328
  968poe    c23 7288   5.123   2.504   2.394 -0.2471 -0.4772 -0.2903
  968poe     o2 7289   5.081   2.530   2.262 -0.1942  0.0415 -0.2054
  968poe    c23 7290   5.186   2.553   2.172  0.5942 -0.6268  0.5319
  968poe    c23 7291   5.255   2.690   2.192 -0.1221 -0.2237  0.2647
  968poe     o2 7292   5.145   2.778   2.186  0.2979  0.3140  0.4369
  968poe    c23 7293   5.167   2.906   2.240  0.5641  0.3808  0.1723
  968poe    c23 7294   5.028   2.954   2.284  0.1039 -0.3212 -0.5037
  968poe     o2 7295   4.972   2.858   2.370 -0.0359  0.2523  0.0570
  968poe    c31 7296   4.892   2.928   2.463 -0.0687  0.2339  0.0429
  969poe    c31 7297   6.249   3.817   0.827 -0.0215  0.1205  0.1141
  969poe     o2 7298   6.278   3.680   0.818  0.5715  0.2503  0.0492
  969poe    c23 7299   6.209   3.614   0.714 -0.7696 -0.0045  1.0833
  969poe    c23 7300   6.230   3.461   0.709  0.2721  0.1549  0.2870
  969poe     o2 7301   6.215   3.411   0.840  0.1025  0.1363  0.2601
  969poe    c23 7302   6.242   3.272   0.844 -0.2845  0.0509 -0.0354
  969poe    c23 7303   6.213   3.219   0.986 -0.6684  0.7930  0.1709
  969poe     o2 7304   6.292   3.308   1.060 -0.1494  0.4320  0.0555
  969poe    c23 7305   6.278   3.280   1.198 -0.4322  0.1313 -0.0337
  969poe    c23 7306   6.354   3.389   1.276  0.2531  0.2917 -0.9038
  969poe     o2 7307   6.298   3.515   1.247 -0.0250  0.2754 -0.4507
  969poe    c31 7308   6.324   3.600   1.356  0.2232 -0.3578 -0.0064
  970poe    c31 7309   3.422   6.192   1.128 -0.2028  0.4108 -0.4993
  970poe     o2 7310   3.319   6.193   1.031 -0.3407 -0.0646 -0.3618
  970poe    c23 7311   3.312   6.326   0.985 -0.5477  0.2062  0.4347
  970poe    c23 7312   3.186   6.342   0.897 -0.1463  0.1813 -0.1514
  970poe     o2 7313   3.158   6.217   0.839 -0.2960  0.5969 -0.9838
  970poe    c23 7314   3.050   6.224   0.749 -0.7332  0.3272 -0.4820
  970poe    c23 7315   3.000   6.079   0.736  0.1582 -0.0133 -0.1622
  970poe     o2 7316   3.018   6.045   0.872 -0.3681  0.2163 -0.0316
  970poe    c23 7317   3.017   5.906   0.896 -0.0820  0.1959 -0.1328
  970poe    c23 7318   3.060   5.861   1.037 -0.3334  0.2070 -0.0524
  970poe     o2 7319   3.178   5.931   1.070 -0.1418 -0.1668  0.0640
  970poe    c31 7320   3.213   5.890   1.201  0.0551 -0.1388  0.0207
  971poe    c31 7321   5.413   3.774   5.557  0.2538 -0.1983  0.3250
  971poe     o2 7322   5.345   3.722   5.669  0.4099 -0.2379  0.4027
  971poe    c23 7323   5.218   3.780   5.643  0.2352 -0.5432  0.5748
  971poe    c23 7324   5.129   3.726   5.756 -0.0027 -0.8081  0.2622
  971poe     o2 7325   5.214   3.742   5.867  0.0164  0.4380  0.0859
  971poe    c23 7326   5.183   3.651   5.971  0.1455 -0.1013 -0.3428
  971poe    c23 7327   5.296   3.679   6.072 -0.3673 -0.2760  0.2798
  971poe     o2 7328   5.416   3.674   5.999 -0.2518  0.0506  0.4452
  971poe    c23 7329   5.522   3.737   6.068 -0.0596  0.5939 -0.3322
  971poe    c23 7330   5.646   3.743   5.978  0.2259  0.2584  0.0373
  971poe     o2 7331   5.594   3.773   5.851  0.1886  0.1028  0.0162
  971poe    c31 7332   5.706   3.793   5.767  0.4407 -0.3369  0.2428
  972poe    c31 7333   6.457   5.112   5.163  0.3228 -0.4040  0.1013
  972poe     o2 7334   6.437   5.132   5.301  0.5301  0.1026  0.0627
  972poe    c23 7335   6.360   5.021   5.344  0.0140  0.3273 -0.2677
  972poe    c23 7336   6.308   5.028   5.488 -0.0163  0.6805 -0.2954
  972poe     o2 7337   6.409   5.070   5.577 -0.0068 -0.1156  0.0743
  972poe    c23 7338   6.383   5.078   5.716  0.0761  0.5095  0.0557
  972poe    c23 7339   6.517   5.093   5.790  0.2271 -0.1847 -0.0701
  972poe     o2 7340   6.566   5.212   5.733  0.5126 -0.3090 -0.0881
  972poe    c23 7341   6.686   5.236   5.803  0.3774 -0.1516  0.0902
  972poe    c23 7342   6.749   5.361   5.738  0.0903  0.0241  0.1462
  972poe     o2 7343   6.770   5.317   5.605 -0.1310  0.3077  0.0162
  972poe    c31 7344   6.793   5.423   5.514  0.1669  0.1472 -0.0960
  973poe    c31 7345   0.958   3.135   5.087 -0.0637  0.8519 -0.0047
  973poe     o2 7346   0.979   3.116   4.949 -0.1879  0.2789  0.0557
  973poe    c23 7347   1.105   3.060   4.922  0.0105  0.7137  0.0740
  973poe    c23 7348   1.129   3.083   4.772  0.1480  0.2148  0.0160
  973poe     o2 7349   1.013   3.040   4.705  0.4132 -0.1728 -0.1969
  973poe    c23 7350   1.025   3.060   4.566  0.0710  0.0561 -0.1954
  973poe    c23 7351   0.895   3.012   4.500  0.0048 -0.0041 -0.0204
  973poe     o2 7352   0.789   3.074   4.569 -0.2539  0.1116 -0.5162
  973poe    c23 7353   0.665   3.019   4.530 -0.2946 -0.3807  0.2938
  973poe    c23 7354   0.539   3.086   4.587 -0.0308 -0.0755  0.5240
  973poe     o2 7355   0.536   3.065   4.727 -0.6481  0.4149  0.5898
  973poe    c31 7356   0.405   3.033   4.767 -0.7787  0.0289 -0.1206
  974poe    c31 7357   4.035   1.409   4.425 -0.0952  0.0510  0.3259
  974poe     o2 7358   4.046   1.518   4.335  0.1086  0.1463  0.4644
  974poe    c23 7359   3.960   1.503   4.224 -0.0322  0.4918  0.5267
  974poe    c23 7360   3.974   1.619   4.123  0.5222 -0.2068 -0.2127
  974poe     o2 7361   4.110   1.621   4.084  0.4105  0.2074 -0.5881
  974poe    c23 7362   4.123   1.664   3.951  0.0119  0.1056 -0.6626
  974poe    c23 7363   4.271   1.683   3.913  0.2945 -0.5941  0.0680
  974poe     o2 7364   4.330   1.741   4.027  0.2423  0.2632 -0.3324
  974poe    c23 7365   4.466   1.758   3.995  0.2876 -0.3170 -0.4557
  974poe    c23 7366   4.561   1.756   4.116 -0.7798  0.6604  0.4170
  974poe     o2 7367   4.523   1.658   4.210 -0.3530  0.4512  0.3726
  974poe    c31 7368   4.638   1.622   4.283  0.1767  0.0461 -0.6369
  975poe    c31 7369   2.136   2.482   5.930 -0.7117 -0.7397  0.0814
  975poe     o2 7370   2.209   2.368   5.893  0.1684 -0.2609  0.3296
  975poe    c23 7371   2.244   2.285   6.002  0.0632  0.2394  0.7457
  975poe    c23 7372   2.358   2.193   5.957 -0.5754 -0.1841 -0.0384
  975poe     o2 7373   2.340   2.092   5.860 -0.0566  0.3102 -0.6571
  975poe    c23 7374   2.450   2.006   5.872 -0.0966  0.3742  0.2438
  975poe    c23 7375   2.439   1.906   5.754  0.0753  0.4368  0.1738
  975poe     o2 7376   2.304   1.887   5.720  0.1838 -0.0590  0.0104
  975poe    c23 7377   2.291   1.837   5.589  0.0320 -0.7470  0.2871
  975poe    c23 7378   2.140   1.812   5.571  0.0390 -0.3019 -0.4145
  975poe     o2 7379   2.077   1.932   5.610 -0.2795 -0.2834 -0.9830
  975poe    c31 7380   1.942   1.938   5.570 -0.5571 -0.1805 -0.0644
  976poe    c31 7381   0.298   1.571   1.350  0.1150  0.3171  0.5681
  976poe     o2 7382   0.306   1.457   1.433 -0.1277 -0.2633 -0.1961
  976poe    c23 7383   0.189   1.378   1.441 -0.3319  0.0436 -0.1138
  976poe    c23 7384   0.177   1.349   1.591 -0.0736 -0.4704 -0.1905
  976poe     o2 7385   0.301   1.316   1.651 -0.3236 -0.3594  0.4001
  976poe    c23 7386   0.297   1.300   1.791 -0.1630 -0.4073  0.3990
  976poe    c23 7387   0.427   1.248   1.855  0.0890  0.0752  0.2913
  976poe     o2 7388   0.527   1.330   1.801 -0.0582 -0.2607 -0.5046
  976poe    c23 7389   0.644   1.316   1.878 -0.6997  0.8183  0.7000
  976poe    c23 7390   0.743   1.421   1.823 -0.6310  0.4337  0.0865
  976poe     o2 7391   0.766   1.393   1.687 -0.3140  0.4746  0.1329
  976poe    c31 7392   0.863   1.486   1.644  0.8357 -0.8150 -0.1399
  977poe    c31 7393   1.323   0.588   1.114  0.1897 -0.9737  0.4002
  977poe     o2 7394   1.457   0.567   1.076  0.2173 -0.2160  0.0397
  977poe    c23 7395   1.488   0.429   1.085  0.0773 -0.2374  0.2013
  977poe    c23 7396   1.589   0.373   0.984 -0.3870  0.0621 -0.4352
  977poe     o2 7397   1.715   0.438   0.979 -0.1383 -0.3786 -0.0247
  977poe    c23 7398   1.793   0.370   0.883  0.0138 -0.3028  0.0453
  977poe    c23 7399   1.941   0.390   0.918 -0.1395  0.2450  0.3888
  977poe     o2 7400   1.954   0.527   0.952 -0.3881  0.4429 -0.3030
  977poe    c23 7401   2.089   0.556   0.981 -0.2854 -0.2536 -0.0521
  977poe    c23 7402   2.086   0.697   1.042  0.3410 -0.3344  0.1735
  977poe     o2 7403   1.967   0.708   1.118  0.0438  0.4015 -0.3865
  977poe    c31 7404   1.974   0.812   1.213  0.3975  0.1371 -0.1184
  978poe    c31 7405   4.570   5.739   6.526 -0.0489 -0.1392  0.0395
  978poe     o2 7406   4.499   5.648   6.608  0.1945 -0.0043  0.4053
  978poe    c23 7407   4.604   5.584   6.677  0.4546 -0.1413 -0.1127
  978poe    c23 7408   4.534   5.474   6.758  0.0840 -0.1890 -0.4912
  978poe     o2 7409   4.414   5.529   6.807  0.2891 -0.1216 -0.0597
  978poe    c23 7410   4.329   5.424   6.849 -0.0474  0.0841 -0.2192
  978poe    c23 7411   4.204   5.486   6.913 -0.1416  0.0076 -0.3301
  978poe     o2 7412   4.163   5.577   6.813 -0.1218  0.2260 -0.1404
  978poe    c23 7413   4.027   5.610   6.833 -0.2046 -0.1316 -0.1106
  978poe    c23 7414   3.961   5.687   6.717  0.2889  0.3113 -0.1006
  978poe     o2 7415   4.029   5.809   6.700  0.4978  0.2046 -0.0324
  978poe    c31 7416   3.971   5.892   6.602 -0.0581 -0.3058 -0.1363
  979poe    c31 7417   1.830   1.729   6.483 -0.6581 -0.2268 -0.1699
  979poe     o2 7418   1.968   1.726   6.456 -0.7381 -0.5445 -0.5567
  979poe    c23 7419   2.022   1.600   6.424 -0.0394 -0.4922  0.3691
  979poe    c23 7420   2.158   1.625   6.355  0.3267 -0.9079  0.9327
  979poe     o2 7421   2.221   1.716   6.442  0.2660  0.1584 -0.1136
  979poe    c23 7422   2.351   1.764   6.413  0.4346 -0.1411  0.1382
  979poe    c23 7423   2.402   1.833   6.540  0.1272 -0.4969  0.4558
  979poe     o2 7424   2.312   1.922   6.602  0.1143 -0.2983  0.1539
  979poe    c23 7425   2.362   1.966   6.727  0.1103  0.6015 -0.1503
  979poe    c23 7426   2.275   2.071   6.798  0.0402  0.2145  0.3416
  979poe     o2 7427   2.155   2.019   6.853 -0.1900  0.3912  0.0100
  979poe    c31 7428   2.102   2.086   6.965 -0.5973 -0.0288  0.0676
  980poe    c31 7429   3.156   1.610   1.882  0.0165 -0.4173 -0.5176
  980poe     o2 7430   3.132   1.611   1.743 -0.1239 -0.3122 -0.4926
  980poe    c23 7431   3.240   1.564   1.664  0.2477  0.3218 -0.3685
  980poe    c23 7432   3.189   1.491   1.539 -0.0972  0.2345 -0.1794
  980poe     o2 7433   3.092   1.552   1.456 -0.1264  0.0743 -0.2635
  980poe    c23 7434   3.149   1.644   1.366  0.2732 -0.2178 -0.3109
  980poe    c23 7435   3.052   1.687   1.254 -0.1549 -0.5281 -0.0596
  980poe     o2 7436   2.938   1.723   1.328  0.2488  0.5235  0.0628
  980poe    c23 7437   2.834   1.763   1.241  0.0275  0.4439  0.2896
  980poe    c23 7438   2.714   1.785   1.335 -0.1279  0.2603  0.1336
  980poe     o2 7439   2.716   1.687   1.436 -0.3213 -0.0591 -0.1680
  980poe    c31 7440   2.597   1.669   1.511 -0.0566 -0.1400  0.2335
  981poe    c31 7441   5.634   1.186   3.569  0.1217  0.2618  0.1581
  981poe     o2 7442   5.644   1.306   3.641 -0.6328 -0.0160  0.7429
  981poe    c23 7443   5.668   1.279   3.777 -0.2733  0.5047  0.7846
  981poe    c23 7444   5.604   1.389   3.863 -0.5398  0.3196  0.8228
  981poe     o2 7445   5.627   1.517   3.808  0.2483 -0.1938 -0.0662
  981poe    c23 7446   5.541   1.615   3.862  0.6270 -0.2913  0.7302
  981poe    c23 7447   5.561   1.730   3.762  0.2186 -0.6169  0.2705
  981poe     o2 7448   5.533   1.663   3.641 -0.1462 -0.2000  0.1203
  981poe    c23 7449   5.528   1.747   3.528  0.0734 -0.2048  0.1077
  981poe    c23 7450   5.517   1.645   3.413 -0.0509 -0.1734  0.0922
  981poe     o2 7451   5.612   1.547   3.446  0.1141 -0.0182  0.0843
  981poe    c31 7452   5.621   1.480   3.322  0.0854 -0.2942  0.2296
  982poe    c31 7453   5.840   4.931   0.310  0.0555 -0.3591 -0.0976
  982poe     o2 7454   5.825   4.803   0.369 -0.1799 -0.0920  0.4267
  982poe    c23 7455   5.945   4.764   0.433  0.0034  0.0462  0.1730
  982poe    c23 7456   5.939   4.612   0.462 -0.3076 -0.0273 -0.2653
  982poe     o2 7457   5.802   4.593   0.490 -0.3244  0.1578 -0.2126
  982poe    c23 7458   5.787   4.453   0.506 -0.4655  0.3013  0.9191
  982poe    c23 7459   5.636   4.442   0.535 -0.6501 -0.4893 -0.2815
  982poe     o2 7460   5.560   4.523   0.449 -0.2825  0.3078  0.1296
  982poe    c23 7461   5.550   4.491   0.312  0.1572 -0.0778  0.1882
  982poe    c23 7462   5.466   4.607   0.256 -0.3139 -0.3064  0.4169
  982poe     o2 7463   5.545   4.721   0.280  0.1210 -0.4523 -0.2898
  982poe    c31 7464   5.491   4.850   0.260  0.4346 -0.3103 -0.2288
  983poe    c31 7465   4.023   1.579   3.519 -0.1818  0.0114 -0.5886
  983poe     o2 7466   4.037   1.514   3.395  0.5975 -0.2331 -0.3769
  983poe    c23 7467   3.946   1.408   3.377 -0.1608  0.4063 -0.3483
  983poe    c23 7468   3.936   1.359   3.231  0.3163  0.9089 -0.5542
  983poe     o2 7469   4.054   1.306   3.175  0.4117 -0.4037  0.8202
  983poe    c23 7470   4.044   1.307   3.035  0.4757 -0.0067  0.8155
  983poe    c23 7471   4.171   1.290   2.949  0.0419  0.0372  0.1577
  983poe     o2 7472   4.260   1.400   2.949 -0.0362  0.1007  0.2924
  983poe    c23 7473   4.359   1.397   2.849 -0.6302  0.6013 -0.3249
  983poe    c23 7474   4.447   1.523   2.848  0.3745 -0.0931 -0.7140
  983poe     o2 7475   4.561   1.526   2.932 -0.1624  0.0681  0.0158
  983poe    c31 7476   4.660   1.432   2.899  0.0524  0.3723 -0.2157
  984poe    c31 7477   1.336   1.515   0.303  0.1254 -0.6494 -0.1259
  984poe     o2 7478   1.455   1.528   0.379  0.0042 -0.3820  0.0178
  984poe    c23 7479   1.450   1.659   0.432  0.1363 -0.1391 -0.5627
  984poe    c23 7480   1.583   1.691   0.502 -0.3610  0.2303  0.2182
  984poe     o2 7481   1.647   1.580   0.560  0.2157  0.5664  0.2380
  984poe    c23 7482   1.764   1.628   0.621  0.1973  0.3829  0.4183
  984poe    c23 7483   1.874   1.521   0.603 -0.0942  0.1895 -0.2488
  984poe     o2 7484   1.847   1.407   0.525  0.4223 -0.0518 -0.0795
  984poe    c23 7485   1.961   1.324   0.522  0.2979 -0.2129 -0.3323
  984poe    c23 7486   1.934   1.187   0.456 -0.0181  0.1272 -0.9189
  984poe     o2 7487   1.856   1.087   0.518  0.3419  0.4204  0.0319
  984poe    c31 7488   1.845   0.964   0.450  0.3395  0.4548 -0.0302
  985poe    c31 7489   4.414   1.030   1.807  0.2803 -0.4297 -0.1308
  985poe     o2 7490   4.533   1.069   1.872 -0.0279  0.5436 -0.1322
  985poe    c23 7491   4.509   1.078   2.010 -0.8208  0.4103 -0.2592
  985poe    c23 7492   4.633   1.143   2.074 -0.5079 -0.1414 -0.3093
  985poe     o2 7493   4.668   1.236   1.974  0.1767  0.1000  0.1495
  985poe    c23 7494   4.788   1.304   2.006  0.1328  0.3026 -0.1078
  985poe    c23 7495   4.846   1.358   1.875  0.1135  0.1955 -0.1603
  985poe     o2 7496   4.840   1.244   1.792  0.5139 -0.4721  0.7065
  985poe    c23 7497   4.877   1.262   1.657 -0.1199 -0.1246  0.5721
  985poe    c23 7498   4.853   1.124   1.593 -0.1049  0.1425 -0.0161
  985poe     o2 7499   4.729   1.083   1.647  0.0603 -0.1036  0.1844
  985poe    c31 7500   4.694   0.962   1.584  0.2719  0.0885 -0.3162
  986poe    c31 7501   4.729   5.451   6.212  0.0468 -0.2832 -0.0824
  986poe     o2 7502   4.831   5.533   6.264  0.0416 -0.4085  0.1247
  986poe    c23 7503   4.910   5.455   6.351 -0.1303 -0.1493  0.5154
  986poe    c23 7504   5.038   5.535   6.384 -0.1474  0.0092  0.1993
  986poe     o2 7505   5.103   5.577   6.267  0.0523 -0.1213  0.2637
  986poe    c23 7506   5.190   5.685   6.294 -0.3057  0.0756  0.6298
  986poe    c23 7507   5.197   5.772   6.167  0.6668  0.2009  0.7641
  986poe     o2 7508   5.059   5.795   6.146  0.8010 -0.0033 -0.4187
  986poe    c23 7509   5.041   5.852   6.019 -0.3720  0.0176 -0.2478
  986poe    c23 7510   4.895   5.829   5.974 -0.3867  0.0531 -0.2193
  986poe     o2 7511   4.857   5.704   6.028 -0.1947  0.2991  0.4935
  986poe    c31 7512   4.729   5.680   5.975 -0.1759  0.1893  0.4973
  987poe    c31 7513   6.642   2.968   2.341 -0.3017  0.0004  0.0980
  987poe     o2 7514   6.590   3.021   2.221 -0.6143 -0.1862  0.1525
  987poe    c23 7515   6.480   2.950   2.167 -0.3475 -0.3600 -0.1624
  987poe    c23 7516   6.420   3.046   2.062 -0.0338  0.0782  0.0526
  987poe     o2 7517   6.525   3.069   1.971  0.1059  0.3152  0.2748
  987poe    c23 7518   6.469   3.106   1.847  0.1891 -0.1135  0.1084
  987poe    c23 7519   6.595   3.115   1.759 -0.0293  0.0212 -0.1928
  987poe     o2 7520   6.682   3.209   1.818  0.0441 -0.0895 -0.1232
  987poe    c23 7521   6.798   3.203   1.739  0.2772 -0.6728  0.2526
  987poe    c23 7522   6.916   3.289   1.788  0.2420 -0.1718 -0.5057
  987poe     o2 7523   6.981   3.232   1.900  0.2086 -0.1415 -0.4710
  987poe    c31 7524   7.072   3.323   1.958  0.1284  0.1953 -0.8698
  988poe    c31 7525   2.137   6.689   0.100  0.1940  0.4378  0.3595
  988poe     o2 7526   2.269   6.662   0.058  0.0296 -0.1151  0.1817
  988poe    c23 7527   2.337   6.784   0.080  0.2183 -0.1929  0.0336
  988poe    c23 7528   2.473   6.784   0.008  0.3099  0.0651  0.2043
  988poe     o2 7529   2.537   6.665   0.051 -0.2005 -0.1993  0.2374
  988poe    c23 7530   2.649   6.634  -0.028 -0.3719  0.3874 -0.2446
  988poe    c23 7531   2.728   6.522   0.042 -0.4217  0.3958 -0.1741
  988poe     o2 7532   2.642   6.411   0.050 -0.0095  0.1118  0.3482
  988poe    c23 7533   2.720   6.306   0.104 -0.0325  0.0631  0.2850
  988poe    c23 7534   2.616   6.198   0.139  0.1146 -0.2197 -0.1423
  988poe     o2 7535   2.531   6.184   0.026  0.2260 -0.3267 -0.2130
  988poe    c31 7536   2.455   6.070   0.061  0.2391 -0.2124  0.1996
  989poe    c31 7537   1.268   2.855   1.621 -0.2024  0.2358 -0.2295
  989poe     o2 7538   1.328   2.983   1.623  0.3252 -0.0105 -0.0701
  989poe    c23 7539   1.333   3.047   1.497 -0.0182  0.1697  0.0073
  989poe    c23 7540   1.336   3.200   1.516  0.9957  0.1192  0.3323
  989poe     o2 7541   1.433   3.240   1.609  0.7196 -0.2658  0.7917
  989poe    c23 7542   1.410   3.371   1.656 -0.4624 -0.2209  0.1133
  989poe    c23 7543   1.315   3.376   1.778 -0.4287  0.0812  0.1283
  989poe     o2 7544   1.342   3.257   1.849  0.0049 -0.1286 -0.3773
  989poe    c23 7545   1.227   3.218   1.921  0.2756  0.0287  0.1375
  989poe    c23 7546   1.277   3.090   1.990 -0.1761 -0.1958  0.0478
  989poe     o2 7547   1.360   3.017   1.903 -0.5478 -0.3737 -0.1637
  989poe    c31 7548   1.390   2.891   1.958  0.5505  0.0833  0.3221
  990poe    c31 7549   4.106   5.963   5.483  0.6541  0.4385 -0.9484
  990poe     o2 7550   4.060   6.096   5.467  0.1532  0.4126  0.1841
  990poe    c23 7551   4.035   6.109   5.329  0.5389 -0.6425  0.0054
  990poe    c23 7552   4.105   6.241   5.293 -0.8342  0.1968  0.3489
  990poe     o2 7553   4.082   6.329   5.400 -0.0510 -0.2719  0.9151
  990poe    c23 7554   4.123   6.462   5.373 -0.4209 -0.3280  0.0430
  990poe    c23 7555   4.038   6.562   5.454 -0.3172  0.0538 -0.3191
  990poe     o2 7556   4.016   6.511   5.584  0.2531 -0.0201 -0.2478
  990poe    c23 7557   3.967   6.615   5.666 -0.2034 -0.4734  0.0585
  990poe    c23 7558   4.075   6.660   5.767 -0.1591 -0.2040 -0.1080
  990poe     o2 7559   4.195   6.710   5.712 -0.1477 -0.3853 -0.2505
  990poe    c31 7560   4.274   6.750   5.822 -0.2650  0.1675 -0.3665
  991poe    c31 7561   1.977   2.779   2.919  0.2483  0.5133  1.0689
  991poe     o2 7562   2.103   2.733   2.876 -0.2090  0.0461  0.1955
  991poe    c23 7563   2.199   2.822   2.929 -0.6423  0.0800  0.9442
  991poe    c23 7564   2.332   2.743   2.936 -0.6025  0.0898  0.3543
  991poe     o2 7565   2.386   2.699   2.813 -0.0109  0.5421  0.4516
  991poe    c23 7566   2.513   2.637   2.817 -0.3874 -0.2880 -0.1928
  991poe    c23 7567   2.540   2.591   2.673 -0.1722  0.1279 -0.2873
  991poe     o2 7568   2.450   2.491   2.632 -0.0653 -0.1261  0.0892
  991poe    c23 7569   2.470   2.463   2.495  0.8467 -0.4435  0.2821
  991poe    c23 7570   2.367   2.355   2.459  0.3600  0.2527 -0.4285
  991poe     o2 7571   2.247   2.406   2.514  0.3201 -0.5874  0.2812
  991poe    c31 7572   2.139   2.319   2.492  0.0276  0.0060 -0.6849
  992poe    c31 7573   1.439   4.514   3.930 -0.8555 -0.3328 -0.5520
  992poe     o2 7574   1.455   4.426   3.821  0.2308 -0.3335 -0.4061
  992poe    c23 7575   1.525   4.312   3.865  0.5737 -0.1863 -0.5664
  992poe    c23 7576   1.489   4.196   3.770 -0.7611  0.0509 -0.3708
  992poe     o2 7577   1.487   4.242   3.636  0.1887  0.1128 -0.3731
  992poe    c23 7578   1.470   4.130   3.552 -0.1836  0.3874 -0.6639
  992poe    c23 7579   1.445   4.208   3.422  0.5477  0.5522 -0.7081
  992poe     o2 7580   1.329   4.289   3.433  0.2340 -0.0594  0.6119
  992poe    c23 7581   1.293   4.357   3.315 -0.0086 -0.5598  0.3937
  992poe    c23 7582   1.147   4.406   3.321  0.2768  0.4131 -0.3587
  992poe     o2 7583   1.130   4.477   3.441  0.3691  0.2773 -0.2653
  992poe    c31 7584   0.991   4.479   3.465  0.4014  0.8163 -0.1069
  993poe    c31 7585   0.110   2.194   0.167  0.4003  0.0693 -0.2928
  993poe     o2 7586   0.212   2.246   0.249  0.1407  0.3244 -0.1324
  993poe    c23 7587   0.217   2.387   0.253  0.4110  0.3170 -0.2112
  993poe    c23 7588   0.310   2.420   0.372  0.4069  0.0890 -0.1442
  993poe     o2 7589   0.428   2.344   0.367  0.1225 -0.3773  0.1822
  993poe    c23 7590   0.509   2.372   0.479 -0.1463  0.4579  0.1676
  993poe    c23 7591   0.613   2.259   0.486 -0.2573  0.3698  0.3958
  993poe     o2 7592   0.677   2.243   0.361  0.1032  0.1892  0.6032
  993poe    c23 7593   0.746   2.120   0.353  0.2751  0.3213  0.0591
  993poe    c23 7594   0.797   2.105   0.208 -0.0896 -0.7699  0.0384
  993poe     o2 7595   0.692   2.142   0.121  0.5446  0.3813 -0.2548
  993poe    c31 7596   0.732   2.118  -0.012 -0.2239  0.4233 -0.5020
  994poe    c31 7597   0.835   4.622   4.588  0.3353  0.1341 -0.0223
  994poe     o2 7598   0.927   4.515   4.593  0.4200  0.2085  0.0083
  994poe    c23 7599   0.939   4.445   4.715  0.1036 -0.0047 -0.0805
  994poe    c23 7600   1.042   4.331   4.707 -0.1020 -0.1438 -0.8611
  994poe     o2 7601   1.168   4.383   4.669  0.2386 -0.3780 -0.0808
  994poe    c23 7602   1.257   4.279   4.703 -0.0128 -0.6772 -0.3323
  994poe    c23 7603   1.399   4.333   4.722 -0.0086 -0.7859 -0.0622
  994poe     o2 7604   1.422   4.410   4.606  0.4959 -0.7396  0.0652
  994poe    c23 7605   1.542   4.483   4.614  0.2277 -0.3326  0.4296
  994poe    c23 7606   1.544   4.549   4.475  0.4936  0.0568  0.6167
  994poe     o2 7607   1.420   4.609   4.446  0.5281 -0.1406  0.0474
  994poe    c31 7608   1.421   4.661   4.315 -0.3235 -0.3233 -0.0361
  995poe    c31 7609   4.475   0.666   1.212 -0.3024  0.2923  0.3465
  995poe     o2 7610   4.515   0.548   1.278 -0.0065  0.3314  0.2408
  995poe    c23 7611   4.648   0.509   1.251 -0.2617 -0.0762 -0.4357
  995poe    c23 7612   4.712   0.466   1.384 -0.3949  0.3524 -0.2304
  995poe     o2 7613   4.614   0.406   1.465 -0.3665 -0.0115 -0.4659
  995poe    c23 7614   4.683   0.316   1.549 -0.0487  0.5450 -0.1270
  995poe    c23 7615   4.592   0.198   1.589 -0.0780  0.7977  0.5719
  995poe     o2 7616   4.456   0.232   1.602 -0.1897  0.3623  0.5573
  995poe    c23 7617   4.381   0.142   1.682 -0.4526  0.4075  0.3617
  995poe    c23 7618   4.231   0.173   1.672 -0.5185  0.1422  0.5231
  995poe     o2 7619   4.191   0.181   1.537  0.1424  0.1041  0.3216
  995poe    c31 7620   4.054   0.211   1.519  0.1246 -0.2621 -0.1881
  996poe    c31 7621   4.678   6.310   6.689 -0.3375 -0.0759  0.7521
  996poe     o2 7622   4.572   6.261   6.609 -0.0480  0.3967  0.0655
  996poe    c23 7623   4.515   6.149   6.674 -0.0585  0.1521 -0.3590
  996poe    c23 7624   4.399   6.105   6.584 -0.2091 -0.2988  0.0526
  996poe     o2 7625   4.465   6.098   6.460 -0.3642 -0.1699 -0.0385
  996poe    c23 7626   4.372   6.051   6.366 -0.5025  0.3081 -0.1437
  996poe    c23 7627   4.428   6.090   6.228  0.2782  0.1449  0.1253
  996poe     o2 7628   4.528   6.189   6.238 -0.0358  0.4409  0.3454
  996poe    c23 7629   4.604   6.188   6.120  0.0094 -0.0160  0.3768
  996poe    c23 7630   4.660   6.325   6.077 -0.1938 -0.1943 -0.4751
  996poe     o2 7631   4.562   6.424   6.098 -0.0281 -0.1715  0.2129
  996poe    c31 7632   4.619   6.548   6.063  0.0604 -0.3356 -0.2300
  997poe    c31 7633   4.147   4.537   5.715  0.0022 -0.0500  0.2704
  997poe     o2 7634   4.142   4.398   5.740  0.3428 -0.0035  0.6069
  997poe    c23 7635   4.245   4.360   5.828  0.6209 -0.1963  0.1962
  997poe    c23 7636   4.236   4.208   5.853 -0.0913 -0.1508  0.2243
  997poe     o2 7637   4.101   4.178   5.884 -0.2481  0.3167  0.0032
  997poe    c23 7638   4.074   4.040   5.895  0.0567  0.2952  0.5215
  997poe    c23 7639   3.920   4.036   5.891  0.0818  0.0550 -0.3885
  997poe     o2 7640   3.888   4.111   5.775 -0.5503 -0.3408 -0.4733
  997poe    c23 7641   3.748   4.123   5.766 -0.5631 -0.0052  0.0827
  997poe    c23 7642   3.697   4.218   5.657 -0.2777 -0.0515 -0.0922
  997poe     o2 7643   3.789   4.325   5.656 -0.0656 -0.2318  0.1859
  997poe    c31 7644   3.737   4.417   5.563 -0.1132 -0.5813 -0.1347
  998poe    c31 7645   0.742   1.542   4.738  0.1320  0.0990  0.6898
  998poe     o2 7646   0.622   1.610   4.707  0.1578 -0.1152  0.1103
  998poe    c23 7647   0.580   1.678   4.823  0.1565  0.1303 -0.0354
  998poe    c23 7648   0.461   1.771   4.797  0.0700 -0.0012 -0.1035
  998poe     o2 7649   0.373   1.699   4.713  0.1177 -0.1329 -0.0410
  998poe    c23 7650   0.292   1.782   4.633  1.2102  0.3394 -0.6828
  998poe    c23 7651   0.195   1.690   4.556  0.4390  0.3325  0.2708
  998poe     o2 7652   0.287   1.601   4.496  0.1049  0.1027  0.1026
  998poe    c23 7653   0.242   1.467   4.486 -0.1345  0.1950 -0.0763
  998poe    c23 7654   0.360   1.387   4.428 -0.1065  0.3466 -0.2298
  998poe     o2 7655   0.477   1.394   4.508 -0.1440  0.1705 -0.1600
  998poe    c31 7656   0.579   1.302   4.477 -0.3927  0.0879 -0.7639
  999poe    c31 7657   4.490   4.930   0.618  0.8101 -0.3328  0.7332
  999poe     o2 7658   4.379   4.860   0.671  0.2646 -0.0009  0.0533
  999poe    c23 7659   4.381   4.742   0.593  0.5319 -0.4563  0.7335
  999poe    c23 7660   4.272   4.644   0.638 -0.0795 -0.0106  0.2376
  999poe     o2 7661   4.293   4.580   0.761  0.2012 -0.0778  0.1553
  999poe    c23 7662   4.186   4.507   0.819 -0.2941  0.3938 -0.1564
  999poe    c23 7663   4.246   4.412   0.925  0.1257  0.3446 -0.4347
  999poe     o2 7664   4.308   4.460   1.042  0.3557 -0.0299 -0.4006
  999poe    c23 7665   4.231   4.443   1.159 -0.2240  0.6525 -0.6690
  999poe    c23 7666   4.317   4.516   1.263 -0.2579  0.8443 -0.7762
  999poe     o2 7667   4.453   4.480   1.245 -0.3336 -0.0914  0.3607
  999poe    c31 7668   4.527   4.456   1.362  0.2133  0.0805  0.0535
 1000poe    c31 7669   5.983   2.626   0.511 -0.3913  0.0194 -0.0997
 1000poe     o2 7670   6.011   2.649   0.375  0.0110  0.3503  0.0368
 1000poe    c23 7671   6.139   2.592   0.356 -0.3825 -0.4843 -0.1707
 1000poe    c23 7672   6.198   2.608   0.215  0.1074  0.1709  0.1054
 1000poe     o2 7673   6.115   2.525   0.138  0.3714  0.1236 -0.1305
 1000poe    c23 7674   6.168   2.511   0.008  0.1241 -0.6906 -0.1515
 1000poe    c23 7675   6.055   2.466  -0.086 -0.6793  0.1961  0.3775
 1000poe     o2 7676   5.969   2.571  -0.125 -0.0742  0.5536 -0.0087
 1000poe    c23 7677   5.894   2.527  -0.236  0.0616  0.2722  0.0111
 1000poe    c23 7678   5.825   2.655  -0.285 -0.2418 -0.0561 -0.4253
 1000poe     o2 7679   5.778   2.732  -0.176 -0.2314  0.2850 -0.6591
 1000poe    c31 7680   5.709   2.850  -0.208 -0.6461  0.1067 -0.4298
 1001poe    c31 7681   2.403   0.056   6.196  0.2796  0.0511 -0.3725
 1001poe     o2 7682   2.373  -0.025   6.085 -0.5429 -0.1642 -0.0023
 1001poe    c23 7683   2.407  -0.159   6.111 -0.9068 -0.2229  0.1747
 1001poe    c23 7684   2.362  -0.240   5.988  0.6036 -0.3430 -0.3192
 1001poe     o2 7685   2.397  -0.169   5.871 -0.2523  0.6314  0.0001
 1001poe    c23 7686   2.384  -0.234   5.747  0.8076 -0.0322  0.2185
 1001poe    c23 7687   2.425  -0.120   5.652  0.3846  0.0889  0.1770
 1001poe     o2 7688   2.365  -0.005   5.707 -0.4505 -0.0750 -0.3753
 1001poe    c23 7689   2.410   0.109   5.637  0.0873  0.1736  0.3623
 1001poe    c23 7690   2.373   0.228   5.727  0.4493  0.3734  0.2480
 1001poe     o2 7691   2.409   0.186   5.857  0.5530  0.6848  0.3229
 1001poe    c31 7692   2.365   0.284   5.948 -0.0352  0.5606  0.1832
 1002poe    c31 7693   4.374   3.240   1.900 -0.1214 -0.5752  0.1656
 1002poe     o2 7694   4.406   3.104   1.877  0.4863 -0.4047  0.0088
 1002poe    c23 7695   4.286   3.031   1.887  0.0422  0.2856 -0.1674
 1002poe    c23 7696   4.329   2.884   1.865 -0.1062  0.1504  0.4410
 1002poe     o2 7697   4.445   2.851   1.937 -0.1386  0.0082  0.4279
 1002poe    c23 7698   4.513   2.737   1.889 -0.1222 -0.0421  0.5696
 1002poe    c23 7699   4.666   2.753   1.895 -0.1301  0.3152 -0.0350
 1002poe     o2 7700   4.686   2.892   1.882 -0.2092  0.3305  0.0059
 1002poe    c23 7701   4.822   2.927   1.876 -0.1441  0.3780  1.5314
 1002poe    c23 7702   4.816   3.072   1.824  0.1531 -0.1757 -0.1153
 1002poe     o2 7703   4.712   3.142   1.888 -0.2076  0.1164 -1.0143
 1002poe    c31 7704   4.744   3.275   1.923 -0.1623 -0.1345 -0.0774
 1003poe    c31 7705   0.420   2.830   5.643 -0.0775 -0.1688 -0.2069
 1003poe     o2 7706   0.433   2.801   5.780 -0.2708  0.4955 -0.0467
 1003poe    c23 7707   0.352   2.691   5.813  0.3307  0.1172  0.1841
 1003poe    c23 7708   0.373   2.677   5.965 -0.0585  0.0151  0.2291
 1003poe     o2 7709   0.348   2.804   6.021  0.4949  0.4190 -0.4206
 1003poe    c23 7710   0.365   2.810   6.161 -0.3248  0.1617 -0.3044
 1003poe    c23 7711   0.375   2.961   6.190  0.0644  0.1439 -0.3396
 1003poe     o2 7712   0.467   3.001   6.091  0.6941  0.0681  0.2099
 1003poe    c23 7713   0.434   3.136   6.070  0.1223 -0.0668  0.2265
 1003poe    c23 7714   0.541   3.194   5.975  0.1304  0.1446  0.3635
 1003poe     o2 7715   0.527   3.106   5.865  0.0869  0.3972  0.1677
 1003poe    c31 7716   0.472   3.167   5.750  0.4307 -0.3206 -0.3828
 1004poe    c31 7717   2.398   1.007   5.211  0.2152 -0.1997 -0.5851
 1004poe     o2 7718   2.311   1.095   5.145 -0.4542 -0.3843  0.0329
 1004poe    c23 7719   2.378   1.195   5.071 -1.0532 -0.1451 -0.1932
 1004poe    c23 7720   2.279   1.268   4.978 -0.0802  0.6312 -0.6324
 1004poe     o2 7721   2.175   1.321   5.056  0.3766  0.8514 -0.1639
 1004poe    c23 7722   2.069   1.361   4.972 -0.4418 -0.2981  0.2977
 1004poe    c23 7723   1.974   1.413   5.081 -0.6585 -0.1692  0.0498
 1004poe     o2 7724   1.942   1.314   5.177  0.0348 -0.4841 -0.0431
 1004poe    c23 7725   1.854   1.373   5.270 -0.1334 -0.3267 -0.3018
 1004poe    c23 7726   1.826   1.280   5.389 -0.1131  0.7863  0.5895
 1004poe     o2 7727   1.938   1.263   5.473  0.0236  0.3459  0.3214
 1004poe    c31 7728   1.905   1.221   5.604 -0.5810  0.4989  0.2202
 1005poe    c31 7729   6.115   4.087   5.852 -0.4048 -0.2566 -0.0104
 1005poe     o2 7730   6.123   4.183   5.749 -0.0357 -0.1447  0.1206
 1005poe    c23 7731   6.118   4.102   5.633 -0.2837 -0.0017  0.0309
 1005poe    c23 7732   6.214   4.180   5.542 -0.3072  0.2959  0.2605
 1005poe     o2 7733   6.194   4.320   5.545 -0.1274  0.3305 -0.1257
 1005poe    c23 7734   6.282   4.378   5.451  0.1498  0.3236  0.1263
 1005poe    c23 7735   6.291   4.525   5.495 -0.5812  0.4362 -0.0891
 1005poe     o2 7736   6.254   4.537   5.631 -0.0063 -0.3993  0.1448
 1005poe    c23 7737   6.355   4.588   5.716  0.0829  0.0547 -0.2325
 1005poe    c23 7738   6.304   4.579   5.861 -0.4718  0.7449 -0.3774
 1005poe     o2 7739   6.239   4.454   5.870  0.1976  0.4046 -0.2098
 1005poe    c31 7740   6.214   4.433   6.008  0.7098  0.2064 -0.1460
 1006poe    c31 7741   6.147   1.172   2.336 -0.1556  0.1858 -0.3993
 1006poe     o2 7742   6.214   1.048   2.328 -0.1739  0.1463 -0.0033
 1006poe    c23 7743   6.355   1.048   2.325 -0.1726 -0.2601  0.0204
 1006poe    c23 7744   6.409   0.915   2.269  0.2067 -0.0220 -0.1800
 1006poe     o2 7745   6.403   0.916   2.128  0.1199 -0.0769 -0.1767
 1006poe    c23 7746   6.439   0.789   2.079 -0.5216 -0.0880 -0.6305
 1006poe    c23 7747   6.462   0.822   1.930 -0.2944  0.1956 -0.5330
 1006poe     o2 7748   6.349   0.881   1.870 -0.2952  0.6886 -0.0528
 1006poe    c23 7749   6.350   0.873   1.730 -0.2732  0.4787 -0.0410
 1006poe    c23 7750   6.251   0.985   1.692 -0.5212  0.1545 -0.3559
 1006poe     o2 7751   6.251   1.091   1.784  0.6230  0.6406 -0.8932
 1006poe    c31 7752   6.139   1.171   1.755  0.2030  0.3126 -0.2031
 1007poe    c31 7753   1.771   3.594   6.787  0.0619  0.2717 -0.0066
 1007poe     o2 7754   1.746   3.508   6.896  0.1064  0.6428  0.2980
 1007poe    c23 7755   1.863   3.446   6.945  0.3059  0.7523 -0.0376
 1007poe    c23 7756   1.845   3.418   7.095  0.0153  0.9710 -0.0299
 1007poe     o2 7757   1.713   3.371   7.109  0.0454  1.0758  0.6318
 1007poe    c23 7758   1.691   3.317   7.238  0.4719 -0.5125  0.0681
 1007poe    c23 7759   1.567   3.226   7.230  0.3923 -0.3630 -0.4819
 1007poe     o2 7760   1.445   3.291   7.201  0.2379 -0.2725  0.3258
 1007poe    c23 7761   1.362   3.205   7.127 -0.1414  0.2647  0.1196
 1007poe    c23 7762   1.227   3.274   7.101  0.1407  0.8118  0.0926
 1007poe     o2 7763   1.233   3.368   6.996  0.1682  0.2700 -0.3992
 1007poe    c31 7764   1.130   3.461   6.973 -0.0884  0.0813 -0.0252
 1008poe    c31 7765   0.286   3.602   5.833 -0.1044 -0.0922  0.5721
 1008poe     o2 7766   0.211   3.696   5.905 -0.4868 -0.0532  0.1263
 1008poe    c23 7767   0.131   3.775   5.819 -0.0660 -0.2400 -0.4357
 1008poe    c23 7768   0.046   3.851   5.922 -0.0210  0.0593 -0.6174
 1008poe     o2 7769   0.125   3.887   6.033 -0.0433 -0.2188 -0.5107
 1008poe    c23 7770   0.075   3.996   6.107  0.2147 -0.4242 -0.0262
 1008poe    c23 7771   0.196   4.045   6.188 -0.0082 -0.2481  0.2016
 1008poe     o2 7772   0.236   3.936   6.268  0.1227 -0.1882  0.2188
 1008poe    c23 7773   0.322   3.973   6.373  0.3939  0.2222 -0.1406
 1008poe    c23 7774   0.357   3.844   6.451 -0.2441 -0.1260 -0.4198
 1008poe     o2 7775   0.389   3.739   6.363  0.3958 -0.2036 -0.1025
 1008poe    c31 7776   0.365   3.617   6.430  0.0585 -0.1103 -0.0488
 1009poe    c31 7777   3.703   5.033   1.651  0.1534 -0.4222 -0.2966
 1009poe     o2 7778   3.748   5.144   1.726  0.4470 -0.6153 -0.1834
 1009poe    c23 7779   3.778   5.244   1.632 -0.0819  0.1348  0.4329
 1009poe    c23 7780   3.793   5.381   1.701  0.3197  0.3146  0.0027
 1009poe     o2 7781   3.883   5.353   1.806  0.2956  0.0010 -0.0609
 1009poe    c23 7782   3.917   5.454   1.897 -0.0256 -0.0739  0.1438
 1009poe    c23 7783   3.824   5.435   2.018 -0.7137 -0.6132 -0.4635
 1009poe     o2 7784   3.827   5.297   2.045  0.6805 -0.5967 -0.4991
 1009poe    c23 7785   3.711   5.260   2.116  0.2652  0.1917 -0.7576
 1009poe    c23 7786   3.718   5.107   2.130 -1.0176  0.1595 -0.3990
 1009poe     o2 7787   3.740   5.063   1.998 -0.1570 -0.4075 -0.0718
 1009poe    c31 7788   3.766   4.924   2.000 -0.3137 -0.4337  0.2885
 1010poe    c31 7789   0.399   3.768   0.880  0.5575 -0.0828  0.7142
 1010poe     o2 7790   0.484   3.659   0.912  0.3010 -0.4916  0.0294
 1010poe    c23 7791   0.534   3.608   0.791 -0.2321 -0.4291 -0.2228
 1010poe    c23 7792   0.590   3.466   0.817  0.2304 -0.1823  0.1509
 1010poe     o2 7793   0.709   3.480   0.890  0.0433 -0.3879  0.4977
 1010poe    c23 7794   0.752   3.366   0.961  0.0059 -0.7448 -0.0502
 1010poe    c23 7795   0.886   3.393   1.032 -0.0938 -0.1041 -0.0998
 1010poe     o2 7796   0.865   3.501   1.121  0.0486 -0.0097 -0.1806
 1010poe    c23 7797   0.985   3.545   1.181 -0.4466  0.7118  0.2958
 1010poe    c23 7798   0.974   3.560   1.334  0.2941  0.7327  0.3518
 1010poe     o2 7799   0.842   3.608   1.351 -0.0221  0.1178 -0.3074
 1010poe    c31 7800   0.826   3.676   1.473 -0.1684 -0.2444 -0.1256
 1011poe    c31 7801   2.441   6.452   1.085 -0.0930 -0.7464 -0.4018
 1011poe     o2 7802   2.311   6.506   1.091  0.2136 -0.0371 -0.0358
 1011poe    c23 7803   2.220   6.419   1.027  0.2922  0.3813 -0.7281
 1011poe    c23 7804   2.072   6.460   1.019  0.1267  0.0297  0.4255
 1011poe     o2 7805   2.041   6.584   0.959  0.0738 -0.4314 -0.5243
 1011poe    c23 7806   1.951   6.655   1.041  0.8201  0.2377 -0.2613
 1011poe    c23 7807   1.962   6.803   1.002  0.2333  0.3306 -0.0812
 1011poe     o2 7808   1.968   6.785   0.863 -0.2433 -0.2124 -0.0357
 1011poe    c23 7809   1.950   6.902   0.786 -0.3633 -0.2507 -0.0661
 1011poe    c23 7810   1.969   6.864   0.638 -0.3076 -0.0027 -0.1228
 1011poe     o2 7811   2.091   6.797   0.615  0.0136  0.5723 -0.1303
 1011poe    c31 7812   2.102   6.774   0.476  0.3414 -0.1834  0.0155
 1012poe    c31 7813   4.528   3.113   4.136 -0.4665 -0.2766  0.1562
 1012poe     o2 7814   4.560   3.175   4.258 -0.0691 -0.0061 -0.0864
 1012poe    c23 7815   4.640   3.290   4.236 -0.4545  0.2917  0.0521
 1012poe    c23 7816   4.706   3.358   4.357 -0.5543  0.1874  0.1659
 1012poe     o2 7817   4.628   3.411   4.462 -0.0089  0.6478  0.3467
 1012poe    c23 7818   4.705   3.435   4.577  0.6999 -0.1549  0.0517
 1012poe    c23 7819   4.617   3.507   4.681  0.2868 -0.3034 -0.1951
 1012poe     o2 7820   4.502   3.427   4.698 -0.0147  0.0102 -0.7270
 1012poe    c23 7821   4.396   3.507   4.748 -0.0335 -0.2418 -0.3571
 1012poe    c23 7822   4.274   3.422   4.787 -0.1634  0.2585  0.3420
 1012poe     o2 7823   4.244   3.368   4.660  0.1218 -0.0695  0.4096
 1012poe    c31 7824   4.105   3.366   4.634  0.1560 -0.1270  0.2299
 1013poe    c31 7825   3.505   6.159   5.982 -0.1184 -0.3737  0.0806
 1013poe     o2 7826   3.386   6.163   6.058 -0.5715  0.0893 -0.6502
 1013poe    c23 7827   3.410   6.234   6.177 -0.7359 -0.2411 -0.4226
 1013poe    c23 7828   3.388   6.386   6.166 -0.3336 -0.1641 -0.1967
 1013poe     o2 7829   3.249   6.406   6.156 -0.2425  0.4868 -0.1886
 1013poe    c23 7830   3.231   6.545   6.142  0.0063  0.5544  0.1495
 1013poe    c23 7831   3.104   6.557   6.055  0.3910  0.6736 -0.4005
 1013poe     o2 7832   3.002   6.468   6.095  0.6817  0.5409  0.0514
 1013poe    c23 7833   2.902   6.459   5.996  0.1250  0.5546  0.6088
 1013poe    c23 7834   2.814   6.339   6.036 -0.6094  0.9209  0.1176
 1013poe     o2 7835   2.894   6.223   6.051 -0.8627  0.7324  0.0135
 1013poe    c31 7836   2.824   6.104   6.022 -0.6006  0.6137 -0.1259
 1014poe    c31 7837   3.719   4.713   6.433 -0.0800  0.1144 -0.4183
 1014poe     o2 7838   3.668   4.825   6.502 -0.5136 -0.3269 -0.0203
 1014poe    c23 7839   3.604   4.784   6.621 -0.3143 -0.1236  0.1580
 1014poe    c23 7840   3.503   4.896   6.653  0.2104  0.3646  0.1125
 1014poe     o2 7841   3.592   5.006   6.645  0.5444  0.1441  0.7659
 1014poe    c23 7842   3.527   5.127   6.676  0.2526  0.0482  0.5357
 1014poe    c23 7843   3.644   5.228   6.680  0.0498  0.3154 -0.0790
 1014poe     o2 7844   3.729   5.179   6.579 -0.0083 -0.2565  0.1438
 1014poe    c23 7845   3.867   5.201   6.599 -0.0866  0.2415  0.1594
 1014poe    c23 7846   3.933   5.129   6.480  0.0731 -0.0426  0.4168
 1014poe     o2 7847   3.860   5.017   6.436  0.6139 -0.1538 -0.2000
 1014poe    c31 7848   3.937   4.966   6.329  0.6607 -0.9324  0.1959
 1015poe    c31 7849   6.880   0.485   1.100 -0.3815 -0.0667 -0.2168
 1015poe     o2 7850   6.771   0.512   1.185  0.0981  0.4522  0.2498
 1015poe    c23 7851   6.671   0.542   1.090  0.0700 -0.0672  0.1105
 1015poe    c23 7852   6.579   0.661   1.125 -0.1488 -0.2161  0.0450
 1015poe     o2 7853   6.638   0.774   1.185 -0.4675 -0.0461  0.0372
 1015poe    c23 7854   6.560   0.890   1.167  0.0070  0.2260 -0.2810
 1015poe    c23 7855   6.649   0.995   1.238  0.7167 -0.2759 -0.4206
 1015poe     o2 7856   6.683   0.935   1.361  0.3017 -0.1825 -0.2577
 1015poe    c23 7857   6.726   1.029   1.458 -0.1027 -0.3357  0.0724
 1015poe    c23 7858   6.813   0.958   1.564 -0.0305 -0.1943  0.1079
 1015poe     o2 7859   6.932   0.904   1.511 -0.2226 -0.5271  0.0092
 1015poe    c31 7860   7.018   0.879   1.620 -0.5407 -0.3123  0.3144
 1016poe    c31 7861   5.333   6.642   2.173 -0.0526  0.0784 -0.2263
 1016poe     o2 7862   5.433   6.742   2.165 -0.0138  0.0581  0.0226
 1016poe    c23 7863   5.389   6.842   2.254  0.1011  0.3041 -0.1961
 1016poe    c23 7864   5.437   6.978   2.202  0.2423  0.4444  0.2906
 1016poe     o2 7865   5.563   6.952   2.143  0.1072 -0.0699  0.2256
 1016poe    c23 7866   5.597   7.027   2.029  0.1676 -0.3075  0.0862
 1016poe    c23 7867   5.723   6.967   1.965  0.2410 -0.1251  0.0583
 1016poe     o2 7868   5.692   6.830   1.958  0.2096 -0.1170  0.0416
 1016poe    c23 7869   5.810   6.755   1.943  0.4462  0.0626  0.9488
 1016poe    c23 7870   5.787   6.603   1.958 -0.2548  0.0721  0.0225
 1016poe     o2 7871   5.701   6.605   2.070  0.0829 -0.0526  0.2858
 1016poe    c31 7872   5.680   6.472   2.111  0.2718 -0.2424 -0.2256
 1017poe    c31 7873   6.746   1.667   6.777  0.2354 -0.7682 -0.6167
 1017poe     o2 7874   6.773   1.762   6.677  0.4159 -0.2723 -0.1000
 1017poe    c23 7875   6.648   1.807   6.630  0.3729  0.0876  0.3440
 1017poe    c23 7876   6.673   1.928   6.539  0.3228 -0.5407 -0.5186
 1017poe     o2 7877   6.764   2.010   6.609 -0.1843  0.0452 -0.5360
 1017poe    c23 7878   6.781   2.134   6.543  0.0287  0.1841 -0.2218
 1017poe    c23 7879   6.895   2.214   6.609 -0.2882  0.3464  0.1349
 1017poe     o2 7880   7.010   2.135   6.629 -0.5725 -0.0635  0.1456
 1017poe    c23 7881   7.120   2.211   6.673 -0.1081 -0.8380  0.3493
 1017poe    c23 7882   7.253   2.134   6.666  0.2867 -0.1089 -0.3043
 1017poe     o2 7883   7.237   2.011   6.732  0.0175  0.1160  0.0519
 1017poe    c31 7884   7.354   1.933   6.719 -0.1200 -0.0527 -0.1733
 1018poe    c31 7885   4.940   1.787   1.087  0.3128  0.1288  0.0776
 1018poe     o2 7886   5.022   1.724   0.990  0.5789  0.0258  0.3672
 1018poe    c23 7887   5.045   1.807   0.878 -0.5216  0.1115  0.1926
 1018poe    c23 7888   5.135   1.728   0.782 -0.0311  0.4958  0.3352
 1018poe     o2 7889   5.268   1.700   0.819  0.0539 -0.1491 -0.4162
 1018poe    c23 7890   5.330   1.603   0.738  0.1099 -0.6468  0.2110
 1018poe    c23 7891   5.480   1.591   0.769  0.1672 -0.3672  0.0509
 1018poe     o2 7892   5.494   1.593   0.909 -0.1730 -0.0272  0.0820
 1018poe    c23 7893   5.631   1.601   0.945 -0.0024 -0.4315 -0.4643
 1018poe    c23 7894   5.626   1.602   1.099  0.0018  0.5200 -0.4658
 1018poe     o2 7895   5.507   1.667   1.138 -0.3875 -0.5728  0.2100
 1018poe    c31 7896   5.517   1.685   1.277 -0.3799 -0.1324  0.1555
 1019poe    c31 7897   1.854   1.326   1.468  0.4872 -0.4831 -0.1219
 1019poe     o2 7898   1.814   1.222   1.382 -0.2334  0.0201 -0.4021
 1019poe    c23 7899   1.692   1.259   1.322 -0.6341 -0.3753  0.1722
 1019poe    c23 7900   1.647   1.147   1.226 -0.4244  0.2869 -0.6977
 1019poe     o2 7901   1.744   1.132   1.124  0.2647  0.5159 -0.0877
 1019poe    c23 7902   1.676   1.096   1.005 -0.2036 -0.4382  0.4519
 1019poe    c23 7903   1.783   1.051   0.904 -0.5695 -0.0688 -0.1036
 1019poe     o2 7904   1.884   1.150   0.916 -0.1728 -0.5078  0.1973
 1019poe    c23 7905   1.992   1.112   0.833 -0.2263  0.4283 -0.3107
 1019poe    c23 7906   2.118   1.182   0.887 -0.0572 -0.1422  0.0417
 1019poe     o2 7907   2.094   1.212   1.022 -0.2623 -0.3042  0.0422
 1019poe    c31 7908   2.206   1.285   1.067  0.1189 -0.9255  0.1185
 1020poe    c31 7909   1.760   2.759   2.277 -0.1092  0.1036  0.3950
 1020poe     o2 7910   1.665   2.772   2.381  0.0855  0.2533  0.5551
 1020poe    c23 7911   1.659   2.907   2.419  0.2423  0.4238 -0.0204
 1020poe    c23 7912   1.598   2.894   2.559 -0.1168 -0.6542 -0.2721
 1020poe     o2 7913   1.486   2.809   2.544 -0.5679  0.0087 -0.6941
 1020poe    c23 7914   1.418   2.801   2.667 -0.3793 -0.3511 -0.6109
 1020poe    c23 7915   1.346   2.665   2.674  0.0237 -0.5139  0.5072
 1020poe     o2 7916   1.420   2.577   2.591 -0.3501 -0.0549 -0.3229
 1020poe    c23 7917   1.493   2.492   2.677 -0.4044  0.1006 -0.1212
 1020poe    c23 7918   1.595   2.419   2.588 -0.1657  0.2614  0.0179
 1020poe     o2 7919   1.670   2.527   2.536 -0.2073  0.4306  0.3073
 1020poe    c31 7920   1.802   2.538   2.583 -0.0785 -0.1041  0.0876
 1021poe    c31 7921   5.573   6.321   0.512 -0.2190 -0.6035 -0.2023
 1021poe     o2 7922   5.643   6.387   0.409  0.0837 -0.2699  0.2166
 1021poe    c23 7923   5.624   6.526   0.390  0.2956 -0.3399 -0.5541
 1021poe    c23 7924   5.484   6.576   0.351 -0.0276 -0.6050  0.2423
 1021poe     o2 7925   5.418   6.596   0.474 -0.2363 -0.4669  0.1081
 1021poe    c23 7926   5.299   6.669   0.452 -0.1847 -0.3093  0.3670
 1021poe    c23 7927   5.217   6.720   0.573 -0.4827 -0.0572  0.0591
 1021poe     o2 7928   5.307   6.810   0.634 -0.0661 -0.2422 -0.2694
 1021poe    c23 7929   5.244   6.872   0.745 -0.2552  0.0557 -0.5403
 1021poe    c23 7930   5.318   6.998   0.795 -0.3298 -0.3924  0.7211
 1021poe     o2 7931   5.452   6.976   0.757 -0.4698  0.2153 -0.1453
 1021poe    c31 7932   5.528   7.085   0.804  0.0156 -0.1023 -0.1891
 1022poe    c31 7933   2.272   0.666   4.450 -0.2135  0.6122  0.0599
 1022poe     o2 7934   2.328   0.740   4.344  0.1076  0.1799 -0.0744
 1022poe    c23 7935   2.219   0.799   4.278 -0.2713 -0.7644 -0.3080
 1022poe    c23 7936   2.267   0.866   4.148  0.2769 -0.3529  0.1004
 1022poe     o2 7937   2.399   0.911   4.167  0.2384 -0.1386 -0.1321
 1022poe    c23 7938   2.468   0.966   4.057 -0.2069  0.3864 -0.1516
 1022poe    c23 7939   2.613   0.987   4.104 -0.1592  0.0001 -0.1206
 1022poe     o2 7940   2.660   0.864   4.153 -0.3676 -0.3850 -0.8708
 1022poe    c23 7941   2.795   0.850   4.118 -0.0268 -0.0322  0.2527
 1022poe    c23 7942   2.861   0.720   4.167 -0.0955 -0.1202  0.1112
 1022poe     o2 7943   2.781   0.611   4.128 -0.2160 -0.1524  0.4485
 1022poe    c31 7944   2.828   0.493   4.190 -0.3427 -0.4214  0.0422
 1023poe    c31 7945   2.596   2.993   5.274  0.4578  0.1475 -0.7082
 1023poe     o2 7946   2.722   3.041   5.316  0.2716 -0.3427  0.4472
 1023poe    c23 7947   2.704   3.148   5.405  0.0455  0.1110 -0.1366
 1023poe    c23 7948   2.842   3.194   5.454  0.3047 -0.7303 -0.0637
 1023poe     o2 7949   2.910   3.222   5.333 -0.1865  0.5948 -0.0485
 1023poe    c23 7950   3.029   3.294   5.352  0.3238 -0.2128 -0.1512
 1023poe    c23 7951   3.080   3.336   5.213  0.2471  0.6865  0.0818
 1023poe     o2 7952   3.084   3.224   5.127  0.8804  0.2771  0.6360
 1023poe    c23 7953   3.172   3.114   5.135  0.5338 -0.0524  0.0120
 1023poe    c23 7954   3.093   2.991   5.088 -0.3122  0.3835  0.2785
 1023poe     o2 7955   2.971   2.963   5.153 -0.3258  0.2058  0.1787
 1023poe    c31 7956   2.911   2.848   5.098  0.2540 -0.1050  0.1908
 1024poe    c31 7957   1.766   6.671   2.308 -0.0049  0.0962 -0.4172
 1024poe     o2 7958   1.721   6.644   2.178 -0.0176  0.1957 -0.4337
 1024poe    c23 7959   1.708   6.506   2.150 -0.9790  0.2212 -0.1487
 1024poe    c23 7960   1.736   6.501   1.999 -0.2447  0.1456 -0.0143
 1024poe     o2 7961   1.658   6.607   1.950  0.0217  0.5735  0.4796
 1024poe    c23 7962   1.682   6.611   1.811 -0.2179  0.3748  0.4329
 1024poe    c23 7963   1.603   6.722   1.738  0.3703  0.5212  0.0097
 1024poe     o2 7964   1.626   6.850   1.792  0.5851  0.4185  0.1626
 1024poe    c23 7965   1.574   6.958   1.718  0.3376  0.0556 -0.1985
 1024poe    c23 7966   1.638   6.989   1.581 -0.1931  0.3477 -0.3838
 1024poe     o2 7967   1.620   6.897   1.476 -0.0220  0.0291 -0.1350
 1024poe    c31 7968   1.679   6.943   1.357 -0.5206  0.4873 -0.2050
 1025poe    c31 7969   1.012   1.463   3.348 -0.3709 -0.1876 -0.3248
 1025poe     o2 7970   0.940   1.502   3.462  0.4714  0.0400  0.1403
 1025poe    c23 7971   0.861   1.389   3.493  0.1659 -0.0056 -0.7816
 1025poe    c23 7972   0.744   1.411   3.591  0.8992  0.4292  0.0090
 1025poe     o2 7973   0.644   1.507   3.569  0.0718 -0.3621  0.2414
 1025poe    c23 7974   0.535   1.485   3.655 -0.4278  0.2887 -0.2175
 1025poe    c23 7975   0.406   1.543   3.593 -0.4976  0.6691  0.2776
 1025poe     o2 7976   0.452   1.665   3.539  0.3517  0.3840  0.3407
 1025poe    c23 7977   0.369   1.705   3.432  0.0894 -0.2340  0.3057
 1025poe    c23 7978   0.423   1.830   3.360  0.0152 -0.2063  0.2975
 1025poe     o2 7979   0.560   1.814   3.329 -0.1274 -0.1535 -0.3910
 1025poe    c31 7980   0.605   1.921   3.248  0.4181 -0.1631 -0.1058
 1026poe    c31 7981   0.147   2.007   2.824 -0.0372  0.0273 -0.0569
 1026poe     o2 7982   0.032   1.926   2.840  0.0972 -0.0789  0.3686
 1026poe    c23 7983   0.059   1.788   2.854 -0.0642 -0.1081  0.3841
 1026poe    c23 7984  -0.063   1.726   2.783 -0.3037  0.6896  0.0889
 1026poe     o2 7985  -0.174   1.793   2.839 -0.8040 -0.2801  0.2795
 1026poe    c23 7986  -0.289   1.781   2.759 -0.1627 -0.3963 -0.6382
 1026poe    c23 7987  -0.384   1.886   2.818  0.3709 -0.5010  0.4189
 1026poe     o2 7988  -0.300   1.999   2.816 -0.3327  0.0210 -0.1452
 1026poe    c23 7989  -0.352   2.102   2.897 -0.6804  0.0678 -0.4287
 1026poe    c23 7990  -0.252   2.219   2.893 -0.1720 -0.3678 -0.5382
 1026poe     o2 7991  -0.133   2.152   2.929 -0.0410  0.0738 -0.1327
 1026poe    c31 7992  -0.058   2.248   2.999  0.1743 -0.2182  0.0384
 1027poe    c31 7993   2.802   4.692   2.810  0.4627  0.0154  0.1521
 1027poe     o2 7994   2.923   4.715   2.878  0.5755 -0.2451  0.0413
 1027poe    c23 7995   2.931   4.641   2.997 -0.0466  0.5705  0.5951
 1027poe    c23 7996   3.062   4.686   3.065  0.1087 -0.3667  0.9294
 1027poe     o2 7997   3.064   4.821   3.105  0.2504 -0.1178  0.1041
 1027poe    c23 7998   3.191   4.833   3.165  0.1849 -0.2912  0.2769
 1027poe    c23 7999   3.193   4.973   3.230 -0.6615 -0.1613  0.0306
 1027poe     o2 8000   3.089   4.974   3.326 -0.4102  0.3664  0.2957
 1027poe    c23 8001   3.114   5.077   3.419 -0.3709  0.6547 -0.0292
 1027poe    c23 8002   2.994   5.076   3.517  0.1182  0.2603  0.5742
 1027poe     o2 8003   2.882   5.076   3.432  0.3343  0.2854  0.2856
 1027poe    c31 8004   2.775   5.142   3.496 -0.3285 -0.1018 -0.4036
 1028poe    c31 8005   2.502   6.470   2.582 -0.3566  0.0055  0.1926
 1028poe     o2 8006   2.501   6.610   2.599 -0.0503  0.0204  0.0951
 1028poe    c23 8007   2.584   6.651   2.705  0.1123 -0.1373  0.0295
 1028poe    c23 8008   2.584   6.805   2.711  0.2716 -0.1273 -0.1681
 1028poe     o2 8009   2.456   6.842   2.665  0.0133 -0.1456  0.5258
 1028poe    c23 8010   2.442   6.982   2.656 -0.7303 -0.2735 -0.4379
 1028poe    c23 8011   2.301   7.039   2.634 -0.5864  0.2434 -0.0379
 1028poe     o2 8012   2.255   6.951   2.534  0.1259 -0.0905 -0.0762
 1028poe    c23 8013   2.117   6.925   2.537  0.1878 -0.3315  0.7849
 1028poe    c23 8014   2.111   6.781   2.484  0.4379  0.1019 -0.4530
 1028poe     o2 8015   2.188   6.695   2.565 -0.1966 -0.0125  0.0393
 1028poe    c31 8016   2.161   6.557   2.564 -0.2419 -0.0029 -0.0528
 1029poe    c31 8017   3.581   6.227   2.233  0.0625  0.4467 -0.1584
 1029poe     o2 8018   3.518   6.352   2.256 -0.2257  0.2037  0.4002
 1029poe    c23 8019   3.510   6.397   2.389 -0.1051  0.0705  0.4528
 1029poe    c23 8020   3.477   6.547   2.388  0.3831  0.1784 -0.3159
 1029poe     o2 8021   3.379   6.549   2.288 -0.0123  0.1199  0.0679
 1029poe    c23 8022   3.302   6.664   2.263  0.0945  0.1621 -0.0671
 1029poe    c23 8023   3.199   6.633   2.152 -0.0405 -0.2418  0.1696
 1029poe     o2 8024   3.248   6.532   2.067  0.1505 -0.3206  0.3704
 1029poe    c23 8025   3.149   6.478   1.982  0.3339  0.1136 -0.1256
 1029poe    c23 8026   3.219   6.370   1.897 -0.3023 -0.3198 -0.1126
 1029poe     o2 8027   3.302   6.302   1.988 -0.0116  0.1200 -0.0433
 1029poe    c31 8028   3.321   6.175   1.928 -0.1278  0.3662 -0.6061
 1030poe    c31 8029   6.850   4.470   6.221 -0.3850  0.4170 -0.6740
 1030poe     o2 8030   6.938   4.509   6.118  0.3168  0.1222 -0.1952
 1030poe    c23 8031   6.861   4.590   6.031  0.1821 -0.2426 -0.4175
 1030poe    c23 8032   6.937   4.650   5.912  0.3289 -0.0328 -0.2182
 1030poe     o2 8033   6.997   4.550   5.834  0.7007  0.0371 -0.0293
 1030poe    c23 8034   7.060   4.606   5.721  0.3606  0.3388 -0.0718
 1030poe    c23 8035   7.091   4.488   5.626 -0.2457 -0.3827  0.6114
 1030poe     o2 8036   7.169   4.388   5.688 -0.0749 -0.6555 -0.0302
 1030poe    c23 8037   7.259   4.328   5.598  0.0825  0.2246 -0.4685
 1030poe    c23 8038   7.332   4.202   5.648 -0.0790  0.4363  0.3178
 1030poe     o2 8039   7.231   4.103   5.658  0.2939  0.0595  0.3634
 1030poe    c31 8040   7.275   3.984   5.720  0.4617 -0.1248 -0.0995
 1031poe    c31 8041   4.000   0.419   2.184  0.8305  0.6431 -0.5074
 1031poe     o2 8042   4.082   0.449   2.294 -0.0591  0.2377  0.2765
 1031poe    c23 8043   4.012   0.443   2.417 -0.2250  0.1340  0.1761
 1031poe    c23 8044   4.083   0.486   2.546 -0.0434 -0.3147  0.2273
 1031poe     o2 8045   4.203   0.419   2.580  0.2894  0.0632 -0.2032
 1031poe    c23 8046   4.263   0.487   2.688  0.2486  0.3155 -0.3382
 1031poe    c23 8047   4.392   0.422   2.741  0.0256 -0.2492 -0.4744
 1031poe     o2 8048   4.481   0.412   2.632  0.0554 -0.0445 -0.4699
 1031poe    c23 8049   4.611   0.387   2.680 -0.1800 -0.3180  0.0308
 1031poe    c23 8050   4.692   0.332   2.561 -0.1521 -0.3183  0.0501
 1031poe     o2 8051   4.652   0.404   2.447 -0.5419 -0.4405  0.1051
 1031poe    c31 8052   4.734   0.377   2.336  0.1710  0.7696  0.3166
 1032poe    c31 8053   2.852   6.621   1.745 -0.2894 -0.2576  0.5099
 1032poe     o2 8054   2.894   6.747   1.790  0.1972 -0.1093 -0.3342
 1032poe    c23 8055   3.032   6.751   1.761  0.3014 -0.0907  0.1606
 1032poe    c23 8056   3.098   6.883   1.807 -0.2454  0.3212 -0.2181
 1032poe     o2 8057   3.049   6.871   1.939  0.2098  0.3128 -0.0478
 1032poe    c23 8058   3.109   6.961   2.029  0.6972 -0.4984  0.4481
 1032poe    c23 8059   2.997   6.991   2.130  0.3571 -0.0040 -0.0663
 1032poe     o2 8060   2.878   6.989   2.055 -0.1169 -0.3404  0.6759
 1032poe    c23 8061   2.763   7.027   2.128 -0.2044  1.0002 -0.1226
 1032poe    c23 8062   2.647   6.984   2.037  0.0457 -0.2871  0.1482
 1032poe     o2 8063   2.662   6.854   1.987 -0.1488 -0.5543  0.7656
 1032poe    c31 8064   2.536   6.802   1.951  0.0782 -0.0545 -0.8585
 1033poe    c31 8065   4.342   2.291   4.960  0.3618 -0.1968  0.6254
 1033poe     o2 8066   4.203   2.316   4.961  0.3696 -0.1450  0.4301
 1033poe    c23 8067   4.158   2.413   5.053 -0.3278 -0.7312  0.7175
 1033poe    c23 8068   4.024   2.463   4.997  0.1580  0.3833  0.5181
 1033poe     o2 8069   4.045   2.519   4.870  0.2030  0.7475  0.6846
 1033poe    c23 8070   3.936   2.584   4.809  0.0870  0.1260  0.2163
 1033poe    c23 8071   4.003   2.673   4.703 -0.6799  0.0284 -0.3643
 1033poe     o2 8072   4.048   2.585   4.603 -0.4707 -0.1809 -0.0901
 1033poe    c23 8073   4.067   2.656   4.482  0.7077  0.7075  0.5925
 1033poe    c23 8074   4.144   2.581   4.371 -0.2382  0.4006  0.1345
 1033poe     o2 8075   4.281   2.593   4.401 -0.2200 -0.1242  0.2791
 1033poe    c31 8076   4.360   2.505   4.325 -0.2990 -0.2667  0.3619
 1034poe    c31 8077   5.893   1.730   1.794 -0.4067 -0.8445  0.5176
 1034poe     o2 8078   5.769   1.794   1.773 -0.3291 -0.6509  0.6459
 1034poe    c23 8079   5.688   1.692   1.718  0.0001 -0.8454  0.5167
 1034poe    c23 8080   5.541   1.733   1.693  0.3960  0.3400  0.0558
 1034poe     o2 8081   5.497   1.810   1.803 -0.1763  0.2215 -0.0890
 1034poe    c23 8082   5.358   1.831   1.788 -0.2580 -0.0447  0.2795
 1034poe    c23 8083   5.302   1.855   1.929 -0.4694  0.8216  0.0539
 1034poe     o2 8084   5.399   1.934   1.994  0.0746  0.2606 -0.0628
 1034poe    c23 8085   5.354   1.962   2.125 -0.0183 -0.4634  0.0671
 1034poe    c23 8086   5.449   2.062   2.194 -0.5128  0.0412  0.0225
 1034poe     o2 8087   5.583   2.029   2.163 -0.5037  0.1069 -0.0101
 1034poe    c31 8088   5.682   2.062   2.256  0.0115 -0.5403 -0.3180
 1035poe    c31 8089   0.935   2.690   3.056 -0.0352  0.2855  0.2409
 1035poe     o2 8090   0.808   2.694   2.996  0.1119  0.2114 -0.0775
 1035poe    c23 8091   0.699   2.686   3.086  0.1917 -0.9717 -0.0753
 1035poe    c23 8092   0.660   2.819   3.151 -0.1384 -0.9238 -0.3716
 1035poe     o2 8093   0.604   2.899   3.049 -0.0424  0.0697  0.3409
 1035poe    c23 8094   0.552   3.021   3.098 -0.8806 -0.0833 -0.1456
 1035poe    c23 8095   0.555   3.118   2.978  0.7064 -0.0736 -0.1197
 1035poe     o2 8096   0.509   3.048   2.864  0.5426 -0.1655  0.0031
 1035poe    c23 8097   0.488   3.133   2.753 -0.1510  0.3559  0.5255
 1035poe    c23 8098   0.404   3.044   2.659  0.3388 -0.1442  0.5582
 1035poe     o2 8099   0.462   2.916   2.660 -0.8312 -0.6813  0.5402
 1035poe    c31 8100   0.418   2.837   2.552  0.1488 -0.4908 -0.0130
 1036poe    c31 8101   4.973   1.591   3.978 -0.0967  0.5188 -0.5784
 1036poe     o2 8102   5.047   1.471   3.976 -0.2575  0.4148 -0.3878
 1036poe    c23 8103   5.141   1.482   4.081  0.2770  0.0202 -0.8194
 1036poe    c23 8104   5.215   1.347   4.082  0.4514  0.1180  0.0210
 1036poe     o2 8105   5.128   1.248   4.032  0.1140  0.3814  0.0836
 1036poe    c23 8106   5.206   1.137   3.994 -0.5037 -0.1056  0.2308
 1036poe    c23 8107   5.109   1.029   3.943  0.2689 -0.5432 -0.3347
 1036poe     o2 8108   5.023   1.101   3.857 -0.5656 -0.7026  0.3588
 1036poe    c23 8109   4.892   1.048   3.861 -0.7238 -0.2996  0.5203
 1036poe    c23 8110   4.801   1.158   3.804 -0.2116 -0.1877 -0.0907
 1036poe     o2 8111   4.854   1.282   3.847 -0.0906 -0.4121  0.4164
 1036poe    c31 8112   4.779   1.386   3.788  0.2298 -0.5737 -0.2807
 1037poe    c31 8113   1.036   2.328   6.419 -0.5790  0.1850  0.0742
 1037poe     o2 8114   1.118   2.303   6.531  0.1080 -0.3839 -0.5445
 1037poe    c23 8115   1.033   2.288   6.642  0.1426  0.0680 -0.4547
 1037poe    c23 8116   1.131   2.216   6.737 -0.4407  0.3458  0.3765
 1037poe     o2 8117   1.248   2.295   6.734 -0.0300 -0.2676 -0.1437
 1037poe    c23 8118   1.357   2.227   6.792  0.1217  0.1318  0.0447
 1037poe    c23 8119   1.432   2.150   6.681 -0.2909  0.0284 -0.1662
 1037poe     o2 8120   1.447   2.246   6.579 -0.2190  0.2635  0.0661
 1037poe    c23 8121   1.482   2.194   6.453 -0.0448  0.2806  0.1077
 1037poe    c23 8122   1.480   2.326   6.373  0.0953  0.4610  0.3987
 1037poe     o2 8123   1.354   2.387   6.395  0.2646  0.6077  0.9758
 1037poe    c31 8124   1.337   2.495   6.307  0.4652 -0.0238  0.1419
 1038poe    c31 8125   0.025   6.860   0.220  0.0831  0.1013  0.4759
 1038poe     o2 8126   0.075   6.740   0.166 -0.2309  0.2933 -0.2620
 1038poe    c23 8127   0.050   6.712   0.030 -0.7577 -0.6045  0.0120
 1038poe    c23 8128   0.139   6.595  -0.015 -0.0803 -0.0142 -0.1938
 1038poe     o2 8129   0.103   6.470   0.037  0.1354 -0.1670 -0.4071
 1038poe    c23 8130   0.108   6.363  -0.055 -0.4846 -0.3618 -0.2212
 1038poe    c23 8131   0.012   6.263   0.012  0.0294 -0.7245 -0.0296
 1038poe     o2 8132   0.061   6.251   0.144  0.1677  0.1038 -0.0032
 1038poe    c23 8133   0.021   6.131   0.207 -0.4183  0.1986 -0.1914
 1038poe    c23 8134   0.078   6.116   0.349 -0.2104 -0.2056 -0.3183
 1038poe     o2 8135   0.060   6.239   0.415  0.0339 -0.1930 -0.2730
 1038poe    c31 8136   0.081   6.227   0.553 -0.6004 -0.8238 -0.2290
 1039poe    c31 8137   5.304   1.069   4.996 -0.3289  0.0328 -0.2610
 1039poe     o2 8138   5.263   0.970   4.905  0.0939  0.0450 -0.4666
 1039poe    c23 8139   5.297   1.001   4.772 -0.4583 -0.0466 -0.6337
 1039poe    c23 8140   5.266   0.879   4.682 -0.1656 -0.3050 -0.3872
 1039poe     o2 8141   5.147   0.822   4.732 -0.0323 -0.2581 -0.0085
 1039poe    c23 8142   5.068   0.752   4.638 -0.1457 -0.4418  0.2223
 1039poe    c23 8143   4.921   0.782   4.675 -0.0227  0.2270  0.1857
 1039poe     o2 8144   4.909   0.721   4.802  0.2568  0.7326  0.4606
 1039poe    c23 8145   4.777   0.739   4.849 -0.1678 -0.7714 -0.1020
 1039poe    c23 8146   4.765   0.668   4.985 -0.1385 -0.3100  0.1426
 1039poe     o2 8147   4.846   0.738   5.076  0.0789 -0.4580  0.0652
 1039poe    c31 8148   4.805   0.703   5.207 -0.2384 -0.4608 -0.0339
 1040poe    c31 8149   3.870   2.352   2.360 -0.1296  0.7904  0.3043
 1040poe     o2 8150   3.890   2.383   2.496  0.5060 -0.2117  0.4506
 1040poe    c23 8151   3.778   2.354   2.577  0.2584 -0.2362  0.0985
 1040poe    c23 8152   3.811   2.386   2.723  0.5015  0.3361 -0.0798
 1040poe     o2 8153   3.945   2.351   2.752  0.4991  0.0930 -0.3680
 1040poe    c23 8154   3.994   2.393   2.877  0.2205 -0.4979 -0.0578
 1040poe    c23 8155   4.144   2.398   2.842  0.2422 -0.1896  0.0741
 1040poe     o2 8156   4.146   2.449   2.710  0.4599 -0.4660 -0.0303
 1040poe    c23 8157   4.275   2.499   2.681  0.4127 -0.3632 -0.0606
 1040poe    c23 8158   4.249   2.563   2.543 -0.1431 -0.3307  0.0560
 1040poe     o2 8159   4.171   2.471   2.470 -0.3166 -0.1697  0.0378
 1040poe    c31 8160   4.194   2.467   2.331 -0.2796 -0.7296  0.0582
 1041poe    c31 8161   4.132   5.643   1.012  0.1983 -0.5103 -0.1801
 1041poe     o2 8162   4.231   5.545   0.994  0.3545 -0.3592 -0.1452
 1041poe    c23 8163   4.308   5.547   0.877 -0.1705  0.8380 -0.4816
 1041poe    c23 8164   4.439   5.628   0.871  0.3156  0.0940 -0.0332
 1041poe     o2 8165   4.532   5.546   0.940 -0.4557 -0.8137 -0.0462
 1041poe    c23 8166   4.651   5.617   0.968 -0.8791 -0.1328  0.0681
 1041poe    c23 8167   4.761   5.536   1.039 -0.2655  0.2866 -0.3945
 1041poe     o2 8168   4.712   5.481   1.159 -0.4411 -0.3669 -0.7609
 1041poe    c23 8169   4.810   5.407   1.230 -0.1366  0.9136  0.1834
 1041poe    c23 8170   4.744   5.368   1.364 -0.4170  0.1928 -0.1629
 1041poe     o2 8171   4.611   5.336   1.329 -0.4586 -0.2866  0.4378
 1041poe    c31 8172   4.552   5.288   1.449 -0.3478  0.5694  0.8396
 1042poe    c31 8173   0.477   5.934   1.162 -0.1704 -0.1689  0.3102
 1042poe     o2 8174   0.400   6.042   1.209  0.5302  0.4324  0.0920
 1042poe    c23 8175   0.278   6.053   1.139  0.5151  0.6974  0.1573
 1042poe    c23 8176   0.225   6.196   1.155 -0.0057  0.5268 -0.0308
 1042poe     o2 8177   0.165   6.228   1.279 -0.3664 -0.0315 -0.0615
 1042poe    c23 8178   0.145   6.366   1.298  0.3774  0.1111 -0.2844
 1042poe    c23 8179   0.093   6.379   1.442  0.0732 -0.2727 -0.3568
 1042poe     o2 8180   0.168   6.309   1.538  0.8409  0.6507 -0.2749
 1042poe    c23 8181   0.132   6.346   1.669 -0.1913 -0.1511 -0.3217
 1042poe    c23 8182   0.221   6.271   1.769  0.1079  0.0361 -0.4463
 1042poe     o2 8183   0.267   6.150   1.713  0.2908  0.0018 -0.2268
 1042poe    c31 8184   0.358   6.086   1.799 -0.2964  0.4537  0.7453
 1043poe    c31 8185   4.402   1.463   5.891  0.2290 -0.0430  0.1425
 1043poe     o2 8186   4.538   1.450   5.853  0.2112  0.2747 -0.0352
 1043poe    c23 8187   4.600   1.518   5.960 -0.3951  0.0664  0.4549
 1043poe    c23 8188   4.741   1.458   5.974 -0.4376 -0.1693 -0.1177
 1043poe     o2 8189   4.787   1.441   5.842 -0.1429  0.0615 -0.0453
 1043poe    c23 8190   4.910   1.373   5.844 -0.3162 -0.2583 -0.1783
 1043poe    c23 8191   4.918   1.316   5.701 -0.1089 -0.4370 -0.0956
 1043poe     o2 8192   4.793   1.274   5.651  0.1165 -0.5605 -0.5595
 1043poe    c23 8193   4.755   1.142   5.681 -0.1667 -0.3706 -0.0702
 1043poe    c23 8194   4.614   1.131   5.620 -0.2562  0.2274  0.0243
 1043poe     o2 8195   4.544   1.249   5.651  0.0388  0.2476  0.6367
 1043poe    c31 8196   4.412   1.247   5.599  0.2896  0.5928 -0.0199
 1044poe    c31 8197   3.265   5.398   2.408  0.7793 -0.1783 -0.4516
 1044poe     o2 8198   3.334   5.518   2.435  0.2256  0.1043 -0.2528
 1044poe    c23 8199   3.427   5.496   2.538 -0.4586 -0.0843  0.3308
 1044poe    c23 8200   3.473   5.630   2.600  0.5673 -0.3070  0.0814
 1044poe     o2 8201   3.526   5.704   2.492 -0.1719 -0.3173 -0.2952
 1044poe    c23 8202   3.609   5.811   2.530  0.1379 -0.5987 -0.1709
 1044poe    c23 8203   3.635   5.901   2.408 -0.5769  0.0837  0.1622
 1044poe     o2 8204   3.541   5.876   2.306 -0.2433  0.0415 -0.1393
 1044poe    c23 8205   3.599   5.850   2.180  0.1615  0.5129 -0.0536
 1044poe    c23 8206   3.482   5.788   2.101  0.3312 -0.4939  0.4666
 1044poe     o2 8207   3.430   5.681   2.177  0.9991 -0.6897  0.6521
 1044poe    c31 8208   3.356   5.595   2.093  0.5318  0.0405  0.3067
 1045poe    c31 8209   5.587   6.361   5.587 -0.2681  0.0120 -0.2506
 1045poe     o2 8210   5.666   6.447   5.665 -0.1077 -0.3560 -0.0033
 1045poe    c23 8211   5.636   6.436   5.803  0.5191 -0.0992  0.1618
 1045poe    c23 8212   5.734   6.543   5.853  0.2173  0.1646  0.1953
 1045poe     o2 8213   5.744   6.651   5.763 -0.0514  0.1660  0.1680
 1045poe    c23 8214   5.717   6.773   5.828 -0.2531 -0.0686  0.5266
 1045poe    c23 8215   5.778   6.890   5.749 -0.4004 -0.2949  0.0749
 1045poe     o2 8216   5.704   6.914   5.631  0.4022  0.1413 -0.3444
 1045poe    c23 8217   5.742   7.031   5.562 -0.1989  0.4357 -0.1765
 1045poe    c23 8218   5.677   7.054   5.424 -0.1249  0.3045 -0.2332
 1045poe     o2 8219   5.671   6.919   5.385 -0.0942  0.3884 -0.5314
 1045poe    c31 8220   5.600   6.925   5.263  0.2799  0.4912 -0.7432
 1046poe    c31 8221   6.827   4.135   4.410  0.2171 -0.0304  0.1736
 1046poe     o2 8222   6.722   4.046   4.382 -0.1910  0.3519  0.4687
 1046poe    c23 8223   6.633   4.032   4.490 -0.0275 -0.1939  0.5366
 1046poe    c23 8224   6.562   3.897   4.473  0.2849 -0.3000  0.0692
 1046poe     o2 8225   6.484   3.900   4.355  0.0412  0.1860  0.2413
 1046poe    c23 8226   6.486   3.783   4.277  0.0348  0.0211  0.4883
 1046poe    c23 8227   6.465   3.832   4.133 -0.1251 -0.3784  0.3720
 1046poe     o2 8228   6.565   3.929   4.109 -0.1799 -0.4640 -0.2322
 1046poe    c23 8229   6.558   3.963   3.973 -0.4200 -0.4574 -0.2182
 1046poe    c23 8230   6.694   4.031   3.946 -0.3934 -0.2842  0.3460
 1046poe     o2 8231   6.725   4.100   4.064  0.6988 -0.3344  0.0937
 1046poe    c31 8232   6.836   4.187   4.050  0.4830 -0.0237  0.2907
 1047poe    c31 8233   4.289   1.586   2.524  0.0333 -0.5611 -0.1488
 1047poe     o2 8234   4.158   1.570   2.475 -0.1526  0.0048  0.1577
 1047poe    c23 8235   4.139   1.634   2.351  0.3518 -0.5451 -0.2062
 1047poe    c23 8236   3.991   1.674   2.337  0.3676 -0.2320  0.4670
 1047poe     o2 8237   3.917   1.556   2.356 -0.2828  0.1009  0.0406
 1047poe    c23 8238   3.782   1.584   2.385 -0.2236 -0.0056  0.4288
 1047poe    c23 8239   3.717   1.452   2.432 -0.3254 -0.0930  0.0456
 1047poe     o2 8240   3.807   1.416   2.535 -0.3453 -0.0801  0.0673
 1047poe    c23 8241   3.740   1.340   2.633  0.0282 -0.1523  0.2657
 1047poe    c23 8242   3.698   1.424   2.754 -0.2035 -0.4660  0.4055
 1047poe     o2 8243   3.793   1.498   2.828 -0.2276 -0.1249  0.0960
 1047poe    c31 8244   3.722   1.581   2.918 -0.2126 -0.4538  0.4141
 1048poe    c31 8245   5.912   5.168   6.705 -0.1776  0.2987  0.5579
 1048poe     o2 8246   5.990   5.232   6.606 -0.9086 -0.1858 -0.3394
 1048poe    c23 8247   5.923   5.279   6.491 -0.7591 -0.1159 -0.3978
 1048poe    c23 8248   6.013   5.350   6.388  0.0252 -0.4082  0.0807
 1048poe     o2 8249   6.074   5.468   6.436 -0.3394  0.0306 -0.5236
 1048poe    c23 8250   5.991   5.582   6.442 -0.3515 -0.0108  0.1830
 1048poe    c23 8251   6.078   5.701   6.486  0.0920 -0.2970  0.0851
 1048poe     o2 8252   6.113   5.690   6.622 -0.1803  0.0497  0.1854
 1048poe    c23 8253   6.189   5.805   6.650 -0.1456 -0.0255  0.4070
 1048poe    c23 8254   6.284   5.749   6.757 -0.2412 -0.0764  0.4645
 1048poe     o2 8255   6.199   5.705   6.861 -0.0202 -0.5599  0.4427
 1048poe    c31 8256   6.272   5.707   6.981  0.7789  0.2224 -0.0444
 1049poe    c31 8257   2.070   6.050   0.961 -0.1506 -0.6509  0.2532
 1049poe     o2 8258   1.935   6.041   0.920 -0.0779 -0.1160 -0.1035
 1049poe    c23 8259   1.884   6.168   0.882  0.0689  0.0414  0.2239
 1049poe    c23 8260   1.795   6.162   0.757  0.1335 -0.4056  0.1959
 1049poe     o2 8261   1.705   6.061   0.796 -0.2373 -0.0964  0.1496
 1049poe    c23 8262   1.626   6.039   0.681  0.2887 -0.9085 -0.0683
 1049poe    c23 8263   1.496   5.960   0.702 -0.2911  0.0836  0.1270
 1049poe     o2 8264   1.530   5.830   0.745  0.0622  0.2273  0.2908
 1049poe    c23 8265   1.515   5.732   0.644  0.4580  0.1386  0.3158
 1049poe    c23 8266   1.555   5.588   0.679  0.9233  0.1594 -0.1110
 1049poe     o2 8267   1.562   5.509   0.563 -0.6148 -0.3150  0.0877
 1049poe    c31 8268   1.621   5.382   0.584 -0.7650 -0.3425  0.3500
 1050poe    c31 8269   3.947   4.145   4.771 -0.5866  0.0848  0.4151
 1050poe     o2 8270   3.953   4.157   4.630  0.5278  0.2938  0.4748
 1050poe    c23 8271   4.056   4.234   4.572  0.1737  0.3529 -0.0727
 1050poe    c23 8272   4.016   4.266   4.426 -0.3014  0.1165  0.0050
 1050poe     o2 8273   3.969   4.142   4.377 -0.7045  0.2010  0.1738
 1050poe    c23 8274   3.953   4.135   4.238  0.3333 -0.1339  0.0663
 1050poe    c23 8275   3.962   3.989   4.189  0.4894 -0.0943 -0.0264
 1050poe     o2 8276   3.898   3.911   4.288 -0.4662  0.1370 -0.4443
 1050poe    c23 8277   3.874   3.783   4.235  0.1136 -0.1018 -0.1438
 1050poe    c23 8278   3.765   3.708   4.313  0.1671 -0.2790 -0.2369
 1050poe     o2 8279   3.808   3.663   4.440  0.0861 -0.0869 -0.1408
 1050poe    c31 8280   3.843   3.528   4.422  0.3248 -0.0861  0.3133
 1051poe    c31 8281   5.926   2.474   0.905  0.2274 -0.0281  0.2942
 1051poe     o2 8282   6.028   2.390   0.855 -0.0515  0.0873 -0.4918
 1051poe    c23 8283   6.012   2.353   0.720 -0.2583  0.1083 -0.4727
 1051poe    c23 8284   6.096   2.225   0.708 -0.3938  0.0076 -0.3450
 1051poe     o2 8285   6.218   2.236   0.779 -0.4504 -0.4225 -0.1768
 1051poe    c23 8286   6.278   2.109   0.761 -0.0323 -0.1835 -0.4691
 1051poe    c23 8287   6.365   2.082   0.885 -0.2502 -0.6021 -0.4047
 1051poe     o2 8288   6.305   2.134   1.001  0.0570 -0.4075 -0.3292
 1051poe    c23 8289   6.385   2.076   1.102  0.4551  0.6257 -0.0361
 1051poe    c23 8290   6.386   2.168   1.225  0.6319  0.6202 -0.0336
 1051poe     o2 8291   6.261   2.192   1.286  0.6692  0.9111 -0.0691
 1051poe    c31 8292   6.225   2.117   1.399  0.3650  0.1027 -0.6903
 1052poe    c31 8293   6.300   2.458   5.608 -0.6341  0.1816 -0.0598
 1052poe     o2 8294   6.397   2.538   5.671 -0.1812 -0.7294  0.4205
 1052poe    c23 8295   6.456   2.452   5.767  0.1697 -0.5442  0.3726
 1052poe    c23 8296   6.514   2.547   5.874  0.1958 -0.5619  0.3741
 1052poe     o2 8297   6.548   2.666   5.806 -0.4367 -0.1175  0.8209
 1052poe    c23 8298   6.638   2.742   5.883  0.2189 -0.1164  0.0706
 1052poe    c23 8299   6.665   2.853   5.780 -0.7409  0.4548  0.4223
 1052poe     o2 8300   6.547   2.912   5.729 -0.7790 -0.3380 -0.4379
 1052poe    c23 8301   6.551   3.044   5.680 -0.2172 -0.3029 -0.2947
 1052poe    c23 8302   6.653   3.073   5.568 -0.6956  0.7879 -0.4588
 1052poe     o2 8303   6.657   2.973   5.468 -0.1679  0.4041 -0.0537
 1052poe    c31 8304   6.741   3.024   5.367  0.5524  0.5504  0.6086
 1053poe    c31 8305   6.517   5.500   1.342 -0.1044  0.3725 -0.4232
 1053poe     o2 8306   6.471   5.565   1.226 -0.7534 -0.0760 -0.4254
 1053poe    c23 8307   6.508   5.701   1.219  0.4438 -0.3691 -0.1518
 1053poe    c23 8308   6.428   5.766   1.105  0.3463 -0.3924 -0.0971
 1053poe     o2 8309   6.450   5.687   0.990  0.3010 -0.0671 -0.3329
 1053poe    c23 8310   6.378   5.746   0.885 -0.4250 -0.2001  0.0831
 1053poe    c23 8311   6.411   5.656   0.764  0.0354  0.0572  0.0162
 1053poe     o2 8312   6.405   5.521   0.804 -0.4911  0.0499 -0.0930
 1053poe    c23 8313   6.439   5.451   0.687 -0.0760  0.3716 -0.1663
 1053poe    c23 8314   6.416   5.299   0.699 -0.0718  0.3853  0.0313
 1053poe     o2 8315   6.509   5.254   0.795 -0.1087 -0.2840 -0.2387
 1053poe    c31 8316   6.535   5.116   0.807  0.1087 -0.2959 -0.8354
 1054poe    c31 8317   1.039   5.451   1.925  0.0530 -0.1358 -0.4977
 1054poe     o2 8318   1.048   5.314   1.960  0.0351  0.0298  0.1667
 1054poe    c23 8319   1.052   5.306   2.101 -0.2928  0.2034  0.1859
 1054poe    c23 8320   1.111   5.171   2.147  0.1358  0.2506 -0.2141
 1054poe     o2 8321   1.246   5.169   2.107  0.3524 -0.0487  0.5292
 1054poe    c23 8322   1.277   5.054   2.032  0.1383  0.4361 -0.3105
 1054poe    c23 8323   1.329   5.094   1.892  0.6132  0.0323 -0.2552
 1054poe     o2 8324   1.228   5.146   1.808  0.0240 -0.1900  0.3020
 1054poe    c23 8325   1.293   5.230   1.716 -0.3352 -0.3831 -0.1304
 1054poe    c23 8326   1.195   5.253   1.599 -0.2515  0.1976 -0.0877
 1054poe     o2 8327   1.075   5.277   1.669 -0.4507 -0.6192 -0.1449
 1054poe    c31 8328   0.992   5.331   1.570 -0.1185  0.3834  0.1051
 1055poe    c31 8329   3.816   1.886   5.409  0.5087 -0.0145  0.0155
 1055poe     o2 8330   3.903   1.958   5.324  0.1542 -0.1600 -0.4760
 1055poe    c23 8331   4.004   2.023   5.397 -0.2694 -0.3544  0.3020
 1055poe    c23 8332   4.120   2.036   5.295 -0.5958 -0.4334 -0.0832
 1055poe     o2 8333   4.118   1.934   5.198 -1.0067  0.0024 -0.5371
 1055poe    c23 8334   4.196   1.951   5.082  0.2643  0.8253  0.4063
 1055poe    c23 8335   4.098   1.958   4.963  0.1437  0.2916  0.4708
 1055poe     o2 8336   3.985   2.016   5.024  0.1664  0.5719  0.2500
 1055poe    c23 8337   3.875   2.036   4.938 -0.1018  0.4817  0.5685
 1055poe    c23 8338   3.743   2.035   5.017 -0.1814 -0.5642  0.4458
 1055poe     o2 8339   3.752   1.911   5.083 -0.1224 -0.3706  0.8020
 1055poe    c31 8340   3.626   1.847   5.082 -0.1954 -0.2510 -0.9262
 1056poe    c31 8341   6.621   0.997   4.838 -0.1044  0.3674  0.0713
 1056poe     o2 8342   6.638   0.922   4.956 -0.0418 -0.0502 -0.2028
 1056poe    c23 8343   6.778   0.910   4.969 -0.0286  0.1394 -0.1715
 1056poe    c23 8344   6.814   0.793   5.062  0.3051  0.4138  0.0488
 1056poe     o2 8345   6.805   0.814   5.202 -0.1443 -0.4087  0.1561
 1056poe    c23 8346   6.830   0.702   5.283 -0.8629 -0.2712  0.5728
 1056poe    c23 8347   6.823   0.757   5.427  0.4165 -0.0767  0.5703
 1056poe     o2 8348   6.698   0.821   5.437  0.3135 -0.1733 -0.0527
 1056poe    c23 8349   6.692   0.930   5.527 -0.0134 -0.0294 -0.2451
 1056poe    c23 8350   6.565   1.010   5.494  0.0788  0.4051  0.4501
 1056poe     o2 8351   6.589   1.033   5.357 -0.7355  0.1733  0.2649
 1056poe    c31 8352   6.495   1.127   5.309 -0.5952  0.3030  0.2415
 1057poe    c31 8353   2.618   2.915   4.850  0.1587  0.1262 -0.3326
 1057poe     o2 8354   2.506   2.837   4.816  0.2148 -0.1673  0.1403
 1057poe    c23 8355   2.402   2.869   4.906 -0.2623 -0.2000 -0.3854
 1057poe    c23 8356   2.277   2.782   4.890 -0.4134 -0.0418 -0.0803
 1057poe     o2 8357   2.255   2.781   4.750  0.2285  0.1247 -0.1837
 1057poe    c23 8358   2.144   2.708   4.704  0.2571 -0.0034 -0.0508
 1057poe    c23 8359   2.180   2.664   4.561  0.2503  0.1665 -0.1040
 1057poe     o2 8360   2.308   2.606   4.557  0.0965 -0.1772 -0.0062
 1057poe    c23 8361   2.307   2.521   4.445 -0.3076  0.0971 -0.2089
 1057poe    c23 8362   2.453   2.484   4.411 -0.3127 -0.1809  0.0698
 1057poe     o2 8363   2.532   2.435   4.517 -0.6522 -0.3197  0.2620
 1057poe    c31 8364   2.653   2.381   4.467 -0.6778  0.0705 -0.2343
 1058poe    c31 8365   0.043   6.490   5.469  0.0686 -0.6546  0.1839
 1058poe     o2 8366   0.175   6.450   5.498  0.2383 -0.1728  0.0852
 1058poe    c23 8367   0.221   6.377   5.387 -0.5835 -0.4437 -0.0884
 1058poe    c23 8368   0.351   6.299   5.416 -0.3864 -0.0670  0.0545
 1058poe     o2 8369   0.431   6.405   5.462 -0.1741 -0.1210 -0.1905
 1058poe    c23 8370   0.559   6.367   5.509 -0.3004 -0.0825  0.1858
 1058poe    c23 8371   0.618   6.491   5.578  0.0677 -0.5353  0.6923
 1058poe     o2 8372   0.504   6.526   5.654 -0.2320 -0.0407  0.0238
 1058poe    c23 8373   0.511   6.654   5.715  0.0262 -0.0552  0.0284
 1058poe    c23 8374   0.379   6.662   5.793 -0.1062  0.0855 -0.2081
 1058poe     o2 8375   0.271   6.631   5.708  0.1777  0.2267 -0.6230
 1058poe    c31 8376   0.172   6.727   5.735  0.1495  0.0204  0.0384
 1059poe    c31 8377   4.050   4.010   2.553  0.5143  0.1950 -0.6728
 1059poe     o2 8378   4.042   3.952   2.424 -0.6214 -0.6983 -0.2201
 1059poe    c23 8379   3.929   3.986   2.347 -0.0072  0.4159 -0.6490
 1059poe    c23 8380   3.916   3.894   2.224 -0.1624  0.1955 -0.4688
 1059poe     o2 8381   4.046   3.873   2.174  0.1085 -0.1066  0.3577
 1059poe    c23 8382   4.036   3.768   2.081  0.4180  0.0860  0.1036
 1059poe    c23 8383   4.180   3.730   2.040  0.4001  0.2426 -0.1052
 1059poe     o2 8384   4.256   3.702   2.155  0.1156  0.4283  0.1306
 1059poe    c23 8385   4.356   3.607   2.129 -0.5139 -0.3733  0.6094
 1059poe    c23 8386   4.453   3.619   2.248  0.3628 -0.2847 -0.1037
 1059poe     o2 8387   4.388   3.587   2.370 -0.1421 -0.2357 -0.3584
 1059poe    c31 8388   4.479   3.553   2.473  0.1612  0.0294 -0.5355
 1060poe    c31 8389   0.356   6.425   3.079  0.7013 -0.6001  0.6684
 1060poe     o2 8390   0.406   6.550   3.121 -0.3834  0.0426  0.1042
 1060poe    c23 8391   0.483   6.620   3.026 -0.5176 -0.4337 -0.3624
 1060poe    c23 8392   0.481   6.769   3.064  0.1031 -0.4492 -0.2555
 1060poe     o2 8393   0.346   6.803   3.088  0.1050 -0.4857 -0.1939
 1060poe    c23 8394   0.328   6.940   3.114 -0.1411 -0.3757 -0.9522
 1060poe    c23 8395   0.178   6.930   3.149  0.0994 -0.1748  0.1456
 1060poe     o2 8396   0.135   6.825   3.233  0.1125 -0.4455 -0.1836
 1060poe    c23 8397   0.181   6.844   3.365 -0.0668  0.1783 -0.2094
 1060poe    c23 8398   0.191   6.703   3.426 -0.8603  0.0156 -0.4347
 1060poe     o2 8399   0.264   6.617   3.342 -0.4574 -0.1711  0.0998
 1060poe    c31 8400   0.239   6.485   3.386  0.6407 -0.3461  0.2312
 1061poe    c31 8401   2.464   5.407   6.288  0.2491  0.1284  0.3378
 1061poe     o2 8402   2.337   5.461   6.258  0.1941 -0.1091  0.1442
 1061poe    c23 8403   2.325   5.508   6.126 -0.4069  0.5130  0.4140
 1061poe    c23 8404   2.189   5.577   6.107 -0.3513  0.3237 -0.7387
 1061poe     o2 8405   2.084   5.500   6.161  0.2290 -0.0122 -0.0741
 1061poe    c23 8406   1.970   5.582   6.174  0.1339 -0.0259 -0.7811
 1061poe    c23 8407   1.859   5.477   6.193 -0.2467  0.4477 -0.3673
 1061poe     o2 8408   1.908   5.413   6.309 -0.1059 -0.4644 -0.9264
 1061poe    c23 8409   1.828   5.298   6.331  0.0921 -0.5198 -0.5102
 1061poe    c23 8410   1.931   5.215   6.410  0.0870  0.5452  0.6511
 1061poe     o2 8411   2.064   5.247   6.374  0.1620 -0.1808  0.2663
 1061poe    c31 8412   2.152   5.157   6.438  0.6374  0.2584  0.2343
 1062poe    c31 8413   1.543   0.453   2.865 -0.0879  0.0005  0.0274
 1062poe     o2 8414   1.479   0.459   2.740 -0.6744 -0.4928  0.2961
 1062poe    c23 8415   1.558   0.412   2.634 -0.4897  0.4523 -0.0011
 1062poe    c23 8416   1.464   0.363   2.521 -0.1609  0.0259 -0.0950
 1062poe     o2 8417   1.379   0.458   2.462  0.4379  0.6093 -0.0334
 1062poe    c23 8418   1.259   0.395   2.424  0.5385  0.0212  0.6192
 1062poe    c23 8419   1.141   0.409   2.523 -0.1267  0.3461 -0.2096
 1062poe     o2 8420   1.108   0.546   2.515 -0.1800  0.3500  0.0926
 1062poe    c23 8421   0.998   0.584   2.594 -0.3352  0.0157  0.0398
 1062poe    c23 8422   0.999   0.556   2.746 -0.2456  0.0302  0.0417
 1062poe     o2 8423   1.115   0.616   2.799  0.0651 -0.0886 -0.4899
 1062poe    c31 8424   1.123   0.616   2.940 -0.4254  0.0756 -0.4578
 1063poe    c31 8425   2.429   0.587   2.850 -0.3453  0.4266 -0.0463
 1063poe     o2 8426   2.390   0.666   2.740 -0.1841  0.0862 -0.3483
 1063poe    c23 8427   2.345   0.794   2.778  0.3530  0.2498 -0.2531
 1063poe    c23 8428   2.292   0.871   2.656 -0.0400  0.4325  0.0309
 1063poe     o2 8429   2.363   0.829   2.541 -0.7148 -0.0743 -0.2038
 1063poe    c23 8430   2.302   0.865   2.419 -0.0335 -0.3303 -0.6190
 1063poe    c23 8431   2.375   0.800   2.299  0.3880 -0.4201 -0.3178
 1063poe     o2 8432   2.355   0.661   2.312  0.3694 -0.4182 -0.3259
 1063poe    c23 8433   2.373   0.597   2.188  0.7266 -0.2044 -0.3858
 1063poe    c23 8434   2.378   0.443   2.202  0.1088 -0.1957 -0.0396
 1063poe     o2 8435   2.265   0.397   2.273  0.3812 -0.1443  0.4290
 1063poe    c31 8436   2.237   0.259   2.265  0.0341 -0.0606  0.2117
 1064poe    c31 8437   0.775   0.882   2.733 -0.1752 -0.4394  0.0795
 1064poe     o2 8438   0.823   1.008   2.693 -0.0030 -0.7444 -0.6866
 1064poe    c23 8439   0.749   1.054   2.582 -0.5331 -0.3195 -0.1670
 1064poe    c23 8440   0.805   1.191   2.541  0.0025 -0.5617 -0.2560
 1064poe     o2 8441   0.813   1.261   2.663  0.2846 -0.2133 -0.4716
 1064poe    c23 8442   0.829   1.400   2.648  0.5307 -0.1699  0.1911
 1064poe    c23 8443   0.889   1.451   2.781  0.3726 -0.1026  0.2368
 1064poe     o2 8444   0.931   1.333   2.845  0.0850 -0.2463  0.1643
 1064poe    c23 8445   1.003   1.354   2.965  0.5126  0.1063 -0.1497
 1064poe    c23 8446   1.087   1.226   2.949  0.3550 -0.0144 -0.0041
 1064poe     o2 8447   1.005   1.119   2.907  0.0041  0.3663 -0.2998
 1064poe    c31 8448   1.091   1.007   2.895  0.2041  0.5314 -0.4158
 1065poe    c31 8449   2.270   2.110   1.284  0.6889  0.3631 -0.3602
 1065poe     o2 8450   2.266   2.141   1.146 -0.2441  0.0778 -0.4021
 1065poe    c23 8451   2.132   2.136   1.103 -0.3439 -0.2949 -0.0525
 1065poe    c23 8452   2.121   2.147   0.950  0.7107 -0.1491 -0.1224
 1065poe     o2 8453   2.165   2.279   0.926  0.0141  0.0642 -0.2390
 1065poe    c23 8454   2.147   2.318   0.792 -0.0426  0.0900 -0.2241
 1065poe    c23 8455   2.227   2.449   0.776  0.2388 -0.1007 -0.4056
 1065poe     o2 8456   2.357   2.429   0.827  0.0708  0.3635  0.2077
 1065poe    c23 8457   2.442   2.539   0.802  0.2532  0.2130  0.1729
 1065poe    c23 8458   2.584   2.494   0.843  0.1477  0.1932  0.5181
 1065poe     o2 8459   2.569   2.435   0.970  0.1759 -0.0203  0.4242
 1065poe    c31 8460   2.693   2.386   1.016  0.1074 -0.2537  0.3596
 1066poe    c31 8461   6.398   6.340   3.648  0.1821 -0.5868  0.0466
 1066poe     o2 8462   6.392   6.278   3.521 -0.3794 -0.3287 -0.0584
 1066poe    c23 8463   6.314   6.358   3.436 -0.1343 -0.2575 -0.2169
 1066poe    c23 8464   6.282   6.289   3.302 -0.2952  0.1548 -0.3930
 1066poe     o2 8465   6.398   6.215   3.273 -0.0207  0.5577 -0.3375
 1066poe    c23 8466   6.389   6.139   3.154  0.2992  0.1853 -0.1275
 1066poe    c23 8467   6.533   6.091   3.130  0.4030  0.4590 -0.0646
 1066poe     o2 8468   6.598   6.060   3.251  0.0510  0.2218  0.0667
 1066poe    c23 8469   6.730   6.028   3.215  0.0779  0.0523  0.3124
 1066poe    c23 8470   6.840   6.010   3.322 -0.3602  0.0200  0.7573
 1066poe     o2 8471   6.877   6.134   3.377  0.0042  0.1994  0.1157
 1066poe    c31 8472   7.000   6.122   3.445 -0.2332  0.0721  0.5227
 1067poe    c31 8473   5.049   6.332   2.311 -0.8460 -0.3875  0.2378
 1067poe     o2 8474   5.148   6.244   2.264 -0.0558  0.5828  0.0669
 1067poe    c23 8475   5.113   6.208   2.132 -0.0252  0.0009  0.2154
 1067poe    c23 8476   5.252   6.215   2.067 -0.0983  0.5464  0.1108
 1067poe     o2 8477   5.344   6.141   2.145 -0.2918  0.0748 -0.1020
 1067poe    c23 8478   5.471   6.136   2.083 -0.2223 -0.7115  0.0958
 1067poe    c23 8479   5.565   6.022   2.123 -0.0900 -0.6219  0.0406
 1067poe     o2 8480   5.596   6.036   2.260  0.2849 -0.1389 -0.0925
 1067poe    c23 8481   5.726   6.089   2.278  0.2790 -0.0686 -0.2521
 1067poe    c23 8482   5.744   6.139   2.423  0.0549 -0.6159 -0.0303
 1067poe     o2 8483   5.662   6.251   2.444  0.7122 -0.1510  0.0909
 1067poe    c31 8484   5.668   6.288   2.580 -0.2471  0.1336  0.0694
 1068poe    c31 8485   1.562   4.535   6.742 -0.5441 -0.2165 -0.2439
 1068poe     o2 8486   1.526   4.607   6.857 -0.2159 -0.1054 -0.2089
 1068poe    c23 8487   1.393   4.654   6.847 -0.0887  0.1988 -0.4604
 1068poe    c23 8488   1.373   4.727   6.981  0.2366 -0.2935 -0.1426
 1068poe     o2 8489   1.469   4.829   6.997  0.0334 -0.1164 -0.0520
 1068poe    c23 8490   1.446   4.908   7.112 -0.0978  0.3306 -0.3838
 1068poe    c23 8491   1.581   4.951   7.173 -0.1177  0.0680 -0.1520
 1068poe     o2 8492   1.665   5.006   7.073  0.2457 -0.8025 -0.3324
 1068poe    c23 8493   1.789   5.054   7.119 -0.1880  0.0718 -0.0616
 1068poe    c23 8494   1.875   5.102   7.001 -0.0608  0.0912  0.0388
 1068poe     o2 8495   1.850   5.020   6.889 -0.0140  0.0759  0.0393
 1068poe    c31 8496   1.921   5.063   6.776  0.4296  0.1510  0.3424
 1069poe    c31 8497   5.671   3.227   2.439  0.0826  0.2019 -0.4517
 1069poe     o2 8498   5.638   3.137   2.542  0.0612  0.3826 -0.3019
 1069poe    c23 8499   5.558   3.034   2.491  0.3318  0.1883 -0.3386
 1069poe    c23 8500   5.452   3.009   2.600  0.0825  0.3413 -0.5421
 1069poe     o2 8501   5.526   2.970   2.714 -0.5484  0.0952 -0.2129
 1069poe    c23 8502   5.469   2.959   2.843 -0.1708  0.1789 -0.0394
 1069poe    c23 8503   5.590   2.930   2.933 -0.4988 -0.5810  0.1571
 1069poe     o2 8504   5.699   3.006   2.887 -0.5247 -0.5932  0.0773
 1069poe    c23 8505   5.825   2.958   2.928 -0.4565  0.0591  0.6523
 1069poe    c23 8506   5.919   3.039   2.837 -0.9402 -0.1494 -0.0370
 1069poe     o2 8507   5.855   3.021   2.712 -0.1107 -0.1210 -0.4760
 1069poe    c31 8508   5.943   3.012   2.602  0.5528 -0.3156  0.0658
 1070poe    c31 8509   3.834   3.985   3.705 -0.2981 -0.1221  0.1152
 1070poe     o2 8510   3.897   4.102   3.658 -0.3773  0.1230  0.6153
 1070poe    c23 8511   3.837   4.212   3.724 -1.0542  0.3828 -0.4114
 1070poe    c23 8512   3.906   4.343   3.682  0.3133  0.0151  0.6160
 1070poe     o2 8513   3.932   4.326   3.544 -0.0882 -0.4262  0.5911
 1070poe    c23 8514   4.000   4.424   3.469 -0.5264 -0.5555  0.0207
 1070poe    c23 8515   4.000   4.374   3.323 -1.1526  0.1235 -0.2223
 1070poe     o2 8516   4.019   4.235   3.341  0.6082  0.3850  0.0914
 1070poe    c23 8517   4.010   4.159   3.222  0.2345 -0.3030  0.5503
 1070poe    c23 8518   4.071   4.024   3.262  0.5653 -0.2900  0.1035
 1070poe     o2 8519   4.003   4.001   3.383  0.0765 -0.0141 -0.1144
 1070poe    c31 8520   3.994   3.864   3.416  0.7115 -0.0824 -0.2089
 1071poe    c31 8521   2.553   6.067   5.361 -0.0319 -0.1150 -0.1593
 1071poe     o2 8522   2.448   6.121   5.284  0.0948  0.1636 -0.1395
 1071poe    c23 8523   2.349   6.190   5.357 -0.1662 -0.5440  0.1846
 1071poe    c23 8524   2.208   6.195   5.296 -0.4139  0.7158  0.8288
 1071poe     o2 8525   2.205   6.271   5.178 -0.2806  0.6092  0.7569
 1071poe    c23 8526   2.074   6.274   5.126 -0.2502  0.1436  0.6499
 1071poe    c23 8527   2.072   6.215   4.984  0.2137  0.1898  0.6216
 1071poe     o2 8528   2.185   6.254   4.909 -0.0565 -0.2160 -0.0096
 1071poe    c23 8529   2.199   6.187   4.786  0.0596  0.1277 -0.1846
 1071poe    c23 8530   2.332   6.224   4.717  0.1381  0.3313  0.0756
 1071poe     o2 8531   2.427   6.223   4.821 -0.1664 -0.4724  0.3547
 1071poe    c31 8532   2.559   6.236   4.773 -0.4126  0.1159 -0.1751
 1072poe    c31 8533   5.637   4.236   3.044  0.9888  0.3642  0.1207
 1072poe     o2 8534   5.702   4.188   3.160 -0.2171 -0.8133  0.3404
 1072poe    c23 8535   5.622   4.180   3.275 -0.4383 -0.0274  0.2485
 1072poe    c23 8536   5.663   4.070   3.376 -0.5310 -0.1457  0.1563
 1072poe     o2 8537   5.776   4.092   3.456 -0.1029 -0.1249 -0.4437
 1072poe    c23 8538   5.798   3.972   3.529 -0.1790 -0.1504 -0.4634
 1072poe    c23 8539   5.949   3.942   3.525 -0.1789 -0.2242  0.0404
 1072poe     o2 8540   6.017   4.065   3.535  0.0481 -0.3697  0.2588
 1072poe    c23 8541   6.153   4.037   3.561 -0.0607 -0.6959  0.5037
 1072poe    c23 8542   6.199   4.158   3.645 -0.4369 -0.4000  0.2898
 1072poe     o2 8543   6.145   4.270   3.580 -0.0287 -0.5012 -0.2273
 1072poe    c31 8544   6.220   4.385   3.612 -1.0175  0.1145 -0.0798
 1073poe    c31 8545   1.496   5.596   6.274 -0.2278 -0.6083 -0.6387
 1073poe     o2 8546   1.381   5.629   6.200 -0.3308  0.1255 -0.1657
 1073poe    c23 8547   1.306   5.737   6.249 -0.1876  0.2092 -0.1290
 1073poe    c23 8548   1.181   5.733   6.159 -0.2530  1.1990 -0.0935
 1073poe     o2 8549   1.218   5.773   6.029 -0.0199  0.1331 -0.3639
 1073poe    c23 8550   1.113   5.794   5.938 -0.2919  0.1385 -0.0507
 1073poe    c23 8551   1.175   5.817   5.799 -0.1694 -1.0647 -0.2098
 1073poe     o2 8552   1.269   5.712   5.793  0.8819 -0.1426 -0.3208
 1073poe    c23 8553   1.347   5.712   5.676 -0.1495 -0.0843 -1.0258
 1073poe    c23 8554   1.475   5.638   5.718 -0.5623 -0.2223  0.0161
 1073poe     o2 8555   1.506   5.680   5.849  0.1683  0.2266 -0.2917
 1073poe    c31 8556   1.625   5.615   5.885 -0.3683 -0.6335 -0.0333
 1074poe    c31 8557   6.419   4.255   1.804 -0.4329  0.0687  0.2110
 1074poe     o2 8558   6.353   4.174   1.710  0.3665 -0.3647  0.0108
 1074poe    c23 8559   6.251   4.246   1.644  0.6495 -0.3826 -0.4467
 1074poe    c23 8560   6.150   4.144   1.588 -0.2871  0.6295 -0.6400
 1074poe     o2 8561   6.205   4.077   1.476 -0.0329  0.0078 -0.1498
 1074poe    c23 8562   6.110   3.990   1.419 -0.3160  0.1726  0.0702
 1074poe    c23 8563   6.169   3.957   1.281  0.3414  0.4679  0.2774
 1074poe     o2 8564   6.299   3.903   1.294  0.3301  0.4052  0.1278
 1074poe    c23 8565   6.366   3.912   1.170  0.2252  0.3499  0.0671
 1074poe    c23 8566   6.516   3.900   1.200  0.2947  0.0724 -0.3861
 1074poe     o2 8567   6.545   3.967   1.320  0.2588  0.3245 -0.5163
 1074poe    c31 8568   6.684   3.972   1.342  0.0178  0.5693  1.0628
 1075poe    c31 8569   3.600   5.828   4.564 -0.4127 -0.5446  0.0413
 1075poe     o2 8570   3.671   5.871   4.678 -0.2610  0.3974 -0.3932
 1075poe    c23 8571   3.697   5.768   4.771 -0.1794  0.4397 -0.3696
 1075poe    c23 8572   3.768   5.848   4.882  0.1480 -0.1924 -0.1187
 1075poe     o2 8573   3.880   5.913   4.826  0.1977  0.0244  0.2294
 1075poe    c23 8574   3.965   5.981   4.915  0.1326  0.6757 -0.1977
 1075poe    c23 8575   4.082   6.019   4.822  0.4445 -0.6261 -0.3573
 1075poe     o2 8576   4.030   6.075   4.703 -0.1110  0.2237  0.2744
 1075poe    c23 8577   4.124   6.162   4.644 -0.1941 -0.0532 -0.2695
 1075poe    c23 8578   4.078   6.247   4.525 -0.0456 -0.0181 -0.3020
 1075poe     o2 8579   3.964   6.305   4.584  0.3304  0.0817  0.3300
 1075poe    c31 8580   3.905   6.403   4.502 -0.1324 -0.0494  0.4995
 1076poe    c31 8581   4.600   2.630   5.999 -0.4491 -0.3050  0.2065
 1076poe     o2 8582   4.484   2.550   6.004 -0.5839 -0.1192  0.0479
 1076poe    c23 8583   4.432   2.538   5.873  0.0877 -0.0929 -0.2263
 1076poe    c23 8584   4.343   2.413   5.884 -0.1819  0.1279  0.1056
 1076poe     o2 8585   4.426   2.315   5.943 -0.0949 -0.0232 -0.2630
 1076poe    c23 8586   4.380   2.184   5.922 -0.3294 -0.0203  0.2049
 1076poe    c23 8587   4.488   2.108   6.001 -0.1431  0.1130  0.0786
 1076poe     o2 8588   4.511   2.181   6.120 -0.0448 -0.4348  0.3973
 1076poe    c23 8589   4.641   2.161   6.169  0.0788 -0.1024  0.2035
 1076poe    c23 8590   4.662   2.269   6.277  0.2098 -0.0096  0.0857
 1076poe     o2 8591   4.650   2.391   6.208  0.4892 -0.5437 -0.9229
 1076poe    c31 8592   4.700   2.493   6.292 -0.5100 -0.9413  0.1833
 1077poe    c31 8593   3.949   6.639   1.485  0.3715  0.4121 -0.1439
 1077poe     o2 8594   4.025   6.529   1.529  0.3144  0.5706  0.3679
 1077poe    c23 8595   4.137   6.582   1.596  0.6011  0.5313 -0.0694
 1077poe    c23 8596   4.228   6.460   1.620  0.1514  0.3343  0.6854
 1077poe     o2 8597   4.140   6.349   1.622  0.3388  0.1436 -0.5082
 1077poe    c23 8598   4.199   6.226   1.590  0.3733  0.0845 -0.2202
 1077poe    c23 8599   4.095   6.114   1.607  0.0078  0.5306  0.5306
 1077poe     o2 8600   3.972   6.148   1.547  0.2691  0.1277 -0.2480
 1077poe    c23 8601   3.884   6.045   1.587  0.2850  0.0640 -0.3769
 1077poe    c23 8602   3.746   6.075   1.525  0.1842  0.0816 -0.1458
 1077poe     o2 8603   3.700   6.203   1.562  0.1269  0.0861 -0.2323
 1077poe    c31 8604   3.563   6.217   1.529 -0.0460  0.1071  0.4642
 1078poe    c31 8605   4.691   6.249   1.552 -0.4611 -0.4838 -0.3577
 1078poe     o2 8606   4.740   6.176   1.662  1.1478  0.2833 -0.5369
 1078poe    c23 8607   4.732   6.042   1.618  0.2985  0.0625  0.2728
 1078poe    c23 8608   4.777   5.952   1.734 -0.1393 -0.3749  0.1111
 1078poe     o2 8609   4.685   5.948   1.840 -0.5639 -0.2745 -0.2529
 1078poe    c23 8610   4.693   5.823   1.906 -0.2287 -0.2325 -0.2148
 1078poe    c23 8611   4.652   5.842   2.054  0.1737 -0.2982 -0.0935
 1078poe     o2 8612   4.549   5.938   2.056  0.1309 -0.3438 -0.0961
 1078poe    c23 8613   4.550   5.976   2.192  0.4421  0.3799 -0.2928
 1078poe    c23 8614   4.438   6.081   2.201  0.1527  0.0361  0.1773
 1078poe     o2 8615   4.461   6.177   2.100 -0.4306 -0.1235 -0.1158
 1078poe    c31 8616   4.395   6.299   2.122 -0.6719 -0.1383 -0.7333
 1079poe    c31 8617   3.983   3.466   1.006  0.0269  0.8367  0.6747
 1079poe     o2 8618   3.983   3.531   0.880  0.0359 -0.3196  0.0668
 1079poe    c23 8619   3.908   3.650   0.885 -0.2404 -0.4792 -0.2306
 1079poe    c23 8620   3.932   3.758   0.778  0.6975 -0.2398  0.2085
 1079poe     o2 8621   3.897   3.704   0.652 -0.0104  0.0133  0.2900
 1079poe    c23 8622   3.967   3.757   0.542  0.6565 -0.0406  0.6791
 1079poe    c23 8623   3.891   3.724   0.412  0.4454  0.2248  0.7334
 1079poe     o2 8624   3.839   3.594   0.426  0.2907  0.2885  0.7472
 1079poe    c23 8625   3.829   3.531   0.300 -0.4188  0.4726  0.7070
 1079poe    c23 8626   3.728   3.415   0.316 -0.0237  0.0404  0.1189
 1079poe     o2 8627   3.741   3.369   0.449  0.3427  0.2495  0.1569
 1079poe    c31 8628   3.681   3.243   0.470  0.3697  0.2346  0.1454
 1080poe    c31 8629   3.938   4.208   1.975  0.1065  0.0537  0.0715
 1080poe     o2 8630   3.820   4.178   2.046 -0.0734  1.0527  0.2025
 1080poe    c23 8631   3.799   4.265   2.155 -0.6031  0.9162  0.2136
 1080poe    c23 8632   3.660   4.256   2.220 -0.7938 -0.1318 -0.3209
 1080poe     o2 8633   3.623   4.123   2.247  0.0136 -0.2263  0.3652
 1080poe    c23 8634   3.500   4.119   2.317 -0.1636  0.0361  0.0704
 1080poe    c23 8635   3.465   3.974   2.354 -0.3976  0.0175 -0.2211
 1080poe     o2 8636   3.473   3.888   2.243 -0.2999 -0.3109  0.0382
 1080poe    c23 8637   3.475   3.752   2.278 -0.2299 -0.2676  0.2033
 1080poe    c23 8638   3.438   3.670   2.152  0.1091 -0.1567  0.0312
 1080poe     o2 8639   3.506   3.722   2.040 -0.4721  0.6362  0.0409
 1080poe    c31 8640   3.501   3.637   1.927 -0.0370 -0.3793  0.7786
 1081lim     li 8641   5.452   4.470   5.368 -0.3973 -0.3107 -0.6883
 1082lim     li 8642   6.346   1.840   3.404  0.0169  0.0974 -0.3839
 1083lim     li 8643   5.650   5.456   5.729  0.8358 -0.5619 -0.4442
 1084lim     li 8644   5.687   3.274   2.033 -1.2353  0.1526 -0.9011
 1085lim     li 8645   5.844   0.192   1.182  0.4627 -0.0097 -0.1665
 1086lim     li 8646   1.277   2.370   6.577  1.4899  0.0486  0.4645
 1087lim     li 8647   2.696   1.087   6.256  0.8687 -0.6202 -0.5299
 1088lim     li 8648   5.524   0.569   3.345 -0.4650  0.6089 -0.0851
 1089lim     li 8649   5.796   1.096   2.799 -0.7810  0.3155 -0.0469
 1090lim     li 8650   3.078   5.878   4.389 -0.0522 -1.0455 -0.6909
 1091lim     li 8651   5.909   2.639   3.145  0.4992  0.4552 -0.1278
 1092lim     li 8652   0.487   5.113   2.688 -0.4269 -0.2433 -0.2000
 1093lim     li 8653   0.155   4.363   5.872 -0.0804  0.1575  0.0373
 1094lim     li 8654   3.385   6.426   2.141 -0.4132 -0.3845  1.4506
 1095lim     li 8655   3.969   0.727   3.615 -0.2530  0.4250  0.0898
 1096lim     li 8656   1.286   1.534   4.343  1.1539  0.8471 -0.1362
 1097lim     li 8657   6.833   6.424   4.594 -0.3540  0.1850  0.2657
 1098lim     li 8658   6.463   3.371   3.595  0.0624 -0.1229  0.9164
 1099lim     li 8659   4.557   5.402   1.190  0.2916 -1.1119  0.8291
 1100lim     li 8660   1.356   5.705   5.950 -0.1862 -0.3998  0.6936
 1101lim     li 8661   4.595   2.000   2.038 -0.3804  0.3050 -1.0433
 1102lim     li 8662   6.164   2.310   0.933 -1.8728  0.2236 -0.3824
 1103lim     li 8663   1.765   0.014   5.344 -0.5637  0.9685 -0.0891
 1104lim     li 8664   0.864   5.143   3.516  1.0065 -0.2249 -0.7354
 1105lim     li 8665   0.490   6.760   0.840  0.8864 -0.8939  0.2766
 1106lim     li 8666   1.258   4.499   2.055  0.4084  0.0688 -0.9092
 1107lim     li 8667   3.410   5.729   2.347 -0.2244  0.2753  0.3501
 1108lim     li 8668   4.405   3.209   0.764  0.3046  0.4376 -0.0635
 1109lim     li 8669   0.045   1.843   2.051  0.1426 -0.7404 -0.3040
 1110lim     li 8670   5.918   2.723   6.846  0.5860  0.6336  0.7925
 1111lim     li 8671   3.680   3.356   6.663 -0.6304 -0.1494 -0.4197
 1112lim     li 8672   6.879   5.637   4.795 -0.8351  0.6094 -0.4445
 1113lim     li 8673   5.746   6.599   5.598 -0.1061  0.9640  0.1541
 1114lim     li 8674   5.460   0.316   3.940  0.0149  0.3815  0.6532
 1115lim     li 8675   2.708   0.746   1.177 -0.6537  0.8094  1.2458
 1116lim     li 8676   1.295   4.495   4.514 -0.1636 -0.0755 -0.1769
 1117lim     li 8677   0.657   2.272   2.649  0.0791  0.3311 -0.2182
 1118lim     li 8678   2.679   5.381   5.642 -0.5852  0.1292  0.8813
 1119lim     li 8679   4.707   4.880   4.398  0.0438 -0.0091 -0.2344
 1120lim     li 8680   0.232   3.573   4.821  0.3572  0.6212 -0.7143
 1121lim     li 8681   3.420   2.650   6.044  0.2277 -0.0943 -0.2112
 1122lim     li 8682   1.347   0.668   2.497  1.0697  0.5851 -0.6785
 1123lim     li 8683   6.002   6.297   6.346 -0.5863  0.6765  0.2785
 1124lim     li 8684   6.644   0.702   0.098 -0.2227  1.4491 -0.1004
 1125lim     li 8685   1.417   4.423   3.643  0.6395  0.6636  0.4044
 1126lim     li 8686   6.762   0.388   2.488  0.0894  0.4144 -0.4671
 1127lim     li 8687   3.040   3.438   6.055  0.1696 -0.5386  0.1605
 1128lim     li 8688   4.202   4.822   2.465  0.4277  0.7193 -1.0936
 1129lim     li 8689   6.877   4.118   0.966  0.2704 -0.7377  0.3358
 1130lim     li 8690   6.554   3.712   2.547 -0.0290 -0.2982  0.1322
 1131lim     li 8691   5.564   1.897   1.963 -0.1166 -0.7071 -0.2053
 1132lim     li 8692   1.101   6.484   2.468 -0.9204  0.4911  1.1475
 1133lim     li 8693   1.320   3.696   0.775 -0.0683 -0.0099 -0.0433
 1134lim     li 8694   4.188   2.407   0.013 -0.0683 -0.1951  0.4732
 1135lim     li 8695   4.211   0.810   4.737  0.5194  1.0697 -0.3443
 1136lim     li 8696   0.449   0.601   4.778  1.1417  0.6719  0.0824
 1137lim     li 8697   0.039   4.775   1.196  0.2520 -0.2007  1.3094
 1138lim     li 8698   2.420   2.727   4.669 -0.6017  0.0281 -0.6675
 1139lim     li 8699   6.694   2.679   4.389 -0.0846  0.1836  0.3856
 1140lim     li 8700   0.984   0.888   1.620  0.5189 -0.5827 -0.0937
 1141lim     li 8701   6.023   6.305   0.324 -0.7253  0.0520  0.6819
 1142lim     li 8702   4.464   0.409   2.442  0.6338 -0.0875 -1.8925
 1143lim     li 8703   5.448   0.925   0.928  1.5079  0.1456  0.0137
 1144lim     li 8704   1.737   0.928   3.481  0.1993 -0.3609 -0.9175
 1145lim     li 8705   5.307   6.162   2.319  0.2567  0.1393  0.2387
 1146lim     li 8706   5.605   6.046   4.864 -0.1553  0.6820  1.5572
 1147lim     li 8707   6.221   4.391   6.757  0.9161 -1.1715  0.3203
 1148lim     li 8708   3.208   2.712   1.478 -0.3546 -0.2358 -0.0400
 1149lim     li 8709   1.639   6.547   4.793 -0.5785 -0.9727 -0.3418
 1150lim     li 8710   0.708   4.085   4.547  0.5583 -0.4009 -0.0710
 1151lim     li 8711   3.372   1.031   6.680 -1.1022  0.2356  0.2900
 1152lim     li 8712   1.494   5.423   2.517  0.2764 -0.3235 -0.2843
 1153lim     li 8713   4.504   6.656   4.605 -0.0214  0.4623 -0.4828
 1154lim     li 8714   1.748   2.938   4.961  0.4297  0.3219 -0.3265
 1155lim     li 8715   4.487   4.287   2.815 -0.3834 -0.5105 -1.2926
 1156lim     li 8716   5.423   3.698   5.822 -0.3191 -0.1127  0.3829
 1157lim     li 8717   3.668   5.231   3.095  0.0486  0.8031 -0.0132
 1158lim     li 8718   3.062   4.766   4.646  0.7678  1.1888 -0.8135
 1159lim     li 8719   3.164   2.444   3.315  0.3448  0.3522  0.5234
 1160lim     li 8720   6.382   0.764   3.187 -0.6718  0.5823 -0.9421
 1161lim     li 8721   3.925   1.897   5.155 -1.1220  0.0910  0.2674
 1162lim     li 8722   6.500   6.158   3.420 -0.0841  0.5243 -0.4742
 1163lim     li 8723   0.252   6.656   3.169  0.5894 -0.4364 -0.3587
 1164lim     li 8724   2.184   1.654   2.813  0.3472 -0.9883  0.6013
 1165lim     li 8725   3.727   6.488   3.494  0.4649  0.5679  0.1775
 1166lim     li 8726   3.275   3.963   4.709 -0.0657  0.4852 -0.4728
 1167lim     li 8727   6.609   2.608   6.555  0.8627 -0.1170 -0.0857
 1168lim     li 8728   2.357   0.004   5.899  0.8339  0.1275  0.4876
 1169lim     li 8729   6.105   1.639   4.140 -0.5036 -1.4483  0.5868
 1170lim     li 8730   5.118   0.856   4.913 -0.1702 -0.1197  0.2714
 1171lim     li 8731   2.116   1.830   6.514  1.5014 -0.4074  1.0453
 1172lim     li 8732   3.447   1.805   0.492  0.3929 -0.3128  0.0776
 1173lim     li 8733   5.731   3.111   5.980 -1.6757  0.2006 -0.1241
 1174lim     li 8734   4.352   0.631   0.481  0.5165 -0.2824  0.8247
 1175lim     li 8735   4.649   2.844   3.360  1.6623 -0.0924 -0.3071
 1176lim     li 8736   4.658   0.524   4.210  0.0757  0.8056 -0.0645
 1177lim     li 8737   0.792   2.505   0.940 -1.0664 -0.2700  0.4995
 1178lim     li 8738   1.353   2.793   3.445 -0.1045  0.7729  0.4930
 1179lim     li 8739   1.846   3.494   3.555  0.9378  0.1257 -0.0903
 1180lim     li 8740   2.019   6.097   6.258  0.3210 -0.5795 -0.7883
 1181lim     li 8741   4.980   2.576   3.982  0.2016 -0.4117  0.0307
 1182lim     li 8742   2.505   0.138   0.517  0.3576  0.2159  0.0195
 1183lim     li 8743   6.447   3.760   0.352 -0.3405 -0.4963  0.2051
 1184lim     li 8744   4.494   2.378   6.112  0.0736 -0.8221  0.4710
 1185lim     li 8745   0.418   0.745   5.957  0.7893  1.2510  0.5454
 1186lim     li 8746   1.726   1.998   1.590  0.2900  0.2879  0.8000
 1187lim     li 8747   4.137   3.878   6.730  0.7803 -0.4238 -0.2321
 1188lim     li 8748   2.831   4.429   1.487  0.2473  0.2714 -0.7726
 1189lim     li 8749   4.928   5.522   0.445  0.6582  0.8072  0.1847
 1190lim     li 8750   1.796   4.634   1.180  1.1044  0.4740  0.6282
 1191lim     li 8751   1.662   0.702   2.048 -0.3055 -0.7454 -0.3704
 1192lim     li 8752   2.127   5.394   6.298 -0.8894  0.7755  0.2046
 1193lim     li 8753   0.735   3.564   1.216  0.6278  0.0517  0.3948
 1194lim     li 8754   3.555   0.896   0.644 -0.2617 -0.8177 -0.3399
 1195lim     li 8755   5.318   2.146   3.457 -0.0159 -0.8723  0.2733
 1196lim     li 8756   6.771   2.721   3.470  0.7233 -0.0403  0.3807
 1197lim     li 8757   4.322   5.637   6.694 -0.6673  0.9790  0.1474
 1198lim     li 8758   2.700   0.173   3.761  0.1287 -0.0193 -0.4969
 1199lim     li 8759   1.066   3.273   6.173  0.9978 -0.3258  0.0264
 1200lim     li 8760   5.894   1.744   0.205  0.3364 -0.6631  0.8622
 1201lim     li 8761   6.129   1.809   2.504  1.2739 -0.1476  0.9888
 1202lim     li 8762   5.300   1.029   6.705 -0.8256  0.6574 -0.5049
 1203lim     li 8763   1.451   4.597   5.810 -0.4100  1.7738 -0.2904
 1204lim     li 8764   2.317   5.483   3.106  0.3897 -0.1192 -0.4982
 1205lim     li 8765   5.628   5.148   4.943 -0.5162  0.0881  1.0240
 1206lim     li 8766   4.602   4.783   3.683  0.3709  0.6238 -1.0987
 1207lim     li 8767   5.508   1.132   2.042  0.2541 -0.5419  0.0454
 1208lim     li 8768   5.633   1.500   3.632  0.1162 -0.6243  0.1399
 1209lim     li 8769   5.005   0.945   2.690  0.4634  0.2791 -0.9158
 1210lim     li 8770   6.370   3.341   4.550  0.7158 -0.0396  0.6608
 1211lim     li 8771   4.383   5.301   5.373  0.8583  0.9783 -0.5964
 1212lim     li 8772   3.640   6.113   0.590  0.1407  0.5182  0.2884
 1213lim     li 8773   4.657   1.161   1.802  1.2894  1.0020 -0.0144
 1214lim     li 8774   6.386   4.735   3.387  0.3106  0.8203  0.4630
 1215lim     li 8775   0.161   0.978   3.908  0.5033 -0.6610 -0.2437
 1216lim     li 8776   5.385   1.693   1.018  0.1357  0.0817  0.8077
 1217lim     li 8777   4.953   3.239   5.424  1.0388  0.6482 -0.0687
 1218lim     li 8778   6.184   1.633   5.193  0.8578  0.8394 -0.1268
 1219lim     li 8779   2.248   6.663   1.454 -0.5112 -0.2028  0.2779
 1220lim     li 8780   5.802   3.698   4.249  0.3028  0.7308  0.9595
 1221lim     li 8781   1.197   1.387   5.383 -0.1582 -0.6120 -0.4048
 1222lim     li 8782   5.521   1.494   4.683 -0.3950 -0.7560  0.3236
 1223lim     li 8783   1.353   5.544   0.022 -1.1211  0.4514  1.4507
 1224lim     li 8784   5.023   1.305   3.892 -0.1651 -1.0975  0.3153
 1225lim     li 8785   3.172   4.576   5.808  0.5736 -0.2388 -0.2111
 1226lim     li 8786   0.826   1.014   0.543  0.2817  0.0857  0.2918
 1227lim     li 8787   2.771   1.016   0.198 -0.2921 -0.6836 -0.5095
 1228lim     li 8788   0.872   1.174   2.820  0.0474  0.6563 -0.1005
 1229lim     li 8789   5.373   6.383   1.086 -1.0018 -1.8822  0.0863
 1230lim     li 8790   4.292   1.619   4.171  0.7818  0.5548  0.1203
 1231lim     li 8791   1.368   6.337   5.796 -0.4220 -0.3868  1.1751
 1232lim     li 8792   6.745   6.397   2.374  0.6826  0.5473  0.8964
 1233lim     li 8793   3.981   4.140   3.499  0.4834  0.5589  0.6137
 1234lim     li 8794   2.370   4.745   5.492  0.0449  0.1115  0.2736
 1235lim     li 8795   6.076   4.639   2.752  0.5077  0.2291  0.6326
 1236lim     li 8796   2.498   1.998   4.987  1.2588 -0.4798  0.4158
 1237lim     li 8797   4.655   1.385   5.719  0.1227 -0.3140  0.4783
 1238lim     li 8798   4.538   4.842   6.008 -0.2002 -0.3029  0.1543
 1239lim     li 8799   6.519   5.192   5.490  1.2565  0.1594  0.1017
 1240lim     li 8800   1.786   5.943   0.906  0.5176  0.5373  0.8853
 1241lim     li 8801   6.465   5.517   0.982  0.4715  1.0546 -0.3664
 1242lim     li 8802   0.303   3.585   3.506  0.4818 -0.2597 -0.0156
 1243lim     li 8803   2.496   3.922   0.582 -0.5255  0.0148  0.4445
 1244lim     li 8804   3.589   5.120   3.886 -0.1012  0.2988 -0.0554
 1245lim     li 8805   1.261   0.418   5.868  0.0120  0.7945  0.2166
 1246lim     li 8806   3.759   6.434   6.715  0.3044  0.0140  0.9395
 1247lim     li 8807   1.827   0.582   1.079 -0.1274 -0.0095  1.0678
 1248lim     li 8808   4.009   6.659   2.634 -1.3070  0.7442 -0.3131
 1249lim     li 8809   2.734   0.171   4.720 -0.3169  0.1370 -0.6664
 1250lim     li 8810   5.323   4.746   5.984  0.5623  0.9455  0.3823
 1251lim     li 8811   5.920   4.203   3.486 -0.4420  1.3357  0.3089
 1252lim     li 8812   5.184   3.444   1.643  0.9287  0.3448 -0.6184
 1253lim     li 8813   2.351   2.946   3.949  0.0026  1.0438  1.1273
 1254lim     li 8814   0.332   6.532   5.565 -0.1947  0.9589 -0.2922
 1255lim     li 8815   4.575   6.254   6.412  0.6590 -1.3555  0.2318
 1256lim     li 8816   6.667   0.895   5.278  1.0135  0.4864 -0.1467
 1257lim     li 8817   2.977   3.395   3.530  0.4919 -0.3904 -0.2963
 1258lim     li 8818   1.690   1.471   6.037 -0.6906  0.5867 -0.3058
 1259lim     li 8819   5.710   2.485   4.260  0.9577  0.0002 -0.5226
 1260lim     li 8820   6.306   5.336   4.066 -0.5096  0.6137  0.3056
 1261lim     li 8821   2.338   6.243   5.005  0.1644 -0.2274 -0.2862
 1262lim     li 8822   0.914   5.982   4.915 -0.5527  0.5714  0.2414
 1263lim     li 8823   4.138   2.459   4.704  0.4336  0.3433 -0.5214
 1264lim     li 8824   3.052   3.027   4.339  0.9210  0.6600  0.1388
 1265lim     li 8825   4.568   6.126   0.846 -0.6225  0.3432 -0.4508
 1266lim     li 8826   6.088   5.597   6.770 -1.0179  1.2844 -0.1116
 1267lim     li 8827   1.527   1.988   4.953  0.4513  0.2193  0.0175
 1268lim     li 8828   6.137   5.015   1.793 -0.2336 -0.9862  0.2234
 1269lim     li 8829   3.155   0.047   1.154  0.7448 -0.2622 -1.3150
 1270lim     li 8830   2.280   1.442   4.245 -0.4278  0.6993  0.7001
 1271lim     li 8831   4.081   2.275   0.816  0.4126 -1.2129  0.6050
 1272lim     li 8832   3.788   0.144   0.281  0.3634  0.3467 -0.2422
 1273lim     li 8833   5.243   5.429   4.209 -0.3548 -0.4718 -0.3709
 1274lim     li 8834   2.906   3.830   6.833 -0.2546  0.0698 -0.9477
 1275lim     li 8835   3.195   4.656   2.588  0.7021 -0.6731 -0.5953
 1276lim     li 8836   3.439   3.738   5.479  1.1857  0.8773 -0.4390
 1277lim     li 8837   0.055   1.843   5.608  0.9085 -0.1687  1.5453
 1278lim     li 8838   3.870   0.080   4.131  0.7391 -0.0902  0.8502
 1279lim     li 8839   0.424   1.334   5.370  0.3213 -0.3179  0.2486
 1280lim     li 8840   3.767   2.950   2.287 -0.0085  0.4474 -0.2349
 1281lim     li 8841   3.777   3.510   0.567 -0.6216 -0.2814  0.6704
 1282lim     li 8842   2.430   5.168   2.525 -0.7883  1.0262  0.6797
 1283lim     li 8843   1.033   1.900   1.655  1.5683  0.8732  0.4909
 1284lim     li 8844   2.796   2.461   6.708  0.2647 -0.3870  0.8644
 1285lim     li 8845   1.641   4.197   0.382 -0.4510  0.8444 -0.5436
 1286lim     li 8846   6.643   4.036   4.222 -0.1455  0.1003 -0.1060
 1287lim     li 8847   0.853   2.384   4.953 -0.1345  0.2474 -0.3799
 1288lim     li 8848   1.853   4.601   2.844 -0.3463  0.0869 -0.8248
 1289lim     li 8849   5.717   0.158   2.632  0.1595 -0.0069  0.1299
 1290lim     li 8850   3.906   1.062   1.322  0.2001  0.2790  0.2270
 1291lim     li 8851   0.079   6.413   0.206 -0.2367  0.4536  0.0808
 1292lim     li 8852   4.922   5.972   5.278 -0.6777 -0.2766  0.1689
 1293lim     li 8853   5.673   4.711   0.407  0.2830  0.9046 -0.9021
 1294lim     li 8854   5.401   5.345   3.455  0.0433 -1.1342 -0.2129
 1295lim     li 8855   4.004   1.473   2.521 -0.5255 -0.5772  0.2344
 1296lim     li 8856   2.291   5.608   4.267  0.3813  0.1864  0.3237
 1297lim     li 8857   0.433   0.260   1.477 -0.3197 -0.4385 -0.9491
 1298lim     li 8858   0.840   3.652   3.792  0.1443 -0.2038 -0.5471
 1299lim     li 8859   5.924   3.475   6.652  0.1461 -0.2747 -0.0648
 1300lim     li 8860   4.027   6.243   5.550 -0.6354 -0.2437  0.1375
 1301lim     li 8861   1.240   5.189   5.206  0.1799  0.7353 -0.4125
 1302lim     li 8862   2.193   5.964   2.257 -0.9615  0.5562  0.8257
 1303lim     li 8863   0.063   4.927   2.404 -0.8162  0.6206  0.1929
 1304lim     li 8864   4.951   6.339   4.038  0.2073 -0.1959 -0.0274
 1305lim     li 8865   1.929   2.704   1.595 -0.6302  1.4812 -0.6866
 1306lim     li 8866   1.557   2.906   4.196 -0.1884  0.5894  0.0424
 1307lim     li 8867   4.879   3.987   3.986  1.0436  0.4092  0.5239
 1308lim     li 8868   1.190   6.801   1.357 -1.0890  0.5730  1.0157
 1309lim     li 8869   3.936   1.952   5.999 -0.6419  0.1073  0.7855
 1310lim     li 8870   5.656   3.810   0.759  0.5008  0.1856 -0.9102
 1311lim     li 8871   2.767   5.885   1.621  0.1357  0.2557 -0.6074
 1312lim     li 8872   2.283   0.994   5.924 -0.7454  0.2194  0.8429
 1313lim     li 8873   3.198   4.206   3.260 -0.7618 -0.1640 -0.0182
 1314lim     li 8874   1.571   6.097   3.995  0.0398  0.0109  0.4571
 1315lim     li 8875   0.223   6.138   1.541 -0.8057 -0.4211  0.1578
 1316lim     li 8876   2.395   0.660   2.561  0.0718 -0.3165 -0.4356
 1317lim     li 8877   5.371   4.373   6.460 -0.1111  0.5083 -0.5471
 1318lim     li 8878   0.591   0.586   3.129 -0.4048 -0.2326 -0.3668
 1319lim     li 8879   6.147   2.849   1.304 -0.6350  0.0658  0.9301
 1320lim     li 8880   4.236   4.806   0.220  0.0637  1.0398  1.1822
 1321lim     li 8881   1.305   1.956   3.017  0.0185 -0.1577 -0.2779
 1322lim     li 8882   4.738   2.987   6.595 -1.0488  0.7803  0.6234
 1323lim     li 8883   6.291   6.783   5.379  0.0238  0.0822 -0.3757
 1324lim     li 8884   2.420   1.728   0.591 -0.4835 -1.0396 -0.2767
 1325lim     li 8885   2.280   2.538   2.656  0.9835  0.2640  0.0441
 1326lim     li 8886   2.852   6.854   1.943  0.1635 -0.4440  0.0660
 1327lim     li 8887   1.251   5.172   0.832 -0.1793  0.8928  0.1762
 1328lim     li 8888   6.744   1.977   2.899 -0.1850  0.5820  1.1457
 1329lim     li 8889   4.458   0.476   1.424 -1.0189 -0.1203 -0.3818
 1330lim     li 8890   1.817   3.871   2.559 -0.0260  1.0070 -1.0508
 1331lim     li 8891   2.989   2.825   2.497  0.0030 -1.1419 -0.1547
 1332lim     li 8892   0.285   3.012   1.405  0.5470  0.7887  0.1453
 1333lim     li 8893   6.563   6.340   1.481 -0.1513  0.8919  0.3530
 1334lim     li 8894   1.372   2.013   3.839  0.1084 -1.0793  0.3395
 1335lim     li 8895   1.030   1.845   0.920 -0.8087 -0.9831  1.2739
 1336lim     li 8896   6.331   5.719   2.309 -0.2323  0.0902 -0.5081
 1337lim     li 8897   0.494   3.867   0.230  0.3008 -0.4860 -0.6155
 1338lim     li 8898   6.374   4.020   1.414  0.0611 -0.1087  0.7271
 1339lim     li 8899   0.573   3.632   2.100 -0.2386  0.6177 -0.2195
 1340lim     li 8900   1.669   1.441   0.452 -0.0668 -0.2186 -1.2167
 1341lim     li 8901   4.205   2.392   3.420  0.2584  0.2408  0.6650
 1342lim     li 8902   1.059   5.203   1.825 -1.2840  0.6065 -0.0169
 1343lim     li 8903   5.709   5.444   2.429 -0.6044 -0.5685  0.8991
 1344lim     li 8904   1.667   4.913   0.037  0.3879 -0.6413 -0.7979
 1345lim     li 8905   4.803   1.038   0.960 -0.0598  1.0079  0.0931
 1346lim     li 8906   5.036   4.399   1.575 -1.9083 -0.3804  0.1342
 1347lim     li 8907   1.971   3.981   6.361  0.5152  0.7325 -0.7716
 1348lim     li 8908   4.966   3.640   0.854  0.2087  1.7182  1.1067
 1349lim     li 8909   2.033   5.543   5.395 -0.7464 -0.9385 -0.9255
 1350lim     li 8910   5.055   3.052   4.798  0.0426 -0.9802  0.9734
 1351lim     li 8911   3.041   1.643   5.899 -0.6951 -0.3756  0.2005
 1352lim     li 8912   3.539   1.742   6.622 -0.3249 -0.4828  1.5393
 1353lim     li 8913   2.091   1.189   5.163 -0.7770 -0.1445  0.3014
 1354lim     li 8914   4.042   2.356   2.602  0.6847  0.6510  0.2248
 1355lim     li 8915   4.039   2.685   1.242 -0.2075  0.5438 -0.1329
 1356lim     li 8916   2.929   0.750   5.318 -0.1945  0.9601 -0.3818
 1357lim     li 8917   3.806   5.561   6.030  0.3692 -1.0023  0.5789
 1358lim     li 8918   0.997   4.503   2.830 -0.6482  0.0298 -0.0517
 1359lim     li 8919   2.583   3.107   1.607 -0.2557  0.2863  0.2507
 1360lim     li 8920   3.919   4.883   4.861  1.4731 -0.2767 -0.4288
 1361lim     li 8921   4.478   4.524   1.057 -1.0340  0.3972 -0.0556
 1362lim     li 8922   2.127   2.472   3.481  0.9705  0.8724  0.4495
 1363lim     li 8923   6.129   0.532   6.248  0.5620  0.1196 -0.2972
 1364lim     li 8924   2.832   4.961   6.692 -0.9726 -0.0701  0.0514
 1365lim     li 8925   3.607   0.161   1.715 -0.8231 -0.4893 -0.4873
 1366lim     li 8926   5.693   5.629   1.602 -0.9215  0.1186 -0.0639
 1367lim     li 8927   5.892   4.254   4.713  0.4728 -0.7767 -0.2247
 1368lim     li 8928   6.834   4.759   0.144  0.3782  0.0697  0.3837
 1369lim     li 8929   0.613   5.896   6.782 -0.6892  0.1694 -1.7702
 1370lim     li 8930   5.342   2.195   4.829  0.0004  0.6997  0.5771
 1371lim     li 8931   5.178   4.615   0.885 -0.8414 -0.7382  0.5215
 1372lim     li 8932   5.911   3.855   2.717  0.3060 -0.2089 -0.1888
 1373lim     li 8933   4.714   4.015   4.855 -0.1986 -0.0062  0.3845
 1374lim     li 8934   1.046   0.098   3.702 -0.0402  0.4439 -0.4590
 1375lim     li 8935   0.892   5.145   6.141  0.6499  0.0742 -0.4000
 1376lim     li 8936   0.621   6.569   6.183 -0.3530  0.4263  0.6289
 1377lim     li 8937   5.586   6.459   3.457  0.4089  0.6454 -0.1938
 1378lim     li 8938   6.552   5.363   6.348  0.4315 -0.4300  0.0042
 1379lim     li 8939   4.333   0.767   5.991 -0.0674 -0.5466  0.2062
 1380lim     li 8940   4.551   6.100   1.942  0.1778  0.7027  0.0118
 1381lim     li 8941   4.839   1.680   5.185  0.1205  0.3886  0.5294
 1382lim     li 8942   4.553   3.007   1.922  1.2807 -0.2569 -1.3707
 1383lim     li 8943   5.604   6.768   2.119 -0.6522  0.7995 -0.4840
 1384lim     li 8944   0.441   5.514   5.632  1.3094  0.1757 -0.3033
 1385lim     li 8945   2.810   1.450   2.691 -0.4730  0.1200 -0.9896
 1386lim     li 8946   4.109   1.523   1.064 -0.9962 -0.2580  0.2381
 1387lim     li 8947   5.072   6.741   5.697  0.7258 -0.7908  1.6030
 1388lim     li 8948   2.075   6.669   0.793  0.5790  0.2168  0.6837
 1389lim     li 8949   0.572   0.442   2.252  0.0772  0.1456 -0.0168
 1390lim     li 8950   3.384   1.380   4.377 -0.1297  0.2036 -0.7831
 1391lim     li 8951   2.843   3.071   0.867 -1.1350  0.2019 -1.3337
 1392lim     li 8952   6.590   3.305   6.353  1.2436  0.7199 -0.4594
 1393lim     li 8953   2.807   3.818   2.145  0.3443 -0.6630 -0.5674
 1394lim     li 8954   1.584   3.477   2.308  0.9032 -1.0791  1.0373
 1395lim     li 8955   2.485   0.785   4.259  0.1513 -1.5648  1.0208
 1396lim     li 8956   1.502   3.605   4.314  0.2693 -0.1041 -0.7331
 1397lim     li 8957   4.619   0.038   1.046  0.7091 -0.9586 -0.3419
 1398lim     li 8958   0.025   1.887   6.675 -0.4287 -0.6935  0.2931
 1399lim     li 8959   6.713   1.867   4.733  0.4408  1.2621 -0.8048
 1400lim     li 8960   0.972   1.405   6.379  0.0397 -1.0110  0.8496
 1401lim     li 8961   5.479   6.829   0.659  0.7061 -1.1389 -0.0241
 1402lim     li 8962   4.562   3.969   1.442 -0.5012  0.6278  0.0256
 1403lim     li 8963   5.205   0.306   1.820  1.1419 -0.1666  0.8259
 1404lim     li 8964   4.055   3.322   3.695 -0.8267 -0.9752  0.0349
 1405lim     li 8965   3.031   2.121   4.301  0.1717 -1.0119  0.2026
 1406lim     li 8966   4.855   3.350   2.615 -0.9356  0.1203  0.9144
 1407lim     li 8967   3.615   0.548   4.867 -0.0246 -0.6270  0.9957
 1408lim     li 8968   0.229   5.937   4.029 -0.1720 -0.3955 -0.3605
 1409lim     li 8969   4.280   2.862   5.103  0.0742 -0.8364 -1.7921
 1410lim     li 8970   4.135   6.578   0.447 -0.1755 -0.1023 -0.3651
 1411lim     li 8971   1.917   2.443   6.810  0.0741 -1.0431 -0.8467
 1412lim     li 8972   2.701   3.387   2.880 -0.3573 -0.4885  0.0497
 1413lim     li 8973   5.921   6.104   4.218 -0.5420  0.1388  0.8328
 1414lim     li 8974   4.374   5.475   4.598 -0.0706  0.9950 -0.3422
 1415lim     li 8975   1.537   2.651   2.460  1.1304 -0.7123  0.4594
 1416lim     li 8976   6.488   1.419   6.103 -0.1965  0.5864  0.8623
 1417lim     li 8977   5.773   6.627   1.577 -0.3334 -0.3108  0.6437
 1418lim     li 8978   1.134   0.718   4.073  0.4608  0.8544 -0.0256
 1419lim     li 8979   1.417   0.628   4.939  0.3186 -1.1703 -0.6185
 1420lim     li 8980   5.102   2.036   2.731 -0.7976  0.2050 -0.0516
 1421lim     li 8981   3.979   4.272   5.753  0.3303 -0.0184 -0.8858
 1422lim     li 8982   6.696   4.238   4.981  0.8851 -0.9219  0.4793
 1423lim     li 8983   3.177   5.746   5.619  0.5037 -0.3493 -0.5318
 1424lim     li 8984   5.198   6.268   6.521  0.0407 -0.0114 -0.6068
 1425lim     li 8985   3.093   6.310   6.135 -0.9469  0.0023  0.2817
 1426lim     li 8986   0.251   4.761   3.851 -1.1734  0.1105  0.0261
 1427lim     li 8987   3.523   5.117   5.413  0.5550 -0.1261 -0.0104
 1428lim     li 8988   0.045   5.037   4.666 -0.0836  0.1610  0.0092
 1429lim     li 8989   5.010   3.649   3.373 -0.3281  0.6309  0.3046
 1430lim     li 8990   5.835   0.933   0.283 -0.4206 -0.0272  0.4688
 1431lim     li 8991   0.399   4.935   6.376 -0.6490  1.0506 -0.1687
 1432lim     li 8992   2.235   3.212   6.571  0.6190 -0.9780 -1.0711
 1433lim     li 8993   4.943   2.272   1.345 -0.0984  0.1426 -0.6714
 1434lim     li 8994   3.240   2.425   0.264  0.1471 -0.2931  0.1598
 1435lim     li 8995   6.226   0.221   4.628  0.4152  0.5153  0.2598
 1436lim     li 8996   5.940   0.204   6.832  0.5199  0.4638  0.5761
 1437lim     li 8997   3.887   4.055   4.497 -0.1700 -1.0262  0.4379
 1438lim     li 8998   4.431   3.338   4.543 -0.0269 -0.5416  1.5429
 1439lim     li 8999   3.445   4.425   6.719  0.5469  0.5735  0.1086
 1440lim     li 9000   0.173   4.250   1.970  1.0360 -0.0765 -0.7780
 1441lim     li 9001   3.768   3.394   1.471  0.7808 -0.1526 -0.7303
 1442lim     li 9002   0.671   0.273   5.331  0.7293 -1.6145 -0.7052
 1443lim     li 9003   1.082   4.251   6.516 -1.8308 -0.2633  0.6284
 1444lim     li 9004   3.037   0.216   6.669 -0.2266 -0.2657 -0.2383
 1445lim     li 9005   4.401   0.055   6.265  1.1351  0.2802  1.0530
 1446lim     li 9006   4.976   5.622   6.147 -0.5804  0.6973  0.0043
 1447lim     li 9007   6.343   0.168   1.860 -0.7981  0.0504  0.2383
 1448lim     li 9008   6.114   4.856   1.090 -0.5072  1.1845  0.0433
 1449lim     li 9009   3.117   5.934   2.786  0.2075 -0.8227 -0.1072
 1450lim     li 9010   1.263   5.988   2.946  0.0350  0.6487  0.2381
 1451lim     li 9011   0.852   3.104   4.786 -0.3426  0.0301 -0.8816
 1452lim     li 9012   3.471   0.480   6.037  0.0651 -1.0895  1.0912
 1453lim     li 9013   1.915   1.193   1.087 -0.4681  0.8464  0.3559
 1454lim     li 9014   1.933   0.376   3.261  0.0137 -0.0253 -0.1863
 1455lim     li 9015   5.590   5.518   0.841 -0.2461 -1.8820 -1.2485
 1456lim     li 9016   5.647   3.361   3.694  0.4032  0.1375 -1.6171
 1457lim     li 9017   4.018   3.240   5.702  1.0343  0.1441 -0.3099
 1458lim     li 9018   0.773   6.655   4.557 -0.3647 -0.0168 -0.4271
 1459lim     li 9019   3.313   2.485   5.270  0.0634 -0.8621  0.9692
 1460lim     li 9020   1.241   3.398   3.022 -0.3866 -0.0736 -0.1981
 1461lim     li 9021   0.329   1.091   6.621 -0.1099 -0.6614  0.5731
 1462lim     li 9022   1.382   0.526   0.365  0.3021  0.0844 -0.5848
 1463lim     li 9023   6.392   6.700   2.836 -0.3377  0.8322  0.0539
 1464lim     li 9024   0.431   1.422   1.568 -0.4437 -0.0897  0.4757
 1465lim     li 9025   3.855   5.986   4.664 -1.0481 -0.6172  0.3167
 1466lim     li 9026   3.702   5.011   6.507  0.0684  0.0679 -0.8018
 1467lim     li 9027   1.298   1.794   2.482 -0.3544  0.4676  0.2279
 1468lim     li 9028   1.249   5.930   1.739  0.3572 -0.1804 -1.8981
 1469lim     li 9029   2.364   6.747   2.552  0.4031  0.0207 -0.1211
 1470lim     li 9030   2.697   6.309   3.244  0.2127  0.0661 -0.7832
 1471lim     li 9031   5.394   2.762   0.875 -0.6270 -0.9029 -0.6194
 1472lim     li 9032   4.879   0.439   0.020  0.2999 -0.0571  0.5595
 1473lim     li 9033   3.186   4.258   0.839 -0.3268  0.9089 -0.8727
 1474lim     li 9034   6.497   0.024   0.891 -0.2934 -0.1674 -0.0548
 1475lim     li 9035   6.283   6.105   5.051 -0.2675  0.3380  0.8356
 1476lim     li 9036   5.239   4.640   3.059  0.4986  0.2102  0.1141
 1477lim     li 9037   3.553   3.898   2.074  0.9065  0.0880 -0.5588
 1478lim     li 9038   0.780   5.487   4.310  0.8464 -0.0260  0.5441
 1479lim     li 9039   4.372   1.683   3.213  0.4070  0.0506 -0.0287
 1480lim     li 9040   3.617   0.879   2.093 -0.4072 -0.0524  0.1060
 1481lim     li 9041   0.475   2.895   5.930  0.0244 -0.0975  0.2169
 1482lim     li 9042   4.239   0.081   5.189 -0.2452  0.2348  0.6222
 1483lim     li 9043   2.502   6.355   6.827  0.4958  0.9281  0.0109
 1484lim     li 9044   0.631   1.655   3.451 -0.4282  0.3753 -0.8561
 1485lim     li 9045   2.270   5.566   1.315  0.3252 -1.4943 -1.1795
 1486lim     li 9046   0.012   2.883   0.452 -0.7051 -0.3944 -0.8354
 1487lim     li 9047   2.095   3.897   1.648  0.4576 -0.5532 -0.4805
 1488lim     li 9048   1.778   6.567   3.073 -0.0736  0.3624 -0.1913
 1489lim     li 9049   5.481   5.411   6.857 -1.9116  0.5533 -0.1180
 1490lim     li 9050   1.486   6.369   6.724 -0.2253  0.2854 -0.0241
 1491lim     li 9051   6.217   5.573   3.113  0.0267 -0.1038 -1.2859
 1492lim     li 9052   3.796   1.986   1.790 -0.4018  0.9416 -1.0093
 1493lim     li 9053   5.978   1.281   5.774 -1.3684  0.2240  0.8901
 1494lim     li 9054   0.525   2.621   4.111  0.8057  0.5948 -0.2379
 1495lim     li 9055   3.205   6.085   0.941  1.1295 -0.2656 -0.1146
 1496lim     li 9056   3.612   3.546   3.026  1.3210  0.0795 -0.5920
 1497lim     li 9057   4.179   3.840   2.295 -0.1484 -0.1346  0.5167
 1498lim     li 9058   5.708   0.746   5.382 -0.2948 -0.4813 -0.6767
 1499lim     li 9059   3.836   5.202   1.885 -0.2079 -0.2720 -0.3904
 1500lim     li 9060   2.058   3.240   5.791 -0.0328 -0.4028 -0.6067
 1501lim     li 9061   2.029   6.623   4.040  1.3591 -1.3139 -0.6276
 1502lim     li 9062   6.174   0.391   3.752  0.3621  0.3551  0.0902
 1503lim     li 9063   2.075   4.660   4.690  0.2879  0.1959 -0.0808
 1504lim     li 9064   1.897   0.619   4.728 -0.9741  0.4916  0.3488
 1505lim     li 9065   0.078   1.704   0.590 -0.0289 -0.0344 -0.1091
 1506lim     li 9066   2.321   4.374   3.543 -0.9831 -0.6279 -0.6813
 1507lim     li 9067   1.819   3.787   4.961  0.4627 -0.1732 -0.6602
 1508lim     li 9068   0.071   0.279   3.935 -0.2714 -0.2784 -0.6268
 1509lim     li 9069   4.201   5.769   2.624  0.0636 -0.6427 -0.4311
 1510lim     li 9070   0.491   1.564   4.580 -0.0067 -0.3659 -0.6403
 1511lim     li 9071   0.114   0.864   0.514  0.5061 -0.6648  0.1456
 1512lim     li 9072   1.322   3.526   5.386 -0.6411  0.4290 -0.0931
 1513lim     li 9073   3.674   1.820   3.450  0.5255 -0.1624  1.0507
 1514lim     li 9074   0.438   5.472   1.713  0.1608  0.9838  1.0059
 1515lim     li 9075   5.750   2.427   1.799  0.6742 -0.7210 -0.7572
 1516lim     li 9076   5.005   2.376   5.540  0.1083 -0.3894  0.4527
 1517lim     li 9077   5.604   4.824   4.118 -0.1802 -1.0212 -0.3293
 1518lim     li 9078   0.657   4.625   0.341  0.6277 -0.2970 -0.8600
 1519lim     li 9079   0.285   4.213   3.105  0.4301  0.2066  0.4445
 1520lim     li 9080   0.907   6.423   3.651  0.4781  0.1072 -0.5520
 1521lim     li 9081   2.712   3.772   4.534 -0.7409 -0.4437  0.7778
 1522lim     li 9082   4.364   5.336   3.231 -0.2456  0.3661 -0.5936
 1523lim     li 9083   5.799   2.204   6.152 -0.1204  0.1171 -0.5926
 1524lim     li 9084   6.809   1.327   2.838  0.0448  0.8474  0.1481
 1525lim     li 9085   2.868   3.090   5.210  0.1605 -0.3299  0.4412
 1526lim     li 9086   0.084   3.682   5.375 -0.1658 -0.4749 -0.0225
 1527lim     li 9087   1.928   1.406   1.999 -0.1437  0.2183 -0.2105
 1528lim     li 9088   1.399   3.106   1.737  0.1419  0.0665 -0.0790
 1529lim     li 9089   4.871   4.545   5.022  0.0485  0.5436  1.0917
 1530lim     li 9090   3.197   0.054   3.055 -0.2993  0.3312 -0.4980
 1531lim     li 9091   1.394   5.157   4.660  1.9224 -0.9886  0.9374
 1532lim     li 9092   2.696   1.098   3.497 -0.1277  0.5147  0.5924
 1533lim     li 9093   0.699   2.138   5.827  0.2757 -0.3818 -0.1298
 1534lim     li 9094   3.896   1.227   5.480 -0.3367 -0.4744  0.5438
 1535lim     li 9095   3.151   1.905   2.576 -0.6869  0.6073 -0.2724
 1536lim     li 9096   1.573   5.330   3.627  0.5025 -0.2105 -0.8363
 1537lim     li 9097   2.541   3.928   5.510 -0.1833  0.7803  0.3218
 1538lim     li 9098   1.658   6.748   2.046  0.3643 -0.2068  0.5379
 1539lim     li 9099   4.674   0.024   3.414  0.8258  0.9195  1.1384
 1540lim     li 9100   4.265   1.210   6.790 -0.7266 -0.2180  0.4876
 1541lim     li 9101   4.979   2.688   2.281  0.3832  0.0619  0.4319
 1542lim     li 9102   2.795   1.020   1.812 -0.9071 -0.1361  0.3625
 1543lim     li 9103   0.655   5.631   0.625  0.1012 -0.0918 -0.4885
 1544lim     li 9104   4.501   5.399   1.987 -0.1855  0.0058  0.7363
 1545lim     li 9105   3.967   6.353   1.538 -0.6249 -1.2703  2.0644
 1546lim     li 9106   6.475   2.729   5.656  0.5142  0.5584  0.5533
 1547lim     li 9107   0.982   0.089   0.073  0.7358  0.3162 -0.4469
 1548lim     li 9108   0.584   2.252   0.205  0.5070 -0.8704 -0.3460
 1549lim     li 9109   1.130   6.305   0.832  0.7579  0.4515 -0.2305
 1550lim     li 9110   3.088   5.740   3.754  0.4395 -0.2640 -0.4372
 1551lim     li 9111   4.070   5.107   4.129  0.4269 -0.2376  0.9957
 1552lim     li 9112   1.602   3.409   0.083  0.6605  0.0480 -1.2917
 1553lim     li 9113   2.885   1.612   1.473 -0.1070 -1.0699 -0.1859
 1554lim     li 9114   6.305   1.393   1.306 -0.0360  0.0555 -0.0534
 1555lim     li 9115   0.962   4.521   5.361  0.2560 -0.4409 -1.3995
 1556lim     li 9116   2.276   5.756   0.435 -0.1106  0.1544  0.1857
 1557lim     li 9117   5.131   5.003   2.341 -0.4984 -0.1728 -0.6459
 1558lim     li 9118   2.998   1.420   5.115 -0.6047  0.5242 -1.2754
 1559lim     li 9119   1.537   2.369   5.779 -0.3215  0.0033  1.0515
 1560lim     li 9120   3.909   5.220   1.033  0.5214 -1.1712 -0.3532
 1561lim     li 9121   0.227   3.737   6.077 -0.3820  0.8297  0.0769
 1562lim     li 9122   5.676   3.093   2.711  1.2848  0.2413 -0.1013
 1563lim     li 9123   6.166   4.379   5.707 -0.1004  0.1402  0.1135
 1564lim     li 9124   2.658   4.379   4.089 -0.2005 -0.0470  0.0397
 1565lim     li 9125   5.053   3.494   6.762  0.8248  0.3603  0.4421
 1566lim     li 9126   3.673   4.541   1.408  1.2460  0.4133 -0.5165
 1567lim     li 9127   1.637   2.563   0.562  0.1339 -0.3266  0.5362
 1568lim     li 9128   5.955   0.784   4.537 -1.3296 -0.3245  0.2111
 1569lim     li 9129   5.999   3.651   5.197 -0.5474  0.4504 -0.1546
 1570lim     li 9130   0.086   2.174   1.248  0.3948  0.8082  1.1781
 1571lim     li 9131   5.359   2.476   0.042 -0.1552  0.0850 -1.0493
 1572lim     li 9132   5.972   2.840   5.061  1.2984 -0.4201 -0.1755
 1573lim     li 9133   3.170   5.414   0.751 -0.6791 -0.5199 -1.0760
 1574lim     li 9134   6.826   5.458   0.300 -0.3537  0.6376  0.1157
 1575lim     li 9135   6.702   6.075   6.030  0.4226  0.3600 -0.3951
 1576lim     li 9136   3.463   3.099   3.750 -0.4726  0.8673  0.3942
 1577lim     li 9137   3.576   0.828   4.233  0.0267 -0.8494  1.3385
 1578lim     li 9138   6.283   3.482   0.990 -0.9051  0.8143  0.0534
 1579lim     li 9139   4.614   1.016   3.389 -0.2038  0.3396 -0.4741
 1580lim     li 9140   3.359   0.021   5.514  0.0757  0.0460  0.5689
 1581lim     li 9141   6.299   1.033   1.966 -0.9852 -0.0091  0.5980
 1582lim     li 9142   2.281   4.492   0.152  0.2872 -0.6892  0.0434
 1583lim     li 9143   2.014   0.908   6.858 -1.2684 -0.2000  0.9930
 1584lim     li 9144   4.861   6.124   2.832  0.2774 -0.5526 -0.0685
 1585lim     li 9145   2.495   1.776   3.426  0.4845  1.0518  0.5561
 1586lim     li 9146   5.124   0.668   5.898  0.0572  0.2822 -0.4682
 1587lim     li 9147   5.364   6.722   4.837 -0.0225 -0.2871  0.7565
 1588lim     li 9148   4.776   4.313   6.819  0.2125  0.1953  1.4646
 1589lim     li 9149   2.401   2.323   0.959  0.7399 -0.8572  0.1224
 1590lim     li 9150   3.295   0.761   3.377  0.2577  0.7298 -0.1078
 1591lim     li 9151   3.246   6.213   5.027 -0.0771  0.1063 -1.8601
 1592lim     li 9152   3.848   2.273   4.076 -0.6027 -0.2407 -0.1161
 1593lim     li 9153   6.740   0.751   1.311  0.2935 -0.3358 -0.5816
 1594lim     li 9154   4.902   2.044   0.266 -0.3315 -0.3203 -0.5860
 1595lim     li 9155   2.952   3.190   0.174  0.1390 -0.2719  0.2548
 1596lim     li 9156   0.558   6.320   2.298  0.2101 -0.2693  0.1923
 1597lim     li 9157   0.543   2.889   2.819 -0.5317  0.3308  0.1383
 1598lim     li 9158   0.820   4.259   1.177  0.1172  0.7114 -0.2422
 1599lim     li 9159   2.601   2.537   5.916  0.2407 -0.0472 -0.1634
 1600lim     li 9160   2.922   2.152   1.847 -0.7191 -0.7306  0.6599
 1601lim     li 9161   0.186   1.971   4.052  0.3545 -0.3408 -0.0053
 1602lim     li 9162   6.792   0.256   6.135  0.4753 -0.3421  0.2494
 1603lim     li 9163   3.397   0.534   2.631 -0.5712  0.3093  0.4052
 1604lim     li 9164   2.928   4.938   3.267 -0.1938 -0.2012  0.8451
 1605lim     li 9165   5.615   4.369   1.884  0.0530 -1.2246 -0.4578
 1606lim     li 9166   6.647   2.505   2.321  0.0012 -0.5708  0.9670
 1607lim     li 9167   4.275   6.118   3.832 -0.8666  0.3202 -0.7165
 1608lim     li 9168   3.101   5.048   1.780  0.1287  0.6522 -0.5426
 1609lim     li 9169   1.746   0.112   6.473  0.6255  0.0275  0.1860
 1610lim     li 9170   2.066   4.841   1.920 -0.4491  0.4977  0.6813
 1611lim     li 9171   1.749   3.440   1.183 -0.3239  0.9600 -0.0702
 1612lim     li 9172   6.697   3.142   2.042  0.1979 -0.7832  0.4698
 1613lim     li 9173   0.439   5.697   3.124  0.3777  1.4575  0.2259
 1614lim     li 9174   3.078   5.872   6.813  0.5559 -0.9908 -0.6830
 1615lim     li 9175   4.796   4.000   5.806 -0.5193  0.4119  0.3342
 1616lim     li 9176   0.691   2.582   1.825 -1.4804 -0.3628 -0.7858
 1617lim     li 9177   2.660   4.989   0.752  0.7053 -0.7903  0.1803
 1618lim     li 9178   0.908   2.970   0.102  0.0557 -0.6004 -0.2435
 1619lim     li 9179   2.185   2.005   5.741  0.1717 -0.0751  0.4748
 1620lim     li 9180   5.283   1.860   6.272  0.4990 -0.3217 -0.4727
 1621ntf    cn1 9181   5.353   5.476   2.972  0.5814  0.3422 -0.0840
 1621ntf    sn2 9182   5.384   5.312   3.042  0.3361  0.4748  0.3372
 1621ntf    nn3 9183   5.454   5.245   2.918  0.1636  0.2478  0.3620
 1621ntf    sn2 9184   5.596   5.265   2.855 -0.0059  0.1175 -0.0614
 1621ntf    cn1 9185   5.680   5.130   2.943 -0.0726  0.1929  0.1167
 1621ntf    fn4 9186   5.257   5.535   3.041  0.0965 -0.0535 -0.4116
 1621ntf    fn4 9187   5.453   5.564   2.979  0.6291  0.2593  0.2657
 1621ntf    fn4 9188   5.315   5.474   2.845  0.6841  0.0093 -0.1103
 1621ntf    on5 9189   5.468   5.325   3.159  0.7051 -0.3938  0.1769
 1621ntf    on5 9190   5.256   5.254   3.076  0.5918 -0.2304  0.1314
 1621ntf    on5 9191   5.661   5.386   2.900  0.0933 -0.0095  0.1413
 1621ntf    on5 9192   5.603   5.236   2.714  0.1390  0.2189 -0.0752
 1621ntf    fn4 9193   5.693   5.021   2.869 -0.1956 -0.3180  0.8303
 1621ntf    fn4 9194   5.799   5.172   2.983 -0.1844  0.2690  0.3752
 1621ntf    fn4 9195   5.620   5.098   3.056 -0.5976  0.6952 -0.0173
 1622ntf    cn1 9196   0.721   4.694   2.327 -0.1395  0.1959 -0.2582
 1622ntf    sn2 9197   0.782   4.840   2.416 -0.0191  0.1799 -0.3139
 1622ntf    nn3 9198   0.842   4.792   2.552 -0.2290  0.4387 -0.1278
 1622ntf    sn2 9199   0.990   4.751   2.585 -0.2855  0.0833 -0.3091
 1622ntf    cn1 9200   1.060   4.914   2.625 -0.0008 -0.0266 -0.3548
 1622ntf    fn4 9201   0.651   4.738   2.224  0.5407  0.2384 -0.7047
 1622ntf    fn4 9202   0.817   4.618   2.277 -0.4233 -0.4910  0.2244
 1622ntf    fn4 9203   0.640   4.617   2.398  0.2141  0.1700  0.1182
 1622ntf    on5 9204   0.870   4.906   2.322 -0.3035  0.6865 -0.2329
 1622ntf    on5 9205   0.660   4.914   2.440  0.1591  0.3811 -0.0210
 1622ntf    on5 9206   1.069   4.705   2.473 -0.3867 -0.3551 -0.1990
 1622ntf    on5 9207   1.001   4.675   2.707  0.2752  0.2053 -0.2772
 1622ntf    fn4 9208   1.000   4.977   2.725 -0.2705 -0.0298 -0.5138
 1622ntf    fn4 9209   1.189   4.907   2.656 -0.1098  0.3942  0.2101
 1622ntf    fn4 9210   1.052   4.993   2.519  0.4663  0.0558 -0.3297
 1623ntf    cn1 9211   5.994   6.778   4.052  0.0867 -0.1160 -0.0455
 1623ntf    sn2 9212   5.873   6.900   3.990 -0.2981 -0.4292  0.0848
 1623ntf    nn3 9213   5.866   6.996   4.114  0.1209  0.0665 -0.2707
 1623ntf    sn2 9214   5.749   7.092   4.156  0.2928 -0.0067  0.3918
 1623ntf    cn1 9215   5.664   6.980   4.271  0.0972 -0.3681 -0.1016
 1623ntf    fn4 9216   5.947   6.712   4.156  0.0854 -0.2281 -0.1181
 1623ntf    fn4 9217   6.010   6.679   3.966  0.2476 -0.3474  0.2532
 1623ntf    fn4 9218   6.110   6.834   4.081 -0.2016 -0.1214  1.1378
 1623ntf    on5 9219   5.930   6.955   3.869  0.6139 -0.3569  0.5375
 1623ntf    on5 9220   5.753   6.820   3.980 -0.8891  0.5224 -0.6264
 1623ntf    on5 9221   5.655   7.108   4.048  0.1084  0.4196  0.6150
 1623ntf    on5 9222   5.785   7.205   4.239 -0.0803  0.5158 -0.1473
 1623ntf    fn4 9223   5.592   6.887   4.211 -0.8346  0.1746  0.1589
 1623ntf    fn4 9224   5.743   6.914   4.354  0.2991 -0.0131 -0.0078
 1623ntf    fn4 9225   5.584   7.052   4.347  0.3436  0.1809 -0.3555
 1624ntf    cn1 9226   1.903   6.275   0.366  0.2518  0.3907 -0.3778
 1624ntf    sn2 9227   2.084   6.269   0.379  0.2271  0.0094 -0.2116
 1624ntf    nn3 9228   2.121   6.388   0.474  0.2229 -0.1988  0.0517
 1624ntf    sn2 9229   2.181   6.396   0.619 -0.0561 -0.0153  0.1580
 1624ntf    cn1 9230   2.361   6.414   0.598 -0.1158  0.1658 -0.2036
 1624ntf    fn4 9231   1.848   6.254   0.484  0.6001 -0.1347 -0.3053
 1624ntf    fn4 9232   1.865   6.393   0.318 -0.1374  0.2130 -0.5112
 1624ntf    fn4 9233   1.849   6.180   0.292 -0.0040  0.1172  0.1550
 1624ntf    on5 9234   2.101   6.140   0.442 -0.5855 -0.2701 -0.5593
 1624ntf    on5 9235   2.138   6.291   0.247 -0.1349 -0.5221 -0.4522
 1624ntf    on5 9236   2.173   6.282   0.708 -0.1287 -0.0358  0.1258
 1624ntf    on5 9237   2.143   6.519   0.682  0.4257 -0.1541  0.7312
 1624ntf    fn4 9238   2.418   6.390   0.715  0.5150 -0.3601 -0.6144
 1624ntf    fn4 9239   2.406   6.322   0.515 -0.2124 -0.0275 -0.0430
 1624ntf    fn4 9240   2.399   6.533   0.555 -0.6376  0.1217 -0.8005
 1625ntf    cn1 9241   4.011   2.927   2.782 -0.1608  0.0347 -0.2265
 1625ntf    sn2 9242   3.886   2.862   2.896  0.0440 -0.0440 -0.0480
 1625ntf    nn3 9243   3.962   2.863   3.034 -0.3392  0.2554  0.1633
 1625ntf    sn2 9244   3.951   2.753   3.146 -0.1975  0.2423  0.1638
 1625ntf    cn1 9245   3.785   2.683   3.124 -0.1060  0.0246  0.1538
 1625ntf    fn4 9246   4.113   2.843   2.789 -0.2293 -0.0296 -0.0184
 1625ntf    fn4 9247   3.966   2.941   2.658 -0.6146  0.0278 -0.0635
 1625ntf    fn4 9248   4.061   3.046   2.813 -0.2920  0.0167  0.0553
 1625ntf    on5 9249   3.784   2.963   2.889  0.0253 -0.0596 -0.0072
 1625ntf    on5 9250   3.857   2.736   2.832  0.0817 -0.0207 -0.1100
 1625ntf    on5 9251   3.939   2.813   3.276  0.8336  0.6389  0.0900
 1625ntf    on5 9252   4.048   2.646   3.135 -0.5768 -0.1525  0.6806
 1625ntf    fn4 9253   3.704   2.765   3.058 -0.4366 -0.3773  0.0580
 1625ntf    fn4 9254   3.780   2.570   3.056 -0.0248  0.1647 -0.0874
 1625ntf    fn4 9255   3.729   2.650   3.239 -0.2121 -0.3303  0.0005
 1626ntf    cn1 9256   5.630   6.643   2.522  0.1415  0.2248 -0.1837
 1626ntf    sn2 9257   5.750   6.752   2.440  0.2181  0.1919 -0.1151
 1626ntf    nn3 9258   5.885   6.681   2.476  0.0889 -0.1357 -0.2767
 1626ntf    sn2 9259   6.026   6.699   2.409  0.3076  0.0749  0.2350
 1626ntf    cn1 9260   6.055   6.520   2.413 -0.3794 -0.0437  0.0750
 1626ntf    fn4 9261   5.568   6.560   2.439  0.4310 -0.2390  0.0647
 1626ntf    fn4 9262   5.688   6.575   2.619 -0.2817  0.3678  0.1718
 1626ntf    fn4 9263   5.526   6.708   2.573 -0.4316 -0.7884 -0.0385
 1626ntf    on5 9264   5.710   6.751   2.301 -0.4166  0.4007  0.0613
 1626ntf    on5 9265   5.736   6.882   2.502 -0.6527  0.4316 -0.7881
 1626ntf    on5 9266   6.124   6.760   2.495  0.2879  0.2744  0.1179
 1626ntf    on5 9267   6.031   6.745   2.272  0.2028 -0.0048  0.2038
 1626ntf    fn4 9268   6.016   6.468   2.298  0.5772 -0.2998 -0.1457
 1626ntf    fn4 9269   6.181   6.486   2.434 -0.2241  0.1179 -0.5598
 1626ntf    fn4 9270   5.989   6.464   2.513  0.0841  0.2265  0.5388
 1627ntf    cn1 9271   5.112   1.789   5.657 -0.2980 -0.0198  0.0513
 1627ntf    sn2 9272   4.931   1.801   5.673 -0.2725  0.5562 -0.0658
 1627ntf    nn3 9273   4.912   1.933   5.591  0.2210  0.3179 -0.5786
 1627ntf    sn2 9274   4.906   2.077   5.655 -0.3319  0.0219  0.0418
 1627ntf    cn1 9275   4.730   2.113   5.683 -0.1639  0.6093  0.3449
 1627ntf    fn4 9276   5.159   1.765   5.535 -0.1083  0.0224  0.1169
 1627ntf    fn4 9277   5.171   1.900   5.697 -0.2117  0.0392 -0.2329
 1627ntf    fn4 9278   5.154   1.693   5.738 -0.4589 -0.5182 -0.4428
 1627ntf    on5 9279   4.888   1.686   5.597  0.4564  0.0972  0.2004
 1627ntf    on5 9280   4.902   1.794   5.814  0.0682 -0.5946 -0.0408
 1627ntf    on5 9281   4.950   2.175   5.560  0.5846 -0.5189 -0.0990
 1627ntf    on5 9282   4.969   2.091   5.784  0.3970 -0.0370 -0.3069
 1627ntf    fn4 9283   4.699   2.235   5.725 -0.1120  0.7302  0.0342
 1627ntf    fn4 9284   4.672   2.099   5.565 -0.0674  0.0515  0.3638
 1627ntf    fn4 9285   4.669   2.027   5.763 -0.2641  0.3134 -0.0454
 1628ntf    cn1 9286   5.177   6.022   0.561  0.4502 -0.0520  0.0598
 1628ntf    sn2 9287   5.224   5.906   0.693  0.2690  0.0262  0.1931
 1628ntf    nn3 9288   5.369   5.858   0.656  0.3302  0.4280 -0.0965
 1628ntf    sn2 9289   5.411   5.711   0.621 -0.0729  0.2348  0.2217
 1628ntf    cn1 9290   5.540   5.741   0.496  0.0349 -0.1840  0.2298
 1628ntf    fn4 9291   5.172   5.960   0.444  0.0458  0.1691 -0.0406
 1628ntf    fn4 9292   5.062   6.085   0.579  0.2853 -0.3555  0.0770
 1628ntf    fn4 9293   5.265   6.120   0.548 -0.2775  0.6982  0.6905
 1628ntf    on5 9294   5.215   5.985   0.814 -0.9925  0.2485 -0.0306
 1628ntf    on5 9295   5.112   5.819   0.670  0.2816 -0.0597  0.4529
 1628ntf    on5 9296   5.323   5.624   0.547  0.0213  0.0177  0.3658
 1628ntf    on5 9297   5.493   5.653   0.725 -0.5003 -0.2875  0.2742
 1628ntf    fn4 9298   5.583   5.638   0.425  0.3827  0.1230 -0.0070
 1628ntf    fn4 9299   5.499   5.828   0.406 -0.3276 -0.7422 -0.1512
 1628ntf    fn4 9300   5.644   5.798   0.554 -0.1144  0.1362  0.1825
 1629ntf    cn1 9301   6.365   1.412   2.635 -0.1457  0.0770 -0.1727
 1629ntf    sn2 9302   6.359   1.309   2.784  0.0731  0.1033 -0.1455
 1629ntf    nn3 9303   6.415   1.412   2.889 -0.3869  0.2254 -0.0199
 1629ntf    sn2 9304   6.323   1.515   2.964 -0.1331  0.2701  0.2293
 1629ntf    cn1 9305   6.272   1.420   3.110  0.4232  0.0419  0.2792
 1629ntf    fn4 9306   6.312   1.533   2.644 -0.2757  0.0274 -0.2819
 1629ntf    fn4 9307   6.487   1.440   2.590 -0.0302 -0.0136  0.0852
 1629ntf    fn4 9308   6.303   1.342   2.542 -0.2362  0.3887 -0.3488
 1629ntf    on5 9309   6.230   1.248   2.799 -0.2520  0.9078  0.4255
 1629ntf    on5 9310   6.466   1.218   2.750  0.1281  0.2036 -0.2405
 1629ntf    on5 9311   6.201   1.562   2.904 -0.4420 -0.1155  0.5592
 1629ntf    on5 9312   6.410   1.619   3.013  0.3526 -0.0380  0.0290
 1629ntf    fn4 9313   6.216   1.487   3.210  0.1722 -0.3198  0.3835
 1629ntf    fn4 9314   6.204   1.308   3.090 -0.0839  0.4376 -0.2669
 1629ntf    fn4 9315   6.386   1.377   3.161  0.4029  0.1018  0.3772
 1630ntf    cn1 9316   1.442   0.472   6.723  0.0940  0.0601 -0.4329
 1630ntf    sn2 9317   1.492   0.339   6.610  0.2699 -0.1355 -0.1256
 1630ntf    nn3 9318   1.513   0.420   6.477 -0.3287  0.3343  0.0633
 1630ntf    sn2 9319   1.645   0.430   6.392 -0.2990 -0.2070  0.0383
 1630ntf    cn1 9320   1.572   0.438   6.226  0.2468 -0.3109 -0.2063
 1630ntf    fn4 9321   1.339   0.535   6.668 -0.3399 -0.3104 -0.0482
 1630ntf    fn4 9322   1.407   0.432   6.844 -0.0274 -0.2980 -0.5860
 1630ntf    fn4 9323   1.534   0.566   6.742  0.7583 -0.7230  0.2767
 1630ntf    on5 9324   1.610   0.284   6.674 -0.0440 -0.2525  0.3567
 1630ntf    on5 9325   1.373   0.258   6.600  0.0294  0.2348 -0.2916
 1630ntf    on5 9326   1.729   0.314   6.378 -0.0772  0.0223 -0.5443
 1630ntf    on5 9327   1.713   0.555   6.414 -0.5024 -0.0501 -0.2251
 1630ntf    fn4 9328   1.534   0.561   6.197  0.6369 -0.0318  0.4484
 1630ntf    fn4 9329   1.672   0.411   6.144  0.3942 -0.0488 -0.1119
 1630ntf    fn4 9330   1.471   0.356   6.205  0.0971 -0.1917  0.0406
 1631ntf    cn1 9331   2.221   1.456   3.561  0.2279 -0.3631  0.4746
 1631ntf    sn2 9332   2.403   1.451   3.553  0.2092 -0.2324 -0.1074
 1631ntf    nn3 9333   2.447   1.394   3.692 -0.0094 -0.5333 -0.1594
 1631ntf    sn2 9334   2.565   1.300   3.738  0.2193 -0.0200  0.3232
 1631ntf    cn1 9335   2.714   1.402   3.721  0.2914 -0.0954  0.5003
 1631ntf    fn4 9336   2.166   1.336   3.571  0.2378 -0.3979  0.1239
 1631ntf    fn4 9337   2.186   1.514   3.675  0.0932  0.0257  0.2366
 1631ntf    fn4 9338   2.162   1.521   3.462  0.7519 -0.3089  0.1974
 1631ntf    on5 9339   2.429   1.363   3.442 -0.2074 -0.4713 -0.0190
 1631ntf    on5 9340   2.435   1.591   3.542  0.1076 -0.1808  0.2228
 1631ntf    on5 9341   2.610   1.195   3.649  0.6868  0.2679  0.2170
 1631ntf    on5 9342   2.569   1.272   3.879 -0.2575  0.1295  0.3674
 1631ntf    fn4 9343   2.699   1.523   3.773 -0.2573  0.0967 -0.0926
 1631ntf    fn4 9344   2.818   1.349   3.784  0.4871 -0.0591  0.2099
 1631ntf    fn4 9345   2.753   1.430   3.597  0.0990  0.2389  0.5142
 1632ntf    cn1 9346   3.821   6.118   6.266 -0.0400  0.1175  0.2164
 1632ntf    sn2 9347   3.915   6.271   6.298  0.1217  0.0912 -0.1268
 1632ntf    nn3 9348   3.880   6.357   6.172 -0.3761 -0.0398 -0.0778
 1632ntf    sn2 9349   3.779   6.477   6.155 -0.1412  0.1299 -0.2704
 1632ntf    cn1 9350   3.890   6.620   6.174  0.0851 -0.0587 -0.1528
 1632ntf    fn4 9351   3.860   6.071   6.148 -0.5734 -0.8970  0.4369
 1632ntf    fn4 9352   3.849   6.018   6.347 -0.0009 -0.4572 -0.4990
 1632ntf    fn4 9353   3.690   6.133   6.265 -0.0237  0.3067  0.7008
 1632ntf    on5 9354   3.855   6.322   6.419 -0.2017  0.4855 -0.4515
 1632ntf    on5 9355   4.054   6.231   6.302  0.0807 -0.0305  0.1420
 1632ntf    on5 9356   3.681   6.500   6.257 -0.1415  0.1765 -0.2811
 1632ntf    on5 9357   3.724   6.497   6.023  0.4079 -0.2137 -0.5567
 1632ntf    fn4 9358   3.957   6.625   6.287  0.0334 -0.0426 -0.1228
 1632ntf    fn4 9359   3.981   6.615   6.078  0.1262  0.2431 -0.1289
 1632ntf    fn4 9360   3.825   6.734   6.160 -0.6726 -0.4351  0.2333
 1633ntf    cn1 9361   6.425   2.451   5.032  0.0931 -0.1578 -0.0682
 1633ntf    sn2 9362   6.355   2.549   5.168  0.2336  0.0630 -0.1529
 1633ntf    nn3 9363   6.318   2.686   5.102  0.1441 -0.0205 -0.2761
 1633ntf    sn2 9364   6.266   2.818   5.170  0.2700 -0.0729 -0.0797
 1633ntf    cn1 9365   6.408   2.925   5.133  0.2542  0.0368  0.1755
 1633ntf    fn4 9366   6.517   2.524   4.970 -0.0204  0.0015 -0.0506
 1633ntf    fn4 9367   6.480   2.337   5.068 -0.4325 -0.4349 -0.1359
 1633ntf    fn4 9368   6.339   2.426   4.935  0.0326  0.0893 -0.0809
 1633ntf    on5 9369   6.244   2.467   5.211 -0.1296  1.0655  0.8587
 1633ntf    on5 9370   6.467   2.567   5.257  0.0357  0.2985  0.0505
 1633ntf    on5 9371   6.249   2.810   5.313 -0.2165 -0.1247 -0.1393
 1633ntf    on5 9372   6.159   2.876   5.093  0.3156 -0.4367 -0.4203
 1633ntf    fn4 9373   6.523   2.891   5.187  0.3013  0.0403  0.0771
 1633ntf    fn4 9374   6.433   2.936   5.004 -0.1908 -0.1458  0.0712
 1633ntf    fn4 9375   6.388   3.049   5.177 -0.0757 -0.0255  0.2061
 1634ntf    cn1 9376   6.866   2.253   6.115  0.1509 -0.2566  0.2933
 1634ntf    sn2 9377   6.720   2.330   6.189  0.0317  0.0219 -0.2313
 1634ntf    nn3 9378   6.630   2.202   6.186 -0.2304  0.2033 -0.1773
 1634ntf    sn2 9379   6.479   2.188   6.145 -0.2710 -0.0379  0.0445
 1634ntf    cn1 9380   6.431   2.068   6.272 -0.2075 -0.1557 -0.0419
 1634ntf    fn4 9381   6.902   2.131   6.153  0.5201 -0.0880  0.4973
 1634ntf    fn4 9382   6.860   2.254   5.983  0.3334  0.1620  0.2851
 1634ntf    fn4 9383   6.965   2.336   6.145  0.2564 -0.2307 -0.1208
 1634ntf    on5 9384   6.758   2.364   6.324  0.5502  0.8004 -0.5658
 1634ntf    on5 9385   6.682   2.431   6.093 -0.0083 -0.0530 -0.2937
 1634ntf    on5 9386   6.476   2.119   6.018 -0.2063 -0.4557  0.2704
 1634ntf    on5 9387   6.394   2.301   6.171 -0.4616 -0.0944 -0.3161
 1634ntf    fn4 9388   6.484   1.948   6.256 -0.2681 -0.1812 -0.0548
 1634ntf    fn4 9389   6.457   2.113   6.394 -0.2002 -0.7066  0.1644
 1634ntf    fn4 9390   6.301   2.043   6.266 -0.2341 -0.0167 -0.0424
 1635ntf    cn1 9391   6.562   4.732   6.251 -0.3438  0.1737  0.3088
 1635ntf    sn2 9392   6.436   4.853   6.202 -0.3985  0.1501  0.3893
 1635ntf    nn3 9393   6.310   4.772   6.251  0.1904 -0.8018  0.3601
 1635ntf    sn2 9394   6.234   4.802   6.385  0.1484 -0.2573  0.2171
 1635ntf    cn1 9395   6.118   4.928   6.323  0.2003 -0.3197 -0.0051
 1635ntf    fn4 9396   6.535   4.605   6.228 -0.0194  0.1447  0.0778
 1635ntf    fn4 9397   6.679   4.760   6.195  0.1540 -0.2612  1.1034
 1635ntf    fn4 9398   6.587   4.735   6.381  0.5585  0.0791  0.1419
 1635ntf    on5 9399   6.461   4.983   6.259  0.1071  0.3140 -0.1925
 1635ntf    on5 9400   6.450   4.851   6.058  0.6906 -0.2853  0.4953
 1635ntf    on5 9401   6.300   4.847   6.504 -0.2261 -0.2427  0.4233
 1635ntf    on5 9402   6.144   4.691   6.408  0.0599 -0.1291  0.4897
 1635ntf    fn4 9403   6.157   5.054   6.337 -0.6486 -0.0145 -0.3380
 1635ntf    fn4 9404   6.108   4.917   6.191 -0.4837 -0.3966  0.0495
 1635ntf    fn4 9405   5.991   4.929   6.359  0.3553  0.0278  0.5457
 1636ntf    cn1 9406   0.148   6.272   3.795  0.1689  0.1895  0.1835
 1636ntf    sn2 9407   0.290   6.259   3.908  0.1467  0.2429  0.2172
 1636ntf    nn3 9408   0.271   6.394   3.987 -0.0853  0.1887  0.2556
 1636ntf    sn2 9409   0.385   6.501   4.004  0.1192  0.0040  0.0626
 1636ntf    cn1 9410   0.362   6.590   3.847 -0.3296  0.1720  0.2211
 1636ntf    fn4 9411   0.040   6.318   3.857  0.0605  0.1865 -0.0033
 1636ntf    fn4 9412   0.176   6.358   3.699  0.0675 -0.1683 -0.1681
 1636ntf    fn4 9413   0.113   6.160   3.734 -0.1086  0.0373  0.6217
 1636ntf    on5 9414   0.245   6.141   3.977  0.3851 -0.2588 -0.4746
 1636ntf    on5 9415   0.392   6.246   3.808 -0.2874 -0.3653 -0.1516
 1636ntf    on5 9416   0.518   6.447   4.001  0.1658  0.1515 -0.8936
 1636ntf    on5 9417   0.363   6.590   4.115  0.3689 -0.0805  0.1796
 1636ntf    fn4 9418   0.469   6.663   3.821  0.0087 -0.1928  0.5774
 1636ntf    fn4 9419   0.338   6.515   3.741 -0.1743 -0.1229  0.3927
 1636ntf    fn4 9420   0.263   6.677   3.857 -0.7680 -0.3025  0.0692
 1637ntf    cn1 9421   1.204   2.478   2.282 -0.0708 -0.4178 -0.1513
 1637ntf    sn2 9422   1.344   2.553   2.194 -0.2088  0.0027 -0.0159
 1637ntf    nn3 9423   1.418   2.416   2.175 -0.2734 -0.0182 -0.1183
 1637ntf    sn2 9424   1.521   2.379   2.063 -0.1171 -0.2844  0.1096
 1637ntf    cn1 9425   1.675   2.342   2.152 -0.0755 -0.0225  0.1470
 1637ntf    fn4 9426   1.235   2.396   2.381 -0.1780 -0.3464 -0.0580
 1637ntf    fn4 9427   1.119   2.568   2.330 -0.3253 -0.7196 -0.0334
 1637ntf    fn4 9428   1.139   2.395   2.202  0.0807 -0.1155 -0.5924
 1637ntf    on5 9429   1.283   2.605   2.074 -0.3900  0.2487  0.1834
 1637ntf    on5 9430   1.400   2.641   2.293 -0.2427  0.1007 -0.0837
 1637ntf    on5 9431   1.563   2.491   1.981 -0.1584  0.2107  0.7589
 1637ntf    on5 9432   1.481   2.255   2.001  0.0718  0.0263 -0.6491
 1637ntf    fn4 9433   1.689   2.408   2.266  0.1018 -0.3001  0.2843
 1637ntf    fn4 9434   1.678   2.214   2.184 -0.1395  0.0510  0.4483
 1637ntf    fn4 9435   1.779   2.367   2.073 -0.6397  0.1846 -0.5489
 1638ntf    cn1 9436   1.737   6.052   4.684  0.0783 -0.2998  0.4080
 1638ntf    sn2 9437   1.831   5.988   4.542 -0.2637 -0.0764  0.0811
 1638ntf    nn3 9438   1.833   6.114   4.448  0.2180 -0.0854  0.0789
 1638ntf    sn2 9439   1.939   6.228   4.428  0.1342 -0.0149  0.0351
 1638ntf    cn1 9440   2.066   6.140   4.332  0.2043  0.3052 -0.1674
 1638ntf    fn4 9441   1.610   6.074   4.655  0.0036 -0.2880  0.7443
 1638ntf    fn4 9442   1.739   5.977   4.793  0.1825 -0.2554  0.4370
 1638ntf    fn4 9443   1.779   6.172   4.721 -0.2614 -0.2231  0.5425
 1638ntf    on5 9444   1.962   5.954   4.591 -0.1514 -0.0194 -0.1752
 1638ntf    on5 9445   1.750   5.881   4.489  0.2091  0.1604 -1.1593
 1638ntf    on5 9446   2.007   6.267   4.549 -0.0591 -0.5145  0.3082
 1638ntf    on5 9447   1.901   6.338   4.343  0.0987  0.3527  0.5264
 1638ntf    fn4 9448   2.160   6.226   4.295  0.3019  0.0852 -0.4336
 1638ntf    fn4 9449   2.123   6.045   4.405 -0.8550 -0.1576  0.0667
 1638ntf    fn4 9450   2.011   6.086   4.224  0.3681  0.1640 -0.1793
 1639ntf    cn1 9451   3.371   4.018   3.997  0.0125  0.6863 -0.1120
 1639ntf    sn2 9452   3.537   4.071   4.046  0.1618  0.3018 -0.1923
 1639ntf    nn3 9453   3.513   4.225   4.027 -1.2212  0.1128 -0.0963
 1639ntf    sn2 9454   3.512   4.338   4.136 -0.2420  0.0886 -0.0537
 1639ntf    cn1 9455   3.562   4.472   4.024 -0.0753  0.3006  0.2730
 1639ntf    fn4 9456   3.278   4.094   4.052 -0.0884  0.5102 -0.0367
 1639ntf    fn4 9457   3.338   4.026   3.869  0.5190 -0.1187 -0.3013
 1639ntf    fn4 9458   3.337   3.894   4.030  0.5474  0.5180 -0.1762
 1639ntf    on5 9459   3.545   4.023   4.182  0.5173  0.2521 -0.2308
 1639ntf    on5 9460   3.615   4.008   3.943  0.8319  0.1498  0.3991
 1639ntf    on5 9461   3.623   4.332   4.228 -0.3778 -0.8086  0.0570
 1639ntf    on5 9462   3.383   4.371   4.192 -0.3215 -0.3590  0.0276
 1639ntf    fn4 9463   3.472   4.485   3.928  0.0266  0.3998  0.1903
 1639ntf    fn4 9464   3.567   4.592   4.080  0.1349  0.2818  0.2959
 1639ntf    fn4 9465   3.678   4.450   3.965 -0.4174 -0.4398 -0.1242
 1640ntf    cn1 9466   2.519   1.203   2.896 -0.3335 -0.0196 -0.4754
 1640ntf    sn2 9467   2.493   1.359   2.807  0.5536  0.2348 -0.2973
 1640ntf    nn3 9468   2.395   1.311   2.694 -0.2599  0.1177  0.4447
 1640ntf    sn2 9469   2.285   1.396   2.622  0.0489 -0.0183 -0.1920
 1640ntf    cn1 9470   2.172   1.264   2.569  0.0332 -0.2688  0.4541
 1640ntf    fn4 9471   2.591   1.124   2.817  0.0325  0.3233 -0.4905
 1640ntf    fn4 9472   2.586   1.229   3.007 -0.1087 -0.6614 -0.4549
 1640ntf    fn4 9473   2.411   1.137   2.936 -0.6746  0.3661 -0.7603
 1640ntf    on5 9474   2.429   1.432   2.914 -0.2308 -0.7204 -0.0987
 1640ntf    on5 9475   2.623   1.395   2.755  0.4745  0.0229 -0.6422
 1640ntf    on5 9476   2.326   1.457   2.498 -0.9302  0.2787 -0.3812
 1640ntf    on5 9477   2.201   1.471   2.713  0.2420  0.2923 -0.2663
 1640ntf    fn4 9478   2.224   1.188   2.474 -0.4742 -0.0853  0.0249
 1640ntf    fn4 9479   2.129   1.180   2.661 -0.5333 -0.0890  0.3554
 1640ntf    fn4 9480   2.060   1.319   2.524  0.4797 -0.0735 -0.4467
 1641ntf    cn1 9481   5.872   3.577   1.180  0.0962  0.4720 -0.5166
 1641ntf    sn2 9482   5.954   3.540   1.022  0.1231  0.3138 -0.4664
 1641ntf    nn3 9483   5.906   3.394   0.989  0.5707  0.1152 -0.2415
 1641ntf    sn2 9484   5.757   3.359   0.955  0.4977  0.2638 -0.0778
 1641ntf    cn1 9485   5.779   3.256   0.807 -0.4299 -0.2952  0.1652
 1641ntf    fn4 9486   5.910   3.494   1.276  0.2938  0.5102 -0.5619
 1641ntf    fn4 9487   5.900   3.694   1.234  0.7107  0.0014  0.2027
 1641ntf    fn4 9488   5.739   3.580   1.181  0.0777 -0.2897  0.2171
 1641ntf    on5 9489   5.911   3.644   0.932  0.1069  0.3990 -0.3613
 1641ntf    on5 9490   6.094   3.539   1.054 -0.0405 -0.7235  0.2724
 1641ntf    on5 9491   5.680   3.464   0.892  0.0837  0.0267  0.0298
 1641ntf    on5 9492   5.702   3.270   1.054  0.8922 -0.1178 -0.2002
 1641ntf    fn4 9493   5.851   3.151   0.843  0.6770  0.1971 -0.5278
 1641ntf    fn4 9494   5.660   3.208   0.775 -0.4664 -0.1252  0.0421
 1641ntf    fn4 9495   5.834   3.311   0.699 -0.2457  0.0818  0.4520
 1642ntf    cn1 9496   4.711   2.233   2.422 -0.3465 -0.3398 -0.0618
 1642ntf    sn2 9497   4.780   2.129   2.291  0.1220  0.2069 -0.2533
 1642ntf    nn3 9498   4.876   2.223   2.209  0.2129  0.0380 -0.3414
 1642ntf    sn2 9499   4.868   2.253   2.055  0.0922  0.0894 -0.3253
 1642ntf    cn1 9500   5.035   2.200   2.009  0.0905 -0.1228 -0.0913
 1642ntf    fn4 9501   4.653   2.340   2.370  0.6450  0.4623  0.4522
 1642ntf    fn4 9502   4.628   2.166   2.499 -0.4748 -0.1303 -0.0155
 1642ntf    fn4 9503   4.813   2.279   2.493 -0.3106  0.4431 -0.6032
 1642ntf    on5 9504   4.859   2.033   2.364 -0.5358 -0.0972  0.0616
 1642ntf    on5 9505   4.656   2.083   2.233  0.1205 -0.1096  0.0010
 1642ntf    on5 9506   4.856   2.395   2.033 -0.1648  0.1106 -0.0604
 1642ntf    on5 9507   4.788   2.168   1.968  0.0695  0.0995 -0.3144
 1642ntf    fn4 9508   5.067   2.198   1.880  0.0066 -0.3288 -0.1098
 1642ntf    fn4 9509   5.130   2.273   2.064 -0.0060 -0.0697  0.0048
 1642ntf    fn4 9510   5.065   2.080   2.056  0.1135 -0.1442 -0.1600
 1643ntf    cn1 9511   2.934   4.178   2.148  0.0985  0.2510 -0.2874
 1643ntf    sn2 9512   3.050   4.039   2.131  0.1127  0.2182  0.0680
 1643ntf    nn3 9513   3.129   4.092   2.006 -0.0975  0.4777  0.0444
 1643ntf    sn2 9514   3.275   4.088   1.950 -0.2993  0.0150 -0.4658
 1643ntf    cn1 9515   3.341   4.247   2.009 -0.1191 -0.0122 -0.5932
 1643ntf    fn4 9516   2.866   4.178   2.261  0.3688  0.9245 -0.1211
 1643ntf    fn4 9517   2.991   4.297   2.141 -0.0858  0.3651  0.1176
 1643ntf    fn4 9518   2.840   4.180   2.055  0.0772  0.2635 -0.2659
 1643ntf    on5 9519   3.134   4.038   2.248  0.1973 -0.4617  0.0057
 1643ntf    on5 9520   2.965   3.925   2.107 -0.0267  0.3034  0.1535
 1643ntf    on5 9521   3.291   4.098   1.807  0.5298 -0.3278 -0.4037
 1643ntf    on5 9522   3.360   3.993   2.017 -0.6597 -0.0664 -0.1180
 1643ntf    fn4 9523   3.321   4.263   2.139 -0.6938 -0.3298 -0.6365
 1643ntf    fn4 9524   3.469   4.263   1.981  0.0879  0.5519  0.6175
 1643ntf    fn4 9525   3.277   4.347   1.950  0.2276  0.5555 -0.0179
 1644ntf    cn1 9526   5.942   3.095   0.448  0.0192  0.1228  0.1800
 1644ntf    sn2 9527   5.778   3.054   0.382  0.1560 -0.2196  0.0548
 1644ntf    nn3 9528   5.757   3.161   0.270 -0.1021 -0.2666  0.0576
 1644ntf    sn2 9529   5.677   3.142   0.136  0.1262  0.4550 -0.1887
 1644ntf    cn1 9530   5.503   3.150   0.188  0.1896 -0.0457  0.1103
 1644ntf    fn4 9531   6.039   3.095   0.357 -0.4049  0.0535 -0.2748
 1644ntf    fn4 9532   5.957   3.207   0.518  0.7785  0.5108 -0.5792
 1644ntf    fn4 9533   5.979   2.995   0.526 -0.3476 -0.1371  0.0194
 1644ntf    on5 9534   5.788   2.915   0.346 -0.4334 -0.2528  0.0074
 1644ntf    on5 9535   5.690   3.090   0.491  0.3961  0.4873  0.0165
 1644ntf    on5 9536   5.692   3.012   0.075 -0.2452  0.4723 -0.3229
 1644ntf    on5 9537   5.696   3.248   0.041  0.3571  0.3235 -0.2905
 1644ntf    fn4 9538   5.464   3.063   0.281 -0.8081 -0.2642 -0.4990
 1644ntf    fn4 9539   5.481   3.270   0.238 -0.1010 -0.0869  0.0836
 1644ntf    fn4 9540   5.417   3.137   0.089  0.7773  0.2521 -0.4455
 1645ntf    cn1 9541   3.075   4.959   4.005 -0.2528 -0.4840 -0.3377
 1645ntf    sn2 9542   3.101   5.139   4.008  0.1412 -0.5473  0.2915
 1645ntf    nn3 9543   2.955   5.190   4.037  0.1440 -0.1778 -0.3163
 1645ntf    sn2 9544   2.904   5.320   4.107  0.2224 -0.2250 -0.1705
 1645ntf    cn1 9545   2.887   5.259   4.278  0.2464 -0.1234 -0.1325
 1645ntf    fn4 9546   3.187   4.890   4.022 -0.1408 -0.3616 -0.5720
 1645ntf    fn4 9547   2.994   4.920   4.102 -0.1440  0.0252 -0.0397
 1645ntf    fn4 9548   3.022   4.915   3.892 -0.5128 -0.4785 -0.2198
 1645ntf    on5 9549   3.192   5.152   4.118 -0.6675  0.5690  0.8460
 1645ntf    on5 9550   3.154   5.167   3.876  0.1443 -0.0126  0.4055
 1645ntf    on5 9551   2.772   5.345   4.054  0.2274 -0.4126 -0.2716
 1645ntf    on5 9552   2.999   5.428   4.119 -0.2057  0.2416 -0.9016
 1645ntf    fn4 9553   3.010   5.234   4.320  0.2467 -0.1961 -0.1755
 1645ntf    fn4 9554   2.846   5.350   4.364 -0.0804  0.0297 -0.4484
 1645ntf    fn4 9555   2.809   5.153   4.288 -0.0736  0.1358  0.1222
 1646ntf    cn1 9556   0.394   6.650   5.180 -0.1821  0.2112 -0.2706
 1646ntf    sn2 9557   0.356   6.780   5.301 -0.1110  0.1678 -0.2016
 1646ntf    nn3 9558   0.232   6.846   5.231 -0.2212 -0.1527 -0.3090
 1646ntf    sn2 9559   0.217   6.979   5.149  0.1085 -0.0681 -0.2343
 1646ntf    cn1 9560   0.087   6.931   5.031 -0.0299 -0.3107  0.0167
 1646ntf    fn4 9561   0.373   6.695   5.057 -0.2709 -0.2929 -0.4409
 1646ntf    fn4 9562   0.520   6.610   5.186 -0.3689 -0.2358  0.8774
 1646ntf    fn4 9563   0.320   6.541   5.191  0.2430 -0.0610 -0.0985
 1646ntf    on5 9564   0.322   6.709   5.422  0.5346 -0.1639 -0.2112
 1646ntf    on5 9565   0.472   6.866   5.309  0.2538 -0.3148 -0.2871
 1646ntf    on5 9566   0.324   7.017   5.060 -0.1814  0.3739 -0.4003
 1646ntf    on5 9567   0.154   7.085   5.225  0.0703 -0.2000 -0.0827
 1646ntf    fn4 9568   0.124   6.853   4.931 -0.3774 -0.3762 -0.0615
 1646ntf    fn4 9569  -0.010   6.872   5.099 -0.4482  0.1251 -0.1910
 1646ntf    fn4 9570   0.032   7.036   4.973  0.6975 -0.2300 -0.5353
 1647ntf    cn1 9571   3.911   0.192   1.072 -0.3895 -0.1704  0.2267
 1647ntf    sn2 9572   3.955   0.359   1.127 -0.2941 -0.0932 -0.0844
 1647ntf    nn3 9573   3.957   0.422   0.983 -0.2998 -0.3620 -0.2031
 1647ntf    sn2 9574   4.078   0.432   0.883 -0.0173  0.1792  0.1840
 1647ntf    cn1 9575   4.156   0.585   0.940  0.1673  0.1299  0.0630
 1647ntf    fn4 9576   3.916   0.109   1.175  0.0153 -0.0860  0.2768
 1647ntf    fn4 9577   3.787   0.176   1.028 -0.2533  0.1562 -0.2875
 1647ntf    fn4 9578   3.987   0.143   0.975  0.0319  0.5270  0.1983
 1647ntf    on5 9579   3.841   0.399   1.205 -0.2532  0.0721 -0.1082
 1647ntf    on5 9580   4.086   0.346   1.186 -0.1138  0.2515 -0.3989
 1647ntf    on5 9581   4.034   0.460   0.749  0.6503 -0.0620 -0.0899
 1647ntf    on5 9582   4.170   0.321   0.892 -0.3505 -0.1016  0.1755
 1647ntf    fn4 9583   4.267   0.603   0.870  0.6974  0.1492  0.8901
 1647ntf    fn4 9584   4.088   0.698   0.928 -0.0633 -0.0017  0.1318
 1647ntf    fn4 9585   4.187   0.572   1.068 -0.1694  0.4241  0.1750
 1648ntf    cn1 9586   5.659   5.046   5.328  0.1042 -0.0615 -0.1212
 1648ntf    sn2 9587   5.526   5.006   5.211  0.1105 -0.0127 -0.1443
 1648ntf    nn3 9588   5.429   5.123   5.249  0.0916 -0.0754 -0.0003
 1648ntf    sn2 9589   5.290   5.104   5.320 -0.0857  0.2638 -0.2526
 1648ntf    cn1 9590   5.250   5.279   5.349  0.0257  0.2768 -0.1763
 1648ntf    fn4 9591   5.756   4.955   5.327  0.1318 -0.0429  0.3293
 1648ntf    fn4 9592   5.710   5.167   5.312 -0.6018  0.2223 -0.2249
 1648ntf    fn4 9593   5.615   5.050   5.453  0.4974 -0.0735  0.0220
 1648ntf    on5 9594   5.580   5.019   5.078  0.1919  0.0443 -0.1060
 1648ntf    on5 9595   5.485   4.871   5.243  0.2649 -0.0102  0.0701
 1648ntf    on5 9596   5.287   5.054   5.455  0.4580  0.9044  0.0050
 1648ntf    on5 9597   5.183   5.062   5.233 -0.6201  0.7284  0.1784
 1648ntf    fn4 9598   5.273   5.353   5.242 -0.2922 -0.3026 -0.6476
 1648ntf    fn4 9599   5.129   5.300   5.398 -0.2689 -0.5106 -0.5392
 1648ntf    fn4 9600   5.331   5.331   5.440  0.0825 -0.2768  0.0937
 1649ntf    cn1 9601   2.806   6.626   6.372  0.3302 -0.0159 -0.1938
 1649ntf    sn2 9602   2.829   6.487   6.488  0.0227  0.1547  0.0731
 1649ntf    nn3 9603   2.678   6.468   6.527 -0.2318  0.2721 -0.8318
 1649ntf    sn2 9604   2.584   6.343   6.510  0.4760 -0.3751 -0.0551
 1649ntf    cn1 9605   2.467   6.397   6.381  0.0152 -0.1598  0.4508
 1649ntf    fn4 9606   2.708   6.603   6.286  0.4663  0.4047 -0.4631
 1649ntf    fn4 9607   2.778   6.739   6.435  0.0342  0.1374 -0.5996
 1649ntf    fn4 9608   2.914   6.663   6.306  0.0665  0.1810 -0.5194
 1649ntf    on5 9609   2.895   6.395   6.399 -0.5419  0.4241 -0.6314
 1649ntf    on5 9610   2.909   6.544   6.593 -0.1098  0.0961  0.2071
 1649ntf    on5 9611   2.507   6.328   6.630  0.4158  0.2661 -0.0099
 1649ntf    on5 9612   2.642   6.222   6.457  0.0100 -0.5009 -0.2809
 1649ntf    fn4 9613   2.352   6.333   6.384  0.2357 -0.5764  0.0735
 1649ntf    fn4 9614   2.439   6.525   6.399  0.4203 -0.0361  0.2154
 1649ntf    fn4 9615   2.519   6.383   6.260  0.1584  0.3086  0.4548
 1650ntf    cn1 9616   6.088   3.214   1.814  0.1337  0.0512  0.0537
 1650ntf    sn2 9617   6.033   3.125   1.666 -0.1190  0.2949  0.0002
 1650ntf    nn3 9618   6.002   2.988   1.736  0.3760  0.4562  0.5334
 1650ntf    sn2 9619   6.056   2.843   1.707  0.0714  0.3689  0.4018
 1650ntf    cn1 9620   6.146   2.818   1.863  0.2171 -0.6941  0.1485
 1650ntf    fn4 9621   6.182   3.304   1.789 -0.3632  0.5608  0.0037
 1650ntf    fn4 9622   5.987   3.268   1.880 -0.0702  0.0243 -0.2344
 1650ntf    fn4 9623   6.149   3.134   1.899  0.3722  0.6380  0.4446
 1650ntf    on5 9624   5.919   3.198   1.615 -0.3223 -0.0786 -0.0842
 1650ntf    on5 9625   6.151   3.125   1.583 -0.0493  0.0379  0.0986
 1650ntf    on5 9626   6.160   2.824   1.609 -0.3054 -0.2843  0.1214
 1650ntf    on5 9627   5.953   2.742   1.706 -0.3513  0.7954  0.2128
 1650ntf    fn4 9628   6.276   2.841   1.864  0.1351 -0.2398  0.2854
 1650ntf    fn4 9629   6.102   2.885   1.968  0.9892 -0.1974  0.1592
 1650ntf    fn4 9630   6.142   2.688   1.890  0.3452 -0.6032  0.5992
 1651ntf    cn1 9631   1.213   3.222   0.963 -0.0475 -0.4059  0.4288
 1651ntf    sn2 9632   1.384   3.183   1.009  0.1010 -0.3983 -0.1040
 1651ntf    nn3 9633   1.407   3.040   0.950 -0.6061 -0.4676 -0.2141
 1651ntf    sn2 9634   1.405   2.904   1.028 -0.0996 -0.4564 -0.1786
 1651ntf    cn1 9635   1.230   2.862   1.002 -0.2057 -0.0584 -0.1202
 1651ntf    fn4 9636   1.121   3.145   1.018 -0.3049 -0.1596  0.3491
 1651ntf    fn4 9637   1.180   3.349   0.982  0.2023 -0.3706  0.6268
 1651ntf    fn4 9638   1.190   3.194   0.836  0.2210 -0.6201  0.4268
 1651ntf    on5 9639   1.459   3.283   0.937 -0.1836 -0.1424 -0.0463
 1651ntf    on5 9640   1.385   3.199   1.153  0.2097  0.1120 -0.1577
 1651ntf    on5 9641   1.424   2.899   1.171 -0.2478 -0.2073 -0.1490
 1651ntf    on5 9642   1.463   2.794   0.956  0.1715 -0.2848 -0.2222
 1651ntf    fn4 9643   1.207   2.732   0.993 -0.2430 -0.0231 -0.5884
 1651ntf    fn4 9644   1.148   2.915   1.091 -0.1541 -0.0078 -0.1024
 1651ntf    fn4 9645   1.196   2.909   0.883  0.2215 -0.2233 -0.3102
 1652ntf    cn1 9646   3.001   4.564   0.210  0.4909 -0.2134 -0.0496
 1652ntf    sn2 9647   2.978   4.447   0.073  0.1979 -0.1316 -0.0711
 1652ntf    nn3 9648   2.905   4.541  -0.029  0.1601 -0.3382 -0.2356
 1652ntf    sn2 9649   2.953   4.628  -0.150  0.1584 -0.1015 -0.0652
 1652ntf    cn1 9650   2.937   4.519  -0.295  0.3121 -0.2770  0.0512
 1652ntf    fn4 9651   3.033   4.519   0.330 -0.1400  0.1056  0.2372
 1652ntf    fn4 9652   3.104   4.645   0.188  0.1623  0.3181  0.3485
 1652ntf    fn4 9653   2.896   4.642   0.229  0.9684  0.4029  0.0733
 1652ntf    on5 9654   3.109   4.399   0.034  0.0215 -0.3431 -0.4170
 1652ntf    on5 9655   2.882   4.349   0.120  0.2693 -0.0426  0.2634
 1652ntf    on5 9656   3.094   4.656  -0.157  0.0728  0.1851 -0.7499
 1652ntf    on5 9657   2.860   4.737  -0.167  0.2661 -0.0560 -0.3716
 1652ntf    fn4 9658   3.045   4.443  -0.304  0.4205 -0.0511 -0.5470
 1652ntf    fn4 9659   2.824   4.451  -0.291 -0.5878  1.1947  0.5342
 1652ntf    fn4 9660   2.929   4.584  -0.410  0.1729 -0.1687  0.1219
 1653ntf    cn1 9661   4.478   3.777   0.378 -0.0943  0.1441  0.1433
 1653ntf    sn2 9662   4.514   3.669   0.236 -0.2435 -0.0080  0.2206
 1653ntf    nn3 9663   4.420   3.706   0.116 -0.2902 -0.2316  0.1868
 1653ntf    sn2 9664   4.278   3.655   0.073 -0.2943 -0.1022  0.0447
 1653ntf    cn1 9665   4.343   3.543  -0.054 -0.2484 -0.2060  0.1602
 1653ntf    fn4 9666   4.357   3.757   0.426 -0.1913 -0.1172 -0.2060
 1653ntf    fn4 9667   4.567   3.745   0.470  0.2064 -0.4796 -0.3493
 1653ntf    fn4 9668   4.491   3.906   0.353  0.1518  0.1705  0.4015
 1653ntf    on5 9669   4.652   3.702   0.211 -0.3813  0.1681 -0.3214
 1653ntf    on5 9670   4.489   3.537   0.289 -0.4340 -0.0245  0.0895
 1653ntf    on5 9671   4.204   3.747  -0.009  0.0018 -0.0468 -0.1625
 1653ntf    on5 9672   4.202   3.580   0.171 -0.2274  0.4013  0.4884
 1653ntf    fn4 9673   4.393   3.601  -0.162  0.4719 -0.3996  0.3834
 1653ntf    fn4 9674   4.438   3.468  -0.001 -0.0097  0.0131  0.0390
 1653ntf    fn4 9675   4.263   3.448  -0.101  0.0826 -0.3013 -0.2122
 1654ntf    cn1 9676   3.393   2.876   6.633 -0.3459 -0.5596 -0.0702
 1654ntf    sn2 9677   3.356   2.891   6.810  0.0505  0.0983 -0.0376
 1654ntf    nn3 9678   3.499   2.936   6.857 -0.0214 -0.0211  0.3046
 1654ntf    sn2 9679   3.539   3.031   6.975  0.1313  0.0655  0.1839
 1654ntf    cn1 9680   3.620   2.912   7.086  0.3183 -0.0655 -0.0929
 1654ntf    fn4 9681   3.291   2.835   6.561 -0.6313 -0.0307  0.0288
 1654ntf    fn4 9682   3.430   2.989   6.575  0.1062 -0.2744  0.7540
 1654ntf    fn4 9683   3.495   2.792   6.620 -0.1197 -0.2482 -0.3216
 1654ntf    on5 9684   3.251   2.990   6.808 -0.3574 -0.3274  0.0986
 1654ntf    on5 9685   3.317   2.759   6.853  0.2212  0.1027  0.1296
 1654ntf    on5 9686   3.433   3.082   7.059 -0.1715 -0.3366  0.0494
 1654ntf    on5 9687   3.647   3.118   6.935  0.3056 -0.1630  0.1567
 1654ntf    fn4 9688   3.534   2.820   7.123  0.1079 -0.2714 -1.0535
 1654ntf    fn4 9689   3.731   2.855   7.041  0.1434 -0.1807 -0.3787
 1654ntf    fn4 9690   3.659   2.976   7.195  0.5685  0.3815 -0.4346
 1655ntf    cn1 9691   0.053   5.867   1.992 -0.5202 -0.1825  0.2302
 1655ntf    sn2 9692  -0.075   5.860   1.862 -0.1004 -0.0337 -0.1945
 1655ntf    nn3 9693  -0.131   5.721   1.909 -0.5461 -0.0243 -0.6994
 1655ntf    sn2 9694  -0.079   5.578   1.870 -0.0029  0.0288 -0.1710
 1655ntf    cn1 9695  -0.175   5.551   1.718 -0.2263 -0.1124 -0.0068
 1655ntf    fn4 9696   0.016   5.851   2.118 -0.1265  0.3231  0.4148
 1655ntf    fn4 9697   0.146   5.775   1.973  0.1394  0.5239 -0.0184
 1655ntf    fn4 9698   0.111   5.986   1.990  0.0620 -0.4642 -1.0000
 1655ntf    on5 9699  -0.158   5.973   1.895 -0.1060 -0.0207 -0.2536
 1655ntf    on5 9700  -0.003   5.856   1.737  0.2182 -0.0090 -0.0116
 1655ntf    on5 9701  -0.130   5.476   1.959 -0.0482  0.0983 -0.1174
 1655ntf    on5 9702   0.060   5.571   1.834  0.1199 -0.2320  0.3433
 1655ntf    fn4 9703  -0.304   5.562   1.745 -0.1189  0.5197  0.2843
 1655ntf    fn4 9704  -0.141   5.646   1.631  0.0622 -0.2163 -0.0101
 1655ntf    fn4 9705  -0.147   5.437   1.657  1.0799  0.0601  0.2278
 1656ntf    cn1 9706   1.689   6.545   0.590 -0.0378  0.0340  0.2138
 1656ntf    sn2 9707   1.655   6.533   0.768  0.1915  0.2201  0.2711
 1656ntf    nn3 9708   1.633   6.683   0.810  0.6417  0.3674 -0.0143
 1656ntf    sn2 9709   1.494   6.750   0.840  0.4023 -0.1415  0.0242
 1656ntf    cn1 9710   1.547   6.896   0.935  0.0507  0.1377 -0.2065
 1656ntf    fn4 9711   1.600   6.614   0.522 -0.2101 -0.0050  0.4009
 1656ntf    fn4 9712   1.808   6.598   0.565 -0.1640  0.0795 -0.3037
 1656ntf    fn4 9713   1.693   6.428   0.528 -0.3315  0.0589  0.1461
 1656ntf    on5 9714   1.539   6.448   0.774  0.8021 -0.6457 -0.0106
 1656ntf    on5 9715   1.769   6.471   0.829  0.1912  0.2812  0.3347
 1656ntf    on5 9716   1.413   6.682   0.937  0.2716  0.1758  0.1383
 1656ntf    on5 9717   1.428   6.806   0.724  0.1201  0.0712  0.2867
 1656ntf    fn4 9718   1.612   6.976   0.852  0.2775 -0.3137 -0.4708
 1656ntf    fn4 9719   1.442   6.962   0.982  0.0905 -0.0795  0.1899
 1656ntf    fn4 9720   1.629   6.861   1.032 -0.4249  0.5597  0.3536
 1657ntf    cn1 9721   4.405   1.519   1.609 -0.1250 -0.1146 -0.0886
 1657ntf    sn2 9722   4.484   1.451   1.758  0.2140 -0.2779 -0.3410
 1657ntf    nn3 9723   4.358   1.435   1.851  0.5305  0.1979  0.1712
 1657ntf    sn2 9724   4.304   1.511   1.977  0.0407 -0.0376  0.1029
 1657ntf    cn1 9725   4.135   1.556   1.926 -0.1120 -0.3552  0.3274
 1657ntf    fn4 9726   4.419   1.651   1.608 -0.2234 -0.1017  0.1608
 1657ntf    fn4 9727   4.466   1.476   1.499  0.1350 -0.3844  0.1599
 1657ntf    fn4 9728   4.276   1.495   1.598 -0.1114 -0.2733  0.0935
 1657ntf    on5 9729   4.538   1.322   1.722  0.0888 -0.3047 -0.4348
 1657ntf    on5 9730   4.573   1.555   1.802  0.5986 -0.5590 -0.4480
 1657ntf    on5 9731   4.353   1.645   1.999  0.2260 -0.0755 -0.0775
 1657ntf    on5 9732   4.267   1.425   2.087  0.2036 -0.1295  0.0851
 1657ntf    fn4 9733   4.126   1.598   1.801  0.3834 -0.1339  0.3654
 1657ntf    fn4 9734   4.045   1.459   1.932 -0.3145 -0.1600  0.4754
 1657ntf    fn4 9735   4.081   1.653   1.998 -0.2252  0.2608 -0.5780
 1658ntf    cn1 9736   1.860   4.806   6.333  0.1242  0.2948  0.0015
 1658ntf    sn2 9737   1.902   4.719   6.487 -0.0667 -0.3011 -0.2752
 1658ntf    nn3 9738   1.889   4.571   6.439 -0.1366 -0.4543  0.2083
 1658ntf    sn2 9739   2.001   4.480   6.377  0.0605 -0.0464 -0.0378
 1658ntf    cn1 9740   2.080   4.408   6.523 -0.1751 -0.0565  0.0860
 1658ntf    fn4 9741   1.935   4.772   6.230 -0.2191  0.0098 -0.1589
 1658ntf    fn4 9742   1.735   4.783   6.295  0.2502 -0.0447 -0.2232
 1658ntf    fn4 9743   1.865   4.937   6.350  0.3205  0.2927 -0.0403
 1658ntf    on5 9744   2.033   4.769   6.523 -0.1037 -0.2181 -0.2561
 1658ntf    on5 9745   1.789   4.752   6.571  0.3229  0.2287  0.0529
 1658ntf    on5 9746   2.107   4.553   6.313 -0.4500  0.5152 -0.2564
 1658ntf    on5 9747   1.951   4.370   6.298 -0.1545  0.0439 -0.0279
 1658ntf    fn4 9748   2.120   4.507   6.602  0.1141 -0.3288  0.2830
 1658ntf    fn4 9749   2.008   4.332   6.604 -0.2192  0.6153  0.6905
 1658ntf    fn4 9750   2.184   4.334   6.486 -0.2168 -0.1153  0.0852
 1659ntf    cn1 9751   6.265   4.856   3.755  0.0350 -0.5738 -0.1828
 1659ntf    sn2 9752   6.169   4.784   3.618 -0.2707  0.0409 -0.2925
 1659ntf    nn3 9753   6.112   4.917   3.557  0.2060  0.1621 -0.4775
 1659ntf    sn2 9754   5.963   4.938   3.512 -0.0378 -0.2808  0.1112
 1659ntf    cn1 9755   6.000   5.047   3.371  0.2272 -0.2157  0.2303
 1659ntf    fn4 9756   6.330   4.766   3.828  0.0271 -0.1977  0.2873
 1659ntf    fn4 9757   6.351   4.938   3.696 -0.1657 -0.0800  0.2044
 1659ntf    fn4 9758   6.200   4.922   3.849 -0.3412 -0.6782 -0.3693
 1659ntf    on5 9759   6.273   4.723   3.540 -0.1408  0.3603 -0.3695
 1659ntf    on5 9760   6.081   4.697   3.692 -0.4122  0.2355 -0.2296
 1659ntf    on5 9761   5.882   5.011   3.606  0.5260  0.0541  0.3438
 1659ntf    on5 9762   5.906   4.826   3.442 -0.2575 -0.1560  0.0899
 1659ntf    fn4 9763   5.897   5.066   3.290  0.3976  0.2181  0.1124
 1659ntf    fn4 9764   6.024   5.170   3.414  0.5087 -0.0995 -0.2521
 1659ntf    fn4 9765   6.098   4.998   3.298  0.2078  0.3492 -0.1854
 1660ntf    cn1 9766   3.289   2.011   6.435  0.0144  0.3119  0.2220
 1660ntf    sn2 9767   3.470   2.011   6.416 -0.0265 -0.1772 -0.1961
 1660ntf    nn3 9768   3.485   2.165   6.445 -0.0506 -0.1345 -0.4084
 1660ntf    sn2 9769   3.572   2.222   6.562 -0.1674 -0.0372 -0.3679
 1660ntf    cn1 9770   3.565   2.397   6.515 -0.3489  0.0219 -0.1239
 1660ntf    fn4 9771   3.232   1.901   6.389  0.1328  0.2276  0.2768
 1660ntf    fn4 9772   3.247   2.022   6.560 -0.4179 -0.7736  0.1854
 1660ntf    fn4 9773   3.228   2.106   6.366 -0.3755 -0.0197  0.1041
 1660ntf    on5 9774   3.517   1.920   6.517  0.3435  0.3829  0.1433
 1660ntf    on5 9775   3.494   1.969   6.280  0.4246 -0.3621 -0.0597
 1660ntf    on5 9776   3.713   2.191   6.551 -0.2379 -0.5441  0.0880
 1660ntf    on5 9777   3.512   2.212   6.692  0.4719 -0.4282 -0.0963
 1660ntf    fn4 9778   3.444   2.441   6.542 -0.1221  0.3031  0.4456
 1660ntf    fn4 9779   3.646   2.469   6.591 -0.5647 -0.0245  0.1485
 1660ntf    fn4 9780   3.598   2.424   6.389  0.0632 -0.6855 -0.1768
 1661ntf    cn1 9781   3.807   2.931   0.837  0.2265  0.0888 -0.1320
 1661ntf    sn2 9782   3.966   3.001   0.891  0.0404  0.3199  0.1195
 1661ntf    nn3 9783   4.060   2.957   0.773 -0.1352 -0.2764  0.1992
 1661ntf    sn2 9784   4.136   3.053   0.675 -0.3316 -0.0632  0.2557
 1661ntf    cn1 9785   4.157   2.938   0.536  0.1607  0.2897  0.0355
 1661ntf    fn4 9786   3.757   2.999   0.735 -0.3693 -0.0466  0.0643
 1661ntf    fn4 9787   3.817   2.805   0.798 -0.4801  0.1191 -0.4301
 1661ntf    fn4 9788   3.716   2.934   0.933  0.2010  0.1924 -0.1597
 1661ntf    on5 9789   3.929   3.139   0.909  0.1023  0.3188  0.2527
 1661ntf    on5 9790   3.995   2.922   1.008  0.0335  0.2783  0.0932
 1661ntf    on5 9791   4.268   3.082   0.726 -0.2256  0.4278 -0.2869
 1661ntf    on5 9792   4.066   3.169   0.626  0.1269  0.3430  0.5515
 1661ntf    fn4 9793   4.227   2.991   0.437  0.3939  0.1656  0.1339
 1661ntf    fn4 9794   4.215   2.828   0.580  0.0035  0.3026  0.2783
 1661ntf    fn4 9795   4.041   2.896   0.488  0.1450  0.2646  0.0952
 1662ntf    cn1 9796   1.833   3.434   4.153 -0.1405  0.1298 -0.0933
 1662ntf    sn2 9797   1.670   3.431   4.072 -0.1391 -0.3172 -0.0847
 1662ntf    nn3 9798   1.637   3.279   4.095 -0.2417 -0.3474 -0.4268
 1662ntf    sn2 9799   1.653   3.162   3.992  0.0890 -0.5199 -0.1781
 1662ntf    cn1 9800   1.494   3.176   3.905  0.0013 -0.0382  0.0591
 1662ntf    fn4 9801   1.873   3.558   4.171  0.0397  0.0470  0.0825
 1662ntf    fn4 9802   1.837   3.364   4.266  0.1760  0.0428 -0.1586
 1662ntf    fn4 9803   1.923   3.374   4.077 -0.7144  0.0849 -0.7485
 1662ntf    on5 9804   1.592   3.524   4.150 -0.0842 -0.3924  0.0613
 1662ntf    on5 9805   1.715   3.476   3.943 -0.0448  0.5118  0.2301
 1662ntf    on5 9806   1.637   3.037   4.062  0.2830 -0.4826 -0.0658
 1662ntf    on5 9807   1.755   3.167   3.891 -0.2094  0.1184 -0.4526
 1662ntf    fn4 9808   1.453   3.302   3.902  0.5151  0.1177 -0.5934
 1662ntf    fn4 9809   1.500   3.132   3.781 -0.5897  0.0356  0.0037
 1662ntf    fn4 9810   1.395   3.122   3.973  0.1148  0.0768  0.3183
 1663ntf    cn1 9811   1.778   2.138   2.644 -0.0459 -0.1504 -0.1802
 1663ntf    sn2 9812   1.780   2.105   2.823  0.0898 -0.0900 -0.1700
 1663ntf    nn3 9813   1.933   2.113   2.856  0.0178 -0.3551  0.2431
 1663ntf    sn2 9814   2.018   2.179   2.970  0.1425 -0.0494 -0.0242
 1663ntf    cn1 9815   2.157   2.063   2.977  0.0538 -0.1487  0.0961
 1663ntf    fn4 9816   1.859   2.054   2.583  0.4525 -0.0113  0.2832
 1663ntf    fn4 9817   1.656   2.128   2.595  0.0300  0.0900 -0.4179
 1663ntf    fn4 9818   1.812   2.262   2.615  0.2334 -0.0335  0.6082
 1663ntf    on5 9819   1.697   2.212   2.874  0.0569 -0.3895  0.4146
 1663ntf    on5 9820   1.728   1.971   2.818  0.3842 -0.2261  0.3231
 1663ntf    on5 9821   1.963   2.171   3.103 -0.4522  1.1813 -0.1792
 1663ntf    on5 9822   2.086   2.298   2.924  0.3175 -0.0100  0.3333
 1663ntf    fn4 9823   2.120   1.939   3.007  0.1417 -0.2608 -0.2535
 1663ntf    fn4 9824   2.218   2.057   2.860  0.0976 -0.0988  0.1164
 1663ntf    fn4 9825   2.256   2.092   3.060  0.0945 -0.6604  0.2293
 1664ntf    cn1 9826   5.743   4.171   1.369 -0.3529 -0.4633  0.1687
 1664ntf    sn2 9827   5.648   4.220   1.222  0.2213  0.0098 -0.0503
 1664ntf    nn3 9828   5.745   4.158   1.116  0.3919  0.4744 -0.1680
 1664ntf    sn2 9829   5.790   4.199   0.971  0.3624  0.5280 -0.1621
 1664ntf    cn1 9830   5.938   4.299   1.003  0.7272 -0.0205 -0.1131
 1664ntf    fn4 9831   5.798   4.051   1.360  0.5586 -0.0068 -0.5203
 1664ntf    fn4 9832   5.846   4.253   1.380 -0.5175 -0.1150 -0.7878
 1664ntf    fn4 9833   5.690   4.188   1.489 -0.1845 -0.0787  0.1909
 1664ntf    on5 9834   5.536   4.132   1.244 -0.2374  0.5514 -0.1912
 1664ntf    on5 9835   5.632   4.364   1.222 -0.8788 -0.1045  0.0893
 1664ntf    on5 9836   5.704   4.285   0.894  0.0079  0.7119  0.4283
 1664ntf    on5 9837   5.848   4.090   0.897 -0.3002 -0.1621  0.3190
 1664ntf    fn4 9838   6.023   4.230   1.078  0.3039 -0.2527  0.1529
 1664ntf    fn4 9839   6.003   4.338   0.895  0.4567  0.2817 -0.1688
 1664ntf    fn4 9840   5.915   4.414   1.065  0.2305 -0.1807  0.0045
 1665ntf    cn1 9841   4.952   0.256   0.623  0.1418  0.2641 -0.1603
 1665ntf    sn2 9842   4.950   0.369   0.765  0.0635  0.2156 -0.1224
 1665ntf    nn3 9843   5.101   0.372   0.809 -0.0875  0.0711  0.4130
 1665ntf    sn2 9844   5.202   0.493   0.805 -0.4091  0.3287 -0.0710
 1665ntf    cn1 9845   5.260   0.481   0.633  0.2274  0.6644  0.1190
 1665ntf    fn4 9846   4.993   0.326   0.519 -0.2436  0.7554  0.0143
 1665ntf    fn4 9847   5.041   0.160   0.644 -0.0353  0.1124 -0.0908
 1665ntf    fn4 9848   4.833   0.205   0.597  0.1115  0.1220  0.2427
 1665ntf    on5 9849   4.886   0.486   0.708 -0.3349  0.0184 -0.0822
 1665ntf    on5 9850   4.874   0.293   0.861  0.0761  0.0280 -0.2603
 1665ntf    on5 9851   5.318   0.472   0.888  0.4275 -0.2661 -1.3586
 1665ntf    on5 9852   5.146   0.624   0.822 -0.6131  0.2413 -0.0600
 1665ntf    fn4 9853   5.205   0.576   0.558 -0.1246 -0.0758 -0.5723
 1665ntf    fn4 9854   5.391   0.496   0.624  0.3703 -0.4129  0.2688
 1665ntf    fn4 9855   5.229   0.368   0.572  0.3853  0.5417  0.2648
 1666ntf    cn1 9856   1.755   0.735   3.129 -0.2592  0.1997  0.1727
 1666ntf    sn2 9857   1.859   0.693   3.272 -0.3260 -0.0465  0.1477
 1666ntf    nn3 9858   2.004   0.718   3.216 -0.1498 -0.1249  0.5596
 1666ntf    sn2 9859   2.104   0.826   3.271 -0.2629  0.1962  0.1468
 1666ntf    cn1 9860   2.261   0.774   3.197 -0.2097  0.2728  0.2067
 1666ntf    fn4 9861   1.793   0.853   3.083 -0.1051 -0.0015 -0.2191
 1666ntf    fn4 9862   1.766   0.649   3.030 -0.0234  0.3046  0.1061
 1666ntf    fn4 9863   1.629   0.739   3.167 -0.2987  0.0204  0.0592
 1666ntf    on5 9864   1.817   0.787   3.372  0.2311  0.0682  0.2821
 1666ntf    on5 9865   1.846   0.551   3.298  0.0157 -0.0959  0.0593
 1666ntf    on5 9866   2.134   0.815   3.412 -0.5056 -0.4598  0.1515
 1666ntf    on5 9867   2.082   0.962   3.230  0.1680  0.2296  0.0230
 1666ntf    fn4 9868   2.363   0.860   3.200  0.0800 -0.0274 -0.7575
 1666ntf    fn4 9869   2.304   0.660   3.249 -0.2454 -0.0301 -0.4213
 1666ntf    fn4 9870   2.243   0.753   3.068  0.2394 -0.0063  0.1864
 1667ntf    cn1 9871   4.673   6.029   4.708  0.3173  0.3904  0.2297
 1667ntf    sn2 9872   4.788   5.890   4.725 -0.2674 -0.0482  0.6431
 1667ntf    nn3 9873   4.909   5.954   4.647 -0.2998 -0.5076  0.2090
 1667ntf    sn2 9874   5.062   5.949   4.682 -0.1239  0.0686 -0.4726
 1667ntf    cn1 9875   5.087   6.123   4.728  0.0383 -0.0602 -0.0703
 1667ntf    fn4 9876   4.561   6.008   4.775  0.2502  0.2483  0.0708
 1667ntf    fn4 9877   4.726   6.138   4.761  0.0684  0.3099  0.6480
 1667ntf    fn4 9878   4.640   6.060   4.584 -0.1736  0.0279  0.2662
 1667ntf    on5 9879   4.797   5.881   4.869 -0.7328  0.0829  0.6790
 1667ntf    on5 9880   4.728   5.777   4.659 -0.1216  0.2857 -0.0694
 1667ntf    on5 9881   5.154   5.940   4.571  0.3625 -0.3335 -0.0393
 1667ntf    on5 9882   5.112   5.884   4.800  0.1152  0.1542 -0.5269
 1667ntf    fn4 9883   5.208   6.160   4.691  0.3262 -0.4593  0.4607
 1667ntf    fn4 9884   5.016   6.208   4.655  0.5697  0.0590 -0.4576
 1667ntf    fn4 9885   5.082   6.161   4.855  0.2358  0.6353 -0.2671
 1668ntf    cn1 9886   4.367   6.219   4.985  0.4572 -0.2671 -0.4161
 1668ntf    sn2 9887   4.526   6.232   5.073  0.1209  0.0948  0.1449
 1668ntf    nn3 9888   4.490   6.340   5.181 -0.7656  0.1195 -0.1687
 1668ntf    sn2 9889   4.513   6.495   5.194 -0.0123 -0.0227  0.2674
 1668ntf    cn1 9890   4.588   6.508   5.358 -0.1096 -0.1399  0.3223
 1668ntf    fn4 9891   4.266   6.213   5.070  0.4333 -0.2460 -0.4429
 1668ntf    fn4 9892   4.351   6.328   4.912  0.8249 -0.1253 -0.2890
 1668ntf    fn4 9893   4.353   6.114   4.906  0.3428 -0.6672  0.1307
 1668ntf    on5 9894   4.548   6.103   5.133  0.6176  0.0891 -0.0427
 1668ntf    on5 9895   4.616   6.282   4.972  0.0868 -0.3521 -0.1104
 1668ntf    on5 9896   4.391   6.572   5.202  0.5049  0.7957  0.3669
 1668ntf    on5 9897   4.616   6.548   5.108 -0.5641  0.2052 -0.2617
 1668ntf    fn4 9898   4.701   6.440   5.374  0.3053  0.3558 -0.4238
 1668ntf    fn4 9899   4.618   6.634   5.388 -0.0560  0.0931 -0.6767
 1668ntf    fn4 9900   4.506   6.469   5.454 -0.8085 -0.2975 -0.3359
 1669ntf    cn1 9901   2.439   0.672   6.615 -0.3995  0.6571 -0.1624
 1669ntf    sn2 9902   2.569   0.549   6.646 -0.2734  0.7130 -0.4682
 1669ntf    nn3 9903   2.551   0.522   6.799  0.9032 -0.2867 -0.4886
 1669ntf    sn2 9904   2.532   0.387   6.877 -0.1397  0.1922  0.1075
 1669ntf    cn1 9905   2.357   0.342   6.865 -0.0845  0.0612 -0.2117
 1669ntf    fn4 9906   2.462   0.788   6.674  0.1728  0.2311  0.4663
 1669ntf    fn4 9907   2.423   0.694   6.485 -0.2310  0.0733 -0.2869
 1669ntf    fn4 9908   2.324   0.634   6.668 -0.2220  0.4852  0.0995
 1669ntf    on5 9909   2.513   0.445   6.564  0.2193  0.4882 -0.5265
 1669ntf    on5 9910   2.698   0.603   6.612  0.0216  0.3305  0.0288
 1669ntf    on5 9911   2.558   0.417   7.016 -0.3117 -0.2129  0.2282
 1669ntf    on5 9912   2.608   0.278   6.820  0.0478  0.1979  0.3450
 1669ntf    fn4 9913   2.274   0.420   6.933  0.1756  0.0181  0.1573
 1669ntf    fn4 9914   2.318   0.348   6.739 -0.1068  0.3032 -0.1926
 1669ntf    fn4 9915   2.329   0.220   6.910  0.4561 -0.0779 -0.2478
 1670ntf    cn1 9916   3.992   3.374   2.111  0.1072 -0.0249  0.0746
 1670ntf    sn2 9917   3.823   3.425   2.066  0.0600 -0.0354  0.2379
 1670ntf    nn3 9918   3.742   3.296   2.104  0.6918 -0.3530  0.5275
 1670ntf    sn2 9919   3.742   3.157   2.030 -0.1107 -0.1755  0.1802
 1670ntf    cn1 9920   3.580   3.176   1.950 -0.0216 -0.3151 -0.0352
 1670ntf    fn4 9921   4.037   3.270   2.042  0.0310  0.2157 -0.3415
 1670ntf    fn4 9922   4.079   3.470   2.082  0.0110  0.0060 -0.1091
 1670ntf    fn4 9923   4.007   3.340   2.238 -0.7356  0.1960  0.2397
 1670ntf    on5 9924   3.798   3.534   2.157  0.3763 -0.1115  0.4193
 1670ntf    on5 9925   3.815   3.451   1.924 -0.3403 -0.0518  0.2574
 1670ntf    on5 9926   3.731   3.044   2.119 -0.3828 -0.2643  0.0319
 1670ntf    on5 9927   3.836   3.147   1.920  0.3991 -0.0886  0.6005
 1670ntf    fn4 9928   3.574   3.090   1.850  0.0843  0.1487 -0.4405
 1670ntf    fn4 9929   3.476   3.151   2.028 -0.1058  0.2999  0.0541
 1670ntf    fn4 9930   3.563   3.298   1.902  0.5959 -0.1240  0.2198
 1671ntf    cn1 9931   0.087   0.718   3.179 -0.1044 -0.0737  0.1495
 1671ntf    sn2 9932   0.089   0.537   3.164 -0.2184 -0.0837  0.2559
 1671ntf    nn3 9933   0.129   0.494   3.310  0.2535  0.2912  0.2383
 1671ntf    sn2 9934   0.033   0.510   3.433 -0.1525 -0.2143 -0.0091
 1671ntf    cn1 9935  -0.049   0.348   3.422 -0.0208 -0.2632 -0.2931
 1671ntf    fn4 9936  -0.030   0.764   3.221 -0.1986 -0.0261 -0.1634
 1671ntf    fn4 9937   0.187   0.771   3.247  0.0858  0.2265 -0.3591
 1671ntf    fn4 9938   0.108   0.770   3.060 -0.2365  0.2948  0.2855
 1671ntf    on5 9939  -0.038   0.493   3.112  0.2512  0.0064 -0.9966
 1671ntf    on5 9940   0.198   0.517   3.072 -0.7259 -0.6606 -0.2282
 1671ntf    on5 9941  -0.075   0.605   3.419 -0.5860 -0.7426 -0.2640
 1671ntf    on5 9942   0.094   0.511   3.564 -0.0326  0.3440 -0.0670
 1671ntf    fn4 9943  -0.128   0.338   3.317 -0.2950  0.1286 -0.1307
 1671ntf    fn4 9944   0.037   0.249   3.410  0.0469 -0.2848  0.3159
 1671ntf    fn4 9945  -0.122   0.317   3.528  0.2347 -0.5910 -0.2152
 1672ntf    cn1 9946   1.808   4.015   3.295  0.1288  0.3611  0.2202
 1672ntf    sn2 9947   1.835   3.856   3.380 -0.0282  0.1442 -0.1332
 1672ntf    nn3 9948   1.786   3.897   3.523  0.0739 -0.3491  0.0451
 1672ntf    sn2 9949   1.794   3.813   3.655  0.0205 -0.4049  0.0127
 1672ntf    cn1 9950   1.952   3.868   3.727 -0.0138 -0.0478 -0.1887
 1672ntf    fn4 9951   1.861   4.120   3.355 -0.6984  0.4122  0.8810
 1672ntf    fn4 9952   1.865   4.011   3.176 -0.6241  0.2477 -0.1452
 1672ntf    fn4 9953   1.680   4.050   3.288  0.0260 -0.1060 -0.2786
 1672ntf    on5 9954   1.752   3.764   3.307  0.4983 -0.1182 -0.4109
 1672ntf    on5 9955   1.978   3.834   3.374 -0.0126  0.1642  0.1269
 1672ntf    on5 9956   1.810   3.672   3.630  0.1612 -0.3406 -0.2560
 1672ntf    on5 9957   1.686   3.844   3.746  0.3001 -0.1281  0.2511
 1672ntf    fn4 9958   2.057   3.811   3.670 -0.1819 -0.1048 -0.4417
 1672ntf    fn4 9959   1.966   4.000   3.724  0.6861 -0.1273 -0.8893
 1672ntf    fn4 9960   1.954   3.830   3.853 -0.1889  0.6559  0.0346
 1673ntf    cn1 9961   2.694   4.642   3.512  0.3544  0.2930  0.1544
 1673ntf    sn2 9962   2.856   4.636   3.430  0.1976  0.1750 -0.1526
 1673ntf    nn3 9963   2.948   4.630   3.557 -0.2147 -0.2824  0.1317
 1673ntf    sn2 9964   3.082   4.549   3.570  0.0516  0.1420  0.0699
 1673ntf    cn1 9965   3.159   4.645   3.704 -0.1906 -0.0167  0.3270
 1673ntf    fn4 9966   2.600   4.676   3.425  0.4302  0.5980  0.1928
 1673ntf    fn4 9967   2.646   4.528   3.559 -0.2344  0.3053 -0.3834
 1673ntf    fn4 9968   2.690   4.731   3.609 -0.4461 -0.0382  0.4397
 1673ntf    on5 9969   2.850   4.524   3.340 -0.2143  0.0409  0.0404
 1673ntf    on5 9970   2.855   4.763   3.362 -0.4565  0.4153  0.2941
 1673ntf    on5 9971   3.168   4.560   3.455 -0.2504  0.1858 -0.1529
 1673ntf    on5 9972   3.064   4.420   3.632 -0.6695  0.1990 -0.0088
 1673ntf    fn4 9973   3.279   4.604   3.741 -0.2780 -0.6871 -0.1189
 1673ntf    fn4 9974   3.169   4.776   3.682 -0.1529  0.0014  0.4537
 1673ntf    fn4 9975   3.086   4.630   3.813  0.1966  0.1308  0.6109
 1674ntf    cn1 9976   6.606   5.862   2.725 -0.5670 -0.0951  0.2594
 1674ntf    sn2 9977   6.449   5.941   2.769 -0.4648  0.1023  0.2728
 1674ntf    nn3 9978   6.362   5.921   2.640 -0.0294  0.2950 -0.0518
 1674ntf    sn2 9979   6.381   5.999   2.505 -0.1923  0.1921 -0.1346
 1674ntf    cn1 9980   6.242   6.115   2.513 -0.2041  0.1570  0.1762
 1674ntf    fn4 9981   6.582   5.736   2.694  0.0353 -0.0432 -0.4625
 1674ntf    fn4 9982   6.677   5.916   2.627 -0.2086 -0.4789  0.3011
 1674ntf    fn4 9983   6.688   5.855   2.829 -0.3325  0.2691  0.1021
 1674ntf    on5 9984   6.401   5.863   2.881 -0.0594 -0.7107 -0.1094
 1674ntf    on5 9985   6.494   6.074   2.800  0.5708 -0.1509 -0.1126
 1674ntf    on5 9986   6.359   5.907   2.396 -0.3195 -0.1520  0.1767
 1674ntf    on5 9987   6.498   6.082   2.492  0.1349 -0.2457 -0.0258
 1674ntf    fn4 9988   6.257   6.224   2.440 -0.0613  0.1131  0.1421
 1674ntf    fn4 9989   6.132   6.060   2.464 -0.4797  0.3614  0.5562
 1674ntf    fn4 9990   6.218   6.157   2.637 -0.3715  0.3149  0.0905
 1675ntf    cn1 9991   6.808   6.650   0.758 -0.0776 -0.9399  0.1763
 1675ntf    sn2 9992   6.784   6.720   0.592 -0.2474 -0.3015  0.4686
 1675ntf    nn3 9993   6.829   6.866   0.631  0.0681 -0.3216  0.1843
 1675ntf    sn2 9994   6.741   6.989   0.672 -0.0941 -0.3770  0.0082
 1675ntf    cn1 9995   6.867   7.115   0.710 -0.1429 -0.2354 -0.2985
 1675ntf    fn4 9996   6.781   6.521   0.769 -0.5670 -0.8718 -0.2212
 1675ntf    fn4 9997   6.933   6.666   0.801 -0.0900 -0.4802  0.0483
 1675ntf    fn4 9998   6.724   6.699   0.848 -0.7420 -0.4633 -0.6924
 1675ntf    on5 9999   6.882   6.656   0.508 -0.7382 -0.7440  0.2285
 1675ntf    on510000   6.644   6.700   0.567 -0.1076 -0.4842 -0.1765
 1675ntf    on510001   6.658   6.979   0.790  0.0946  0.2770  0.2052
 1675ntf    on510002   6.683   7.065   0.564 -0.1911 -0.0181  0.3068
 1675ntf    fn410003   6.974   7.110   0.633  0.1189 -0.4660  0.0749
 1675ntf    fn410004   6.831   7.241   0.694 -0.4481 -0.2890 -0.0394
 1675ntf    fn410005   6.917   7.101   0.832  0.3812  0.2470 -0.4525
 1676ntf    cn110006   6.117   5.425   1.214 -0.2565 -0.0108 -0.4157
 1676ntf    sn210007   6.198   5.312   1.098 -0.0568 -0.2715 -0.0246
 1676ntf    nn310008   6.077   5.284   1.001 -0.1594 -0.3650  0.1298
 1676ntf    sn210009   5.984   5.159   0.983 -0.1822 -0.2291 -0.7311
 1676ntf    cn110010   5.835   5.214   1.072  0.2334 -0.4421  0.1065
 1676ntf    fn410011   6.122   5.548   1.166  0.2048  0.1381  0.0037
 1676ntf    fn410012   5.994   5.385   1.242 -0.0618 -0.2446  0.1100
 1676ntf    fn410013   6.174   5.430   1.333 -0.4211 -0.2304 -0.3277
 1676ntf    on510014   6.304   5.390   1.040  0.0906 -0.1611  0.3950
 1676ntf    on510015   6.235   5.201   1.182  0.0244 -0.5008 -0.3605
 1676ntf    on510016   6.031   5.045   1.057 -1.2002 -0.4869 -0.4670
 1676ntf    on510017   5.938   5.129   0.850  0.8889 -0.0907 -1.1429
 1676ntf    fn410018   5.722   5.167   1.021  0.2785 -0.0147 -0.4017
 1676ntf    fn410019   5.822   5.175   1.198  0.3318 -0.2549  0.1756
 1676ntf    fn410020   5.814   5.345   1.074  0.0065 -0.4796  0.3070
 1677ntf    cn110021   0.131   4.070   0.362 -0.1068 -0.0174 -0.1320
 1677ntf    sn210022   0.262   4.010   0.474 -0.0889  0.1841 -0.0455
 1677ntf    nn310023   0.290   4.140   0.557  0.4283 -0.1698  0.3358
 1677ntf    sn210024   0.388   4.260   0.535 -0.3381  0.4180  0.0733
 1677ntf    cn110025   0.529   4.187   0.624 -0.2495  0.0649 -0.3550
 1677ntf    fn410026   0.169   4.163   0.277 -0.0272  0.2070  0.1454
 1677ntf    fn410027   0.086   3.969   0.289 -0.4867 -0.1468  0.2723
 1677ntf    fn410028   0.028   4.130   0.419 -0.2713 -0.5912  0.1963
 1677ntf    on510029   0.203   3.894   0.535  0.4663  0.1011  0.3379
 1677ntf    on510030   0.372   3.984   0.384 -0.1881 -0.9305  0.1496
 1677ntf    on510031   0.361   4.380   0.610  0.1078  0.5937 -0.0411
 1677ntf    on510032   0.433   4.278   0.399 -0.0828 -0.0927  0.0872
 1677ntf    fn410033   0.575   4.072   0.578 -0.3995  0.0690 -0.5171
 1677ntf    fn410034   0.634   4.268   0.628 -0.2657  0.1050 -0.6853
 1677ntf    fn410035   0.502   4.166   0.751 -0.7745  0.2160 -0.4402
 1678ntf    cn110036   1.854   1.189   4.032  0.2642 -0.1316 -0.2749
 1678ntf    sn210037   1.861   1.099   4.190 -0.0879 -0.3769 -0.3975
 1678ntf    nn310038   1.729   1.015   4.196 -0.2616 -0.1401 -0.8535
 1678ntf    sn210039   1.688   0.877   4.259 -0.4826  0.3100 -0.0031
 1678ntf    cn110040   1.703   0.765   4.117  0.1945 -0.4168  0.6309
 1678ntf    fn410041   1.965   1.254   4.001  0.0019  0.4399 -0.0396
 1678ntf    fn410042   1.817   1.115   3.929 -0.2469  0.4437 -0.5125
 1678ntf    fn410043   1.761   1.283   4.041 -0.2466 -0.5813 -0.7442
 1678ntf    on510044   1.984   1.025   4.172  0.0105 -0.3283  0.0575
 1678ntf    on510045   1.863   1.202   4.291 -0.1404 -0.5857 -0.1830
 1678ntf    on510046   1.549   0.868   4.296 -0.6999  0.6841 -0.7121
 1678ntf    on510047   1.776   0.813   4.354  0.0003  0.8903 -0.0517
 1678ntf    fn410048   1.637   0.652   4.137 -0.1242 -0.3916 -0.2159
 1678ntf    fn410049   1.653   0.824   4.010  0.5497  0.4035  0.9131
 1678ntf    fn410050   1.831   0.744   4.093  0.0245 -0.0526 -0.6951
 1679ntf    cn110051   2.110   5.553   3.462 -0.2287  0.2198  0.0479
 1679ntf    sn210052   2.284   5.506   3.435 -0.2164  0.2538  0.0665
 1679ntf    nn310053   2.284   5.361   3.496  0.3435  0.2216 -0.0052
 1679ntf    sn210054   2.343   5.305   3.631  0.2140 -0.0452 -0.0598
 1679ntf    cn110055   2.241   5.156   3.651 -0.2589  0.2175 -0.4760
 1679ntf    fn410056   2.022   5.470   3.409  0.0316 -0.1542  0.1986
 1679ntf    fn410057   2.079   5.551   3.591  0.1460 -0.1313  0.1334
 1679ntf    fn410058   2.080   5.672   3.411 -0.0499  0.2177 -0.0641
 1679ntf    on510059   2.301   5.507   3.292 -0.5823  0.3261  0.0228
 1679ntf    on510060   2.360   5.604   3.508  0.1489 -0.0113  0.0440
 1679ntf    on510061   2.313   5.383   3.748  0.5808 -0.2099  0.1438
 1679ntf    on510062   2.477   5.256   3.614  0.3001  0.2077 -0.1146
 1679ntf    fn410063   2.112   5.185   3.660 -0.3448 -0.2655 -0.1392
 1679ntf    fn410064   2.257   5.063   3.559  0.4614  0.0171 -0.1516
 1679ntf    fn410065   2.274   5.094   3.763 -0.4300 -0.0054 -0.5471
 1680ntf    cn110066   3.118   5.038   5.756  0.4634  0.1529 -0.1036
 1680ntf    sn210067   3.045   4.892   5.678  0.3334 -0.1306  0.5357
 1680ntf    nn310068   3.040   4.926   5.524 -0.1516 -0.0539  0.5654
 1680ntf    sn210069   3.018   5.062   5.450  0.1168 -0.1571  0.2910
 1680ntf    cn110070   2.911   5.007   5.314  0.3869  0.1343 -0.0407
 1680ntf    fn410071   3.136   5.011   5.885 -0.4808 -0.0951 -0.0184
 1680ntf    fn410072   3.241   5.063   5.713  0.6029 -0.2780  0.0418
 1680ntf    fn410073   3.042   5.145   5.741  0.3260  0.0081 -0.4377
 1680ntf    on510074   3.133   4.781   5.705  0.2148 -0.4184 -0.2180
 1680ntf    on510075   2.911   4.889   5.731  0.1169 -0.1469 -0.0015
 1680ntf    on510076   3.138   5.113   5.388 -0.0937  0.3229  0.2719
 1680ntf    on510077   2.930   5.154   5.519 -0.0479 -0.8132  0.9627
 1680ntf    fn410078   2.972   4.915   5.240  0.0221 -0.1398 -0.0017
 1680ntf    fn410079   2.791   4.963   5.348  0.6912 -0.4285  0.3223
 1680ntf    fn410080   2.891   5.103   5.226 -0.4292  0.2823  0.2969
 1681ntf    cn110081   0.528   3.078   0.793  0.2465 -0.0171 -0.9366
 1681ntf    sn210082   0.365   2.998   0.785  0.0516  0.3352 -0.4636
 1681ntf    nn310083   0.390   2.884   0.681 -0.1167 -0.5300  0.4329
 1681ntf    sn210084   0.311   2.791   0.583  0.0060 -0.0699 -0.1088
 1681ntf    cn110085   0.290   2.646   0.691  0.2684 -0.0314 -0.0052
 1681ntf    fn410086   0.554   3.142   0.680 -0.0073  0.4635 -0.7243
 1681ntf    fn410087   0.538   3.171   0.886 -0.0146 -0.4823 -0.4391
 1681ntf    fn410088   0.624   2.989   0.811  0.0136  0.0041  0.5151
 1681ntf    on510089   0.343   2.940   0.916  0.0355  0.1498 -0.5488
 1681ntf    on510090   0.275   3.102   0.740 -0.4137  0.1051 -0.0826
 1681ntf    on510091   0.382   2.727   0.475 -0.4955 -0.0779 -0.4364
 1681ntf    on510092   0.174   2.835   0.569  0.0555  0.2474  0.3947
 1681ntf    fn410093   0.251   2.541   0.621  0.0624 -0.4367  0.6996
 1681ntf    fn410094   0.403   2.608   0.749  0.2709  0.7451  0.5167
 1681ntf    fn410095   0.207   2.665   0.793 -0.3449  0.1759 -0.5384
 1682ntf    cn110096   4.468   4.878   1.327  0.2512  0.2951  0.3186
 1682ntf    sn210097   4.638   4.900   1.265  0.3488 -0.1799  0.4115
 1682ntf    nn310098   4.624   5.046   1.210  0.6005 -0.3143 -0.0202
 1682ntf    sn210099   4.580   5.088   1.066  0.2214 -0.1236  0.1487
 1682ntf    cn110100   4.737   5.091   0.975  0.0068  0.1601 -0.2166
 1682ntf    fn410101   4.375   4.880   1.233  0.0276  0.1321  0.5348
 1682ntf    fn410102   4.456   4.761   1.387 -0.4847  0.3151  0.2109
 1682ntf    fn410103   4.441   4.974   1.413  0.0726  0.5004  0.0350
 1682ntf    on510104   4.708   4.900   1.391  0.1598 -0.3983  0.5175
 1682ntf    on510105   4.659   4.795   1.168 -0.3836  0.1489 -0.1085
 1682ntf    on510106   4.529   5.223   1.069 -0.2156 -0.2882  0.3313
 1682ntf    on510107   4.498   4.998   0.988  0.4350 -0.2560  0.0752
 1682ntf    fn410108   4.716   5.085   0.844  0.2113  0.3952 -0.2603
 1682ntf    fn410109   4.807   5.199   1.003  0.1656 -0.0216  0.0966
 1682ntf    fn410110   4.812   4.984   0.997 -0.2779  0.0394  0.1815
 1683ntf    cn110111   2.088   5.315   0.692  0.1693 -0.0325 -0.5361
 1683ntf    sn210112   2.077   5.308   0.873  0.1540  0.2190 -0.5264
 1683ntf    nn310113   2.001   5.174   0.904  0.6024  0.0506 -0.1454
 1683ntf    sn210114   2.047   5.033   0.956 -0.2340 -0.1481  0.0731
 1683ntf    cn110115   2.062   4.944   0.798 -0.0328  0.0190 -0.0032
 1683ntf    fn410116   2.062   5.433   0.639 -0.2531  0.2778  0.3525
 1683ntf    fn410117   2.211   5.288   0.651  0.2681  0.6127 -0.6772
 1683ntf    fn410118   2.001   5.232   0.637 -0.1432 -0.0683  0.0035
 1683ntf    on510119   2.217   5.313   0.907  0.1298  0.2332 -0.4276
 1683ntf    on510120   2.000   5.424   0.912 -0.0690 -0.2978  0.6221
 1683ntf    on510121   1.938   4.969   1.026  0.4124 -0.5673  0.7031
 1683ntf    on510122   2.175   5.015   1.019 -0.3316 -0.3898  0.2031
 1683ntf    fn410123   2.127   4.829   0.802  0.3252  0.2225  0.0158
 1683ntf    fn410124   1.947   4.911   0.741  0.1963 -0.1333 -0.3835
 1683ntf    fn410125   2.126   5.013   0.706 -0.2753  0.1003 -0.1132
 1684ntf    cn110126   0.194   1.455   0.234 -0.0127 -0.4113 -0.1301
 1684ntf    sn210127   0.187   1.633   0.271 -0.0461 -0.4862  0.2243
 1684ntf    nn310128   0.341   1.644   0.301  0.1593 -0.2241 -0.8751
 1684ntf    sn210129   0.449   1.751   0.264 -0.0952  0.3789  0.0944
 1684ntf    cn110130   0.506   1.669   0.112 -0.0080  0.2560  0.1932
 1684ntf    fn410131   0.302   1.429   0.161 -0.1743  0.1580 -0.5773
 1684ntf    fn410132   0.210   1.382   0.343 -0.2353  0.0619  0.2199
 1684ntf    fn410133   0.087   1.415   0.167 -0.2471  0.1229 -0.0731
 1684ntf    on510134   0.155   1.683   0.140  0.1170  0.0109  0.3724
 1684ntf    on510135   0.090   1.655   0.375 -0.4465  0.4797 -0.3479
 1684ntf    on510136   0.564   1.751   0.352 -0.0873  0.2444  0.0839
 1684ntf    on510137   0.404   1.877   0.210  0.5836  0.4972 -0.2058
 1684ntf    fn410138   0.568   1.556   0.143 -0.3562  0.0760  0.2404
 1684ntf    fn410139   0.408   1.642   0.028  0.2449 -0.2315  0.0549
 1684ntf    fn410140   0.591   1.752   0.054  0.3625 -0.1888  0.0930
 1685ntf    cn110141   1.073   2.175   2.469  0.0896 -0.4307 -0.0042
 1685ntf    sn210142   0.950   2.079   2.562 -0.2649  0.1662  0.1551
 1685ntf    nn310143   1.025   2.057   2.698  0.6766  0.2167 -0.3463
 1685ntf    sn210144   1.129   1.946   2.735  0.0897 -0.2866 -0.1992
 1685ntf    cn110145   1.018   1.825   2.813  0.0229  0.1676  0.4169
 1685ntf    fn410146   1.050   2.182   2.339  0.2307 -0.3200 -0.0237
 1685ntf    fn410147   1.085   2.298   2.519  0.5845 -0.4324 -0.1100
 1685ntf    fn410148   1.192   2.117   2.470  0.3574  0.1021  0.4901
 1685ntf    on510149   0.835   2.163   2.581 -0.1333  0.3271  0.2459
 1685ntf    on510150   0.928   1.959   2.485  0.2010  0.0028  0.2733
 1685ntf    on510151   1.210   1.979   2.850 -0.1952 -0.1499 -0.0377
 1685ntf    on510152   1.204   1.891   2.624 -0.0176 -0.0944 -0.3670
 1685ntf    fn410153   0.936   1.770   2.725  0.0273  0.2127  0.3842
 1685ntf    fn410154   1.074   1.728   2.883  0.0610 -0.0971  0.0248
 1685ntf    fn410155   0.936   1.889   2.895  0.0246  0.5388  0.1319
 1686ntf    cn110156   0.430   0.835   5.362  0.1890 -0.1885 -0.4898
 1686ntf    sn210157   0.328   0.936   5.251  0.1226 -0.0807 -0.3310
 1686ntf    nn310158   0.217   0.983   5.351  0.6327 -0.0726  0.2363
 1686ntf    sn210159   0.184   1.118   5.424 -0.0685  0.0436 -0.2906
 1686ntf    cn110160   0.046   1.172   5.319 -0.0333  0.3265 -0.1923
 1686ntf    fn410161   0.474   0.894   5.472  0.2342 -0.2102 -0.4961
 1686ntf    fn410162   0.356   0.732   5.400 -0.4868  0.6342  0.4922
 1686ntf    fn410163   0.532   0.781   5.297 -0.2832 -0.6660 -0.8429
 1686ntf    on510164   0.420   1.037   5.202 -0.1685  0.1042 -0.4989
 1686ntf    on510165   0.285   0.839   5.154 -0.4890 -0.0073 -0.1377
 1686ntf    on510166   0.280   1.224   5.399  0.4576 -0.2150  0.6034
 1686ntf    on510167   0.126   1.117   5.556  0.3888 -0.4222 -0.0904
 1686ntf    fn410168  -0.035   1.266   5.367  0.2638  0.3659  0.2373
 1686ntf    fn410169   0.093   1.213   5.202 -0.8625 -0.2664 -0.7409
 1686ntf    fn410170  -0.038   1.075   5.287  0.0710  0.2799 -0.3266
 1687ntf    cn110171   2.742   1.106   5.432 -0.3386  0.1299  0.2061
 1687ntf    sn210172   2.916   1.068   5.469 -0.3771 -0.0277  0.2247
 1687ntf    nn310173   2.926   1.103   5.622 -0.2241  0.2755  0.1451
 1687ntf    sn210174   2.919   1.017   5.753 -0.3085 -0.0329 -0.0601
 1687ntf    cn110175   3.085   1.047   5.822 -0.3685  0.2438 -0.0350
 1687ntf    fn410176   2.715   1.235   5.448  0.4197  0.3190 -0.0042
 1687ntf    fn410177   2.721   1.072   5.306  0.0312  0.2306  0.1167
 1687ntf    fn410178   2.665   1.038   5.515 -0.4683  0.5016  0.3918
 1687ntf    on510179   2.932   0.932   5.424 -0.1417 -0.2692  1.0098
 1687ntf    on510180   2.989   1.163   5.389  0.1348 -0.5772  0.0313
 1687ntf    on510181   2.918   0.873   5.745 -0.7649 -0.0257 -0.1189
 1687ntf    on510182   2.833   1.076   5.853 -0.2307 -0.9853  0.5739
 1687ntf    fn410183   3.172   0.999   5.736 -0.6127 -0.5506  0.1527
 1687ntf    fn410184   3.116   1.175   5.834  0.2122  0.0762  0.3008
 1687ntf    fn410185   3.110   0.997   5.942 -0.4936  0.6189  0.1498
 1688ntf    cn110186   5.062   6.252   3.563 -0.2606 -0.2071  0.0508
 1688ntf    sn210187   4.985   6.416   3.545 -0.0881 -0.1544 -0.2114
 1688ntf    nn310188   5.108   6.505   3.505  0.1773 -0.5123 -0.2007
 1688ntf    sn210189   5.179   6.609   3.597 -0.0992 -0.0885 -0.4591
 1688ntf    cn110190   5.071   6.753   3.622  0.1549  0.0269 -0.0039
 1688ntf    fn410191   5.159   6.251   3.654 -0.3427  0.0352  0.1422
 1688ntf    fn410192   4.972   6.162   3.598 -0.1740 -0.0834  0.6073
 1688ntf    fn410193   5.120   6.221   3.449  0.0722  0.5492  0.0071
 1688ntf    on510194   4.889   6.404   3.438  0.0074  0.0479 -0.3199
 1688ntf    on510195   4.937   6.441   3.679 -0.6784  0.1103 -0.4697
 1688ntf    on510196   5.287   6.679   3.531 -0.0974  0.5932  0.2434
 1688ntf    on510197   5.206   6.554   3.728 -0.2864  0.0341 -0.3692
 1688ntf    fn410198   5.011   6.801   3.515  0.5504 -0.1567 -0.3083
 1688ntf    fn410199   4.980   6.707   3.707  0.1186 -0.1771 -0.1501
 1688ntf    fn410200   5.138   6.854   3.675 -0.1121  0.0834  0.2336
 1689ntf    cn110201   6.634   1.441   5.137  0.0259 -0.2455  0.0283
 1689ntf    sn210202   6.653   1.581   5.251 -0.1434 -0.2274  0.0341
 1689ntf    nn310203   6.582   1.525   5.379  0.0838  0.0366  0.2778
 1689ntf    sn210204   6.430   1.529   5.418  0.0568 -0.1060  0.1894
 1689ntf    cn110205   6.436   1.684   5.514  0.4570  0.4170 -0.6668
 1689ntf    fn410206   6.508   1.415   5.105 -0.0552  0.3391 -0.1411
 1689ntf    fn410207   6.693   1.468   5.022  0.2686 -0.3435  0.1290
 1689ntf    fn410208   6.680   1.327   5.187 -0.2992 -0.5435 -0.3459
 1689ntf    on510209   6.795   1.591   5.270 -0.1879 -0.0919  0.3018
 1689ntf    on510210   6.598   1.698   5.186  0.3668 -0.0753 -0.1243
 1689ntf    on510211   6.400   1.433   5.521 -0.0445  0.1861  0.4320
 1689ntf    on510212   6.335   1.551   5.311  0.6704  1.0686 -0.1274
 1689ntf    fn410213   6.432   1.799   5.449  0.2395  0.5655 -0.3893
 1689ntf    fn410214   6.326   1.682   5.587  0.5054  0.2890 -0.5980
 1689ntf    fn410215   6.536   1.688   5.600 -0.2283  0.7818  0.1225
 1690ntf    cn110216   4.576   3.377   3.788 -0.3636 -0.1271 -0.0105
 1690ntf    sn210217   4.657   3.271   3.664  0.1017 -0.0067  0.1853
 1690ntf    nn310218   4.791   3.349   3.646  0.0639 -0.0523 -0.3025
 1690ntf    sn210219   4.931   3.319   3.712  0.0648 -0.1866 -0.3651
 1690ntf    cn110220   4.998   3.194   3.598  0.1136 -0.3704 -0.1350
 1690ntf    fn410221   4.649   3.382   3.898  0.0831  0.1143 -0.3108
 1690ntf    fn410222   4.578   3.505   3.756 -0.6214 -0.0500  0.2896
 1690ntf    fn410223   4.456   3.337   3.825 -0.4264  0.1575  0.0864
 1690ntf    on510224   4.668   3.136   3.713 -0.3494 -0.0358  0.2093
 1690ntf    on510225   4.573   3.284   3.547 -0.0335 -0.2195  0.2573
 1690ntf    on510226   4.930   3.260   3.843  0.0435 -0.1322 -0.3404
 1690ntf    on510227   5.027   3.424   3.693 -0.8413  0.6981 -0.1742
 1690ntf    fn410228   5.122   3.160   3.629  0.2102  0.4303  0.4083
 1690ntf    fn410229   4.923   3.086   3.586 -0.2333 -0.1129 -0.3111
 1690ntf    fn410230   5.005   3.239   3.474 -0.2373  0.4732  0.1440
 1691ntf    cn110231   1.647   0.189   0.529 -0.0934  0.1373 -0.1598
 1691ntf    sn210232   1.786   0.276   0.450  0.0719 -0.1093 -0.1435
 1691ntf    nn310233   1.695   0.399   0.412 -0.2355 -0.2459  0.1478
 1691ntf    sn210234   1.694   0.474   0.274 -0.3074 -0.2744  0.1330
 1691ntf    cn110235   1.795   0.617   0.320 -0.1348 -0.2531 -0.3033
 1691ntf    fn410236   1.678   0.067   0.568 -0.6443  0.3082  0.8371
 1691ntf    fn410237   1.598   0.262   0.628 -0.0617 -0.2166  0.1198
 1691ntf    fn410238   1.551   0.184   0.439  0.0429 -0.1086 -0.2942
 1691ntf    on510239   1.869   0.303   0.564 -0.1251 -0.1007 -0.0013
 1691ntf    on510240   1.843   0.187   0.351  0.9166  0.3003 -0.0338
 1691ntf    on510241   1.566   0.535   0.247  0.1632  0.2936 -0.8595
 1691ntf    on510242   1.766   0.406   0.169 -0.8627 -0.9434  0.1723
 1691ntf    fn410243   1.905   0.571   0.379 -0.5037 -0.2961  0.3705
 1691ntf    fn410244   1.839   0.688   0.218  0.1203  0.2009  0.1132
 1691ntf    fn410245   1.737   0.699   0.406  0.3063  0.1562 -0.3922
 1692ntf    cn110246   0.772   3.436   4.345  0.0360 -0.0650  0.1796
 1692ntf    sn210247   0.817   3.535   4.491  0.0583  0.1568  0.0210
 1692ntf    nn310248   0.816   3.423   4.600 -0.1814  0.0268 -0.1135
 1692ntf    sn210249   0.728   3.413   4.729 -0.0987  0.0151 -0.0575
 1692ntf    cn110250   0.810   3.540   4.830 -0.3144 -0.0023  0.1417
 1692ntf    fn410251   0.654   3.377   4.352 -0.0712  0.1379  0.0544
 1692ntf    fn410252   0.791   3.504   4.234  0.5986 -0.3397  0.1009
 1692ntf    fn410253   0.849   3.329   4.326 -0.1088 -0.1667  0.1636
 1692ntf    on510254   0.953   3.564   4.451  0.0715 -0.0691 -0.1000
 1692ntf    on510255   0.719   3.641   4.497  0.6379  0.7272 -0.4462
 1692ntf    on510256   0.759   3.294   4.804  0.5632  0.1382 -0.1312
 1692ntf    on510257   0.586   3.442   4.720 -0.2776 -0.7364  0.3039
 1692ntf    fn410258   0.939   3.516   4.846 -0.3245 -0.3598 -0.2966
 1692ntf    fn410259   0.797   3.661   4.778  0.4375 -0.1036 -0.2928
 1692ntf    fn410260   0.763   3.552   4.953 -0.0878 -0.1876  0.2470
 1693ntf    cn110261   4.920   5.101   3.853  0.0386 -0.6722 -0.1057
 1693ntf    sn210262   4.831   5.193   3.982  0.6659  0.0015 -0.1478
 1693ntf    nn310263   4.777   5.317   3.903 -0.1768 -0.1930  0.1196
 1693ntf    sn210264   4.637   5.333   3.832 -0.1954 -0.0054  0.1965
 1693ntf    cn110265   4.681   5.462   3.712 -0.1271 -0.1703  0.0437
 1693ntf    fn410266   4.964   4.982   3.892  0.5455 -0.5363 -0.2536
 1693ntf    fn410267   4.859   5.092   3.736 -0.3729 -0.0107  0.0530
 1693ntf    fn410268   5.027   5.172   3.821 -0.0309 -0.3993  0.2673
 1693ntf    on510269   4.730   5.100   4.024  0.3501  0.3963 -0.0308
 1693ntf    on510270   4.925   5.226   4.086  0.1006  0.1213  0.3276
 1693ntf    on510271   4.535   5.391   3.916  0.0223  0.2847  0.2653
 1693ntf    on510272   4.600   5.216   3.756 -0.5020  0.1839  0.0548
 1693ntf    fn410273   4.738   5.572   3.759  0.2226 -0.2174 -0.2720
 1693ntf    fn410274   4.762   5.420   3.617 -0.0889 -0.1478  0.0669
 1693ntf    fn410275   4.573   5.511   3.652 -0.0332 -0.0661 -0.0394
 1694ntf    cn110276   5.200   5.356   5.843 -0.0027 -0.0391  0.1453
 1694ntf    sn210277   5.110   5.344   6.001  0.1587 -0.0783  0.2346
 1694ntf    nn310278   5.231   5.332   6.101  0.1185  0.0554  0.2982
 1694ntf    sn210279   5.310   5.214   6.168 -0.1738 -0.2801  0.0544
 1694ntf    cn110280   5.194   5.164   6.298 -0.1210  0.1050  0.2524
 1694ntf    fn410281   5.113   5.383   5.747 -0.4751 -0.1706  0.5295
 1694ntf    fn410282   5.294   5.448   5.828 -0.0533  0.0166  0.1715
 1694ntf    fn410283   5.258   5.245   5.801  0.1592  0.1196 -0.0531
 1694ntf    on510284   5.031   5.463   6.022  0.2052  0.0490 -0.2883
 1694ntf    on510285   5.037   5.222   5.979 -0.2955  0.3127 -0.4695
 1694ntf    on510286   5.424   5.247   6.250 -0.6611 -0.1234  0.6799
 1694ntf    on510287   5.322   5.096   6.087  0.1523 -0.2631  0.0758
 1694ntf    fn410288   5.084   5.116   6.241 -0.1921  0.4847  0.0711
 1694ntf    fn410289   5.244   5.054   6.353 -0.1131  0.1922  0.4202
 1694ntf    fn410290   5.162   5.251   6.393  0.3471  0.2067  0.3169
 1695ntf    cn110291   5.591   0.941   3.858 -0.3861  0.3958 -0.1830
 1695ntf    sn210292   5.708   0.921   3.996 -0.0649  0.1147 -0.4910
 1695ntf    nn310293   5.608   0.919   4.118  0.2641  0.2485 -0.2167
 1695ntf    sn210294   5.585   1.042   4.213  0.1378  0.0119  0.0584
 1695ntf    cn110295   5.471   0.957   4.326  0.3489 -0.3121  0.0297
 1695ntf    fn410296   5.650   0.925   3.740 -0.0014  0.7541 -0.0402
 1695ntf    fn410297   5.494   0.852   3.859 -0.5072  0.5191 -0.6505
 1695ntf    fn410298   5.537   1.061   3.870 -0.6342  0.2387  0.2609
 1695ntf    on510299   5.769   0.791   3.983  0.2902  0.1891  0.3466
 1695ntf    on510300   5.791   1.039   3.990  0.2485 -0.0322  0.7358
 1695ntf    on510301   5.505   1.145   4.152  0.1114 -0.2768 -0.4023
 1695ntf    on510302   5.689   1.080   4.305 -0.0861 -0.3075  0.4478
 1695ntf    fn410303   5.526   0.924   4.442 -0.2772 -0.1954  0.3622
 1695ntf    fn410304   5.369   1.037   4.350  0.4770 -0.0409 -0.3189
 1695ntf    fn410305   5.417   0.850   4.270 -0.2689  0.0297 -0.0355
 1696ntf    cn110306   0.225   5.158   1.056 -0.2731  0.0085  0.3395
 1696ntf    sn210307   0.143   5.028   0.959  0.0215 -0.0088  0.1135
 1696ntf    nn310308   0.271   4.979   0.884 -0.1877 -0.3201 -0.0428
 1696ntf    sn210309   0.336   5.026   0.749  0.0452 -0.1223  0.1368
 1696ntf    cn110310   0.268   4.893   0.645  0.0924 -0.1113  0.0916
 1696ntf    fn410311   0.143   5.239   1.121  0.1809  0.5177  0.2829
 1696ntf    fn410312   0.290   5.091   1.150 -0.0067 -0.3782 -0.1187
 1696ntf    fn410313   0.315   5.231   0.993 -0.3454  0.0813  0.3208
 1696ntf    on510314   0.095   4.934   1.057  0.3248 -0.0084  0.2600
 1696ntf    on510315   0.045   5.094   0.875  0.3410  0.0041 -0.2542
 1696ntf    on510316   0.480   5.014   0.743  0.0524  0.3298 -0.7171
 1696ntf    on510317   0.281   5.147   0.693  0.3394 -0.1525 -0.2242
 1696ntf    fn410318   0.137   4.903   0.627  0.0139 -0.1575  0.6070
 1696ntf    fn410319   0.324   4.887   0.526 -0.0672  0.6639 -0.0291
 1696ntf    fn410320   0.297   4.779   0.707 -0.3474 -0.2068  0.1252
 1697ntf    cn110321   4.844   3.200   0.418 -0.3350  0.1649 -0.2783
 1697ntf    sn210322   4.971   3.167   0.544 -0.2575  0.1020 -0.3725
 1697ntf    nn310323   4.904   3.218   0.676  0.1485  0.1507 -0.1813
 1697ntf    sn210324   4.975   3.303   0.787  0.0140  0.2525 -0.1721
 1697ntf    cn110325   4.868   3.267   0.930 -0.1516 -0.3395 -0.4436
 1697ntf    fn410326   4.804   3.326   0.422  0.2209  0.3450 -0.2071
 1697ntf    fn410327   4.880   3.154   0.299  0.1385  0.0375 -0.0909
 1697ntf    fn410328   4.738   3.132   0.459 -0.2822 -0.3253 -0.9438
 1697ntf    on510329   4.991   3.025   0.544  0.4086  0.1917 -0.5394
 1697ntf    on510330   5.082   3.247   0.497 -0.1847  0.4099  0.3047
 1697ntf    on510331   4.954   3.443   0.763 -0.9339  0.1154 -0.2049
 1697ntf    on510332   5.102   3.251   0.832 -0.2560 -0.3808 -0.1335
 1697ntf    fn410333   4.746   3.314   0.912 -0.1425 -0.2578 -0.2915
 1697ntf    fn410334   4.863   3.136   0.951 -0.3663 -0.3169 -0.3521
 1697ntf    fn410335   4.910   3.320   1.043  0.3659 -0.2556 -0.6748
 1698ntf    cn110336   6.473   1.030   6.292 -0.4274 -0.5697  0.2301
 1698ntf    sn210337   6.587   0.889   6.292 -0.2194 -0.4044 -0.2838
 1698ntf    nn310338   6.628   0.881   6.140  0.1009  0.0263 -0.2214
 1698ntf    sn210339   6.754   0.942   6.070  0.2362  0.2075  0.1796
 1698ntf    cn110340   6.701   0.921   5.898  0.3259 -0.3641  0.2220
 1698ntf    fn410341   6.346   1.004   6.266 -0.3204 -0.3969 -0.4950
 1698ntf    fn410342   6.461   1.088   6.410 -0.0340  0.6214 -0.2945
 1698ntf    fn410343   6.503   1.134   6.215 -0.1813 -0.5765  0.3143
 1698ntf    on510344   6.695   0.923   6.380 -0.2340  0.0990 -0.4564
 1698ntf    on510345   6.486   0.790   6.319 -1.0290  0.3940 -0.3524
 1698ntf    on510346   6.875   0.864   6.081 -0.1758 -0.5233 -0.3785
 1698ntf    on510347   6.759   1.084   6.098 -0.4359  0.0805  0.9797
 1698ntf    fn410348   6.784   0.985   5.818 -0.4127  0.0578 -0.2241
 1698ntf    fn410349   6.696   0.793   5.862  0.2021 -0.1010 -0.7063
 1698ntf    fn410350   6.580   0.972   5.885  0.3903 -0.4822 -0.9325
 1699ntf    cn110351   2.732   0.742   3.090  0.2959 -0.0490  0.3942
 1699ntf    sn210352   2.898   0.789   3.150  0.3583  0.0453  0.1484
 1699ntf    nn310353   2.971   0.652   3.127  0.0229 -0.1859  0.4383
 1699ntf    sn210354   3.054   0.570   3.232  0.1990 -0.1651  0.3156
 1699ntf    cn110355   2.919   0.491   3.325 -0.3914  0.5589  0.0793
 1699ntf    fn410356   2.725   0.703   2.964  0.4582 -0.2620  0.4499
 1699ntf    fn410357   2.682   0.640   3.157  0.2688 -0.1028  0.2920
 1699ntf    fn410358   2.654   0.847   3.108  0.2873  0.1626 -0.8132
 1699ntf    on510359   2.941   0.888   3.055  0.2123 -0.1339 -0.1064
 1699ntf    on510360   2.874   0.819   3.289  0.4412 -0.4292  0.2659
 1699ntf    on510361   3.122   0.652   3.329  0.0353  0.0213  0.2723
 1699ntf    on510362   3.123   0.459   3.170  0.2203  0.1526 -0.2376
 1699ntf    fn410363   2.855   0.566   3.412 -0.5358  0.4675  0.0510
 1699ntf    fn410364   2.827   0.427   3.255 -0.4032  0.1427  0.4759
 1699ntf    fn410365   2.974   0.395   3.397 -0.1647  0.4672 -0.2130
 1700ntf    cn110366   0.629   2.640   2.235 -0.5033 -0.3513 -0.0969
 1700ntf    sn210367   0.505   2.668   2.105 -0.2714  0.2324 -0.1959
 1700ntf    nn310368   0.493   2.820   2.140 -0.0821  0.0824  0.5412
 1700ntf    sn210369   0.380   2.926   2.115  0.1781  0.2704  0.1447
 1700ntf    cn110370   0.495   3.035   2.025  0.1384  0.2844  0.1112
 1700ntf    fn410371   0.743   2.699   2.204 -0.4945 -0.2969  0.0383
 1700ntf    fn410372   0.589   2.688   2.351 -0.5644  0.9114 -0.6215
 1700ntf    fn410373   0.660   2.514   2.261 -0.1679 -0.2010  0.2358
 1700ntf    on510374   0.582   2.646   1.985  0.6511  0.0592  0.4177
 1700ntf    on510375   0.395   2.580   2.136  0.3232 -0.4079  0.1253
 1700ntf    on510376   0.347   2.995   2.237  0.4673  0.2892  0.2126
 1700ntf    on510377   0.282   2.892   2.014  0.1592 -0.2115  0.3191
 1700ntf    fn410378   0.567   3.112   2.104  0.3338  0.2568 -0.0413
 1700ntf    fn410379   0.564   2.973   1.931 -0.9479 -0.0843 -0.4609
 1700ntf    fn410380   0.425   3.128   1.962  0.4124  0.0879 -0.4871
 1701ntf    cn110381   1.954   3.089   3.500  0.2647  0.4367 -0.1396
 1701ntf    sn210382   2.003   2.915   3.481 -0.0398  0.3038  0.2660
 1701ntf    nn310383   2.148   2.906   3.541 -0.0377  0.1875  0.2441
 1701ntf    sn210384   2.224   2.776   3.584 -0.0076  0.1877  0.1913
 1701ntf    cn110385   2.362   2.779   3.466  0.1274  0.2366  0.3491
 1701ntf    fn410386   1.975   3.132   3.624  0.8978 -1.1524  0.3245
 1701ntf    fn410387   2.036   3.163   3.427  0.1241  0.3320 -0.4012
 1701ntf    fn410388   1.833   3.121   3.459  0.1741 -0.3791 -0.5199
 1701ntf    on510389   1.903   2.841   3.554 -0.0373 -0.1032 -0.1352
 1701ntf    on510390   2.003   2.908   3.337 -0.2153 -0.6369  0.3104
 1701ntf    on510391   2.153   2.657   3.547  0.2314  0.3131 -0.6912
 1701ntf    on510392   2.285   2.782   3.715 -0.1056  0.1426  0.2390
 1701ntf    fn410393   2.434   2.886   3.493  0.1088  0.2542  0.3291
 1701ntf    fn410394   2.445   2.676   3.470  0.2054  0.2636 -0.3901
 1701ntf    fn410395   2.334   2.800   3.338  0.2168 -0.2325  0.2498
 1702ntf    cn110396   5.055   5.650   1.366  0.2974 -0.2383  0.2081
 1702ntf    sn210397   5.160   5.789   1.419  0.1444  0.0291 -0.1931
 1702ntf    nn310398   5.092   5.915   1.354 -0.6969 -0.3502 -0.0550
 1702ntf    sn210399   5.148   6.042   1.281 -0.2959 -0.4601  0.0615
 1702ntf    cn110400   5.046   6.156   1.380  0.1876  0.4268 -0.4453
 1702ntf    fn410401   5.049   5.641   1.234 -0.1008 -0.1184  0.2159
 1702ntf    fn410402   5.094   5.531   1.409  0.3780 -0.5874 -0.8153
 1702ntf    fn410403   4.928   5.657   1.400  0.1590 -0.2337 -0.3078
 1702ntf    on510404   5.161   5.789   1.563  0.0634 -0.4873 -0.1942
 1702ntf    on510405   5.281   5.751   1.350  0.1742 -0.6757  0.2415
 1702ntf    on510406   5.113   6.068   1.144  0.0879 -0.5723 -0.0585
 1702ntf    on510407   5.281   6.076   1.328 -0.4368 -0.0321  0.1602
 1702ntf    fn410408   5.086   6.169   1.505 -0.7786  0.4411 -0.1310
 1702ntf    fn410409   5.052   6.278   1.329  0.0326  0.2967 -0.7775
 1702ntf    fn410410   4.918   6.123   1.390  0.3384 -0.1372 -0.3195
 1703ntf    cn110411   2.921   5.523   3.240 -0.0739 -0.1220  0.3361
 1703ntf    sn210412   3.088   5.588   3.208 -0.0713 -0.3276 -0.0795
 1703ntf    nn310413   3.109   5.542   3.059  0.2299  0.2459 -0.2171
 1703ntf    sn210414   3.209   5.437   3.000  0.1054 -0.0390  0.0756
 1703ntf    cn110415   3.116   5.364   2.861  0.5116 -0.0933 -0.1708
 1703ntf    fn410416   2.909   5.395   3.209  0.2361 -0.1162  0.1812
 1703ntf    fn410417   2.883   5.530   3.366  0.3101 -0.6586  0.4853
 1703ntf    fn410418   2.821   5.583   3.176 -0.1593 -0.3408  0.2628
 1703ntf    on510419   3.058   5.729   3.210 -0.3409 -0.3692 -0.6772
 1703ntf    on510420   3.170   5.533   3.313 -0.3705  0.1054  0.3869
 1703ntf    on510421   3.235   5.328   3.091  0.0997  0.1937  0.3561
 1703ntf    on510422   3.318   5.502   2.930  0.1949 -0.0808  0.1767
 1703ntf    fn410423   2.986   5.360   2.881  0.5926 -0.5293  0.2875
 1703ntf    fn410424   3.134   5.435   2.751 -0.1016 -0.0448 -0.2437
 1703ntf    fn410425   3.156   5.243   2.826  0.0677 -0.3325  0.1393
 1704ntf    cn110426   4.593   3.089   1.409  0.2253  0.3223  0.1679
 1704ntf    sn210427   4.628   2.939   1.506 -0.0508  0.0557 -0.1405
 1704ntf    nn310428   4.785   2.941   1.501 -0.0421  0.0681  0.1313
 1704ntf    sn210429   4.874   2.876   1.390 -0.3220  0.1206 -0.1244
 1704ntf    cn110430   4.920   2.729   1.487 -0.5043  0.1976  0.0756
 1704ntf    fn410431   4.639   3.194   1.474  0.2220  0.2520  0.2849
 1704ntf    fn410432   4.650   3.105   1.291  0.1768 -0.2259  0.0657
 1704ntf    fn410433   4.462   3.100   1.393  0.0960 -0.4065  0.6404
 1704ntf    on510434   4.575   2.967   1.637 -0.4737  0.0385 -0.3067
 1704ntf    on510435   4.561   2.829   1.442 -0.9363  0.4864  0.0286
 1704ntf    on510436   5.002   2.942   1.380 -0.1612 -0.1464  0.1743
 1704ntf    on510437   4.816   2.816   1.272 -0.0988 -0.2640 -0.0408
 1704ntf    fn410438   4.815   2.659   1.528 -0.1757 -0.4873 -0.2438
 1704ntf    fn410439   4.997   2.646   1.421 -0.1380  0.0694  0.6538
 1704ntf    fn410440   4.990   2.761   1.595 -1.1164  0.4845  0.4008
 1705ntf    cn110441   0.369   5.308   0.333  0.0901  0.1518  0.3796
 1705ntf    sn210442   0.255   5.432   0.265  0.1415 -0.0886 -0.1458
 1705ntf    nn310443   0.268   5.547   0.370  0.0639 -0.3470  0.1456
 1705ntf    sn210444   0.372   5.664   0.383 -0.2207 -0.0637 -0.1128
 1705ntf    cn110445   0.266   5.796   0.449  0.1370  0.1983 -0.0614
 1705ntf    fn410446   0.343   5.279   0.460  0.4606 -0.0998  0.3987
 1705ntf    fn410447   0.359   5.195   0.266  0.3440 -0.0558  0.6896
 1705ntf    fn410448   0.494   5.349   0.323  0.0464  0.3500  0.6190
 1705ntf    on510449   0.319   5.467   0.141 -0.0849  0.3970 -0.1277
 1705ntf    on510450   0.123   5.375   0.262  0.2573 -0.3967  0.5265
 1705ntf    on510451   0.405   5.730   0.258 -0.1580  0.2222  0.0539
 1705ntf    on510452   0.474   5.643   0.482 -0.6820  0.3804  0.4643
 1705ntf    fn410453   0.221   5.768   0.570 -0.3931  0.5055 -0.1830
 1705ntf    fn410454   0.325   5.913   0.467  0.0312  0.3187 -0.4855
 1705ntf    fn410455   0.172   5.836   0.365 -0.2866 -0.5378  0.0518
 1706ntf    cn110456   3.562   0.223   3.703 -0.6161  0.0350  0.0398
 1706ntf    sn210457   3.474   0.239   3.861 -0.4180  0.0533  0.1486
 1706ntf    nn310458   3.335   0.201   3.800 -0.4311  0.3369  0.0016
 1706ntf    sn210459   3.280   0.054   3.792  0.0932  0.1547 -0.3056
 1706ntf    cn110460   3.154   0.073   3.922 -0.0630  0.4311 -0.4969
 1706ntf    fn410461   3.556   0.319   3.613  0.1481 -0.1556 -0.2229
 1706ntf    fn410462   3.691   0.202   3.725 -0.6785 -0.2165  0.1646
 1706ntf    fn410463   3.526   0.111   3.643 -0.1256 -0.1066  0.0000
 1706ntf    on510464   3.534   0.146   3.955  0.0314  0.7321  0.5414
 1706ntf    on510465   3.496   0.375   3.903 -0.7559  0.0290  0.4120
 1706ntf    on510466   3.370  -0.049   3.839 -0.5216 -0.4205 -0.3810
 1706ntf    on510467   3.199   0.051   3.673  0.1534 -0.1473 -0.3394
 1706ntf    fn410468   3.210   0.104   4.038 -0.4306  0.1421 -0.2396
 1706ntf    fn410469   3.061   0.164   3.899 -0.5824 -0.0558 -0.3425
 1706ntf    fn410470   3.089  -0.041   3.941  0.6679  0.0027 -0.5110
 1707ntf    cn110471   0.389   4.069   3.518  0.1681  0.1577 -0.1292
 1707ntf    sn210472   0.447   4.025   3.352 -0.2831  0.5314 -0.3875
 1707ntf    nn310473   0.602   4.048   3.360 -0.2362  0.1745 -0.2338
 1707ntf    sn210474   0.697   4.161   3.307  0.2287 -0.1137 -0.0220
 1707ntf    cn110475   0.771   4.085   3.160 -0.1187 -0.3011 -0.1007
 1707ntf    fn410476   0.258   4.052   3.525  0.2377 -0.3675 -0.0782
 1707ntf    fn410477   0.449   4.008   3.619 -0.2141  0.0320  0.0247
 1707ntf    fn410478   0.408   4.197   3.549 -0.9029  0.2573  0.1526
 1707ntf    on510479   0.415   3.884   3.346 -0.1259  0.4745  0.1012
 1707ntf    on510480   0.374   4.115   3.266 -0.1364  0.8659 -0.1633
 1707ntf    on510481   0.812   4.179   3.392  0.3948 -0.5599 -0.1516
 1707ntf    on510482   0.635   4.280   3.253  0.4791 -0.1724 -0.4403
 1707ntf    fn410483   0.841   4.175   3.093 -0.2492 -0.3138 -0.2550
 1707ntf    fn410484   0.855   3.987   3.188  0.1459  0.1034  0.5377
 1707ntf    fn410485   0.678   4.042   3.076 -0.1126 -0.6868  0.0882
 1708ntf    cn110486   6.852   2.177   2.562 -0.1619 -0.1772  0.4034
 1708ntf    sn210487   6.706   2.207   2.458 -0.0673 -0.0074  0.3203
 1708ntf    nn310488   6.756   2.121   2.336 -0.4848  0.2789 -0.0596
 1708ntf    sn210489   6.735   1.969   2.302 -0.0497  0.1734  0.1258
 1708ntf    cn110490   6.600   1.996   2.183  0.1524  0.3971 -0.0553
 1708ntf    fn410491   6.962   2.193   2.490 -0.3257 -0.1859  0.1491
 1708ntf    fn410492   6.866   2.262   2.662  0.1604  0.0965  0.1299
 1708ntf    fn410493   6.858   2.051   2.603  0.3977 -0.2623  0.0720
 1708ntf    on510494   6.597   2.156   2.536 -0.1324  0.3457  0.4607
 1708ntf    on510495   6.713   2.348   2.429 -0.5304  0.0327  0.3967
 1708ntf    on510496   6.673   1.888   2.404  0.1821 -0.6025 -0.3455
 1708ntf    on510497   6.838   1.910   2.221  0.4384  0.6259  0.4062
 1708ntf    fn410498   6.636   2.019   2.058  0.3155 -0.2641 -0.1295
 1708ntf    fn410499   6.522   1.890   2.188  0.3340  0.2414 -0.5154
 1708ntf    fn410500   6.521   2.098   2.215 -0.0040  0.1756  0.2674
 1709ntf    cn110501   2.949   4.693   1.917  0.3045  0.4200 -0.3403
 1709ntf    sn210502   2.860   4.839   1.854 -0.1789  0.3216  0.1134
 1709ntf    nn310503   2.853   4.800   1.702 -0.3690  0.2729  0.1344
 1709ntf    sn210504   2.742   4.717   1.629 -0.2219  0.4639 -0.3086
 1709ntf    cn110505   2.646   4.860   1.572 -0.1913  0.3908 -0.5468
 1709ntf    fn410506   2.955   4.681   2.048 -0.2293 -0.0205 -0.3496
 1709ntf    fn410507   2.896   4.582   1.868  0.2153  0.2045  0.2397
 1709ntf    fn410508   3.075   4.679   1.880  0.4124  0.3700  0.0456
 1709ntf    on510509   2.741   4.855   1.934 -0.2661  0.1201  0.0241
 1709ntf    on510510   2.953   4.947   1.876  0.2601 -0.1740  0.7440
 1709ntf    on510511   2.654   4.642   1.715 -0.1445  0.4507 -0.2410
 1709ntf    on510512   2.785   4.640   1.515  0.3817  0.6488 -0.2076
 1709ntf    fn410513   2.706   4.918   1.469  0.0715  0.8443 -0.1387
 1709ntf    fn410514   2.523   4.829   1.533 -0.4172  0.2984  0.2361
 1709ntf    fn410515   2.625   4.949   1.668  0.0001 -0.0773 -0.0690
 1710ntf    cn110516   4.244   0.441   6.849 -0.4696 -0.1729 -0.3555
 1710ntf    sn210517   4.202   0.555   6.984  0.1641 -0.3642  0.0102
 1710ntf    nn310518   4.063   0.613   6.936  0.3702 -0.1783 -0.3688
 1710ntf    sn210519   3.920   0.597   6.998  0.3818  0.1717 -0.2535
 1710ntf    cn110520   3.838   0.550   6.843  0.2869  0.0622 -0.1705
 1710ntf    fn410521   4.363   0.389   6.874 -0.1652  0.6164 -0.1414
 1710ntf    fn410522   4.160   0.339   6.844 -0.2240 -0.4056  0.1665
 1710ntf    fn410523   4.256   0.501   6.732  0.6417 -0.0498 -0.1957
 1710ntf    on510524   4.194   0.468   7.099 -0.0945  0.1207  0.3659
 1710ntf    on510525   4.301   0.659   6.991  0.1909 -0.4107  0.3231
 1710ntf    on510526   3.864   0.726   7.031  0.7048  0.0396  0.8578
 1710ntf    on510527   3.895   0.485   7.085  0.0467  0.3803 -0.0755
 1710ntf    fn410528   3.864   0.425   6.809  0.0182 -0.0728  0.1241
 1710ntf    fn410529   3.706   0.551   6.852  0.2858 -0.1877 -0.1415
 1710ntf    fn410530   3.876   0.626   6.741  0.1851  0.6043  0.1934
 1711ntf    cn110531   6.336   5.872   3.720  0.2005 -0.0290  0.0533
 1711ntf    sn210532   6.411   5.835   3.559 -0.1315 -0.4726 -0.0004
 1711ntf    nn310533   6.291   5.815   3.461 -0.2234 -0.1400  0.0447
 1711ntf    sn210534   6.211   5.684   3.427 -0.3850  0.0163 -0.1875
 1711ntf    cn110535   6.045   5.722   3.489 -0.2021  0.1482  0.2273
 1711ntf    fn410536   6.262   5.772   3.765  0.0427  0.0492 -0.0343
 1711ntf    fn410537   6.426   5.892   3.815  0.2667  0.0135 -0.0182
 1711ntf    fn410538   6.248   5.970   3.725  0.0854 -0.1046 -0.4286
 1711ntf    on510539   6.479   5.954   3.514 -0.4711 -0.3297 -0.1306
 1711ntf    on510540   6.494   5.719   3.586 -0.3213 -0.4353  0.7753
 1711ntf    on510541   6.247   5.557   3.485 -0.1147  0.1992  0.0488
 1711ntf    on510542   6.181   5.688   3.286 -0.6424 -0.2578 -0.1396
 1711ntf    fn410543   6.040   5.783   3.607 -0.0656 -0.3021  0.4686
 1711ntf    fn410544   5.994   5.804   3.399  0.0899  0.1605  0.0736
 1711ntf    fn410545   5.973   5.612   3.509 -0.6385  0.4430  0.3002
 1712ntf    cn110546   0.724   3.583   5.847  0.3584  0.2696 -0.2537
 1712ntf    sn210547   0.764   3.469   5.712  0.0731  0.0344 -0.1400
 1712ntf    nn310548   0.857   3.569   5.634  0.2179  0.0105  0.0010
 1712ntf    sn210549   0.838   3.651   5.502 -0.3139 -0.1526 -0.0282
 1712ntf    cn110550   0.939   3.795   5.547  0.0600 -0.3851 -0.1158
 1712ntf    fn410551   0.833   3.634   5.901  0.1423  0.1683  0.2888
 1712ntf    fn410552   0.664   3.691   5.799 -0.1895 -0.2369 -0.7099
 1712ntf    fn410553   0.656   3.536   5.950 -0.1367  0.2378 -0.5942
 1712ntf    on510554   0.835   3.373   5.792  0.7338  0.4799 -0.1862
 1712ntf    on510555   0.637   3.432   5.654  0.2350 -0.5113 -0.1571
 1712ntf    on510556   0.702   3.691   5.478 -0.4084 -0.5949 -0.2491
 1712ntf    on510557   0.914   3.581   5.401  0.1527  0.3115  0.0012
 1712ntf    fn410558   0.913   3.824   5.674 -0.3389 -0.4603 -0.1791
 1712ntf    fn410559   1.069   3.772   5.543  0.1383  0.0731 -0.2501
 1712ntf    fn410560   0.918   3.907   5.480  0.1754 -0.1048  0.3118
 1713ntf    cn110561   0.248   2.294   5.866  0.2192  0.1340  0.3218
 1713ntf    sn210562   0.358   2.244   5.730  0.0272 -0.1388  0.2651
 1713ntf    nn310563   0.270   2.133   5.662 -0.1800 -0.2443  0.7068
 1713ntf    sn210564   0.325   1.998   5.604  0.2625  0.2464 -0.0249
 1713ntf    cn110565   0.396   2.047   5.444  0.1412  0.0158 -0.1498
 1713ntf    fn410566   0.297   2.400   5.927 -0.1282  0.6380 -0.2628
 1713ntf    fn410567   0.134   2.335   5.812  0.1343 -0.0995  0.3220
 1713ntf    fn410568   0.219   2.196   5.950  0.3453  0.0409  0.2581
 1713ntf    on510569   0.378   2.361   5.649  0.0852 -0.4785 -0.2165
 1713ntf    on510570   0.477   2.195   5.796  0.0443  0.3892  0.6241
 1713ntf    on510571   0.219   1.913   5.554  0.5749  0.2775 -0.7557
 1713ntf    on510572   0.431   1.936   5.679 -0.2791 -0.4179  0.2033
 1713ntf    fn410573   0.307   2.106   5.365  0.2956  0.4385 -0.0091
 1713ntf    fn410574   0.496   2.131   5.464 -0.1686  0.3176  0.1357
 1713ntf    fn410575   0.461   1.947   5.386 -0.0517  0.0441 -0.4158
 1714ntf    cn110576   2.845   2.601   1.225  0.0082  0.1690 -0.3205
 1714ntf    sn210577   2.933   2.751   1.279 -0.0108  0.0665 -0.0045
 1714ntf    nn310578   2.843   2.820   1.387  0.2152 -0.2293  0.3778
 1714ntf    sn210579   2.794   2.969   1.383  0.0567 -0.2869  0.1680
 1714ntf    cn110580   2.660   2.953   1.261  0.1522  0.0120  0.0232
 1714ntf    fn410581   2.856   2.497   1.306 -0.7004  0.6217  0.3728
 1714ntf    fn410582   2.715   2.619   1.207 -0.0359  0.3579  0.1650
 1714ntf    fn410583   2.897   2.559   1.111 -0.0825  0.4305 -0.4581
 1714ntf    on510584   3.055   2.698   1.337 -0.1067  0.2351  0.3548
 1714ntf    on510585   2.960   2.823   1.157  0.0182 -0.0725 -0.0812
 1714ntf    on510586   2.883   3.065   1.323  0.3451 -0.5392  0.1950
 1714ntf    on510587   2.725   3.019   1.500 -0.2397  0.8451 -0.4736
 1714ntf    fn410588   2.574   2.862   1.303  0.0687  0.0065 -0.1603
 1714ntf    fn410589   2.581   3.060   1.253 -0.3043 -0.2898  0.4316
 1714ntf    fn410590   2.697   2.917   1.139  0.0447 -0.3584  0.0986
 1715ntf    cn110591   3.773   4.331   2.979  0.1417  0.4993  0.0574
 1715ntf    sn210592   3.645   4.316   3.107  0.3425  0.2099  0.2255
 1715ntf    nn310593   3.657   4.461   3.166  0.3098  0.2756  0.0712
 1715ntf    sn210594   3.556   4.578   3.194  0.0267  0.0924 -0.1696
 1715ntf    cn110595   3.636   4.657   3.337 -0.3608  0.1374  0.0208
 1715ntf    fn410596   3.892   4.355   3.033  0.1762  0.6831 -0.0982
 1715ntf    fn410597   3.786   4.223   2.905  0.1346  0.1781  0.5208
 1715ntf    fn410598   3.756   4.428   2.890 -0.5414  0.2299 -0.1075
 1715ntf    on510599   3.526   4.282   3.032  0.4290 -0.2801  0.3079
 1715ntf    on510600   3.691   4.217   3.202  0.5558  0.6965  0.6356
 1715ntf    on510601   3.435   4.529   3.254  0.1497 -0.7169 -0.5696
 1715ntf    on510602   3.549   4.672   3.084 -0.2709 -0.2313 -0.4282
 1715ntf    fn410603   3.575   4.762   3.390 -0.9390 -0.5362  0.7198
 1715ntf    fn410604   3.648   4.574   3.439  0.2967  0.2015 -0.0018
 1715ntf    fn410605   3.757   4.700   3.307 -0.1076 -0.2207  0.5186
 1716ntf    cn110606   4.222   4.336   5.367  0.0484 -0.0594 -0.0616
 1716ntf    sn210607   4.164   4.179   5.438 -0.0273 -0.0282 -0.0558
 1716ntf    nn310608   4.303   4.130   5.494 -0.1410 -0.1948  0.0819
 1716ntf    sn210609   4.341   3.980   5.522 -0.3209 -0.2463  0.0520
 1716ntf    cn110610   4.407   3.931   5.359 -0.2653  0.0312 -0.0106
 1716ntf    fn410611   4.265   4.415   5.464 -0.2357 -0.1176  0.1138
 1716ntf    fn410612   4.325   4.314   5.287  0.2841  0.0094  0.2196
 1716ntf    fn410613   4.129   4.396   5.295  0.0386 -0.2815 -0.2372
 1716ntf    on510614   4.066   4.211   5.539  0.2141  0.5790 -0.0112
 1716ntf    on510615   4.122   4.112   5.317 -0.1155 -0.2970  0.1206
 1716ntf    on510616   4.228   3.893   5.545 -0.6702  0.1661 -0.0928
 1716ntf    on510617   4.450   3.973   5.616 -0.7280 -0.0577  0.5414
 1716ntf    fn410618   4.488   4.022   5.308  0.0217 -0.1592  0.1039
 1716ntf    fn410619   4.473   3.816   5.356  0.0728  0.2317 -0.2674
 1716ntf    fn410620   4.312   3.914   5.269 -0.3136  0.2179  0.0051
 1717ntf    cn110621   5.770   4.780   6.598  0.2054  0.1069 -0.3269
 1717ntf    sn210622   5.705   4.698   6.747  0.0651  0.0766 -0.4044
 1717ntf    nn310623   5.591   4.610   6.685  0.1069 -0.0889 -0.2473
 1717ntf    sn210624   5.448   4.661   6.644  0.0411  0.0902  0.1968
 1717ntf    cn110625   5.358   4.638   6.800 -0.8059 -0.0082 -0.2994
 1717ntf    fn410626   5.872   4.861   6.621  0.1635  0.1128 -0.1569
 1717ntf    fn410627   5.811   4.689   6.511  0.0685 -0.4225  0.1586
 1717ntf    fn410628   5.682   4.853   6.532  0.6397  0.5659 -0.4052
 1717ntf    on510629   5.817   4.613   6.780  0.1725  0.1823 -0.4965
 1717ntf    on510630   5.677   4.803   6.842  0.1100 -0.0025 -0.3035
 1717ntf    on510631   5.384   4.578   6.545  0.0873  0.1636  0.1054
 1717ntf    on510632   5.449   4.802   6.617 -0.5255  0.0669  0.0394
 1717ntf    fn410633   5.240   4.698   6.799 -0.5505  0.5244  0.4250
 1717ntf    fn410634   5.341   4.510   6.830  0.2566 -0.0986 -0.0388
 1717ntf    fn410635   5.419   4.696   6.902 -0.4080 -0.0801 -0.4936
 1718ntf    cn110636   1.299   1.765   6.563 -0.3907 -0.0163  0.1256
 1718ntf    sn210637   1.154   1.812   6.464 -0.4600 -0.1923  0.1443
 1718ntf    nn310638   1.038   1.751   6.551 -0.4965  0.2650  0.4207
 1718ntf    sn210639   0.895   1.703   6.508 -0.1933 -0.1335 -0.1559
 1718ntf    cn110640   0.814   1.717   6.670 -0.0983  0.0465 -0.1235
 1718ntf    fn410641   1.307   1.635   6.587 -0.3192  0.0787  0.6264
 1718ntf    fn410642   1.409   1.798   6.497 -0.4821 -0.7305 -0.3948
 1718ntf    fn410643   1.303   1.821   6.683  0.5077 -0.5097  0.3364
 1718ntf    on510644   1.165   1.955   6.476  0.6078 -0.2637  0.0631
 1718ntf    on510645   1.180   1.752   6.335  0.1307 -0.2493  0.2888
 1718ntf    on510646   0.891   1.562   6.477  0.3320 -0.1978  0.0620
 1718ntf    on510647   0.812   1.787   6.427 -0.1705  0.0439  0.0049
 1718ntf    fn410648   0.693   1.665   6.686 -0.0506 -0.0891 -0.1992
 1718ntf    fn410649   0.885   1.653   6.761 -0.2244  0.1484  0.0486
 1718ntf    fn410650   0.807   1.843   6.708  0.2549  0.0467 -0.0577
 1719ntf    cn110651   2.313   5.088   3.051 -0.1569 -0.1509 -0.0237
 1719ntf    sn210652   2.460   5.192   3.027 -0.1913 -0.1404 -0.1937
 1719ntf    nn310653   2.486   5.168   2.875  0.1537  0.4554 -0.2339
 1719ntf    sn210654   2.619   5.160   2.792  0.0955  0.2056 -0.3041
 1719ntf    cn110655   2.689   5.323   2.832 -0.1462  0.2303  0.0228
 1719ntf    fn410656   2.275   5.107   3.176  0.1591 -0.3772  0.1074
 1719ntf    fn410657   2.218   5.123   2.965 -0.0172  0.1181 -0.0705
 1719ntf    fn410658   2.344   4.961   3.029  0.2915  0.0538 -0.5904
 1719ntf    on510659   2.405   5.321   3.065 -0.2258 -0.0356 -0.5948
 1719ntf    on510660   2.555   5.125   3.112 -0.1883 -0.0043 -0.0872
 1719ntf    on510661   2.584   5.167   2.652 -0.5569  0.3004 -0.1356
 1719ntf    on510662   2.721   5.065   2.832  0.0715  0.0403 -0.6289
 1719ntf    fn410663   2.596   5.415   2.844 -0.6983 -0.2735 -0.3295
 1719ntf    fn410664   2.738   5.318   2.955  0.5252 -0.2704 -0.2541
 1719ntf    fn410665   2.785   5.359   2.749 -0.2268 -0.0467 -0.1937
 1720ntf    cn110666   0.587   1.387   5.907  0.1958 -0.2396  0.0670
 1720ntf    sn210667   0.696   1.257   5.973  0.0716 -0.0733  0.6072
 1720ntf    nn310668   0.641   1.119   5.923  0.3418  0.1017 -0.1875
 1720ntf    sn210669   0.681   0.978   5.980 -0.0701  0.0427 -0.0468
 1720ntf    cn110670   0.796   0.925   5.850  0.1572  0.1440  0.1141
 1720ntf    fn410671   0.620   1.506   5.956 -0.4628 -0.0349  0.0139
 1720ntf    fn410672   0.609   1.414   5.780 -0.5297  0.2578  0.0409
 1720ntf    fn410673   0.460   1.361   5.930  0.2000 -0.1787  0.1619
 1720ntf    on510674   0.822   1.292   5.913 -0.3096  0.2473 -0.0202
 1720ntf    on510675   0.691   1.276   6.116 -0.0465  0.1238  0.5769
 1720ntf    on510676   0.575   0.880   5.969  0.0497 -0.2032  0.9113
 1720ntf    on510677   0.757   0.982   6.102 -0.0283  0.4768 -0.0853
 1720ntf    fn410678   0.751   0.956   5.730 -0.2775  0.6213  0.3970
 1720ntf    fn410679   0.916   0.980   5.865  0.0369  0.3449  0.3480
 1720ntf    fn410680   0.819   0.795   5.841 -0.3439  0.0687 -0.0989
 1721ntf    cn110681   2.450   0.869   1.917  0.0687  0.2593  0.3414
 1721ntf    sn210682   2.467   1.009   1.801 -0.3472 -0.0679 -0.1198
 1721ntf    nn310683   2.374   0.965   1.683  0.1094 -0.7062 -0.2505
 1721ntf    sn210684   2.225   1.007   1.654  0.0757 -0.3971  0.3602
 1721ntf    cn110685   2.154   0.841   1.633 -0.4141 -0.0889 -0.4407
 1721ntf    fn410686   2.514   0.899   2.029 -0.2037 -0.3197  0.6591
 1721ntf    fn410687   2.325   0.835   1.946  0.2293 -0.3740  0.2996
 1721ntf    fn410688   2.507   0.755   1.885  0.0594  0.1509  0.7074
 1721ntf    on510689   2.432   1.122   1.883  0.8654  0.2302  0.0106
 1721ntf    on510690   2.607   0.992   1.772 -0.2715 -0.2769  0.3446
 1721ntf    on510691   2.202   1.060   1.523 -0.1452 -0.2211  0.4701
 1721ntf    on510692   2.146   1.054   1.766 -0.2925  0.2096 -0.1508
 1721ntf    fn410693   2.218   0.774   1.538  0.2246  0.4030 -0.3634
 1721ntf    fn410694   2.175   0.770   1.743  0.4728  0.5177 -0.2099
 1721ntf    fn410695   2.023   0.837   1.613 -0.5349  0.2690  0.2663
 1722ntf    cn110696   6.633   0.044   6.736 -0.0033 -0.0055 -0.0722
 1722ntf    sn210697   6.592   0.104   6.569 -0.0903  0.0204 -0.0407
 1722ntf    nn310698   6.472   0.009   6.537  0.1797 -0.5017  0.4690
 1722ntf    sn210699   6.465  -0.115   6.440  0.2142 -0.1215 -0.0257
 1722ntf    cn110700   6.573  -0.238   6.518 -0.3379 -0.5280  0.1055
 1722ntf    fn410701   6.745   0.098   6.783 -0.0400 -0.3262  0.3870
 1722ntf    fn410702   6.538   0.076   6.823 -0.6039 -0.4425 -0.5589
 1722ntf    fn410703   6.641  -0.088   6.741 -0.0684 -0.0149 -0.2281
 1722ntf    on510704   6.560   0.245   6.574  0.2725  0.0986  0.0994
 1722ntf    on510705   6.713   0.069   6.499  0.1866  0.0624  0.4122
 1722ntf    on510706   6.519  -0.104   6.307  0.4275 -0.5998  0.0182
 1722ntf    on510707   6.329  -0.163   6.448 -0.1304  0.8143 -0.0689
 1722ntf    fn410708   6.698  -0.195   6.524 -0.5131  0.0064 -0.0851
 1722ntf    fn410709   6.539  -0.257   6.645 -0.3291 -0.3840  0.1288
 1722ntf    fn410710   6.581  -0.357   6.460  0.5457 -0.0535 -0.7741
 1723ntf    cn110711   0.569   0.588   3.851  0.4947 -0.1358  0.1049
 1723ntf    sn210712   0.564   0.729   3.965 -0.0050  0.1619 -0.2801
 1723ntf    nn310713   0.591   0.850   3.868  0.2874  0.0158 -0.3814
 1723ntf    sn210714   0.485   0.952   3.812  0.1416  0.1023  0.0461
 1723ntf    cn110715   0.543   1.092   3.912 -0.0594  0.2663 -0.0662
 1723ntf    fn410716   0.528   0.483   3.920  0.3798 -0.4622 -0.4491
 1723ntf    fn410717   0.490   0.596   3.745 -0.0493 -0.1034  0.5066
 1723ntf    fn410718   0.690   0.567   3.801  0.5492  0.0238  0.1696
 1723ntf    on510719   0.435   0.719   4.028 -0.0127  0.2654 -0.2785
 1723ntf    on510720   0.680   0.699   4.045  0.1571 -0.0147 -0.5787
 1723ntf    on510721   0.344   0.935   3.834  0.0370  0.3974 -0.3740
 1723ntf    on510722   0.526   1.011   3.687  0.3577 -0.2408 -0.0468
 1723ntf    fn410723   0.533   1.068   4.042 -0.3912  0.1721 -0.1097
 1723ntf    fn410724   0.668   1.127   3.888  0.0557 -0.1056 -0.0183
 1723ntf    fn410725   0.476   1.202   3.886  0.0377  0.3216 -0.0817
 1724ntf    cn110726   2.643   6.428   5.243  0.4240 -0.3350 -0.3469
 1724ntf    sn210727   2.552   6.480   5.094  0.0338  0.2092  0.0791
 1724ntf    nn310728   2.492   6.617   5.142 -0.1665  0.2306 -0.2344
 1724ntf    sn210729   2.358   6.642   5.221  0.1079 -0.1101  0.3399
 1724ntf    cn110730   2.417   6.794   5.302  0.3012  0.0951 -0.1837
 1724ntf    fn410731   2.760   6.490   5.246  0.3348 -0.1554 -0.5150
 1724ntf    fn410732   2.589   6.457   5.360  0.0742  0.1604 -0.6267
 1724ntf    fn410733   2.674   6.300   5.235  0.5821 -0.3060 -0.2214
 1724ntf    on510734   2.658   6.487   4.995  0.1251 -0.1266  0.1532
 1724ntf    on510735   2.454   6.376   5.083  0.2788 -0.1228  0.9485
 1724ntf    on510736   2.324   6.556   5.332  0.3967  0.0254  0.5356
 1724ntf    on510737   2.243   6.696   5.153 -0.1707 -0.4959  0.5042
 1724ntf    fn410738   2.520   6.761   5.377 -0.4731 -0.1310  0.8053
 1724ntf    fn410739   2.449   6.890   5.217 -0.1879  0.2431 -0.2026
 1724ntf    fn410740   2.316   6.835   5.376  0.1678  0.0353 -0.3309
 1725ntf    cn110741   6.572   0.991   4.172  0.5473 -0.1952  0.1759
 1725ntf    sn210742   6.490   0.846   4.098  0.1574  0.0544  0.1145
 1725ntf    nn310743   6.477   0.893   3.949  0.3588 -0.0446  0.0637
 1725ntf    sn210744   6.443   0.803   3.825  0.3063 -0.0558  0.0860
 1725ntf    cn110745   6.275   0.869   3.799  0.2941 -0.1055  0.0358
 1725ntf    fn410746   6.682   1.024   4.107  0.3097  0.6571  0.2023
 1725ntf    fn410747   6.498   1.101   4.171  0.0667 -0.5151 -0.4487
 1725ntf    fn410748   6.607   0.982   4.299  0.4630  0.0423  0.2169
 1725ntf    on510749   6.591   0.747   4.128  0.3011  0.0776 -0.2973
 1725ntf    on510750   6.362   0.839   4.164 -0.3237  0.7592 -0.7325
 1725ntf    on510751   6.427   0.661   3.841  0.0554 -0.0855 -0.3893
 1725ntf    on510752   6.512   0.845   3.706  0.0785  0.6554  0.1980
 1725ntf    fn410753   6.230   0.838   3.678  0.0680  0.0155  0.0883
 1725ntf    fn410754   6.183   0.834   3.886 -0.3939  0.0885 -0.6028
 1725ntf    fn410755   6.270   1.000   3.781  0.1371 -0.0398  0.5419
 1726ntf    cn110756   0.379   1.846   1.652 -0.2221  0.1601  0.2188
 1726ntf    sn210757   0.479   1.716   1.731 -0.2222  0.0313  0.0078
 1726ntf    nn310758   0.409   1.685   1.868  0.0777  0.0311  0.1602
 1726ntf    sn210759   0.372   1.782   1.986  0.3729  0.6471 -0.2478
 1726ntf    cn110760   0.438   1.680   2.121 -0.1816 -0.1802 -0.5947
 1726ntf    fn410761   0.345   1.936   1.744  0.3000  0.5750  0.0113
 1726ntf    fn410762   0.447   1.915   1.562 -0.2819 -0.2257 -0.1215
 1726ntf    fn410763   0.272   1.800   1.591  0.0903 -0.0969 -0.1386
 1726ntf    on510764   0.465   1.604   1.642  0.2553  0.2261 -0.3121
 1726ntf    on510765   0.608   1.780   1.734  0.1132 -0.6369  0.0310
 1726ntf    on510766   0.229   1.776   2.005  0.2890  0.1760 -0.9757
 1726ntf    on510767   0.439   1.909   1.995  0.4796  0.5884 -0.2081
 1726ntf    fn410768   0.399   1.554   2.110 -0.1866 -0.2659  0.3204
 1726ntf    fn410769   0.570   1.675   2.116 -0.1526  0.0260 -0.1222
 1726ntf    fn410770   0.393   1.728   2.236  0.3900 -0.5974 -0.1848
 1727ntf    cn110771   4.713   6.578   0.478 -0.2193 -0.3263  0.0060
 1727ntf    sn210772   4.603   6.613   0.618 -0.0145 -0.3446  0.1714
 1727ntf    nn310773   4.697   6.693   0.715 -0.0173 -0.0880 -0.0354
 1727ntf    sn210774   4.743   6.667   0.863 -0.1296  0.0085  0.0164
 1727ntf    cn110775   4.917   6.716   0.844 -0.0985 -0.0458  0.1614
 1727ntf    fn410776   4.660   6.518   0.372 -0.1124  0.1163 -0.3002
 1727ntf    fn410777   4.783   6.679   0.428 -0.3635 -0.1415  0.1739
 1727ntf    fn410778   4.800   6.488   0.519 -0.0920 -0.3145 -0.2377
 1727ntf    on510779   4.497   6.692   0.561  0.0338 -0.1302  0.3767
 1727ntf    on510780   4.559   6.485   0.670 -0.3930 -0.4483 -0.4005
 1727ntf    on510781   4.744   6.528   0.901  0.5402  0.1385  0.4944
 1727ntf    on510782   4.678   6.748   0.964 -0.0831  0.4311 -0.2889
 1727ntf    fn410783   4.986   6.696   0.955 -0.2190  0.1855  0.2792
 1727ntf    fn410784   4.978   6.645   0.751 -0.2954 -0.4687  0.3507
 1727ntf    fn410785   4.935   6.844   0.814  0.0170  0.0068  0.4507
 1728ntf    cn110786   1.632   4.228   3.040 -0.4011 -0.1290  0.1590
 1728ntf    sn210787   1.493   4.290   2.941 -0.3217 -0.1297  0.0479
 1728ntf    nn310788   1.552   4.262   2.798  0.2511 -0.1309  0.2817
 1728ntf    sn210789   1.657   4.345   2.716 -0.0918 -0.0678 -0.0954
 1728ntf    cn110790   1.550   4.414   2.586  0.0793  0.2468 -0.0699
 1728ntf    fn410791   1.714   4.153   2.970 -0.2557  0.0995  0.0851
 1728ntf    fn410792   1.698   4.330   3.092  0.1062 -0.2528 -0.2435
 1728ntf    fn410793   1.588   4.153   3.140 -0.0881 -0.0515  0.3556
 1728ntf    on510794   1.377   4.209   2.970 -0.8185  0.4149 -0.3735
 1728ntf    on510795   1.468   4.431   2.956  0.6541  0.0902 -0.3380
 1728ntf    on510796   1.738   4.254   2.640 -0.2848  0.1780 -0.6028
 1728ntf    on510797   1.710   4.461   2.783 -0.3093 -0.2711  0.4369
 1728ntf    fn410798   1.488   4.311   2.530 -0.6133  0.3947  0.4140
 1728ntf    fn410799   1.452   4.496   2.619  0.2818  0.3485  0.2750
 1728ntf    fn410800   1.617   4.473   2.488 -0.5875  0.6218 -0.3074
 1729ntf    cn110801   6.102   3.788   6.308  0.2108  0.0954  0.1794
 1729ntf    sn210802   5.951   3.868   6.371  0.0518 -0.2519  0.2412
 1729ntf    nn310803   5.845   3.767   6.313  0.1596 -0.0097 -0.3863
 1729ntf    sn210804   5.783   3.650   6.397 -0.1498  0.4201 -0.0091
 1729ntf    cn110805   5.640   3.737   6.469  0.0149  0.3287  0.4340
 1729ntf    fn410806   6.098   3.660   6.341  0.6642  0.0327 -0.0075
 1729ntf    fn410807   6.098   3.782   6.176 -0.4898  0.6086  0.1713
 1729ntf    fn410808   6.220   3.827   6.352  0.4537 -0.3947 -0.0304
 1729ntf    on510809   5.974   3.873   6.513 -0.8307 -0.0503  0.3816
 1729ntf    on510810   5.946   3.987   6.289  0.1003 -0.4967 -0.1215
 1729ntf    on510811   5.861   3.599   6.507 -0.2978  0.5132  0.1410
 1729ntf    on510812   5.719   3.556   6.309 -0.2278  0.4787 -0.0143
 1729ntf    fn410813   5.579   3.672   6.566 -0.5074  0.2277  0.0412
 1729ntf    fn410814   5.671   3.853   6.524  0.2977  0.2695  0.4025
 1729ntf    fn410815   5.539   3.745   6.384  0.0039  0.0317  0.4196
 1730ntf    cn110816   1.737   2.120   0.569  0.0787  0.0247  0.5073
 1730ntf    sn210817   1.914   2.103   0.534 -0.0575  0.1365 -0.2534
 1730ntf    nn310818   1.954   2.255   0.531  0.0560  0.1148  0.1084
 1730ntf    sn210819   1.896   2.367   0.437 -0.1342  0.2612  0.3986
 1730ntf    cn110820   2.022   2.497   0.420  0.0330  0.0726  0.1780
 1730ntf    fn410821   1.717   2.165   0.692 -0.1751  0.4071  0.3287
 1730ntf    fn410822   1.677   2.199   0.481 -0.4508 -0.9126  0.0030
 1730ntf    fn410823   1.673   2.004   0.560  0.4710 -0.1438 -0.2153
 1730ntf    on510824   1.969   2.030   0.645 -0.2203  0.4245  0.0169
 1730ntf    on510825   1.915   2.033   0.407 -0.8923 -0.4943  0.0828
 1730ntf    on510826   1.791   2.437   0.507 -0.1917  0.5335  0.0396
 1730ntf    on510827   1.872   2.329   0.300  0.2636 -0.0328  0.4057
 1730ntf    fn410828   2.052   2.560   0.533 -0.3562 -0.1559  0.4102
 1730ntf    fn410829   2.135   2.446   0.373 -0.1185 -0.0912 -0.0079
 1730ntf    fn410830   1.983   2.592   0.337  0.3033  0.3063  0.3168
 1731ntf    cn110831   2.975   5.789   2.385 -0.3481  0.1536  0.1052
 1731ntf    sn210832   3.122   5.868   2.457  0.0095 -0.5496  0.1557
 1731ntf    nn310833   3.101   6.015   2.408 -0.4441 -0.6730 -0.0314
 1731ntf    sn210834   3.163   6.082   2.280  0.2069 -0.6953  0.2646
 1731ntf    cn110835   3.004   6.127   2.204  0.6550  0.3399 -0.0783
 1731ntf    fn410836   2.957   5.667   2.433 -0.4870  0.2630  0.3321
 1731ntf    fn410837   2.857   5.843   2.410 -0.4722  0.2630 -0.6883
 1731ntf    fn410838   2.984   5.761   2.256 -0.0071 -0.2682  0.2176
 1731ntf    on510839   3.098   5.851   2.598  0.1661 -0.5840  0.1782
 1731ntf    on510840   3.235   5.794   2.408  0.2474  0.2823 -0.5768
 1731ntf    on510841   3.227   5.994   2.185  0.4264 -0.4406  0.1778
 1731ntf    on510842   3.238   6.203   2.301 -0.1780 -0.3487 -0.3298
 1731ntf    fn410843   2.931   6.201   2.286 -0.5213 -0.1912 -0.6125
 1731ntf    fn410844   3.015   6.194   2.090 -0.3231  0.4281 -0.1312
 1731ntf    fn410845   2.919   6.029   2.176  0.6580  0.4387 -0.4453
 1732ntf    cn110846   3.051   2.781   6.047  0.2740  0.3165 -0.1680
 1732ntf    sn210847   3.110   2.702   5.894 -0.1101  0.1163 -0.2137
 1732ntf    nn310848   3.111   2.824   5.796  0.3396  0.6254  0.4129
 1732ntf    sn210849   2.986   2.877   5.716  0.3260  0.0626  0.0562
 1732ntf    cn110850   2.987   2.752   5.584 -0.1571 -0.0401  0.1489
 1732ntf    fn410851   3.075   2.708   6.155 -0.5437  0.1624 -0.0794
 1732ntf    fn410852   3.112   2.896   6.071 -0.1233  0.4248  0.3363
 1732ntf    fn410853   2.921   2.804   6.038  0.2081  0.0674  0.1131
 1732ntf    on510854   3.235   2.663   5.954 -0.2064  0.0365 -0.0617
 1732ntf    on510855   3.015   2.597   5.864 -0.2292  0.3354 -0.6091
 1732ntf    on510856   3.008   2.999   5.643 -0.7783  0.1350 -0.1648
 1732ntf    on510857   2.860   2.863   5.785  0.4304 -0.0409  0.2271
 1732ntf    fn410858   2.973   2.631   5.635 -0.1893 -0.0841  0.0366
 1732ntf    fn410859   2.890   2.769   5.495  0.4294  0.4611 -0.4080
 1732ntf    fn410860   3.098   2.756   5.511  0.3179  0.2835  0.8874
 1733ntf    cn110861   1.192   5.996   0.481  0.1305 -0.1074  0.0071
 1733ntf    sn210862   1.075   6.073   0.365 -0.0804 -0.3828  0.0367
 1733ntf    nn310863   1.172   6.180   0.304  0.1922 -0.6049  0.0735
 1733ntf    sn210864   1.201   6.209   0.152  0.3232 -0.0506  0.2007
 1733ntf    cn110865   1.060   6.312   0.102  0.1974 -0.3227 -0.0087
 1733ntf    fn410866   1.132   5.902   0.552  0.0897 -0.2194 -0.1767
 1733ntf    fn410867   1.289   5.933   0.418  0.3364 -0.1686  0.3814
 1733ntf    fn410868   1.245   6.074   0.574 -0.3299  0.1184  0.0820
 1733ntf    on510869   1.039   5.966   0.275  0.4895 -0.0615 -0.5790
 1733ntf    on510870   0.975   6.138   0.445 -0.1479 -0.4663  0.0203
 1733ntf    on510871   1.213   6.101   0.057  0.3255 -0.3564  0.5484
 1733ntf    on510872   1.303   6.311   0.145  0.4732 -0.2066  0.1044
 1733ntf    fn410873   1.055   6.423   0.173  0.1268 -0.2116 -0.1893
 1733ntf    fn410874   1.057   6.346  -0.025 -0.1745 -0.8848 -0.1537
 1733ntf    fn410875   0.947   6.249   0.130  0.0793  0.1914  0.7103
 1734ntf    cn110876   2.799   6.815   5.862 -0.1417  0.1493 -0.1303
 1734ntf    sn210877   2.797   6.954   5.979  0.1265  0.0601 -0.0199
 1734ntf    nn310878   2.787   7.067   5.871 -0.3617  0.0352 -0.0030
 1734ntf    sn210879   2.840   7.215   5.879 -0.0722 -0.0688  0.0461
 1734ntf    cn110880   2.703   7.290   5.786 -0.2104  0.1314  0.4055
 1734ntf    fn410881   2.784   6.694   5.913  0.0454 -0.0683 -0.5832
 1734ntf    fn410882   2.705   6.831   5.771  0.0682  0.9883 -0.2124
 1734ntf    fn410883   2.912   6.809   5.792 -0.3806 -0.1235 -0.4980
 1734ntf    on510884   2.674   6.938   6.052  0.0225 -0.0209 -0.2117
 1734ntf    on510885   2.919   6.937   6.055  0.0766 -0.3686 -0.0328
 1734ntf    on510886   2.952   7.234   5.791  0.2538 -0.4600  0.3736
 1734ntf    on510887   2.840   7.274   6.011  0.1382  0.0507 -0.0074
 1734ntf    fn410888   2.672   7.228   5.673 -0.3009 -0.2148  0.6182
 1734ntf    fn410889   2.590   7.298   5.854 -0.4605 -0.2823  0.0484
 1734ntf    fn410890   2.742   7.412   5.752  0.0365  0.0375  0.3518
 1735ntf    cn110891   0.491   1.335   1.041 -0.0052 -0.1386 -0.5073
 1735ntf    sn210892   0.592   1.480   0.998 -0.0054 -0.0719 -0.2867
 1735ntf    nn310893   0.733   1.430   1.044 -0.0548 -0.0062 -0.0654
 1735ntf    sn210894   0.814   1.451   1.178  0.0950 -0.3984 -0.0927
 1735ntf    cn110895   0.893   1.287   1.179 -0.1881 -0.5335  0.1404
 1735ntf    fn410896   0.362   1.354   1.020  0.0016  0.1221 -0.3188
 1735ntf    fn410897   0.535   1.225   0.982  0.2127 -0.4926  0.2934
 1735ntf    fn410898   0.501   1.313   1.171 -0.2979  0.7951 -0.3138
 1735ntf    on510899   0.595   1.493   0.854 -0.7283  0.3742 -0.2674
 1735ntf    on510900   0.547   1.598   1.068 -0.7403 -0.2859 -0.3910
 1735ntf    on510901   0.736   1.434   1.298  0.2398  0.3208  0.1078
 1735ntf    on510902   0.917   1.551   1.174 -0.2259 -0.0408  0.4866
 1735ntf    fn410903   0.804   1.190   1.173  0.1172 -0.7802 -0.4712
 1735ntf    fn410904   0.976   1.266   1.079 -0.2640 -0.0766 -0.0204
 1735ntf    fn410905   0.965   1.261   1.287  0.7015 -0.1118 -0.3433
 1736ntf    cn110906   6.079   5.595   0.419 -0.1004  0.3896 -0.3766
 1736ntf    sn210907   6.061   5.447   0.315 -0.1994  0.0280  0.1499
 1736ntf    nn310908   6.196   5.367   0.328 -0.1244  0.0371 -0.5111
 1736ntf    sn210909   6.277   5.276   0.230  0.0227 -0.2865 -0.0926
 1736ntf    cn110910   6.200   5.115   0.262 -0.1268 -0.1796  0.0847
 1736ntf    fn410911   6.184   5.671   0.391 -0.2279  0.7289  0.0541
 1736ntf    fn410912   5.971   5.670   0.421 -0.2971  0.1013 -0.1677
 1736ntf    fn410913   6.093   5.560   0.546 -0.3757  0.6869 -0.2641
 1736ntf    on510914   5.953   5.386   0.388 -0.4952  0.1178 -0.2106
 1736ntf    on510915   6.033   5.494   0.181  0.0018  0.1968  0.1666
 1736ntf    on510916   6.416   5.264   0.265 -0.0160  0.2775  0.2509
 1736ntf    on510917   6.248   5.313   0.093 -0.5189  0.6770  0.2728
 1736ntf    fn410918   6.068   5.118   0.254 -0.1230  0.4556  0.2620
 1736ntf    fn410919   6.248   5.028   0.174  0.9702  0.0839  0.4087
 1736ntf    fn410920   6.224   5.064   0.382  0.4827  0.5263  0.2647
 1737ntf    cn110921   2.755   6.452   2.110  0.1316 -0.0526  0.3829
 1737ntf    sn210922   2.800   6.595   2.214  0.0401  0.3539 -0.1360
 1737ntf    nn310923   2.926   6.547   2.295 -0.1360 -0.0964 -0.1230
 1737ntf    sn210924   2.926   6.504   2.446  0.1306 -0.1282 -0.1313
 1737ntf    cn110925   2.935   6.662   2.536  0.0261 -0.0829 -0.1988
 1737ntf    fn410926   2.739   6.339   2.178  0.8043 -0.1443  0.3994
 1737ntf    fn410927   2.641   6.457   2.044  0.5866  0.5310 -0.3678
 1737ntf    fn410928   2.842   6.432   2.013  0.1345 -0.0817  0.3915
 1737ntf    on510929   2.842   6.690   2.114 -0.2520  0.1953 -0.4145
 1737ntf    on510930   2.679   6.623   2.285 -0.0370  0.2989 -0.2436
 1737ntf    on510931   3.051   6.451   2.493 -0.1427 -0.3330  0.3767
 1737ntf    on510932   2.806   6.437   2.491  0.2182 -0.4779 -0.4162
 1737ntf    fn410933   3.038   6.733   2.494  0.0429  0.0921  0.1300
 1737ntf    fn410934   2.832   6.738   2.505 -0.1646 -0.2605 -0.0018
 1737ntf    fn410935   2.935   6.646   2.668 -0.1688  0.2875 -0.1556
 1738ntf    cn110936   0.485   0.799   1.109 -0.0866 -0.1951  0.0579
 1738ntf    sn210937   0.350   0.811   0.987 -0.0155 -0.1222 -0.0137
 1738ntf    nn310938   0.344   0.966   0.964  0.0212 -0.1394 -0.1392
 1738ntf    sn210939   0.226   1.053   0.907 -0.0297 -0.0838  0.0487
 1738ntf    cn110940   0.161   1.121   1.062 -0.2068 -0.3320  0.0839
 1738ntf    fn410941   0.504   0.676   1.153  0.0346 -0.2622 -0.1870
 1738ntf    fn410942   0.599   0.841   1.058  0.0814 -0.5168  0.1701
 1738ntf    fn410943   0.455   0.872   1.216 -0.6732 -0.4240  0.0531
 1738ntf    on510944   0.402   0.740   0.873 -0.3125 -0.6297  0.1619
 1738ntf    on510945   0.241   0.760   1.067  0.0364 -0.2356 -0.0148
 1738ntf    on510946   0.121   0.974   0.848  0.0325 -0.4486  0.4184
 1738ntf    on510947   0.268   1.171   0.836  0.4329 -0.1973  0.1259
 1738ntf    fn410948   0.266   1.152   1.136 -0.2062 -0.1575  0.0111
 1738ntf    fn410949   0.079   1.224   1.043  0.2869  0.1285  0.4350
 1738ntf    fn410950   0.095   1.028   1.130 -0.0537 -0.5343 -0.0435
 1739ntf    cn110951   6.642   2.706   1.840 -0.0139 -0.4625 -0.0771
 1739ntf    sn210952   6.707   2.605   1.703 -0.1557 -0.2172 -0.3254
 1739ntf    nn310953   6.575   2.541   1.646 -0.5628  0.0896  0.2577
 1739ntf    sn210954   6.514   2.398   1.665 -0.4265  0.0087  0.0928
 1739ntf    cn110955   6.350   2.420   1.740 -0.2868  0.4954  0.2549
 1739ntf    fn410956   6.539   2.654   1.905  0.2402 -0.3607  0.4098
 1739ntf    fn410957   6.728   2.725   1.939 -0.5648  0.0107  0.3118
 1739ntf    fn410958   6.597   2.823   1.800 -0.6297 -0.6762 -0.0178
 1739ntf    on510959   6.754   2.710   1.617 -0.5191 -0.0733 -0.3526
 1739ntf    on510960   6.796   2.521   1.779 -1.0031 -0.7681  0.0776
 1739ntf    on510961   6.582   2.319   1.764 -0.0068  0.5128  0.2023
 1739ntf    on510962   6.486   2.330   1.540 -0.4781 -0.1666  0.1985
 1739ntf    fn410963   6.358   2.474   1.860  0.2479  0.5473  0.1942
 1739ntf    fn410964   6.269   2.496   1.668 -0.0622  0.2224 -0.2906
 1739ntf    fn410965   6.279   2.309   1.756  0.0825  0.2333  0.0819
 1740ntf    cn110966   1.223   5.511   4.049 -0.0804  0.0105 -0.0531
 1740ntf    sn210967   1.387   5.503   4.127 -0.0243 -0.0283 -0.1748
 1740ntf    nn310968   1.465   5.428   4.014 -0.2195 -0.1624 -0.2221
 1740ntf    sn210969   1.567   5.501   3.919  0.0568 -0.1381  0.0876
 1740ntf    cn110970   1.709   5.519   4.030  0.0200 -0.0495  0.1199
 1740ntf    fn410971   1.190   5.385   4.027  0.6293 -0.1928  0.0154
 1740ntf    fn410972   1.124   5.556   4.125 -0.2151 -0.2714 -0.0588
 1740ntf    fn410973   1.225   5.563   3.928  0.0381  0.0157 -0.0492
 1740ntf    on510974   1.424   5.638   4.162  0.1360 -0.1113 -0.0241
 1740ntf    on510975   1.380   5.414   4.241 -0.6450  0.3816  0.1151
 1740ntf    on510976   1.521   5.628   3.867  0.0551 -0.1301  0.1104
 1740ntf    on510977   1.592   5.408   3.811 -0.5263 -0.3666  0.1416
 1740ntf    fn410978   1.826   5.529   3.967 -0.0538  0.5680  0.0684
 1740ntf    fn410979   1.699   5.623   4.111 -0.4608  0.4387 -0.5506
 1740ntf    fn410980   1.725   5.413   4.107 -0.3614 -0.0997  0.1305
 1741ntf    cn110981   2.053   2.089   4.299 -0.3289 -0.2556 -0.1282
 1741ntf    sn210982   2.116   2.008   4.149  0.3439 -0.0163  0.0211
 1741ntf    nn310983   2.099   2.131   4.053  0.1461  0.0031  0.0817
 1741ntf    sn210984   2.177   2.140   3.917 -0.3789 -0.3489 -0.2498
 1741ntf    cn110985   2.301   2.265   3.964 -0.6325 -0.1221 -0.1744
 1741ntf    fn410986   2.037   2.010   4.403  0.7563 -0.1627  0.1250
 1741ntf    fn410987   2.125   2.193   4.340 -0.2933 -0.4426  0.2815
 1741ntf    fn410988   1.931   2.137   4.284 -0.3424 -0.3724 -0.4123
 1741ntf    on510989   2.253   1.981   4.185  0.3693 -0.1030 -0.1369
 1741ntf    on510990   2.018   1.904   4.127  0.4753 -0.1385  0.0073
 1741ntf    on510991   2.101   2.208   3.814 -0.0035  0.5139  0.0310
 1741ntf    on510992   2.252   2.025   3.874  0.0148 -0.1458 -0.1182
 1741ntf    fn410993   2.382   2.226   4.061  0.3470  0.0616 -0.8970
 1741ntf    fn410994   2.373   2.304   3.860 -0.3418 -0.2953 -0.0415
 1741ntf    fn410995   2.240   2.372   4.011 -0.1463  0.0852 -0.0066
 1742ntf    cn110996   1.119   0.220   5.564  0.1374  0.1348 -0.2600
 1742ntf    sn210997   1.152   0.398   5.563 -0.1694  0.1913 -0.3763
 1742ntf    nn310998   1.035   0.443   5.468  0.1473 -0.4000 -1.0584
 1742ntf    sn210999   0.886   0.470   5.508  0.4211 -0.3698 -0.0263
 1742ntf    cn111000   0.872   0.645   5.464  0.0578 -0.4249 -0.1371
 1742ntf    fn411001   1.058   0.173   5.671 -0.0860  0.9684 -0.0207
 1742ntf    fn411002   1.053   0.179   5.457 -0.3174  0.6142 -0.1658
 1742ntf    fn411003   1.235   0.156   5.565 -0.0423 -0.1838  0.5190
 1742ntf    on511004   1.150   0.441   5.701  0.7429 -0.2921 -0.2059
 1742ntf    on511005   1.280   0.418   5.500  0.1411  0.0980  0.2179
 1742ntf    on511006   0.859   0.470   5.650 -0.2977  0.2397 -0.1554
 1742ntf    on511007   0.785   0.420   5.418 -0.1356 -0.1998  0.4989
 1742ntf    fn411008   0.846   0.669   5.336 -0.2142 -0.1002 -0.0217
 1742ntf    fn411009   0.783   0.710   5.537  0.1935 -0.4838  0.0803
 1742ntf    fn411010   0.987   0.707   5.488 -0.3553  0.1236  0.4527
 1743ntf    cn111011   4.832   0.242   3.924 -0.0569 -0.3549 -0.4456
 1743ntf    sn211012   4.863   0.420   3.941 -0.0194 -0.3841 -0.2082
 1743ntf    nn311013   5.018   0.423   3.966 -0.0621  0.6411  0.0007
 1743ntf    sn211014   5.138   0.460   3.871  0.1544 -0.5498 -0.2066
 1743ntf    cn111015   5.158   0.633   3.922 -0.5275 -0.4527 -0.2495
 1743ntf    fn411016   4.903   0.191   3.825  0.2910  0.1382 -0.4542
 1743ntf    fn411017   4.866   0.173   4.031  0.1132  0.5333  0.0793
 1743ntf    fn411018   4.707   0.207   3.896 -0.3754  0.0478  0.4402
 1743ntf    on511019   4.811   0.488   3.825  0.3375 -0.1530 -0.2327
 1743ntf    on511020   4.794   0.439   4.067 -0.3202  0.1076 -0.4414
 1743ntf    on511021   5.121   0.470   3.729  0.5028  0.3932 -0.1886
 1743ntf    on511022   5.261   0.400   3.916  0.1916 -0.1550  0.2185
 1743ntf    fn411023   5.170   0.639   4.053 -0.4358 -0.0428 -0.2745
 1743ntf    fn411024   5.264   0.688   3.864 -0.5909 -0.1487 -0.0783
 1743ntf    fn411025   5.057   0.713   3.893 -0.5485 -0.5153 -0.3499
 1744ntf    cn111026   4.938   4.611   4.144 -0.1268  0.2813 -0.3067
 1744ntf    sn211027   4.763   4.643   4.182 -0.1381 -0.3453  0.1888
 1744ntf    nn311028   4.717   4.499   4.223  0.3352 -0.4312  0.4230
 1744ntf    sn211029   4.571   4.453   4.258 -0.0716  0.4080 -0.1601
 1744ntf    cn111030   4.520   4.406   4.090 -0.1145 -0.0151 -0.0276
 1744ntf    fn411031   4.999   4.540   4.237 -0.5123  0.8239  0.3696
 1744ntf    fn411032   4.951   4.541   4.032  0.5863  0.0797 -0.1007
 1744ntf    fn411033   5.009   4.722   4.130  0.0737  0.0957 -0.7651
 1744ntf    on511034   4.779   4.738   4.289 -0.2074 -0.1130 -0.0036
 1744ntf    on511035   4.707   4.686   4.056  0.3287 -0.3719 -0.0276
 1744ntf    on511036   4.487   4.559   4.308 -0.2966  0.2726 -0.2487
 1744ntf    on511037   4.576   4.328   4.329  0.7081  0.5070 -0.0319
 1744ntf    fn411038   4.418   4.323   4.102  0.0314 -0.1685  0.1642
 1744ntf    fn411039   4.481   4.505   4.011  0.0483 -0.1099 -0.2295
 1744ntf    fn411040   4.611   4.338   4.021 -0.1876 -0.0094 -0.1296
 1745ntf    cn111041   0.557   3.395   0.095 -0.1314 -0.0406  0.0814
 1745ntf    sn211042   0.735   3.426   0.077 -0.1929  0.0816 -0.3327
 1745ntf    nn311043   0.740   3.570   0.014  0.2660  0.1710 -0.0971
 1745ntf    sn211044   0.674   3.603  -0.124 -0.2583  0.1799  0.1545
 1745ntf    cn111045   0.812   3.687  -0.208 -0.2326  0.1034  0.1196
 1745ntf    fn411046   0.486   3.503   0.122 -0.0243  0.1308 -0.3138
 1745ntf    fn411047   0.505   3.357  -0.021  0.2193  0.3820 -0.2181
 1745ntf    fn411048   0.523   3.311   0.191  0.0177 -0.0244  0.1486
 1745ntf    on511049   0.766   3.439   0.217  0.0283  0.8756 -0.4481
 1745ntf    on511050   0.791   3.311   0.012 -0.6510 -0.0426 -0.5066
 1745ntf    on511051   0.564   3.697  -0.117 -0.7261 -0.3509 -0.0266
 1745ntf    on511052   0.642   3.494  -0.213  0.4891  0.2315 -0.1872
 1745ntf    fn411053   0.891   3.749  -0.121 -0.0418  0.3351 -0.2185
 1745ntf    fn411054   0.887   3.605  -0.278  0.5586  0.3410  0.6720
 1745ntf    fn411055   0.767   3.787  -0.282 -0.4110 -0.0567  0.0110
 1746ntf    cn111056   1.828   2.993   1.941  0.0747  0.0369  0.3357
 1746ntf    sn211057   1.730   3.132   1.877  0.1592  0.0017  0.1269
 1746ntf    nn311058   1.844   3.221   1.817  0.1310  0.2459  0.4309
 1746ntf    sn211059   1.878   3.251   1.667  0.1031 -0.2580  0.3228
 1746ntf    cn111060   2.011   3.374   1.681 -0.0250 -0.1350  0.4541
 1746ntf    fn411061   1.909   2.949   1.846 -0.5641 -0.1496 -0.1315
 1746ntf    fn411062   1.909   3.030   2.038  0.1729  0.1318  0.2179
 1746ntf    fn411063   1.760   2.887   1.980  0.0837 -0.0692  0.0700
 1746ntf    on511064   1.637   3.079   1.780  0.2511  0.4417 -0.2055
 1746ntf    on511065   1.675   3.200   1.992  0.3338  0.0147  0.2017
 1746ntf    on511066   1.776   3.324   1.596  0.6705  0.0016 -0.2365
 1746ntf    on511067   1.939   3.143   1.592 -0.0751 -0.3753  0.3453
 1746ntf    fn411068   2.096   3.382   1.580 -0.0362 -0.0023  0.4545
 1746ntf    fn411069   1.958   3.494   1.701  0.1817  0.0077  0.1458
 1746ntf    fn411070   2.080   3.353   1.792  0.8774 -0.0700 -0.0849
 1747ntf    cn111071   2.175   3.403   0.525 -0.1177  0.1299 -0.3365
 1747ntf    sn211072   2.142   3.568   0.594 -0.0547  0.0463 -0.1077
 1747ntf    nn311073   2.020   3.529   0.685 -0.2522 -0.1337 -0.4506
 1747ntf    sn211074   1.874   3.588   0.687 -0.2718 -0.2020  0.2987
 1747ntf    cn111075   1.903   3.761   0.734 -0.1609 -0.1766  0.1388
 1747ntf    fn411076   2.284   3.395   0.450 -0.0186 -0.0274 -0.1757
 1747ntf    fn411077   2.194   3.317   0.623 -0.2768 -0.1014 -0.5063
 1747ntf    fn411078   2.079   3.355   0.448 -0.3337  0.3767 -0.2224
 1747ntf    on511079   2.257   3.598   0.676  0.0741 -0.0568 -0.2513
 1747ntf    on511080   2.116   3.641   0.473 -0.2025 -0.1698 -0.2064
 1747ntf    on511081   1.800   3.534   0.798 -0.2110 -0.0841  0.3964
 1747ntf    on511082   1.812   3.590   0.557  0.3047  0.6775  0.0323
 1747ntf    fn411083   1.789   3.823   0.756  0.0891  0.1699  0.4673
 1747ntf    fn411084   1.966   3.763   0.851  0.3545  0.1168 -0.1439
 1747ntf    fn411085   1.969   3.834   0.646  0.4811 -0.4413  0.3914
 1748ntf    cn111086   0.790   0.379   0.859 -0.1197 -0.3670 -0.2155
 1748ntf    sn211087   0.966   0.346   0.893 -0.0743  0.2329  0.1489
 1748ntf    nn311088   0.951   0.211   0.971 -0.7298  0.1075 -0.1822
 1748ntf    sn211089   0.967   0.063   0.919 -0.3100  0.0647  0.0609
 1748ntf    cn111090   1.137   0.046   0.857 -0.2290 -0.0150  0.3044
 1748ntf    fn411091   0.716   0.374   0.968  0.9332  0.4832  0.5704
 1748ntf    fn411092   0.776   0.498   0.803  0.3333 -0.3619 -0.3282
 1748ntf    fn411093   0.735   0.295   0.773 -0.4509 -0.1722 -0.1943
 1748ntf    on511094   1.017   0.339   0.758  0.0541 -0.4729  0.2319
 1748ntf    on511095   1.012   0.457   0.972  0.3201  0.2502 -0.1046
 1748ntf    on511096   0.894   0.021   0.802  0.1061 -0.1806 -0.1108
 1748ntf    on511097   0.966  -0.021   1.037 -0.2900  0.2011  0.1592
 1748ntf    fn411098   1.225   0.100   0.940  0.1514  0.3755 -0.3460
 1748ntf    fn411099   1.165  -0.083   0.844 -0.4234 -0.0187 -0.0882
 1748ntf    fn411100   1.147   0.111   0.743  0.3642  0.5757  0.6876
 1749ntf    cn111101   6.288   1.348   0.503  0.3337 -0.0340  0.0868
 1749ntf    sn211102   6.432   1.247   0.458 -0.0380 -0.4034 -0.2893
 1749ntf    nn311103   6.476   1.332   0.334 -0.1058  0.2421  0.1229
 1749ntf    sn211104   6.578   1.305   0.217 -0.2511  0.2323 -0.0032
 1749ntf    cn111105   6.675   1.459   0.231  0.3887 -0.1901  0.2879
 1749ntf    fn411106   6.245   1.311   0.623 -0.3041  0.2418 -0.0525
 1749ntf    fn411107   6.323   1.475   0.509  0.0761  0.0438 -0.0429
 1749ntf    fn411108   6.191   1.338   0.413  0.2655 -0.1300  0.1697
 1749ntf    on511109   6.519   1.276   0.570  0.1751  0.2108 -0.6112
 1749ntf    on511110   6.378   1.116   0.433 -0.1059 -0.4603  0.1513
 1749ntf    on511111   6.526   1.307   0.083 -0.4479 -0.3524  0.0630
 1749ntf    on511112   6.679   1.203   0.233 -0.4964 -0.0025  0.0519
 1749ntf    fn411113   6.737   1.454   0.348  0.5184  0.5005  0.2495
 1749ntf    fn411114   6.759   1.484   0.132 -0.1269  0.3006 -0.0314
 1749ntf    fn411115   6.595   1.565   0.231  0.3106 -0.2398 -0.5745
 1750ntf    cn111116   1.713   0.911   2.426  0.0469 -0.0389  0.1186
 1750ntf    sn211117   1.668   0.737   2.403  0.0825 -0.0696  0.2837
 1750ntf    nn311118   1.772   0.675   2.504 -0.0609 -0.2099  0.3458
 1750ntf    sn211119   1.915   0.620   2.472  0.0311  0.3240 -0.1915
 1750ntf    cn111120   1.885   0.449   2.418  0.0445  0.2998 -0.1219
 1750ntf    fn411121   1.648   0.979   2.333  0.0842 -0.2658 -0.0738
 1750ntf    fn411122   1.696   0.964   2.546 -0.1524 -0.1217  0.1271
 1750ntf    fn411123   1.842   0.933   2.405 -0.0817  0.4758 -0.1501
 1750ntf    on511124   1.533   0.713   2.446 -0.0179 -0.4292 -0.2267
 1750ntf    on511125   1.695   0.712   2.263 -0.4179  0.4628  0.0914
 1750ntf    on511126   1.999   0.583   2.584 -0.5103 -0.6004 -0.0731
 1750ntf    on511127   1.979   0.688   2.362 -0.4237  0.2524 -0.5028
 1750ntf    fn411128   1.990   0.373   2.392 -0.1873 -0.1515  0.2381
 1750ntf    fn411129   1.804   0.383   2.499 -0.5169  0.3701 -0.6215
 1750ntf    fn411130   1.819   0.445   2.304  0.3300 -0.2930 -0.2703
 1751ntf    cn111131   6.674   2.021   4.203 -0.5645 -0.2847 -0.0642
 1751ntf    sn211132   6.792   1.882   4.203 -0.1274  0.0820 -0.1479
 1751ntf    nn311133   6.693   1.761   4.182 -0.0589 -0.0849  0.4890
 1751ntf    sn211134   6.690   1.640   4.083 -0.2141  0.0917  0.2775
 1751ntf    cn111135   6.643   1.502   4.192  0.4012 -0.5075 -0.2046
 1751ntf    fn411136   6.735   2.137   4.224 -0.2543 -0.3220 -0.7379
 1751ntf    fn411137   6.601   2.020   4.093  0.4766 -0.2173 -0.7775
 1751ntf    fn411138   6.581   1.999   4.294  0.1481 -0.2597  0.6832
 1751ntf    on511139   6.879   1.909   4.092 -0.1718  0.0179 -0.1988
 1751ntf    on511140   6.844   1.892   4.337 -0.8440  0.7023  0.0948
 1751ntf    on511141   6.817   1.604   4.023 -0.1283 -0.1077  0.5778
 1751ntf    on511142   6.575   1.651   3.997  0.0406  0.7795  0.0189
 1751ntf    fn411143   6.715   1.485   4.301 -0.3873 -0.5329  0.3197
 1751ntf    fn411144   6.518   1.519   4.232  0.5868  0.1954  0.1081
 1751ntf    fn411145   6.637   1.384   4.132 -0.2987 -0.4173 -0.3155
 1752ntf    cn111146   4.949   5.512   2.404 -0.4709 -0.0542  0.1762
 1752ntf    sn211147   4.925   5.518   2.224  0.2807 -0.2358  0.0681
 1752ntf    nn311148   5.051   5.602   2.181  0.2384 -0.1168  0.1771
 1752ntf    sn211149   5.065   5.758   2.176 -0.0125 -0.1027 -0.1744
 1752ntf    cn111150   5.081   5.798   2.000  0.4486 -0.1130 -0.1378
 1752ntf    fn411151   5.060   5.447   2.434 -0.6645 -0.5554 -0.1760
 1752ntf    fn411152   4.957   5.632   2.459 -0.3248 -0.0657  0.1803
 1752ntf    fn411153   4.850   5.450   2.466 -0.5781  0.0710  0.1324
 1752ntf    on511154   4.941   5.377   2.198 -0.0368 -0.2844  0.1266
 1752ntf    on511155   4.796   5.579   2.201  0.3297 -0.1613 -0.0083
 1752ntf    on511156   5.189   5.807   2.231 -0.2469  0.0625  0.2163
 1752ntf    on511157   4.953   5.841   2.211  0.5751  0.5541  0.1815
 1752ntf    fn411158   4.983   5.734   1.937 -0.1843  0.0670  0.6423
 1752ntf    fn411159   5.064   5.927   1.975 -0.2974 -0.2010 -0.1286
 1752ntf    fn411160   5.200   5.763   1.954  0.5659  0.3881 -0.2166
 1753ntf    cn111161   4.745   2.035   4.751 -0.0908 -0.1546 -0.2118
 1753ntf    sn211162   4.779   2.174   4.864 -0.0392 -0.0796 -0.3198
 1753ntf    nn311163   4.687   2.277   4.790 -0.0010 -0.2231 -0.5720
 1753ntf    sn211164   4.697   2.434   4.803 -0.2481 -0.2397 -0.1419
 1753ntf    cn111165   4.772   2.478   4.643 -0.1907  0.3053  0.0335
 1753ntf    fn411166   4.839   1.941   4.744 -0.3137 -0.3150 -1.1503
 1753ntf    fn411167   4.630   1.973   4.769 -0.0855 -0.0870  0.0498
 1753ntf    fn411168   4.729   2.079   4.627 -0.5792 -0.1300 -0.1424
 1753ntf    on511169   4.732   2.134   4.994 -0.2473  0.1343 -0.3291
 1753ntf    on511170   4.921   2.190   4.844 -0.0538 -0.6670 -0.9501
 1753ntf    on511171   4.784   2.482   4.907 -0.3679 -0.1045 -0.1044
 1753ntf    on511172   4.564   2.489   4.799 -0.2651 -0.2692  0.0256
 1753ntf    fn411173   4.704   2.411   4.551  0.1286 -0.0714  0.0700
 1753ntf    fn411174   4.766   2.607   4.617 -0.3664  0.1251 -0.8712
 1753ntf    fn411175   4.894   2.430   4.629 -0.4168 -0.1112 -0.5710
 1754ntf    cn111176   3.136   6.177   1.456  0.1628 -0.3340  0.0083
 1754ntf    sn211177   3.028   6.323   1.461 -0.1033 -0.5288 -0.0508
 1754ntf    nn311178   3.071   6.400   1.331 -0.2591 -0.7590 -0.2403
 1754ntf    sn211179   3.011   6.536   1.279  0.0637 -0.4959  0.0704
 1754ntf    cn111180   2.878   6.470   1.174  0.0073  0.0654 -0.2141
 1754ntf    fn411181   3.143   6.137   1.330  0.1663 -0.1563 -0.0488
 1754ntf    fn411182   3.257   6.200   1.502 -0.0364 -0.4389  0.5853
 1754ntf    fn411183   3.089   6.074   1.524  0.1343 -0.2488  0.1191
 1754ntf    on511184   2.898   6.260   1.452 -0.0820 -0.5611 -0.1360
 1754ntf    on511185   3.051   6.393   1.585  0.2854 -0.0920 -0.3646
 1754ntf    on511186   3.083   6.613   1.181 -0.4851  0.1402  0.1608
 1754ntf    on511187   2.942   6.615   1.377  0.8196 -0.1292  0.3149
 1754ntf    fn411188   2.912   6.366   1.099 -0.2462 -0.5323  0.4866
 1754ntf    fn411189   2.771   6.426   1.239  0.0168  0.1303 -0.1547
 1754ntf    fn411190   2.827   6.561   1.093  0.3767  0.0856 -0.4254
 1755ntf    cn111191   5.427   4.614   4.429 -0.2262 -0.1347  0.1282
 1755ntf    sn211192   5.605   4.647   4.408 -0.2991  0.0872 -0.1379
 1755ntf    nn311193   5.643   4.716   4.544  1.0721 -0.1547 -0.3838
 1755ntf    sn211194   5.711   4.645   4.666  0.1389  0.0435  0.2575
 1755ntf    cn111195   5.569   4.664   4.779 -0.0847  0.2051 -0.0486
 1755ntf    fn411196   5.375   4.574   4.314  0.3530  0.5913 -0.3949
 1755ntf    fn411197   5.408   4.522   4.522 -0.3464 -0.0049  0.2328
 1755ntf    fn411198   5.356   4.718   4.466  0.0285  0.0098  0.2161
 1755ntf    on511199   5.655   4.515   4.380  0.9259  0.5732 -0.2910
 1755ntf    on511200   5.606   4.738   4.296 -0.6701  0.0828 -0.1454
 1755ntf    on511201   5.812   4.730   4.724  0.3751 -0.1765  0.1702
 1755ntf    on511202   5.751   4.507   4.651  0.0635  0.0381  0.1124
 1755ntf    fn411203   5.541   4.786   4.821 -0.0351  0.1244  0.2198
 1755ntf    fn411204   5.459   4.621   4.720 -0.2120  0.1810  0.2033
 1755ntf    fn411205   5.581   4.586   4.886  0.8004 -0.1317 -0.3863
 1756ntf    cn111206   5.116   3.851   0.210  0.2817  0.5521 -0.0104
 1756ntf    sn211207   5.246   3.951   0.131  0.5009  0.1777 -0.1285
 1756ntf    nn311208   5.277   4.052   0.248  0.4656  0.2581 -0.1884
 1756ntf    sn211209   5.186   4.166   0.304 -0.0586 -0.1972 -0.1017
 1756ntf    cn111210   5.153   4.114   0.475  0.1609  0.2540  0.0809
 1756ntf    fn411211   5.163   3.766   0.301 -0.3346 -0.0239 -0.2206
 1756ntf    fn411212   5.013   3.917   0.260 -0.0793 -0.1615  0.2022
 1756ntf    fn411213   5.065   3.778   0.112  0.4564  0.0549  0.2642
 1756ntf    on511214   5.348   3.859   0.087  0.2134 -0.2648  0.1205
 1756ntf    on511215   5.182   4.007   0.015  0.5237  0.3786 -0.0444
 1756ntf    on511216   5.058   4.176   0.239 -0.1101  0.4070  0.0784
 1756ntf    on511217   5.258   4.290   0.321  0.3847 -0.4474 -0.1320
 1756ntf    fn411218   5.247   4.030   0.516 -0.2084  0.0531  0.5178
 1756ntf    fn411219   5.147   4.203   0.572 -0.1359 -0.2637  0.5447
 1756ntf    fn411220   5.036   4.054   0.477 -0.0416  0.6426 -0.0342
 1757ntf    cn111221   3.511   4.301   5.154 -0.4416  0.5635 -0.1239
 1757ntf    sn211222   3.361   4.217   5.214 -0.1147  0.0003 -0.0986
 1757ntf    nn311223   3.270   4.338   5.254 -0.2440 -0.2104  0.2596
 1757ntf    sn211224   3.139   4.402   5.196  0.2778  0.5017 -0.1616
 1757ntf    cn111225   3.160   4.580   5.229  0.2193  0.4398  0.2222
 1757ntf    fn411226   3.602   4.219   5.105 -0.9619  0.0955 -0.3160
 1757ntf    fn411227   3.487   4.389   5.058  0.0150  0.2324 -0.5397
 1757ntf    fn411228   3.562   4.369   5.256  0.3435  0.1388 -0.2340
 1757ntf    on511229   3.313   4.130   5.110  0.0992 -0.4505  0.1717
 1757ntf    on511230   3.402   4.138   5.329 -0.2426  0.4689  0.2716
 1757ntf    on511231   3.022   4.384   5.279  0.3207 -0.5281 -0.3072
 1757ntf    on511232   3.129   4.387   5.053  0.0122 -0.4922 -0.0433
 1757ntf    fn411233   3.272   4.632   5.181  0.2244 -0.1323 -0.4059
 1757ntf    fn411234   3.057   4.644   5.175 -0.2962 -0.7145 -0.1979
 1757ntf    fn411235   3.166   4.617   5.356  0.0706 -0.3387  0.4628
 1758ntf    cn111236   4.561   0.077   5.722  0.2354 -0.4655  0.2959
 1758ntf    sn211237   4.664   0.195   5.815 -0.2144 -0.0399  0.2575
 1758ntf    nn311238   4.808   0.133   5.801  0.0433  0.5377  0.3142
 1758ntf    sn211239   4.870   0.021   5.892 -0.0435  0.2840  0.0633
 1758ntf    cn111240   4.941   0.123   6.025 -0.2045  0.3973  0.0633
 1758ntf    fn411241   4.594   0.065   5.594  0.0058  0.1221  0.1796
 1758ntf    fn411242   4.572  -0.044   5.773  0.0213 -0.6110  0.0016
 1758ntf    fn411243   4.433   0.108   5.732  0.3323 -0.0107  0.1640
 1758ntf    on511244   4.641   0.316   5.738 -0.2467  0.0757  0.4490
 1758ntf    on511245   4.602   0.184   5.944 -0.3445  0.2174  0.2180
 1758ntf    on511246   4.993  -0.030   5.837 -0.1403 -0.1484  0.2437
 1758ntf    on511247   4.783  -0.079   5.949  0.5059 -0.4585 -0.3921
 1758ntf    fn411248   4.850   0.191   6.094 -0.0828  0.4264  0.1957
 1758ntf    fn411249   5.005   0.051   6.116 -0.3598 -0.1564 -0.2634
 1758ntf    fn411250   5.036   0.207   5.986  0.1254  0.0796  0.1806
 1759ntf    cn111251   0.225   6.376   2.142  0.2313 -0.0223  0.0808
 1759ntf    sn211252   0.081   6.484   2.116 -0.0276 -0.3247  0.2422
 1759ntf    nn311253   0.172   6.603   2.068 -0.3827 -0.0360  0.2806
 1759ntf    sn211254   0.124   6.750   2.040 -0.1392  0.0390  0.2542
 1759ntf    cn111255   0.109   6.734   1.860 -0.1820  0.0984  0.2523
 1759ntf    fn411256   0.209   6.280   2.231  0.4830  0.0370  0.1919
 1759ntf    fn411257   0.262   6.315   2.031  0.4533  0.2642 -0.0035
 1759ntf    fn411258   0.329   6.448   2.179 -0.1399  0.2758  0.5666
 1759ntf    on511259   0.001   6.427   2.011 -0.1139 -0.4616  0.3830
 1759ntf    on511260   0.032   6.488   2.252  0.4686 -0.5211  0.4299
 1759ntf    on511261   0.231   6.845   2.054 -0.8451  0.9377 -0.3476
 1759ntf    on511262  -0.009   6.779   2.089 -0.0877 -0.3207  0.6061
 1759ntf    fn411263   0.080   6.851   1.805 -0.4063 -0.1165 -0.0874
 1759ntf    fn411264   0.217   6.688   1.799 -0.6377 -0.2340 -0.3150
 1759ntf    fn411265   0.005   6.657   1.830 -0.3481  0.4920 -0.1995
 1760ntf    cn111266   3.865   1.209   0.735 -0.2241  0.0090  0.1184
 1760ntf    sn211267   3.712   1.158   0.818 -0.3484  0.0579 -0.0791
 1760ntf    nn311268   3.635   1.292   0.844 -0.1899  0.0778  0.2839
 1760ntf    sn211269   3.533   1.369   0.753  0.1647  0.2522  0.0322
 1760ntf    cn111270   3.434   1.451   0.881 -0.2563  0.1808 -0.2457
 1760ntf    fn411271   3.929   1.102   0.690  0.2375  0.2958  0.0833
 1760ntf    fn411272   3.844   1.286   0.629 -0.0636  0.4235  0.3856
 1760ntf    fn411273   3.948   1.282   0.808  0.0332 -0.0068 -0.1554
 1760ntf    on511274   3.646   1.066   0.728  0.6358  0.1095 -0.8717
 1760ntf    on511275   3.765   1.097   0.937  0.5198  0.3756 -0.2972
 1760ntf    on511276   3.436   1.292   0.678 -0.4071  0.7302  0.2745
 1760ntf    on511277   3.595   1.475   0.678 -0.2097  0.4643  0.0220
 1760ntf    fn411278   3.329   1.518   0.836 -0.5366  0.1268  0.3202
 1760ntf    fn411279   3.396   1.352   0.962  0.6548  0.0055 -0.0252
 1760ntf    fn411280   3.517   1.527   0.950  0.4664 -0.7780 -0.0271
 1761ntf    cn111281   3.989   6.078   2.092  0.3768  0.2386 -0.0799
 1761ntf    sn211282   4.001   6.064   2.273 -0.0578  0.0578 -0.0639
 1761ntf    nn311283   3.985   5.911   2.308  0.3643  0.0947  0.2991
 1761ntf    sn211284   4.093   5.798   2.303  0.0196 -0.2233  0.0203
 1761ntf    cn111285   3.985   5.657   2.264 -0.3454  0.0306  0.1126
 1761ntf    fn411286   3.920   6.186   2.060  0.1045  0.0388 -0.1745
 1761ntf    fn411287   4.104   6.089   2.028  0.4271 -0.3540 -0.0933
 1761ntf    fn411288   3.917   5.976   2.047  0.5498  0.2003 -0.2727
 1761ntf    on511289   4.135   6.111   2.300  0.0420 -0.0813 -0.3134
 1761ntf    on511290   3.892   6.141   2.328  0.5111  0.6194  0.2907
 1761ntf    on511291   4.152   5.772   2.432  0.0772 -0.1689  0.0046
 1761ntf    on511292   4.176   5.799   2.185  0.2455  0.0196  0.1801
 1761ntf    fn411293   3.956   5.653   2.135 -0.3017 -0.1671  0.1087
 1761ntf    fn411294   4.026   5.535   2.294  0.0790  0.2197  0.3154
 1761ntf    fn411295   3.869   5.664   2.328 -0.4387  0.3701 -0.0898
 1762ntf    cn111296   5.786   0.898   6.743 -0.1319  0.6296  0.0163
 1762ntf    sn211297   5.879   0.785   6.851 -0.0965  0.3551 -0.3006
 1762ntf    nn311298   6.020   0.797   6.783  0.0984 -0.0348  0.0347
 1762ntf    sn211299   6.134   0.900   6.815 -0.2837  0.3994 -0.0054
 1762ntf    cn111300   6.194   0.929   6.646 -0.0592  0.3710  0.0693
 1762ntf    fn411301   5.659   0.909   6.780 -0.2046 -0.4987  0.1370
 1762ntf    fn411302   5.844   1.017   6.742  0.5399  0.3114  0.5579
 1762ntf    fn411303   5.787   0.855   6.618  0.3503  0.1220  0.1928
 1762ntf    on511304   5.864   0.843   6.982  0.8643 -0.7896  0.3386
 1762ntf    on511305   5.828   0.651   6.837  0.5461  0.1428 -0.6556
 1762ntf    on511306   6.253   0.841   6.871 -0.1455  0.8678  0.1982
 1762ntf    on511307   6.092   1.033   6.853 -0.3210  0.2686  0.4096
 1762ntf    fn411308   6.283   1.027   6.646 -0.1458  0.4539 -0.5210
 1762ntf    fn411309   6.255   0.817   6.610  0.3476  0.5481  0.2055
 1762ntf    fn411310   6.105   0.955   6.552 -0.0439 -0.4818 -0.1913
 1763ntf    cn111311   1.055   2.383   0.172  0.2700  0.2385  0.1473
 1763ntf    sn211312   1.044   2.553   0.108  0.0451  0.1577 -0.0262
 1763ntf    nn311313   1.137   2.635   0.204 -0.0443  0.2067  0.0184
 1763ntf    sn211314   1.150   2.786   0.244 -0.1808  0.2902 -0.2549
 1763ntf    cn111315   1.079   2.773   0.411  0.0914  0.1976 -0.1472
 1763ntf    fn411316   1.180   2.340   0.168 -0.0634 -0.7122 -0.3527
 1763ntf    fn411317   1.012   2.366   0.296  0.0841  0.4568  0.1151
 1763ntf    fn411318   0.982   2.299   0.101  0.2240  0.5797 -0.2101
 1763ntf    on511319   1.084   2.557  -0.031 -0.6633  0.8714 -0.2199
 1763ntf    on511320   0.905   2.584   0.134 -0.0137 -0.5163  0.4724
 1763ntf    on511321   1.050   2.870   0.183 -0.1278  0.2085 -0.4561
 1763ntf    on511322   1.283   2.840   0.255  0.1770 -0.4339 -0.9179
 1763ntf    fn411323   1.167   2.738   0.504 -0.2620  0.0049  0.1147
 1763ntf    fn411324   1.044   2.895   0.449  0.5432  0.0923  0.6414
 1763ntf    fn411325   0.980   2.686   0.423  0.3363 -0.0827 -0.1401
 1764ntf    cn111326   6.240   3.595   3.898  0.1768  0.4303 -0.0382
 1764ntf    sn211327   6.230   3.423   3.840  0.2177  0.4162 -0.0025
 1764ntf    nn311328   6.086   3.403   3.782  0.3378 -0.1194 -0.1218
 1764ntf    sn211329   5.957   3.360   3.860  0.0768  0.0866 -0.4325
 1764ntf    cn111330   5.977   3.183   3.898  0.5954  0.3273  0.4515
 1764ntf    fn411331   6.200   3.679   3.804 -0.3871  0.0477 -0.1407
 1764ntf    fn411332   6.176   3.613   4.012 -0.2524  0.5247 -0.2911
 1764ntf    fn411333   6.368   3.618   3.923  0.0617  1.0949 -0.0392
 1764ntf    on511334   6.322   3.418   3.729  0.4789 -0.6933  0.2556
 1764ntf    on511335   6.263   3.345   3.957 -0.3453  0.1863  0.0072
 1764ntf    on511336   5.838   3.361   3.779  0.0743 -0.1339 -0.4341
 1764ntf    on511337   5.961   3.438   3.982  0.6748 -0.3960 -0.1335
 1764ntf    fn411338   5.866   3.140   3.956  0.7365  0.1840  0.6172
 1764ntf    fn411339   6.006   3.103   3.797 -0.1587 -0.4287  0.8233
 1764ntf    fn411340   6.075   3.152   3.981  0.5948  0.6789  0.5866
 1765ntf    cn111341   5.928   3.905   4.930 -0.6684  0.1576 -0.4392
 1765ntf    sn211342   6.065   3.977   4.835 -0.1693 -0.0089  0.1471
 1765ntf    nn311343   6.084   3.855   4.739  0.3238 -0.0143  0.2487
 1765ntf    sn211344   6.197   3.746   4.754  0.0947 -0.3069 -0.1236
 1765ntf    cn111345   6.169   3.669   4.592  0.2991  0.0764 -0.3444
 1765ntf    fn411346   5.867   3.980   5.020  0.2014  0.0384  0.2630
 1765ntf    fn411347   5.826   3.867   4.854 -0.7364 -0.1295 -0.2069
 1765ntf    fn411348   5.973   3.794   4.986 -0.6820  0.4915  0.2526
 1765ntf    on511349   6.012   4.089   4.761  0.0328 -0.2439 -0.3528
 1765ntf    on511350   6.163   4.003   4.938  0.2783 -0.0066 -0.2787
 1765ntf    on511351   6.156   3.655   4.858 -0.4163 -0.8001 -0.7484
 1765ntf    on511352   6.335   3.786   4.743 -0.0189  0.1696  0.1332
 1765ntf    fn411353   6.192   3.762   4.501  0.2225  0.7216  0.2841
 1765ntf    fn411354   6.260   3.574   4.580 -0.1784 -0.4295 -0.0586
 1765ntf    fn411355   6.050   3.614   4.571  0.3014  0.1008 -0.4222
 1766ntf    cn111356   0.543   4.838   1.762  0.8607  0.0136 -0.0994
 1766ntf    sn211357   0.586   5.003   1.697  0.0036  0.2093 -0.1727
 1766ntf    nn311358   0.543   5.101   1.812 -0.6209 -0.1592 -0.0840
 1766ntf    sn211359   0.608   5.235   1.862 -0.1594 -0.3849 -0.0814
 1766ntf    cn111360   0.700   5.196   2.015 -0.0314 -0.0042 -0.0596
 1766ntf    fn411361   0.616   4.800   1.866  0.0686  0.9230  0.8115
 1766ntf    fn411362   0.417   4.839   1.801  0.7121  0.3714 -0.5859
 1766ntf    fn411363   0.542   4.738   1.675 -0.0101 -0.1361  0.0751
 1766ntf    on511364   0.729   4.988   1.684  0.1492  1.0641  0.3791
 1766ntf    on511365   0.501   5.014   1.581 -0.6730 -0.5453  0.2381
 1766ntf    on511366   0.508   5.327   1.910  0.3359 -0.0172  0.2597
 1766ntf    on511367   0.702   5.302   1.776 -0.2759 -0.5338 -0.3255
 1766ntf    fn411368   0.753   5.307   2.062  0.4056 -0.0257 -0.4919
 1766ntf    fn411369   0.619   5.156   2.112  0.0970  0.5701  0.2877
 1766ntf    fn411370   0.800   5.110   2.011 -0.1609 -0.1561 -0.0685
 1767ntf    cn111371   1.733   2.648   4.659 -0.4086  0.2900  0.2860
 1767ntf    sn211372   1.760   2.828   4.644 -0.4008  0.2258 -0.5042
 1767ntf    nn311373   1.875   2.833   4.538  0.0426  0.9220  0.0055
 1767ntf    sn211374   1.862   2.840   4.382  0.0519  0.2254 -0.0305
 1767ntf    cn111375   1.898   3.018   4.373  0.0680  0.2138 -0.1893
 1767ntf    fn411376   1.848   2.586   4.681  0.1268  0.8346 -0.8795
 1767ntf    fn411377   1.639   2.621   4.748 -0.0570 -0.7442  0.3537
 1767ntf    fn411378   1.688   2.602   4.544 -0.2023 -0.1101  0.3642
 1767ntf    on511379   1.636   2.884   4.598 -0.5583 -0.0137 -0.3791
 1767ntf    on511380   1.800   2.860   4.779  0.0375 -0.0416 -0.5703
 1767ntf    on511381   1.729   2.827   4.327 -0.0412  0.1639  0.2075
 1767ntf    on511382   1.968   2.766   4.318 -0.0394  0.4558 -0.4547
 1767ntf    fn411383   2.006   3.051   4.441 -0.0434  0.4639 -0.1309
 1767ntf    fn411384   1.918   3.059   4.248 -0.3194  0.1344 -0.2801
 1767ntf    fn411385   1.801   3.087   4.431  0.4015  0.6582 -0.1539
 1768ntf    cn111386   4.378   5.922   4.416 -0.0705 -0.0766  0.4548
 1768ntf    sn211387   4.275   5.887   4.271  0.0068 -0.1394  0.4142
 1768ntf    nn311388   4.132   5.924   4.326  0.0119 -0.0963  0.3984
 1768ntf    sn211389   4.029   5.838   4.408 -0.3277  0.0481  0.1219
 1768ntf    cn111390   3.923   5.765   4.279 -0.3946 -0.2760  0.3602
 1768ntf    fn411391   4.335   5.846   4.515 -0.1543  0.0180  0.4913
 1768ntf    fn411392   4.507   5.894   4.404 -0.1113 -0.1096  0.0758
 1768ntf    fn411393   4.362   6.048   4.451 -0.2641  0.1667 -0.4755
 1768ntf    on511394   4.320   5.986   4.175 -0.0393 -0.5336 -0.0190
 1768ntf    on511395   4.283   5.747   4.238  0.3029  0.0467 -0.3212
 1768ntf    on511396   3.933   5.917   4.482 -0.3276 -0.1123  0.2926
 1768ntf    on511397   4.085   5.727   4.480  0.0870 -0.0078 -0.2818
 1768ntf    fn411398   3.843   5.848   4.215  0.4400  0.2428 -0.0288
 1768ntf    fn411399   3.999   5.717   4.182 -0.8980  0.2641 -0.3094
 1768ntf    fn411400   3.840   5.671   4.319  0.0968 -0.8666  0.0107
 1769ntf    cn111401   5.621   1.776   5.201  0.2363  0.0408  0.2764
 1769ntf    sn211402   5.689   1.687   5.058 -0.0837 -0.0058  0.1543
 1769ntf    nn311403   5.599   1.558   5.071 -0.3861  0.1702 -0.1805
 1769ntf    sn211404   5.630   1.414   5.125  0.0034  0.3287  0.0193
 1769ntf    cn111405   5.509   1.411   5.260 -0.0088  0.3719  0.0090
 1769ntf    fn411406   5.677   1.896   5.210 -0.2929  0.3253 -0.1449
 1769ntf    fn411407   5.490   1.788   5.191  0.2495  0.0746  0.1463
 1769ntf    fn411408   5.640   1.708   5.313  0.0521 -0.7099 -0.1435
 1769ntf    on511409   5.652   1.768   4.945 -0.4866 -0.4841 -0.0628
 1769ntf    on511410   5.828   1.671   5.090 -0.0281 -0.0521 -0.1134
 1769ntf    on511411   5.758   1.405   5.191  0.0387 -0.0889 -0.1037
 1769ntf    on511412   5.593   1.299   5.046  0.1584  0.3907 -0.1469
 1769ntf    fn411413   5.386   1.406   5.211  0.0207  0.1258 -0.0428
 1769ntf    fn411414   5.518   1.310   5.345  0.5341  0.6852  0.3271
 1769ntf    fn411415   5.514   1.518   5.337  0.0275  0.2222  0.2149
 1770ntf    cn111416   0.092   1.430   6.374  0.4735  0.2229 -0.3560
 1770ntf    sn211417   0.110   1.543   6.233  0.1463  0.2121 -0.4072
 1770ntf    nn311418   0.081   1.680   6.302  0.1169 -0.2184  0.4427
 1770ntf    sn211419   0.186   1.780   6.364  0.3234  0.1669 -0.5101
 1770ntf    cn111420   0.232   1.878   6.218 -0.0066  0.3354 -0.5000
 1770ntf    fn411421   0.187   1.445   6.464  0.6881  0.2969 -0.5925
 1770ntf    fn411422  -0.025   1.443   6.434  0.3010 -0.3456 -0.5589
 1770ntf    fn411423   0.101   1.302   6.341  0.3916 -0.0051  0.4757
 1770ntf    on511424   0.246   1.516   6.192  0.3532  0.5807  0.0388
 1770ntf    on511425   0.009   1.499   6.140 -0.2285 -0.0000  0.0974
 1770ntf    on511426   0.311   1.723   6.410 -0.2085 -0.2452  0.4446
 1770ntf    on511427   0.113   1.867   6.452  0.2645 -0.0973 -0.2974
 1770ntf    fn411428   0.123   1.903   6.146 -0.4400 -0.2473 -0.0568
 1770ntf    fn411429   0.296   1.989   6.250  0.3212 -0.0768  0.2824
 1770ntf    fn411430   0.313   1.806   6.142  0.0728 -0.0346 -0.0657
 1771ntf    cn111431   4.984   6.199   5.843  0.0314  0.1603  0.2820
 1771ntf    sn211432   5.166   6.208   5.849  0.0559 -0.0351 -0.1256
 1771ntf    nn311433   5.201   6.122   5.723 -0.0964 -0.3083  0.0151
 1771ntf    sn211434   5.257   5.976   5.710  0.3517 -0.1310 -0.0666
 1771ntf    cn111435   5.354   5.979   5.557  0.0750  0.5542 -0.2349
 1771ntf    fn411436   4.929   6.229   5.726  0.4269 -0.6599 -0.1194
 1771ntf    fn411437   4.931   6.082   5.873  0.4889 -0.0148  0.4156
 1771ntf    fn411438   4.936   6.288   5.929  0.2590  0.2367  0.3318
 1771ntf    on511439   5.200   6.347   5.836  0.6497 -0.1752 -0.0623
 1771ntf    on511440   5.194   6.143   5.975  0.1715  0.8117  0.2959
 1771ntf    on511441   5.150   5.883   5.687 -0.0664  0.2524  0.2976
 1771ntf    on511442   5.365   5.933   5.796 -0.0016 -0.7372  0.0753
 1771ntf    fn411443   5.450   6.070   5.559  0.2150  0.4236 -0.7744
 1771ntf    fn411444   5.410   5.864   5.521 -0.1503  0.4425 -0.2285
 1771ntf    fn411445   5.289   6.023   5.451 -0.0347  0.1060 -0.3559
 1772ntf    cn111446   6.241   2.365   4.052  0.1587  0.2366  0.2184
 1772ntf    sn211447   6.313   2.320   3.892 -0.3131 -0.1627  0.1132
 1772ntf    nn311448   6.396   2.452   3.869 -0.4652 -0.1954 -0.6813
 1772ntf    sn211449   6.460   2.504   3.736  0.3098  0.2109 -0.1580
 1772ntf    cn111450   6.322   2.604   3.671 -0.0952 -0.0622  0.2763
 1772ntf    fn411451   6.184   2.484   4.051  0.1208  0.2184 -0.7663
 1772ntf    fn411452   6.143   2.280   4.083  0.2524  0.0835  0.0968
 1772ntf    fn411453   6.326   2.353   4.152  0.7357  0.0621 -0.2901
 1772ntf    on511454   6.396   2.206   3.920 -0.1051 -0.1556 -0.4475
 1772ntf    on511455   6.194   2.309   3.810 -0.2189 -0.6902  0.0446
 1772ntf    on511456   6.484   2.406   3.633  0.2037  0.0731 -0.0515
 1772ntf    on511457   6.569   2.593   3.766  0.3367  0.0092  0.3577
 1772ntf    fn411458   6.227   2.630   3.759 -0.4882 -0.1496 -0.1239
 1772ntf    fn411459   6.362   2.723   3.629  0.2324 -0.4350 -0.4808
 1772ntf    fn411460   6.256   2.554   3.568  0.3135  0.3457 -0.1867
 1773ntf    cn111461   2.483   2.302   0.366 -0.2746  0.4323  0.2699
 1773ntf    sn211462   2.580   2.413   0.260 -0.2626  0.0870 -0.0811
 1773ntf    nn311463   2.508   2.549   0.287 -0.0116  0.2131 -0.0511
 1773ntf    sn211464   2.556   2.665   0.383 -0.1563 -0.2160  0.5447
 1773ntf    cn111465   2.389   2.700   0.445 -0.3278 -0.4355  0.2147
 1773ntf    fn411466   2.356   2.290   0.330 -0.1730  0.6024 -0.1456
 1773ntf    fn411467   2.521   2.176   0.353 -0.4208  0.3923  0.2238
 1773ntf    fn411468   2.484   2.332   0.495 -0.1433  0.2913  0.3028
 1773ntf    on511469   2.715   2.383   0.299 -0.0497  0.5638 -0.4422
 1773ntf    on511470   2.552   2.358   0.129 -0.1631 -0.2031  0.0182
 1773ntf    on511471   2.598   2.781   0.308 -0.5181 -0.6419 -0.3447
 1773ntf    on511472   2.620   2.628   0.507 -0.0176  0.7026  0.7496
 1773ntf    fn411473   2.386   2.797   0.535  0.0970 -0.3234  0.1114
 1773ntf    fn411474   2.300   2.721   0.349 -0.2665 -0.0142  0.2459
 1773ntf    fn411475   2.332   2.598   0.507  0.1645 -0.7282  0.1851
 1774ntf    cn111476   4.868   1.660   1.454  0.2001 -0.1664 -0.4073
 1774ntf    sn211477   5.047   1.666   1.486  0.1168 -0.2812  0.0893
 1774ntf    nn311478   5.068   1.512   1.513  0.2895 -0.3536 -0.4316
 1774ntf    sn211479   5.198   1.441   1.566  0.2316 -0.0747  0.0920
 1774ntf    cn111480   5.201   1.304   1.448 -0.3603 -0.0259  0.0146
 1774ntf    fn411481   4.813   1.781   1.452 -0.0648 -0.2849 -0.3146
 1774ntf    fn411482   4.844   1.603   1.337  0.4925 -0.8019 -0.1601
 1774ntf    fn411483   4.813   1.584   1.547  0.0781  0.1403 -0.2268
 1774ntf    on511484   5.107   1.713   1.363  0.2211  0.2997  0.3597
 1774ntf    on511485   5.057   1.751   1.602 -0.3180 -0.2879  0.1343
 1774ntf    on511486   5.181   1.368   1.690 -0.3044  0.2834  0.2358
 1774ntf    on511487   5.322   1.514   1.556  0.1417  0.0166 -0.3803
 1774ntf    fn411488   5.212   1.348   1.323 -0.7668 -0.4686 -0.1799
 1774ntf    fn411489   5.315   1.243   1.476 -0.0346  0.6177  0.1006
 1774ntf    fn411490   5.104   1.215   1.440 -0.2610 -0.1002 -0.4316
 1775ntf    cn111491   0.976   5.348   5.759  0.4332 -0.1524 -0.3785
 1775ntf    sn211492   1.059   5.211   5.844 -0.1384 -0.1947  0.1168
 1775ntf    nn311493   1.189   5.288   5.885 -0.2918  0.2728 -0.2655
 1775ntf    sn211494   1.206   5.388   6.005  0.3504 -0.1302 -0.0139
 1775ntf    cn111495   1.310   5.292   6.120 -0.0435 -0.2518  0.2414
 1775ntf    fn411496   1.001   5.461   5.823  0.4855 -0.6561  0.5036
 1775ntf    fn411497   1.006   5.366   5.631  0.0483 -0.3491 -0.4969
 1775ntf    fn411498   0.845   5.330   5.768  0.4775 -0.2725  0.0373
 1775ntf    on511499   0.980   5.178   5.960 -0.0755  0.4213  0.3357
 1775ntf    on511500   1.083   5.110   5.743 -0.9883  0.0584 -0.3483
 1775ntf    on511501   1.085   5.426   6.073  0.1770 -0.5521 -0.0846
 1775ntf    on511502   1.305   5.487   5.972  0.4836 -0.0052  0.7648
 1775ntf    fn411503   1.429   5.258   6.074 -0.0956 -0.3832  0.2049
 1775ntf    fn411504   1.333   5.365   6.228 -0.0869 -0.0776  0.1351
 1775ntf    fn411505   1.252   5.179   6.155  0.3084 -0.4288  0.2525
 1776ntf    cn111506   3.657   2.443   1.791  0.0249 -0.2583 -0.0865
 1776ntf    sn211507   3.788   2.377   1.899 -0.0789  0.1722  0.3039
 1776ntf    nn311508   3.903   2.483   1.883 -0.3123  0.3073 -0.5329
 1776ntf    sn211509   4.007   2.491   1.765  0.1055 -0.0599 -0.1957
 1776ntf    cn111510   4.149   2.552   1.860  0.1299 -0.1843 -0.1523
 1776ntf    fn411511   3.698   2.470   1.668  0.3287  0.0059  0.0709
 1776ntf    fn411512   3.547   2.370   1.783 -0.0289 -0.1505 -0.3330
 1776ntf    fn411513   3.613   2.552   1.851 -0.2660 -0.5560  0.2442
 1776ntf    on511514   3.731   2.376   2.031 -0.1942 -0.0949  0.2522
 1776ntf    on511515   3.814   2.246   1.845  0.1988  0.3752 -0.0677
 1776ntf    on511516   3.987   2.596   1.668  0.7189  0.5288  0.3040
 1776ntf    on511517   4.057   2.366   1.713  0.1304 -0.2784  0.3511
 1776ntf    fn411518   4.246   2.583   1.775  0.1994  0.3086  0.1012
 1776ntf    fn411519   4.118   2.652   1.941  0.1640 -0.1393 -0.1939
 1776ntf    fn411520   4.194   2.457   1.940 -0.0376 -0.1518 -0.0193
 1777ntf    cn111521   5.580   2.046   2.987 -0.1641 -0.2259 -0.1693
 1777ntf    sn211522   5.553   1.868   3.009 -0.1221 -0.2144 -0.0210
 1777ntf    nn311523   5.419   1.857   2.928 -0.1018 -0.0090 -0.0816
 1777ntf    sn211524   5.268   1.851   2.968 -0.1400 -0.4011 -0.2734
 1777ntf    cn111525   5.241   1.677   2.925 -0.4097 -0.3592 -0.2785
 1777ntf    fn411526   5.491   2.109   3.062 -0.3736 -0.1254 -0.4993
 1777ntf    fn411527   5.697   2.093   3.026 -0.2165  0.0012 -0.2873
 1777ntf    fn411528   5.564   2.093   2.865  0.1374 -0.1622 -0.1839
 1777ntf    on511529   5.658   1.802   2.935 -0.5462 -0.5715 -0.3127
 1777ntf    on511530   5.542   1.845   3.151  0.0669 -0.3888 -0.0338
 1777ntf    on511531   5.184   1.918   2.872 -0.3403 -0.8837 -0.4390
 1777ntf    on511532   5.234   1.851   3.108 -0.2210 -0.1161 -0.2924
 1777ntf    fn411533   5.259   1.661   2.795  0.5416 -0.3743 -0.1489
 1777ntf    fn411534   5.314   1.596   3.000  0.1602  0.4957  0.1020
 1777ntf    fn411535   5.116   1.635   2.939 -0.3048 -0.3116  0.8979
 1778ntf    cn111536   2.699   1.123   4.457  0.0287  0.0641  0.0428
 1778ntf    sn211537   2.548   1.025   4.484 -0.0130  0.0911 -0.0881
 1778ntf    nn311538   2.531   1.023   4.640 -0.4527 -0.4067 -0.1386
 1778ntf    sn211539   2.633   0.963   4.744 -0.2638 -0.2797 -0.2496
 1778ntf    cn111540   2.566   0.794   4.754 -0.1039 -0.3197  0.1795
 1778ntf    fn411541   2.810   1.052   4.448  0.1889  0.3813 -0.5229
 1778ntf    fn411542   2.692   1.193   4.345 -0.2473  0.3126  0.2157
 1778ntf    fn411543   2.732   1.207   4.553  0.1323 -0.0999  0.1520
 1778ntf    on511544   2.440   1.099   4.424 -0.0709  0.1072  0.0353
 1778ntf    on511545   2.567   0.895   4.423  0.4380 -0.0787  0.3994
 1778ntf    on511546   2.616   1.008   4.880  0.4517  0.3762 -0.3723
 1778ntf    on511547   2.767   0.939   4.696  0.0771 -0.1337  0.6135
 1778ntf    fn411548   2.623   0.731   4.855 -0.2143 -0.1933  0.3216
 1778ntf    fn411549   2.437   0.802   4.781  0.1057  0.5896  0.9461
 1778ntf    fn411550   2.583   0.723   4.643 -0.6746 -0.0145 -0.1068
 1779ntf    cn111551   0.472   0.648   1.691 -0.1892 -0.2425  0.2306
 1779ntf    sn211552   0.582   0.504   1.681  0.1258  0.0233 -0.1589
 1779ntf    nn311553   0.719   0.572   1.645  0.1333  0.0500 -0.0801
 1779ntf    sn211554   0.833   0.600   1.749 -0.0896  0.0163  0.1739
 1779ntf    cn111555   0.926   0.445   1.759 -0.4011 -0.1645  0.2828
 1779ntf    fn411556   0.344   0.616   1.683 -0.1752 -0.3008  0.2418
 1779ntf    fn411557   0.487   0.732   1.792  0.0241  0.5057 -0.4110
 1779ntf    fn411558   0.491   0.727   1.586  0.1563 -0.6115  0.0101
 1779ntf    on511559   0.570   0.433   1.806 -0.1880  0.7775  0.2443
 1779ntf    on511560   0.526   0.430   1.570 -0.1290 -0.0310  0.0054
 1779ntf    on511561   0.796   0.633   1.884 -0.2654 -0.2727  0.1954
 1779ntf    on511562   0.924   0.698   1.694  0.1737 -0.5376 -0.3871
 1779ntf    fn411563   0.883   0.372   1.860 -0.5520 -0.6622 -0.1303
 1779ntf    fn411564   0.923   0.381   1.642  0.0773  0.0352  0.1594
 1779ntf    fn411565   1.054   0.467   1.784 -0.4064 -0.1246  0.2752
 1780ntf    cn111566   4.085   2.701   3.655 -0.0807  0.0202  0.0306
 1780ntf    sn211567   4.259   2.662   3.620 -0.2025 -0.3831 -0.1363
 1780ntf    nn311568   4.317   2.626   3.761 -0.0783 -0.0420 -0.1017
 1780ntf    sn211569   4.467   2.618   3.807 -0.1083  0.1792  0.0388
 1780ntf    cn111570   4.455   2.574   3.983  0.0164 -0.2873 -0.0687
 1780ntf    fn411571   4.060   2.701   3.785  0.5463  0.5556  0.1546
 1780ntf    fn411572   4.039   2.812   3.601  0.0743  0.2070  0.2831
 1780ntf    fn411573   3.999   2.613   3.605 -0.4150  0.1607  0.3537
 1780ntf    on511574   4.253   2.547   3.532  0.3443 -0.2309 -0.3756
 1780ntf    on511575   4.314   2.786   3.573 -0.2102 -0.4493 -0.3221
 1780ntf    on511576   4.538   2.743   3.807 -0.1841  0.2229 -0.5378
 1780ntf    on511577   4.543   2.509   3.751  0.0284  0.3041 -0.0177
 1780ntf    fn411578   4.572   2.542   4.037 -0.0778 -0.0698  0.2622
 1780ntf    fn411579   4.414   2.670   4.064 -0.3299 -0.3634 -0.1543
 1780ntf    fn411580   4.385   2.462   3.995 -0.3828 -0.0631 -0.3163
 1781ntf    cn111581   4.614   4.211   6.178  0.3342 -0.2637 -0.2951
 1781ntf    sn211582   4.513   4.074   6.241  0.3121 -0.1664 -0.1168
 1781ntf    nn311583   4.605   4.013   6.353 -0.3156  0.0942  0.5471
 1781ntf    sn211584   4.711   3.897   6.345  0.0698  0.4738  0.1103
 1781ntf    cn111585   4.612   3.764   6.419  0.2592  0.3196  0.0846
 1781ntf    fn411586   4.703   4.173   6.088  0.5736 -0.4022  0.0000
 1781ntf    fn411587   4.527   4.292   6.119  0.7479  0.0826 -0.4392
 1781ntf    fn411588   4.662   4.284   6.278 -0.5590 -0.0900  0.0155
 1781ntf    on511589   4.397   4.133   6.303  0.4909  0.6588 -0.5638
 1781ntf    on511590   4.494   3.989   6.126 -0.6001  0.2734 -0.3001
 1781ntf    on511591   4.820   3.916   6.438  0.2616 -0.2369  0.0378
 1781ntf    on511592   4.735   3.837   6.216 -0.5134 -0.5570  0.4696
 1781ntf    fn411593   4.681   3.651   6.410 -0.0027  0.1847 -0.2565
 1781ntf    fn411594   4.604   3.785   6.550 -0.1851  0.8143 -0.0198
 1781ntf    fn411595   4.491   3.744   6.370  0.0040  0.3886  0.6791
 1782ntf    cn111596   6.154   1.841   6.602  0.2971 -0.2444  0.1997
 1782ntf    sn211597   6.047   1.987   6.586  0.3585 -0.2217 -0.0009
 1782ntf    nn311598   6.000   1.995   6.736 -0.2462 -0.0489 -0.1961
 1782ntf    sn211599   5.880   1.912   6.793 -0.1175 -0.1713 -0.1012
 1782ntf    cn111600   5.759   2.045   6.816  0.1152 -0.0295  0.3089
 1782ntf    fn411601   6.202   1.818   6.724 -0.3626  0.3022  0.5690
 1782ntf    fn411602   6.089   1.728   6.580  0.3362 -0.2061 -0.1111
 1782ntf    fn411603   6.257   1.851   6.520  0.4818 -0.4564  0.4037
 1782ntf    on511604   6.147   2.087   6.556  0.1062  0.0509  0.0666
 1782ntf    on511605   5.941   1.960   6.492 -0.3367  0.4447  0.5781
 1782ntf    on511606   5.911   1.865   6.926 -0.3429  0.3041  0.1207
 1782ntf    on511607   5.807   1.829   6.700 -0.4255  0.3749 -0.3469
 1782ntf    fn411608   5.800   2.122   6.916 -0.1358  0.5035  0.0019
 1782ntf    fn411609   5.761   2.125   6.710  0.1530 -0.3784  0.0452
 1782ntf    fn411610   5.632   2.013   6.836  0.2293 -0.7577 -0.0911
 1783ntf    cn111611   2.042   0.135   2.052 -0.3490 -0.3280  0.1514
 1783ntf    sn211612   1.949  -0.005   1.981 -0.5058  0.0774 -0.4485
 1783ntf    nn311613   2.021  -0.132   2.039 -0.2974  0.1327 -0.5837
 1783ntf    sn211614   2.168  -0.181   2.013 -0.2064  0.1340 -0.0827
 1783ntf    cn111615   2.140  -0.357   1.976  0.2210  0.0153  0.1562
 1783ntf    fn411616   2.006   0.151   2.178 -0.2002  0.5978  0.0799
 1783ntf    fn411617   2.174   0.121   2.048 -0.3112 -0.0801  0.5226
 1783ntf    fn411618   2.010   0.250   1.996  0.4660 -0.2644 -0.1926
 1783ntf    on511619   1.821  -0.003   2.047 -0.0904  0.3911  0.3722
 1783ntf    on511620   1.948   0.014   1.838  0.0203  0.1034 -0.4506
 1783ntf    on511621   2.251  -0.176   2.131  0.1512  0.5910 -0.3506
 1783ntf    on511622   2.226  -0.134   1.890  1.2895 -0.5813  0.3278
 1783ntf    fn411623   2.085  -0.416   2.082 -0.2038  0.1486  0.0110
 1783ntf    fn411624   2.050  -0.368   1.880  0.0273 -0.4460  0.3863
 1783ntf    fn411625   2.249  -0.422   1.938 -0.1635 -0.6780  0.2108
 1784ntf    cn111626   1.279   4.700   0.567  0.2396 -0.2181 -0.3218
 1784ntf    sn211627   1.389   4.747   0.703  0.0669  0.1826 -0.3189
 1784ntf    nn311628   1.473   4.863   0.638  0.5230 -0.1892 -0.4007
 1784ntf    sn211629   1.483   5.015   0.675 -0.1412 -0.2457  0.0304
 1784ntf    cn111630   1.656   5.021   0.731 -0.2666 -0.2044  0.4161
 1784ntf    fn411631   1.192   4.609   0.609  0.2655  0.0389  0.2924
 1784ntf    fn411632   1.207   4.804   0.530  0.0408 -0.3425 -0.2916
 1784ntf    fn411633   1.342   4.668   0.455  0.6314  0.4191 -0.2847
 1784ntf    on511634   1.305   4.789   0.812  0.3740  0.7435 -0.2924
 1784ntf    on511635   1.471   4.629   0.719 -0.3406 -0.0652 -0.0248
 1784ntf    on511636   1.416   5.076   0.788 -0.1018  0.4162 -0.3000
 1784ntf    on511637   1.477   5.103   0.562 -0.1501  0.1724  0.3541
 1784ntf    fn411638   1.734   4.964   0.641 -0.5535  0.0652 -0.0080
 1784ntf    fn411639   1.704   5.144   0.744 -0.3525 -0.1353  0.0793
 1784ntf    fn411640   1.686   4.956   0.842  0.0801  0.0430  0.4670
 1785ntf    cn111641   3.278   2.104   3.940  0.6062  0.2493  0.1508
 1785ntf    sn211642   3.200   1.969   4.035 -0.0047  0.4308 -0.0877
 1785ntf    nn311643   3.099   1.920   3.925 -0.0277  0.4225 -0.0627
 1785ntf    sn211644   2.962   1.850   3.958  0.2053  0.0438  0.1016
 1785ntf    cn111645   3.002   1.685   3.892  0.1375  0.1273 -0.1506
 1785ntf    fn411646   3.364   2.162   4.022  0.5925  0.1207  0.2579
 1785ntf    fn411647   3.349   2.068   3.835 -0.0626 -0.3702 -0.1023
 1785ntf    fn411648   3.187   2.188   3.892 -0.5767 -0.7265  0.6275
 1785ntf    on511649   3.315   1.883   4.046 -0.3023  0.0122 -0.2541
 1785ntf    on511650   3.143   2.035   4.150  0.0250  0.2085  0.0542
 1785ntf    on511651   2.863   1.890   3.861 -0.3776  0.4464  0.8493
 1785ntf    on511652   2.918   1.821   4.092 -0.3542  0.0198 -0.0853
 1785ntf    fn411653   3.125   1.651   3.926  0.0235 -0.3379 -0.2105
 1785ntf    fn411654   2.920   1.587   3.926  0.3772 -0.2363 -0.6124
 1785ntf    fn411655   2.993   1.683   3.760 -0.1032  0.2658 -0.1376
 1786ntf    cn111656   2.109   2.489   5.462 -0.0958 -0.2502  0.4423
 1786ntf    sn211657   2.035   2.356   5.362  0.0453 -0.1066  0.1436
 1786ntf    nn311658   2.139   2.353   5.245 -0.1184  0.2790 -0.0141
 1786ntf    sn211659   2.134   2.441   5.115  0.3525  0.1022 -0.1521
 1786ntf    cn111660   2.313   2.444   5.085  0.3513  0.0560 -0.1641
 1786ntf    fn411661   2.119   2.604   5.397  0.7358 -0.6463 -0.1391
 1786ntf    fn411662   2.041   2.516   5.572 -0.4982 -0.5238  0.2661
 1786ntf    fn411663   2.232   2.467   5.503  0.1132 -0.4455 -0.2795
 1786ntf    on511664   2.033   2.239   5.446  0.2356 -0.4740 -0.3638
 1786ntf    on511665   1.908   2.415   5.325  0.4672  0.2171 -0.8042
 1786ntf    on511666   2.109   2.582   5.132 -0.0780  0.0289 -0.1676
 1786ntf    on511667   2.080   2.377   4.997 -0.1005  0.0076  0.1047
 1786ntf    fn411668   2.337   2.507   4.971 -0.4414  0.2040 -0.2530
 1786ntf    fn411669   2.392   2.508   5.170  0.4111 -0.1541 -0.0610
 1786ntf    fn411670   2.366   2.323   5.072  0.1507 -0.0459 -0.0286
 1787ntf    cn111671   5.474   0.508   4.807 -0.0826 -0.0525 -0.2433
 1787ntf    sn211672   5.582   0.636   4.879  0.0835 -0.3844  0.1005
 1787ntf    nn311673   5.687   0.553   4.961  0.3947 -0.0382  0.0515
 1787ntf    sn211674   5.709   0.547   5.116  0.1108 -0.0382  0.0928
 1787ntf    cn111675   5.887   0.509   5.123  0.1187  0.0547  0.3759
 1787ntf    fn411676   5.541   0.399   4.773  0.2985  0.2864 -0.5979
 1787ntf    fn411677   5.381   0.459   4.886 -0.2710 -0.2103 -0.5612
 1787ntf    fn411678   5.407   0.558   4.704  0.0600  0.3266 -0.1548
 1787ntf    on511679   5.643   0.711   4.773 -0.6727 -0.2592 -0.2499
 1787ntf    on511680   5.488   0.706   4.963 -0.0150 -0.0458 -0.2891
 1787ntf    on511681   5.662   0.427   5.180  0.4217 -0.0938  0.2221
 1787ntf    on511682   5.706   0.671   5.189 -0.2924  0.3847 -0.6338
 1787ntf    fn411683   5.899   0.393   5.061 -0.2551  0.2096  0.0134
 1787ntf    fn411684   5.963   0.605   5.073 -0.0053  0.0522  0.1825
 1787ntf    fn411685   5.932   0.489   5.246  1.1362  0.9103  0.1648
 1788ntf    cn111686   4.844   1.996   3.932  0.0416  0.2144  0.4954
 1788ntf    sn211687   4.769   1.948   3.773  0.3072 -0.2387  0.5049
 1788ntf    nn311688   4.618   1.982   3.801  0.0170 -0.4589 -0.7056
 1788ntf    sn211689   4.518   2.086   3.740  0.2891  0.3012  0.1238
 1788ntf    cn111690   4.489   2.195   3.883  0.0638 -0.0863  0.3750
 1788ntf    fn411691   4.779   2.086   4.003 -0.2674  0.2871  0.1270
 1788ntf    fn411692   4.853   1.894   4.016  0.1451 -0.0501  0.1697
 1788ntf    fn411693   4.968   2.039   3.916  0.1635 -0.4300 -0.3742
 1788ntf    on511694   4.832   2.037   3.679 -0.4906  0.0218  0.2100
 1788ntf    on511695   4.794   1.807   3.754 -0.2367 -0.2650 -0.0533
 1788ntf    on511696   4.386   2.039   3.707  0.0892  0.8019  0.1910
 1788ntf    on511697   4.575   2.180   3.646 -0.3708  0.2586 -0.3219
 1788ntf    fn411698   4.394   2.285   3.860 -0.0404 -0.2777  0.0528
 1788ntf    fn411699   4.450   2.133   3.993  0.3110 -0.0368  0.4905
 1788ntf    fn411700   4.594   2.270   3.914  0.0692 -0.1091  0.4128
 1789ntf    cn111701   0.800   6.862   1.813 -0.2910  0.3993  0.1963
 1789ntf    sn211702   0.935   6.798   1.918 -0.1116 -0.1797 -0.3798
 1789ntf    nn311703   1.053   6.818   1.817  0.5299 -0.5421  0.2911
 1789ntf    sn211704   1.194   6.879   1.849  0.2290  0.1853  0.2590
 1789ntf    cn111705   1.180   7.060   1.837  0.1087  0.1585 -0.0119
 1789ntf    fn411706   0.795   6.994   1.818  0.2669  0.4379 -0.1122
 1789ntf    fn411707   0.804   6.828   1.685  0.0301 -0.2430  0.3704
 1789ntf    fn411708   0.684   6.822   1.861 -0.4993 -0.2173 -0.7987
 1789ntf    on511709   0.941   6.882   2.035 -0.1273  0.0677 -0.5552
 1789ntf    on511710   0.900   6.660   1.941  0.1642 -0.1833  0.0207
 1789ntf    on511711   1.281   6.860   1.735  0.4638  0.5317  0.3803
 1789ntf    on511712   1.256   6.859   1.978  0.2195 -0.0440  0.2284
 1789ntf    fn411713   1.292   7.113   1.792  0.2258 -0.5833 -0.6151
 1789ntf    fn411714   1.097   7.084   1.737 -0.3971 -0.1081  0.3369
 1789ntf    fn411715   1.124   7.119   1.942 -0.4436  0.1279 -0.2817
 1790ntf    cn111716   3.946   4.495   6.165 -0.3928 -0.1111  0.2207
 1790ntf    sn211717   3.860   4.514   6.005 -0.0163 -0.0782  0.0220
 1790ntf    nn311718   3.923   4.648   5.955  0.0004  0.0273  0.3223
 1790ntf    sn211719   3.851   4.787   5.938  0.1626  0.0921  0.1633
 1790ntf    cn111720   3.845   4.791   5.756 -0.2183 -0.3602  0.1657
 1790ntf    fn411721   4.077   4.508   6.153 -0.4037  0.1392  0.3685
 1790ntf    fn411722   3.901   4.579   6.256  0.5841  0.1256  0.4956
 1790ntf    fn411723   3.922   4.371   6.204  0.7682 -0.2754  0.4503
 1790ntf    on511724   3.910   4.402   5.928 -0.3420 -0.3527  0.2090
 1790ntf    on511725   3.720   4.510   6.039 -0.0126 -0.3396  0.0098
 1790ntf    on511726   3.931   4.897   5.986 -0.2293  0.3396  0.2575
 1790ntf    on511727   3.712   4.803   5.971 -0.0505 -0.6261 -0.3616
 1790ntf    fn411728   3.780   4.896   5.708 -0.0199 -0.2615  0.1131
 1790ntf    fn411729   3.962   4.777   5.697 -0.2671 -0.2052  0.0330
 1790ntf    fn411730   3.773   4.689   5.713 -0.4507 -0.1256 -0.0070
 1791ntf    cn111731   5.580   2.500   5.947 -0.2965 -0.3653  0.3159
 1791ntf    sn211732   5.633   2.332   5.902 -0.1249 -0.1510 -0.2945
 1791ntf    nn311733   5.736   2.351   5.785  0.0232 -0.5909 -0.2377
 1791ntf    sn211734   5.702   2.378   5.635 -0.0345  0.3440 -0.0651
 1791ntf    cn111735   5.721   2.211   5.565  0.3638  0.2896  0.1714
 1791ntf    fn411736   5.487   2.505   6.041 -0.5248  0.1169  0.0707
 1791ntf    fn411737   5.681   2.565   6.003  0.0463 -0.2470 -0.4258
 1791ntf    fn411738   5.533   2.568   5.843  0.0171 -0.0355  0.3862
 1791ntf    on511739   5.688   2.273   6.022  0.2573 -0.0897 -0.4369
 1791ntf    on511740   5.505   2.277   5.865  0.1520 -0.3690 -0.9497
 1791ntf    on511741   5.796   2.453   5.555 -0.5145  0.1622 -0.8157
 1791ntf    on511742   5.568   2.411   5.594 -0.0998 -0.1281 -0.2416
 1791ntf    fn411743   5.827   2.147   5.612  0.3526  0.2577  0.1534
 1791ntf    fn411744   5.618   2.140   5.606  0.5259  0.0843  0.2263
 1791ntf    fn411745   5.728   2.211   5.433  0.2047  0.3490  0.1633
 1792ntf    cn111746   0.280   1.340   2.362 -0.1051  0.2841  0.2448
 1792ntf    sn211747   0.324   1.265   2.521  0.4370  0.0894  0.0032
 1792ntf    nn311748   0.239   1.133   2.515  0.4260  0.0855  0.2315
 1792ntf    sn211749   0.264   1.001   2.433 -0.2549  0.0179  0.1259
 1792ntf    cn111750   0.343   0.897   2.561  0.0865 -0.1978 -0.2579
 1792ntf    fn411751   0.318   1.267   2.258  0.0470  0.4020  0.2178
 1792ntf    fn411752   0.150   1.363   2.349 -0.2077 -0.0887  0.6011
 1792ntf    fn411753   0.337   1.458   2.346  0.2152  0.0210 -0.6334
 1792ntf    on511754   0.466   1.245   2.507  0.3809 -0.3445  0.0212
 1792ntf    on511755   0.275   1.364   2.613  0.1142 -0.0537 -0.0121
 1792ntf    on511756   0.373   1.011   2.339 -0.2267 -0.3995  0.1137
 1792ntf    on511757   0.143   0.928   2.406 -0.3061  0.3424 -0.5208
 1792ntf    fn411758   0.387   0.782   2.513 -0.2810 -0.3451 -0.2445
 1792ntf    fn411759   0.446   0.956   2.619  0.2190 -0.6587 -0.0241
 1792ntf    fn411760   0.262   0.867   2.661  0.1087 -0.2788 -0.2644
 1793ntf    cn111761   0.181   3.980   4.899  0.1143  0.6311  0.2981
 1793ntf    sn211762   0.003   3.946   4.886  0.2045  0.2668 -0.0048
 1793ntf    nn311763  -0.025   3.865   5.017 -0.3993 -0.3322 -0.4964
 1793ntf    sn211764   0.005   3.714   5.049 -0.0730 -0.1244  0.2001
 1793ntf    cn111765  -0.154   3.630   5.021 -0.2136  0.0700  0.4148
 1793ntf    fn411766   0.229   4.000   5.021 -0.2377 -0.3474  0.6114
 1793ntf    fn411767   0.246   3.872   4.856 -0.0499  0.6570 -0.0183
 1793ntf    fn411768   0.215   4.077   4.816  0.4342 -0.1945 -0.5578
 1793ntf    on511769  -0.060   4.075   4.881 -0.0224  0.1620  0.1668
 1793ntf    on511770  -0.008   3.869   4.764  0.4449 -0.4121  0.3930
 1793ntf    on511771   0.038   3.687   5.187 -0.1487 -0.5544  0.1342
 1793ntf    on511772   0.096   3.655   4.954 -0.0421 -0.1794  0.2641
 1793ntf    fn411773  -0.203   3.652   4.900 -0.0652 -0.1653  0.3107
 1793ntf    fn411774  -0.149   3.498   5.028 -0.4012  0.0450  0.0948
 1793ntf    fn411775  -0.250   3.671   5.102 -0.5827  0.3218 -0.1435
 1794ntf    cn111776   1.661   5.964   5.824 -0.0350  0.0341  0.4143
 1794ntf    sn211777   1.539   6.039   5.936 -0.4454  0.1027 -0.0759
 1794ntf    nn311778   1.625   6.100   6.052 -0.5343 -0.2563  0.1790
 1794ntf    sn211779   1.694   6.024   6.171 -0.1418 -0.0953  0.0586
 1794ntf    cn111780   1.584   6.080   6.305  0.0426 -0.2263  0.2649
 1794ntf    fn411781   1.746   6.061   5.795 -0.0076 -0.2481 -0.4712
 1794ntf    fn411782   1.723   5.858   5.873 -0.1425 -0.2548 -0.0745
 1794ntf    fn411783   1.613   5.928   5.706  0.3471 -0.2174  0.3347
 1794ntf    on511784   1.486   6.150   5.861  0.3584  0.4441 -0.1446
 1794ntf    on511785   1.451   5.931   5.974 -0.5828  0.1731 -0.1916
 1794ntf    on511786   1.821   6.088   6.196 -0.2104 -0.1313  0.5204
 1794ntf    on511787   1.693   5.880   6.169  1.2016 -0.1138  0.1523
 1794ntf    fn411788   1.460   6.040   6.283  0.2201 -0.6237 -0.0198
 1794ntf    fn411789   1.628   6.041   6.424  0.1069 -0.5149  0.1459
 1794ntf    fn411790   1.582   6.212   6.294  0.3187 -0.2355  0.0805
 1795ntf    cn111791   3.447   2.121   2.832 -0.0136 -0.0772 -0.1749
 1795ntf    sn211792   3.378   2.242   2.715 -0.0560 -0.0790 -0.1515
 1795ntf    nn311793   3.457   2.205   2.584  0.2525 -0.7866  0.2295
 1795ntf    sn211794   3.407   2.116   2.465 -0.0283 -0.2878 -0.0262
 1795ntf    cn111795   3.333   2.252   2.368  0.4953  0.0571  0.0490
 1795ntf    fn411796   3.373   2.132   2.940  0.0637 -0.3109 -0.0988
 1795ntf    fn411797   3.437   1.994   2.798  0.4658 -0.2877  0.4667
 1795ntf    fn411798   3.573   2.138   2.868 -0.1591 -0.0374  0.3204
 1795ntf    on511799   3.238   2.209   2.712  0.0526 -0.5483 -0.1020
 1795ntf    on511800   3.412   2.370   2.772 -0.1849 -0.0584 -0.1198
 1795ntf    on511801   3.306   2.018   2.497 -0.4139  0.1563  0.1411
 1795ntf    on511802   3.505   2.067   2.372 -0.1906 -0.3964 -0.1405
 1795ntf    fn411803   3.413   2.347   2.323  0.0288  0.2748 -0.3337
 1795ntf    fn411804   3.273   2.198   2.263  0.7972  0.7085 -0.4598
 1795ntf    fn411805   3.234   2.310   2.435  0.2999 -0.0213 -0.1694
 1796ntf    cn111806   4.801   5.200   4.710 -0.0140 -0.0222 -0.0578
 1796ntf    sn211807   4.964   5.178   4.633 -0.0302  0.1248 -0.1343
 1796ntf    nn311808   4.996   5.038   4.696  0.3079  0.3505  0.1966
 1796ntf    sn211809   4.966   4.895   4.637  0.2310  0.4940 -0.1116
 1796ntf    cn111810   5.121   4.851   4.554  0.1464 -0.1484  0.0722
 1796ntf    fn411811   4.746   5.319   4.690 -0.1187 -0.0858 -0.1421
 1796ntf    fn411812   4.712   5.111   4.673 -0.4939  0.4194  0.0236
 1796ntf    fn411813   4.808   5.185   4.841 -0.4864 -0.4647 -0.0825
 1796ntf    on511814   4.948   5.177   4.489  0.2642  0.5525 -0.1735
 1796ntf    on511815   5.051   5.276   4.692  0.2199 -0.2341  0.0931
 1796ntf    on511816   4.859   4.892   4.540 -0.2502  0.7316  0.4088
 1796ntf    on511817   4.962   4.794   4.740  0.0964  0.3164 -0.2911
 1796ntf    fn411818   5.223   4.852   4.638  0.5063 -0.0745 -0.3596
 1796ntf    fn411819   5.122   4.729   4.501  0.8530 -0.0483 -0.1638
 1796ntf    fn411820   5.160   4.934   4.459  0.1879  0.0013  0.2209
 1797ntf    cn111821   4.743   6.741   6.737 -0.2543 -0.1209 -0.2990
 1797ntf    sn211822   4.590   6.820   6.795 -0.1233 -0.0162 -0.0879
 1797ntf    nn311823   4.540   6.857   6.651  0.1744  0.0813 -0.1665
 1797ntf    sn211824   4.436   6.781   6.561 -0.1130 -0.0620  0.2860
 1797ntf    cn111825   4.279   6.846   6.627  0.2201  0.3274  0.7056
 1797ntf    fn411826   4.812   6.826   6.662 -0.0319 -0.3617 -0.3714
 1797ntf    fn411827   4.828   6.700   6.831 -0.0852  0.8940  0.0067
 1797ntf    fn411828   4.717   6.642   6.654 -0.1788  0.0900 -0.5750
 1797ntf    on511829   4.511   6.718   6.860 -0.2434 -0.1079 -0.3746
 1797ntf    on511830   4.641   6.931   6.871  0.0961 -0.3168  0.2024
 1797ntf    on511831   4.426   6.638   6.569  0.3907 -0.1120  0.0530
 1797ntf    on511832   4.426   6.847   6.433  0.4172 -0.2787  0.1331
 1797ntf    fn411833   4.185   6.876   6.538 -0.1501 -0.3729  0.8499
 1797ntf    fn411834   4.212   6.767   6.710 -0.0106  0.2154  0.4160
 1797ntf    fn411835   4.289   6.958   6.696  0.0919  0.4554  0.5166
 1798ntf    cn111836   2.329   2.780   6.602  0.3628  0.1616 -0.0162
 1798ntf    sn211837   2.412   2.940   6.575  0.0691  0.3627  0.2644
 1798ntf    nn311838   2.449   2.929   6.422 -0.0794  0.4121  0.2243
 1798ntf    sn211839   2.581   2.864   6.367 -0.1649  0.2770  0.1772
 1798ntf    cn111840   2.705   2.996   6.375 -0.1138  0.2660 -0.4082
 1798ntf    fn411841   2.266   2.791   6.718 -0.0832  0.4820 -0.2861
 1798ntf    fn411842   2.238   2.749   6.510  0.6601 -0.1758 -0.1998
 1798ntf    fn411843   2.410   2.676   6.610  0.4106  0.1595 -0.5050
 1798ntf    on511844   2.302   3.032   6.593  0.0404  0.2737  0.5388
 1798ntf    on511845   2.522   2.938   6.668  0.6231 -0.2846 -0.3874
 1798ntf    on511846   2.575   2.851   6.224 -0.3110  0.2842  0.1820
 1798ntf    on511847   2.639   2.759   6.446 -0.5329 -0.4631 -0.5208
 1798ntf    fn411848   2.687   3.080   6.274 -0.4872  0.5655 -0.0949
 1798ntf    fn411849   2.718   3.064   6.488 -0.0453 -0.8017  0.2352
 1798ntf    fn411850   2.821   2.935   6.356  0.2542  0.7336  0.2674
 1799ntf    cn111851   6.473   4.773   0.295 -0.3741  0.1689 -0.1277
 1799ntf    sn211852   6.584   4.640   0.350 -0.6452 -0.0171 -0.0265
 1799ntf    nn311853   6.547   4.632   0.502  0.0726  0.8742  0.2054
 1799ntf    sn211854   6.509   4.502   0.582  0.4609  0.2130 -0.6667
 1799ntf    cn111855   6.329   4.518   0.562  0.3352  0.2352  0.3887
 1799ntf    fn411856   6.508   4.891   0.343 -0.2370  0.1117 -0.0871
 1799ntf    fn411857   6.466   4.781   0.163  0.4240  0.0643 -0.1816
 1799ntf    fn411858   6.349   4.749   0.335 -0.4334 -0.2962 -0.5658
 1799ntf    on511859   6.550   4.528   0.265 -0.2163 -0.1739  0.0062
 1799ntf    on511860   6.713   4.699   0.326 -0.7258 -0.0104 -0.4452
 1799ntf    on511861   6.532   4.522   0.723 -0.0941 -0.3928 -0.4853
 1799ntf    on511862   6.544   4.373   0.528  0.1990 -0.1711  0.0687
 1799ntf    fn411863   6.294   4.455   0.451  0.2497 -0.1657  0.6401
 1799ntf    fn411864   6.261   4.454   0.655 -0.3318  0.3483 -0.0202
 1799ntf    fn411865   6.279   4.640   0.555  0.3214  0.1840 -0.5811
 1800ntf    cn111866   1.743   2.690   5.678  0.0697  0.5358 -0.3692
 1800ntf    sn211867   1.721   2.681   5.858  0.1960 -0.0884 -0.3815
 1800ntf    nn311868   1.625   2.805   5.875  0.3414 -0.0303  0.0235
 1800ntf    sn211869   1.666   2.947   5.926 -0.4574  0.2073  0.0173
 1800ntf    cn111870   1.642   2.915   6.104  0.4594 -0.2307  0.0684
 1800ntf    fn411871   1.830   2.601   5.632 -0.3669 -0.0366 -0.1057
 1800ntf    fn411872   1.635   2.661   5.607  0.2402  0.3952 -0.5763
 1800ntf    fn411873   1.793   2.808   5.645 -0.4088  0.8360 -0.0325
 1800ntf    on511874   1.658   2.553   5.877 -0.1264  0.1552  0.2280
 1800ntf    on511875   1.854   2.693   5.911 -0.2902  0.1260  0.8193
 1800ntf    on511876   1.565   3.043   5.891 -0.0710  0.6298  0.0517
 1800ntf    on511877   1.803   2.987   5.903 -0.4899  0.1872 -0.2073
 1800ntf    fn411878   1.687   3.017   6.173 -0.0882  0.0705 -0.0158
 1800ntf    fn411879   1.517   2.897   6.142  0.2625  0.5704 -0.1974
 1800ntf    fn411880   1.720   2.815   6.143  0.0729 -0.4164  0.3754
 1801ntf    cn111881   4.457   1.133   5.080  0.1690  0.1795 -0.7479
 1801ntf    sn211882   4.562   0.987   5.107 -0.2873 -0.0342 -0.0974
 1801ntf    nn311883   4.525   0.960   5.257 -0.0363 -0.0708 -0.0415
 1801ntf    sn211884   4.407   0.877   5.318  0.2743 -0.4881 -0.0042
 1801ntf    cn111885   4.486   0.719   5.361  0.3350 -0.4556  0.0038
 1801ntf    fn411886   4.490   1.204   4.973  0.1111  0.3107 -0.6791
 1801ntf    fn411887   4.331   1.099   5.057 -0.0019 -0.0836  0.5309
 1801ntf    fn411888   4.453   1.216   5.182 -0.6143 -0.3888 -0.3000
 1801ntf    on511889   4.523   0.880   5.018  0.0690 -0.8309  0.6873
 1801ntf    on511890   4.699   1.032   5.093 -0.2163 -0.1982  0.0602
 1801ntf    on511891   4.303   0.849   5.222  0.6832 -0.0043 -0.6013
 1801ntf    on511892   4.358   0.932   5.442  0.7577  0.0871 -0.0637
 1801ntf    fn411893   4.405   0.647   5.438 -0.2230  0.3750  0.2080
 1801ntf    fn411894   4.510   0.654   5.249  0.2219 -0.1316 -0.2085
 1801ntf    fn411895   4.604   0.730   5.421  0.3841 -0.5941 -0.0677
 1802ntf    cn111896   3.612   3.378   5.822  0.3310 -0.1443  0.6277
 1802ntf    sn211897   3.656   3.235   5.719 -0.0216 -0.0894  0.3978
 1802ntf    nn311898   3.628   3.284   5.573  0.1419  0.0592  0.4176
 1802ntf    sn211899   3.494   3.280   5.491  0.3963  0.1822 -0.0112
 1802ntf    cn111900   3.510   3.128   5.393 -0.2188 -0.0533  0.2507
 1802ntf    fn411901   3.698   3.474   5.794  0.2091 -0.1312  0.2915
 1802ntf    fn411902   3.492   3.433   5.806  0.3043 -0.1900  0.6722
 1802ntf    fn411903   3.620   3.357   5.952  0.2095  0.3949  0.7263
 1802ntf    on511904   3.799   3.229   5.736  0.1145  0.3145 -0.5722
 1802ntf    on511905   3.577   3.121   5.761 -0.4118  0.0318 -0.0066
 1802ntf    on511906   3.479   3.386   5.395 -0.0740 -0.3990 -0.5887
 1802ntf    on511907   3.380   3.266   5.579  0.0631 -0.0889 -0.4848
 1802ntf    fn411908   3.616   3.130   5.314 -0.1740 -0.2917  0.3043
 1802ntf    fn411909   3.525   3.025   5.474 -0.4753  0.1339  0.5393
 1802ntf    fn411910   3.405   3.103   5.315 -0.0475 -0.1193  0.0414
 1803ntf    cn111911   6.698   3.465   0.585 -0.2266  0.1934 -0.3297
 1803ntf    sn211912   6.618   3.620   0.637 -0.0056  0.1142  0.2512
 1803ntf    nn311913   6.559   3.565   0.772  0.0041 -0.6454 -0.0457
 1803ntf    sn211914   6.589   3.603   0.921 -0.1574 -0.1160 -0.1426
 1803ntf    cn111915   6.709   3.469   0.950  0.0296  0.0344 -0.2187
 1803ntf    fn411916   6.771   3.406   0.678 -0.6202 -0.0610 -0.1802
 1803ntf    fn411917   6.612   3.371   0.547 -0.1385 -0.1490  0.2951
 1803ntf    fn411918   6.789   3.496   0.495  0.4817  0.8319  0.5930
 1803ntf    on511919   6.728   3.710   0.658 -0.2145  0.3028  0.5447
 1803ntf    on511920   6.523   3.641   0.531 -0.3297 -0.6367  0.3784
 1803ntf    on511921   6.480   3.559   1.005  0.0022 -0.2432  0.0021
 1803ntf    on511922   6.649   3.729   0.956  0.0598 -0.5942  1.2850
 1803ntf    fn411923   6.664   3.350   0.913  0.2326 -0.0701 -0.1331
 1803ntf    fn411924   6.817   3.496   0.879 -0.0646 -0.5433 -0.5841
 1803ntf    fn411925   6.752   3.460   1.075  0.1161  0.6224 -0.2022
 1804ntf    cn111926   5.049   2.232   6.625 -0.0567  0.0874 -0.2877
 1804ntf    sn211927   5.095   2.374   6.520  0.0625  0.0203 -0.3257
 1804ntf    nn311928   5.249   2.364   6.546  0.1454  0.0882 -0.7825
 1804ntf    sn211929   5.346   2.462   6.622 -0.2547 -0.1372  0.0357
 1804ntf    cn111930   5.354   2.603   6.507  0.2621 -0.4129 -0.2716
 1804ntf    fn411931   5.090   2.116   6.578 -0.0190  0.0798 -0.2356
 1804ntf    fn411932   5.087   2.235   6.752  0.2086 -0.1598 -0.3607
 1804ntf    fn411933   4.917   2.217   6.627 -0.0457 -0.0024 -0.2696
 1804ntf    on511934   5.050   2.328   6.391  0.8240 -0.4207 -0.4414
 1804ntf    on511935   5.033   2.482   6.593  0.3413 -0.2851  0.3737
 1804ntf    on511936   5.483   2.418   6.625 -0.4641 -0.7890  0.3133
 1804ntf    on511937   5.307   2.517   6.749  0.9602  0.4388  0.1689
 1804ntf    fn411938   5.233   2.634   6.463 -0.1312  0.3743  1.2775
 1804ntf    fn411939   5.400   2.716   6.558 -0.7453 -0.0847 -0.0746
 1804ntf    fn411940   5.422   2.573   6.398 -0.1932  0.2674 -0.7445
 1805ntf    cn111941   2.109   6.330   6.625  0.3385 -0.0742 -0.2181
 1805ntf    sn211942   2.016   6.366   6.473  0.1645 -0.5186 -0.2200
 1805ntf    nn311943   1.869   6.362   6.526  0.2242  0.4218  0.0350
 1805ntf    sn211944   1.746   6.459   6.523 -0.4218 -0.3824  0.0842
 1805ntf    cn111945   1.736   6.491   6.345 -0.1842 -0.2018  0.1037
 1805ntf    fn411946   2.098   6.414   6.726 -0.0613 -0.3738 -0.0117
 1805ntf    fn411947   2.067   6.212   6.668  0.5925 -0.0147  0.1937
 1805ntf    fn411948   2.239   6.308   6.614  0.2978 -0.1813 -0.5048
 1805ntf    on511949   2.067   6.496   6.435 -1.1802  0.0167 -0.2538
 1805ntf    on511950   2.054   6.253   6.391 -0.4273 -0.3800 -0.6894
 1805ntf    on511951   1.777   6.585   6.587 -0.3403 -0.3357 -0.0467
 1805ntf    on511952   1.621   6.396   6.557 -0.5169 -0.2792 -0.0716
 1805ntf    fn411953   1.829   6.576   6.303 -0.3184 -0.3593 -0.5308
 1805ntf    fn411954   1.755   6.377   6.281  0.1103 -0.0101 -0.1556
 1805ntf    fn411955   1.615   6.536   6.315 -0.0915  0.2936  0.4617
 1806ntf    cn111956   3.399   6.521   2.847 -0.0318 -0.1963  0.1258
 1806ntf    sn211957   3.575   6.498   2.885 -0.0353 -0.1765  0.1548
 1806ntf    nn311958   3.578   6.346   2.845 -0.3132 -0.1241 -0.0714
 1806ntf    sn211959   3.704   6.255   2.817 -0.2062  0.0734 -0.2334
 1806ntf    cn111960   3.724   6.199   2.989  0.1256  0.1716 -0.2389
 1806ntf    fn411961   3.335   6.446   2.935 -0.3058 -0.2886 -0.1534
 1806ntf    fn411962   3.361   6.645   2.873  0.2937 -0.1414  0.3575
 1806ntf    fn411963   3.359   6.481   2.727  0.2155 -0.0901  0.0072
 1806ntf    on511964   3.641   6.583   2.789 -0.4153 -0.2537 -0.1780
 1806ntf    on511965   3.589   6.528   3.025  0.4978 -0.5732  0.1912
 1806ntf    on511966   3.827   6.324   2.787 -0.2299  0.2228  0.0061
 1806ntf    on511967   3.675   6.135   2.743  0.0642 -0.1471  0.0141
 1806ntf    fn411968   3.797   6.090   3.004 -0.1404  0.0192 -0.0454
 1806ntf    fn411969   3.779   6.299   3.056 -0.1532  0.2304 -0.0938
 1806ntf    fn411970   3.609   6.168   3.048  0.5347 -0.1408  0.3980
 1807ntf    cn111971   5.531   0.569   2.890  0.0283 -0.0997 -0.0596
 1807ntf    sn211972   5.471   0.664   3.033 -0.0387  0.0832 -0.2088
 1807ntf    nn311973   5.564   0.788   3.010  0.4090 -0.1543  0.3062
 1807ntf    sn211974   5.530   0.931   2.954 -0.3425 -0.4555 -0.0153
 1807ntf    cn111975   5.488   0.999   3.117  0.0243 -0.5360  0.1144
 1807ntf    fn411976   5.652   0.522   2.916  0.0680 -0.1312 -0.2923
 1807ntf    fn411977   5.467   0.455   2.869 -0.1898  0.0266 -0.0842
 1807ntf    fn411978   5.535   0.628   2.771 -0.0351 -0.0366 -0.0304
 1807ntf    on511979   5.330   0.677   3.005  0.1631  0.8066 -0.9296
 1807ntf    on511980   5.511   0.576   3.140  0.0081  0.4008  0.0330
 1807ntf    on511981   5.414   0.945   2.870 -0.3496  0.6243  0.1692
 1807ntf    on511982   5.650   0.998   2.911 -0.4611  0.1761  0.6252
 1807ntf    fn411983   5.380   0.948   3.174  0.2801 -0.4146  0.7158
 1807ntf    fn411984   5.596   0.999   3.193  0.3475 -0.0062 -0.3312
 1807ntf    fn411985   5.454   1.127   3.104  0.4101 -0.4290  0.1490
 1808ntf    cn111986   2.478   5.991   3.744 -0.0335  0.2328 -0.4401
 1808ntf    sn211987   2.617   6.034   3.853 -0.1298 -0.0253 -0.2139
 1808ntf    nn311988   2.596   6.188   3.875  0.4838  0.0480 -0.1328
 1808ntf    sn211989   2.533   6.269   3.994  0.0714  0.0714 -0.3685
 1808ntf    cn111990   2.639   6.227   4.135  0.0529  0.1019 -0.3452
 1808ntf    fn411991   2.487   5.876   3.680  0.1864  0.0310 -0.0497
 1808ntf    fn411992   2.365   5.973   3.812  0.2539 -0.1657 -0.0637
 1808ntf    fn411993   2.441   6.087   3.660  0.1499  0.5287 -0.1865
 1808ntf    on511994   2.607   5.947   3.968  0.2688  0.3580  0.1138
 1808ntf    on511995   2.732   6.003   3.772 -0.0739  0.1672 -0.2084
 1808ntf    on511996   2.400   6.217   4.015  0.2114 -0.2122 -0.1900
 1808ntf    on511997   2.544   6.413   3.986 -0.1988  0.0959 -0.3216
 1808ntf    fn411998   2.631   6.315   4.234 -0.0382  0.4693 -0.6784
 1808ntf    fn411999   2.596   6.120   4.202 -0.8860  0.3687 -0.5081
 1808ntf    fn412000   2.766   6.214   4.103  0.2544 -0.2606  0.5697
 1809ntf    cn112001   2.577   4.268   2.526 -0.1546  0.2700 -0.0970
 1809ntf    sn212002   2.571   4.286   2.707  0.1237 -0.1304 -0.0474
 1809ntf    nn312003   2.673   4.179   2.761 -0.0857 -0.0840  0.4384
 1809ntf    sn212004   2.653   4.024   2.748  0.0019 -0.0525 -0.0958
 1809ntf    cn112005   2.583   3.998   2.914  0.0883  0.2302 -0.0152
 1809ntf    fn412006   2.693   4.306   2.475  0.2708 -0.4730  0.3048
 1809ntf    fn412007   2.565   4.141   2.492 -0.1453  0.0930  0.5553
 1809ntf    fn412008   2.481   4.335   2.465 -0.0208  0.1682 -0.4210
 1809ntf    on512009   2.622   4.419   2.731 -0.0851 -0.1419  0.4747
 1809ntf    on512010   2.432   4.263   2.739  0.1858  0.0461  0.3538
 1809ntf    on512011   2.773   3.943   2.757 -0.1582 -0.2827 -0.0162
 1809ntf    on512012   2.548   3.971   2.665  0.1086 -0.0914 -0.2063
 1809ntf    fn412013   2.658   4.029   3.018  0.4913 -0.2677 -0.1564
 1809ntf    fn412014   2.465   4.057   2.927  0.0187  0.0686  0.0971
 1809ntf    fn412015   2.569   3.867   2.927  0.2530  0.2537  0.4225
 1810ntf    cn112016   4.739   6.703   1.718 -0.3557  0.4574  0.4176
 1810ntf    sn212017   4.578   6.623   1.744 -0.1820  0.0050  0.0990
 1810ntf    nn312018   4.519   6.743   1.825  0.0972  0.3571 -0.2164
 1810ntf    sn212019   4.415   6.730   1.942  0.2747  0.2591 -0.0703
 1810ntf    cn112020   4.535   6.732   2.079  0.0333  0.0635  0.1460
 1810ntf    fn412021   4.740   6.820   1.656 -0.7238  0.1825 -0.1128
 1810ntf    fn412022   4.790   6.732   1.837  0.0901  0.4037  0.2417
 1810ntf    fn412023   4.833   6.634   1.657 -0.2278  0.6470  0.3995
 1810ntf    on512024   4.530   6.617   1.608  0.5876  0.5624 -0.2036
 1810ntf    on512025   4.609   6.506   1.822 -0.4202 -0.1811 -0.0843
 1810ntf    on512026   4.343   6.605   1.953 -0.2813  0.5786 -0.0486
 1810ntf    on512027   4.339   6.851   1.959  0.0198  0.0508  0.2984
 1810ntf    fn412028   4.468   6.756   2.190  0.1779  0.1782  0.2090
 1810ntf    fn412029   4.601   6.617   2.082  0.0407  0.0729  0.3155
 1810ntf    fn412030   4.617   6.835   2.077 -0.2874  0.3265  0.5404
 1811ntf    cn112031   6.000   2.562   5.875  0.0463 -0.3280  0.7833
 1811ntf    sn212032   6.099   2.696   5.948 -0.0685  0.1620  0.0455
 1811ntf    nn312033   5.989   2.804   5.976 -0.2876  0.1056 -0.5676
 1811ntf    sn212034   5.973   2.885   6.110 -0.2323 -0.4372 -0.2268
 1811ntf    cn112035   5.860   2.777   6.202  0.0007  0.1043  0.7089
 1811ntf    fn412036   5.897   2.545   5.957 -0.5009 -0.0343  0.1664
 1811ntf    fn412037   5.940   2.589   5.760  0.2424  0.7268  0.9220
 1811ntf    fn412038   6.071   2.451   5.866 -0.0378 -0.3017 -0.3609
 1811ntf    on512039   6.149   2.627   6.064 -0.6905 -0.2886  0.0508
 1811ntf    on512040   6.187   2.722   5.837  0.8674  0.1885  0.7879
 1811ntf    on512041   5.888   3.002   6.101 -0.1680 -0.3717  0.0073
 1811ntf    on512042   6.085   2.890   6.201 -0.0984  0.4000 -0.4239
 1811ntf    fn412043   5.734   2.799   6.172  0.1950  0.6482  0.2828
 1811ntf    fn412044   5.888   2.652   6.168  0.2997  0.4267 -0.2528
 1811ntf    fn412045   5.865   2.787   6.334  0.1232  0.1887  0.6984
 1812ntf    cn112046   1.833   1.782   5.188  0.1281  0.5601  0.0553
 1812ntf    sn212047   1.654   1.803   5.210  0.0104 -0.3252 -0.0431
 1812ntf    nn312048   1.648   1.871   5.351 -0.3489  0.5955 -0.4964
 1812ntf    sn212049   1.549   1.832   5.467  0.4071  0.1271 -0.0064
 1812ntf    cn112050   1.405   1.937   5.431  0.2021 -0.1419  0.0259
 1812ntf    fn412051   1.908   1.887   5.219  0.5804  0.2269  0.0942
 1812ntf    fn412052   1.874   1.687   5.270 -0.8585  0.0068 -0.0749
 1812ntf    fn412053   1.855   1.742   5.064 -0.3189 -0.5214  0.3169
 1812ntf    on512054   1.620   1.901   5.110  0.5304 -0.0779  0.0252
 1812ntf    on512055   1.600   1.670   5.189 -0.0495 -0.3480  0.2428
 1812ntf    on512056   1.600   1.881   5.593 -0.0638  0.5181  0.0329
 1812ntf    on512057   1.493   1.699   5.471 -0.6133  0.5642  0.5770
 1812ntf    fn412058   1.298   1.910   5.503 -0.0346  0.1186 -0.2305
 1812ntf    fn412059   1.431   2.064   5.457  0.5678 -0.2896  0.4009
 1812ntf    fn412060   1.369   1.934   5.304 -0.2229  0.1017  0.1408
 1813ntf    cn112061   3.046   4.005   5.627 -0.2377 -0.2500 -0.2190
 1813ntf    sn212062   2.973   3.958   5.786  0.3607 -0.1459  0.0870
 1813ntf    nn312063   3.038   4.065   5.882  0.2179  0.0381 -0.0227
 1813ntf    sn212064   2.981   4.174   5.980 -0.2100  0.0496 -0.2765
 1813ntf    cn112065   3.029   4.099   6.139 -0.4516  0.4514 -0.0142
 1813ntf    fn412066   3.012   3.918   5.533  0.4019 -0.6978 -0.0435
 1813ntf    fn412067   3.012   4.127   5.588 -0.1949 -0.1549  0.0413
 1813ntf    fn412068   3.177   4.005   5.643 -0.2635 -0.5555 -0.0123
 1813ntf    on512069   2.833   3.979   5.759  0.4975  0.5241 -0.1182
 1813ntf    on512070   3.020   3.824   5.809  0.0398 -0.3063 -0.1990
 1813ntf    on512071   2.839   4.184   6.000 -0.1536 -0.0769  0.2169
 1813ntf    on512072   3.045   4.302   5.972 -0.3056  0.0833 -0.4879
 1813ntf    fn412073   3.159   4.078   6.151 -0.5138  0.1600  0.1542
 1813ntf    fn412074   2.994   4.175   6.242 -0.5957 -0.3045  0.4970
 1813ntf    fn412075   2.959   3.990   6.164  0.0636  0.0400 -0.3440
 1814ntf    cn112076   1.342   6.824   4.748 -0.0091  0.0446 -0.0743
 1814ntf    sn212077   1.507   6.852   4.820 -0.2001  0.3914  0.2342
 1814ntf    nn312078   1.473   6.921   4.957  0.0473  0.3685  0.3077
 1814ntf    sn212079   1.476   7.075   4.990  0.4115  0.3832  0.2145
 1814ntf    cn112080   1.343   7.095   5.112  0.2147 -0.2822  0.1142
 1814ntf    fn412081   1.285   6.938   4.714  0.0973  0.0721 -0.1648
 1814ntf    fn412082   1.342   6.742   4.645  0.0216 -0.0394 -0.0072
 1814ntf    fn412083   1.255   6.774   4.834 -0.1428  0.2073 -0.1151
 1814ntf    on512084   1.563   6.720   4.836  0.6019  0.7450  0.3954
 1814ntf    on512085   1.574   6.930   4.720  0.2035 -0.0573  0.1492
 1814ntf    on512086   1.443   7.168   4.885 -0.4095 -0.7663 -0.5765
 1814ntf    on512087   1.594   7.102   5.069  0.5466 -0.3161  0.2574
 1814ntf    fn412088   1.336   6.999   5.203  0.7661  0.1313  0.6023
 1814ntf    fn412089   1.353   7.207   5.182 -0.2033 -0.2237  0.0842
 1814ntf    fn412090   1.220   7.098   5.063  0.2377 -0.0017  0.0689
 1815ntf    cn112091   1.493   2.440   3.132  0.1458 -0.5071 -0.1055
 1815ntf    sn212092   1.317   2.400   3.146  0.0602 -0.1779 -0.2306
 1815ntf    nn312093   1.319   2.315   3.278 -0.3714  0.0155 -0.0977
 1815ntf    sn212094   1.276   2.166   3.305  0.1057 -0.0588  0.2667
 1815ntf    cn112095   1.095   2.183   3.318  0.0467 -0.5591  0.0909
 1815ntf    fn412096   1.526   2.494   3.016  0.0697 -0.2466 -0.0061
 1815ntf    fn412097   1.537   2.525   3.224 -0.3635 -0.3803  0.0206
 1815ntf    fn412098   1.568   2.332   3.145  0.2145 -0.4542 -0.0574
 1815ntf    on512099   1.248   2.526   3.157  0.0972 -0.1690 -0.0990
 1815ntf    on512100   1.282   2.321   3.030  0.2707  0.1022 -0.4871
 1815ntf    on512101   1.312   2.130   3.440  0.4374 -0.4326  0.0788
 1815ntf    on512102   1.294   2.069   3.201 -0.4157  0.2755 -0.1394
 1815ntf    fn412103   1.048   2.244   3.210 -0.2728  0.0171  0.5542
 1815ntf    fn412104   1.022   2.073   3.316 -0.1311 -0.4354 -0.8075
 1815ntf    fn412105   1.055   2.244   3.428  0.4651 -0.0060 -0.0569
 1816ntf    cn112106   5.516   2.558   3.505 -0.1959  0.0616  0.1655
 1816ntf    sn212107   5.421   2.449   3.395 -0.1349  0.1443  0.0296
 1816ntf    nn312108   5.335   2.559   3.323 -0.5737 -0.3200 -0.1654
 1816ntf    sn212109   5.384   2.662   3.215 -0.1610  0.0546  0.3771
 1816ntf    cn112110   5.310   2.604   3.060  0.1050  0.1078  0.2290
 1816ntf    fn412111   5.616   2.612   3.437  0.2606 -0.8890  0.0629
 1816ntf    fn412112   5.440   2.654   3.556  0.0457  0.3571 -0.0237
 1816ntf    fn412113   5.573   2.494   3.605  0.3745  0.1696 -0.0874
 1816ntf    on512114   5.523   2.377   3.324 -0.1432  0.0251  0.1375
 1816ntf    on512115   5.340   2.367   3.483 -0.7587  0.5270 -0.1814
 1816ntf    on512116   5.524   2.655   3.181 -0.1640  0.0431  0.3673
 1816ntf    on512117   5.321   2.791   3.230  0.1806  0.3283 -0.4561
 1816ntf    fn412118   5.294   2.712   2.985 -0.0361  0.0650  0.1963
 1816ntf    fn412119   5.383   2.519   2.990 -0.1891  0.4214 -0.4651
 1816ntf    fn412120   5.188   2.552   3.066  0.3224 -0.3880  0.4325
 1817ntf    cn112121   1.932   5.179   2.144  0.1896 -0.0570  0.1442
 1817ntf    sn212122   2.054   5.050   2.182  0.2311 -0.1030 -0.1406
 1817ntf    nn312123   2.004   5.011   2.326  0.0765  0.1683 -0.1202
 1817ntf    sn212124   1.974   4.876   2.401 -0.1488  0.2046 -0.1469
 1817ntf    cn112125   1.802   4.855   2.344 -0.2564  0.0117  0.2461
 1817ntf    fn412126   1.927   5.210   2.015  0.0993 -0.7518 -0.0224
 1817ntf    fn412127   1.813   5.140   2.184  0.2418 -0.0331  0.3234
 1817ntf    fn412128   1.961   5.292   2.206  0.3327  0.3916 -0.7255
 1817ntf    on512129   2.039   4.953   2.076 -0.2660 -0.5624  0.3428
 1817ntf    on512130   2.183   5.113   2.201  0.4044 -0.5798  0.3084
 1817ntf    on512131   1.949   4.897   2.542 -0.6050  0.1748 -0.2222
 1817ntf    on512132   2.049   4.760   2.362 -0.0718  0.3503 -0.4372
 1817ntf    fn412133   1.739   4.758   2.408 -0.5406 -0.0473 -0.1242
 1817ntf    fn412134   1.729   4.962   2.367  0.5223  0.5149  0.4220
 1817ntf    fn412135   1.786   4.826   2.216  0.2379  0.1373  0.1518
 1818ntf    cn112136   3.347   2.029   5.674 -0.3160 -0.1195 -0.0682
 1818ntf    sn212137   3.346   1.876   5.577 -0.0756  0.0624 -0.3584
 1818ntf    nn312138   3.310   1.780   5.695 -0.8392  0.2797 -0.4139
 1818ntf    sn212139   3.299   1.623   5.686  0.2711  0.1526  0.2487
 1818ntf    cn112140   3.446   1.584   5.786  0.3381 -0.1604  0.0291
 1818ntf    fn412141   3.226   2.064   5.715 -0.0689  0.1662  0.4180
 1818ntf    fn412142   3.420   2.009   5.782 -0.6364  0.0685  0.1842
 1818ntf    fn412143   3.398   2.135   5.613 -0.1376 -0.4623 -0.5249
 1818ntf    on512144   3.244   1.906   5.480  0.2552  0.4709 -0.5847
 1818ntf    on512145   3.482   1.873   5.527  0.1251  0.4380  0.1598
 1818ntf    on512146   3.323   1.563   5.558 -0.2115 -0.2538  0.3451
 1818ntf    on512147   3.196   1.574   5.775  0.3310  0.1648  0.3250
 1818ntf    fn412148   3.481   1.457   5.784  0.2011 -0.1983  0.0532
 1818ntf    fn412149   3.556   1.649   5.751  0.1026  0.1150 -0.2136
 1818ntf    fn412150   3.422   1.609   5.914 -0.3696  0.1765 -0.1570
 1819ntf    cn112151   5.226   1.107   3.342  0.0169 -0.4625  0.3795
 1819ntf    sn212152   5.151   1.156   3.501  0.0624 -0.0829  0.2844
 1819ntf    nn312153   5.184   1.310   3.499  0.3377 -0.1421  0.1965
 1819ntf    sn212154   5.200   1.405   3.623  0.2245  0.3593 -0.1747
 1819ntf    cn112155   5.117   1.553   3.558 -0.4747 -0.1891 -0.5377
 1819ntf    fn412156   5.164   1.141   3.230 -0.1638 -0.2462  0.5419
 1819ntf    fn412157   5.345   1.163   3.332 -0.2648  0.0910  0.0625
 1819ntf    fn412158   5.247   0.976   3.341 -0.1359 -0.4853 -0.1988
 1819ntf    on512159   5.012   1.134   3.474  0.1131  0.5115 -0.4970
 1819ntf    on512160   5.224   1.083   3.602  0.1561  0.2897  0.4900
 1819ntf    on512161   5.335   1.445   3.655  0.2340  0.1730  0.0194
 1819ntf    on512162   5.121   1.371   3.738  0.6707 -0.8861 -0.2239
 1819ntf    fn412163   5.095   1.638   3.657  1.0845 -0.4690  0.0807
 1819ntf    fn412164   5.178   1.621   3.463 -0.4735  0.5159 -0.0405
 1819ntf    fn412165   4.999   1.524   3.504 -0.8535  0.4442 -0.0659
 1820ntf    cn112166   1.197   4.789   1.476  0.2169  0.2362 -0.2832
 1820ntf    sn212167   1.184   4.711   1.640  0.4847  0.1436 -0.3069
 1820ntf    nn312168   1.327   4.646   1.650  0.1578 -0.5749 -0.2572
 1820ntf    sn212169   1.409   4.606   1.778  0.0793 -0.3239 -0.1281
 1820ntf    cn112170   1.504   4.472   1.701 -0.0149 -0.2485 -0.3804
 1820ntf    fn412171   1.083   4.851   1.449 -0.0664 -0.3144 -0.3586
 1820ntf    fn412172   1.300   4.870   1.462  0.6475 -0.3582 -0.5659
 1820ntf    fn412173   1.210   4.693   1.386  0.1932  0.1565 -0.2022
 1820ntf    on512174   1.162   4.825   1.726 -0.1464 -0.3892  0.2477
 1820ntf    on512175   1.071   4.624   1.623  0.0485  0.7142 -0.3614
 1820ntf    on512176   1.334   4.543   1.883 -0.0654 -0.2960 -0.2132
 1820ntf    on512177   1.513   4.700   1.813  0.1889 -0.4127 -0.2132
 1820ntf    fn412178   1.581   4.409   1.789  0.1484  0.5043  0.0207
 1820ntf    fn412179   1.424   4.372   1.668 -0.4923  0.0235 -0.0559
 1820ntf    fn412180   1.576   4.517   1.600  1.2901  0.4862  0.8362
 1821ntf    cn112181   4.232   1.203   0.788  0.4715  0.2234 -0.5081
 1821ntf    sn212182   4.244   1.272   0.956 -0.1571 -0.1459 -0.3064
 1821ntf    nn312183   4.393   1.241   0.993 -0.0948 -0.1795 -0.5835
 1821ntf    sn212184   4.463   1.106   1.033 -0.0391 -0.0477 -0.2361
 1821ntf    cn112185   4.469   1.120   1.214 -0.1576 -0.1266 -0.2264
 1821ntf    fn412186   4.343   1.174   0.722  0.4886  0.3733 -0.5453
 1821ntf    fn412187   4.158   1.093   0.794 -0.1672  0.6533 -0.3986
 1821ntf    fn412188   4.164   1.289   0.715 -0.1324  0.1147 -0.0841
 1821ntf    on512189   4.217   1.413   0.943 -0.6820 -0.1907  0.2803
 1821ntf    on512190   4.149   1.209   1.044  0.0215  0.3422  0.2438
 1821ntf    on512191   4.603   1.084   1.004 -0.0152  0.0315 -0.1815
 1821ntf    on512192   4.385   0.989   1.003 -0.2404  0.0066  0.0718
 1821ntf    fn412193   4.585   1.157   1.266 -0.3984  0.3369 -0.0134
 1821ntf    fn412194   4.378   1.207   1.253 -0.2845 -0.2671 -0.2087
 1821ntf    fn412195   4.429   1.010   1.276  0.1211 -0.1135 -0.0214
 1822ntf    cn112196   2.852   2.673   3.630  0.4996  0.0274 -0.2030
 1822ntf    sn212197   2.928   2.623   3.787  0.2131 -0.4985 -0.2298
 1822ntf    nn312198   3.031   2.737   3.817 -0.3350 -0.0684  0.0235
 1822ntf    sn212199   3.179   2.736   3.765 -0.2931 -0.4366  0.1498
 1822ntf    cn112200   3.247   2.593   3.855  0.2091 -0.2142  0.1324
 1822ntf    fn412201   2.747   2.603   3.588  0.5370 -0.1358 -0.0250
 1822ntf    fn412202   2.810   2.798   3.636 -0.1007 -0.1795 -0.0220
 1822ntf    fn412203   2.935   2.668   3.527  0.6785  0.3761 -0.0762
 1822ntf    on512204   2.814   2.611   3.873  0.0131  0.2982 -0.3795
 1822ntf    on512205   2.992   2.498   3.751 -0.2609 -0.7472 -0.2200
 1822ntf    on512206   3.251   2.849   3.819  0.5150 -0.6498 -0.4572
 1822ntf    on512207   3.197   2.723   3.623  0.6978  1.2470  0.0912
 1822ntf    fn412208   3.375   2.607   3.882  0.2670  0.1894 -0.3415
 1822ntf    fn412209   3.189   2.580   3.973  0.3578 -0.7636  0.1495
 1822ntf    fn412210   3.243   2.479   3.787 -0.8740  0.2353 -0.5942
 1823ntf    cn112211   4.031   1.944   3.691  0.1397  0.0722 -0.0747
 1823ntf    sn212212   3.867   2.010   3.650  0.1171 -0.2126 -0.4418
 1823ntf    nn312213   3.907   2.158   3.614 -0.2405 -0.0156 -0.0405
 1823ntf    sn212214   3.936   2.201   3.466  0.3597 -0.2473  0.0087
 1823ntf    cn112215   3.768   2.241   3.411  0.2819 -0.6238 -0.0363
 1823ntf    fn412216   4.113   1.956   3.588  0.2913  0.0345  0.0395
 1823ntf    fn412217   4.082   2.004   3.798  0.3248  0.1477 -0.2038
 1823ntf    fn412218   4.028   1.814   3.714  0.1526  0.0403 -0.2536
 1823ntf    on512219   3.805   1.930   3.548 -0.4979 -0.0328 -0.2131
 1823ntf    on512220   3.801   2.005   3.778  0.2336  0.4969 -0.3483
 1823ntf    on512221   3.979   2.091   3.383  0.4949  0.1726 -0.4832
 1823ntf    on512222   4.005   2.327   3.455  0.3653 -0.2815 -0.3629
 1823ntf    fn412223   3.684   2.139   3.404 -0.1413 -0.2439 -0.6306
 1823ntf    fn412224   3.724   2.329   3.500  0.6668 -0.2898 -0.1726
 1823ntf    fn412225   3.767   2.291   3.289  0.1240 -0.5352  0.0008
 1824ntf    cn112226   4.460   0.520   3.749 -0.2193  0.0485 -0.5723
 1824ntf    sn212227   4.428   0.698   3.754 -0.0211  0.0712  0.0008
 1824ntf    nn312228   4.332   0.694   3.878  0.3096  0.1428  0.2586
 1824ntf    sn212229   4.179   0.730   3.878  0.2475 -0.1207 -0.1205
 1824ntf    cn112230   4.175   0.899   3.944  0.2709 -0.1610 -0.0149
 1824ntf    fn412231   4.353   0.447   3.722 -0.0036 -0.5217  0.0580
 1824ntf    fn412232   4.549   0.479   3.660  0.1050  0.1260 -0.2855
 1824ntf    fn412233   4.503   0.478   3.867 -0.3034  0.4306 -0.4071
 1824ntf    on512234   4.557   0.756   3.782 -0.1651  0.2564  0.2886
 1824ntf    on512235   4.369   0.724   3.625 -0.5707 -0.0769  0.2183
 1824ntf    on512236   4.125   0.653   3.987 -0.1413  0.2472 -0.0517
 1824ntf    on512237   4.110   0.731   3.752 -0.0399  0.4244  0.0354
 1824ntf    fn412238   4.051   0.945   3.941  0.2999 -0.0723  0.1405
 1824ntf    fn412239   4.237   0.903   4.060  0.0249  0.1977  0.1086
 1824ntf    fn412240   4.250   0.978   3.868  0.0676 -0.0734 -0.1258
 1825ntf    cn112241   3.628   1.599   1.478  0.5055  0.0978 -0.2027
 1825ntf    sn212242   3.718   1.527   1.618 -0.0131  0.1232  0.1474
 1825ntf    nn312243   3.620   1.563   1.735 -0.0839 -0.4352  0.2650
 1825ntf    sn212244   3.631   1.673   1.847  0.1513  0.1111 -0.2849
 1825ntf    cn112245   3.726   1.589   1.977 -0.3600  0.0246  0.0375
 1825ntf    fn412246   3.509   1.542   1.468  0.6106 -0.1185 -0.2078
 1825ntf    fn412247   3.598   1.728   1.488 -0.0680 -0.0355 -0.1575
 1825ntf    fn412248   3.696   1.589   1.365  0.8845  0.4236 -0.0056
 1825ntf    on512249   3.720   1.385   1.593 -1.3192  0.0503  0.3878
 1825ntf    on512250   3.847   1.591   1.609  0.0265  0.0021 -0.1575
 1825ntf    on512251   3.504   1.693   1.913  0.1557  0.0080 -0.2440
 1825ntf    on512252   3.701   1.793   1.812  1.0259 -0.1462  0.5318
 1825ntf    fn412253   3.769   1.664   2.077  0.2236  0.4433 -0.5167
 1825ntf    fn412254   3.660   1.489   2.034 -0.1464 -0.5488 -0.7051
 1825ntf    fn412255   3.835   1.534   1.925 -0.0289  0.1059  0.6291
 1826ntf    cn112256   3.043   0.348   0.609  0.0207  0.2274 -0.2454
 1826ntf    sn212257   2.987   0.497   0.521 -0.0454  0.1446 -0.3441
 1826ntf    nn312258   3.086   0.500   0.399  0.4295 -0.2525  0.0220
 1826ntf    sn212259   3.229   0.562   0.389  0.2036  0.3108  0.2622
 1826ntf    cn112260   3.194   0.733   0.338 -0.1970  0.1081 -0.1410
 1826ntf    fn412261   2.969   0.319   0.714  0.7236 -0.1181  0.1653
 1826ntf    fn412262   3.035   0.239   0.534 -0.5667 -0.0751  0.2471
 1826ntf    fn412263   3.170   0.368   0.639 -0.0466  0.1683  0.0846
 1826ntf    on512264   2.855   0.464   0.474  0.1333 -0.3551 -0.5023
 1826ntf    on512265   3.000   0.605   0.615 -0.1655 -0.1906  0.0639
 1826ntf    on512266   3.313   0.519   0.280 -0.2614  0.1077 -0.0188
 1826ntf    on512267   3.300   0.587   0.512 -0.4984 -0.2148  0.7780
 1826ntf    fn412268   3.306   0.803   0.339  0.0610 -0.2938 -0.6931
 1826ntf    fn412269   3.139   0.741   0.218 -0.4035 -0.0883 -0.0613
 1826ntf    fn412270   3.103   0.796   0.411  0.0851  0.1884  0.1391
 1827ntf    cn112271   5.923   5.781   6.094 -0.2185  0.0404 -0.1536
 1827ntf    sn212272   6.036   5.775   5.952 -0.1898 -0.0213 -0.1287
 1827ntf    nn312273   5.989   5.897   5.866  0.1517 -0.0295 -0.3293
 1827ntf    sn212274   6.047   6.043   5.866  0.0368  0.0164 -0.0350
 1827ntf    cn112275   5.939   6.113   5.738  0.0462  0.1547  0.0324
 1827ntf    fn412276   5.812   5.718   6.060  0.1214 -0.1793 -0.8636
 1827ntf    fn412277   5.974   5.718   6.199 -0.1151  0.4307  0.0343
 1827ntf    fn412278   5.886   5.901   6.135  0.2065  0.2773 -0.4528
 1827ntf    on512279   6.163   5.788   6.018 -0.3426 -0.0261  0.1693
 1827ntf    on512280   5.991   5.645   5.907 -0.4557  0.3377 -0.9152
 1827ntf    on512281   6.178   6.054   5.805  0.1079 -0.1887  0.0780
 1827ntf    on512282   6.006   6.122   5.979 -0.0958  0.2137 -0.2196
 1827ntf    fn412283   5.812   6.101   5.773  0.2119 -0.2249  0.5160
 1827ntf    fn412284   5.961   6.242   5.721  0.1968  0.1085 -0.1277
 1827ntf    fn412285   5.942   6.057   5.618 -0.5374 -0.2839  0.2168
 1828ntf    cn112286   3.961   4.751   3.695 -0.2447  0.4688 -0.0153
 1828ntf    sn212287   4.042   4.909   3.656  0.0453  0.3528  0.1194
 1828ntf    nn312288   3.928   5.008   3.699 -0.4831 -0.0440 -0.3527
 1828ntf    sn212289   3.926   5.100   3.827 -0.3160 -0.2858 -0.1741
 1828ntf    cn112290   3.996   5.249   3.750 -0.2351 -0.2351 -0.0028
 1828ntf    fn412291   4.046   4.655   3.665 -0.3739  0.3553 -0.0169
 1828ntf    fn412292   3.936   4.748   3.825  0.2758  0.3021  0.0836
 1828ntf    fn412293   3.852   4.730   3.623  0.1338  0.2498 -0.5272
 1828ntf    on512294   4.169   4.922   3.724  0.1505 -0.1163  0.0152
 1828ntf    on512295   4.048   4.907   3.512  0.7086  0.1712  0.1462
 1828ntf    on512296   4.013   5.071   3.938 -0.3815 -0.5334 -0.1882
 1828ntf    on512297   3.791   5.141   3.859 -0.2444 -0.1376 -0.0596
 1828ntf    fn412298   3.996   5.356   3.828 -0.4662  0.1981 -0.5853
 1828ntf    fn412299   4.123   5.229   3.717 -0.0846  0.1278  0.3459
 1828ntf    fn412300   3.930   5.278   3.639 -0.3338 -0.2804  0.0445
 1829ntf    cn112301   3.457   3.175   0.775  0.0682  0.0938 -0.1449
 1829ntf    sn212302   3.348   3.318   0.798 -0.0135 -0.0172  0.1660
 1829ntf    nn312303   3.425   3.411   0.697  0.2943  0.0270  0.4397
 1829ntf    sn212304   3.485   3.553   0.724  0.0542  0.2157 -0.0203
 1829ntf    cn112305   3.351   3.664   0.669  0.0669  0.0872 -0.3138
 1829ntf    fn412306   3.582   3.212   0.796  0.3103 -0.5184 -0.4568
 1829ntf    fn412307   3.439   3.073   0.858  0.0731 -0.4312 -0.7774
 1829ntf    fn412308   3.453   3.122   0.654  0.9462 -0.0789 -0.1059
 1829ntf    on512309   3.218   3.272   0.758 -0.0508 -0.4156  0.7453
 1829ntf    on512310   3.376   3.345   0.937  0.4993 -0.0483  0.0722
 1829ntf    on512311   3.597   3.572   0.635  0.2867 -0.1409  0.1965
 1829ntf    on512312   3.502   3.597   0.860  0.4110  0.2550 -0.0781
 1829ntf    fn412313   3.340   3.658   0.537 -0.3147  0.1623 -0.2842
 1829ntf    fn412314   3.240   3.632   0.733  0.6306 -0.3442  0.4645
 1829ntf    fn412315   3.381   3.791   0.691 -0.0958  0.1045 -0.2001
 1830ntf    cn112316   6.443   1.460   1.942 -0.1327 -0.2197 -0.1830
 1830ntf    sn212317   6.481   1.317   2.048 -0.0425  0.0814  0.1899
 1830ntf    nn312318   6.636   1.296   2.028  0.0701  1.2052 -0.1881
 1830ntf    sn212319   6.716   1.220   1.917 -0.0228  0.6568  0.1175
 1830ntf    cn112320   6.796   1.095   2.021 -0.0976  0.2923 -0.2574
 1830ntf    fn412321   6.529   1.461   1.841  0.0128 -0.5772 -0.0659
 1830ntf    fn412322   6.323   1.452   1.888 -0.2000 -0.0941 -0.0544
 1830ntf    fn412323   6.454   1.576   2.004 -0.1515 -0.3416  0.0503
 1830ntf    on512324   6.463   1.373   2.180 -0.7950 -0.4105  0.2973
 1830ntf    on512325   6.400   1.207   2.005 -0.2259  0.4683 -0.4628
 1830ntf    on512326   6.828   1.296   1.867  0.4236 -0.1069 -0.0589
 1830ntf    on512327   6.647   1.138   1.820  0.3556  0.2056  0.2257
 1830ntf    fn412328   6.850   1.166   2.119 -0.5799  0.1564  0.1087
 1830ntf    fn412329   6.722   0.998   2.073  0.2524 -0.0716 -0.4327
 1830ntf    fn412330   6.897   1.034   1.961 -0.1472 -0.2891  0.2379
 1831ntf    cn112331   4.770   0.307   5.202 -0.2705 -0.0552 -0.7056
 1831ntf    sn212332   4.925   0.282   5.292 -0.5269 -0.2831 -0.3263
 1831ntf    nn312333   5.017   0.204   5.192 -0.1987  0.2321 -0.4294
 1831ntf    sn212334   5.128   0.270   5.102  0.1963  0.2332  0.0534
 1831ntf    cn112335   5.269   0.272   5.216 -0.0248  0.6835  0.3222
 1831ntf    fn412336   4.714   0.190   5.175  0.1427 -0.3815 -0.1545
 1831ntf    fn412337   4.694   0.374   5.286  0.4903 -0.6364  0.4720
 1831ntf    fn412338   4.774   0.383   5.094 -0.1483  0.2369 -0.4937
 1831ntf    on512339   4.968   0.418   5.311  0.0785 -0.5404  0.1948
 1831ntf    on512340   4.878   0.213   5.410 -0.4751 -0.3781 -0.3610
 1831ntf    on512341   5.102   0.403   5.052 -0.1393  0.1954  0.1278
 1831ntf    on512342   5.160   0.174   4.999  0.2913  0.3307 -0.0077
 1831ntf    fn412343   5.373   0.343   5.176  0.0228  0.0966 -0.6322
 1831ntf    fn412344   5.236   0.310   5.339 -0.5450  0.8982  0.1161
 1831ntf    fn412345   5.318   0.149   5.229 -0.0267  0.6181 -0.2599
 1832ntf    cn112346   6.070   5.417   5.257 -0.2341 -0.3032 -0.0339
 1832ntf    sn212347   6.141   5.435   5.423 -0.2900  0.0507 -0.0481
 1832ntf    nn312348   6.261   5.532   5.396 -0.2572  0.0579  0.1247
 1832ntf    sn212349   6.403   5.512   5.460 -0.2119 -0.1044 -0.0245
 1832ntf    cn112350   6.359   5.550   5.633  0.2597 -0.2591  0.1305
 1832ntf    fn412351   5.960   5.343   5.249 -0.2366 -0.2134 -0.9577
 1832ntf    fn412352   6.031   5.526   5.193  0.1324 -0.4249 -0.4732
 1832ntf    fn412353   6.150   5.355   5.170  0.1108  0.2646 -0.1238
 1832ntf    on512354   6.036   5.504   5.494 -0.6170 -0.3629 -0.1223
 1832ntf    on512355   6.170   5.304   5.476 -0.4425  0.1815  0.3689
 1832ntf    on512356   6.480   5.630   5.430  0.3776 -0.5728 -0.3564
 1832ntf    on512357   6.465   5.382   5.467 -0.0953 -0.0953 -0.8695
 1832ntf    fn412358   6.463   5.543   5.715  0.1937 -0.1402  0.2242
 1832ntf    fn412359   6.308   5.671   5.644 -0.3874 -0.5099 -0.0266
 1832ntf    fn412360   6.268   5.470   5.686  0.1776 -0.3031 -0.0772
 1833ntf    cn112361   2.307   1.754   4.627 -0.0395 -0.1621 -0.1357
 1833ntf    sn212362   2.201   1.717   4.770 -0.1328  0.2229 -0.1025
 1833ntf    nn312363   2.292   1.628   4.862 -0.1182  0.1013 -0.2343
 1833ntf    sn212364   2.398   1.677   4.968 -0.4631  0.0908  0.1158
 1833ntf    cn112365   2.550   1.603   4.901 -0.6215  0.2237 -0.3970
 1833ntf    fn412366   2.232   1.787   4.523  0.0914  0.6722  0.0315
 1833ntf    fn412367   2.383   1.859   4.655  0.0010 -0.1933 -0.1286
 1833ntf    fn412368   2.401   1.668   4.593  0.5195  0.2072  0.4608
 1833ntf    on512369   2.163   1.845   4.824  0.4362  0.5780 -0.5319
 1833ntf    on512370   2.095   1.645   4.703  0.0648 -0.1241 -0.0466
 1833ntf    on512371   2.380   1.618   5.098  0.5126 -0.3115  0.0750
 1833ntf    on512372   2.435   1.816   4.960  0.2157 -0.0625  0.5430
 1833ntf    fn412373   2.582   1.649   4.781  0.0080  0.1471 -0.2613
 1833ntf    fn412374   2.651   1.624   4.984 -0.6792 -0.1399 -0.2313
 1833ntf    fn412375   2.545   1.471   4.896  0.3935  0.1550  0.1057
 1834ntf    cn112376   4.248   6.170   3.033 -0.5235  0.0924  0.1379
 1834ntf    sn212377   4.403   6.213   3.118 -0.0911 -0.3351 -0.4248
 1834ntf    nn312378   4.390   6.109   3.235 -0.1622  0.3187  0.1537
 1834ntf    sn212379   4.476   5.980   3.258 -0.2509  0.2596  0.1541
 1834ntf    cn112380   4.637   6.034   3.321 -0.0332  0.0320 -0.2035
 1834ntf    fn412381   4.143   6.168   3.113 -0.7789 -0.0216 -0.1993
 1834ntf    fn412382   4.222   6.227   2.916 -0.0314 -0.4109 -0.2217
 1834ntf    fn412383   4.265   6.044   2.996 -0.7304 -0.0092  0.3891
 1834ntf    on512384   4.511   6.199   3.024  0.2144 -0.2264 -0.0895
 1834ntf    on512385   4.360   6.344   3.160 -0.1172 -0.4885  0.0289
 1834ntf    on512386   4.509   5.912   3.135  0.5082  0.2837  0.3384
 1834ntf    on512387   4.426   5.897   3.365  0.3274 -0.1904  0.0816
 1834ntf    fn412388   4.733   5.973   3.253  0.3038  0.3382 -0.0052
 1834ntf    fn412389   4.661   6.162   3.302  0.9665 -0.2025 -0.6212
 1834ntf    fn412390   4.657   6.015   3.451 -0.7689 -0.1166 -0.1112
 1835ntf    cn112391   2.609   5.803   6.163  0.1109 -0.0603  0.0072
 1835ntf    sn212392   2.611   5.765   5.985 -0.0888 -0.0171 -0.0039
 1835ntf    nn312393   2.490   5.856   5.943 -0.0777 -0.0445 -0.0969
 1835ntf    sn212394   2.383   5.843   5.829  0.0810  0.2002 -0.2752
 1835ntf    cn112395   2.433   5.979   5.720 -0.1400  0.2770 -0.2812
 1835ntf    fn412396   2.489   5.788   6.216  0.3871 -0.1353  0.6218
 1835ntf    fn412397   2.694   5.725   6.227 -0.2781 -0.3522  0.1681
 1835ntf    fn412398   2.648   5.927   6.189 -0.5710  0.1954 -0.1726
 1835ntf    on512399   2.745   5.801   5.949 -0.1464 -0.3266 -0.5383
 1835ntf    on512400   2.581   5.625   5.997  0.3207 -0.1500 -0.5030
 1835ntf    on512401   2.251   5.886   5.870 -0.0055 -0.2346 -0.0898
 1835ntf    on512402   2.401   5.722   5.754 -0.2174 -0.1167  0.1567
 1835ntf    fn412403   2.558   5.972   5.677 -0.1582  0.3920 -0.3564
 1835ntf    fn412404   2.352   5.981   5.615 -0.2567 -0.4169 -0.2065
 1835ntf    fn412405   2.424   6.095   5.782 -0.3306  0.1200 -0.0172
 1836ntf    cn112406   1.159   1.928   0.480 -0.0008  0.2520 -0.2553
 1836ntf    sn212407   1.117   2.087   0.559  0.0979  0.0906  0.1251
 1836ntf    nn312408   1.219   2.113   0.675  0.0458 -0.3898  0.2812
 1836ntf    sn212409   1.280   2.001   0.767  0.4040 -0.3367  0.1130
 1836ntf    cn112410   1.338   2.107   0.902  0.1117  0.2490 -0.2162
 1836ntf    fn412411   1.073   1.891   0.387 -0.2347 -0.5332  0.2667
 1836ntf    fn412412   1.279   1.934   0.425  0.1996  0.0743  0.1579
 1836ntf    fn412413   1.169   1.832   0.570  0.2272  0.4945 -0.0185
 1836ntf    on512414   1.128   2.183   0.451 -0.0681 -0.7460 -0.6465
 1836ntf    on512415   0.983   2.072   0.610  0.1506 -0.7823  0.0282
 1836ntf    on512416   1.398   1.934   0.721  0.2529 -0.1791 -0.5208
 1836ntf    on512417   1.166   1.942   0.833  0.0079  0.2873  0.0057
 1836ntf    fn412418   1.395   2.037   0.999  0.0569  0.5413  0.0292
 1836ntf    fn412419   1.422   2.205   0.870  0.3579  0.0101 -0.3063
 1836ntf    fn412420   1.237   2.166   0.964  0.2123  0.0837  0.1044
 1837ntf    cn112421   6.353   0.706   5.015 -0.4584 -0.0023  0.0317
 1837ntf    sn212422   6.356   0.760   5.189 -0.1301  0.3342 -0.0764
 1837ntf    nn312423   6.310   0.623   5.251  0.3079  0.1592 -0.1365
 1837ntf    sn212424   6.342   0.563   5.393  0.3377 -0.3642 -0.3629
 1837ntf    cn112425   6.475   0.443   5.360  0.1681 -0.4903 -0.6021
 1837ntf    fn412426   6.439   0.607   4.995 -0.1648  0.1025  0.7338
 1837ntf    fn412427   6.232   0.664   4.982 -0.1737 -0.1330 -0.8914
 1837ntf    fn412428   6.376   0.807   4.932 -0.3787 -0.4497 -0.4954
 1837ntf    on512429   6.491   0.798   5.223 -0.0762  0.2218 -0.1598
 1837ntf    on512430   6.258   0.865   5.190  0.0013  0.4557 -0.0376
 1837ntf    on512431   6.240   0.475   5.445 -0.0180  0.4458  0.3297
 1837ntf    on512432   6.399   0.652   5.490  0.2915 -0.2593 -0.4308
 1837ntf    fn412433   6.552   0.489   5.263  0.3398 -0.1563 -0.3119
 1837ntf    fn412434   6.556   0.416   5.462 -0.0685  0.0396 -0.2637
 1837ntf    fn412435   6.437   0.327   5.311 -0.0816 -0.5379 -0.3043
 1838ntf    cn112436   2.164   5.150   6.017 -0.2492 -0.3156  0.0086
 1838ntf    sn212437   2.106   5.158   5.845 -0.1570 -0.0932 -0.0122
 1838ntf    nn312438   1.956   5.194   5.874  0.0042  0.4590  0.1400
 1838ntf    sn212439   1.828   5.106   5.895  0.2391  0.0350 -0.2012
 1838ntf    cn112440   1.698   5.222   5.842 -0.0481 -0.3828 -0.4243
 1838ntf    fn412441   2.096   5.065   6.092 -0.2657  0.1067  0.4771
 1838ntf    fn412442   2.290   5.108   6.026 -0.1499  0.0094  0.1497
 1838ntf    fn412443   2.164   5.262   6.087  0.7424 -0.1558 -0.2350
 1838ntf    on512444   2.178   5.268   5.786 -0.2588 -0.3361 -0.5914
 1838ntf    on512445   2.136   5.030   5.786  0.7004  0.2763 -0.3891
 1838ntf    on512446   1.791   5.073   6.030  0.5274 -0.2924 -0.2019
 1838ntf    on512447   1.813   4.995   5.804  0.5007  0.4123 -0.7091
 1838ntf    fn412448   1.728   5.347   5.875  0.3012 -0.5157 -0.2338
 1838ntf    fn412449   1.693   5.232   5.710  0.0003 -0.3714 -0.4258
 1838ntf    fn412450   1.577   5.196   5.889  0.3264 -0.5739  0.4496
 1839ntf    cn112451   1.847   4.100   2.058  0.6244  0.1190 -0.0563
 1839ntf    sn212452   1.950   4.200   2.169 -0.1712  0.2948  0.5309
 1839ntf    nn312453   2.061   4.250   2.070 -0.6210 -0.2542 -0.2651
 1839ntf    sn212454   2.195   4.174   2.041 -0.2752  0.2142  0.0770
 1839ntf    cn112455   2.302   4.250   2.166  0.0073 -0.4878  0.2670
 1839ntf    fn412456   1.795   4.175   1.962  0.2472 -0.0477  0.0141
 1839ntf    fn412457   1.916   4.000   2.005 -0.1604 -0.4225 -0.0663
 1839ntf    fn412458   1.745   4.042   2.120  0.6444 -0.0883 -0.2166
 1839ntf    on512459   1.865   4.311   2.205 -0.3648  0.3188  0.0098
 1839ntf    on512460   1.994   4.109   2.272  0.7665  0.5128  0.3328
 1839ntf    on512461   2.258   4.210   1.916  0.2882  0.4158  0.4140
 1839ntf    on512462   2.205   4.033   2.072 -0.1354  0.1808 -0.1151
 1839ntf    fn412463   2.283   4.381   2.172  0.2239 -0.4450  0.0391
 1839ntf    fn412464   2.284   4.202   2.288 -0.4051 -0.3117  0.2743
 1839ntf    fn412465   2.432   4.238   2.143 -0.0055  0.4537 -0.3623
 1840ntf    cn112466   4.823   5.154   3.004 -0.0779 -0.2944 -0.1115
 1840ntf    sn212467   4.849   5.332   3.027  0.0097 -0.3623  0.3166
 1840ntf    nn312468   4.715   5.367   3.103 -0.2093  0.2114 -0.3250
 1840ntf    sn212469   4.692   5.367   3.258 -0.1472 -0.1644 -0.3141
 1840ntf    cn112470   4.717   5.545   3.286 -0.1540 -0.2200  0.0490
 1840ntf    fn412471   4.926   5.098   2.943  0.2853  0.2436  0.0047
 1840ntf    fn412472   4.812   5.085   3.116  0.0527  0.0627  0.1202
 1840ntf    fn412473   4.712   5.129   2.936 -0.1225  0.0580 -0.1650
 1840ntf    on512474   4.964   5.357   3.110  0.0868 -0.2245  0.1673
 1840ntf    on512475   4.853   5.384   2.893 -0.5840 -0.0510  0.4115
 1840ntf    on512476   4.793   5.308   3.342 -0.1541 -0.2143 -0.3411
 1840ntf    on512477   4.554   5.345   3.293 -0.0494  0.0044  0.1901
 1840ntf    fn412478   4.723   5.580   3.414 -0.0862  0.6896 -0.1942
 1840ntf    fn412479   4.832   5.580   3.231 -0.1665 -0.2128  0.0274
 1840ntf    fn412480   4.616   5.612   3.232  0.0694  0.0460 -0.0400
 1841ntf    cn112481   2.723   2.612   2.151  0.1669  0.1656 -0.1773
 1841ntf    sn212482   2.852   2.513   2.070  0.1889 -0.1106  0.1895
 1841ntf    nn312483   2.982   2.541   2.154  0.0486 -0.0325  0.3811
 1841ntf    sn212484   3.052   2.675   2.193 -0.0381  0.0596  0.2196
 1841ntf    cn112485   3.224   2.620   2.212 -0.0570 -0.1219 -0.1249
 1841ntf    fn412486   2.602   2.561   2.139  0.1990  0.0544 -0.0363
 1841ntf    fn412487   2.744   2.612   2.282  0.4540 -0.1728 -0.2234
 1841ntf    fn412488   2.718   2.737   2.109  0.8777  0.4058  0.4188
 1841ntf    on512489   2.814   2.375   2.084 -0.0385  0.0166  0.8587
 1841ntf    on512490   2.852   2.570   1.938 -0.3631 -0.0628  0.2085
 1841ntf    on512491   3.024   2.727   2.325 -0.0849  0.3524  0.0969
 1841ntf    on512492   3.062   2.775   2.089 -0.5552 -0.4727 -0.3457
 1841ntf    fn412493   3.277   2.566   2.104  0.0328  0.0145 -0.1481
 1841ntf    fn412494   3.298   2.722   2.252  0.5515 -0.7485  0.3785
 1841ntf    fn412495   3.230   2.522   2.301  0.0768  0.2518  0.2848
 1842ntf    cn112496   1.702   5.080   4.293  0.0591 -0.4775  0.4624
 1842ntf    sn212497   1.769   4.913   4.316 -0.0220 -0.5692  0.0537
 1842ntf    nn312498   1.910   4.923   4.247 -0.4748  0.4619 -0.7295
 1842ntf    sn212499   1.998   4.811   4.181 -0.0678  0.3655 -0.0343
 1842ntf    cn112500   1.925   4.811   4.014 -0.3216 -0.1558  0.0756
 1842ntf    fn412501   1.682   5.113   4.166 -0.1148 -0.0419  0.6018
 1842ntf    fn412502   1.586   5.108   4.350  0.0716  0.4707  0.0356
 1842ntf    fn412503   1.783   5.171   4.344 -0.0717 -0.0121 -0.1456
 1842ntf    on512504   1.776   4.912   4.460 -0.4096 -0.3703  0.0741
 1842ntf    on512505   1.672   4.828   4.252 -0.4413 -0.4649  0.5475
 1842ntf    on512506   1.984   4.678   4.235  0.2778  0.2808 -0.1522
 1842ntf    on512507   2.135   4.851   4.163 -0.2208  0.8040 -0.2446
 1842ntf    fn412508   1.795   4.789   4.015 -0.2109 -1.0021 -1.2446
 1842ntf    fn412509   1.941   4.931   3.961 -0.1767  0.1923  0.8904
 1842ntf    fn412510   1.981   4.715   3.941  0.2949  0.6212 -0.4904
 1843ntf    cn112511   0.550   3.112   5.342  0.1329  0.3732  0.1728
 1843ntf    sn212512   0.505   3.002   5.205  0.0150  0.2285  0.3272
 1843ntf    nn312513   0.369   3.061   5.155  0.2384  0.0596 -0.4947
 1843ntf    sn212514   0.228   3.043   5.223  0.4885  0.4333  0.1345
 1843ntf    cn112515   0.158   2.897   5.139  0.2288  0.4675  0.2919
 1843ntf    fn412516   0.524   3.239   5.316 -0.5813  0.2490  0.2462
 1843ntf    fn412517   0.490   3.089   5.458 -0.0362 -0.3145 -0.0465
 1843ntf    fn412518   0.677   3.107   5.378  0.2748  0.6736 -0.2780
 1843ntf    on512519   0.608   3.021   5.106 -0.5738 -0.1903 -0.3800
 1843ntf    on512520   0.499   2.868   5.258 -0.0654 -0.0739 -0.4429
 1843ntf    on512521   0.139   3.145   5.175  0.0977  0.0790  0.1016
 1843ntf    on512522   0.237   3.015   5.364  0.0798  0.9176  0.2590
 1843ntf    fn412523   0.036   2.869   5.181  0.1864  0.2066 -0.0088
 1843ntf    fn412524   0.151   2.912   5.008 -0.1334  0.3802  0.3005
 1843ntf    fn412525   0.224   2.786   5.165  0.1641  0.2835 -0.3103
 1844ntf    cn112526   4.645   3.209   4.913 -0.2119  0.0500 -0.1883
 1844ntf    sn212527   4.699   3.159   5.079 -0.1045 -0.3353 -0.3389
 1844ntf    nn312528   4.622   3.262   5.169  0.2023 -0.2151 -0.2128
 1844ntf    sn212529   4.642   3.304   5.319 -0.3487  0.1998 -0.2531
 1844ntf    cn112530   4.705   3.474   5.303 -0.2816  0.1771 -0.2320
 1844ntf    fn412531   4.712   3.139   4.823  0.6651 -0.3220  0.7307
 1844ntf    fn412532   4.517   3.201   4.881 -0.1577  0.0426 -0.4069
 1844ntf    fn412533   4.676   3.334   4.883  0.6366  0.0005  0.4247
 1844ntf    on512534   4.647   3.025   5.096 -0.0887 -0.3063 -0.0465
 1844ntf    on512535   4.842   3.177   5.081 -0.1856  0.3045 -0.3449
 1844ntf    on512536   4.757   3.241   5.379 -0.1557  0.4609 -0.3469
 1844ntf    on512537   4.515   3.321   5.386  0.1978 -0.2015  0.9084
 1844ntf    fn412538   4.621   3.556   5.241 -0.2368  0.2760 -0.1627
 1844ntf    fn412539   4.727   3.531   5.420  0.1530  0.7106 -0.5716
 1844ntf    fn412540   4.813   3.483   5.228 -0.3926  0.1630 -0.3950
 1845ntf    cn112541   5.287   3.457   2.673 -0.1130 -0.1742 -0.0926
 1845ntf    sn212542   5.250   3.371   2.829 -0.0310 -0.1047 -0.0350
 1845ntf    nn312543   5.233   3.227   2.769  0.0971  0.0164 -0.3620
 1845ntf    sn212544   5.096   3.158   2.738 -0.2524  0.6734 -0.2918
 1845ntf    cn112545   5.053   3.091   2.901  0.0558  0.3493 -0.3442
 1845ntf    fn412546   5.211   3.424   2.570 -0.3115  0.7755 -0.2548
 1845ntf    fn412547   5.276   3.586   2.699 -0.3362 -0.1748 -0.1844
 1845ntf    fn412548   5.412   3.434   2.636  0.0981  0.1612  0.3919
 1845ntf    on512549   5.370   3.386   2.909 -0.0652  0.1864 -0.0375
 1845ntf    on512550   5.132   3.425   2.892  0.2871  0.5757 -0.0064
 1845ntf    on512551   5.113   3.043   2.653 -0.0625  0.4138  0.0951
 1845ntf    on512552   4.991   3.253   2.708 -0.2594  0.6576 -0.3165
 1845ntf    fn412553   5.135   2.993   2.935  0.1130  0.2515 -0.7610
 1845ntf    fn412554   5.048   3.174   3.004 -0.0531 -0.2800  0.1631
 1845ntf    fn412555   4.935   3.032   2.896  0.2904 -0.1757  0.1797
 1846ntf    cn112556   5.392   0.577   6.809  0.0720 -0.4244 -0.3548
 1846ntf    sn212557   5.257   0.693   6.775  0.0205 -0.4088 -0.0979
 1846ntf    nn312558   5.197   0.629   6.645  0.2116  0.1083 -0.4461
 1846ntf    sn212559   5.065   0.547   6.621  0.1941  0.0264 -0.0826
 1846ntf    cn112560   4.962   0.685   6.561  0.3296  0.1780  0.0322
 1846ntf    fn412561   5.469   0.550   6.705  0.2559 -0.9813 -0.0775
 1846ntf    fn412562   5.466   0.616   6.911  0.1510 -0.1807 -0.5069
 1846ntf    fn412563   5.344   0.460   6.848  0.7041 -0.4360  0.4123
 1846ntf    on512564   5.169   0.697   6.890 -0.0066  0.3595 -0.1387
 1846ntf    on512565   5.323   0.817   6.740 -0.4740 -0.1284 -0.0547
 1846ntf    on512566   4.992   0.497   6.735  0.6761  0.0809  0.2513
 1846ntf    on512567   5.065   0.457   6.509 -0.1402 -0.2374  0.1256
 1846ntf    fn412568   4.928   0.774   6.652  0.4487  0.0595  0.1946
 1846ntf    fn412569   5.015   0.761   6.467  0.7264  0.0876  0.1773
 1846ntf    fn412570   4.851   0.635   6.509  0.2295  0.1491  0.2726
 1847ntf    cn112571   5.962   2.436   2.467 -0.0548  0.1221  0.1965
 1847ntf    sn212572   5.840   2.563   2.422 -0.0380  0.1148  0.1314
 1847ntf    nn312573   5.721   2.493   2.497  0.0067 -0.3566 -0.2312
 1847ntf    sn212574   5.565   2.497   2.483  0.0065  0.0146 -0.1293
 1847ntf    cn112575   5.513   2.540   2.652  0.5026 -0.2371  0.0880
 1847ntf    fn412576   5.991   2.429   2.595 -0.3895 -0.4553  0.2477
 1847ntf    fn412577   5.917   2.315   2.437 -0.0338  0.1116  0.2072
 1847ntf    fn412578   6.076   2.451   2.402 -0.0573 -0.0136  0.1600
 1847ntf    on512579   5.898   2.678   2.488  0.5963  0.0840 -0.3593
 1847ntf    on512580   5.840   2.550   2.278  0.5474  0.1780  0.1247
 1847ntf    on512581   5.509   2.368   2.453 -0.6164  0.2618 -0.0448
 1847ntf    on512582   5.515   2.612   2.412 -0.4767 -0.2449 -0.2140
 1847ntf    fn412583   5.382   2.536   2.669  0.4836 -0.2473 -0.0613
 1847ntf    fn412584   5.579   2.464   2.738  0.0607 -0.2671  0.4009
 1847ntf    fn412585   5.546   2.664   2.682  0.3700 -0.0459 -0.5304
 1848ntf    cn112586   6.271   3.418   5.423  0.0962  0.0699 -0.0551
 1848ntf    sn212587   6.100   3.457   5.471  0.2000 -0.1426  0.4991
 1848ntf    nn312588   6.131   3.543   5.599 -0.1367 -0.1722  0.6009
 1848ntf    sn212589   6.141   3.698   5.621 -0.1381 -0.0292 -0.3558
 1848ntf    cn112590   6.193   3.674   5.794  0.0637  0.1700 -0.3890
 1848ntf    fn412591   6.338   3.528   5.392 -0.4567  0.2632 -0.5934
 1848ntf    fn412592   6.339   3.340   5.505  0.0257 -0.0255 -0.0874
 1848ntf    fn412593   6.275   3.346   5.312  0.1662  0.0057 -0.0111
 1848ntf    on512594   6.042   3.540   5.367  0.0882 -0.2191  0.5006
 1848ntf    on512595   6.033   3.332   5.494 -0.1976 -0.1739 -0.7665
 1848ntf    on512596   6.013   3.763   5.632 -0.1373 -0.1123  0.1983
 1848ntf    on512597   6.252   3.766   5.559 -0.3121  0.0469 -0.5864
 1848ntf    fn412598   6.200   3.791   5.856  0.1833  0.1975 -0.4541
 1848ntf    fn412599   6.110   3.599   5.864  0.3498 -0.3058 -0.5548
 1848ntf    fn412600   6.317   3.629   5.807  0.1143  0.3169 -0.3622
 1849ntf    cn112601   3.788   3.849   1.236  0.1559 -0.0954 -0.2246
 1849ntf    sn212602   3.651   3.841   1.355 -0.0974  0.3374 -0.4854
 1849ntf    nn312603   3.707   3.932   1.471  0.7161 -0.4174 -0.2728
 1849ntf    sn212604   3.730   3.907   1.624  0.2659 -0.3556 -0.1925
 1849ntf    cn112605   3.906   3.860   1.622  0.2797 -0.2906 -0.4580
 1849ntf    fn412606   3.894   3.782   1.281  0.2112 -0.0355 -0.2655
 1849ntf    fn412607   3.756   3.814   1.113  0.0846 -0.0346 -0.2228
 1849ntf    fn412608   3.821   3.977   1.225  0.0028 -0.0408 -0.0531
 1849ntf    on512609   3.536   3.889   1.284 -0.2438 -0.0729 -0.5259
 1849ntf    on512610   3.643   3.701   1.386 -0.0722  0.4439  0.0156
 1849ntf    on512611   3.662   3.791   1.677 -0.3408 -0.0564 -0.3074
 1849ntf    on512612   3.732   4.025   1.706 -0.2963 -0.5444  0.1036
 1849ntf    fn412613   3.919   3.738   1.572 -0.3851 -0.6171  0.1493
 1849ntf    fn412614   3.983   3.940   1.550  0.1520  0.2036 -0.0449
 1849ntf    fn412615   3.948   3.860   1.747 -0.1516 -0.0684 -0.3102
 1850ntf    cn112616   0.525   2.584   3.677 -0.1534  0.3608 -0.1007
 1850ntf    sn212617   0.485   2.472   3.815  0.1001  0.1610 -0.1883
 1850ntf    nn312618   0.584   2.353   3.789 -0.0403 -0.0588  0.2700
 1850ntf    sn212619   0.541   2.205   3.759 -0.2737  0.1040 -0.1963
 1850ntf    cn112620   0.678   2.115   3.837 -0.4899  0.0388  0.1073
 1850ntf    fn412621   0.638   2.645   3.707  0.1083 -0.3256  0.3475
 1850ntf    fn412622   0.535   2.533   3.556  0.2513 -0.3612  0.2275
 1850ntf    fn412623   0.445   2.689   3.671  0.0619  0.5468  0.2461
 1850ntf    on512624   0.530   2.547   3.930 -0.5355 -0.1080  0.2455
 1850ntf    on512625   0.342   2.456   3.803  0.1302 -0.0813 -0.2152
 1850ntf    on512626   0.550   2.163   3.621  0.2325 -0.3287 -0.0363
 1850ntf    on512627   0.427   2.163   3.835 -0.1953  0.2965  0.0288
 1850ntf    fn412628   0.640   1.996   3.880 -0.2161 -0.0711  0.0512
 1850ntf    fn412629   0.774   2.104   3.746 -0.6278  0.2107 -0.0590
 1850ntf    fn412630   0.726   2.180   3.942  0.2394 -0.4890  0.1060
 1851ntf    cn112631   1.794   4.141   4.212 -0.0091  0.0686 -0.0003
 1851ntf    sn212632   1.625   4.143   4.281  0.0155 -0.1633  0.0668
 1851ntf    nn312633   1.575   3.998   4.248  0.1402 -0.2659  0.3269
 1851ntf    sn212634   1.436   3.944   4.296  0.0929 -0.2416  0.2159
 1851ntf    cn112635   1.348   3.973   4.139  0.3056  0.0337  0.1486
 1851ntf    fn412636   1.855   4.029   4.246 -0.5041 -0.3660 -0.5078
 1851ntf    fn412637   1.792   4.139   4.079  0.0818 -0.2138  0.0033
 1851ntf    fn412638   1.869   4.243   4.251 -0.0550  0.1001  0.0063
 1851ntf    on512639   1.639   4.162   4.423  0.5651 -0.0715  0.0030
 1851ntf    on512640   1.558   4.247   4.206  0.5121 -0.1356 -0.3513
 1851ntf    on512641   1.358   4.020   4.390  0.4856  0.2418  0.1526
 1851ntf    on512642   1.445   3.802   4.322  0.0266 -0.1482  0.7616
 1851ntf    fn412643   1.365   4.100   4.104 -0.2165  0.0230 -0.1498
 1851ntf    fn412644   1.397   3.896   4.044  0.2276  0.0589  0.0880
 1851ntf    fn412645   1.217   3.957   4.151  0.2274  0.2253 -0.4296
 1852ntf    cn112646   0.508   2.354   4.687 -0.4368  0.1687  0.2404
 1852ntf    sn212647   0.492   2.173   4.684 -0.2870  0.1644 -0.3215
 1852ntf    nn312648   0.631   2.148   4.615 -0.2851 -0.2977 -0.1554
 1852ntf    sn212649   0.684   2.017   4.547  0.3084  0.1005 -0.4636
 1852ntf    cn112650   0.760   2.068   4.389 -0.1177  0.7895 -0.4479
 1852ntf    fn412651   0.608   2.392   4.764 -0.0543 -0.3466  0.0014
 1852ntf    fn412652   0.530   2.408   4.569 -0.0686  0.0567  0.2580
 1852ntf    fn412653   0.402   2.417   4.734 -0.3200 -0.0812  0.8539
 1852ntf    on512654   0.486   2.141   4.825 -0.1569 -0.3033 -0.4184
 1852ntf    on512655   0.381   2.144   4.597 -0.1026 -0.6920 -0.2859
 1852ntf    on512656   0.580   1.931   4.498  0.2826 -0.0131 -0.2091
 1852ntf    on512657   0.786   1.958   4.631 -0.9678 -1.3566  0.0920
 1852ntf    fn412658   0.667   2.114   4.306 -0.6225  0.3832 -0.1187
 1852ntf    fn412659   0.849   2.163   4.408 -0.0035  0.5941  0.0243
 1852ntf    fn412660   0.811   1.965   4.323  0.1831  0.7890 -0.2140
 1853ntf    cn112661   1.788   1.618   1.004  0.4723  0.2044 -0.3470
 1853ntf    sn212662   1.938   1.537   1.067  0.2106  0.1020  0.1539
 1853ntf    nn312663   1.985   1.624   1.188  0.6316 -0.1832  0.1979
 1853ntf    sn212664   2.066   1.759   1.186  0.1717  0.0989  0.3559
 1853ntf    cn112665   2.230   1.701   1.241  0.2414 -0.2760 -0.2364
 1853ntf    fn412666   1.806   1.745   0.972  0.2106  0.2933 -0.1467
 1853ntf    fn412667   1.731   1.559   0.900 -0.2045  0.1016  0.0755
 1853ntf    fn412668   1.692   1.613   1.095  0.4250 -0.1061 -0.4134
 1853ntf    on512669   1.898   1.405   1.108  0.1078  0.1168  0.1013
 1853ntf    on512670   2.017   1.544   0.946 -0.5017 -0.0089 -0.3254
 1853ntf    on512671   2.018   1.845   1.291 -0.2947  0.2693  0.0033
 1853ntf    on512672   2.097   1.814   1.057 -0.8048 -0.2393 -0.0274
 1853ntf    fn412673   2.295   1.622   1.157  0.5375  0.2684 -0.5248
 1853ntf    fn412674   2.308   1.807   1.251 -0.0774 -0.0732  0.1222
 1853ntf    fn412675   2.227   1.644   1.361 -0.3322 -0.0486 -0.1374
 1854ntf    cn112676   0.603   0.313   4.407 -0.1448 -0.0683  0.4577
 1854ntf    sn212677   0.778   0.338   4.452 -0.0455 -0.2138  0.1605
 1854ntf    nn312678   0.820   0.190   4.485 -0.3959 -0.4114 -0.2558
 1854ntf    sn212679   0.818   0.104   4.617 -0.3006 -0.0358 -0.0057
 1854ntf    cn112680   0.987   0.123   4.682  0.0272 -0.3908 -0.7468
 1854ntf    fn412681   0.579   0.207   4.331  0.1946  0.0569  0.1695
 1854ntf    fn412682   0.522   0.302   4.510 -0.4201  0.3295  0.2869
 1854ntf    fn412683   0.554   0.414   4.337 -0.2831 -0.1053  0.5011
 1854ntf    on512684   0.835   0.382   4.327  0.0731 -0.0774  0.2629
 1854ntf    on512685   0.776   0.436   4.558 -0.9559  0.4791 -0.4783
 1854ntf    on512686   0.810  -0.035   4.580 -0.1797  0.0052 -0.1891
 1854ntf    on512687   0.726   0.151   4.718 -0.3205  0.3848 -0.2169
 1854ntf    fn412688   1.077   0.086   4.592  1.0612  0.1877  0.0395
 1854ntf    fn412689   1.024   0.247   4.707  0.2989 -0.7157  0.5332
 1854ntf    fn412690   1.007   0.048   4.789 -0.2252  0.2140 -0.2762
 1855ntf    cn112691   5.830   6.326   2.908 -0.1453  0.3711  0.0682
 1855ntf    sn212692   5.919   6.351   3.065  0.1518  0.3805 -0.1000
 1855ntf    nn312693   5.830   6.267   3.163  0.5642  0.2329  0.1474
 1855ntf    sn212694   5.839   6.270   3.320 -0.1160  0.4162  0.1848
 1855ntf    cn112695   5.848   6.092   3.359 -0.3081  0.3529 -0.0566
 1855ntf    fn412696   5.898   6.383   2.809  0.0361  0.5019  0.2656
 1855ntf    fn412697   5.821   6.199   2.875  0.1514  0.3215  0.1759
 1855ntf    fn412698   5.708   6.378   2.906 -0.1016  0.4646 -0.4263
 1855ntf    on512699   6.051   6.298   3.043 -0.0273 -0.0666 -0.1180
 1855ntf    on512700   5.912   6.493   3.090  0.2270  0.4299 -0.3531
 1855ntf    on512701   5.719   6.319   3.383  0.0925  0.4910  0.5232
 1855ntf    on512702   5.956   6.333   3.375 -0.3160  0.1783  0.9037
 1855ntf    fn412703   5.939   6.029   3.286 -0.8084 -0.3229 -0.1117
 1855ntf    fn412704   5.872   6.066   3.486  0.1060 -0.1626 -0.2363
 1855ntf    fn412705   5.735   6.027   3.336 -0.1648  0.0179  0.1880
 1856ntf    cn112706   6.502   4.616   4.984  0.2291 -0.1442 -0.2149
 1856ntf    sn212707   6.523   4.521   5.138  0.0316  0.0925 -0.0403
 1856ntf    nn312708   6.563   4.642   5.230  0.3677 -0.0747  0.0379
 1856ntf    sn212709   6.702   4.711   5.253  0.3646 -0.0711  0.0457
 1856ntf    cn112710   6.758   4.626   5.403  0.1616 -0.1012  0.1054
 1856ntf    fn412711   6.416   4.550   4.908  0.2655 -0.0980 -0.2969
 1856ntf    fn412712   6.443   4.734   4.996  0.1292 -0.2184  0.0294
 1856ntf    fn412713   6.611   4.625   4.910  0.0101 -0.1885 -0.5467
 1856ntf    on512714   6.388   4.476   5.156 -0.0810  0.4256 -0.0362
 1856ntf    on512715   6.627   4.424   5.117  0.3371  0.4450 -0.1801
 1856ntf    on512716   6.696   4.847   5.300 -0.3076 -0.1253  0.1365
 1856ntf    on512717   6.805   4.676   5.158 -0.1144 -0.4027 -0.3565
 1856ntf    fn412718   6.808   4.506   5.378  0.3370  0.0240 -0.1471
 1856ntf    fn412719   6.852   4.691   5.471  0.0781  0.6293 -0.4650
 1856ntf    fn412720   6.657   4.609   5.487  0.1464  0.5834  0.2323
 1857ntf    cn112721   3.685   5.701   5.309 -0.0302  0.1663 -0.1616
 1857ntf    sn212722   3.715   5.842   5.419  0.2885  0.1919 -0.2791
 1857ntf    nn312723   3.578   5.858   5.493 -0.0465 -0.8880 -0.6595
 1857ntf    sn212724   3.524   5.779   5.618  0.0765 -0.0417 -0.0698
 1857ntf    cn112725   3.568   5.895   5.751 -0.0848  0.1437 -0.1767
 1857ntf    fn412726   3.653   5.589   5.372  0.0554  0.4593  0.3983
 1857ntf    fn412727   3.598   5.720   5.211 -0.0230 -0.0308 -0.2085
 1857ntf    fn412728   3.793   5.670   5.238  0.1851  0.2004  0.1508
 1857ntf    on512729   3.824   5.792   5.499  0.0165  0.1295  0.0527
 1857ntf    on512730   3.732   5.947   5.320  0.2173  0.2889 -0.1891
 1857ntf    on512731   3.592   5.657   5.650 -0.2317 -0.0524  0.5621
 1857ntf    on512732   3.380   5.787   5.629  0.0586 -0.1567 -0.2138
 1857ntf    fn412733   3.505   6.011   5.740  0.0916  0.2014 -0.5719
 1857ntf    fn412734   3.556   5.844   5.873  0.1558 -0.2111 -0.2992
 1857ntf    fn412735   3.694   5.936   5.744 -0.0228 -0.0710 -0.3266
 1858ntf    cn112736   5.595   5.551   3.983  0.4022 -0.5719 -0.0351
 1858ntf    sn212737   5.528   5.385   4.013 -0.4566 -0.1697  0.2873
 1858ntf    nn312738   5.499   5.332   3.868  0.0589  0.1491  0.0648
 1858ntf    sn212739   5.361   5.312   3.795 -0.0754  0.3703  0.2547
 1858ntf    cn112740   5.338   5.134   3.824  0.3059  0.2740 -0.0232
 1858ntf    fn412741   5.505   5.626   3.921  0.5617 -0.1375  0.2504
 1858ntf    fn412742   5.629   5.611   4.097 -0.0624  0.7329 -0.5636
 1858ntf    fn412743   5.703   5.552   3.906  0.0974  0.1720 -0.4696
 1858ntf    on512744   5.634   5.311   4.076  0.5217  0.5949 -0.4346
 1858ntf    on512745   5.410   5.402   4.094 -0.4663  0.2043  0.1986
 1858ntf    on512746   5.379   5.319   3.653 -0.4655  0.0078  0.1858
 1858ntf    on512747   5.245   5.382   3.845  0.1031  1.4867 -0.8546
 1858ntf    fn412748   5.441   5.058   3.793  0.1438  0.0671 -0.0575
 1858ntf    fn412749   5.312   5.111   3.952  0.3545  0.4401  0.0171
 1858ntf    fn412750   5.240   5.077   3.756  0.2026  0.0333  0.3188
 1859ntf    cn112751   1.636   5.621   2.865 -0.0729  0.1104 -0.2459
 1859ntf    sn212752   1.625   5.442   2.835  0.0327  0.0564  0.0324
 1859ntf    nn312753   1.566   5.405   2.975  0.5108 -0.5571  0.0759
 1859ntf    sn212754   1.416   5.377   3.010  0.2040  0.3379 -0.4774
 1859ntf    cn112755   1.414   5.202   2.962 -0.3164  0.1317  0.2638
 1859ntf    fn412756   1.731   5.652   2.952 -0.0891  0.3142 -0.2997
 1859ntf    fn412757   1.668   5.673   2.747  0.6678 -0.1938 -0.1890
 1859ntf    fn412758   1.518   5.672   2.895  0.1681  0.0168  0.8945
 1859ntf    on512759   1.546   5.418   2.717  0.4733 -0.2085 -0.2130
 1859ntf    on512760   1.765   5.414   2.815  0.3365  0.7932  1.0589
 1859ntf    on512761   1.316   5.446   2.932 -0.4184 -0.3475 -0.2967
 1859ntf    on512762   1.390   5.372   3.152 -0.7650 -0.1259 -0.6590
 1859ntf    fn412763   1.304   5.139   3.002 -0.1747 -0.2267  0.1007
 1859ntf    fn412764   1.424   5.178   2.832 -0.4335  0.2067  0.2411
 1859ntf    fn412765   1.522   5.143   3.009 -0.1599  0.0142 -0.2304
 1860ntf    cn112766   0.139   0.090   1.095 -0.1382 -0.0373 -0.0164
 1860ntf    sn212767   0.240   0.023   1.230 -0.0356 -0.1355 -0.1423
 1860ntf    nn312768   0.160  -0.107   1.269  0.1185 -0.2243 -0.1230
 1860ntf    sn212769   0.028  -0.119   1.353  0.2192 -0.2427  0.0325
 1860ntf    cn112770   0.098  -0.155   1.518  0.2367 -0.6300 -0.0585
 1860ntf    fn412771   0.206   0.171   1.015  0.0458 -0.3041 -0.1338
 1860ntf    fn412772   0.095  -0.001   1.011  0.2367 -0.0207 -0.2329
 1860ntf    fn412773   0.035   0.159   1.139  0.2545  0.1626  0.6216
 1860ntf    on512774   0.367  -0.010   1.170  0.0865  0.1371 -0.0341
 1860ntf    on512775   0.240   0.127   1.330 -0.6191  0.3811 -0.6813
 1860ntf    on512776  -0.047  -0.236   1.315  0.0027 -0.0734 -0.0616
 1860ntf    on512777  -0.044   0.003   1.377  0.7289  0.0190  0.2446
 1860ntf    fn412778   0.202  -0.236   1.509  0.6687 -0.0750 -0.0391
 1860ntf    fn412779   0.144  -0.047   1.579 -0.4202 -0.3390 -0.0694
 1860ntf    fn412780   0.010  -0.215   1.598  0.1207 -0.5731 -0.1422
 1861ntf    cn112781   3.252   5.479   1.518 -0.0606 -0.0337  0.1280
 1861ntf    sn212782   3.378   5.488   1.648 -0.2231  0.3624  0.2607
 1861ntf    nn312783   3.475   5.591   1.580  0.3951  0.0441  0.6436
 1861ntf    sn212784   3.477   5.747   1.595 -0.1384  0.0996  0.1928
 1861ntf    cn112785   3.619   5.776   1.705 -0.1264 -0.0390  0.2138
 1861ntf    fn412786   3.188   5.594   1.506  0.0331  0.0524  0.4425
 1861ntf    fn412787   3.306   5.452   1.400 -0.1006 -0.1518  0.1372
 1861ntf    fn412788   3.162   5.383   1.534 -0.0321 -0.0590  0.1369
 1861ntf    on512789   3.307   5.531   1.766 -0.3294  0.2202  0.2488
 1861ntf    on512790   3.432   5.354   1.650 -0.0789  0.4075 -0.3608
 1861ntf    on512791   3.377   5.812   1.676  0.5744  0.7276  0.5806
 1861ntf    on512792   3.524   5.816   1.477  0.2105 -0.7575 -0.1829
 1861ntf    fn412793   3.736   5.770   1.644 -0.0670  0.2760  0.2943
 1861ntf    fn412794   3.617   5.898   1.756  0.1547  0.2672 -0.4972
 1861ntf    fn412795   3.628   5.693   1.808 -0.0144 -0.0564  0.1907
 1862ntf    cn112796   2.744   0.328   2.432 -0.2546  0.2522  0.1672
 1862ntf    sn212797   2.783   0.418   2.586  0.0255  0.2037  0.1264
 1862ntf    nn312798   2.826   0.559   2.532 -0.0211  0.0310 -0.3692
 1862ntf    sn212799   2.728   0.675   2.492 -0.1501  0.1082  0.1684
 1862ntf    cn112800   2.775   0.797   2.618  0.5249 -0.3760  0.3874
 1862ntf    fn412801   2.744   0.197   2.443 -0.2272  0.2400  0.0188
 1862ntf    fn412802   2.633   0.373   2.376  0.0645  0.4296 -0.3307
 1862ntf    fn412803   2.838   0.347   2.340 -0.0684  0.0043  0.3049
 1862ntf    on512804   2.661   0.413   2.664  0.0946 -0.2149  0.2085
 1862ntf    on512805   2.895   0.350   2.646 -0.5371 -0.5311  0.3560
 1862ntf    on512806   2.586   0.662   2.514 -0.2335  0.0154 -0.4022
 1862ntf    on512807   2.762   0.744   2.370 -0.0486 -0.6396 -0.2324
 1862ntf    fn412808   2.891   0.856   2.594  0.0284  0.3752 -0.1683
 1862ntf    fn412809   2.687   0.895   2.626  0.4371 -0.4060 -0.1729
 1862ntf    fn412810   2.782   0.747   2.741 -0.1334 -0.0052  0.5814
 1863ntf    cn112811   3.220   5.757   6.414 -0.4027  0.0797 -0.1756
 1863ntf    sn212812   3.264   5.895   6.524  0.1195 -0.3801  0.1956
 1863ntf    nn312813   3.420   5.888   6.543  0.1174 -0.2604  0.2592
 1863ntf    sn212814   3.501   5.840   6.669  0.5837 -0.1274  0.0105
 1863ntf    cn112815   3.479   5.660   6.651 -0.3741 -0.0569  0.4586
 1863ntf    fn412816   3.246   5.643   6.476  0.4246  0.5276  0.3129
 1863ntf    fn412817   3.093   5.751   6.377 -0.2369 -0.6568 -0.6443
 1863ntf    fn412818   3.292   5.753   6.304  0.3235  0.3582  0.2800
 1863ntf    on512819   3.228   6.016   6.454  0.2166 -0.3562  0.1867
 1863ntf    on512820   3.191   5.864   6.645  0.0169 -0.3536  0.1404
 1863ntf    on512821   3.447   5.861   6.801  0.0505 -0.3571 -0.1677
 1863ntf    on512822   3.644   5.857   6.661  0.6428 -0.5708  0.1044
 1863ntf    fn412823   3.555   5.591   6.734  0.0357 -0.0381  0.0987
 1863ntf    fn412824   3.358   5.615   6.679 -0.3116 -0.3428  0.2625
 1863ntf    fn412825   3.517   5.614   6.534 -0.2376  0.6000  0.2385
 1864ntf    cn112826   0.268   0.498   2.545  0.0950  0.1086 -0.2726
 1864ntf    sn212827   0.442   0.454   2.570 -0.0034  0.0049  0.2434
 1864ntf    nn312828   0.435   0.309   2.630 -0.2011 -0.0340  0.1281
 1864ntf    sn212829   0.524   0.238   2.738 -0.0910  0.4160  0.3374
 1864ntf    cn112830   0.675   0.194   2.647 -0.3109  0.2688  0.0407
 1864ntf    fn412831   0.208   0.555   2.648  0.2194  0.4870 -0.4098
 1864ntf    fn412832   0.250   0.575   2.439 -0.0297  0.4966  0.0321
 1864ntf    fn412833   0.206   0.384   2.515  0.0405 -0.1044  0.6269
 1864ntf    on512834   0.488   0.457   2.433 -0.3199  0.5751  0.1479
 1864ntf    on512835   0.497   0.549   2.663  0.2302 -0.3948  0.5209
 1864ntf    on512836   0.475   0.106   2.772 -0.0174  0.2119 -0.3259
 1864ntf    on512837   0.569   0.317   2.850 -0.7079 -0.0420  0.9182
 1864ntf    fn412838   0.769   0.142   2.725 -0.5887 -0.2840  0.0159
 1864ntf    fn412839   0.661   0.108   2.547  0.1541  0.2172  0.0180
 1864ntf    fn412840   0.720   0.303   2.586 -0.2815  0.1655 -0.1236
 1865ntf    cn112841   4.890   4.738   2.545  0.6428  0.2008  0.0652
 1865ntf    sn212842   4.967   4.718   2.382 -0.3116  0.2161 -0.3966
 1865ntf    nn312843   5.050   4.587   2.411 -0.0233  0.5763  0.4312
 1865ntf    sn212844   5.202   4.566   2.379 -0.1380  0.0581  0.2106
 1865ntf    cn112845   5.194   4.385   2.382 -0.3364  0.0627 -0.1059
 1865ntf    fn412846   4.845   4.862   2.557 -0.0503 -0.0872  0.5084
 1865ntf    fn412847   4.780   4.665   2.561  0.7558 -0.1722 -0.8025
 1865ntf    fn412848   4.959   4.732   2.658  0.1915  0.1695  0.3409
 1865ntf    on512849   4.854   4.704   2.293 -0.4884  0.4482 -0.2081
 1865ntf    on512850   5.054   4.832   2.366 -0.0019 -0.0441 -0.5958
 1865ntf    on512851   5.289   4.594   2.491  0.1748 -0.1817  0.0286
 1865ntf    on512852   5.237   4.601   2.244 -0.7238  0.5041  0.1681
 1865ntf    fn412853   5.306   4.316   2.389 -0.1485  0.4025  0.2146
 1865ntf    fn412854   5.116   4.351   2.484 -0.1842  0.3331  0.1016
 1865ntf    fn412855   5.124   4.344   2.277  0.6958  0.2799 -0.8893
 1866ntf    cn112856   3.357   4.652   2.177  0.3114  0.1833 -0.0937
 1866ntf    sn212857   3.427   4.692   2.340  0.2438 -0.2098  0.0342
 1866ntf    nn312858   3.465   4.843   2.316 -0.0710 -0.1406 -0.0343
 1866ntf    sn212859   3.379   4.970   2.350  0.2784  0.0939 -0.0209
 1866ntf    cn112860   3.445   5.019   2.512 -0.0248 -0.3047  0.2255
 1866ntf    fn412861   3.248   4.721   2.148  0.2349  0.0603 -0.0998
 1866ntf    fn412862   3.444   4.674   2.079  0.4572 -0.3772 -0.0961
 1866ntf    fn412863   3.323   4.525   2.159  0.3374  0.1185  0.3133
 1866ntf    on512864   3.320   4.678   2.435  0.3923  0.3590  0.2909
 1866ntf    on512865   3.540   4.603   2.348  0.5380  0.1262 -0.3460
 1866ntf    on512866   3.240   4.941   2.377  0.3386 -0.1321  0.0478
 1866ntf    on512867   3.406   5.082   2.264 -0.0393  0.1274 -0.0798
 1866ntf    fn412868   3.400   5.139   2.541  0.0384 -0.2088 -0.0707
 1866ntf    fn412869   3.406   4.937   2.609 -0.6046 -0.1515  0.1255
 1866ntf    fn412870   3.577   5.015   2.519 -0.0279 -0.0594  0.3968
 1867ntf    cn112871   4.398   3.192   2.305 -0.0223  0.3039  0.3479
 1867ntf    sn212872   4.551   3.098   2.272 -0.1397  0.1036  0.3702
 1867ntf    nn312873   4.548   2.991   2.387  0.5330  0.0892  0.3764
 1867ntf    sn212874   4.542   2.834   2.378 -0.0021  0.1367 -0.1865
 1867ntf    cn112875   4.386   2.798   2.292  0.0409 -0.0786 -0.1742
 1867ntf    fn412876   4.293   3.125   2.259  0.3685  0.0634 -0.2151
 1867ntf    fn412877   4.375   3.219   2.432  0.3612  0.4381  0.3907
 1867ntf    fn412878   4.395   3.306   2.238  0.3536  0.3922  0.4777
 1867ntf    on512879   4.544   3.049   2.137  0.1017 -0.3404  0.5180
 1867ntf    on512880   4.658   3.189   2.306  0.1806 -0.5448  1.1362
 1867ntf    on512881   4.540   2.778   2.510 -0.1297  0.1721 -0.1739
 1867ntf    on512882   4.638   2.776   2.287  0.3884  0.0772  0.2591
 1867ntf    fn412883   4.378   2.848   2.170  0.5748 -0.4397 -0.3620
 1867ntf    fn412884   4.380   2.667   2.275 -0.2867 -0.1414  0.3961
 1867ntf    fn412885   4.283   2.837   2.365  0.3510 -0.1942  0.3320
 1868ntf    cn112886   4.792   1.076   6.257 -0.2385 -0.0604  0.0926
 1868ntf    sn212887   4.800   0.927   6.153 -0.2170  0.0393 -0.0478
 1868ntf    nn312888   4.735   0.822   6.250 -0.6428  0.4663  0.1362
 1868ntf    sn212889   4.600   0.745   6.231 -0.1926 -0.2906 -0.0122
 1868ntf    cn112890   4.498   0.791   6.375 -0.4063 -0.3879 -0.1315
 1868ntf    fn412891   4.669   1.118   6.286 -0.5137 -0.4655 -0.4757
 1868ntf    fn412892   4.857   1.046   6.368  0.2931 -0.3085 -0.2841
 1868ntf    fn412893   4.859   1.176   6.202 -0.0728 -0.1741  0.0891
 1868ntf    on512894   4.731   0.956   6.030 -0.2100  0.3202  0.0132
 1868ntf    on512895   4.943   0.910   6.144 -0.1644  0.2819  0.2920
 1868ntf    on512896   4.616   0.604   6.259 -0.3731 -0.2856  0.1188
 1868ntf    on512897   4.503   0.776   6.130  0.2204 -1.3185 -0.7413
 1868ntf    fn412898   4.379   0.735   6.382 -0.6481  0.1816  0.3115
 1868ntf    fn412899   4.555   0.757   6.490 -0.1864 -0.0141 -0.1284
 1868ntf    fn412900   4.474   0.921   6.372 -0.0284 -0.2892  0.8442
 1869ntf    cn112901   5.965   0.389   3.020 -0.2761 -0.0281  0.0538
 1869ntf    sn212902   5.956   0.418   3.199 -0.0410  0.2714  0.0173
 1869ntf    nn312903   6.054   0.307   3.251 -0.2160 -0.0654 -0.3740
 1869ntf    sn212904   6.020   0.165   3.309  0.0933 -0.0627 -0.1829
 1869ntf    cn112905   6.182   0.092   3.345  0.1050 -0.0660 -0.2436
 1869ntf    fn412906   5.894   0.283   2.988 -0.2609 -0.0036 -0.0604
 1869ntf    fn412907   5.921   0.489   2.945 -0.3089 -0.0336  0.0660
 1869ntf    fn412908   6.090   0.365   2.982 -0.3315  0.6086 -0.5592
 1869ntf    on512909   6.020   0.547   3.215  0.1759  0.1894 -0.1835
 1869ntf    on512910   5.813   0.410   3.215  0.0578 -0.4198  0.6319
 1869ntf    on512911   5.965   0.078   3.208 -0.0556 -0.2781  0.0801
 1869ntf    on512912   5.957   0.188   3.437  0.0512 -0.6974 -0.0847
 1869ntf    fn412913   6.221   0.120   3.469  0.5492 -1.0872 -0.1422
 1869ntf    fn412914   6.190  -0.039   3.332  0.1224 -0.0772 -0.1263
 1869ntf    fn412915   6.274   0.150   3.269  0.0286  0.4644  0.0614
 1870ntf    cn112916   2.260   2.922   1.081  0.4876 -0.6499 -0.1617
 1870ntf    sn212917   2.156   2.778   1.122 -0.0140 -0.3138 -0.2436
 1870ntf    nn312918   2.265   2.666   1.134  0.3430  0.0296 -0.2582
 1870ntf    sn212919   2.259   2.526   1.204 -0.1908  0.1828  0.0062
 1870ntf    cn112920   2.387   2.559   1.328 -0.0219 -0.2361 -0.0552
 1870ntf    fn412921   2.327   2.958   1.189 -0.3718 -0.3108  0.2744
 1870ntf    fn412922   2.337   2.893   0.978  0.2053  0.2006 -0.6239
 1870ntf    fn412923   2.186   3.026   1.044  0.5850 -0.4471  0.2070
 1870ntf    on512924   2.098   2.827   1.245  0.5096 -0.2026 -0.0393
 1870ntf    on512925   2.072   2.775   1.005 -0.0461  0.8617 -0.2704
 1870ntf    on512926   2.330   2.421   1.135  0.3303  0.1808  0.5354
 1870ntf    on512927   2.149   2.491   1.290 -0.1177 -0.0709 -0.0033
 1870ntf    fn412928   2.417   2.446   1.391 -0.1715 -0.1286  0.2087
 1870ntf    fn412929   2.493   2.611   1.267  0.2015 -0.5122  0.0946
 1870ntf    fn412930   2.354   2.646   1.422 -0.3950  0.0795 -0.4770
 1871ntf    cn112931   4.312   5.502   6.282 -0.1045 -0.2385 -0.0197
 1871ntf    sn212932   4.231   5.446   6.435 -0.3710 -0.0792 -0.1001
 1871ntf    nn312933   4.329   5.332   6.483 -0.1364 -0.0228 -0.4426
 1871ntf    sn212934   4.349   5.181   6.444 -0.1729 -0.1825  0.1484
 1871ntf    cn112935   4.476   5.123   6.560 -0.0124 -0.4651 -0.1676
 1871ntf    fn412936   4.442   5.508   6.301 -0.1514 -0.1436  0.2761
 1871ntf    fn412937   4.291   5.431   6.172  0.1834 -0.2539 -0.0647
 1871ntf    fn412938   4.272   5.627   6.259 -0.1844 -0.1887  0.3770
 1871ntf    on512939   4.238   5.558   6.525  0.3317 -0.1079 -0.1134
 1871ntf    on512940   4.105   5.397   6.386 -0.2952  0.0911 -0.4706
 1871ntf    on512941   4.418   5.162   6.319  0.1643  0.3891  0.2427
 1871ntf    on512942   4.237   5.095   6.474  0.2153 -0.8008 -0.1865
 1871ntf    fn412943   4.442   5.148   6.686  0.1957 -0.2940 -0.1459
 1871ntf    fn412944   4.510   4.996   6.547  0.2804 -0.3942 -0.1095
 1871ntf    fn412945   4.590   5.190   6.555 -0.1977 -0.0937  0.5323
 1872ntf    cn112946   0.059   4.969   5.674 -0.0929 -0.6948  0.0179
 1872ntf    sn212947   0.237   4.980   5.710 -0.1100  0.0970 -0.1047
 1872ntf    nn312948   0.296   4.887   5.598  0.4128 -0.1762  0.3954
 1872ntf    sn212949   0.447   4.849   5.573  0.3880 -0.0008 -0.0235
 1872ntf    cn112950   0.508   4.977   5.460  0.1632  0.1891  0.0686
 1872ntf    fn412951  -0.012   5.038   5.762 -0.0316  0.3832 -0.7504
 1872ntf    fn412952   0.014   5.023   5.562 -0.0778 -0.0695  0.3090
 1872ntf    fn412953   0.013   4.845   5.667 -0.3848 -0.5975  0.1792
 1872ntf    on512954   0.259   5.122   5.702 -0.2436  0.0674 -1.0727
 1872ntf    on512955   0.238   4.924   5.843 -0.1872 -0.2040 -0.2280
 1872ntf    on512956   0.459   4.729   5.493 -0.1590 -0.4010  0.4816
 1872ntf    on512957   0.529   4.857   5.691  0.2204 -0.0310  0.0962
 1872ntf    fn412958   0.640   4.967   5.446  0.0449 -0.0725 -0.9471
 1872ntf    fn412959   0.451   4.950   5.343 -0.0195  0.0666  0.1864
 1872ntf    fn412960   0.487   5.102   5.496 -0.1020  0.1581  0.0200
 1873ntf    cn112961   1.522   6.349   3.375  0.0076 -0.1749 -0.0629
 1873ntf    sn212962   1.689   6.334   3.306  0.0297 -0.1772 -0.0098
 1873ntf    nn312963   1.705   6.181   3.274  0.1209 -0.1172 -0.2566
 1873ntf    sn212964   1.773   6.067   3.358 -0.0634 -0.0249  0.0175
 1873ntf    cn112965   1.940   6.058   3.289 -0.2226  0.0731 -0.3828
 1873ntf    fn412966   1.510   6.272   3.482  0.1965  0.6101  0.5368
 1873ntf    fn412967   1.484   6.467   3.421 -0.0293 -0.1312 -0.2046
 1873ntf    fn412968   1.422   6.308   3.298 -0.6889  1.0931  0.1316
 1873ntf    on512969   1.693   6.402   3.178  0.2679  0.2013  0.1969
 1873ntf    on512970   1.775   6.394   3.405  0.6030 -0.1451 -0.5201
 1873ntf    on512971   1.711   5.940   3.328  0.0187 -0.2726  0.8570
 1873ntf    on512972   1.800   6.103   3.495  0.0660 -0.5033  0.1202
 1873ntf    fn412973   1.976   6.176   3.242 -0.1325  0.1457 -0.1326
 1873ntf    fn412974   2.027   6.026   3.384 -0.8760  0.2780  0.2838
 1873ntf    fn412975   1.963   5.978   3.186  0.6691  0.0784 -0.1962
 1874ntf    cn112976   4.635   1.052   2.949 -0.1941 -0.5514  0.1461
 1874ntf    sn212977   4.670   1.031   2.772 -0.0093 -0.0422  0.1216
 1874ntf    nn312978   4.610   1.165   2.716  0.0133  0.0618  0.3453
 1874ntf    sn212979   4.603   1.206   2.565  0.2859 -0.2613  0.2452
 1874ntf    cn112980   4.462   1.115   2.496  0.1318  0.2556 -0.1271
 1874ntf    fn412981   4.722   1.133   3.007 -0.3539 -0.3498  0.1018
 1874ntf    fn412982   4.517   1.110   2.962 -0.0980 -0.1942 -0.5738
 1874ntf    fn412983   4.646   0.942   3.023 -0.2925 -0.7416 -0.1221
 1874ntf    on512984   4.814   1.026   2.761 -0.0105  0.0572  0.0550
 1874ntf    on512985   4.602   0.915   2.721 -0.4811  0.1719  0.2576
 1874ntf    on512986   4.714   1.149   2.492 -0.1304 -0.6457 -0.0918
 1874ntf    on512987   4.566   1.345   2.552  0.8046 -0.1826 -0.4768
 1874ntf    fn412988   4.434   1.009   2.570  0.7998  0.2099  0.0610
 1874ntf    fn412989   4.348   1.184   2.496  0.0042  0.0456 -0.0574
 1874ntf    fn412990   4.482   1.092   2.368 -0.6307 -0.0523 -0.1978
 1875ntf    cn112991   2.343   0.194   3.952 -0.1699  0.2805 -0.1650
 1875ntf    sn212992   2.455   0.335   3.930  0.0306  0.1684  0.1397
 1875ntf    nn312993   2.378   0.410   3.815  0.2164  0.3823  0.1554
 1875ntf    sn212994   2.359   0.565   3.796  0.1837  0.3034 -0.4585
 1875ntf    cn112995   2.183   0.574   3.840  0.4037 -0.1105  0.5277
 1875ntf    fn412996   2.410   0.097   4.011 -0.6052  0.0579 -0.0258
 1875ntf    fn412997   2.237   0.229   4.023 -0.0067  0.6796 -0.1180
 1875ntf    fn412998   2.291   0.154   3.836 -0.1792 -0.2556  0.0223
 1875ntf    on512999   2.438   0.387   4.063  0.2058  1.0467 -0.1739
 1875ntf    on513000   2.576   0.267   3.890 -0.2106  0.0015 -0.3168
 1875ntf    on513001   2.368   0.604   3.657  0.0007 -0.3421 -0.6558
 1875ntf    on513002   2.431   0.644   3.893  0.0868 -0.3152  0.1247
 1875ntf    fn413003   2.096   0.564   3.741  0.1152 -0.4910  0.8183
 1875ntf    fn413004   2.155   0.474   3.922 -0.2443 -0.1947  0.2098
 1875ntf    fn413005   2.163   0.686   3.908 -0.0342  0.1339  0.0020
 1876ntf    cn113006   3.722   3.243   3.439  0.1438 -0.1234 -0.0874
 1876ntf    sn213007   3.708   3.298   3.611 -0.1852  0.0545 -0.1712
 1876ntf    nn313008   3.606   3.417   3.601 -0.2941 -0.0199  0.0310
 1876ntf    sn213009   3.634   3.561   3.545 -0.2488  0.0616  0.2630
 1876ntf    cn113010   3.564   3.677   3.667  0.0102  0.2788  0.2067
 1876ntf    fn413011   3.818   3.153   3.422  0.2828  0.0101 -0.0029
 1876ntf    fn413012   3.605   3.199   3.394  0.0360 -0.1781  0.2468
 1876ntf    fn413013   3.751   3.345   3.360  0.2942  0.1487  0.3205
 1876ntf    on513014   3.648   3.183   3.674 -0.5799  0.3067 -0.0834
 1876ntf    on513015   3.842   3.334   3.650 -0.2866  0.3085 -0.0542
 1876ntf    on513016   3.551   3.587   3.430 -0.7774 -0.8910  0.4187
 1876ntf    on513017   3.771   3.605   3.550 -0.2684  0.0809  0.6240
 1876ntf    fn413018   3.436   3.654   3.694  0.0612 -0.0450  0.1827
 1876ntf    fn413019   3.623   3.660   3.783 -0.1188  0.0981  0.2474
 1876ntf    fn413020   3.577   3.805   3.638  0.2527  0.1593 -0.2151
 1877ntf    cn113021   4.398   0.128   3.052 -0.0389  0.2027  0.2586
 1877ntf    sn213022   4.574   0.091   3.076  0.0218  0.1022 -0.3266
 1877ntf    nn313023   4.635   0.220   3.011  0.0486  0.2494 -0.0155
 1877ntf    sn213024   4.739   0.320   3.072  0.3454 -0.0063 -0.1025
 1877ntf    cn113025   4.887   0.287   2.970  0.5430 -0.1405  0.2281
 1877ntf    fn413026   4.345   0.208   3.144 -0.3810  0.4263 -0.1306
 1877ntf    fn413027   4.372   0.182   2.934  0.1298 -0.1944  0.0407
 1877ntf    fn413028   4.323   0.019   3.052 -0.1353  0.2696  0.1659
 1877ntf    on513029   4.587   0.080   3.220  0.2366  0.4848 -0.3137
 1877ntf    on513030   4.584  -0.028   2.996 -0.3278  0.1631 -0.4613
 1877ntf    on513031   4.781   0.306   3.209 -0.4924  0.7922  0.2454
 1877ntf    on513032   4.712   0.452   3.020  0.3993  0.1778  0.3391
 1877ntf    fn413033   4.996   0.342   3.019  0.4345 -0.1806  0.5180
 1877ntf    fn413034   4.918   0.158   2.965 -0.1153 -0.2671 -0.8169
 1877ntf    fn413035   4.870   0.326   2.845 -0.7447  0.0933  0.4611
 1878ntf    cn113036   1.564   5.906   2.137 -0.2772  0.0617  0.5284
 1878ntf    sn213037   1.559   6.086   2.163 -0.0111  0.1558 -0.0591
 1878ntf    nn313038   1.546   6.100   2.319  0.1030  0.8911 -0.1116
 1878ntf    sn213039   1.658   6.121   2.427  0.0982 -0.0987  0.0928
 1878ntf    cn113040   1.558   6.208   2.551 -0.1971 -0.1692 -0.0941
 1878ntf    fn413041   1.677   5.847   2.170 -0.1595  0.3189  0.5875
 1878ntf    fn413042   1.471   5.837   2.202  0.1510 -0.5284  0.5116
 1878ntf    fn413043   1.542   5.874   2.011 -0.1703  0.1346  0.4915
 1878ntf    on513044   1.681   6.137   2.105  0.0725 -0.3091 -0.3010
 1878ntf    on513045   1.433   6.114   2.098 -0.2427 -0.6077  0.0547
 1878ntf    on513046   1.753   6.225   2.399  0.1968 -0.2397 -0.0981
 1878ntf    on513047   1.705   6.002   2.493 -0.3599 -0.0759  0.4687
 1878ntf    fn413048   1.632   6.234   2.657 -0.3058  0.0996 -0.0833
 1878ntf    fn413049   1.513   6.322   2.501  0.1890  0.0688  0.0906
 1878ntf    fn413050   1.458   6.132   2.593 -0.0518 -0.1324  0.3288
 1879ntf    cn113051   2.135   4.152   5.228 -0.2503  0.1496 -0.0505
 1879ntf    sn213052   2.187   4.287   5.118 -0.0285  0.0038 -0.1250
 1879ntf    nn313053   2.291   4.211   5.029  0.5194  0.4363  0.1393
 1879ntf    sn213054   2.360   4.256   4.895 -0.1038  0.1097 -0.2967
 1879ntf    cn113055   2.504   4.333   4.975 -0.1154 -0.1351 -0.0402
 1879ntf    fn413056   2.070   4.198   5.334 -0.3268  0.0221 -0.0417
 1879ntf    fn413057   2.059   4.058   5.175 -0.3524  0.3624 -0.2876
 1879ntf    fn413058   2.245   4.088   5.264 -0.1859 -0.3258 -1.0673
 1879ntf    on513059   2.063   4.326   5.055  0.0616 -0.0780 -0.3567
 1879ntf    on513060   2.242   4.377   5.216 -0.7638  0.2593  0.0588
 1879ntf    on513061   2.303   4.375   4.836 -0.3045  0.1678  0.0123
 1879ntf    on513062   2.423   4.164   4.803  0.1495  0.2625 -0.2772
 1879ntf    fn413063   2.568   4.242   5.047 -0.1476 -0.2144 -0.1113
 1879ntf    fn413064   2.603   4.370   4.896 -0.3192 -0.3124 -0.3758
 1879ntf    fn413065   2.481   4.442   5.048  0.0448  0.1732 -0.4487
 1880ntf    cn113066   1.741   3.123   3.038  0.5906 -0.0235 -0.2209
 1880ntf    sn213067   1.681   3.127   2.867 -0.1632  0.1091  0.0445
 1880ntf    nn313068   1.720   3.273   2.823  0.0023  0.0433 -0.0280
 1880ntf    sn213069   1.643   3.409   2.812  0.0658  0.0538 -0.3298
 1880ntf    cn113070   1.740   3.505   2.931 -0.0199  0.0678 -0.2709
 1880ntf    fn413071   1.868   3.157   3.052  0.3695  0.4031  0.8780
 1880ntf    fn413072   1.682   3.214   3.114  0.3756  0.0539 -0.4826
 1880ntf    fn413073   1.716   3.011   3.104 -0.1567 -0.2754 -0.9202
 1880ntf    on513074   1.771   3.032   2.808 -0.3858  0.1199 -0.3151
 1880ntf    on513075   1.539   3.099   2.873 -0.1474  0.0488  0.1375
 1880ntf    on513076   1.513   3.412   2.875  0.1617  0.0602 -0.1341
 1880ntf    on513077   1.658   3.475   2.684  0.4293  0.4390 -0.0934
 1880ntf    fn413078   1.732   3.637   2.923  0.3103  0.1017 -0.1022
 1880ntf    fn413079   1.723   3.470   3.058  0.6433 -0.0190 -0.1996
 1880ntf    fn413080   1.870   3.492   2.910  0.0014  0.0150 -0.1066
 1881ntf    cn113081   5.312   3.443   2.150 -0.0652 -0.0680 -0.3786
 1881ntf    sn213082   5.368   3.273   2.122 -0.1645 -0.1298 -0.2001
 1881ntf    nn313083   5.325   3.245   1.973 -0.0331 -0.2471 -0.2163
 1881ntf    sn213084   5.181   3.232   1.914  0.0565 -0.1049 -0.4647
 1881ntf    cn113085   5.197   3.076   1.821  0.0452 -0.2368 -0.2448
 1881ntf    fn413086   5.284   3.475   2.275  0.4493  0.4355 -0.3838
 1881ntf    fn413087   5.404   3.531   2.113  0.1374  0.0630  0.4294
 1881ntf    fn413088   5.205   3.465   2.075  0.1128  0.0818 -0.5940
 1881ntf    on513089   5.512   3.273   2.133 -0.2209  0.2527  0.6494
 1881ntf    on513090   5.297   3.193   2.219  0.0546  0.2600  0.2852
 1881ntf    on513091   5.159   3.330   1.811 -0.3064 -0.0327 -0.3208
 1881ntf    on513092   5.074   3.200   2.005 -0.0899 -0.2849 -0.6967
 1881ntf    fn413093   5.307   3.065   1.748 -0.1285 -0.6857 -0.4436
 1881ntf    fn413094   5.193   2.968   1.898 -0.5775  0.0223  0.0954
 1881ntf    fn413095   5.100   3.054   1.733 -0.2020  0.2211 -0.0911
 1882ntf    cn113096   2.166   5.523   1.820  0.0595  0.3171 -0.1495
 1882ntf    sn213097   2.313   5.604   1.890  0.2712 -0.0800 -0.1268
 1882ntf    nn313098   2.425   5.498   1.865  0.1733 -0.3031  0.3773
 1882ntf    sn213099   2.550   5.524   1.773 -0.0195  0.4149  0.3088
 1882ntf    cn113100   2.634   5.363   1.784 -0.7708 -0.0180 -0.1924
 1882ntf    fn413101   2.177   5.499   1.691 -0.4506  0.0229 -0.1403
 1882ntf    fn413102   2.138   5.412   1.888 -0.2820  0.4474 -0.0736
 1882ntf    fn413103   2.063   5.605   1.835 -0.0742  0.0643  0.3517
 1882ntf    on513104   2.327   5.720   1.805  0.3557  0.1619  0.2124
 1882ntf    on513105   2.275   5.623   2.028  0.1069  0.1924 -0.2076
 1882ntf    on513106   2.645   5.621   1.821  0.2635  0.3787 -0.1755
 1882ntf    on513107   2.517   5.528   1.633 -0.2167  0.2977  0.3516
 1882ntf    fn413108   2.549   5.266   1.753 -0.5759 -0.3457  0.2804
 1882ntf    fn413109   2.737   5.349   1.702 -0.2609  0.0265  0.4329
 1882ntf    fn413110   2.673   5.333   1.907 -0.2826  0.2488 -0.2807
 1883ntf    cn113111   3.016   0.336   5.028  0.1005 -0.0183  0.1713
 1883ntf    sn213112   3.190   0.324   4.980  0.0058  0.1406 -0.2197
 1883ntf    nn313113   3.218   0.170   4.997 -0.5751  0.0144 -0.3837
 1883ntf    sn213114   3.351   0.096   4.959 -0.4440 -0.0175  0.1208
 1883ntf    cn113115   3.294   0.017   4.805 -0.1032 -0.3466  0.1622
 1883ntf    fn413116   3.000   0.299   5.154 -0.1187  0.2635  0.2285
 1883ntf    fn413117   2.967   0.457   5.003  0.1753 -0.1356 -0.5737
 1883ntf    fn413118   2.939   0.254   4.959 -0.3397  0.3090  0.2630
 1883ntf    on513119   3.184   0.360   4.840 -0.6556  0.1817 -0.1824
 1883ntf    on513120   3.253   0.416   5.071  0.3552 -0.4041  0.0957
 1883ntf    on513121   3.383  -0.008   5.053  0.8826 -0.1593 -0.4629
 1883ntf    on513122   3.456   0.187   4.920  0.1234 -0.3981  0.7461
 1883ntf    fn413123   3.391  -0.047   4.743 -0.3051 -0.3459 -0.1575
 1883ntf    fn413124   3.201  -0.076   4.822  0.2968 -0.7016  0.4264
 1883ntf    fn413125   3.255   0.109   4.719 -0.1127 -0.6498 -0.1586
 1884ntf    cn113126   6.644   3.916   6.437  0.0869  0.1993 -0.0358
 1884ntf    sn213127   6.760   3.917   6.577  0.0752  0.2113 -0.0268
 1884ntf    nn313128   6.859   3.800   6.545 -0.5336 -0.2882 -0.0985
 1884ntf    sn213129   6.838   3.647   6.577  0.0293 -0.3149  0.1504
 1884ntf    cn113130   6.968   3.623   6.701  0.3457  0.3721 -0.0406
 1884ntf    fn413131   6.548   4.004   6.460 -0.1228  0.0353 -0.2698
 1884ntf    fn413132   6.701   3.940   6.320 -0.3572  0.5030 -0.1944
 1884ntf    fn413133   6.584   3.798   6.433  0.2781  0.1046 -0.1316
 1884ntf    on513134   6.826   4.044   6.562  0.5176  0.0230  0.3087
 1884ntf    on513135   6.672   3.897   6.689  0.4178 -0.2330  0.1635
 1884ntf    on513136   6.876   3.577   6.457  0.1349  0.4155 -0.2494
 1884ntf    on513137   6.711   3.609   6.634 -0.2380  0.1650 -0.1118
 1884ntf    fn413138   6.994   3.496   6.727  0.3961  0.3620 -0.1370
 1884ntf    fn413139   7.078   3.676   6.651  0.6586 -0.1912  0.0353
 1884ntf    fn413140   6.951   3.688   6.815  1.0642  0.4527  0.0267
 1885ntf    cn113141   1.970   6.216   1.309  0.0519 -0.0918 -0.0308
 1885ntf    sn213142   1.968   6.171   1.485  0.0252 -0.0342 -0.0164
 1885ntf    nn313143   1.827   6.105   1.506 -0.3699  0.6265 -0.5629
 1885ntf    sn213144   1.702   6.171   1.575 -0.1033  0.1119  0.4228
 1885ntf    cn113145   1.750   6.183   1.750 -0.1427  0.0694  0.4365
 1885ntf    fn413146   1.879   6.310   1.287  0.4412  0.2989 -0.0027
 1885ntf    fn413147   2.085   6.270   1.270  0.1700 -0.2393  0.1105
 1885ntf    fn413148   1.940   6.117   1.227 -0.6931  0.3434 -0.2902
 1885ntf    on513149   2.079   6.080   1.489  0.6978  0.7830  0.1241
 1885ntf    on513150   1.991   6.298   1.549  0.0481  0.2355 -0.5541
 1885ntf    on513151   1.582   6.092   1.581 -0.1987  0.1951 -0.3308
 1885ntf    on513152   1.688   6.306   1.526 -0.6529  0.1295  0.6203
 1885ntf    fn413153   1.645   6.212   1.827  0.1724  0.4187  0.7383
 1885ntf    fn413154   1.795   6.067   1.796 -0.4147 -0.2869 -0.1835
 1885ntf    fn413155   1.849   6.267   1.774  0.3026 -0.0606 -0.8718
 1886ntf    cn113156   5.157   3.690   4.103 -0.2752  0.3250  0.3172
 1886ntf    sn213157   5.181   3.844   4.009  0.0976 -0.0318 -0.1790
 1886ntf    nn313158   5.224   3.933   4.132  0.1555 -0.1955 -0.0797
 1886ntf    sn213159   5.364   3.964   4.196 -0.1991  0.0352  0.5880
 1886ntf    cn113160   5.325   3.954   4.373 -0.2746  0.3471  0.5907
 1886ntf    fn413161   5.060   3.697   4.192 -0.2772 -0.3823  0.3710
 1886ntf    fn413162   5.128   3.584   4.030 -0.3049  0.3586  0.2803
 1886ntf    fn413163   5.266   3.652   4.167 -0.0375  0.5722  0.0665
 1886ntf    on513164   5.274   3.812   3.904  0.1023  0.1226 -0.2219
 1886ntf    on513165   5.049   3.886   3.968  0.2610  0.2431 -0.4257
 1886ntf    on513166   5.398   4.104   4.185 -0.3405  0.0056 -0.3131
 1886ntf    on513167   5.467   3.865   4.173  0.2129  0.5190  0.3196
 1886ntf    fn413168   5.272   3.839   4.411  0.0961 -0.2288 -0.5828
 1886ntf    fn413169   5.435   3.965   4.445 -0.0945  0.3499  0.3165
 1886ntf    fn413170   5.239   4.048   4.409 -0.5590  0.1399  0.4563
 1887ntf    cn113171   6.085   2.870   4.229 -0.1193 -0.1856  0.2827
 1887ntf    sn213172   6.027   2.925   4.392 -0.0415  0.1662  0.1919
 1887ntf    nn313173   5.908   3.020   4.354 -0.4274 -0.4265 -0.0996
 1887ntf    sn213174   5.870   3.153   4.428  0.3989 -0.1269 -0.1974
 1887ntf    cn113175   5.707   3.092   4.481  0.4175 -0.3675 -0.4150
 1887ntf    fn413176   6.105   2.974   4.150  0.1092 -0.0627  0.5027
 1887ntf    fn413177   6.194   2.796   4.238 -0.2004 -0.4038 -0.4108
 1887ntf    fn413178   5.990   2.801   4.166  0.1685 -0.0574 -0.3019
 1887ntf    on513179   5.982   2.796   4.439  0.3536 -0.0762 -0.0892
 1887ntf    on513180   6.145   2.989   4.445  0.0782  0.0568  0.0568
 1887ntf    on513181   5.859   3.263   4.335  0.5784 -0.1576 -0.2553
 1887ntf    on513182   5.935   3.189   4.552 -0.2787 -0.5232  0.2837
 1887ntf    fn413183   5.717   2.965   4.516 -0.3124 -0.2363  0.3192
 1887ntf    fn413184   5.658   3.157   4.585  0.7025 -0.3958 -0.2617
 1887ntf    fn413185   5.618   3.089   4.382  0.3336  0.5170 -0.3746
 1888ntf    cn113186   5.747   4.177   5.509 -0.1503  0.2031 -0.1482
 1888ntf    sn213187   5.751   4.327   5.406 -0.2667  0.0872 -0.3229
 1888ntf    nn313188   5.863   4.406   5.483 -0.4363  0.0259 -0.0163
 1888ntf    sn213189   5.859   4.497   5.612 -0.1502 -0.0453  0.0446
 1888ntf    cn113190   5.919   4.645   5.525  0.2583 -0.3620 -0.2169
 1888ntf    fn413191   5.732   4.195   5.639 -0.4024 -0.0891 -0.1379
 1888ntf    fn413192   5.645   4.103   5.471 -0.0756  0.1994 -0.3431
 1888ntf    fn413193   5.857   4.104   5.509 -0.3290 -0.0693  0.1402
 1888ntf    on513194   5.797   4.282   5.277 -1.1083  0.1799 -0.6605
 1888ntf    on513195   5.619   4.384   5.414 -0.0794  0.4310  0.4108
 1888ntf    on513196   5.959   4.474   5.712 -0.1409  0.0513  0.0570
 1888ntf    on513197   5.732   4.546   5.660 -0.2256 -0.0293 -0.1676
 1888ntf    fn413198   5.817   4.718   5.484 -0.0885 -0.5172  0.3456
 1888ntf    fn413199   5.988   4.729   5.601 -0.4868 -0.0057  0.0779
 1888ntf    fn413200   5.991   4.624   5.416  0.2900  0.3159 -0.3296
 1889ntf    cn113201   3.619   0.822   5.466 -0.3055 -0.0216  0.2685
 1889ntf    sn213202   3.641   0.783   5.290  0.0915  0.1631  0.2759
 1889ntf    nn313203   3.576   0.917   5.239 -0.0943  0.0858  0.3124
 1889ntf    sn213204   3.553   0.966   5.092  0.2133 -0.0802  0.2078
 1889ntf    cn113205   3.635   1.128   5.105  0.2226 -0.0046 -0.7052
 1889ntf    fn413206   3.668   0.731   5.548  0.2543  0.1727  0.1559
 1889ntf    fn413207   3.678   0.935   5.502 -0.3197  0.1508 -0.2380
 1889ntf    fn413208   3.490   0.829   5.496 -0.3527  0.5206 -0.0426
 1889ntf    on513209   3.783   0.767   5.269 -0.0713 -0.4080 -0.3949
 1889ntf    on513210   3.557   0.670   5.261  0.2884 -0.0301  0.4572
 1889ntf    on513211   3.415   1.006   5.081  0.1795 -0.3455 -0.3679
 1889ntf    on513212   3.619   0.891   4.988 -0.0870  0.4711 -0.3863
 1889ntf    fn413213   3.590   1.195   5.211  0.0185 -0.5549 -0.4418
 1889ntf    fn413214   3.765   1.114   5.122  0.0824 -0.6406 -0.1069
 1889ntf    fn413215   3.620   1.209   5.002 -0.6589  0.0103 -0.5740
 1890ntf    cn113216   3.170   1.730   4.902  0.3787  0.1370  0.4213
 1890ntf    sn213217   3.075   1.587   4.843  0.4541  0.1763  0.2035
 1890ntf    nn313218   2.977   1.659   4.744  0.2860 -0.4003 -0.0530
 1890ntf    sn213219   2.989   1.681   4.590  0.0071  0.2130  0.0082
 1890ntf    cn113220   2.937   1.516   4.535  0.0511  0.1935  0.0256
 1890ntf    fn413221   3.274   1.706   4.980 -0.0470 -0.5178  0.7980
 1890ntf    fn413222   3.218   1.794   4.796 -0.1146  0.0580  0.1487
 1890ntf    fn413223   3.088   1.815   4.962 -0.0874 -0.0991  0.1186
 1890ntf    on513224   3.178   1.501   4.788 -0.2638 -0.4067 -0.2432
 1890ntf    on513225   3.012   1.537   4.962  0.3721 -0.4339 -0.0903
 1890ntf    on513226   3.123   1.696   4.538 -0.0432 -0.0712 -0.2092
 1890ntf    on513227   2.885   1.763   4.533 -0.8994 -0.4124  0.7439
 1890ntf    fn413228   2.813   1.486   4.570  0.1450  0.2895  0.4512
 1890ntf    fn413229   2.943   1.492   4.405  0.3916  0.0477  0.0664
 1890ntf    fn413230   3.010   1.419   4.589 -0.0261 -0.0850 -0.3643
 1891ntf    cn113231   4.585   0.458   1.957 -0.4489 -0.1510 -0.0138
 1891ntf    sn213232   4.589   0.614   1.863 -0.0216  0.0009  0.2578
 1891ntf    nn313233   4.743   0.643   1.872 -0.0413  0.1408  0.1435
 1891ntf    sn213234   4.831   0.689   1.993 -0.0852  0.1079  0.1879
 1891ntf    cn113235   4.867   0.860   1.940 -0.0985  0.0581  0.0173
 1891ntf    fn413236   4.461   0.415   1.980 -0.5272 -0.1296 -0.3851
 1891ntf    fn413237   4.651   0.360   1.896 -0.0576  0.0770  0.0437
 1891ntf    fn413238   4.645   0.467   2.074 -0.1654 -0.1429 -0.1598
 1891ntf    on513239   4.547   0.593   1.727 -0.1859  0.4828  0.2331
 1891ntf    on513240   4.505   0.701   1.942 -0.3247 -0.5437  0.5431
 1891ntf    on513241   4.958   0.621   1.999 -0.3838 -0.4717 -0.0701
 1891ntf    on513242   4.760   0.712   2.116 -0.4943 -0.0936 -0.0087
 1891ntf    fn413243   4.937   0.871   1.829 -0.0524  0.2235  0.0625
 1891ntf    fn413244   4.765   0.942   1.920 -0.0436  0.0296 -0.3803
 1891ntf    fn413245   4.948   0.924   2.023 -0.1278 -0.0831  0.1561
 1892ntf    cn113246   6.613   0.407   1.521 -0.3225  0.1135  0.0122
 1892ntf    sn213247   6.679   0.556   1.601 -0.0905  0.1627 -0.2712
 1892ntf    nn313248   6.786   0.494   1.697 -0.1574  0.0182 -0.2896
 1892ntf    sn213249   6.786   0.487   1.854  0.2386  0.2331 -0.2786
 1892ntf    cn113250   6.867   0.648   1.882  0.2634  0.2164 -0.2549
 1892ntf    fn413251   6.716   0.338   1.475 -0.2080  0.2993 -0.0110
 1892ntf    fn413252   6.541   0.326   1.598 -0.1935 -0.2730 -0.2691
 1892ntf    fn413253   6.538   0.447   1.419 -0.1084  0.6339  0.0571
 1892ntf    on513254   6.733   0.636   1.494 -0.0074  0.3298 -0.1053
 1892ntf    on513255   6.560   0.609   1.661 -0.3058 -0.1514 -0.4175
 1892ntf    on513256   6.881   0.392   1.907 -0.0672 -0.2183 -0.5400
 1892ntf    on513257   6.660   0.499   1.924  0.4613  0.7066  0.0494
 1892ntf    fn413258   6.870   0.680   2.010 -0.4811 -0.0144 -0.1705
 1892ntf    fn413259   6.992   0.656   1.842  0.3811  0.4799  0.1646
 1892ntf    fn413260   6.807   0.747   1.818  0.0760  0.3858  0.1799
 1893ntf    cn113261   5.119   6.528   1.759 -0.0182 -0.1553 -0.1521
 1893ntf    sn213262   5.173   6.665   1.653  0.0289  0.0680  0.1570
 1893ntf    nn313263   5.324   6.635   1.622  0.0299  0.2199  0.0150
 1893ntf    sn213264   5.448   6.652   1.717 -0.0184  0.2602  0.0705
 1893ntf    cn113265   5.451   6.487   1.792 -0.0813  0.1402 -0.1894
 1893ntf    fn413266   5.003   6.556   1.817  0.2600  0.4929  0.0916
 1893ntf    fn413267   5.114   6.415   1.690 -0.0153 -0.0492 -0.3265
 1893ntf    fn413268   5.207   6.507   1.856  0.0558 -0.1184 -0.2115
 1893ntf    on513269   5.092   6.644   1.535  0.2639 -0.0077  0.0067
 1893ntf    on513270   5.155   6.785   1.730 -0.0431  0.1911 -0.0513
 1893ntf    on513271   5.437   6.747   1.825  0.3028 -0.0658  0.3948
 1893ntf    on513272   5.569   6.644   1.638 -0.0122  0.0060  0.1044
 1893ntf    fn413273   5.356   6.411   1.739 -0.1054 -0.1525  0.2656
 1893ntf    fn413274   5.563   6.422   1.767 -0.0469  0.3481 -0.5721
 1893ntf    fn413275   5.439   6.491   1.924 -0.0214 -0.6956 -0.1508
 1894ntf    cn113276   6.359   5.982   0.472  0.3078  0.3341 -0.3039
 1894ntf    sn213277   6.467   6.074   0.358  0.4713  0.5582  0.0299
 1894ntf    nn313278   6.379   6.053   0.230  0.1368  0.6009  0.2494
 1894ntf    sn213279   6.275   6.154   0.170 -0.2151  0.1143  0.0378
 1894ntf    cn113280   6.366   6.253   0.048  0.1035 -0.3484 -0.1027
 1894ntf    fn413281   6.336   5.861   0.423  0.7983  0.2212 -0.2637
 1894ntf    fn413282   6.414   5.959   0.591  0.4109  0.0149 -0.4110
 1894ntf    fn413283   6.242   6.042   0.486 -0.0524 -0.4498  0.1232
 1894ntf    on513284   6.473   6.205   0.419  0.1602  0.6965 -0.2314
 1894ntf    on513285   6.588   5.996   0.359 -0.1439 -0.4128 -0.2828
 1894ntf    on513286   6.222   6.252   0.262  0.1047  0.3470 -0.0246
 1894ntf    on513287   6.173   6.076   0.104  0.1558 -0.3588  0.0214
 1894ntf    fn413288   6.287   6.345  -0.006  0.1775 -0.3835 -0.2723
 1894ntf    fn413289   6.471   6.317   0.096 -0.3697  0.3277  0.0553
 1894ntf    fn413290   6.415   6.182  -0.052 -0.2504 -0.6522 -0.0610
 1895ntf    cn113291   1.820   0.795   5.452  0.1142 -0.1875 -0.3998
 1895ntf    sn213292   1.952   0.721   5.351  0.1955 -0.2159 -0.2733
 1895ntf    nn313293   2.072   0.713   5.452 -0.0817 -0.2764  0.0529
 1895ntf    sn213294   2.177   0.598   5.471 -0.0818 -0.2904 -0.0311
 1895ntf    cn113295   2.140   0.547   5.642 -0.0424 -0.0156  0.0598
 1895ntf    fn413296   1.848   0.918   5.492 -0.1560 -0.1937 -0.1895
 1895ntf    fn413297   1.702   0.813   5.394 -0.0415  0.0322 -0.0242
 1895ntf    fn413298   1.801   0.722   5.560 -0.0160  0.2350 -0.1330
 1895ntf    on513299   1.889   0.597   5.312  0.0804 -0.2719  0.0791
 1895ntf    on513300   1.977   0.818   5.247  0.2295 -0.4269 -0.4616
 1895ntf    on513301   2.308   0.656   5.487 -0.0314 -0.5935  0.7258
 1895ntf    on513302   2.163   0.480   5.389 -0.1198 -0.6330  0.4612
 1895ntf    fn413303   2.206   0.441   5.684  0.1165 -0.0811 -0.3514
 1895ntf    fn413304   2.173   0.648   5.722 -0.0894  0.0531 -0.0073
 1895ntf    fn413305   2.011   0.521   5.658 -0.0594  0.2831  0.4310
 1896ntf    cn113306   5.782   5.461   4.471 -0.0195  0.0256  0.3015
 1896ntf    sn213307   5.824   5.577   4.604  0.4735  0.0840  0.0976
 1896ntf    nn313308   5.953   5.506   4.658  0.2056 -0.3951  0.1097
 1896ntf    sn213309   6.041   5.533   4.785 -0.4146  0.1560  0.4281
 1896ntf    cn113310   6.183   5.621   4.712 -0.2322 -0.2692  0.2709
 1896ntf    fn413311   5.722   5.531   4.375  0.1621 -0.4066 -0.1319
 1896ntf    fn413312   5.887   5.402   4.416 -0.0229  0.2334  0.0653
 1896ntf    fn413313   5.705   5.361   4.509  0.0402 -0.1849 -0.1228
 1896ntf    on513314   5.850   5.690   4.519  0.0861  0.2842  0.2403
 1896ntf    on513315   5.708   5.572   4.690  0.4528 -1.1475  0.0121
 1896ntf    on513316   6.094   5.415   4.848 -0.4017  0.1066  0.3264
 1896ntf    on513317   5.989   5.624   4.885 -1.0835  0.0042  0.2226
 1896ntf    fn413318   6.254   5.680   4.806  0.0458 -0.0172 -0.0928
 1896ntf    fn413319   6.261   5.536   4.647  0.3172 -0.0672  0.6545
 1896ntf    fn413320   6.144   5.714   4.626 -0.4560 -0.1409  0.5121
 1897ntf    cn113321   6.084   5.957   1.182  0.2780  0.1812  0.1328
 1897ntf    sn213322   5.968   6.096   1.193  0.1113  0.0491  0.0454
 1897ntf    nn313323   6.073   6.212   1.196  0.3015 -0.1280  0.2912
 1897ntf    sn213324   6.056   6.368   1.196  0.4393 -0.1117 -0.1636
 1897ntf    cn113325   6.097   6.435   1.032 -0.2164 -0.3254 -0.4179
 1897ntf    fn413326   6.142   5.948   1.064  0.2046  0.6959  0.0568
 1897ntf    fn413327   6.177   5.969   1.275  0.3082  0.2156  0.0981
 1897ntf    fn413328   6.032   5.838   1.208  0.5318 -0.0650 -0.4583
 1897ntf    on513329   5.893   6.099   1.070  0.2708 -0.3729 -0.0650
 1897ntf    on513330   5.891   6.070   1.312 -0.4957 -0.2080 -0.3988
 1897ntf    on513331   6.154   6.431   1.280 -0.0209  0.0954  0.2225
 1897ntf    on513332   5.919   6.409   1.213  0.2650 -0.4540 -0.7283
 1897ntf    fn413333   6.225   6.418   1.002  0.0382  0.1868  0.3573
 1897ntf    fn413334   6.028   6.368   0.941 -0.3119  0.2151 -0.7459
 1897ntf    fn413335   6.064   6.561   1.009  0.0291 -0.1031  0.4431
 1898ntf    cn113336   6.280   1.272   4.488 -0.2076  0.4339 -0.1330
 1898ntf    sn213337   6.127   1.314   4.577 -0.1589  0.2151  0.0591
 1898ntf    nn313338   6.141   1.470   4.557  0.3564  0.1394 -0.2071
 1898ntf    sn213339   6.048   1.571   4.481 -0.0663  0.0457  0.1766
 1898ntf    cn113340   6.088   1.722   4.574 -0.0374  0.1016  0.0740
 1898ntf    fn413341   6.390   1.291   4.559  0.0861 -0.0399 -0.4567
 1898ntf    fn413342   6.291   1.144   4.455  0.0900  0.4131  0.0396
 1898ntf    fn413343   6.290   1.343   4.377  0.3996  0.1762 -0.2499
 1898ntf    on513344   6.030   1.247   4.494 -0.2406 -0.1903  0.4801
 1898ntf    on513345   6.141   1.274   4.714  0.1643  0.7251  0.1819
 1898ntf    on513346   5.907   1.557   4.505 -0.0267 -0.1003  0.3272
 1898ntf    on513347   6.098   1.599   4.348  0.0551 -0.8600  0.0228
 1898ntf    fn413348   6.218   1.726   4.595  0.0038 -0.1199 -0.1294
 1898ntf    fn413349   6.056   1.827   4.500  0.0641 -0.2441 -0.4671
 1898ntf    fn413350   6.025   1.722   4.691  0.1532  0.2651  0.1749
 1899ntf    cn113351   2.908   3.390   2.054  0.2165  0.1238  0.2485
 1899ntf    sn213352   2.796   3.490   2.157 -0.2825  0.1327 -0.2990
 1899ntf    nn313353   2.665   3.475   2.071 -0.1338 -0.1172 -0.4864
 1899ntf    sn213354   2.516   3.515   2.104 -0.0957 -0.2927 -0.0875
 1899ntf    cn113355   2.446   3.347   2.101 -0.0706 -0.3067  0.1468
 1899ntf    fn413356   2.852   3.276   2.014  0.5322  0.1505 -0.2748
 1899ntf    fn413357   2.940   3.448   1.940  0.0482 -0.7391 -0.2500
 1899ntf    fn413358   3.017   3.346   2.114  0.1840 -0.1445  0.1165
 1899ntf    on513359   2.806   3.402   2.271  0.1726  0.5356 -0.0291
 1899ntf    on513360   2.851   3.623   2.153  0.0355  0.0193  0.3021
 1899ntf    on513361   2.442   3.587   2.003 -0.2857 -0.2060  0.1137
 1899ntf    on513362   2.492   3.546   2.242 -0.2760 -0.1156 -0.1581
 1899ntf    fn413363   2.496   3.277   2.201  0.3022 -0.1813  0.0512
 1899ntf    fn413364   2.314   3.349   2.113 -0.0291  0.1592  0.5844
 1899ntf    fn413365   2.491   3.287   1.992  0.3773 -0.0148  0.1687
 1900ntf    cn113366   3.153   6.510   0.044 -0.2329  0.4920 -0.2147
 1900ntf    sn213367   3.124   6.469   0.219 -0.1657  0.4611 -0.2106
 1900ntf    nn313368   3.098   6.612   0.279 -0.4612  0.2674  0.1264
 1900ntf    sn213369   3.165   6.681   0.402  0.1105 -0.0937  0.0210
 1900ntf    cn113370   3.121   6.851   0.355  0.6075  0.0101 -0.0726
 1900ntf    fn413371   3.161   6.399  -0.027 -0.4573  0.4938 -0.2411
 1900ntf    fn413372   3.061   6.578  -0.022 -0.3846 -0.0207 -0.5369
 1900ntf    fn413373   3.266   6.575   0.018  0.0360  0.0697 -0.1130
 1900ntf    on513374   3.003   6.392   0.201  0.2697 -0.1904 -0.4017
 1900ntf    on513375   3.238   6.392   0.262 -0.2181  0.5275  0.0506
 1900ntf    on513376   3.309   6.679   0.403  0.1086 -0.3464 -0.1671
 1900ntf    on513377   3.090   6.651   0.522 -0.3365  0.3319 -0.1470
 1900ntf    fn413378   2.990   6.869   0.347  0.5673 -0.1314  0.2299
 1900ntf    fn413379   3.163   6.939   0.444  0.4003 -0.1305  0.1658
 1900ntf    fn413380   3.177   6.886   0.240 -0.5274  0.1719 -0.5846
 1901ntf    cn113381   1.215   2.199   1.339 -0.0002  0.1526  0.2355
 1901ntf    sn213382   1.164   2.300   1.481 -0.0371  0.1395  0.2316
 1901ntf    nn313383   1.007   2.291   1.472 -0.0690  0.3108  0.5950
 1901ntf    sn213384   0.916   2.176   1.526 -0.2249  0.2103  0.1274
 1901ntf    cn113385   0.849   2.238   1.684 -0.0516 -0.0724  0.3129
 1901ntf    fn413386   1.133   2.205   1.236  0.5041 -0.5673 -0.2178
 1901ntf    fn413387   1.335   2.236   1.297 -0.3285  0.5213 -0.3977
 1901ntf    fn413388   1.206   2.071   1.372 -0.8292  0.0639 -0.2896
 1901ntf    on513389   1.235   2.228   1.584  0.2921  0.3053  0.1207
 1901ntf    on513390   1.218   2.428   1.445 -0.0361  0.0090 -0.2326
 1901ntf    on513391   0.984   2.054   1.562 -0.5116 -0.0752 -0.2931
 1901ntf    on513392   0.798   2.158   1.445  0.3233 -0.3440 -0.5529
 1901ntf    fn413393   0.761   2.159   1.743 -0.0260 -0.6242 -0.3790
 1901ntf    fn413394   0.954   2.246   1.764  0.3791 -0.2581 -0.2251
 1901ntf    fn413395   0.803   2.361   1.667  0.4734  0.1138  0.2186
 1902ntf    cn113396   6.379   4.369   1.144  0.6993  0.1475  0.0282
 1902ntf    sn213397   6.463   4.332   1.300  0.3337  0.0168  0.1948
 1902ntf    nn313398   6.410   4.446   1.394 -0.1359 -0.2100  0.2059
 1902ntf    sn213399   6.473   4.587   1.420 -0.0809 -0.1698 -0.1355
 1902ntf    cn113400   6.477   4.581   1.602 -0.4850  0.0286 -0.1173
 1902ntf    fn413401   6.251   4.386   1.174  0.4831 -0.2093 -0.6608
 1902ntf    fn413402   6.424   4.482   1.091 -0.2992  0.5050 -0.0895
 1902ntf    fn413403   6.388   4.277   1.050  0.1491  0.3014 -0.1787
 1902ntf    on513404   6.418   4.201   1.340 -0.5129  0.2211 -0.0887
 1902ntf    on513405   6.598   4.341   1.250  0.0870 -0.0979 -0.4980
 1902ntf    on513406   6.382   4.693   1.386  0.2252  0.2118  0.2211
 1902ntf    on513407   6.611   4.607   1.385 -0.0036 -0.0518  0.2245
 1902ntf    fn413408   6.357   4.571   1.656 -0.3461 -0.2606  0.1421
 1902ntf    fn413409   6.533   4.470   1.648 -0.0889  0.2894  0.0380
 1902ntf    fn413410   6.534   4.685   1.660 -0.6212 -0.0409  0.1420
 1903ntf    cn113411   1.225   3.938   0.096 -0.1318 -0.1536  0.1780
 1903ntf    sn213412   1.170   4.088   0.009  0.0394 -0.3150 -0.2108
 1903ntf    nn313413   1.314   4.126  -0.041 -0.0239  0.4226  0.1480
 1903ntf    sn213414   1.356   4.156  -0.189  0.0619  0.1253  0.1103
 1903ntf    cn113415   1.394   3.986  -0.240 -0.0737  0.0545  0.2440
 1903ntf    fn413416   1.327   3.867   0.050  0.1928  0.0716  0.5419
 1903ntf    fn413417   1.267   3.973   0.217  0.4345  0.3979 -0.1730
 1903ntf    fn413418   1.122   3.855   0.105 -0.1617 -0.0804  0.5601
 1903ntf    on513419   1.077   4.036  -0.088  0.1495 -0.3020 -0.3227
 1903ntf    on513420   1.116   4.169   0.116  0.5932  0.1644 -0.2916
 1903ntf    on513421   1.483   4.222  -0.206  0.1494  0.0190  0.3546
 1903ntf    on513422   1.245   4.202  -0.269  0.0898  0.0319  0.0186
 1903ntf    fn413423   1.289   3.911  -0.210  0.1663 -0.3955 -0.0247
 1903ntf    fn413424   1.419   3.974  -0.370 -0.3750  0.0481  0.1864
 1903ntf    fn413425   1.500   3.932  -0.182  0.5263  0.1513 -0.7329
 1904ntf    cn113426   2.694   2.601   5.341 -0.0997 -0.0919  0.2072
 1904ntf    sn213427   2.820   2.469   5.353  0.1690  0.1444  0.0003
 1904ntf    nn313428   2.783   2.400   5.489  0.1280  0.0372 -0.0656
 1904ntf    sn213429   2.679   2.287   5.520  0.1950 -0.0693 -0.2289
 1904ntf    cn113430   2.791   2.144   5.527 -0.0485 -0.2578 -0.1732
 1904ntf    fn413431   2.570   2.556   5.332 -0.2511  0.4464 -0.4622
 1904ntf    fn413432   2.697   2.674   5.451  0.2286 -0.1217  0.2202
 1904ntf    fn413433   2.705   2.680   5.235  0.2910 -0.5419 -0.0965
 1904ntf    on513434   2.809   2.388   5.234  0.4890 -0.5378  0.4314
 1904ntf    on513435   2.947   2.534   5.370  0.7182 -0.8351 -0.2941
 1904ntf    on513436   2.582   2.253   5.419  0.2261  0.3299 -0.3939
 1904ntf    on513437   2.629   2.290   5.655  0.9010  0.6148  0.0243
 1904ntf    fn413438   2.728   2.032   5.496 -0.2828 -0.1636 -0.0477
 1904ntf    fn413439   2.890   2.158   5.441 -0.1643 -0.2502 -0.3065
 1904ntf    fn413440   2.843   2.135   5.648  0.0140 -0.1520 -0.1921
 1905ntf    cn113441   5.689   4.887   2.015  0.3884  0.2122  0.0265
 1905ntf    sn213442   5.786   4.750   2.085  0.2385 -0.1346 -0.4377
 1905ntf    nn313443   5.930   4.790   2.037  0.0441  0.6648 -0.3698
 1905ntf    sn213444   6.020   4.739   1.919  0.1519 -0.1400  0.0521
 1905ntf    cn113445   6.109   4.610   2.010 -0.3141 -0.4167  0.1199
 1905ntf    fn413446   5.691   4.996   2.091 -0.3176  0.1577  0.1328
 1905ntf    fn413447   5.741   4.930   1.901  0.1048  0.1981 -0.1086
 1905ntf    fn413448   5.562   4.857   1.994  0.4866  0.0256 -0.3146
 1905ntf    on513449   5.768   4.774   2.226  0.2163 -0.0125 -0.4606
 1905ntf    on513450   5.732   4.629   2.029  0.4374 -0.0685 -0.7749
 1905ntf    on513451   6.121   4.838   1.891  0.5017 -0.3929  0.4114
 1905ntf    on513452   5.959   4.677   1.804  0.2548 -0.2390  0.0516
 1905ntf    fn413453   6.040   4.537   2.096 -0.2189 -0.6666 -0.0138
 1905ntf    fn413454   6.160   4.521   1.926  0.3429  0.0639  0.0033
 1905ntf    fn413455   6.217   4.659   2.068 -0.6165  0.2747  0.1001
 1906ntf    cn113456   4.024   2.660   5.917  0.3516  0.0029 -0.2083
 1906ntf    sn213457   4.067   2.696   6.090  0.1942 -0.4562 -0.0725
 1906ntf    nn313458   3.939   2.647   6.167 -0.1814 -0.0310 -0.4205
 1906ntf    sn213459   3.808   2.716   6.219  0.1729  0.3679 -0.0426
 1906ntf    cn113460   3.831   2.680   6.395 -0.0335  0.4272 -0.0037
 1906ntf    fn413461   3.939   2.740   5.855 -0.1459 -0.6670 -0.4003
 1906ntf    fn413462   4.133   2.644   5.844  0.1578 -0.1887 -0.4567
 1906ntf    fn413463   3.965   2.543   5.901 -0.0580  0.1798  0.0121
 1906ntf    on513464   4.179   2.608   6.110  0.6331  0.2026  0.4130
 1906ntf    on513465   4.109   2.834   6.092 -0.6446 -0.1867 -0.3881
 1906ntf    on513466   3.686   2.652   6.177  0.0768 -0.0592  0.8911
 1906ntf    on513467   3.806   2.860   6.223 -0.0491  0.3589  0.2151
 1906ntf    fn413468   3.856   2.552   6.416  0.6204  0.5330 -0.1231
 1906ntf    fn413469   3.936   2.747   6.439  0.6295 -0.1872 -0.6377
 1906ntf    fn413470   3.727   2.708   6.473  0.2484 -0.4924  0.7175
 1907ntf    cn113471   3.485   5.009   6.124 -0.1927 -0.3676 -0.1486
 1907ntf    sn213472   3.458   5.119   6.266  0.0600 -0.0118 -0.3745
 1907ntf    nn313473   3.481   5.251   6.184 -0.4592  0.3546  0.0587
 1907ntf    sn213474   3.365   5.322   6.106 -0.5016  0.2128 -0.0057
 1907ntf    cn113475   3.295   5.422   6.240 -0.1297  0.3098  0.1176
 1907ntf    fn413476   3.398   5.020   6.024  0.4707  0.2512 -0.6651
 1907ntf    fn413477   3.602   5.034   6.067 -0.1137 -0.6501 -0.1088
 1907ntf    fn413478   3.483   4.884   6.165  0.1079 -0.2520  0.2223
 1907ntf    on513479   3.325   5.102   6.317  0.3975 -0.2998  0.4310
 1907ntf    on513480   3.563   5.070   6.353 -0.4268 -0.0954  0.1734
 1907ntf    on513481   3.260   5.234   6.059 -0.2838 -0.1447  0.1745
 1907ntf    on513482   3.423   5.417   6.014  0.0161  0.1124  0.2123
 1907ntf    fn413483   3.383   5.507   6.290  0.3014 -0.0437 -0.0412
 1907ntf    fn413484   3.191   5.488   6.192 -0.2969 -0.1950 -0.2253
 1907ntf    fn413485   3.238   5.352   6.337  0.2088 -0.1898 -0.0407
 1908ntf    cn113486   4.596   1.818   6.355  0.1018  0.3808  0.4337
 1908ntf    sn213487   4.752   1.849   6.444  0.2509 -0.1448  0.3587
 1908ntf    nn313488   4.797   1.700   6.464 -0.1927 -0.3115  0.1169
 1908ntf    sn213489   4.806   1.608   6.591  0.1397 -0.0003  0.3197
 1908ntf    cn113490   4.842   1.450   6.509  0.0139  0.0396  0.1859
 1908ntf    fn413491   4.514   1.736   6.419  0.2361 -0.3512 -0.3274
 1908ntf    fn413492   4.533   1.931   6.328 -0.0823  0.2535  0.3302
 1908ntf    fn413493   4.624   1.761   6.240  0.2859 -0.0527  0.6899
 1908ntf    on513494   4.836   1.913   6.345 -0.2714 -0.3991 -0.2544
 1908ntf    on513495   4.720   1.919   6.566 -0.2886  0.5134 -0.1515
 1908ntf    on513496   4.677   1.572   6.646  0.1515 -0.3409  0.1305
 1908ntf    on513497   4.916   1.643   6.677  0.5443  0.1050 -0.2392
 1908ntf    fn413498   4.767   1.422   6.404  0.0329 -0.4598  0.3011
 1908ntf    fn413499   4.968   1.448   6.470 -0.0062  0.2444  0.1110
 1908ntf    fn413500   4.829   1.346   6.591  0.0824 -0.2460 -0.1662
 1909ntf    cn113501   5.618   4.959   0.777 -0.3491  0.2863 -0.2899
 1909ntf    sn213502   5.527   4.832   0.682  0.4652 -0.2331 -0.3851
 1909ntf    nn313503   5.405   4.911   0.622  0.4573  0.0768  0.0333
 1909ntf    sn213504   5.256   4.908   0.671  0.4844 -0.1284  0.1086
 1909ntf    cn113505   5.147   4.905   0.525  0.4878 -0.0615  0.1043
 1909ntf    fn413506   5.672   5.048   0.696  0.0493 -0.2913 -0.6705
 1909ntf    fn413507   5.543   5.019   0.867  0.3926  0.1706  0.4098
 1909ntf    fn413508   5.724   4.908   0.837 -0.6388  0.0280  0.0128
 1909ntf    on513509   5.620   4.789   0.580  0.5508 -0.3095 -0.2747
 1909ntf    on513510   5.497   4.736   0.785 -0.0582  0.0128 -0.3072
 1909ntf    on513511   5.215   5.037   0.720  0.5409  0.0187 -0.2271
 1909ntf    on513512   5.213   4.793   0.745  0.2370  0.2487  0.5580
 1909ntf    fn413513   5.155   4.790   0.460 -0.0648  0.0059 -0.0885
 1909ntf    fn413514   5.021   4.924   0.560  0.3773  0.3324 -0.5048
 1909ntf    fn413515   5.167   5.004   0.440  0.3560 -0.2340 -0.1309
 1910ntf    cn113516   0.723   6.426   0.360 -0.1137 -0.0044 -0.1062
 1910ntf    sn213517   0.603   6.561   0.340 -0.1056  0.0104 -0.0574
 1910ntf    nn313518   0.673   6.644   0.226 -0.0299 -0.1181 -0.1037
 1910ntf    sn213519   0.642   6.626   0.073  0.1210  0.2156 -0.1737
 1910ntf    cn113520   0.499   6.736   0.059 -0.2329 -0.1895  0.2216
 1910ntf    fn413521   0.682   6.356   0.465 -0.2694 -0.0997 -0.2297
 1910ntf    fn413522   0.733   6.345   0.256  0.1831  0.0000 -0.0808
 1910ntf    fn413523   0.848   6.466   0.378 -0.1424  0.2168 -0.3914
 1910ntf    on513524   0.475   6.495   0.327 -0.0777  0.0158 -0.3710
 1910ntf    on513525   0.622   6.633   0.464 -0.0673  0.1907 -0.1684
 1910ntf    on513526   0.593   6.497   0.030  0.3699  0.1367 -0.2263
 1910ntf    on513527   0.740   6.696  -0.007 -0.1117  0.4350 -0.2682
 1910ntf    fn413528   0.524   6.852   0.117 -0.7080  0.0383 -0.0191
 1910ntf    fn413529   0.458   6.769  -0.063  0.1066 -0.0264  0.1515
 1910ntf    fn413530   0.389   6.687   0.115 -0.4305 -0.1930 -0.1661
 1911ntf    cn113531   6.610   4.243   5.989  0.1474  0.2045 -0.0589
 1911ntf    sn213532   6.582   4.264   5.810  0.1120  0.2762 -0.0449
 1911ntf    nn313533   6.673   4.149   5.754 -0.3784 -0.1890  0.1003
 1911ntf    sn213534   6.823   4.152   5.708 -0.4004 -0.0598  0.0354
 1911ntf    cn113535   6.808   4.247   5.554  0.3647  0.1206  0.0689
 1911ntf    fn413536   6.539   4.322   6.068 -0.2660  0.0522 -0.2737
 1911ntf    fn413537   6.582   4.119   6.024  0.2344  0.2086  0.0236
 1911ntf    fn413538   6.735   4.266   6.023  0.1401  0.2309 -0.0500
 1911ntf    on513539   6.440   4.247   5.797  0.0511  0.3217  0.5343
 1911ntf    on513540   6.630   4.398   5.786 -0.0582  0.3406 -0.0277
 1911ntf    on513541   6.863   4.021   5.662  0.1228  0.0350  0.2054
 1911ntf    on513542   6.913   4.231   5.789  0.3225 -0.3539 -0.4610
 1911ntf    fn413543   6.926   4.280   5.502  0.2630 -0.0874 -0.2996
 1911ntf    fn413544   6.741   4.174   5.467 -0.0524  0.2589  0.2754
 1911ntf    fn413545   6.739   4.357   5.577 -0.5299 -0.5064  0.4029
 1912ntf    cn113546   5.619   2.494   1.125 -0.0471 -0.3082  0.0926
 1912ntf    sn213547   5.471   2.585   1.180  0.1376  0.1398 -0.1477
 1912ntf    nn313548   5.537   2.684   1.282 -0.4963  0.4985 -0.0818
 1912ntf    sn213549   5.485   2.725   1.425 -0.1717 -0.0916  0.2099
 1912ntf    cn113550   5.450   2.902   1.409 -0.0470 -0.1003 -0.1642
 1912ntf    fn413551   5.648   2.389   1.200  0.6400 -0.1594  0.0414
 1912ntf    fn413552   5.602   2.439   1.006  0.0948 -0.1188 -0.0158
 1912ntf    fn413553   5.732   2.562   1.122 -0.0565 -0.2641  0.6209
 1912ntf    on513554   5.421   2.643   1.058 -0.6574 -0.0009  0.1104
 1912ntf    on513555   5.388   2.485   1.241 -0.5321  0.8895  0.1858
 1912ntf    on513556   5.591   2.727   1.522 -0.3502 -0.5381  0.4200
 1912ntf    on513557   5.357   2.674   1.468 -0.2642 -0.0246  0.0167
 1912ntf    fn413558   5.389   2.941   1.298  0.0920  0.4104 -0.0674
 1912ntf    fn413559   5.379   2.947   1.511 -0.0002  0.2611 -0.2890
 1912ntf    fn413560   5.559   2.978   1.418 -0.1844  0.1167 -0.3112
 1913ntf    cn113561   0.702   6.209   2.892  0.1382  0.0260  0.3844
 1913ntf    sn213562   0.821   6.144   2.771 -0.1665  0.0719  0.0578
 1913ntf    nn313563   0.945   6.140   2.868 -0.3274 -0.0755  0.2587
 1913ntf    sn213564   1.069   6.230   2.903 -0.1218 -0.1940 -0.1562
 1913ntf    cn113565   1.015   6.315   3.054 -0.4651  0.0484 -0.4133
 1913ntf    fn413566   0.725   6.338   2.909  0.1982  0.0831 -0.1065
 1913ntf    fn413567   0.576   6.202   2.852  0.2488  0.0708  0.0186
 1913ntf    fn413568   0.710   6.148   3.009 -0.4850  0.2105  0.5261
 1913ntf    on513569   0.786   6.010   2.733 -0.2600  0.1291 -0.0542
 1913ntf    on513570   0.833   6.241   2.665 -0.1104  0.5663  0.5150
 1913ntf    on513571   1.104   6.340   2.817  0.6973 -0.4372 -0.1408
 1913ntf    on513572   1.179   6.160   2.965 -0.3170 -0.2475  0.1311
 1913ntf    fn413573   1.118   6.387   3.096 -1.0570  0.3640  0.5392
 1913ntf    fn413574   0.917   6.400   3.031 -0.2937  0.2115 -0.5451
 1913ntf    fn413575   0.976   6.230   3.147 -0.0274  0.5727  0.2644
 1914ntf    cn113576   3.946   5.464   0.397 -0.1446  0.0393  0.3207
 1914ntf    sn213577   4.056   5.386   0.520 -0.1077 -0.0584  0.2248
 1914ntf    nn313578   4.193   5.459   0.504 -0.1641  0.0099  0.0496
 1914ntf    sn213579   4.340   5.410   0.478 -0.1807  0.0529 -0.1274
 1914ntf    cn113580   4.422   5.572   0.492 -0.4938  0.2019 -0.0051
 1914ntf    fn413581   3.976   5.463   0.268 -0.2556 -0.5950  0.2988
 1914ntf    fn413582   3.830   5.401   0.409 -0.0900 -0.1220  0.0004
 1914ntf    fn413583   3.935   5.592   0.428  0.4098  0.1095  0.2406
 1914ntf    on513584   3.998   5.418   0.648 -0.2728 -0.3379  0.2222
 1914ntf    on513585   4.056   5.246   0.482 -0.0655  0.1147 -0.4195
 1914ntf    on513586   4.361   5.370   0.341 -0.0413 -0.4259  0.0318
 1914ntf    on513587   4.405   5.331   0.580  0.3236 -0.1496 -0.5994
 1914ntf    fn413588   4.547   5.577   0.535 -0.3575 -0.4193 -0.3130
 1914ntf    fn413589   4.426   5.630   0.373  0.5055  0.3349  0.0815
 1914ntf    fn413590   4.360   5.654   0.574 -0.5642  0.0841  0.0597
 1915ntf    cn113591   6.878   6.232   2.914 -0.0762 -0.1551 -0.2285
 1915ntf    sn213592   7.010   6.263   2.794  0.1741  0.1440  0.1235
 1915ntf    nn313593   7.046   6.416   2.805 -0.1758  0.2641 -0.3989
 1915ntf    sn213594   6.970   6.545   2.756 -0.0708  0.4546 -0.0578
 1915ntf    cn113595   7.081   6.607   2.626  0.4137 -0.2910 -0.0129
 1915ntf    fn413596   6.766   6.300   2.894  0.2600  0.3603 -0.3557
 1915ntf    fn413597   6.836   6.106   2.911 -0.6722  0.0321 -0.0323
 1915ntf    fn413598   6.917   6.252   3.039 -0.5956  0.2404 -0.1238
 1915ntf    on513599   7.116   6.177   2.840 -0.4576 -0.5206  0.3607
 1915ntf    on513600   6.946   6.236   2.668  0.0322  0.8835  0.0328
 1915ntf    on513601   6.966   6.648   2.856 -0.4683 -0.1822  0.5955
 1915ntf    on513602   6.847   6.532   2.683 -0.1253  0.1681  0.0799
 1915ntf    fn413603   7.207   6.608   2.668  0.5590 -0.1400 -0.4516
 1915ntf    fn413604   7.071   6.527   2.521 -0.1598  0.1328 -0.2905
 1915ntf    fn413605   7.051   6.732   2.595  0.1592 -0.3417  0.0316
 1916ntf    cn113606   5.207   3.067   4.120 -0.1065  0.1482 -0.7466
 1916ntf    sn213607   5.332   2.936   4.134 -0.0838  0.2275 -0.1801
 1916ntf    nn313608   5.258   2.839   4.233  0.3674 -0.1019 -0.1633
 1916ntf    sn213609   5.203   2.695   4.203  0.0893 -0.0285 -0.0066
 1916ntf    cn113610   5.109   2.663   4.355 -0.3513  0.0596 -0.2578
 1916ntf    fn413611   5.227   3.141   4.012 -0.1880  0.0703 -0.8155
 1916ntf    fn413612   5.082   3.026   4.138  0.0559 -0.1891 -0.3682
 1916ntf    fn413613   5.226   3.156   4.217  0.1301 -0.4537 -0.2334
 1916ntf    on513614   5.340   2.892   3.997 -0.6734  0.2915 -0.2359
 1916ntf    on513615   5.446   3.003   4.193 -0.0525 -0.1071  0.1467
 1916ntf    on513616   5.306   2.594   4.206 -0.1584 -0.2853 -0.0321
 1916ntf    on513617   5.097   2.683   4.106  0.4470 -0.3143 -0.3644
 1916ntf    fn413618   5.010   2.576   4.349 -0.4431  0.1491 -0.0478
 1916ntf    fn413619   5.190   2.624   4.452 -0.4599  0.2112 -0.1061
 1916ntf    fn413620   5.063   2.777   4.404  1.0323  0.5377 -0.0367
 1917ntf    cn113621   2.696   3.939   1.463  0.1028  0.1514  0.1251
 1917ntf    sn213622   2.681   3.767   1.409  0.5195  0.1898 -0.1187
 1917ntf    nn313623   2.566   3.780   1.303  0.0772  0.2218  0.3640
 1917ntf    sn213624   2.454   3.680   1.257  0.3546  0.0957 -0.0417
 1917ntf    cn113625   2.418   3.747   1.092  0.2446  0.1033 -0.0148
 1917ntf    fn413626   2.662   4.024   1.368  0.0261  0.2558  0.2444
 1917ntf    fn413627   2.628   3.970   1.573 -0.1467 -0.1846  0.0670
 1917ntf    fn413628   2.820   3.981   1.486  0.3305 -0.3170 -0.2521
 1917ntf    on513629   2.808   3.745   1.344  0.4356 -0.0805 -0.1932
 1917ntf    on513630   2.638   3.700   1.530 -0.0794  0.0907 -0.3816
 1917ntf    on513631   2.330   3.693   1.330  0.2093 -0.0444 -0.2631
 1917ntf    on513632   2.493   3.543   1.231 -0.4469 -0.2064  0.2894
 1917ntf    fn413633   2.380   3.873   1.091 -0.2977 -0.0610 -0.4879
 1917ntf    fn413634   2.526   3.740   1.016  0.3488  0.5818  0.0870
 1917ntf    fn413635   2.324   3.676   1.032 -0.1829 -0.0240  0.7948
 1918ntf    cn113636   0.796   3.903   6.116 -0.2221  0.1233  0.1601
 1918ntf    sn213637   0.692   4.008   6.009 -0.1496  0.1930  0.1591
 1918ntf    nn313638   0.693   4.141   6.093  0.7622  0.0201  0.4392
 1918ntf    sn213639   0.743   4.286   6.060 -0.0307  0.2003 -0.0138
 1918ntf    cn113640   0.746   4.359   6.227  0.1963 -0.1465  0.1351
 1918ntf    fn413641   0.922   3.906   6.078 -0.3623  0.2417 -0.3020
 1918ntf    fn413642   0.792   3.945   6.242 -0.3619  0.3594  0.0786
 1918ntf    fn413643   0.758   3.776   6.111  0.4111 -0.0430 -0.5842
 1918ntf    on513644   0.752   4.017   5.878  0.0492 -0.4005  0.2059
 1918ntf    on513645   0.565   3.944   6.027  0.0400 -0.2248  0.0073
 1918ntf    on513646   0.636   4.361   5.998 -0.1382 -0.0761 -0.1599
 1918ntf    on513647   0.878   4.301   6.010 -0.0279  0.1708 -0.0145
 1918ntf    fn413648   0.670   4.291   6.311  0.1681  0.2464  0.4293
 1918ntf    fn413649   0.865   4.341   6.281  0.2826 -0.5844 -0.2013
 1918ntf    fn413650   0.707   4.486   6.224  0.0075 -0.2008  0.2833
 1919ntf    cn113651   4.415   0.008   3.970 -0.3501 -0.6200 -0.5239
 1919ntf    sn213652   4.392  -0.107   4.108  0.1556  0.0455  0.1235
 1919ntf    nn313653   4.240  -0.139   4.085  0.2037 -0.0066 -0.1308
 1919ntf    sn213654   4.122  -0.147   4.189 -0.0552  0.1878 -0.4092
 1919ntf    cn113655   4.029  -0.299   4.152 -0.1527  0.1083  0.1538
 1919ntf    fn413656   4.394  -0.052   3.853  0.8781 -0.2890 -0.9327
 1919ntf    fn413657   4.326   0.106   3.967 -0.1779 -0.4520 -0.2035
 1919ntf    fn413658   4.535   0.063   3.956 -0.4865 -0.2930 -0.4157
 1919ntf    on513659   4.475  -0.221   4.080  0.1294  0.1153 -0.2463
 1919ntf    on513660   4.414  -0.027   4.225  0.2006  0.2902 -0.0523
 1919ntf    on513661   4.018  -0.049   4.168 -0.1486 -0.0428 -1.0787
 1919ntf    on513662   4.163  -0.176   4.324  0.0963 -0.1587 -0.5284
 1919ntf    fn413663   4.004  -0.309   4.022 -0.7216  0.5406  0.2292
 1919ntf    fn413664   4.099  -0.403   4.194 -0.1865  0.0930  0.1708
 1919ntf    fn413665   3.912  -0.312   4.213 -0.1400 -0.2568  0.1061
 1920ntf    cn113666   4.151   5.234   2.274  0.0640 -0.0890  0.4071
 1920ntf    sn213667   4.256   5.090   2.237  0.2702  0.0386  0.4872
 1920ntf    nn313668   4.393   5.125   2.304  0.1463  0.7374  0.3780
 1920ntf    sn213669   4.524   5.198   2.255  0.4752 -0.1537 -0.0960
 1920ntf    cn113670   4.623   5.058   2.196  0.0615 -0.3723 -0.2814
 1920ntf    fn413671   4.148   5.265   2.403 -0.2113 -0.2931  0.4503
 1920ntf    fn413672   4.192   5.342   2.210  0.4840 -0.4836  0.0035
 1920ntf    fn413673   4.028   5.209   2.233  0.1689  0.0111  0.0296
 1920ntf    on513674   4.183   4.983   2.302  0.0351  0.1905  0.4764
 1920ntf    on513675   4.257   5.089   2.092 -0.6066 -0.4692  0.4784
 1920ntf    on513676   4.599   5.245   2.368 -0.1830  0.1686  0.2154
 1920ntf    on513677   4.513   5.281   2.138 -0.0842 -0.0612  0.0152
 1920ntf    fn413678   4.546   4.972   2.131 -0.6368  0.0371 -0.0062
 1920ntf    fn413679   4.714   5.092   2.106  0.2990 -0.1143  0.0514
 1920ntf    fn413680   4.682   4.993   2.296  0.3862  0.3639  0.0136
 1921ntf    cn113681   5.664   1.313   1.372 -0.1757  0.4600  0.5270
 1921ntf    sn213682   5.824   1.382   1.423  0.3068 -0.1387 -0.1649
 1921ntf    nn313683   5.914   1.331   1.305  0.3055  0.3752 -0.3911
 1921ntf    sn213684   6.026   1.221   1.300  0.0148  0.0434  0.2716
 1921ntf    cn113685   5.974   1.137   1.148  0.0375 -0.1381  0.3640
 1921ntf    fn413686   5.663   1.181   1.365  0.0431  0.5055 -0.4422
 1921ntf    fn413687   5.567   1.351   1.454  0.0705  0.4672  0.8176
 1921ntf    fn413688   5.627   1.354   1.252  0.3353  0.1077  0.2466
 1921ntf    on513689   5.796   1.523   1.422 -0.1793 -0.2322 -0.1319
 1921ntf    on513690   5.866   1.330   1.551 -0.6072 -0.6757 -0.0768
 1921ntf    on513691   6.023   1.115   1.397 -0.4439 -0.4929 -0.3199
 1921ntf    on513692   6.158   1.268   1.265  0.2131 -0.5766  0.1718
 1921ntf    fn413693   5.929   1.222   1.057  0.6450  0.0371  0.2261
 1921ntf    fn413694   6.073   1.078   1.083  0.1856  0.3350  0.1547
 1921ntf    fn413695   5.883   1.043   1.167 -0.0703 -0.1210 -0.0476
 1922ntf    cn113696   1.526   1.024   6.089 -0.3690 -0.4155 -0.2653
 1922ntf    sn213697   1.536   1.171   5.983 -0.1400 -0.2885 -0.0690
 1922ntf    nn313698   1.602   1.119   5.851  0.4678  0.9764 -0.2836
 1922ntf    sn213699   1.533   1.065   5.721  0.3114 -0.0044  0.1937
 1922ntf    cn113700   1.618   0.905   5.718  0.2279 -0.0450 -0.0337
 1922ntf    fn413701   1.414   0.957   6.068 -0.9896  0.3054  0.6290
 1922ntf    fn413702   1.627   0.940   6.075  0.4265  0.4674  0.0565
 1922ntf    fn413703   1.527   1.052   6.218 -0.2944  0.2949 -0.4166
 1922ntf    on513704   1.403   1.226   5.982  0.1303  0.4660  1.4397
 1922ntf    on513705   1.633   1.256   6.049 -0.0392 -0.6761  0.2879
 1922ntf    on513706   1.585   1.135   5.606  0.0420 -0.4932 -0.2338
 1922ntf    on513707   1.392   1.033   5.721  0.2613  0.2155 -0.1668
 1922ntf    fn413708   1.600   0.849   5.837  0.1689  0.1334  0.0408
 1922ntf    fn413709   1.571   0.825   5.624  0.2666 -0.1094  0.0010
 1922ntf    fn413710   1.748   0.924   5.700  0.1060  0.5785 -0.2792
 1923ntf    cn113711   2.263   2.992   2.138  0.1404  0.1199  0.1566
 1923ntf    sn213712   2.240   2.816   2.176 -0.0121  0.1259  0.0920
 1923ntf    nn313713   2.248   2.824   2.333  0.1116 -0.1132  0.0974
 1923ntf    sn213714   2.152   2.755   2.436 -0.1598  0.1213  0.0030
 1923ntf    cn113715   2.070   2.909   2.486  0.1533  0.2179  0.2212
 1923ntf    fn413716   2.211   3.073   2.229  0.1124  0.3689 -0.0771
 1923ntf    fn413717   2.390   3.028   2.121  0.0482  0.2833 -0.1941
 1923ntf    fn413718   2.198   3.027   2.028  0.1498 -0.2224  0.0398
 1923ntf    on513719   2.109   2.797   2.119  0.2981 -0.0514 -0.5623
 1923ntf    on513720   2.358   2.755   2.120  0.1696  0.0982  0.4949
 1923ntf    on513721   2.216   2.706   2.556 -0.0602 -0.0713 -0.1284
 1923ntf    on513722   2.037   2.682   2.389 -0.1489 -0.3173  0.6431
 1923ntf    fn413723   2.150   3.012   2.511  0.1875 -0.0790  1.4187
 1923ntf    fn413724   1.992   2.949   2.387  0.2874 -0.2055 -0.0567
 1923ntf    fn413725   1.999   2.898   2.597 -0.1411  0.1539  0.0263
 1924ntf    cn113726   4.813   5.927   6.805  0.4415 -0.0364 -0.5906
 1924ntf    sn213727   4.919   5.920   6.658  0.3785  0.1096 -0.6428
 1924ntf    nn313728   4.840   6.028   6.574 -0.5529 -0.1562 -0.1211
 1924ntf    sn213729   4.899   6.120   6.462  0.1587 -0.2357  0.1787
 1924ntf    cn113730   4.954   5.998   6.339 -0.0521 -0.0010 -0.1516
 1924ntf    fn413731   4.693   5.874   6.788  0.5691 -0.4413 -0.2670
 1924ntf    fn413732   4.868   5.865   6.908 -0.1344 -0.0906 -0.3147
 1924ntf    fn413733   4.796   6.051   6.848 -0.1606 -0.2812 -0.0997
 1924ntf    on513734   5.047   5.967   6.703  0.1503 -0.3380  0.4861
 1924ntf    on513735   4.897   5.786   6.609  0.2508 -0.1864  0.2207
 1924ntf    on513736   5.022   6.183   6.504 -0.0132  0.1151  0.1550
 1924ntf    on513737   4.792   6.192   6.397  0.2781 -0.2635 -0.0483
 1924ntf    fn413738   4.850   5.925   6.303 -0.0629 -0.1934  0.2654
 1924ntf    fn413739   4.996   6.053   6.226  0.6764 -0.4258 -0.0987
 1924ntf    fn413740   5.052   5.922   6.384  0.0015  0.1718  0.0258
 1925ntf    cn113741   5.575   4.749   3.285  0.3124 -0.0224 -0.0429
 1925ntf    sn213742   5.457   4.612   3.297 -0.1378  0.3820  0.1900
 1925ntf    nn313743   5.438   4.606   3.453  0.4591 -0.7765  0.2331
 1925ntf    sn213744   5.317   4.546   3.531  0.2122 -0.0643  0.4088
 1925ntf    cn113745   5.401   4.426   3.639  0.2323 -0.4345 -0.0157
 1925ntf    fn413746   5.572   4.794   3.160  0.0639 -0.5226 -0.2179
 1925ntf    fn413747   5.540   4.849   3.363 -0.0585  0.0789 -0.3369
 1925ntf    fn413748   5.699   4.710   3.312  0.2221  0.0959  0.5526
 1925ntf    on513749   5.339   4.655   3.226 -0.1747  0.0228  0.0299
 1925ntf    on513750   5.532   4.501   3.242 -0.2932  0.0665  0.6098
 1925ntf    on513751   5.221   4.472   3.453 -0.1043 -0.1432  0.8633
 1925ntf    on513752   5.262   4.644   3.622 -0.1451 -0.1892  0.3296
 1925ntf    fn413753   5.319   4.339   3.696 -0.0642 -0.2293 -0.1257
 1925ntf    fn413754   5.499   4.356   3.584  0.4836  0.0543 -0.1942
 1925ntf    fn413755   5.448   4.494   3.742  0.2633 -0.0141 -0.3098
 1926ntf    cn113756   0.907   5.667   2.523  0.3933  0.0095 -0.5055
 1926ntf    sn213757   0.854   5.810   2.424  0.1587  0.2336 -0.0579
 1926ntf    nn313758   0.889   5.754   2.282 -0.0489 -0.1121  0.0248
 1926ntf    sn213759   0.948   5.837   2.162 -0.0881  0.0028  0.0837
 1926ntf    cn113760   0.807   5.944   2.122 -0.0055  0.0466 -0.0905
 1926ntf    fn413761   0.888   5.679   2.653 -0.7365  0.5689 -0.7164
 1926ntf    fn413762   0.843   5.556   2.492  0.0162  0.0116  0.2513
 1926ntf    fn413763   1.039   5.656   2.519  0.4007  0.1679 -0.7231
 1926ntf    on513764   0.712   5.814   2.448  0.1571  0.1754 -0.0589
 1926ntf    on513765   0.932   5.916   2.483  0.1747 -0.1509  0.6199
 1926ntf    on513766   0.963   5.758   2.042 -0.0012  0.4351 -0.1937
 1926ntf    on513767   1.050   5.935   2.188  0.0440 -0.0158 -0.3546
 1926ntf    fn413768   0.704   5.874   2.076  0.4552 -0.3557 -0.5321
 1926ntf    fn413769   0.762   6.018   2.222  0.1475  0.2673 -0.1868
 1926ntf    fn413770   0.835   6.032   2.028  0.0887  0.0948 -0.0171
 1927ntf    cn113771   5.811   0.769   1.806 -0.2083 -0.3240  0.0820
 1927ntf    sn213772   5.814   0.704   1.976 -0.0029 -0.1085  0.1615
 1927ntf    nn313773   5.697   0.792   2.032 -0.1731 -0.3968  0.2592
 1927ntf    sn213774   5.684   0.872   2.166 -0.1301 -0.0918  0.0822
 1927ntf    cn113775   5.615   0.745   2.276 -0.2458 -0.1556 -0.0630
 1927ntf    fn413776   5.844   0.897   1.808 -0.4783 -0.2442 -0.5391
 1927ntf    fn413777   5.896   0.694   1.737 -0.1306 -0.0877 -0.0809
 1927ntf    fn413778   5.690   0.757   1.754 -0.0826  0.1510 -0.3296
 1927ntf    on513779   5.782   0.565   1.958  0.3179 -0.0698 -0.7605
 1927ntf    on513780   5.952   0.739   2.001 -0.1525  0.4067  0.2628
 1927ntf    on513781   5.587   0.978   2.164 -0.8206 -0.7225 -0.4887
 1927ntf    on513782   5.801   0.913   2.239 -0.2913  0.4445  0.0432
 1927ntf    fn413783   5.558   0.792   2.386  0.3009 -0.3270  0.3010
 1927ntf    fn413784   5.523   0.676   2.211 -0.3905  0.3988 -0.4549
 1927ntf    fn413785   5.711   0.662   2.313 -0.1980 -0.2205 -0.3362
 1928ntf    cn113786   6.216   0.678   2.562  0.2728  0.1801  0.2665
 1928ntf    sn213787   6.368   0.581   2.541  0.1457 -0.0064  0.2015
 1928ntf    nn313788   6.312   0.435   2.555 -0.3324  0.1669  0.0890
 1928ntf    sn213789   6.388   0.302   2.588 -0.0330  0.2956 -0.0785
 1928ntf    cn113790   6.315   0.206   2.452 -0.1251 -0.0788  0.2334
 1928ntf    fn413791   6.130   0.663   2.463  0.4279  0.3689  0.1018
 1928ntf    fn413792   6.152   0.648   2.674 -0.5311  0.7177 -0.0421
 1928ntf    fn413793   6.245   0.807   2.570 -0.3509  0.3583 -0.2664
 1928ntf    on513794   6.422   0.611   2.411  0.0514  0.0193  0.1688
 1928ntf    on513795   6.446   0.625   2.655  0.3975 -0.0608  0.0521
 1928ntf    on513796   6.354   0.230   2.708  0.4755 -0.2105 -0.2336
 1928ntf    on513797   6.527   0.296   2.550 -0.1369 -0.0031 -0.4182
 1928ntf    fn413798   6.376   0.095   2.415  0.0976  0.1348 -0.0453
 1928ntf    fn413799   6.189   0.175   2.481 -0.2493  0.2340  0.0350
 1928ntf    fn413800   6.318   0.271   2.337  0.0942  0.0899  0.3351
 1929ntf    cn113801   5.735   6.582   0.933  0.1239  0.2610 -0.1132
 1929ntf    sn213802   5.568   6.652   0.920  0.0476  0.1155  0.0752
 1929ntf    nn313803   5.592   6.791   0.990  0.3344  0.1243 -0.0390
 1929ntf    sn213804   5.593   6.827   1.142  0.0705  0.0534 -0.0192
 1929ntf    cn113805   5.423   6.889   1.159  0.1164  0.1314  0.1701
 1929ntf    fn413806   5.785   6.585   1.056 -0.0820 -0.2117 -0.0180
 1929ntf    fn413807   5.755   6.461   0.884  0.3990  0.3238 -0.1601
 1929ntf    fn413808   5.822   6.652   0.862  0.2712 -0.0136 -0.2049
 1929ntf    on513809   5.546   6.669   0.778  0.6642 -0.3989 -0.0858
 1929ntf    on513810   5.477   6.565   0.990 -0.0951  0.0419 -0.2005
 1929ntf    on513811   5.671   6.944   1.178 -0.2515  0.2539  0.0313
 1929ntf    on513812   5.593   6.719   1.237  0.1385 -0.2679 -0.3844
 1929ntf    fn413813   5.332   6.798   1.126  0.4985 -0.2106  0.0524
 1929ntf    fn413814   5.390   6.931   1.280  0.3517 -0.2461  0.3686
 1929ntf    fn413815   5.403   6.994   1.082 -0.0902 -0.4404 -0.5739
 1930ntf    cn113816   4.124   4.736   2.905 -0.6644 -0.0154 -0.1766
 1930ntf    sn213817   4.226   4.670   3.040 -0.4216  0.5048 -0.1034
 1930ntf    nn313818   4.370   4.692   2.980 -0.2752 -0.3315 -0.0649
 1930ntf    sn213819   4.490   4.591   2.973 -0.0887 -0.1590  0.5160
 1930ntf    cn113820   4.604   4.696   2.878 -0.3015 -0.3039  0.0936
 1930ntf    fn413821   4.153   4.864   2.885  0.0826 -0.1164  0.2323
 1930ntf    fn413822   4.169   4.684   2.792 -0.0039  0.2846 -0.0578
 1930ntf    fn413823   3.995   4.712   2.920 -0.7040  0.4615  0.2808
 1930ntf    on513824   4.189   4.766   3.141 -0.0085  0.2563  0.2913
 1930ntf    on513825   4.182   4.535   3.063  0.9292  0.0721  0.0524
 1930ntf    on513826   4.465   4.484   2.880  0.1065 -0.1428  0.4449
 1930ntf    on513827   4.561   4.555   3.093  0.0316  0.2112  0.5554
 1930ntf    fn413828   4.723   4.638   2.866 -0.1229  0.0730  0.0346
 1930ntf    fn413829   4.564   4.722   2.755 -0.2853 -0.0279  0.1450
 1930ntf    fn413830   4.628   4.804   2.951  0.2397 -0.5614  0.3072
 1931ntf    cn113831   4.404   4.905   4.987  0.1616  0.1136  0.1222
 1931ntf    sn213832   4.438   4.804   4.839  0.0284  0.4186 -0.1170
 1931ntf    nn313833   4.297   4.738   4.816  0.1641 -0.0334  0.3342
 1931ntf    sn213834   4.190   4.763   4.704  0.5710 -0.3642 -0.1306
 1931ntf    cn113835   4.147   4.594   4.651 -0.2206 -0.1485 -0.1790
 1931ntf    fn413836   4.303   4.989   4.978 -0.0075 -0.1371 -0.3463
 1931ntf    fn413837   4.383   4.832   5.095 -0.0833  0.1771  0.1170
 1931ntf    fn413838   4.509   4.982   5.011  0.1077 -0.0346  0.8480
 1931ntf    on513839   4.477   4.899   4.738 -0.0252  0.1131 -0.4243
 1931ntf    on513840   4.534   4.706   4.882 -0.7152 -0.3508 -0.1902
 1931ntf    on513841   4.245   4.824   4.585  0.0915 -0.0734 -0.2047
 1931ntf    on513842   4.068   4.818   4.757  0.5704 -0.2830 -0.2160
 1931ntf    fn413843   4.257   4.542   4.599 -0.0932 -0.1659  0.1085
 1931ntf    fn413844   4.119   4.508   4.747 -0.0045  0.0943  0.1018
 1931ntf    fn413845   4.040   4.592   4.573 -0.0389  0.5142 -0.4477
 1932ntf    cn113846   6.187   6.738   1.519  0.1839  0.1726  0.2017
 1932ntf    sn213847   6.146   6.875   1.631  0.0541  0.1120  0.2288
 1932ntf    nn313848   6.063   6.976   1.544  0.0196  0.3240  0.5031
 1932ntf    sn213849   5.911   6.957   1.506  0.2058 -0.1083 -0.0455
 1932ntf    cn113850   5.833   7.084   1.609  0.0116 -0.2555 -0.0121
 1932ntf    fn413851   6.228   6.632   1.587  0.5837  0.0874 -0.1667
 1932ntf    fn413852   6.078   6.705   1.451  0.4154 -0.4955  0.1470
 1932ntf    fn413853   6.277   6.760   1.425 -0.3202 -0.0331 -0.3380
 1932ntf    on513854   6.066   6.813   1.734 -0.4401  0.5746  0.1265
 1932ntf    on513855   6.271   6.934   1.674 -0.0878  0.1243  0.6309
 1932ntf    on513856   5.838   6.837   1.541  0.3801 -0.2095 -0.0258
 1932ntf    on513857   5.868   7.022   1.385  0.5466  1.0513  0.4466
 1932ntf    fn413858   5.702   7.106   1.601  0.0527  0.0531  0.1258
 1932ntf    fn413859   5.867   7.067   1.736  0.3248  0.3141 -0.0206
 1932ntf    fn413860   5.896   7.195   1.574 -0.1042 -0.2077 -0.0700
 1933ntf    cn113861   0.691   6.013   5.499 -0.2987 -0.0845 -0.0164
 1933ntf    sn213862   0.845   5.919   5.524 -0.1685  0.0587 -0.2742
 1933ntf    nn313863   0.890   5.889   5.377 -1.1774  0.0935 -0.5974
 1933ntf    sn213864   0.916   5.748   5.313 -0.1298 -0.0906  0.2188
 1933ntf    cn113865   1.065   5.789   5.216 -0.1018 -0.4128  0.1251
 1933ntf    fn413866   0.607   5.941   5.424  0.0338 -0.5653  0.0677
 1933ntf    fn413867   0.629   6.051   5.609 -0.1019  0.2052 -0.0063
 1933ntf    fn413868   0.721   6.117   5.424 -0.2311 -0.2817 -0.2676
 1933ntf    on513869   0.927   6.010   5.600  0.1383 -0.2199 -0.2712
 1933ntf    on513870   0.799   5.800   5.591  0.4397  0.0525  0.1410
 1933ntf    on513871   0.822   5.701   5.215  0.1420  0.0159 -0.0936
 1933ntf    on513872   0.974   5.653   5.405 -0.3492 -0.2312  0.2119
 1933ntf    fn413873   1.126   5.682   5.168  0.0457 -0.2088 -0.1422
 1933ntf    fn413874   1.034   5.859   5.108 -0.3871 -0.2494  0.3100
 1933ntf    fn413875   1.164   5.847   5.281 -0.0040 -0.4554  0.0124
 1934ntf    cn113876   1.222   0.992   5.000  0.1160 -0.1864 -0.3787
 1934ntf    sn213877   1.369   0.955   4.899  0.1739  0.0707 -0.3899
 1934ntf    nn313878   1.481   1.032   4.976  0.2960 -0.0372 -0.4594
 1934ntf    sn213879   1.620   1.082   4.921  0.7383 -0.3660  0.3389
 1934ntf    cn113880   1.576   1.246   4.855  0.0970 -0.6630  0.0145
 1934ntf    fn413881   1.228   0.958   5.128 -0.8865  0.1030 -0.2489
 1934ntf    fn413882   1.187   1.120   4.994 -0.0318 -0.1910  0.2203
 1934ntf    fn413883   1.120   0.929   4.944 -0.3502 -0.1762  0.4400
 1934ntf    on513884   1.385   0.812   4.890 -0.5399 -0.0508  0.1039
 1934ntf    on513885   1.336   1.023   4.777 -0.2264  0.5933  0.0020
 1934ntf    on513886   1.666   1.006   4.808 -0.3721 -0.6996  0.0992
 1934ntf    on513887   1.715   1.112   5.025  0.2882 -0.2764  0.7323
 1934ntf    fn413888   1.523   1.336   4.936  0.8780  0.3705 -0.5990
 1934ntf    fn413889   1.684   1.301   4.802 -0.1052 -0.1102  0.1707
 1934ntf    fn413890   1.489   1.227   4.758  0.2344 -0.3384 -0.1732
 1935ntf    cn113891   2.788   2.200   6.110  0.0895  0.1650  0.1696
 1935ntf    sn213892   2.676   2.329   6.174 -0.2368  0.0682 -0.2021
 1935ntf    nn313893   2.549   2.245   6.212 -0.3426  0.1297 -0.4214
 1935ntf    sn213894   2.512   2.171   6.346 -0.1437  0.2885 -0.2800
 1935ntf    cn113895   2.383   2.281   6.411 -0.2051  0.1572 -0.1805
 1935ntf    fn413896   2.763   2.175   5.983  0.0209  0.0333  0.2090
 1935ntf    fn413897   2.917   2.227   6.114  0.0938  0.1606  0.0568
 1935ntf    fn413898   2.772   2.083   6.169 -0.0049  0.4746  0.7695
 1935ntf    on513899   2.750   2.385   6.284 -0.1226  0.0679 -0.2788
 1935ntf    on513900   2.645   2.417   6.065  0.4341  0.0786 -0.3890
 1935ntf    on513901   2.612   2.159   6.449  0.0641  0.3198 -0.4751
 1935ntf    on513902   2.437   2.052   6.317  0.2965 -0.0103 -0.1858
 1935ntf    fn413903   2.331   2.246   6.528  0.5587 -0.1170  0.0807
 1935ntf    fn413904   2.435   2.396   6.451 -0.0591 -0.1447  0.5085
 1935ntf    fn413905   2.289   2.306   6.321 -0.4055  0.5892  0.1433
 1936ntf    cn113906   4.226   4.369   6.632  0.6743 -0.1055 -0.0023
 1936ntf    sn213907   4.281   4.514   6.728  0.4188 -0.0349  0.0385
 1936ntf    nn313908   4.169   4.617   6.692 -0.1577 -0.5637  0.2884
 1936ntf    sn213909   4.100   4.727   6.780  0.2887  0.0076 -0.0674
 1936ntf    cn113910   4.149   4.864   6.671  0.4817  0.0399  0.0583
 1936ntf    fn413911   4.105   4.341   6.678  0.7396 -0.0770  0.1881
 1936ntf    fn413912   4.224   4.387   6.501  0.1346 -0.0723  0.0102
 1936ntf    fn413913   4.301   4.264   6.661  0.4045 -0.1228  0.6557
 1936ntf    on513914   4.289   4.469   6.865  0.5828 -0.3348 -0.0693
 1936ntf    on513915   4.408   4.548   6.669  0.3919 -0.0050 -0.0009
 1936ntf    on513916   4.167   4.775   6.899 -0.8176  0.6534  0.3101
 1936ntf    on513917   3.956   4.732   6.772  0.2351 -0.4312  0.5177
 1936ntf    fn413918   4.112   4.853   6.544 -0.3575 -0.0380  0.3049
 1936ntf    fn413919   4.081   4.972   6.704 -0.6092 -0.5735 -0.1217
 1936ntf    fn413920   4.279   4.886   6.664  0.3946  0.4867 -0.2034
 1937ntf    cn113921   3.329   0.295   4.265  0.3740 -0.2089 -0.2766
 1937ntf    sn213922   3.442   0.406   4.355  0.4397 -0.1540 -0.4275
 1937ntf    nn313923   3.346   0.518   4.409  1.1989  0.2626  0.0745
 1937ntf    sn213924   3.319   0.667   4.368  0.5781  0.0824 -0.1862
 1937ntf    cn113925   3.241   0.723   4.522 -0.0643  0.1659 -0.5423
 1937ntf    fn413926   3.219   0.270   4.335  0.7144  0.2156  0.4160
 1937ntf    fn413927   3.295   0.351   4.150 -0.0623  0.1332  0.0115
 1937ntf    fn413928   3.389   0.180   4.244  0.0540 -0.4478  0.1039
 1937ntf    on513929   3.503   0.332   4.463 -0.6374 -0.8937 -0.3103
 1937ntf    on513930   3.530   0.462   4.255  0.1942  0.6725 -0.1875
 1937ntf    on513931   3.213   0.678   4.271  0.3731  0.7951  0.1150
 1937ntf    on513932   3.428   0.761   4.356  0.5146  0.2174  0.2838
 1937ntf    fn413933   3.121   0.667   4.536  0.2104 -0.3691 -0.3016
 1937ntf    fn413934   3.319   0.716   4.628 -0.3344  0.3397 -0.3305
 1937ntf    fn413935   3.229   0.854   4.511  0.2228  0.2792  0.4094
 1938ntf    cn113936   0.076   4.288   2.509 -0.4479  0.2070  0.0324
 1938ntf    sn213937   0.111   4.267   2.686  0.1098 -0.4096 -0.1478
 1938ntf    nn313938   0.052   4.405   2.730  0.1202 -0.3909 -0.1917
 1938ntf    sn213939   0.141   4.510   2.806 -0.0499 -0.0940 -0.4020
 1938ntf    cn113940   0.017   4.568   2.927 -0.0059 -0.3638 -0.2257
 1938ntf    fn413941   0.121   4.186   2.438  0.5306  0.1510  0.7139
 1938ntf    fn413942  -0.055   4.285   2.494 -0.4984 -0.1106  0.5325
 1938ntf    fn413943   0.124   4.397   2.450 -0.1484  0.1784  0.2207
 1938ntf    on513944   0.022   4.159   2.724 -0.1513 -0.1007  0.1184
 1938ntf    on513945   0.254   4.247   2.688  0.1715  0.0779  0.4988
 1938ntf    on513946   0.172   4.625   2.726 -0.0827  0.1001 -0.1387
 1938ntf    on513947   0.240   4.464   2.900 -0.5838 -0.5238 -0.0424
 1938ntf    fn413948   0.070   4.658   3.008 -0.4062 -0.1810 -0.1690
 1938ntf    fn413949  -0.086   4.620   2.863  0.1616 -0.0095 -0.2069
 1938ntf    fn413950  -0.033   4.472   3.003 -0.8138 -0.0666 -0.3797
 1939ntf    cn113951   0.830   4.759   4.099 -0.1228 -0.0438 -0.1093
 1939ntf    sn213952   0.999   4.699   4.068 -0.1299 -0.0035 -0.2269
 1939ntf    nn313953   0.959   4.567   3.993 -0.2827 -0.0731 -0.0240
 1939ntf    sn213954   1.015   4.421   3.995 -0.0436  0.0213  0.2331
 1939ntf    cn113955   0.865   4.319   4.011 -0.3107  0.3491 -0.1749
 1939ntf    fn413956   0.831   4.872   4.166  0.1032  0.2050 -0.5254
 1939ntf    fn413957   0.761   4.772   3.986  0.6182  0.6374 -0.4933
 1939ntf    fn413958   0.759   4.666   4.161 -0.6081  0.1367 -0.3882
 1939ntf    on513959   1.062   4.794   3.979 -0.2429 -0.1596 -0.4741
 1939ntf    on513960   1.059   4.678   4.197  0.1534  0.0355 -0.3504
 1939ntf    on513961   1.091   4.385   4.113  0.2637 -0.7835 -0.2019
 1939ntf    on513962   1.063   4.375   3.867  0.0984 -0.0518  0.3119
 1939ntf    fn413963   0.790   4.361   4.112 -0.1629  0.2057 -0.0053
 1939ntf    fn413964   0.781   4.333   3.910 -0.2255 -0.0203 -0.2953
 1939ntf    fn413965   0.894   4.191   4.024  0.1226  0.3600 -0.9785
 1940ntf    cn113966   0.244   3.115   4.205 -0.4413  0.4296 -0.2900
 1940ntf    sn213967   0.166   3.016   4.336 -0.1019  0.4048 -0.1048
 1940ntf    nn313968   0.017   3.015   4.286 -0.0979  0.6691 -0.1221
 1940ntf    sn213969  -0.116   3.007   4.368 -0.1220  0.3137 -0.1932
 1940ntf    cn113970  -0.086   3.113   4.513 -0.2346  0.1400 -0.0439
 1940ntf    fn413971   0.376   3.102   4.213 -0.5699 -0.6333  0.2807
 1940ntf    fn413972   0.210   3.065   4.087  0.2241 -0.6378 -0.0440
 1940ntf    fn413973   0.219   3.245   4.214 -0.3671  0.4256 -0.0230
 1940ntf    on513974   0.222   2.886   4.311 -0.1656  0.3525  0.0267
 1940ntf    on513975   0.191   3.080   4.463 -0.4629 -0.8033  0.5899
 1940ntf    on513976  -0.145   2.877   4.423  0.0598  0.3409 -0.0298
 1940ntf    on513977  -0.220   3.078   4.298  0.0643  0.4359 -0.3479
 1940ntf    fn413978  -0.017   3.057   4.611 -0.5019  0.2222  0.1950
 1940ntf    fn413979  -0.034   3.229   4.478  0.2217  0.0745  0.4088
 1940ntf    fn413980  -0.204   3.147   4.564 -0.3029  0.1114 -0.1803
 1941ntf    cn113981   3.460   5.125   0.265 -0.7117  0.0167  0.2548
 1941ntf    sn213982   3.295   5.064   0.218 -0.4340 -0.3894 -0.2071
 1941ntf    nn313983   3.232   5.060   0.362 -0.1186  0.1009 -0.0497
 1941ntf    sn213984   3.114   4.975   0.422  0.1828 -0.4236 -0.1895
 1941ntf    cn113985   3.181   4.813   0.469  0.0755 -0.3216  0.3270
 1941ntf    fn413986   3.485   5.066   0.381  0.2089  0.0195  0.0610
 1941ntf    fn413987   3.556   5.084   0.184 -0.3322 -0.2996  0.8517
 1941ntf    fn413988   3.470   5.256   0.280  0.1225  0.0211 -0.2985
 1941ntf    on513989   3.243   5.176   0.144  0.4576  0.1471 -0.0483
 1941ntf    on513990   3.321   4.935   0.160  0.3066 -0.3205 -0.0388
 1941ntf    on513991   2.999   4.951   0.339 -0.1373 -0.5892  0.2970
 1941ntf    on513992   3.087   5.027   0.554  0.2035  0.1476 -0.4063
 1941ntf    fn413993   3.282   4.811   0.554  0.2788 -0.0959  0.0926
 1941ntf    fn413994   3.080   4.743   0.518 -0.6313  0.4873  0.0369
 1941ntf    fn413995   3.225   4.753   0.359 -0.0140 -0.2221  0.2373
 1942ntf    cn113996   1.000   6.030   6.309 -0.1761 -0.2447 -0.2342
 1942ntf    sn213997   0.879   5.943   6.414 -0.1048 -0.1417 -0.0651
 1942ntf    nn313998   0.767   6.052   6.425  0.1106  0.0138  0.6118
 1942ntf    sn213999   0.625   6.036   6.489 -0.1389 -0.2290  0.0019
 1942ntf    cn114000   0.523   5.960   6.359  0.0325 -0.3990 -0.0344
 1942ntf    fn414001   1.118   5.970   6.307 -0.1302 -0.1926  0.5356
 1942ntf    fn414002   0.963   6.055   6.184 -1.0524 -0.0845  0.0499
 1942ntf    fn414003   1.022   6.153   6.352  0.1436 -0.4478  0.1945
 1942ntf    on514004   0.844   5.834   6.326 -0.1872  0.2618 -0.5381
 1942ntf    on514005   0.954   5.918   6.534  0.1459  0.5645 -0.0705
 1942ntf    on514006   0.565   6.165   6.512  0.0229 -0.1627  0.0488
 1942ntf    on514007   0.622   5.937   6.594  0.0845 -0.1024  0.1258
 1942ntf    fn414008   0.499   6.048   6.262 -0.3497 -0.4683 -0.0057
 1942ntf    fn414009   0.577   5.850   6.309  0.3212 -0.2119 -0.1407
 1942ntf    fn414010   0.402   5.921   6.394 -0.1310  0.1112 -0.0136
 1943ntf    cn114011   5.189   1.415   2.074 -0.0340 -0.1706 -0.2024
 1943ntf    sn214012   5.363   1.421   2.123 -0.0557 -0.5180 -0.0851
 1943ntf    nn314013   5.340   1.467   2.272 -0.2114  0.5041 -0.4200
 1943ntf    sn214014   5.428   1.564   2.358 -0.0542 -0.1203  0.1247
 1943ntf    cn114015   5.298   1.673   2.422  0.0425  0.1661 -0.1702
 1943ntf    fn414016   5.166   1.381   1.948  0.8110 -0.0317 -0.3986
 1943ntf    fn414017   5.123   1.328   2.149  0.1809 -0.4069 -0.2868
 1943ntf    fn414018   5.131   1.533   2.088  0.4209 -0.0062  0.3092
 1943ntf    on514019   5.414   1.286   2.125 -0.4418 -0.6646 -0.1416
 1943ntf    on514020   5.420   1.517   2.032 -0.3025 -0.0582  0.2432
 1943ntf    on514021   5.510   1.659   2.287 -0.2791  0.3420  0.4829
 1943ntf    on514022   5.487   1.500   2.473  0.1422 -0.3817 -0.1185
 1943ntf    fn414023   5.359   1.741   2.517  0.2811 -0.1214 -0.1185
 1943ntf    fn414024   5.241   1.747   2.328  0.1979  0.1600 -0.2712
 1943ntf    fn414025   5.206   1.601   2.483  0.2863 -0.0903 -0.1006
 1944ntf    cn114026   3.982   6.191   1.136 -0.0067  0.1315  0.1001
 1944ntf    sn214027   4.021   6.346   1.223  0.1217  0.2824 -0.2226
 1944ntf    nn314028   4.165   6.314   1.275  0.2142  0.7464 -0.1909
 1944ntf    sn214029   4.302   6.311   1.199  0.3117  0.1154 -0.0002
 1944ntf    cn114030   4.397   6.424   1.305 -0.1928  0.2619  0.2977
 1944ntf    fn414031   3.893   6.114   1.197  0.1884 -0.1862 -0.0143
 1944ntf    fn414032   3.931   6.212   1.015 -0.0422  0.3136  0.1470
 1944ntf    fn414033   4.091   6.118   1.119 -0.3750 -0.3472 -0.2591
 1944ntf    on514034   4.016   6.450   1.124 -0.3771 -0.1231 -0.6359
 1944ntf    on514035   3.923   6.336   1.329 -0.2807 -0.1446 -0.6242
 1944ntf    on514036   4.308   6.377   1.070  0.2287  0.9183  0.3990
 1944ntf    on514037   4.359   6.179   1.208 -0.6562 -0.3244 -0.2187
 1944ntf    fn414038   4.445   6.359   1.410 -0.5827 -0.0524  0.2836
 1944ntf    fn414039   4.500   6.478   1.242 -0.5452 -0.3850 -0.8720
 1944ntf    fn414040   4.330   6.528   1.352 -0.0291  0.4752  0.0621
 1945ntf    cn114041   1.581   4.051   1.240  0.4288 -0.1952  0.0365
 1945ntf    sn214042   1.672   4.171   1.139 -0.1852  0.1901 -0.0659
 1945ntf    nn314043   1.818   4.113   1.138 -0.2101  0.1260  0.0559
 1945ntf    sn214044   1.951   4.145   1.217 -0.2363  0.2919  0.0321
 1945ntf    cn114045   2.076   4.131   1.086 -0.2283  0.5307  0.0134
 1945ntf    fn414046   1.647   4.022   1.351  0.1072 -0.2667  0.2103
 1945ntf    fn414047   1.466   4.100   1.282  0.7520  0.2322  0.4303
 1945ntf    fn414048   1.570   3.928   1.191  0.3181  0.1829 -0.9023
 1945ntf    on514049   1.603   4.153   1.014  0.4978  0.3751 -0.4777
 1945ntf    on514050   1.657   4.299   1.203 -0.1434 -0.0198  0.3703
 1945ntf    on514051   1.981   4.039   1.309  0.1398  0.1168 -0.2906
 1945ntf    on514052   1.962   4.281   1.265  0.2099  0.4234 -0.4331
 1945ntf    fn414053   2.068   4.012   1.029  0.5359  0.3500  0.2721
 1945ntf    fn414054   2.050   4.223   0.995  0.7918  0.3306 -0.4952
 1945ntf    fn414055   2.197   4.145   1.138 -0.4108 -0.1869  0.6575
 1946ntf    cn114056   5.408   4.186   5.965  0.2144 -0.1089 -0.1582
 1946ntf    sn214057   5.228   4.175   5.944  0.1743  0.0787  0.0874
 1946ntf    nn314058   5.209   4.069   6.058 -0.1081  0.0506  0.0152
 1946ntf    sn214059   5.150   4.097   6.201  0.2834  0.2379  0.1415
 1946ntf    cn114060   5.153   3.929   6.270 -0.5152  0.0515 -0.2767
 1946ntf    fn414061   5.442   4.235   6.083  0.3140 -0.2519 -0.1268
 1946ntf    fn414062   5.458   4.064   5.959 -0.1463 -0.2729  0.1869
 1946ntf    fn414063   5.470   4.262   5.876 -0.0504  0.1597 -0.1137
 1946ntf    on514064   5.186   4.312   5.966 -0.3885 -0.0770 -0.0010
 1946ntf    on514065   5.214   4.109   5.817 -0.6140 -0.2096  0.3223
 1946ntf    on514066   5.010   4.128   6.211  0.2537  0.1913 -0.1333
 1946ntf    on514067   5.244   4.165   6.287  0.7296 -0.1878 -0.0011
 1946ntf    fn414068   5.270   3.870   6.255 -0.4566 -0.0109  0.3748
 1946ntf    fn414069   5.110   3.918   6.395 -0.6072 -0.2575 -0.3324
 1946ntf    fn414070   5.070   3.851   6.202 -0.4146  0.0044 -0.3442
 1947ntf    cn114071   2.221   3.656   5.623 -0.2800  0.0619 -0.1140
 1947ntf    sn214072   2.242   3.570   5.464 -0.0166 -0.0254 -0.0325
 1947ntf    nn314073   2.355   3.474   5.518 -0.3532 -0.3242  0.1447
 1947ntf    sn214074   2.332   3.332   5.581 -0.1560 -0.3647  0.1243
 1947ntf    cn114075   2.465   3.341   5.706 -0.2083  0.1072  0.1493
 1947ntf    fn414076   2.128   3.750   5.618 -0.0929  0.2657  0.1719
 1947ntf    fn414077   2.190   3.586   5.731  0.1531  0.3325  0.1925
 1947ntf    fn414078   2.334   3.718   5.656 -0.4595 -0.1434  0.9244
 1947ntf    on514079   2.113   3.511   5.443  0.2541 -0.5608 -0.2065
 1947ntf    on514080   2.293   3.678   5.383  0.2282 -0.0775  0.0508
 1947ntf    on514081   2.377   3.224   5.497 -0.6634 -0.0760 -0.5221
 1947ntf    on514082   2.216   3.313   5.664 -0.1967  0.0312  0.1615
 1947ntf    fn414083   2.471   3.231   5.778 -0.0088  0.2488  0.3480
 1947ntf    fn414084   2.586   3.356   5.655 -0.1258 -0.0354  0.3039
 1947ntf    fn414085   2.446   3.444   5.786 -0.2712  0.1821  0.0381
 1948ntf    cn114086   0.099   5.934   0.850  0.5895 -0.2960 -0.3205
 1948ntf    sn214087  -0.009   5.815   0.934  0.3796  0.1605  0.0583
 1948ntf    nn314088   0.076   5.789   1.063  0.3109  0.6333  0.2008
 1948ntf    sn214089   0.027   5.723   1.197 -0.1712  0.4488 -0.0646
 1948ntf    cn114090   0.176   5.634   1.253 -0.4498 -0.0894 -0.1714
 1948ntf    fn414091   0.077   5.954   0.721  0.3938 -0.3362 -0.2931
 1948ntf    fn414092   0.090   6.052   0.910  0.1754 -0.3160 -0.3379
 1948ntf    fn414093   0.227   5.902   0.866  0.5648 -0.4012 -0.3305
 1948ntf    on514094  -0.127   5.894   0.957  0.2963 -0.0734  0.4590
 1948ntf    on514095  -0.015   5.701   0.846  0.6157  0.1245  0.0887
 1948ntf    on514096  -0.067   5.615   1.181  0.2371  0.1728 -0.6654
 1948ntf    on514097   0.015   5.817   1.305  0.4001  0.4137  0.0359
 1948ntf    fn414098   0.277   5.717   1.273 -0.2567 -0.3550 -0.0470
 1948ntf    fn414099   0.154   5.581   1.372 -0.6350 -0.0868 -0.2037
 1948ntf    fn414100   0.209   5.537   1.170 -0.8444 -0.7916  0.4774
 1949ntf    cn114101   2.680   6.018   1.041 -0.5521  0.0044 -0.2268
 1949ntf    sn214102   2.678   5.857   1.125  0.0811  0.1539  0.0820
 1949ntf    nn314103   2.752   5.754   1.033  0.2427  0.2011  0.1584
 1949ntf    sn214104   2.694   5.642   0.940  0.1573  0.3213  0.0675
 1949ntf    cn114105   2.679   5.504   1.056 -0.1246 -0.1041 -0.4677
 1949ntf    fn414106   2.792   6.088   1.047 -0.5001 -0.1243  0.4282
 1949ntf    fn414107   2.656   6.009   0.911  0.1740 -0.5515 -0.3272
 1949ntf    fn414108   2.592   6.104   1.091 -1.0399 -0.0487 -0.9915
 1949ntf    on514109   2.756   5.897   1.240  0.0739  0.3713  0.0112
 1949ntf    on514110   2.538   5.829   1.144  0.0845  0.1454  0.0927
 1949ntf    on514111   2.795   5.602   0.845  0.0774 -0.3685  0.2713
 1949ntf    on514112   2.556   5.655   0.898  0.3233  0.2186 -0.5274
 1949ntf    fn414113   2.801   5.488   1.107 -0.2416  0.0470 -0.1411
 1949ntf    fn414114   2.594   5.529   1.155  0.0811 -0.7261 -0.1265
 1949ntf    fn414115   2.639   5.388   1.007 -0.3973 -0.1068 -0.2421
 1950ntf    cn114116   4.234   1.325   3.682 -0.1689 -0.0873  0.4220
 1950ntf    sn214117   4.386   1.328   3.782 -0.1341 -0.4444  0.3805
 1950ntf    nn314118   4.333   1.343   3.929 -0.3292  0.6285  0.2070
 1950ntf    sn214119   4.421   1.352   4.060  0.1903  0.1599 -0.1047
 1950ntf    cn114120   4.416   1.182   4.126  0.0208  0.3878  0.4784
 1950ntf    fn414121   4.253   1.341   3.552  0.0978 -0.1987  0.4465
 1950ntf    fn414122   4.159   1.217   3.696 -0.0112 -0.2009  0.3889
 1950ntf    fn414123   4.153   1.423   3.720 -0.2645 -0.0838  0.2070
 1950ntf    on514124   4.452   1.202   3.755  0.4587 -0.1146  0.2832
 1950ntf    on514125   4.443   1.449   3.730  0.1015 -0.6893  0.0640
 1950ntf    on514126   4.350   1.428   4.160  0.4299 -0.4110  0.5043
 1950ntf    on514127   4.560   1.382   4.036  0.3516  0.1823  0.8194
 1950ntf    fn414128   4.302   1.156   4.187  0.2876 -0.1663  0.7450
 1950ntf    fn414129   4.434   1.087   4.036  0.2003  0.4745  0.4212
 1950ntf    fn414130   4.510   1.172   4.218  0.4543  0.0450  0.0072
 1951ntf    cn114131   3.885   5.439   4.668 -0.0250  0.1910  0.2550
 1951ntf    sn214132   3.722   5.371   4.623  0.0014  0.0252  0.4062
 1951ntf    nn314133   3.743   5.236   4.701 -0.0778  0.0592  0.4859
 1951ntf    sn214134   3.793   5.101   4.639 -0.1172  0.0986  0.3677
 1951ntf    cn114135   3.643   5.036   4.560  0.0837  0.0274  0.0410
 1951ntf    fn414136   3.982   5.371   4.609 -0.0515 -0.1808  0.6405
 1951ntf    fn414137   3.907   5.563   4.627  0.1236  0.1239  0.1320
 1951ntf    fn414138   3.899   5.442   4.799  0.0397  0.4205  0.2424
 1951ntf    on514139   3.627   5.461   4.684 -0.8270  0.1163 -0.9777
 1951ntf    on514140   3.725   5.365   4.479 -0.2231 -0.4691  0.4202
 1951ntf    on514141   3.831   5.011   4.745 -0.1799  0.2849  0.5475
 1951ntf    on514142   3.890   5.114   4.533 -0.7029  0.5813 -0.1182
 1951ntf    fn414143   3.561   4.999   4.657 -0.3363 -0.2923 -0.4280
 1951ntf    fn414144   3.577   5.126   4.490  0.9520  0.5227 -0.1503
 1951ntf    fn414145   3.667   4.930   4.484  0.0578  0.0692 -0.0266
 1952ntf    cn114146   6.354   2.477   2.748  0.4183 -0.0623  0.1290
 1952ntf    sn214147   6.360   2.511   2.926  0.0564 -0.1370  0.1553
 1952ntf    nn314148   6.253   2.624   2.943  0.0954 -0.1325  0.3747
 1952ntf    sn214149   6.218   2.700   3.076 -0.0478  0.0868  0.2120
 1952ntf    cn114150   6.301   2.859   3.045 -0.1992  0.1077 -0.0939
 1952ntf    fn414151   6.232   2.468   2.698  0.2819 -0.0368  0.4513
 1952ntf    fn414152   6.399   2.579   2.677 -0.3275 -0.1247 -0.4429
 1952ntf    fn414153   6.428   2.375   2.707 -0.1008 -0.7653  0.8984
 1952ntf    on514154   6.313   2.385   2.981  0.1002  0.0758  0.6917
 1952ntf    on514155   6.498   2.547   2.945  0.1713 -0.1716 -0.6197
 1952ntf    on514156   6.281   2.643   3.192  0.2320 -0.4185 -0.1857
 1952ntf    on514157   6.077   2.728   3.084 -0.1432 -0.5571  0.8285
 1952ntf    fn414158   6.420   2.847   2.988 -0.1756 -0.0461 -0.0122
 1952ntf    fn414159   6.237   2.926   2.951 -0.6233  0.3085  0.3328
 1952ntf    fn414160   6.307   2.933   3.155 -0.3045 -0.2286  0.1392
 1953ntf    cn114161   4.553   5.999   5.774 -0.1835 -0.1408 -0.1777
 1953ntf    sn214162   4.414   5.904   5.706 -0.4186  0.1908 -0.1615
 1953ntf    nn314163   4.437   5.758   5.760 -0.1324  0.2762 -0.0526
 1953ntf    sn214164   4.432   5.620   5.686 -0.0013  0.3288 -0.1623
 1953ntf    cn114165   4.407   5.498   5.819  0.2473  0.0331 -0.3875
 1953ntf    fn414166   4.559   6.008   5.905  0.3063  0.1250 -0.2132
 1953ntf    fn414167   4.668   5.942   5.740 -0.1398 -0.1458 -0.0180
 1953ntf    fn414168   4.557   6.121   5.721 -0.4953 -0.0493  0.0072
 1953ntf    on514169   4.301   5.972   5.766 -0.1895  0.1823  0.2800
 1953ntf    on514170   4.441   5.920   5.566 -0.4315 -0.1947 -0.2078
 1953ntf    on514171   4.556   5.569   5.634 -0.0719  0.5675 -0.5653
 1953ntf    on514172   4.311   5.602   5.609  0.0663 -0.6358 -0.0521
 1953ntf    fn414173   4.373   5.376   5.780  0.0038 -0.2149  0.5758
 1953ntf    fn414174   4.515   5.489   5.895 -0.3303 -0.1540  0.4216
 1953ntf    fn414175   4.313   5.535   5.903  0.3540 -0.0205 -0.2441
 1954ntf    cn114176   6.847   5.489   3.292  0.0994 -0.2557 -0.0865
 1954ntf    sn214177   6.942   5.527   3.142 -0.1367 -0.2515 -0.2349
 1954ntf    nn314178   6.831   5.502   3.033 -1.0042  0.0879  0.5621
 1954ntf    sn214179   6.819   5.399   2.916  0.1955  0.0951  0.4259
 1954ntf    cn114180   6.879   5.505   2.780  0.1678 -0.3945  0.0271
 1954ntf    fn414181   6.779   5.589   3.345  0.1199 -0.1444 -0.2696
 1954ntf    fn414182   6.774   5.379   3.283 -0.1947 -0.1160  0.5015
 1954ntf    fn414183   6.934   5.454   3.386 -0.0666 -0.4269  0.0038
 1954ntf    on514184   6.970   5.667   3.159  0.3025 -0.4061  0.3581
 1954ntf    on514185   7.054   5.436   3.150  0.0229 -0.0670 -0.3710
 1954ntf    on514186   6.679   5.386   2.886  0.4025 -0.4252 -0.3477
 1954ntf    on514187   6.906   5.284   2.915  0.3414  0.2023 -0.1181
 1954ntf    fn414188   6.870   5.458   2.657  0.1284  0.5911 -0.3590
 1954ntf    fn414189   6.821   5.624   2.777  0.3420 -0.3078  0.0633
 1954ntf    fn414190   7.006   5.537   2.803  0.1137 -0.2255  0.0942
 1955ntf    cn114191   1.166   1.335   1.550 -0.4629 -0.1996  0.0568
 1955ntf    sn214192   1.346   1.327   1.526 -0.4725  0.0576 -0.1038
 1955ntf    nn314193   1.380   1.457   1.607 -0.6161  0.1695 -0.2228
 1955ntf    sn214194   1.497   1.488   1.706 -0.5821 -0.1955 -0.1473
 1955ntf    cn114195   1.412   1.448   1.861 -0.7720  0.1994 -0.1480
 1955ntf    fn414196   1.124   1.304   1.672  0.2218  0.6856  0.5294
 1955ntf    fn414197   1.121   1.457   1.525 -0.2722 -0.1691 -0.1408
 1955ntf    fn414198   1.109   1.242   1.475 -0.7942 -0.2587  0.3782
 1955ntf    on514199   1.369   1.203   1.595 -0.2170  0.0283 -0.2411
 1955ntf    on514200   1.361   1.331   1.383  0.1666 -0.1379 -0.0427
 1955ntf    on514201   1.522   1.630   1.719 -0.0268 -0.3773  0.8642
 1955ntf    on514202   1.614   1.404   1.717 -0.3703  0.1187  0.0485
 1955ntf    fn414203   1.495   1.468   1.962 -0.4595  0.2089 -0.4063
 1955ntf    fn414204   1.307   1.527   1.881 -0.7456  0.2873 -0.3566
 1955ntf    fn414205   1.361   1.326   1.871  0.4607 -0.2880  0.3974
 1956ntf    cn114206   4.591   1.950   1.055  0.0831  0.1053  0.0166
 1956ntf    sn214207   4.424   1.987   1.118  0.0372 -0.0964  0.0136
 1956ntf    nn314208   4.448   1.937   1.265  0.4991 -0.3269 -0.1357
 1956ntf    sn214209   4.526   2.015   1.378 -0.1129  0.0991 -0.0002
 1956ntf    cn114210   4.375   2.078   1.456 -0.1232 -0.0413  0.0938
 1956ntf    fn414211   4.587   1.969   0.924  0.3154  0.1040  0.0088
 1956ntf    fn414212   4.687   2.027   1.104  0.6927 -0.6048 -0.0485
 1956ntf    fn414213   4.630   1.826   1.077  0.2426  0.0732 -0.4330
 1956ntf    on514214   4.398   2.128   1.100 -0.4456 -0.1982 -0.0877
 1956ntf    on514215   4.339   1.892   1.052 -0.3292  0.1052  0.1918
 1956ntf    on514216   4.592   2.135   1.333  0.0303  0.2139  0.5169
 1956ntf    on514217   4.587   1.924   1.472 -0.1851  0.3376  0.2774
 1956ntf    fn414218   4.293   1.981   1.494 -0.1820 -0.2703 -0.6197
 1956ntf    fn414219   4.389   2.165   1.555  0.4592  0.4844 -0.4431
 1956ntf    fn414220   4.300   2.141   1.368 -0.0527 -0.1598 -0.0503
 1957ntf    cn114221   4.575   2.456   6.693  0.1530 -0.2391 -0.1354
 1957ntf    sn214222   4.402   2.469   6.638  0.1303 -0.0833 -0.0282
 1957ntf    nn314223   4.382   2.625   6.627 -0.0778 -0.1372 -0.4221
 1957ntf    sn214224   4.388   2.715   6.499  0.0537  0.5459  0.0620
 1957ntf    cn114225   4.212   2.703   6.455  0.3855  0.1885 -1.2161
 1957ntf    fn414226   4.654   2.528   6.615  0.0387  0.4848  0.4021
 1957ntf    fn414227   4.596   2.491   6.819  0.0899 -0.8956  0.0616
 1957ntf    fn414228   4.621   2.332   6.694  0.0737 -0.2704 -0.3639
 1957ntf    on514229   4.387   2.389   6.519  0.2351  0.4388 -0.3985
 1957ntf    on514230   4.321   2.425   6.748 -0.0527  0.1516 -0.0686
 1957ntf    on514231   4.455   2.651   6.388 -0.0847  0.3916  0.0665
 1957ntf    on514232   4.416   2.855   6.524 -0.3071  0.5869  0.2379
 1957ntf    fn414233   4.181   2.580   6.421  0.0968 -0.2052  0.3878
 1957ntf    fn414234   4.137   2.742   6.556  0.6828 -0.7842 -0.6080
 1957ntf    fn414235   4.177   2.784   6.356 -0.3686  1.0416 -0.2746
 1958ntf    cn114236   5.529   6.794   6.360  0.2998 -0.0554  0.3171
 1958ntf    sn214237   5.474   6.670   6.482 -0.3374 -0.3229 -0.2398
 1958ntf    nn314238   5.580   6.698   6.594 -0.4025 -0.3088 -0.1817
 1958ntf    sn214239   5.638   6.598   6.700 -0.3187  0.0285  0.0933
 1958ntf    cn114240   5.642   6.699   6.851  0.1262  0.3822 -0.1524
 1958ntf    fn414241   5.452   6.818   6.256 -0.0636 -0.1617  0.5578
 1958ntf    fn414242   5.553   6.913   6.412 -0.2877  0.0461  0.3598
 1958ntf    fn414243   5.647   6.759   6.310  0.2550  0.2247  0.0143
 1958ntf    on514244   5.339   6.708   6.516 -0.4054 -0.0873 -0.7616
 1958ntf    on514245   5.491   6.551   6.402  0.0603 -0.5169  0.1336
 1958ntf    on514246   5.778   6.568   6.684 -0.5282 -0.8139 -0.2112
 1958ntf    on514247   5.552   6.486   6.732 -0.5586  0.0639 -0.4218
 1958ntf    fn414248   5.522   6.748   6.881  0.1393  0.2691  0.0920
 1958ntf    fn414249   5.684   6.634   6.958  0.3527  0.1219 -0.3999
 1958ntf    fn414250   5.727   6.800   6.850  0.0166  0.4803  0.1783
 1959ntf    cn114251   5.770   4.109   0.205  0.0833 -0.0733 -0.0765
 1959ntf    sn214252   5.941   4.170   0.212 -0.0089  0.1331  0.4084
 1959ntf    nn314253   5.975   4.169   0.365  0.2142 -0.2493  0.3564
 1959ntf    sn214254   6.071   4.074   0.446  0.1470 -0.4693  0.1796
 1959ntf    cn114255   6.117   4.196   0.572  0.4896 -0.3548 -0.0561
 1959ntf    fn414256   5.712   4.124   0.087  0.0700 -0.6970 -0.1554
 1959ntf    fn414257   5.784   3.978   0.215  0.8402  0.0123  0.0829
 1959ntf    fn414258   5.691   4.154   0.300 -0.1118 -0.2860 -0.1380
 1959ntf    on514259   6.019   4.074   0.137 -0.5121 -0.1171  0.2057
 1959ntf    on514260   5.931   4.303   0.156 -0.5317 -0.5104 -1.0634
 1959ntf    on514261   6.198   4.038   0.388  0.1528 -0.1855  0.0149
 1959ntf    on514262   6.007   3.962   0.510 -0.7549 -0.2136 -0.2579
 1959ntf    fn414263   6.015   4.214   0.654  0.1026 -0.1733 -0.5758
 1959ntf    fn414264   6.218   4.159   0.650  0.0453 -1.0162  0.2117
 1959ntf    fn414265   6.141   4.317   0.524 -0.5992 -0.1548 -0.1069
 1960ntf    cn114266   6.247   0.797   0.917 -0.1569  0.2236  0.0703
 1960ntf    sn214267   6.155   0.649   0.867  0.1678  0.0128  0.0986
 1960ntf    nn314268   6.233   0.604   0.739  0.8334  0.2303  0.4217
 1960ntf    sn214269   6.333   0.487   0.707  0.6089  0.1727 -0.0826
 1960ntf    cn114270   6.259   0.448   0.546  0.5582 -0.1027  0.0069
 1960ntf    fn414271   6.203   0.853   1.029 -0.0895  0.1292  0.1447
 1960ntf    fn414272   6.375   0.775   0.940 -0.2710 -0.5361 -0.0133
 1960ntf    fn414273   6.257   0.888   0.822  0.1895  0.3439  0.2185
 1960ntf    on514274   6.176   0.559   0.978 -0.2291 -0.1863  0.0143
 1960ntf    on514275   6.022   0.696   0.841  0.1282 -0.1972 -0.0883
 1960ntf    on514276   6.332   0.368   0.788 -0.1910  0.3305  0.1482
 1960ntf    on514277   6.464   0.534   0.669  0.6573  0.2542  0.1801
 1960ntf    fn414278   6.319   0.354   0.475 -0.2253 -0.0027 -0.8057
 1960ntf    fn414279   6.130   0.420   0.550  0.5215 -0.0228 -0.4966
 1960ntf    fn414280   6.260   0.556   0.469 -0.1156  0.0601  0.2208
 1961ntf    cn114281   1.058   4.117   0.556  0.1605  0.1206  0.1729
 1961ntf    sn214282   1.012   4.026   0.707  0.0156 -0.0540  0.0239
 1961ntf    nn314283   1.138   4.051   0.797  0.1540  0.1270 -0.2183
 1961ntf    sn214284   1.151   4.080   0.951  0.5684 -0.1991 -0.1906
 1961ntf    cn114285   1.281   4.206   0.937  0.3559  0.0330 -0.0674
 1961ntf    fn414286   1.090   4.243   0.581  0.0513  0.1925 -0.0439
 1961ntf    fn414287   1.168   4.068   0.501 -0.0493 -0.0388 -0.1093
 1961ntf    fn414288   0.961   4.124   0.466 -0.0275  0.2579  0.3848
 1961ntf    on514289   0.885   4.078   0.749 -0.2908 -0.3812 -0.4831
 1961ntf    on514290   1.009   3.887   0.666 -0.0561  0.0185 -0.2195
 1961ntf    on514291   1.210   3.969   1.023  0.2695 -0.1283  0.1628
 1961ntf    on514292   1.040   4.156   1.002  0.4097 -0.7663  0.3216
 1961ntf    fn414293   1.330   4.234   1.056 -0.4064  0.0616  0.2426
 1961ntf    fn414294   1.378   4.168   0.855 -0.5026 -0.3804 -0.9035
 1961ntf    fn414295   1.242   4.328   0.904  0.1994 -0.1188 -0.4525
 1962ntf    cn114296   5.372   5.925   2.943 -0.4144  0.0652  0.0888
 1962ntf    sn214297   5.437   6.012   2.797 -0.4788 -0.0741 -0.0241
 1962ntf    nn314298   5.392   6.159   2.831 -0.0013  0.0525  0.0728
 1962ntf    sn214299   5.304   6.252   2.740  0.0855 -0.0007 -0.0646
 1962ntf    cn114300   5.247   6.367   2.868  0.0326  0.0969 -0.1770
 1962ntf    fn414301   5.248   5.964   2.964 -0.4208  0.2790 -0.3272
 1962ntf    fn414302   5.360   5.795   2.923 -0.6712  0.1219 -0.1360
 1962ntf    fn414303   5.444   5.947   3.051 -0.3821 -0.3267  0.1498
 1962ntf    on514304   5.580   5.992   2.799 -0.5679 -0.7052 -0.1132
 1962ntf    on514305   5.366   5.951   2.688 -0.2631 -0.2789 -0.0503
 1962ntf    on514306   5.180   6.191   2.702 -0.0544  0.4440 -0.3270
 1962ntf    on514307   5.371   6.348   2.656 -0.6479  0.1867 -0.4408
 1962ntf    fn414308   5.148   6.444   2.823 -0.0321 -0.0877 -0.3549
 1962ntf    fn414309   5.198   6.303   2.973 -0.1500  0.6509  0.0844
 1962ntf    fn414310   5.340   6.447   2.918 -0.0368  0.1180 -0.0805
 1963ntf    cn114311   1.023   4.882   6.698  0.2984  0.2784 -0.6326
 1963ntf    sn214312   1.085   4.803   6.546  0.3505 -0.3224 -0.3023
 1963ntf    nn314313   1.237   4.840   6.560  0.2637 -0.0935  0.0615
 1963ntf    sn214314   1.319   4.962   6.505  0.2012 -0.0560  0.0526
 1963ntf    cn114315   1.321   4.926   6.327 -0.5666  0.1598 -0.0028
 1963ntf    fn414316   1.048   5.012   6.689 -0.4677  0.4625 -0.1997
 1963ntf    fn414317   0.896   4.868   6.730  0.3578  0.4635 -0.3134
 1963ntf    fn414318   1.092   4.839   6.802 -1.0716 -0.5386 -0.0511
 1963ntf    on514319   1.057   4.664   6.567  0.0624 -0.1937  0.1688
 1963ntf    on514320   1.019   4.875   6.439  0.6371 -0.2043 -0.4002
 1963ntf    on514321   1.459   4.956   6.540  0.3452  0.1478 -0.4777
 1963ntf    on514322   1.257   5.091   6.514  0.3894 -0.0102  0.8150
 1963ntf    fn414323   1.359   4.801   6.305  0.1017  0.3247  0.1677
 1963ntf    fn414324   1.200   4.937   6.275 -0.4858  0.4665 -0.1322
 1963ntf    fn414325   1.397   5.009   6.256  0.1538 -0.3821  0.1182
 1964ntf    cn114326   0.246   1.186   4.925  0.3507  0.1356 -0.1113
 1964ntf    sn214327   0.360   1.225   4.790  0.2852  0.6605 -0.0197
 1964ntf    nn314328   0.274   1.174   4.669  0.3861 -0.0687  0.2108
 1964ntf    sn214329   0.275   1.030   4.608 -0.0734  0.2001 -0.4399
 1964ntf    cn114330   0.100   1.003   4.563 -0.2524  0.3360  0.1707
 1964ntf    fn414331   0.132   1.252   4.908  0.4776  0.4417  0.2064
 1964ntf    fn414332   0.205   1.061   4.935 -0.2037  0.3226  0.0261
 1964ntf    fn414333   0.280   1.234   5.044  0.0330 -0.2618  0.1450
 1964ntf    on514334   0.370   1.369   4.787  0.3034  0.6644  0.2202
 1964ntf    on514335   0.486   1.160   4.817 -0.0734 -0.0568 -0.0450
 1964ntf    on514336   0.303   0.927   4.705  0.0993 -0.1919 -0.8997
 1964ntf    on514337   0.345   1.017   4.483 -0.0711 -0.0608 -0.4137
 1964ntf    fn414338   0.068   0.880   4.528  0.0217  0.1037  0.7223
 1964ntf    fn414339   0.023   1.035   4.666 -0.0860  0.0403  0.3885
 1964ntf    fn414340   0.066   1.078   4.460 -0.1082 -0.0193 -0.1361
 1965ntf    cn114341   4.810   0.146   4.777 -0.2361 -0.0623 -0.1356
 1965ntf    sn214342   4.864   0.203   4.613 -0.0315  0.1293 -0.0026
 1965ntf    nn314343   4.842   0.078   4.521 -0.0533 -0.3529  0.6523
 1965ntf    sn214344   4.933  -0.049   4.503  0.2501 -0.1078  0.4585
 1965ntf    cn114345   5.022   0.003   4.353 -0.1542  0.3046  0.3599
 1965ntf    fn414346   4.837   0.236   4.870 -0.2044  0.1196 -0.3216
 1965ntf    fn414347   4.682   0.114   4.776 -0.3003  0.1730  0.3688
 1965ntf    fn414348   4.872   0.036   4.817  0.1373  0.1528 -0.1201
 1965ntf    on514349   4.775   0.313   4.585  0.0647  0.2153  0.0303
 1965ntf    on514350   5.002   0.237   4.636  0.0609  0.1404 -0.5603
 1965ntf    on514351   4.854  -0.162   4.464  0.2156 -0.0871  0.4687
 1965ntf    on514352   5.037  -0.073   4.600  0.3010 -0.3124  0.3529
 1965ntf    fn414353   5.105  -0.088   4.304 -0.3559  0.1442  0.3157
 1965ntf    fn414354   4.938   0.027   4.253 -0.0596 -0.2335  0.1520
 1965ntf    fn414355   5.086   0.118   4.366 -0.1424  0.3115  0.2408
 1966ntf    cn114356   0.560   6.417   1.686 -0.1112 -0.1334  0.0837
 1966ntf    sn214357   0.662   6.338   1.558  0.0435 -0.2430  0.2752
 1966ntf    nn314358   0.584   6.407   1.441  0.8316  0.3429  0.0898
 1966ntf    sn214359   0.608   6.408   1.286  0.0468  0.0192 -0.0385
 1966ntf    cn114360   0.738   6.534   1.267  0.2529 -0.1758  0.0575
 1966ntf    fn414361   0.579   6.548   1.683  0.0660 -0.1653 -0.2899
 1966ntf    fn414362   0.430   6.406   1.665 -0.2131  0.7658  0.1855
 1966ntf    fn414363   0.581   6.377   1.810  0.4322  0.2713  0.1257
 1966ntf    on514364   0.795   6.384   1.588  0.0118 -0.1458  0.2650
 1966ntf    on514365   0.640   6.196   1.574 -0.1525 -0.2711 -0.2117
 1966ntf    on514366   0.495   6.458   1.211  0.2507  0.1401 -0.2683
 1966ntf    on514367   0.679   6.297   1.226  0.0855 -0.1236  0.2700
 1966ntf    fn414368   0.755   6.568   1.140 -0.0818 -0.0857  0.0353
 1966ntf    fn414369   0.706   6.649   1.324 -0.5129 -0.5498  0.4013
 1966ntf    fn414370   0.857   6.506   1.316  0.0353 -0.4901  0.4138
 1967ntf    cn114371   6.463   5.729   4.318  0.1481  0.3466  0.2173
 1967ntf    sn214372   6.496   5.905   4.351  0.1309  0.4180 -0.1466
 1967ntf    nn314373   6.457   5.961   4.209 -0.6089 -0.1245 -0.1648
 1967ntf    sn214374   6.353   6.071   4.165 -0.5362  0.0741  0.1542
 1967ntf    cn114375   6.445   6.165   4.040  0.1853 -0.4335  0.2942
 1967ntf    fn414376   6.332   5.710   4.324  0.2346 -0.4981 -0.3669
 1967ntf    fn414377   6.509   5.697   4.198 -0.0864 -0.9664  0.4669
 1967ntf    fn414378   6.509   5.642   4.406  0.4631  0.1653 -0.1275
 1967ntf    on514379   6.405   5.928   4.461  0.4048 -0.0306  0.1739
 1967ntf    on514380   6.637   5.900   4.378  0.1301 -0.5504 -0.2788
 1967ntf    on514381   6.315   6.169   4.263  0.3545  0.6706 -0.0845
 1967ntf    on514382   6.248   6.009   4.089 -0.4721 -0.1707  0.2633
 1967ntf    fn414383   6.482   6.072   3.953  0.2361  0.1333 -0.3050
 1967ntf    fn414384   6.381   6.260   3.975  0.5221 -0.1943  0.3092
 1967ntf    fn414385   6.550   6.232   4.085  0.0021 -0.1288  0.2707
 1968ntf    cn114386   3.065   6.653   3.538 -0.0098  0.6644 -0.2188
 1968ntf    sn214387   2.922   6.568   3.464  0.1672 -0.0490  0.2480
 1968ntf    nn314388   2.907   6.655   3.334 -0.4863 -0.2335  0.1976
 1968ntf    sn214389   2.850   6.613   3.194 -0.1749 -0.4844  0.1450
 1968ntf    cn114390   2.695   6.708   3.191  0.4196  0.4947 -0.1632
 1968ntf    fn414391   3.160   6.662   3.446  0.3060  0.7315  0.1121
 1968ntf    fn414392   3.021   6.771   3.579  0.1252  0.4331  0.6125
 1968ntf    fn414393   3.114   6.592   3.645 -0.2041  0.1784 -0.4042
 1968ntf    on514394   2.974   6.435   3.443  0.5298  0.1841 -0.3602
 1968ntf    on514395   2.814   6.576   3.559 -0.1092 -0.0411 -0.0640
 1968ntf    on514396   2.802   6.478   3.182 -0.0483 -0.5732  0.6435
 1968ntf    on514397   2.931   6.657   3.083  0.2178 -0.4828  0.4286
 1968ntf    fn414398   2.709   6.837   3.169  0.3987  0.5361  0.0695
 1968ntf    fn414399   2.606   6.656   3.107  0.2017 -0.2762  0.5282
 1968ntf    fn414400   2.636   6.706   3.309  0.3043 -0.0187 -0.2284
 1969ntf    cn114401   2.193   1.236   6.611  0.5653 -0.0638 -0.0872
 1969ntf    sn214402   2.107   1.077   6.588 -0.1892  0.2895  0.2955
 1969ntf    nn314403   1.996   1.131   6.490 -0.1760 -0.3612 -0.0835
 1969ntf    sn214404   1.971   1.096   6.339 -0.3993 -0.1413 -0.0975
 1969ntf    cn114405   1.873   0.943   6.353 -0.1894 -0.2613  0.0643
 1969ntf    fn414406   2.286   1.230   6.705  0.7017 -0.2293 -0.2301
 1969ntf    fn414407   2.253   1.276   6.500  0.1099 -0.0055 -0.3146
 1969ntf    fn414408   2.114   1.335   6.647  0.2142 -0.4294  0.1507
 1969ntf    on514409   2.203   0.987   6.529 -0.2722  0.3650  0.0427
 1969ntf    on514410   2.060   1.049   6.722  0.0037  0.0288  0.3088
 1969ntf    on514411   2.076   1.058   6.249 -0.0703  0.7473 -0.1049
 1969ntf    on514412   1.880   1.194   6.284  0.3283  0.6771  0.1271
 1969ntf    fn414413   1.938   0.845   6.412 -0.4011 -0.1396  0.4995
 1969ntf    fn414414   1.756   0.950   6.413  0.3550 -0.1652  1.1287
 1969ntf    fn414415   1.852   0.896   6.231  0.0539  0.6823 -0.3621
 1970ntf    cn114416   0.894   4.961   4.745  0.2876 -0.2207 -0.4474
 1970ntf    sn214417   0.902   5.092   4.871 -0.1006 -0.3035 -0.3352
 1970ntf    nn314418   1.026   5.167   4.810  0.1090 -0.0257  0.4248
 1970ntf    sn214419   1.147   5.246   4.872  0.1082  0.2373  0.0934
 1970ntf    cn114420   1.088   5.415   4.835 -0.5419 -0.0206 -0.0652
 1970ntf    fn414421   0.882   5.015   4.624 -0.3425 -0.0515 -0.3144
 1970ntf    fn414422   1.012   4.902   4.746  0.1854 -0.4120  0.3207
 1970ntf    fn414423   0.796   4.873   4.756  0.0327  0.0967 -0.1405
 1970ntf    on514424   0.780   5.167   4.854  0.1120  0.1746  0.2256
 1970ntf    on514425   0.923   5.023   4.996  0.1641  0.2908 -0.0449
 1970ntf    on514426   1.263   5.227   4.790  0.0492 -0.1421  0.0963
 1970ntf    on514427   1.160   5.249   5.016 -0.2439  0.3203  0.1267
 1970ntf    fn414428   1.187   5.494   4.797 -0.6147 -0.0337 -0.2809
 1970ntf    fn414429   1.000   5.416   4.737  0.0795 -0.5482 -0.6412
 1970ntf    fn414430   1.035   5.473   4.942 -0.5569 -0.0081 -0.0800
 1971ntf    cn114431   3.724   5.973   3.411 -0.0483 -0.6936  0.1570
 1971ntf    sn214432   3.689   6.009   3.585  0.3742  0.2786  0.0497
 1971ntf    nn314433   3.719   5.870   3.651 -0.1683 -0.1755 -0.6467
 1971ntf    sn214434   3.614   5.774   3.718  0.1285  0.0672  0.1756
 1971ntf    cn114435   3.618   5.830   3.891  0.1255  0.0669  0.1760
 1971ntf    fn414436   3.834   5.901   3.395  0.2425 -0.0690 -0.7765
 1971ntf    fn414437   3.627   5.904   3.354  0.0623 -0.3201 -0.4949
 1971ntf    fn414438   3.727   6.080   3.332  0.5135 -0.4245  0.5325
 1971ntf    on514439   3.792   6.104   3.622 -0.1527  0.5693  0.8069
 1971ntf    on514440   3.552   6.053   3.591  0.2715 -0.0563  0.1808
 1971ntf    on514441   3.653   5.636   3.735  0.1827  0.0604 -0.0096
 1971ntf    on514442   3.476   5.799   3.684  0.3510  1.2348  0.0726
 1971ntf    fn414443   3.577   5.955   3.899  0.1195  0.0769 -0.0319
 1971ntf    fn414444   3.533   5.763   3.967 -0.0704 -0.0269 -0.1243
 1971ntf    fn414445   3.743   5.829   3.936  0.2707  0.3995 -0.2156
 1972ntf    cn114446   5.528   0.936   5.826 -0.5233  0.1797 -0.3069
 1972ntf    sn214447   5.523   1.097   5.741 -0.1073  0.2486 -0.2002
 1972ntf    nn314448   5.519   1.192   5.866  0.3289  0.5728 -0.4305
 1972ntf    sn214449   5.403   1.261   5.945  0.4064 -0.0433  0.2309
 1972ntf    cn114450   5.428   1.200   6.115  0.0611 -0.3320  0.1797
 1972ntf    fn414451   5.476   0.838   5.753  0.2403 -0.6237  0.2085
 1972ntf    fn414452   5.653   0.918   5.865 -0.5089  0.2827 -0.3059
 1972ntf    fn414453   5.459   0.930   5.939 -0.1473 -0.4372 -0.1039
 1972ntf    on514454   5.646   1.109   5.666 -0.0530 -0.4794 -0.2362
 1972ntf    on514455   5.406   1.089   5.658 -0.0760 -0.7132 -0.1712
 1972ntf    on514456   5.272   1.206   5.923  0.2128  0.3241  0.4404
 1972ntf    on514457   5.416   1.405   5.953  0.0325  0.0071 -0.0257
 1972ntf    fn414458   5.389   1.284   6.209  0.0596 -0.3238  0.1724
 1972ntf    fn414459   5.365   1.086   6.135  0.3150 -0.4398  0.3678
 1972ntf    fn414460   5.556   1.174   6.135  0.1537 -0.3619 -0.4100
 1973ntf    cn114461   0.675   6.821   3.573 -0.4781 -0.0500  0.0757
 1973ntf    sn214462   0.835   6.735   3.560 -0.3504  0.1842  0.1020
 1973ntf    nn314463   0.858   6.715   3.406 -0.6028  0.3950  0.0363
 1973ntf    sn214464   0.970   6.780   3.317 -0.1212 -0.2223  0.1869
 1973ntf    cn114465   0.911   6.744   3.149  0.2948 -0.2794  0.0501
 1973ntf    fn414466   0.589   6.754   3.498 -0.1161 -0.2609 -0.1561
 1973ntf    fn414467   0.621   6.827   3.694 -0.3272 -0.2497  0.1550
 1973ntf    fn414468   0.678   6.946   3.532  0.2326 -0.1088 -0.0742
 1973ntf    on514469   0.924   6.826   3.628 -0.1476  0.3267 -0.3501
 1973ntf    on514470   0.815   6.605   3.620 -0.1362 -0.0086 -0.2443
 1973ntf    on514471   1.099   6.716   3.313 -0.2537 -0.4426 -0.9912
 1973ntf    on514472   0.969   6.924   3.312  0.6440 -0.2161  0.0933
 1973ntf    fn414473   0.799   6.809   3.120  0.6485  0.3081 -0.0090
 1973ntf    fn414474   1.004   6.782   3.063  0.0344  0.5995  0.1434
 1973ntf    fn414475   0.897   6.613   3.133 -0.9067 -0.1221 -0.2868
 1974ntf    cn114476   0.329   3.034   6.759  0.1495  0.1020 -0.0767
 1974ntf    sn214477   0.229   2.914   6.666  0.0180  0.1588 -0.0075
 1974ntf    nn314478   0.323   2.789   6.667  0.2617  0.3465  0.3926
 1974ntf    sn214479   0.325   2.675   6.775  0.0047 -0.1338 -0.1067
 1974ntf    cn114480   0.426   2.555   6.684  0.0500  0.0271 -0.2691
 1974ntf    fn414481   0.302   3.159   6.724 -0.0900  0.1413  0.2365
 1974ntf    fn414482   0.315   3.023   6.890 -0.0668 -0.1676 -0.1208
 1974ntf    fn414483   0.457   3.027   6.730  0.2476 -0.0170  0.3713
 1974ntf    on514484   0.106   2.908   6.741 -0.2699  0.3970 -0.4555
 1974ntf    on514485   0.217   2.971   6.533 -0.6806 -0.2863 -0.1400
 1974ntf    on514486   0.199   2.609   6.801 -0.0938 -0.0345 -0.3289
 1974ntf    on514487   0.406   2.704   6.891  0.1146 -0.3481 -0.1302
 1974ntf    fn414488   0.434   2.435   6.739 -0.2142  0.2012  0.1524
 1974ntf    fn414489   0.385   2.529   6.561  0.1831 -0.7885 -0.1495
 1974ntf    fn414490   0.551   2.595   6.667  0.1905 -0.1731  0.2661
 1975ntf    cn114491   1.541   1.344   2.942  0.1378 -0.2452  0.0326
 1975ntf    sn214492   1.456   1.433   3.075 -0.0751  0.0736 -0.3151
 1975ntf    nn314493   1.579   1.482   3.161 -0.1823  0.1865 -0.2252
 1975ntf    sn214494   1.569   1.571   3.290  0.0279  0.2652 -0.2644
 1975ntf    cn114495   1.671   1.715   3.244 -0.0075  0.2913 -0.2619
 1975ntf    fn414496   1.624   1.249   2.982  0.7892  0.0840 -0.5155
 1975ntf    fn414497   1.464   1.287   2.851  0.1233  0.1658 -0.2148
 1975ntf    fn414498   1.616   1.428   2.874 -0.0927 -0.5029 -0.5488
 1975ntf    on514499   1.390   1.540   3.005 -0.1697  0.3062  0.1281
 1975ntf    on514500   1.378   1.335   3.146  0.4809 -0.1501 -0.0020
 1975ntf    on514501   1.643   1.508   3.396  0.1086  0.1442 -0.3920
 1975ntf    on514502   1.446   1.639   3.321 -0.3078 -0.4668  0.0333
 1975ntf    fn414503   1.619   1.790   3.149  0.3403  0.2417 -0.4915
 1975ntf    fn414504   1.697   1.800   3.342 -0.0995  0.0021  0.0152
 1975ntf    fn414505   1.786   1.674   3.193  0.0430 -0.4211  0.3970
 1976ntf    cn114506   1.651   3.350   5.289 -0.3815 -0.0209  0.1394
 1976ntf    sn214507   1.531   3.393   5.160 -0.1261 -0.0448 -0.1069
 1976ntf    nn314508   1.609   3.504   5.081 -0.2909  0.1800  0.0443
 1976ntf    sn214509   1.620   3.518   4.925 -0.0219 -0.0520  0.0397
 1976ntf    cn114510   1.461   3.584   4.865  0.3140  0.5610 -0.1924
 1976ntf    fn414511   1.770   3.322   5.238 -0.6001  0.1629 -0.4767
 1976ntf    fn414512   1.661   3.436   5.389  0.0829 -0.0392  0.1111
 1976ntf    fn414513   1.615   3.234   5.342 -0.0863  0.0400  0.4734
 1976ntf    on514514   1.506   3.263   5.101 -0.0651 -0.2905  0.4025
 1976ntf    on514515   1.422   3.446   5.238 -0.2420  0.6084 -0.7050
 1976ntf    on514516   1.626   3.397   4.848  0.4669 -0.1238  0.1911
 1976ntf    on514517   1.714   3.623   4.895 -0.2778  0.3028  0.4596
 1976ntf    fn414518   1.355   3.521   4.914  0.6732 -0.1389 -0.3011
 1976ntf    fn414519   1.459   3.715   4.882 -0.3364  0.5885 -0.4520
 1976ntf    fn414520   1.444   3.567   4.735 -0.2522 -0.3993 -0.0035
 1977ntf    cn114521   6.576   4.888   2.146  0.1219  0.2526 -0.2659
 1977ntf    sn214522   6.731   4.795   2.162 -0.1146 -0.1389 -0.2523
 1977ntf    nn314523   6.662   4.656   2.189 -0.5561  0.2501  0.6409
 1977ntf    sn214524   6.705   4.532   2.276  0.0861 -0.0147 -0.0515
 1977ntf    cn114525   6.558   4.428   2.254 -0.0336  0.1606 -0.0892
 1977ntf    fn414526   6.505   4.876   2.257  0.0073 -0.0381 -0.3706
 1977ntf    fn414527   6.587   5.018   2.124 -0.1329  0.3715  0.2789
 1977ntf    fn414528   6.504   4.843   2.045  0.0849  0.2792 -0.2515
 1977ntf    on514529   6.791   4.809   2.032 -0.4337  0.6295 -0.3211
 1977ntf    on514530   6.808   4.848   2.271 -0.3175  0.5107 -0.4238
 1977ntf    on514531   6.706   4.565   2.416  0.0188 -0.0600 -0.0406
 1977ntf    on514532   6.820   4.458   2.230  0.1125  0.1828 -0.3080
 1977ntf    fn414533   6.448   4.487   2.297 -0.1980 -0.4419  0.3345
 1977ntf    fn414534   6.543   4.408   2.124 -0.0162  0.0407 -0.0731
 1977ntf    fn414535   6.568   4.308   2.309  0.3690  0.3774  0.3144
 1978ntf    cn114536   0.976   5.776   1.201  0.5398 -0.0797 -0.1502
 1978ntf    sn214537   0.908   5.628   1.281  0.1434  0.1836  0.0032
 1978ntf    nn314538   0.980   5.520   1.193 -0.1095  0.1637 -0.1801
 1978ntf    sn214539   0.941   5.474   1.048 -0.1469 -0.3580 -0.0061
 1978ntf    cn114540   0.847   5.321   1.074 -0.7492  0.0486  0.2104
 1978ntf    fn414541   0.901   5.885   1.206  0.4286 -0.1876  0.5610
 1978ntf    fn414542   1.093   5.813   1.250  0.3422  0.4085 -0.0369
 1978ntf    fn414543   0.998   5.766   1.071  0.5758  0.3866 -0.1808
 1978ntf    on514544   0.951   5.642   1.418  0.3494 -0.9681  0.0650
 1978ntf    on514545   0.765   5.633   1.263  0.0379 -0.5132  0.5970
 1978ntf    on514546   1.056   5.427   0.972  0.1461  0.2780  0.0419
 1978ntf    on514547   0.850   5.559   0.977 -0.0830 -0.1687  0.1382
 1978ntf    fn414548   0.752   5.329   1.166 -0.4509  0.1114  0.5180
 1978ntf    fn414549   0.798   5.273   0.961  0.2006 -0.4812  0.0147
 1978ntf    fn414550   0.926   5.222   1.114 -0.6264  0.0556 -0.0157
 1979ntf    cn114551   0.739   6.209   4.322 -0.0393 -0.3069 -0.1582
 1979ntf    sn214552   0.757   6.198   4.502  0.0149 -0.1184 -0.1519
 1979ntf    nn314553   0.912   6.212   4.518  0.0488 -0.3442 -0.2821
 1979ntf    sn214554   1.003   6.137   4.621  0.0923  0.0330 -0.0416
 1979ntf    cn114555   1.066   6.003   4.515  0.0728  0.0117 -0.0263
 1979ntf    fn414556   0.780   6.325   4.272 -0.0858 -0.0946  0.2955
 1979ntf    fn414557   0.794   6.110   4.254  0.4693 -0.0360 -0.1458
 1979ntf    fn414558   0.612   6.204   4.287 -0.2557  0.0636  0.5503
 1979ntf    on514559   0.685   6.313   4.552  0.5411  0.0673  0.1806
 1979ntf    on514560   0.694   6.071   4.525  0.3008 -0.1584  0.4279
 1979ntf    on514561   0.940   6.072   4.733 -0.2684  0.3113 -0.0818
 1979ntf    on514562   1.128   6.200   4.656  0.0511 -0.0797  0.3149
 1979ntf    fn414563   1.176   5.949   4.566 -0.1613 -0.4832 -0.0408
 1979ntf    fn414564   0.975   5.912   4.483  0.1933 -0.1624  0.1251
 1979ntf    fn414565   1.097   6.065   4.402  0.2154 -0.0608 -0.0271
 1980ntf    cn114566   4.219   4.677   1.686 -0.1247 -0.2314 -0.8157
 1980ntf    sn214567   4.046   4.717   1.724  0.1141 -0.0021  0.0521
 1980ntf    nn314568   4.003   4.786   1.590  0.5475 -0.6973 -0.4511
 1980ntf    sn214569   3.939   4.725   1.460  0.0169  0.0272 -0.5344
 1980ntf    cn114570   3.952   4.864   1.344  0.2046  0.3572 -0.1222
 1980ntf    fn414571   4.227   4.584   1.592  0.5956 -0.3622 -0.6331
 1980ntf    fn414572   4.281   4.778   1.629  0.0411  0.0915 -0.0824
 1980ntf    fn414573   4.291   4.629   1.787 -0.5079  0.3566 -0.2623
 1980ntf    on514574   3.983   4.588   1.736 -0.0809  0.1010  0.1527
 1980ntf    on514575   4.042   4.810   1.835 -0.0071 -1.0084  0.9126
 1980ntf    on514576   3.800   4.688   1.475  0.2296 -0.4830  0.2452
 1980ntf    on514577   4.027   4.623   1.410 -0.1845 -0.2689 -0.2898
 1980ntf    fn414578   3.867   4.859   1.243 -0.2533 -0.4315  0.2999
 1980ntf    fn414579   3.938   4.976   1.412 -0.5821  0.1972 -0.0192
 1980ntf    fn414580   4.073   4.871   1.290  0.1514  0.1089 -0.2773
 1981ntf    cn114581   2.556   2.145   2.081  0.0441 -0.1836  0.3786
 1981ntf    sn214582   2.618   2.040   1.946  0.0820  0.1727  0.1193
 1981ntf    nn314583   2.611   1.894   2.003 -1.0063 -0.1873 -0.9112
 1981ntf    sn214584   2.674   1.761   1.949  0.0680  0.0574 -0.2742
 1981ntf    cn114585   2.723   1.683   2.106 -0.0983 -0.1181 -0.3090
 1981ntf    fn414586   2.569   2.273   2.048 -0.2704 -0.2156  0.1175
 1981ntf    fn414587   2.427   2.121   2.098  0.0233 -0.0607  0.3969
 1981ntf    fn414588   2.627   2.124   2.191 -0.0275 -0.6189  0.3453
 1981ntf    on514589   2.528   2.073   1.838  0.2384 -0.7938 -0.3189
 1981ntf    on514590   2.751   2.094   1.926  0.0008  0.4332  0.2706
 1981ntf    on514591   2.806   1.763   1.891  0.0355 -0.3614 -0.3649
 1981ntf    on514592   2.582   1.668   1.888 -0.5859  0.1276  0.5835
 1981ntf    fn414593   2.794   1.761   2.186  0.0959 -0.0660 -0.5299
 1981ntf    fn414594   2.618   1.649   2.179  0.3853 -0.5908  0.1717
 1981ntf    fn414595   2.795   1.574   2.085  0.2878  0.1534 -0.4158
 1982ntf    cn114596   0.020   5.475   6.464  0.2567  0.2686 -0.3031
 1982ntf    sn214597   0.023   5.374   6.314  0.2206  0.1307 -0.2107
 1982ntf    nn314598   0.086   5.479   6.216 -0.4479  0.3023 -0.4622
 1982ntf    sn214599   0.230   5.490   6.156 -0.1177  0.0505  0.2684
 1982ntf    cn114600   0.292   5.643   6.233  0.1741  0.1104 -0.0826
 1982ntf    fn414601  -0.090   5.466   6.537  0.6392 -0.4012  0.1966
 1982ntf    fn414602   0.118   5.441   6.547 -0.2580 -0.0924  0.1601
 1982ntf    fn414603   0.032   5.605   6.439 -0.0367  0.4042  0.2286
 1982ntf    on514604   0.102   5.261   6.355  0.4407  0.3207 -0.1121
 1982ntf    on514605  -0.118   5.350   6.296  0.2583 -0.2522 -0.0217
 1982ntf    on514606   0.219   5.516   6.014 -0.0145 -0.0369  0.2441
 1982ntf    on514607   0.330   5.393   6.193 -0.2534 -0.0572  0.3496
 1982ntf    fn414608   0.398   5.690   6.168 -0.3170  0.8251 -0.3794
 1982ntf    fn414609   0.199   5.737   6.226 -0.2268 -0.2986 -0.3059
 1982ntf    fn414610   0.330   5.633   6.359  0.0889  0.1991 -0.0500
 1983ntf    cn114611   5.409   5.080   1.740  0.0865 -0.4679 -0.0151
 1983ntf    sn214612   5.308   5.079   1.589 -0.2262 -0.1212  0.1901
 1983ntf    nn314613   5.420   5.102   1.481  0.0260  0.0251  0.4811
 1983ntf    sn214614   5.481   4.993   1.387 -0.1416  0.4550 -0.1274
 1983ntf    cn114615   5.481   5.084   1.229  0.2823  0.1232 -0.3231
 1983ntf    fn414616   5.329   5.083   1.845 -0.4541 -0.2606 -0.4307
 1983ntf    fn414617   5.485   4.973   1.755  0.3923 -0.0889  1.2735
 1983ntf    fn414618   5.488   5.187   1.741 -0.1764 -0.2755  0.8005
 1983ntf    on514619   5.233   4.956   1.581 -0.5366  0.0778  0.0110
 1983ntf    on514620   5.238   5.206   1.590 -0.2891 -0.1570  0.6556
 1983ntf    on514621   5.399   4.881   1.347  0.2168  0.2928 -0.4223
 1983ntf    on514622   5.622   4.971   1.408 -0.2105  0.1368  0.0043
 1983ntf    fn414623   5.544   5.015   1.136  0.2657  0.1734 -0.3723
 1983ntf    fn414624   5.356   5.107   1.191  0.1346 -0.4841 -0.2147
 1983ntf    fn414625   5.541   5.202   1.237 -0.3076  0.4176 -0.0763
 1984ntf    cn114626   4.107   2.574   5.556 -0.2001  0.1181 -0.5138
 1984ntf    sn214627   4.065   2.489   5.401 -0.0197 -0.0197 -0.4867
 1984ntf    nn314628   3.926   2.423   5.432  0.0680 -0.2316 -0.5388
 1984ntf    sn214629   3.783   2.470   5.389  0.0583  0.0498 -0.2056
 1984ntf    cn114630   3.705   2.311   5.346  0.0004  0.0022  0.0709
 1984ntf    fn414631   4.227   2.629   5.548 -0.2594  0.1935 -0.9243
 1984ntf    fn414632   4.019   2.667   5.593 -0.0455  0.2077 -0.3711
 1984ntf    fn414633   4.115   2.484   5.652  0.1349  0.4945 -0.1846
 1984ntf    on514634   4.075   2.594   5.303  0.3783  0.2966 -0.1122
 1984ntf    on514635   4.167   2.386   5.400  0.1368  0.1266  0.1210
 1984ntf    on514636   3.778   2.552   5.270 -0.1027  0.4242  0.0585
 1984ntf    on514637   3.703   2.518   5.499 -0.0103  0.2783 -0.3542
 1984ntf    fn414638   3.699   2.224   5.445  0.0751  0.2023  0.2497
 1984ntf    fn414639   3.579   2.321   5.308  0.1009 -0.2963 -0.3512
 1984ntf    fn414640   3.766   2.246   5.248 -0.6736  0.3118 -0.5616
 1985ntf    cn114641   4.136   2.876   4.045  0.1824 -0.1431  0.1160
 1985ntf    sn214642   4.002   2.888   4.167 -0.0405 -0.2946 -0.1143
 1985ntf    nn314643   4.074   2.923   4.302 -0.4295  0.1069 -0.0092
 1985ntf    sn214644   4.079   3.053   4.389  0.1600  0.0114  0.1003
 1985ntf    cn114645   3.908   3.052   4.452  0.1909 -0.5422  0.1824
 1985ntf    fn414646   4.226   2.968   4.075  0.3752 -0.2335 -0.1814
 1985ntf    fn414647   4.194   2.757   4.032 -0.3056 -0.3261 -0.4282
 1985ntf    fn414648   4.096   2.905   3.923 -0.5134  0.5499  0.5021
 1985ntf    on514649   3.922   2.991   4.106  0.4869  0.3646  0.2953
 1985ntf    on514650   3.943   2.757   4.175 -0.8486  0.0438 -0.3729
 1985ntf    on514651   4.089   3.177   4.315 -0.1338  0.2293  0.4212
 1985ntf    on514652   4.167   3.049   4.504  0.5043  0.0351 -0.1601
 1985ntf    fn414653   3.814   3.080   4.364  0.3217 -0.1629  0.1588
 1985ntf    fn414654   3.869   2.940   4.510 -0.4385 -0.3071  0.2209
 1985ntf    fn414655   3.890   3.149   4.540  0.2382 -0.4782  0.1231
 1986ntf    cn114656   3.930   1.626   4.715  0.1958 -0.2072  0.0326
 1986ntf    sn214657   4.041   1.506   4.796  0.0737 -0.1543  0.2810
 1986ntf    nn314658   4.164   1.502   4.698  0.1349 -0.0498  0.3527
 1986ntf    sn214659   4.292   1.593   4.699  0.0917  0.0175 -0.1735
 1986ntf    cn114660   4.402   1.487   4.797 -0.3429 -0.0143  0.2832
 1986ntf    fn414661   3.851   1.580   4.620 -0.2114  0.1411  0.1977
 1986ntf    fn414662   3.848   1.671   4.809 -0.0207 -0.2496 -0.1356
 1986ntf    fn414663   3.985   1.737   4.669 -0.1562 -0.0151  0.0758
 1986ntf    on514664   4.061   1.569   4.924 -0.5620  0.3128  0.1568
 1986ntf    on514665   3.965   1.384   4.797 -0.4877  0.1921  0.2183
 1986ntf    on514666   4.280   1.717   4.772  0.3662 -0.0577 -0.0007
 1986ntf    on514667   4.352   1.599   4.568  0.2439  0.1014 -0.1007
 1986ntf    fn414668   4.502   1.564   4.835 -0.2247 -0.1187  0.1816
 1986ntf    fn414669   4.351   1.453   4.915 -0.3957  0.2635  0.3413
 1986ntf    fn414670   4.449   1.377   4.741  0.1274  0.3948 -0.1373
 1987ntf    cn114671   5.830   1.937   1.232  0.6357 -0.1310 -0.0937
 1987ntf    sn214672   5.733   2.010   1.097  0.2841  0.3532  0.4179
 1987ntf    nn314673   5.774   1.899   0.993 -0.1181  0.4750  0.1242
 1987ntf    sn214674   5.825   1.914   0.846 -0.0327  0.0047  0.1034
 1987ntf    cn114675   6.002   1.886   0.878 -0.0936  0.3547  0.7605
 1987ntf    fn414676   5.847   2.018   1.335  0.3508 -0.7947  0.4876
 1987ntf    fn414677   5.777   1.825   1.278 -0.1814  0.2217 -0.1684
 1987ntf    fn414678   5.949   1.901   1.186  0.7735 -0.3331  0.4188
 1987ntf    on514679   5.595   1.998   1.138  0.0442 -0.2596 -0.5171
 1987ntf    on514680   5.797   2.137   1.075  0.1092  0.2903 -0.5070
 1987ntf    on514681   5.828   2.048   0.791 -0.4474 -0.1486 -0.2998
 1987ntf    on514682   5.791   1.803   0.761  0.1661 -0.0742  0.1272
 1987ntf    fn414683   6.063   1.983   0.944 -0.5257  0.6349  0.7576
 1987ntf    fn414684   6.002   1.775   0.951 -1.0855  0.0386  0.3013
 1987ntf    fn414685   6.061   1.851   0.765 -0.3903  0.3988  0.5915
 1988ntf    cn114686   6.476   5.039   2.639  0.3111 -0.4098 -0.3623
 1988ntf    sn214687   6.296   5.044   2.666  0.3713  0.2112 -0.0709
 1988ntf    nn314688   6.302   5.018   2.820  0.1555 -0.2409 -0.1385
 1988ntf    sn214689   6.212   4.918   2.900  0.0802 -0.0677 -0.0066
 1988ntf    cn114690   6.057   5.013   2.910  0.1304 -0.0239  0.3750
 1988ntf    fn414691   6.525   4.928   2.693  0.2078 -0.1618  0.2441
 1988ntf    fn414692   6.517   5.058   2.514 -0.6122  0.5541 -0.5300
 1988ntf    fn414693   6.541   5.129   2.710 -0.2391 -0.3830  0.1140
 1988ntf    on514694   6.251   5.177   2.632 -0.7847 -0.2143 -0.2712
 1988ntf    on514695   6.251   4.940   2.576 -0.6556  0.5190  0.0734
 1988ntf    on514696   6.248   4.912   3.040 -0.1574 -0.1840  0.0505
 1988ntf    on514697   6.172   4.797   2.833 -0.3030 -0.0157  0.1243
 1988ntf    fn414698   6.005   5.026   2.790  0.5794  0.0566  0.1875
 1988ntf    fn414699   5.958   4.961   2.981 -0.0667 -0.1557  0.0060
 1988ntf    fn414700   6.075   5.132   2.964 -0.1566  0.2334 -0.0941
 1989ntf    cn114701   2.638   4.426   0.644  0.2875 -0.3259  0.0352
 1989ntf    sn214702   2.715   4.464   0.804  0.4734  0.1838 -0.1751
 1989ntf    nn314703   2.579   4.491   0.878  0.5072  0.1448 -0.0976
 1989ntf    sn214704   2.553   4.453   1.028 -0.2651 -0.0416 -0.2769
 1989ntf    cn114705   2.454   4.301   1.011 -0.0584 -0.2272  0.1726
 1989ntf    fn414706   2.722   4.354   0.571  0.2713 -0.3062 -0.0025
 1989ntf    fn414707   2.538   4.342   0.663 -0.0917  0.0692 -0.2077
 1989ntf    fn414708   2.597   4.532   0.576  0.1026 -0.7056 -0.4474
 1989ntf    on514709   2.784   4.342   0.835 -0.2093  0.0604  0.9120
 1989ntf    on514710   2.791   4.583   0.774 -0.1676  0.4946 -0.5655
 1989ntf    on514711   2.464   4.551   1.084 -0.1063  0.1632 -0.3823
 1989ntf    on514712   2.667   4.411   1.105  0.0156 -0.0591 -0.6972
 1989ntf    fn414713   2.329   4.323   0.976  0.2411  0.3600 -0.5600
 1989ntf    fn414714   2.501   4.213   0.924 -0.0613 -0.0122 -0.0470
 1989ntf    fn414715   2.451   4.240   1.128  0.3718  0.3290  0.4775
 1990ntf    cn114716   4.862   1.211   4.326 -0.3026 -0.3431  0.1603
 1990ntf    sn214717   4.989   1.190   4.454 -0.1243 -0.0339  0.0343
 1990ntf    nn314718   4.893   1.202   4.577 -0.1764 -0.5318  0.0420
 1990ntf    sn214719   4.916   1.259   4.722 -0.1105  0.0667 -0.2019
 1990ntf    cn114720   4.772   1.370   4.730  0.0504  0.2505  0.1046
 1990ntf    fn414721   4.797   1.326   4.325  0.0191 -0.1631 -0.1809
 1990ntf    fn414722   4.914   1.193   4.206  0.0965  0.5705  0.1851
 1990ntf    fn414723   4.771   1.115   4.337 -0.2212 -0.4020  0.3287
 1990ntf    on514724   5.033   1.054   4.432  0.5714  0.2417 -0.3192
 1990ntf    on514725   5.082   1.300   4.440 -0.3706  0.1277 -0.3410
 1990ntf    on514726   5.025   1.348   4.751 -0.1706 -0.0256  0.3143
 1990ntf    on514727   4.884   1.167   4.828  0.6393  0.5082  0.4118
 1990ntf    fn414728   4.662   1.303   4.702  0.1890 -0.1977  0.5998
 1990ntf    fn414729   4.764   1.431   4.848  0.1900  0.3149  0.0809
 1990ntf    fn414730   4.772   1.471   4.644 -0.8910  0.3502  0.2102
 1991ntf    cn114731   5.189   3.230   6.220 -0.0158  0.7484  0.0475
 1991ntf    sn214732   5.213   3.251   6.399 -0.0220 -0.1571  0.1593
 1991ntf    nn314733   5.100   3.156   6.453 -0.4636 -0.0473 -0.5571
 1991ntf    sn214734   5.034   3.154   6.595  0.0268 -0.2245 -0.3296
 1991ntf    cn114735   5.158   3.048   6.675 -0.1537 -0.0139  0.2361
 1991ntf    fn414736   5.280   3.294   6.149  0.2754  0.5742  0.2615
 1991ntf    fn414737   5.197   3.103   6.183  0.3021  0.6581  0.4221
 1991ntf    fn414738   5.071   3.278   6.184 -0.0516  0.1087 -0.7084
 1991ntf    on514739   5.342   3.195   6.431  0.1169  0.0301 -0.0758
 1991ntf    on514740   5.187   3.390   6.424 -0.2454 -0.1074 -0.3400
 1991ntf    on514741   4.907   3.086   6.592 -0.4538  0.6609 -0.4038
 1991ntf    on514742   5.038   3.279   6.667  0.5441 -0.3895 -0.0679
 1991ntf    fn414743   5.281   3.082   6.642 -0.3637  0.1610 -0.3839
 1991ntf    fn414744   5.152   3.056   6.807  0.0621 -0.6404  0.2922
 1991ntf    fn414745   5.142   2.920   6.645  0.2967  0.0073 -0.1010
 1992ntf    cn114746   1.261   4.194   5.090 -0.2686 -0.2795  0.5353
 1992ntf    sn214747   1.437   4.237   5.106 -0.2593 -0.0306 -0.2113
 1992ntf    nn314748   1.430   4.376   5.034 -0.7707  0.0929  0.0743
 1992ntf    sn214749   1.395   4.520   5.088 -0.0837  0.2675  0.0680
 1992ntf    cn114750   1.563   4.575   5.128  0.0040  0.2293 -0.2435
 1992ntf    fn414751   1.235   4.077   5.145  0.2792 -0.7581 -0.2081
 1992ntf    fn414752   1.171   4.283   5.129 -0.2254  0.0798 -0.1638
 1992ntf    fn414753   1.230   4.175   4.963 -0.1614  0.3070  0.4173
 1992ntf    on514754   1.470   4.240   5.246  0.0939 -0.2429 -0.2882
 1992ntf    on514755   1.512   4.144   5.024  0.3767  0.3592 -0.0807
 1992ntf    on514756   1.314   4.518   5.207  0.2270  0.5691  0.2830
 1992ntf    on514757   1.355   4.605   4.978 -0.5583  0.4082  0.3450
 1992ntf    fn414758   1.564   4.686   5.201 -0.0337 -0.1714  0.3753
 1992ntf    fn414759   1.617   4.488   5.211  0.0036  0.6345  0.1858
 1992ntf    fn414760   1.640   4.604   5.024  0.5169  0.3767  0.1720
 1993ntf    cn114761   0.700   4.194   5.281 -0.1285 -0.0966 -0.0123
 1993ntf    sn214762   0.799   4.290   5.163 -0.2703 -0.0633 -0.1058
 1993ntf    nn314763   0.683   4.384   5.115  0.1422  0.6207  0.2181
 1993ntf    sn214764   0.633   4.413   4.969 -0.3738  0.2451  0.3161
 1993ntf    cn114765   0.457   4.377   4.997 -0.3577 -0.1545 -0.0724
 1993ntf    fn414766   0.667   4.272   5.383  0.8169 -0.3873  0.5249
 1993ntf    fn414767   0.590   4.144   5.225  0.2348 -0.5233 -0.3501
 1993ntf    fn414768   0.759   4.087   5.330  0.4122  0.2603  0.1113
 1993ntf    on514769   0.897   4.364   5.239 -0.5213  0.2366 -0.0696
 1993ntf    on514770   0.848   4.191   5.070  0.6904 -0.3825  0.7270
 1993ntf    on514771   0.669   4.324   4.861  0.2439  0.4789  0.3251
 1993ntf    on514772   0.629   4.554   4.940  0.9105  0.2399  0.0439
 1993ntf    fn414773   0.416   4.445   5.103  0.2399 -0.1062  0.1338
 1993ntf    fn414774   0.383   4.410   4.892 -0.1740  0.2126 -0.0882
 1993ntf    fn414775   0.433   4.250   5.022 -0.0990 -0.1871  0.0121
 1994ntf    cn114776   5.366   3.886   2.011  0.0724 -0.2157  0.0488
 1994ntf    sn214777   5.418   3.836   1.844  0.6090  0.0235  0.1436
 1994ntf    nn314778   5.282   3.866   1.773  0.2694  0.1707  0.8417
 1994ntf    sn214779   5.237   3.993   1.692  0.2324 -0.2436  0.2013
 1994ntf    cn114780   5.242   3.954   1.514  0.4768  0.0650  0.1407
 1994ntf    fn414781   5.364   4.017   2.030 -0.4837 -0.3024  0.6269
 1994ntf    fn414782   5.245   3.838   2.035  0.0578  0.1124  0.6711
 1994ntf    fn414783   5.437   3.842   2.114 -0.0471  0.0823  0.2620
 1994ntf    on514784   5.526   3.925   1.807 -0.1215  0.7841 -0.1869
 1994ntf    on514785   5.454   3.697   1.853  0.2695 -0.0735  0.0225
 1994ntf    on514786   5.306   4.119   1.704 -0.2512  0.0602 -0.1557
 1994ntf    on514787   5.097   4.013   1.721  0.3442  0.2309  0.4178
 1994ntf    fn414788   5.204   4.048   1.430  0.2784  0.2719  0.4581
 1994ntf    fn414789   5.366   3.922   1.481  0.4394 -0.0937  0.1548
 1994ntf    fn414790   5.187   3.838   1.484 -0.3463  0.4377  0.1951
 1995ntf    cn114791   5.172   0.442   1.243 -0.0896 -0.2148 -0.1435
 1995ntf    sn214792   5.103   0.526   1.389  0.2134  0.2885 -0.2848
 1995ntf    nn314793   5.233   0.578   1.459  0.1215  0.0675  0.0546
 1995ntf    sn214794   5.310   0.713   1.439  0.0779  0.1301  0.3109
 1995ntf    cn114795   5.205   0.836   1.522 -0.0923  0.2062 -0.0129
 1995ntf    fn414796   5.248   0.339   1.276  0.0735  0.0630  0.3666
 1995ntf    fn414797   5.086   0.391   1.157 -0.3393 -0.5090  0.2739
 1995ntf    fn414798   5.255   0.525   1.181 -0.1213 -0.1918 -0.1553
 1995ntf    on514799   5.018   0.634   1.345 -0.2385  0.0400 -0.0420
 1995ntf    on514800   5.036   0.424   1.468  0.4132  0.3900  0.0161
 1995ntf    on514801   5.328   0.753   1.302  0.5715 -0.6842  0.1339
 1995ntf    on514802   5.432   0.716   1.516  0.5011 -0.0538 -0.3420
 1995ntf    fn414803   5.258   0.958   1.519  0.1902  0.0745 -0.3927
 1995ntf    fn414804   5.090   0.850   1.458  0.0133  0.3099 -0.1816
 1995ntf    fn414805   5.172   0.805   1.646  0.1259 -0.5685 -0.1487
 1996ntf    cn114806   5.504   5.975   4.224 -0.1424  0.3171  0.3806
 1996ntf    sn214807   5.593   6.129   4.186  0.0359  0.0600 -0.2544
 1996ntf    nn314808   5.522   6.236   4.276  0.1133 -0.1040  0.0010
 1996ntf    sn214809   5.421   6.352   4.244  0.0454 -0.1944 -0.1128
 1996ntf    cn114810   5.526   6.497   4.213  0.0955 -0.2363 -0.1382
 1996ntf    fn414811   5.519   5.941   4.350  0.2234  0.3028  0.3329
 1996ntf    fn414812   5.375   5.996   4.201 -0.0913  0.2862  0.0583
 1996ntf    fn414813   5.543   5.874   4.147 -0.3910  0.3832  0.1646
 1996ntf    on514814   5.727   6.109   4.235  0.2399  0.1100 -0.7792
 1996ntf    on514815   5.577   6.149   4.044  0.0634 -0.4157 -0.3253
 1996ntf    on514816   5.336   6.393   4.353 -0.1174 -0.2415 -0.2222
 1996ntf    on514817   5.355   6.341   4.116 -0.1270  0.1497 -0.0546
 1996ntf    fn414818   5.445   6.599   4.187  0.3037 -0.0331  0.0058
 1996ntf    fn414819   5.603   6.537   4.313 -0.7132 -0.0215  0.4113
 1996ntf    fn414820   5.600   6.487   4.104  0.3178  0.1722 -0.0243
 1997ntf    cn114821   3.655   0.733   1.645 -0.0164 -0.3481 -0.0671
 1997ntf    sn214822   3.768   0.685   1.779  0.2944  0.3237 -0.0841
 1997ntf    nn314823   3.886   0.787   1.761  0.3074  0.3072 -0.0923
 1997ntf    sn214824   4.038   0.758   1.735  0.2679 -0.0168  0.0310
 1997ntf    cn114825   4.087   0.674   1.889 -0.3534 -0.5840 -0.0778
 1997ntf    fn414826   3.605   0.855   1.656  0.1940 -0.2736  0.0612
 1997ntf    fn414827   3.710   0.721   1.525  0.0483 -0.0853 -0.0639
 1997ntf    fn414828   3.552   0.650   1.639 -0.2104 -0.1580  0.5525
 1997ntf    on514829   3.685   0.708   1.894  0.1572 -0.7524  0.0399
 1997ntf    on514830   3.799   0.546   1.758 -0.4836  0.1989 -0.4238
 1997ntf    on514831   4.118   0.878   1.733  0.1197  0.0783 -0.5264
 1997ntf    on514832   4.073   0.658   1.637 -0.7832 -0.3612 -0.0000
 1997ntf    fn414833   4.017   0.717   1.992 -0.2038  0.8397 -0.5399
 1997ntf    fn414834   4.069   0.543   1.888 -0.1691 -0.6087 -0.2633
 1997ntf    fn414835   4.213   0.702   1.918 -0.5772  0.2721  0.1064
 1998ntf    cn114836   6.066   3.402   3.067 -0.1110  0.1536  0.0295
 1998ntf    sn214837   5.896   3.461   3.042 -0.0306  0.4647  0.1980
 1998ntf    nn314838   5.844   3.463   3.190  0.1842 -0.1931  0.2837
 1998ntf    sn214839   5.850   3.579   3.295 -0.5174  0.0643  0.0472
 1998ntf    cn114840   5.979   3.506   3.400 -0.5261  0.2179  0.1641
 1998ntf    fn414841   6.111   3.331   2.965 -0.0562  0.2549 -0.0183
 1998ntf    fn414842   6.152   3.500   3.089  0.6164 -0.4154 -0.2584
 1998ntf    fn414843   6.068   3.326   3.174  0.1767  0.2436  0.0898
 1998ntf    on514844   5.908   3.587   2.974 -0.6821  0.0085 -0.7947
 1998ntf    on514845   5.831   3.357   2.965  0.2286  0.4668 -0.0254
 1998ntf    on514846   5.736   3.573   3.383 -0.2067  0.0782  0.4558
 1998ntf    on514847   5.907   3.705   3.255  0.5791 -0.5339 -0.2979
 1998ntf    fn414848   6.015   3.589   3.497  0.0991  0.4432 -0.2501
 1998ntf    fn414849   5.937   3.393   3.454 -0.2723 -0.1611 -0.4202
 1998ntf    fn414850   6.088   3.481   3.329 -0.7619  0.2362 -0.2033
 1999ntf    cn114851   5.182   2.545   4.748  0.3282 -0.0440  0.0281
 1999ntf    sn214852   5.294   2.516   4.889  0.2526  0.1927  0.1378
 1999ntf    nn314853   5.412   2.615   4.856  0.2722  0.1727  0.1500
 1999ntf    sn214854   5.552   2.605   4.927  0.2993 -0.3710  0.0276
 1999ntf    cn114855   5.522   2.530   5.090 -0.2072 -0.4919 -0.1195
 1999ntf    fn414856   5.075   2.469   4.750  0.0257  0.3883  0.6604
 1999ntf    fn414857   5.130   2.667   4.749  0.4836  0.0284 -0.4610
 1999ntf    fn414858   5.248   2.522   4.636  0.2883  0.3789 -0.0857
 1999ntf    on514859   5.215   2.554   5.003 -0.1844 -0.7623  0.1614
 1999ntf    on514860   5.332   2.378   4.874 -0.0824  0.1601 -0.4421
 1999ntf    on514861   5.595   2.738   4.960 -0.2329 -0.2342  0.1829
 1999ntf    on514862   5.637   2.510   4.860 -0.1007 -0.3189 -0.5643
 1999ntf    fn414863   5.641   2.508   5.142 -0.0681 -0.0646 -0.2508
 1999ntf    fn414864   5.460   2.613   5.172 -0.2338 -0.1464 -0.4845
 1999ntf    fn414865   5.459   2.413   5.084 -0.2060 -0.5070  0.1719
 2000ntf    cn114866   6.382   2.305   4.406 -0.0665  0.0399  0.5279
 2000ntf    sn214867   6.430   2.294   4.581  0.2485 -0.1233  0.4328
 2000ntf    nn314868   6.301   2.252   4.660  0.2518  0.1983  0.6151
 2000ntf    sn214869   6.267   2.118   4.734  0.0214 -0.1066 -0.0299
 2000ntf    cn114870   6.095   2.143   4.784  0.1625  0.3378  0.2339
 2000ntf    fn414871   6.338   2.188   4.363  0.0373 -0.0023  0.5343
 2000ntf    fn414872   6.288   2.394   4.381 -0.0192 -0.1858 -0.4761
 2000ntf    fn414873   6.487   2.349   4.339 -0.2476  0.1859  0.3411
 2000ntf    on514874   6.536   2.196   4.587  0.6189  0.2704  0.4121
 2000ntf    on514875   6.471   2.428   4.616  0.1950  0.0942 -0.3133
 2000ntf    on514876   6.334   2.105   4.862  0.4981  0.0688 -0.2582
 2000ntf    on514877   6.260   2.000   4.651  0.1062 -0.2521  0.1681
 2000ntf    fn414878   6.067   2.048   4.871  0.0090  0.0933 -0.0806
 2000ntf    fn414879   6.081   2.263   4.839  0.5388  0.3435  0.3147
 2000ntf    fn414880   6.010   2.133   4.683 -0.0121  0.3553  0.3759
 2001ntf    cn114881   3.499   0.032   6.504  0.2193 -0.1540  0.3991
 2001ntf    sn214882   3.530   0.207   6.543  0.0312 -0.0396  0.0407
 2001ntf    nn314883   3.528   0.270   6.400 -0.6270 -0.3397 -0.0901
 2001ntf    sn214884   3.529   0.425   6.372 -0.4108 -0.3309 -0.0340
 2001ntf    cn114885   3.688   0.482   6.440 -0.4368 -0.0312 -0.2242
 2001ntf    fn414886   3.379   0.013   6.450  0.7232  0.0766 -0.8322
 2001ntf    fn414887   3.577  -0.010   6.406 -0.4152 -0.2336 -0.0827
 2001ntf    fn414888   3.505  -0.046   6.611  0.4872 -0.1117  0.4137
 2001ntf    on514889   3.414   0.231   6.625 -0.1309  0.1652 -0.2484
 2001ntf    on514890   3.663   0.192   6.597 -0.4608 -0.6327  1.1392
 2001ntf    on514891   3.432   0.503   6.444 -0.0042 -0.1565  0.3310
 2001ntf    on514892   3.526   0.446   6.230 -0.2169  0.0672  0.0196
 2001ntf    fn414893   3.793   0.419   6.390 -0.4045  0.1348 -0.3680
 2001ntf    fn414894   3.708   0.611   6.418 -0.3421  0.0085  0.0826
 2001ntf    fn414895   3.691   0.460   6.570 -0.2498 -0.6639 -0.3343
 2002ntf    cn114896   2.090   6.838   3.462  0.1507  0.1248  0.0953
 2002ntf    sn214897   2.212   6.843   3.328 -0.1155  0.0385 -0.1530
 2002ntf    nn314898   2.135   6.772   3.212 -0.1823  0.1863 -0.1987
 2002ntf    sn214899   2.043   6.824   3.095 -0.3229  0.0909 -0.1302
 2002ntf    cn114900   2.153   6.814   2.951 -0.1105 -0.1704  0.0479
 2002ntf    fn414901   1.970   6.876   3.422  0.0364 -0.2014  0.1249
 2002ntf    fn414902   2.061   6.717   3.508 -0.4567  0.3146  0.2266
 2002ntf    fn414903   2.127   6.913   3.564  0.1228  0.3232 -0.0413
 2002ntf    on514904   2.234   6.984   3.307 -0.0470  0.0984  0.3037
 2002ntf    on514905   2.322   6.766   3.381 -0.5014 -0.1801  0.3409
 2002ntf    on514906   2.017   6.965   3.109  0.1591  0.1466  0.2647
 2002ntf    on514907   1.938   6.733   3.056 -0.3963  0.3880 -0.6331
 2002ntf    fn414908   2.218   6.699   2.944 -0.4377 -0.3302 -0.4318
 2002ntf    fn414909   2.096   6.849   2.837  0.3893  0.5795  0.0237
 2002ntf    fn414910   2.249   6.905   2.963 -0.0598 -0.2457  0.2190
 2003ntf    cn114911   1.645   5.841   0.089  0.3236  0.0761  0.0974
 2003ntf    sn214912   1.618   5.717  -0.042 -0.3432  0.2150  0.1040
 2003ntf    nn314913   1.758   5.651  -0.063 -0.2998  0.2743  0.2049
 2003ntf    sn214914   1.822   5.593  -0.194 -0.1335  0.6618  0.1133
 2003ntf    cn114915   1.868   5.428  -0.133 -0.3021  0.5044 -0.1860
 2003ntf    fn414916   1.735   5.930   0.049  0.1513  0.3412  0.3005
 2003ntf    fn414917   1.533   5.908   0.107  0.1284 -0.2967  0.2720
 2003ntf    fn414918   1.683   5.795   0.207  0.5002  0.3329  0.1402
 2003ntf    on514919   1.531   5.619   0.019  0.1065 -0.4492 -0.3133
 2003ntf    on514920   1.576   5.799  -0.153  0.0866  0.4138  0.0854
 2003ntf    on514921   1.953   5.644  -0.226 -0.4175  1.2071 -0.1943
 2003ntf    on514922   1.730   5.556  -0.298  0.2234 -0.2585  0.1107
 2003ntf    fn414923   1.980   5.422  -0.063 -0.1942 -0.1483 -0.3992
 2003ntf    fn414924   1.773   5.387  -0.051  0.2935 -0.3988  0.0675
 2003ntf    fn414925   1.882   5.344  -0.234 -0.4447 -0.0033  0.2113
 2004ntf    cn114926   2.891   1.660   0.127 -0.4718  0.3926 -0.2969
 2004ntf    sn214927   2.859   1.539  -0.005  0.0443  0.0799 -0.1377
 2004ntf    nn314928   2.702   1.548  -0.009  0.0339  0.1556  0.4020
 2004ntf    sn214929   2.617   1.430  -0.067 -0.0020  0.3349  0.0894
 2004ntf    cn114930   2.500   1.535  -0.159  0.2815  0.2496 -0.3695
 2004ntf    fn414931   3.014   1.660   0.174 -0.6209  0.3953  0.0923
 2004ntf    fn414932   2.868   1.785   0.089 -0.4921  0.4432 -0.1169
 2004ntf    fn414933   2.809   1.652   0.230  0.2655 -0.1821  0.2567
 2004ntf    on514934   2.925   1.610  -0.112  0.2509 -0.0623 -0.1043
 2004ntf    on514935   2.916   1.419   0.050 -0.3528 -0.1836 -0.2971
 2004ntf    on514936   2.532   1.366   0.031 -0.0095  0.0521 -0.1004
 2004ntf    on514937   2.681   1.352  -0.170 -0.0507  0.2131  0.1518
 2004ntf    fn414938   2.423   1.603  -0.076  0.5147  0.2255 -0.1315
 2004ntf    fn414939   2.558   1.624  -0.239  0.2757  0.6608  0.0803
 2004ntf    fn414940   2.419   1.465  -0.237  0.2088  0.3285 -0.3645
 2005ntf    cn114941   4.273   1.517   5.380 -0.4188 -0.2396 -0.2959
 2005ntf    sn214942   4.185   1.642   5.479 -0.0514 -0.0527 -0.2027
 2005ntf    nn314943   4.303   1.740   5.511 -0.2589  0.0650  0.2147
 2005ntf    sn214944   4.347   1.816   5.641  0.0033 -0.0185  0.1766
 2005ntf    cn114945   4.352   1.989   5.586  0.2798 -0.1835 -0.3272
 2005ntf    fn414946   4.369   1.451   5.443 -0.3134 -0.0286 -0.2351
 2005ntf    fn414947   4.193   1.424   5.330 -0.1937 -0.6502  0.0973
 2005ntf    fn414948   4.330   1.572   5.274  0.2996  0.3923  0.4056
 2005ntf    on514949   4.095   1.703   5.384 -0.0117  0.3781  0.0352
 2005ntf    on514950   4.138   1.565   5.592 -0.0423  0.4164  0.1215
 2005ntf    on514951   4.481   1.768   5.666 -0.0756 -0.3318  0.0132
 2005ntf    on514952   4.251   1.812   5.749 -0.2795 -0.4501 -0.0858
 2005ntf    fn414953   4.450   2.061   5.637  0.0991  0.0605 -0.3229
 2005ntf    fn414954   4.371   2.009   5.457  0.1414  0.9809 -0.1840
 2005ntf    fn414955   4.239   2.051   5.616  0.5961  0.4005 -0.3266
 2006ntf    cn114956   3.231   3.588   2.562 -0.3523  0.2498  0.1000
 2006ntf    sn214957   3.339   3.465   2.642 -0.4881  0.0746  0.0141
 2006ntf    nn314958   3.484   3.511   2.604 -0.1381 -0.5856  0.5428
 2006ntf    sn214959   3.588   3.596   2.685 -0.1178 -0.2005  0.1112
 2006ntf    cn114960   3.743   3.505   2.660  0.0102  0.0414  0.0119
 2006ntf    fn414961   3.121   3.540   2.506 -0.1382 -0.4010  0.2299
 2006ntf    fn414962   3.195   3.684   2.645 -0.2545 -0.0310  0.4700
 2006ntf    fn414963   3.292   3.654   2.464 -0.1286  0.0131  0.0782
 2006ntf    on514964   3.309   3.470   2.783  0.6635 -0.1366  0.2719
 2006ntf    on514965   3.299   3.349   2.566  0.6632 -0.0714 -0.3845
 2006ntf    on514966   3.570   3.592   2.828 -0.2629 -0.4005  0.0865
 2006ntf    on514967   3.616   3.727   2.629  0.2968 -0.4558 -0.2838
 2006ntf    fn414968   3.857   3.564   2.692  0.0655  0.0906 -0.2773
 2006ntf    fn414969   3.739   3.389   2.725 -0.0790  0.0048 -0.0579
 2006ntf    fn414970   3.751   3.461   2.536 -0.4488  0.7295 -0.2671
 2007ntf    cn114971   3.962   6.431   4.934  0.0297 -0.3033 -0.3876
 2007ntf    sn214972   3.997   6.601   4.882  0.2544 -0.2831 -0.1735
 2007ntf    nn314973   3.854   6.655   4.844  0.2939 -0.0560 -0.0039
 2007ntf    sn214974   3.752   6.738   4.931 -0.0026 -0.1590 -0.2521
 2007ntf    cn114975   3.784   6.902   4.858  0.1624  0.0696  0.3306
 2007ntf    fn414976   4.070   6.366   4.974 -0.2240 -0.1505  0.5781
 2007ntf    fn414977   3.878   6.439   5.036  0.1703 -0.1743 -0.2813
 2007ntf    fn414978   3.906   6.357   4.839  0.0658 -0.2754 -0.4304
 2007ntf    on514979   4.061   6.667   4.994 -0.4117  0.1533 -0.0399
 2007ntf    on514980   4.086   6.583   4.771  0.5485  0.7647 -0.1187
 2007ntf    on514981   3.784   6.751   5.071  0.3218 -0.0834 -0.3323
 2007ntf    on514982   3.617   6.707   4.892  0.1301 -0.6696 -0.3223
 2007ntf    fn414983   3.724   6.917   4.741 -0.0305  0.0374  0.4242
 2007ntf    fn414984   3.755   7.001   4.940  0.0855  0.1140  0.2504
 2007ntf    fn414985   3.913   6.920   4.835  0.1299 -0.1969 -0.0809
 2008ntf    cn114986   1.362   0.586   3.260  0.8172 -0.1103  0.4166
 2008ntf    sn214987   1.272   0.669   3.394  0.0468 -0.1558 -0.0672
 2008ntf    nn314988   1.125   0.667   3.337 -0.1482 -0.1194  0.4318
 2008ntf    sn214989   1.052   0.787   3.268  0.3823 -0.1943 -0.2715
 2008ntf    cn114990   0.974   0.868   3.411  0.3515 -0.4857 -0.1238
 2008ntf    fn414991   1.315   0.464   3.243  0.4959  0.1861 -0.9164
 2008ntf    fn414992   1.345   0.655   3.149 -0.0590 -0.4497  0.3279
 2008ntf    fn414993   1.491   0.567   3.282  1.0597 -0.2187 -0.9969
 2008ntf    on514994   1.282   0.575   3.502  0.1063 -0.1571 -0.0741
 2008ntf    on514995   1.337   0.796   3.419  0.5215 -0.3188 -0.4543
 2008ntf    on514996   0.932   0.740   3.203  0.4087 -0.2798 -0.2579
 2008ntf    on514997   1.115   0.902   3.208  0.0138  0.0011 -0.2875
 2008ntf    fn414998   0.904   0.784   3.486 -0.2380 -0.1245 -0.2640
 2008ntf    fn414999   1.069   0.923   3.486  0.1787 -0.2162 -0.1014
 2008ntf    fn415000   0.890   0.968   3.391  0.7403  0.0067  0.6643
 2009ntf    cn115001   4.088   0.198   5.794  0.0047  0.1215 -0.0912
 2009ntf    sn215002   3.994   0.246   5.646 -0.0624  0.2374 -0.0105
 2009ntf    nn315003   3.999   0.402   5.666  0.1519  0.2801 -0.3804
 2009ntf    sn215004   3.901   0.494   5.747  0.3115  0.0129  0.1192
 2009ntf    cn115005   3.906   0.639   5.638  0.2810  0.0073  0.1102
 2009ntf    fn415006   4.197   0.271   5.810  0.1933 -0.1382 -0.1763
 2009ntf    fn415007   4.015   0.212   5.903 -0.1814  0.3177 -0.2397
 2009ntf    fn415008   4.116   0.069   5.796 -0.0466  0.1099 -0.1126
 2009ntf    on515009   4.078   0.197   5.539  0.2736  0.4662  0.1479
 2009ntf    on515010   3.867   0.184   5.672 -0.1666  0.1881 -0.6070
 2009ntf    on515011   3.962   0.550   5.866  0.1157  0.7542 -0.1265
 2009ntf    on515012   3.763   0.455   5.751  0.3942 -0.2551  0.5032
 2009ntf    fn415013   3.873   0.617   5.512 -0.1813 -0.1247  0.2544
 2009ntf    fn415014   3.825   0.737   5.674 -0.0056 -0.4280  0.6579
 2009ntf    fn415015   4.030   0.687   5.632  0.0411  0.6744  0.3483
 2010ntf    cn115016   6.825   1.590   1.036  0.3398  0.6077  0.6349
 2010ntf    sn215017   6.693   1.672   1.130 -0.2283  0.1045  0.2838
 2010ntf    nn315018   6.772   1.715   1.259  0.2595 -0.3300  0.1323
 2010ntf    sn215019   6.706   1.755   1.396  0.0169 -0.1760 -0.0284
 2010ntf    cn115020   6.718   1.600   1.490 -0.1137 -0.0825  0.1433
 2010ntf    fn415021   6.917   1.674   0.993  0.0174  0.3287 -0.6245
 2010ntf    fn415022   6.879   1.498   1.114 -0.4346 -0.2796  0.1421
 2010ntf    fn415023   6.778   1.523   0.933 -0.1926  0.5082  0.9375
 2010ntf    on515024   6.657   1.785   1.048 -0.0362  0.0684  0.1521
 2010ntf    on515025   6.600   1.564   1.150  0.6021 -0.6038  0.3484
 2010ntf    on515026   6.563   1.772   1.407 -0.0057 -0.3784 -0.0184
 2010ntf    on515027   6.786   1.843   1.477  0.3151 -0.1275 -0.3715
 2010ntf    fn415028   6.836   1.588   1.548  0.1029  0.0237 -0.2636
 2010ntf    fn415029   6.634   1.593   1.591 -0.2931  0.1586  0.0133
 2010ntf    fn415030   6.696   1.486   1.426 -0.5665 -0.4612  0.9611
 2011ntf    cn115031   2.625   0.348   1.770 -0.0701  0.1482 -0.6875
 2011ntf    sn215032   2.765   0.258   1.697  0.1343 -0.1733  0.0990
 2011ntf    nn315033   2.884   0.336   1.762  0.2683 -0.1885 -0.1298
 2011ntf    sn215034   3.005   0.403   1.687  0.3332  0.2530  0.3622
 2011ntf    cn115035   3.092   0.482   1.826  0.2403  0.2548  0.4196
 2011ntf    fn415036   2.625   0.478   1.746 -0.1662  0.4153  0.7115
 2011ntf    fn415037   2.507   0.308   1.725 -0.3793  0.2003  0.0613
 2011ntf    fn415038   2.610   0.335   1.900  0.2989  0.1734 -0.6431
 2011ntf    on515039   2.752   0.127   1.757 -0.1722 -0.0423  0.3251
 2011ntf    on515040   2.764   0.274   1.554 -0.4540  0.5247  0.1763
 2011ntf    on515041   2.968   0.517   1.607 -0.2134 -0.2798 -0.1593
 2011ntf    on515042   3.108   0.315   1.637 -0.1987 -0.4355  0.4688
 2011ntf    fn415043   3.004   0.567   1.875 -0.7828 -0.4216 -0.2078
 2011ntf    fn415044   3.126   0.398   1.923 -0.6720 -0.2566  0.3045
 2011ntf    fn415045   3.203   0.546   1.791  0.5412 -0.2375  0.4635
 2012ntf    cn115046   2.578   3.341   3.341  0.3271 -0.0272  0.1922
 2012ntf    sn215047   2.737   3.385   3.265  0.3726 -0.1051  0.2413
 2012ntf    nn315048   2.707   3.538   3.244  0.0908 -0.0940  0.7005
 2012ntf    sn215049   2.656   3.614   3.116  0.0996 -0.2626  0.5970
 2012ntf    cn115050   2.796   3.729   3.123 -0.2708  0.2186  0.1181
 2012ntf    fn415051   2.477   3.383   3.266  0.0963  0.3050  0.6810
 2012ntf    fn415052   2.566   3.211   3.364  0.1112 -0.0768 -0.1987
 2012ntf    fn415053   2.568   3.394   3.462  0.0324  0.2184  0.0619
 2012ntf    on515054   2.829   3.357   3.372  0.5844  0.2145  0.1433
 2012ntf    on515055   2.747   3.297   3.151  0.5430 -0.3805  0.4679
 2012ntf    on515056   2.529   3.678   3.139  0.0896  0.0273 -0.2465
 2012ntf    on515057   2.670   3.538   2.994 -0.5226  0.8081 -0.1561
 2012ntf    fn415058   2.811   3.804   3.015  0.3798 -0.1969 -0.0917
 2012ntf    fn415059   2.791   3.812   3.225 -0.0520  0.3043  0.0607
 2012ntf    fn415060   2.908   3.660   3.138 -0.5285 -0.1796  0.2284
 2013ntf    cn115061   0.973   3.791   2.605 -0.1392 -0.2344  0.0809
 2013ntf    sn215062   0.854   3.686   2.518 -0.1809  0.0292 -0.1839
 2013ntf    nn315063   0.763   3.802   2.465 -0.3923  0.0354  0.1891
 2013ntf    sn215064   0.714   3.857   2.326  0.1118  0.0881  0.0325
 2013ntf    cn115065   0.581   3.954   2.403 -0.2667 -0.3102 -0.1242
 2013ntf    fn415066   1.083   3.731   2.647 -0.0741 -0.2102 -0.0535
 2013ntf    fn415067   1.019   3.889   2.527 -0.7268 -0.1912 -0.2144
 2013ntf    fn415068   0.922   3.856   2.708  0.6899  0.5119  0.0379
 2013ntf    on515069   0.931   3.619   2.416  0.0953  0.4207 -0.2299
 2013ntf    on515070   0.795   3.603   2.620  0.1849  0.3869  0.3160
 2013ntf    on515071   0.646   3.775   2.229  0.8217 -0.2935 -0.1543
 2013ntf    on515072   0.797   3.960   2.268  0.6128 -0.2710  0.1006
 2013ntf    fn415073   0.499   4.012   2.317  0.0278 -0.5158 -0.5504
 2013ntf    fn415074   0.509   3.888   2.492 -0.6748  0.4002  0.0794
 2013ntf    fn415075   0.643   4.045   2.476  0.0045 -0.5737 -0.0236
 2014ntf    cn115076   6.823   6.542   3.741  0.0083 -0.3573  0.1969
 2014ntf    sn215077   6.730   6.689   3.688  0.0701 -0.2987  0.2514
 2014ntf    nn315078   6.757   6.702   3.534  0.0039 -0.4207  0.2293
 2014ntf    sn215079   6.667   6.666   3.411 -0.3124 -0.1049  0.3661
 2014ntf    cn115080   6.536   6.792   3.406 -0.3228 -0.1259  0.0572
 2014ntf    fn415081   6.787   6.431   3.679  0.2235 -0.2032 -0.2059
 2014ntf    fn415082   6.950   6.561   3.708 -0.2657  0.1769 -0.5861
 2014ntf    fn415083   6.824   6.527   3.872  0.0091 -0.3994  0.1918
 2014ntf    on515084   6.594   6.657   3.723  0.1352 -0.0914  0.7081
 2014ntf    on515085   6.791   6.797   3.763 -0.2982  0.0881  0.0010
 2014ntf    on515086   6.590   6.545   3.429  0.3144 -0.5902 -0.1448
 2014ntf    on515087   6.738   6.689   3.288 -0.1193  0.0333  0.5040
 2014ntf    fn415088   6.465   6.804   3.518 -0.1457  0.5853  0.0934
 2014ntf    fn415089   6.585   6.912   3.383  0.2562 -0.3398  0.1473
 2014ntf    fn415090   6.446   6.770   3.312 -0.0893  0.0194 -0.1998
 2015ntf    cn115091   6.083   2.873   0.864 -0.0770 -0.1893  0.0690
 2015ntf    sn215092   6.234   2.844   0.960 -0.1143 -0.1496  0.1409
 2015ntf    nn315093   6.248   2.687   0.959  0.4079 -0.1095  0.4155
 2015ntf    sn215094   6.375   2.600   0.930  0.2948 -0.1777  0.1110
 2015ntf    cn115095   6.358   2.595   0.749 -0.3464 -0.3837  0.1749
 2015ntf    fn415096   6.100   2.822   0.744  0.2567 -0.9502  0.4324
 2015ntf    fn415097   5.984   2.809   0.926 -0.3073 -0.2543 -0.3650
 2015ntf    fn415098   6.051   3.001   0.863  0.1898 -0.1187  0.3953
 2015ntf    on515099   6.330   2.919   0.883  0.6754 -0.4055  0.8619
 2015ntf    on515100   6.198   2.894   1.091  0.1526 -0.3462  0.2914
 2015ntf    on515101   6.339   2.465   0.964  0.2256 -0.2413 -0.2112
 2015ntf    on515102   6.508   2.648   0.961  0.5062 -0.2401 -0.6695
 2015ntf    fn415103   6.390   2.708   0.687  0.0075 -0.5000  0.1415
 2015ntf    fn415104   6.432   2.499   0.696  0.0734  0.0033  0.0526
 2015ntf    fn415105   6.230   2.566   0.733 -0.3491 -0.3051  0.0613
 2016ntf    cn115106   5.344   4.078   5.195  0.4331  0.2516 -0.0023
 2016ntf    sn215107   5.234   4.203   5.266  0.0317 -0.2863  0.3350
 2016ntf    nn315108   5.148   4.224   5.136  0.2065 -0.0015  0.2628
 2016ntf    sn215109   5.143   4.337   5.027 -0.0261 -0.0986  0.1725
 2016ntf    cn115110   5.139   4.242   4.873  0.2733 -0.3362  0.3110
 2016ntf    fn415111   5.397   3.996   5.285  0.1352  0.3018  0.2185
 2016ntf    fn415112   5.287   4.002   5.102  0.3893  0.3389 -0.0461
 2016ntf    fn415113   5.452   4.116   5.128  0.4597  0.3945  0.1218
 2016ntf    on515114   5.161   4.147   5.377 -0.4188  0.4423  0.4124
 2016ntf    on515115   5.326   4.310   5.298 -0.1182  0.0065 -0.1950
 2016ntf    on515116   5.264   4.414   5.017 -0.0583 -0.1270 -0.4312
 2016ntf    on515117   5.016   4.406   5.038 -0.4513 -0.7789 -0.3900
 2016ntf    fn415118   5.243   4.161   4.863  0.7807  0.3741 -0.3600
 2016ntf    fn415119   5.032   4.165   4.871  0.2377 -0.2795 -0.0983
 2016ntf    fn415120   5.143   4.311   4.760 -0.6430  0.1004  0.5360
 2017ntf    cn115121   6.501   4.037   3.124  0.3424  0.0966 -0.1586
 2017ntf    sn215122   6.522   3.921   3.262  0.0355  0.2423  0.0121
 2017ntf    nn315123   6.633   3.999   3.341  0.2883  0.2838 -0.3799
 2017ntf    sn215124   6.640   4.040   3.493 -0.2897 -0.2554 -0.2025
 2017ntf    cn115125   6.614   4.219   3.475 -0.0957 -0.1886  0.1854
 2017ntf    fn415126   6.618   4.087   3.087  0.5873 -0.0274  0.4327
 2017ntf    fn415127   6.444   3.977   3.021  0.1989 -0.0211 -0.0102
 2017ntf    fn415128   6.434   4.148   3.150 -0.1490 -0.2225 -0.0399
 2017ntf    on515129   6.390   3.908   3.320  0.3213 -0.6581  0.4772
 2017ntf    on515130   6.576   3.802   3.200 -0.0302  0.0807  0.2637
 2017ntf    on515131   6.777   4.031   3.535 -0.2485  0.3026 -0.2140
 2017ntf    on515132   6.540   3.985   3.581 -0.4142 -0.0688 -0.2259
 2017ntf    fn415133   6.606   4.281   3.592  0.2421 -0.0090  0.1141
 2017ntf    fn415134   6.708   4.284   3.408 -0.0946  0.1518  0.5139
 2017ntf    fn415135   6.498   4.236   3.415  0.0912  0.3133 -0.0375
 2018ntf    cn115136   2.782   3.350   4.843 -0.2064 -0.0232 -0.2101
 2018ntf    sn215137   2.744   3.347   5.021 -0.1010  0.1461 -0.1848
 2018ntf    nn315138   2.588   3.331   5.017 -0.0654 -0.2799  0.0926
 2018ntf    sn215139   2.473   3.436   5.034  0.0022 -0.2288  0.2332
 2018ntf    cn115140   2.337   3.321   5.069 -0.1250 -0.0566  0.3104
 2018ntf    fn415141   2.731   3.251   4.772  0.2925 -0.2011 -0.3253
 2018ntf    fn415142   2.733   3.457   4.782 -0.6399 -0.1858 -0.1530
 2018ntf    fn415143   2.913   3.348   4.828 -0.2151  0.3068 -0.3405
 2018ntf    on515144   2.799   3.224   5.071  0.0697  0.4338  0.3425
 2018ntf    on515145   2.801   3.467   5.077  0.4442 -0.2020  0.0088
 2018ntf    on515146   2.440   3.488   4.903  0.3463 -0.2292  0.1452
 2018ntf    on515147   2.483   3.538   5.136 -0.1057  0.3777 -0.3504
 2018ntf    fn415148   2.321   3.225   4.979 -0.3860  0.4281 -0.1668
 2018ntf    fn415149   2.373   3.242   5.169  0.4740  0.0839  0.2104
 2018ntf    fn415150   2.215   3.368   5.086 -0.3549 -0.3996 -0.3432
 2019ntf    cn115151   4.023   5.753   1.375  0.2166 -0.2232 -0.3866
 2019ntf    sn215152   4.140   5.645   1.463  0.2194  0.0555 -0.0442
 2019ntf    nn315153   4.198   5.748   1.566  0.1382 -0.1053  0.1627
 2019ntf    sn215154   4.350   5.757   1.606  0.1757  0.3657 -0.0751
 2019ntf    cn115155   4.430   5.864   1.483 -0.0310  0.1849 -0.3692
 2019ntf    fn415156   4.092   5.850   1.317  0.3982 -0.0386  0.1284
 2019ntf    fn415157   3.957   5.692   1.278 -0.0420  0.1646 -0.4559
 2019ntf    fn415158   3.930   5.810   1.450  0.5166  0.1239 -0.2719
 2019ntf    on515159   4.057   5.549   1.531  0.5759 -0.6358 -0.5682
 2019ntf    on515160   4.238   5.600   1.367  0.1919  0.0527 -0.0705
 2019ntf    on515161   4.437   5.642   1.602  0.1402  0.3340  0.0981
 2019ntf    on515162   4.366   5.838   1.724  0.1336 -0.5813  0.5925
 2019ntf    fn415163   4.414   5.818   1.360 -0.4463  0.8306 -0.5655
 2019ntf    fn415164   4.387   5.989   1.480 -0.0175  0.1939 -0.1590
 2019ntf    fn415165   4.560   5.869   1.506 -0.2006  1.2386  0.4519
 2020ntf    cn115166   0.430   3.979   4.028  0.2337  0.4144 -0.0474
 2020ntf    sn215167   0.424   3.855   4.160  0.0673  0.2904 -0.1705
 2020ntf    nn315168   0.299   3.776   4.110 -0.0022  0.4949 -0.3223
 2020ntf    sn215169   0.146   3.784   4.144  0.0000  0.6273 -0.3436
 2020ntf    cn115170   0.119   3.604   4.152  0.2409  0.6165  0.2806
 2020ntf    fn415171   0.521   4.076   4.036  0.3394  0.3176 -0.0686
 2020ntf    fn415172   0.448   3.920   3.911  0.0573 -0.0173  0.1448
 2020ntf    fn415173   0.320   4.052   4.030  0.5044  0.8265  0.0665
 2020ntf    on515174   0.542   3.774   4.138 -0.3368 -0.2116 -0.4994
 2020ntf    on515175   0.405   3.934   4.280 -0.1161 -0.1354  0.0805
 2020ntf    on515176   0.053   3.825   4.041 -0.4012 -0.2124 -0.3286
 2020ntf    on515177   0.127   3.834   4.278 -0.1288 -0.6972  0.1534
 2020ntf    fn415178   0.172   3.543   4.256  0.2601  0.4528  0.1755
 2020ntf    fn415179  -0.009   3.570   4.152  0.4030  0.0001  0.3721
 2020ntf    fn415180   0.164   3.538   4.047 -0.0695  0.3989  0.2822
 2021ntf    cn115181   3.283   1.452   2.192  0.1612  0.0921  0.2302
 2021ntf    sn215182   3.136   1.345   2.182  0.1118  0.1637  0.1938
 2021ntf    nn315183   3.208   1.214   2.230  0.4399  0.2803  0.0272
 2021ntf    sn215184   3.238   1.167   2.377  0.1710 -0.2486 -0.0820
 2021ntf    cn115185   3.103   1.047   2.394 -0.1122  0.0652 -0.0895
 2021ntf    fn415186   3.372   1.428   2.097 -0.2212 -0.0433 -0.0952
 2021ntf    fn415187   3.253   1.580   2.175 -0.3621 -0.1267 -0.5176
 2021ntf    fn415188   3.357   1.453   2.301  0.1562  0.1892  0.2337
 2021ntf    on515189   3.048   1.411   2.276 -0.2727  0.6885 -0.5267
 2021ntf    on515190   3.092   1.343   2.045  0.3528  0.5188  0.1083
 2021ntf    on515191   3.209   1.261   2.482  0.0971 -0.2001 -0.1459
 2021ntf    on515192   3.352   1.081   2.396  0.4307  0.1381  0.1487
 2021ntf    fn415193   3.117   0.932   2.330  0.0612  0.0491 -0.0234
 2021ntf    fn415194   3.086   1.011   2.520  0.2262 -0.3087 -0.1454
 2021ntf    fn415195   2.992   1.109   2.360  0.1289  0.0770 -0.8816
 2022ntf    cn115196   2.214   4.514   0.563  0.0772 -0.1319 -0.1180
 2022ntf    sn215197   2.132   4.420   0.430  0.0491 -0.3758  0.0730
 2022ntf    nn315198   2.010   4.516   0.411 -0.1771 -0.5285  0.7357
 2022ntf    sn215199   1.858   4.481   0.389 -0.1995 -0.1268  0.2314
 2022ntf    cn115200   1.779   4.599   0.503  0.2294  0.1339  0.2609
 2022ntf    fn415201   2.125   4.527   0.659  0.3498  0.0960  0.1062
 2022ntf    fn415202   2.328   4.461   0.604  0.3087  0.1552 -0.3816
 2022ntf    fn415203   2.248   4.636   0.523 -0.8498  0.0024 -0.5207
 2022ntf    on515204   2.224   4.414   0.320 -0.3121 -0.6435 -0.2142
 2022ntf    on515205   2.106   4.294   0.496  0.0956 -0.4327 -0.0163
 2022ntf    on515206   1.821   4.346   0.424  0.1403 -0.2031  0.3026
 2022ntf    on515207   1.817   4.529   0.260 -0.1088 -0.5846  0.0310
 2022ntf    fn415208   1.648   4.584   0.514  0.2762 -0.4075  0.1047
 2022ntf    fn415209   1.830   4.582   0.624 -0.1286  0.2309  0.4258
 2022ntf    fn415210   1.801   4.725   0.470 -0.1873  0.1717  0.1146
 2023ntf    cn115211   5.903   1.098   6.115 -0.1840 -0.1466  0.6977
 2023ntf    sn215212   5.912   1.278   6.087 -0.3102 -0.2270  0.1426
 2023ntf    nn315213   6.061   1.311   6.121 -0.3502  0.2817 -0.1715
 2023ntf    sn215214   6.174   1.355   6.021  0.3137 -0.2161  0.3572
 2023ntf    cn115215   6.148   1.534   6.018  0.1486 -0.2478 -0.0422
 2023ntf    fn415216   5.973   1.031   6.026 -0.5799  0.3113  0.0349
 2023ntf    fn415217   5.950   1.067   6.235  0.4325 -0.1310  0.4660
 2023ntf    fn415218   5.781   1.050   6.101  0.0142 -0.2264 -0.8876
 2023ntf    on515219   5.876   1.281   5.947 -0.0587  0.0008  0.0831
 2023ntf    on515220   5.825   1.340   6.184 -0.1119  0.3724 -0.0594
 2023ntf    on515221   6.154   1.325   5.882 -0.7408  0.0642  0.4393
 2023ntf    on515222   6.309   1.338   6.071  0.6650 -0.4988 -0.6536
 2023ntf    fn415223   6.025   1.560   5.975 -0.0443  0.2226  0.7757
 2023ntf    fn415224   6.157   1.604   6.130 -1.1262 -0.4651  0.2102
 2023ntf    fn415225   6.220   1.602   5.930 -0.0816  0.3118  0.1913
 2024ntf    cn115226   3.775   4.086   0.703 -0.1567  0.1400 -0.2733
 2024ntf    sn215227   3.693   4.230   0.777 -0.1326 -0.0704  0.1640
 2024ntf    nn315228   3.764   4.343   0.694 -0.2001  0.2306  0.5140
 2024ntf    sn215229   3.704   4.449   0.596  0.0449  0.0403  0.1557
 2024ntf    cn115230   3.684   4.357   0.441 -0.1773 -0.0118  0.2147
 2024ntf    fn415231   3.903   4.085   0.734 -0.0925  0.2237 -0.5331
 2024ntf    fn415232   3.725   3.978   0.761 -0.5406  0.6408  0.3382
 2024ntf    fn415233   3.768   4.076   0.571  0.5238 -0.2177 -0.2891
 2024ntf    on515234   3.553   4.209   0.748 -0.3908  0.4515  0.9919
 2024ntf    on515235   3.738   4.221   0.914  0.0877  0.1487  0.1061
 2024ntf    on515236   3.792   4.559   0.564 -0.3786  0.5155  0.6036
 2024ntf    on515237   3.570   4.494   0.627 -0.1337 -0.3113 -0.0992
 2024ntf    fn415238   3.673   4.433   0.333  0.2685 -0.3130 -0.0454
 2024ntf    fn415239   3.796   4.291   0.419 -0.6155 -0.6861 -0.0560
 2024ntf    fn415240   3.588   4.266   0.445 -0.1357 -0.0738 -0.1608
 2025ntf    cn115241   4.060   5.867   0.269 -0.1897  0.0294 -0.2283
 2025ntf    sn215242   4.129   6.025   0.214 -0.1089 -0.0016 -0.2147
 2025ntf    nn315243   4.278   6.006   0.262  0.0379  0.5887 -0.4285
 2025ntf    sn215244   4.404   5.968   0.177 -0.1239 -0.1646 -0.3380
 2025ntf    cn115245   4.477   6.134   0.181 -0.5823  0.0256  0.3861
 2025ntf    fn415246   3.947   5.838   0.206 -0.3793 -0.0690  0.1503
 2025ntf    fn415247   4.143   5.769   0.236  0.1442  0.1670  0.1928
 2025ntf    fn415248   4.029   5.867   0.398  0.2002 -0.3649 -0.1315
 2025ntf    on515249   4.110   6.026   0.071  0.2387 -0.0949 -0.2632
 2025ntf    on515250   4.061   6.122   0.297  0.2233 -0.3212  0.4392
 2025ntf    on515251   4.374   5.948   0.037 -0.2018 -0.3366 -0.2965
 2025ntf    on515252   4.501   5.884   0.243 -0.0856 -0.5338 -0.8593
 2025ntf    fn415253   4.389   6.231   0.158 -0.9470 -0.3641  0.1312
 2025ntf    fn415254   4.534   6.163   0.296  0.5313  0.0877 -0.1632
 2025ntf    fn415255   4.573   6.152   0.091 -0.3203  0.4637  0.7475
 2026ntf    cn115256   3.406   5.113   1.385  0.1872  0.2603  0.0845
 2026ntf    sn215257   3.419   4.993   1.249  0.0081  0.3611 -0.0206
 2026ntf    nn315258   3.267   4.969   1.217 -0.0988  0.2320  0.5766
 2026ntf    sn215259   3.177   5.048   1.116 -0.0291 -0.0211  0.3155
 2026ntf    cn115260   3.149   4.929   0.981 -0.0444  0.4405 -0.0897
 2026ntf    fn415261   3.506   5.200   1.379  0.1989  0.2322 -0.1289
 2026ntf    fn415262   3.298   5.188   1.382 -0.2996 -0.4380 -0.0513
 2026ntf    fn415263   3.424   5.054   1.503 -0.1491  0.5632  0.2884
 2026ntf    on515264   3.496   5.067   1.153  0.3526 -0.0308 -0.0488
 2026ntf    on515265   3.480   4.876   1.306 -0.2824  0.5088  0.6062
 2026ntf    on515266   3.236   5.162   1.051  0.0739 -0.2199  0.0591
 2026ntf    on515267   3.039   5.059   1.159 -0.3505 -0.0946 -0.6737
 2026ntf    fn415268   3.052   4.974   0.903 -0.0185 -0.1743 -0.4803
 2026ntf    fn415269   3.254   4.905   0.905  0.1563  0.2675  0.2379
 2026ntf    fn415270   3.120   4.808   1.026  0.0676  0.3287 -0.3192
 2027ntf    cn115271   6.227   6.716   5.953 -0.2275  0.3218  0.3493
 2027ntf    sn215272   6.186   6.783   5.789 -0.3762 -0.3535  0.1052
 2027ntf    nn315273   6.087   6.670   5.742 -0.4011 -0.1964 -0.2250
 2027ntf    sn215274   6.091   6.606   5.599  0.1145 -0.0614 -0.2722
 2027ntf    cn115275   6.186   6.454   5.631  0.4133  0.2444  0.3245
 2027ntf    fn415276   6.124   6.714   6.036 -0.4556 -0.0304  0.0635
 2027ntf    fn415277   6.262   6.589   5.940 -0.2222  0.2906  0.6762
 2027ntf    fn415278   6.325   6.773   6.020  0.3557  0.4444 -0.5965
 2027ntf    on515279   6.115   6.902   5.830 -0.0850 -0.0619 -0.2229
 2027ntf    on515280   6.316   6.799   5.729 -0.3302 -0.0736  0.2798
 2027ntf    on515281   6.174   6.680   5.506  0.5652 -0.1055  0.0914
 2027ntf    on515282   5.959   6.571   5.555  0.0714  0.1439 -0.3058
 2027ntf    fn415283   6.134   6.374   5.723  0.3990 -0.6695 -0.4605
 2027ntf    fn415284   6.184   6.376   5.524  0.1521  0.2220  0.3450
 2027ntf    fn415285   6.313   6.480   5.653  0.6639 -0.3630 -0.3616
 2028ntf    cn115286   0.947   2.817   5.279  0.3580  0.4074  0.0198
 2028ntf    sn215287   1.098   2.721   5.310  0.0395 -0.0786  0.0908
 2028ntf    nn315288   1.030   2.580   5.304  0.4091 -0.2585  0.0832
 2028ntf    sn215289   1.062   2.448   5.226  0.0680 -0.2560 -0.0617
 2028ntf    cn115290   0.984   2.330   5.341 -0.1117 -0.0799 -0.0024
 2028ntf    fn415291   0.852   2.776   5.362  0.5052  0.2898  0.1317
 2028ntf    fn415292   0.967   2.942   5.315 -0.0104  0.3942  0.2772
 2028ntf    fn415293   0.900   2.820   5.155  0.5669 -0.4705 -0.0858
 2028ntf    on515294   1.180   2.761   5.198 -0.4956  1.4354  0.2121
 2028ntf    on515295   1.144   2.754   5.443  0.2068 -0.6694  0.1836
 2028ntf    on515296   1.198   2.402   5.230  0.1225 -0.1129 -0.2819
 2028ntf    on515297   0.982   2.425   5.108 -0.0738  1.2849 -0.2782
 2028ntf    fn415298   1.050   2.323   5.455  0.0188  0.3663 -0.0492
 2028ntf    fn415299   0.861   2.367   5.372  0.2726  1.0968  0.1745
 2028ntf    fn415300   0.978   2.208   5.290  0.3848  0.0946 -0.4903
 2029ntf    cn115301   4.265   1.418   6.252  0.4383  0.3438  0.0190
 2029ntf    sn215302   4.090   1.376   6.280  0.3792  0.4658 -0.1668
 2029ntf    nn315303   4.046   1.308   6.146  0.5327  0.2629 -0.1137
 2029ntf    sn215304   3.964   1.370   6.028 -0.0322  0.1415  0.2116
 2029ntf    cn115305   3.793   1.324   6.068 -0.0628  0.0718  0.0036
 2029ntf    fn415306   4.339   1.322   6.198 -0.2686 -0.1311 -0.1302
 2029ntf    fn415307   4.278   1.528   6.181 -0.4672  0.5738  0.1947
 2029ntf    fn415308   4.317   1.454   6.368 -0.4539 -0.1360  0.5881
 2029ntf    on515309   4.088   1.280   6.388 -1.0066  0.3023 -0.3223
 2029ntf    on515310   4.032   1.507   6.302 -0.1061  0.1723  0.3225
 2029ntf    on515311   3.993   1.300   5.905  0.6352  0.7782 -0.0056
 2029ntf    on515312   3.974   1.514   6.019 -0.1042  0.1786  0.7162
 2029ntf    fn415313   3.775   1.325   6.199  0.3079 -0.0228  0.0542
 2029ntf    fn415314   3.702   1.407   6.018 -0.2355 -0.2188 -0.1639
 2029ntf    fn415315   3.767   1.203   6.023  0.3684 -0.1953  0.4719
 2030ntf    cn115316   5.036   4.441   1.199 -0.5258 -0.1987  0.1249
 2030ntf    sn215317   4.908   4.331   1.266 -0.2252 -0.4330  0.3183
 2030ntf    nn315318   4.960   4.193   1.213 -0.0490 -0.2917  0.1205
 2030ntf    sn215319   4.898   4.085   1.117 -0.5921  0.2644 -0.1632
 2030ntf    cn115320   4.979   4.131   0.961  0.0395  0.0784  0.1070
 2030ntf    fn415321   5.060   4.431   1.069 -0.5522  0.0385  0.1020
 2030ntf    fn415322   5.017   4.570   1.219 -0.0472 -0.0565 -0.3300
 2030ntf    fn415323   5.152   4.413   1.257 -0.5011  0.1679  0.2533
 2030ntf    on515324   4.918   4.354   1.408 -0.9706  0.1055  0.2904
 2030ntf    on515325   4.801   4.385   1.185 -0.0392 -0.0123  0.3511
 2030ntf    on515326   4.755   4.095   1.105 -0.6709 -0.2794  0.2603
 2030ntf    on515327   4.960   3.956   1.139 -0.2708  0.3899 -0.3200
 2030ntf    fn415328   4.940   4.055   0.860 -0.0756  0.3901 -0.0860
 2030ntf    fn415329   4.959   4.252   0.910  0.1551 -0.1294 -0.4336
 2030ntf    fn415330   5.111   4.120   0.970  0.0367  0.0279  0.0811
 2031ntf    cn115331   0.359   4.819   3.472  0.0174  0.2517 -0.3883
 2031ntf    sn215332   0.181   4.826   3.509  0.0561  0.0704 -0.1631
 2031ntf    nn315333   0.153   4.980   3.498  0.4307  0.1331 -0.2489
 2031ntf    sn215334   0.192   5.086   3.607  0.0605 -0.3285  0.3419
 2031ntf    cn115335   0.258   5.221   3.504 -0.2757 -0.5376 -0.1486
 2031ntf    fn415336   0.432   4.907   3.540 -0.7672  0.4203  0.2561
 2031ntf    fn415337   0.410   4.700   3.502 -0.0169  0.2713 -0.2510
 2031ntf    fn415338   0.383   4.847   3.345  0.2762  0.1868 -0.3545
 2031ntf    on515339   0.119   4.750   3.403 -0.3470 -0.0349  0.1439
 2031ntf    on515340   0.176   4.776   3.644  0.0531  0.1263 -0.1427
 2031ntf    on515341   0.305   5.046   3.688  0.4208  0.3997  0.2086
 2031ntf    on515342   0.077   5.133   3.679 -0.0792 -0.0299 -0.0728
 2031ntf    fn415343   0.347   5.179   3.415 -0.1670  0.0327 -0.3136
 2031ntf    fn415344   0.161   5.278   3.435 -0.2948 -0.5742 -0.1519
 2031ntf    fn415345   0.321   5.308   3.581  0.2001 -0.3911 -0.6943
 2032ntf    cn115346   1.890   2.754   0.102 -0.3121 -0.3073  0.0984
 2032ntf    sn215347   1.825   2.865  -0.026 -0.0457 -0.0567  0.1790
 2032ntf    nn315348   1.685   2.799  -0.053 -0.0722  0.0906 -0.0485
 2032ntf    sn215349   1.674   2.673  -0.146 -0.4176  0.1287 -0.0572
 2032ntf    cn115350   1.645   2.741  -0.311 -0.3210 -0.2716 -0.2417
 2032ntf    fn415351   1.805   2.728   0.200 -0.5084  0.3356  0.1022
 2032ntf    fn415352   1.925   2.635   0.058 -0.8095 -0.3513 -0.1837
 2032ntf    fn415353   1.992   2.804   0.170 -0.4655  0.1769 -0.0184
 2032ntf    on515354   1.811   2.995   0.035  0.5952  0.2661 -0.3469
 2032ntf    on515355   1.915   2.855  -0.139  0.2722  0.0213  0.4230
 2032ntf    on515356   1.547   2.607  -0.127 -0.1802 -0.2018  0.4141
 2032ntf    on515357   1.790   2.590  -0.165 -0.1603  0.5434 -0.2820
 2032ntf    fn415358   1.548   2.831  -0.304  0.1542  0.2273 -0.0012
 2032ntf    fn415359   1.744   2.800  -0.377 -0.0540 -0.4266  0.0210
 2032ntf    fn415360   1.593   2.651  -0.392 -0.1264 -0.5659 -0.0374
 2033ntf    cn115361   4.714   2.515   2.931 -0.0576  0.4208 -0.1674
 2033ntf    sn215362   4.565   2.428   2.988  0.3200  0.0092  0.1981
 2033ntf    nn315363   4.650   2.310   3.047  0.3371  0.0290  0.2130
 2033ntf    sn215364   4.597   2.205   3.151  0.0131 -0.0208 -0.0016
 2033ntf    cn115365   4.701   2.254   3.292  0.2798  0.2696 -0.2998
 2033ntf    fn415366   4.768   2.448   2.830 -0.0447  0.3886 -0.1386
 2033ntf    fn415367   4.689   2.639   2.891  0.0990  0.4276 -0.2454
 2033ntf    fn415368   4.805   2.517   3.027 -0.1643  0.0588 -0.0591
 2033ntf    on515369   4.513   2.528   3.078 -0.0068 -0.2528  0.2990
 2033ntf    on515370   4.503   2.394   2.863  0.6778  0.2336 -0.0443
 2033ntf    on515371   4.634   2.068   3.123 -0.2865 -0.0673 -0.1849
 2033ntf    on515372   4.461   2.221   3.197 -0.1864 -0.6475 -0.3572
 2033ntf    fn415373   4.643   2.339   3.375  0.4462  0.3393 -0.2548
 2033ntf    fn415374   4.730   2.150   3.367 -0.6209 -0.0158 -0.3291
 2033ntf    fn415375   4.819   2.303   3.258  0.5398 -0.3685 -0.3290
 2034ntf    cn115376   3.177   1.255   1.121  0.2636  0.3101 -0.0083
 2034ntf    sn215377   3.030   1.164   1.178  0.2810 -0.0029 -0.4645
 2034ntf    nn315378   2.929   1.282   1.195 -0.1916 -0.4220 -0.3428
 2034ntf    sn215379   2.806   1.308   1.290  0.1389 -0.1307  0.0098
 2034ntf    cn115380   2.690   1.374   1.167 -0.1295 -0.4301  0.0989
 2034ntf    fn415381   3.203   1.361   1.196 -0.2689  0.3619  0.1071
 2034ntf    fn415382   3.288   1.183   1.126  0.0875  0.0574  0.2580
 2034ntf    fn415383   3.168   1.292   0.995  0.6612 -0.2143 -0.1919
 2034ntf    on515384   2.994   1.071   1.074  0.3038 -0.0711 -0.4117
 2034ntf    on515385   3.081   1.115   1.304 -0.3543 -0.1570 -0.2621
 2034ntf    on515386   2.834   1.411   1.386 -0.2506 -0.0877  0.0779
 2034ntf    on515387   2.731   1.198   1.347  0.0218  0.0680  0.2387
 2034ntf    fn415388   2.720   1.490   1.110  0.0290 -0.4246  0.1917
 2034ntf    fn415389   2.679   1.294   1.062 -0.0422  0.3992 -0.5584
 2034ntf    fn415390   2.568   1.389   1.216 -0.0143  0.2731  0.1814
 2035ntf    cn115391   3.740   5.844   0.991 -0.2562 -0.5282  0.0617
 2035ntf    sn215392   3.675   5.743   0.855 -0.2712 -0.2734 -0.1208
 2035ntf    nn315393   3.528   5.796   0.870 -0.1681 -0.1050  0.3213
 2035ntf    sn215394   3.449   5.892   0.774  0.1324 -0.0026  0.1734
 2035ntf    cn115395   3.365   5.784   0.655  0.3361  0.2528 -0.2030
 2035ntf    fn415396   3.674   5.826   1.104 -0.2137 -0.4165  0.1050
 2035ntf    fn415397   3.866   5.819   1.020 -0.0906  0.6373  0.4307
 2035ntf    fn415398   3.722   5.973   0.966  0.5854 -0.4349 -0.0937
 2035ntf    on515399   3.749   5.793   0.742 -0.2131  0.5737  0.2876
 2035ntf    on515400   3.696   5.605   0.889  0.5545 -0.1021  0.0994
 2035ntf    on515401   3.521   5.978   0.683 -0.2039  0.1656  0.0635
 2035ntf    on515402   3.334   5.948   0.842  0.1294  0.4371 -0.1905
 2035ntf    fn415403   3.301   5.855   0.564  0.1288  0.3591  0.0258
 2035ntf    fn415404   3.439   5.697   0.587 -0.2213 -0.3823 -0.0144
 2035ntf    fn415405   3.279   5.711   0.724 -0.0624  0.0200 -0.9272
 2036ntf    cn115406   5.711   4.267   2.632  0.2513  0.4125  0.2213
 2036ntf    sn215407   5.883   4.219   2.666  0.1679 -0.0870 -0.0613
 2036ntf    nn315408   5.960   4.258   2.535  0.0058 -0.4421 -0.2652
 2036ntf    sn215409   6.024   4.171   2.421  0.2906 -0.0964 -0.3746
 2036ntf    cn115410   6.119   4.285   2.317  0.0637 -0.0467 -0.5276
 2036ntf    fn415411   5.628   4.259   2.735  0.0868 -0.2514  0.0354
 2036ntf    fn415412   5.706   4.393   2.591  0.2138  0.1012 -0.7592
 2036ntf    fn415413   5.652   4.197   2.536  0.2615 -0.2115  0.6684
 2036ntf    on515414   5.909   4.301   2.781  0.0905 -0.5120  0.2614
 2036ntf    on515415   5.876   4.077   2.689 -0.4880  0.0038  0.3110
 2036ntf    on515416   5.926   4.119   2.329 -0.3446 -0.4353  0.4722
 2036ntf    on515417   6.125   4.075   2.459 -0.2714 -0.3415  0.5512
 2036ntf    fn415418   6.043   4.370   2.250  0.0788  0.5028  0.1452
 2036ntf    fn415419   6.195   4.360   2.395 -0.2884 -0.4529  0.2118
 2036ntf    fn415420   6.196   4.225   2.228  0.0821 -0.1433 -0.4466
 2037ntf    cn115421   1.718   4.691   3.621  0.3752 -0.3656  0.3072
 2037ntf    sn215422   1.620   4.637   3.478  0.1752 -0.0507  0.3250
 2037ntf    nn315423   1.607   4.771   3.396 -0.2671 -0.1969  0.1518
 2037ntf    sn215424   1.485   4.869   3.385 -0.1141 -0.0157  0.0599
 2037ntf    cn115425   1.450   4.842   3.209 -0.0404 -0.0895  0.0562
 2037ntf    fn415426   1.640   4.766   3.698  0.5359  0.5955 -0.4586
 2037ntf    fn415427   1.745   4.584   3.695 -0.0016 -0.5248  0.2176
 2037ntf    fn415428   1.830   4.756   3.596 -0.1598  0.3022 -0.3858
 2037ntf    on515429   1.704   4.540   3.412  0.0241 -0.0954  0.1988
 2037ntf    on515430   1.503   4.578   3.537  0.1882 -0.6117 -0.1994
 2037ntf    on515431   1.524   5.008   3.393 -0.1936  0.0370 -0.4622
 2037ntf    on515432   1.364   4.829   3.452 -0.3469  0.2297 -0.2126
 2037ntf    fn415433   1.357   4.926   3.168  0.4761  0.2861 -0.3654
 2037ntf    fn415434   1.552   4.851   3.125 -0.0155 -0.5124  0.0373
 2037ntf    fn415435   1.400   4.720   3.194  0.4656 -0.3371  0.3551
 2038ntf    cn115436   1.345   3.869   1.462 -0.1255 -0.3072  0.3376
 2038ntf    sn215437   1.382   3.806   1.629  0.2027 -0.2014  0.3039
 2038ntf    nn315438   1.239   3.749   1.656  0.2390 -0.2460  0.4027
 2038ntf    sn215439   1.157   3.737   1.790 -0.1469 -0.2195  0.1699
 2038ntf    cn115440   1.049   3.883   1.778  0.3136  0.1118 -0.0036
 2038ntf    fn415441   1.312   3.767   1.385  0.4670  0.0773 -0.4366
 2038ntf    fn415442   1.247   3.958   1.462  0.2287  0.0990 -0.6880
 2038ntf    fn415443   1.447   3.928   1.403  0.1703 -0.6423  0.5113
 2038ntf    on515444   1.478   3.701   1.603  0.3151 -0.1131  0.3609
 2038ntf    on515445   1.408   3.925   1.706 -0.3644 -0.0172  0.2149
 2038ntf    on515446   1.224   3.763   1.914 -0.0841 -0.4628  0.1869
 2038ntf    on515447   1.058   3.633   1.796  0.1464 -0.4873  0.3589
 2038ntf    fn415448   1.111   3.994   1.744  0.1791  0.1579 -0.1014
 2038ntf    fn415449   0.958   3.863   1.683  0.4308  0.2042 -0.1343
 2038ntf    fn415450   0.997   3.912   1.896  0.2099  0.2144 -0.0744
 2039ntf    cn115451   1.116   2.648   4.345 -0.3600 -0.1350 -0.0577
 2039ntf    sn215452   1.126   2.662   4.164  0.0485 -0.6048 -0.0730
 2039ntf    nn315453   1.095   2.815   4.149  0.1250 -0.6403 -0.6312
 2039ntf    sn215454   1.188   2.940   4.128 -0.1624 -0.2985  0.1057
 2039ntf    cn115455   1.105   3.023   3.989  0.1565 -0.2333 -0.0446
 2039ntf    fn415456   1.122   2.523   4.387  0.4071  0.1003  0.5610
 2039ntf    fn415457   1.213   2.711   4.409 -0.1737 -0.2923 -0.1846
 2039ntf    fn415458   0.997   2.695   4.377 -0.6027 -0.7463 -0.0536
 2039ntf    on515459   1.266   2.635   4.141  0.1370 -0.1875 -0.0326
 2039ntf    on515460   1.024   2.574   4.113  0.1858 -0.1778 -1.1224
 2039ntf    on515461   1.322   2.919   4.080  0.0473  0.1731  0.4837
 2039ntf    on515462   1.177   3.032   4.238 -0.1250 -0.5383  0.3122
 2039ntf    fn415463   0.991   3.080   4.025  0.3633  0.0733  0.1324
 2039ntf    fn415464   1.178   3.118   3.933  0.0310 -0.1327 -0.0350
 2039ntf    fn415465   1.078   2.941   3.889  0.2040 -0.5183  0.1757
 2040ntf    cn115466   1.806   5.474   1.771 -0.1219  0.5018 -0.0965
 2040ntf    sn215467   1.684   5.342   1.746  0.2699  0.1015  0.0809
 2040ntf    nn315468   1.615   5.386   1.612 -0.0186 -0.4463  0.0442
 2040ntf    sn215469   1.629   5.330   1.466 -0.0373 -0.3702  0.0126
 2040ntf    cn115470   1.621   5.494   1.388 -0.2194 -0.5266 -0.2980
 2040ntf    fn415471   1.881   5.500   1.665 -0.0073  0.2297 -0.0840
 2040ntf    fn415472   1.752   5.586   1.815 -0.7873 -0.1474  0.7894
 2040ntf    fn415473   1.896   5.443   1.863 -0.9430  0.0495  0.5660
 2040ntf    on515474   1.756   5.217   1.745  0.2731  0.0992  0.4899
 2040ntf    on515475   1.589   5.361   1.853 -0.2265 -0.3422 -0.2769
 2040ntf    on515476   1.518   5.262   1.405 -0.9238  1.1044 -0.0668
 2040ntf    on515477   1.765   5.289   1.438  0.0785  0.0931 -0.1136
 2040ntf    fn415478   1.688   5.583   1.459 -0.0581 -0.7958 -0.1133
 2040ntf    fn415479   1.667   5.506   1.265  0.1171 -0.0948 -0.1327
 2040ntf    fn415480   1.495   5.532   1.391  0.1071  0.5397  0.7597
 2041ntf    cn115481   1.187   3.146   3.636  0.0331  0.1824  0.0426
 2041ntf    sn215482   1.228   3.096   3.466 -0.1594  0.1501  0.0057
 2041ntf    nn315483   1.091   3.033   3.423  0.0633 -0.4249  0.1263
 2041ntf    sn215484   0.970   3.089   3.340  0.3037 -0.2602 -0.1132
 2041ntf    cn115485   0.832   3.029   3.441  0.1888 -0.0738 -0.1585
 2041ntf    fn415486   1.297   3.199   3.688  0.1969 -0.3038  0.2005
 2041ntf    fn415487   1.094   3.240   3.647 -0.1018  0.1042 -0.4215
 2041ntf    fn415488   1.144   3.049   3.715 -0.1994  0.9535  0.8761
 2041ntf    on515489   1.287   3.205   3.393  0.3953  0.2027  0.5223
 2041ntf    on515490   1.308   2.979   3.495  0.1322  0.3828  0.1444
 2041ntf    on515491   0.961   3.020   3.214 -0.5749 -0.4090  0.0280
 2041ntf    on515492   0.967   3.233   3.340  0.6108 -0.2525 -0.0654
 2041ntf    fn415493   0.863   2.905   3.476  0.4529  0.1225  0.3090
 2041ntf    fn415494   0.824   3.098   3.553  0.1195 -0.3742  0.0255
 2041ntf    fn415495   0.712   3.024   3.384  0.1982  0.2578 -0.2035
 2042ntf    cn115496   3.645   1.236   4.053 -0.3279 -0.0462  0.0887
 2042ntf    sn215497   3.503   1.162   4.140 -0.1796  0.1322  0.4846
 2042ntf    nn315498   3.399   1.168   4.022 -0.0966  0.0119  0.4046
 2042ntf    sn215499   3.328   1.052   3.944 -0.0711  0.3013 -0.0544
 2042ntf    cn115500   3.180   1.051   4.049  0.0092  0.1274  0.0586
 2042ntf    fn415501   3.754   1.247   4.127 -0.4574  0.3874  0.2174
 2042ntf    fn415502   3.679   1.163   3.948 -0.0613 -0.1516  0.2483
 2042ntf    fn415503   3.611   1.356   4.010  0.4562 -0.0367 -0.5257
 2042ntf    on515504   3.546   1.029   4.177  0.5258  0.0783 -0.4782
 2042ntf    on515505   3.490   1.262   4.243 -0.0778  0.1963  0.4354
 2042ntf    on515506   3.382   0.919   3.957 -0.4581  0.1040 -0.4365
 2042ntf    on515507   3.287   1.092   3.812  0.1741  0.2412 -0.1514
 2042ntf    fn415508   3.105   0.944   4.033  0.1140  0.0250  0.2465
 2042ntf    fn415509   3.220   1.035   4.174 -0.0172  0.2874  0.0887
 2042ntf    fn415510   3.100   1.156   4.034 -0.1592 -0.0030  0.0464
 2043ntf    cn115511   4.777   4.303   0.452  0.1279  0.6171  0.0069
 2043ntf    sn215512   4.638   4.418   0.427 -0.1867  0.2293 -0.0443
 2043ntf    nn315513   4.520   4.317   0.450  0.0476 -0.0642 -0.1279
 2043ntf    sn215514   4.424   4.294   0.572 -0.2267 -0.2675 -0.3832
 2043ntf    cn115515   4.381   4.118   0.556  0.2519 -0.4205 -0.0037
 2043ntf    fn415516   4.761   4.194   0.377 -0.0572  0.4657  0.2645
 2043ntf    fn415517   4.893   4.356   0.416  0.3135  0.1878 -0.0276
 2043ntf    fn415518   4.785   4.256   0.575 -0.1081  0.0547 -0.1853
 2043ntf    on515519   4.651   4.517   0.531  0.4095  0.3336 -0.2120
 2043ntf    on515520   4.644   4.464   0.291  0.3883  0.3501  0.0185
 2043ntf    on515521   4.295   4.357   0.553 -0.2209 -0.3164 -0.5888
 2043ntf    on515522   4.476   4.299   0.706 -0.9439  0.4101 -0.1194
 2043ntf    fn415523   4.485   4.038   0.536  0.5061 -0.1592  0.2686
 2043ntf    fn415524   4.324   4.075   0.668 -0.5447 -0.1085 -0.2808
 2043ntf    fn415525   4.293   4.100   0.458  0.0801 -0.3022  0.1284
 2044ntf    cn115526   0.361   5.188   5.049 -0.0165 -0.2087 -0.1611
 2044ntf    sn215527   0.287   5.332   4.966 -0.0159 -0.0415  0.1285
 2044ntf    nn315528   0.164   5.253   4.909  0.2601 -0.6438  0.3644
 2044ntf    sn215529   0.017   5.286   4.864  0.5480  0.3294  0.1144
 2044ntf    cn115530  -0.087   5.257   5.010  0.0679  0.1238 -0.2636
 2044ntf    fn415531   0.420   5.102   4.968  0.8925  0.0929  0.1694
 2044ntf    fn415532   0.457   5.232   5.128 -0.5274  0.5860  0.0328
 2044ntf    fn415533   0.271   5.127   5.124 -0.2434  0.3067 -0.0110
 2044ntf    on515534   0.254   5.429   5.068 -0.1013  0.4662 -0.3756
 2044ntf    on515535   0.381   5.365   4.863  0.2932  0.0874  0.4489
 2044ntf    on515536  -0.024   5.189   4.765 -0.0605  0.4771  0.2237
 2044ntf    on515537  -0.006   5.425   4.835 -0.3561  0.2800  0.5743
 2044ntf    fn415538  -0.062   5.138   5.062 -0.0627  0.2168  0.0138
 2044ntf    fn415539  -0.071   5.346   5.106  0.4330  0.2275 -0.4169
 2044ntf    fn415540  -0.213   5.260   4.972 -0.1058  0.3346  0.3234
 2045ntf    cn115541   3.430   3.569   4.245 -0.0784  0.0184  0.1095
 2045ntf    sn215542   3.251   3.535   4.251  0.0026 -0.4386  0.0138
 2045ntf    nn315543   3.219   3.515   4.098 -0.1705  0.5357 -0.0897
 2045ntf    sn215544   3.084   3.544   4.025 -0.3387  0.5068  0.2074
 2045ntf    cn115545   3.082   3.723   3.989 -0.0796  0.5317  0.3124
 2045ntf    fn415546   3.483   3.579   4.366 -0.4988 -0.3676  0.3275
 2045ntf    fn415547   3.500   3.476   4.182 -0.0731 -0.4612  0.8135
 2045ntf    fn415548   3.458   3.688   4.194 -0.1344  0.0316  0.1098
 2045ntf    on515549   3.246   3.413   4.327  0.4347 -0.4124  0.0889
 2045ntf    on515550   3.201   3.662   4.298 -0.1235 -0.2859 -0.5226
 2045ntf    on515551   2.967   3.526   4.107  0.0399  0.4960  0.7479
 2045ntf    on515552   3.070   3.475   3.899 -0.1309  0.7445  0.0527
 2045ntf    fn415553   2.967   3.769   3.941 -0.1477 -0.4143 -0.4638
 2045ntf    fn415554   3.103   3.801   4.094  0.7831  0.3324  0.2964
 2045ntf    fn415555   3.172   3.739   3.894 -0.5895  0.2278 -0.2320
 2046ntf    cn115556   3.452   3.260   4.953  0.2981 -0.0994 -0.0764
 2046ntf    sn215557   3.584   3.310   4.838  0.1050  0.1432 -0.1924
 2046ntf    nn315558   3.649   3.431   4.914 -0.0876  0.2112 -0.1344
 2046ntf    sn215559   3.776   3.437   5.007  0.0524 -0.1469 -0.2994
 2046ntf    cn115560   3.886   3.521   4.889  0.0089  0.3385  0.0040
 2046ntf    fn415561   3.373   3.360   4.988  0.3783 -0.1277  0.1956
 2046ntf    fn415562   3.375   3.174   4.889  0.3803  0.0794 -0.4135
 2046ntf    fn415563   3.492   3.195   5.062  0.6299 -0.0392 -0.1613
 2046ntf    on515564   3.661   3.190   4.815  0.2355  0.2239 -0.1810
 2046ntf    on515565   3.514   3.359   4.722 -0.2322 -0.2968 -0.1762
 2046ntf    on515566   3.844   3.316   5.045  0.2200  0.0951  0.1722
 2046ntf    on515567   3.756   3.536   5.110  0.3010 -0.1918 -0.2075
 2046ntf    fn415568   3.890   3.462   4.771  0.2107 -0.0547  0.2066
 2046ntf    fn415569   3.860   3.648   4.862 -0.4755  0.2509  0.0514
 2046ntf    fn415570   4.009   3.501   4.933 -0.1303  0.2065  0.3369
 2047ntf    cn115571   4.692   1.161   0.116 -0.1589  0.0168  0.1556
 2047ntf    sn215572   4.599   1.072   0.243  0.1689 -0.0923  0.3200
 2047ntf    nn315573   4.707   1.077   0.358 -0.0711  0.0375  0.5411
 2047ntf    sn215574   4.775   0.960   0.437 -0.2378 -0.5063 -0.1088
 2047ntf    cn115575   4.928   0.936   0.342  0.2420  0.4078  0.4267
 2047ntf    fn415576   4.675   1.292   0.125 -0.0492  0.0497 -0.0905
 2047ntf    fn415577   4.823   1.139   0.119 -0.1628  0.0473  0.5178
 2047ntf    fn415578   4.657   1.126  -0.007  0.2438 -0.4425  0.1672
 2047ntf    on515579   4.487   1.159   0.268  0.1850 -0.1421  0.5782
 2047ntf    on515580   4.572   0.945   0.180 -0.7337  0.1362  0.2337
 2047ntf    on515581   4.707   0.833   0.424  0.0677 -0.6995  0.1508
 2047ntf    on515582   4.828   0.996   0.566 -0.2667 -0.3911 -0.1293
 2047ntf    fn415583   4.982   1.056   0.330  0.4651  0.2045 -0.7364
 2047ntf    fn415584   5.007   0.849   0.404  0.0518 -0.2535 -0.2507
 2047ntf    fn415585   4.904   0.887   0.222  0.3842 -0.1973  0.6423
 2048ntf    cn115586   5.636   0.260   6.222 -0.0264 -0.0123 -0.2591
 2048ntf    sn215587   5.687   0.311   6.055  0.0648  0.2259 -0.1591
 2048ntf    nn315588   5.717   0.462   6.087 -0.0432  0.2863 -0.3439
 2048ntf    sn215589   5.837   0.550   6.037  0.2194 -0.0176 -0.2468
 2048ntf    cn115590   5.749   0.709   6.040  0.0429 -0.1159 -0.1858
 2048ntf    fn415591   5.534   0.333   6.265  0.2182 -0.1077  0.5021
 2048ntf    fn415592   5.594   0.135   6.221  0.1258 -0.0636 -0.3822
 2048ntf    fn415593   5.741   0.272   6.302 -0.0709  0.4180 -0.2649
 2048ntf    on515594   5.804   0.231   6.031  0.0873  0.3162 -0.3503
 2048ntf    on515595   5.571   0.289   5.971 -0.1908  0.9718 -0.0100
 2048ntf    on515596   5.868   0.539   5.897  0.4353 -0.5854 -0.1588
 2048ntf    on515597   5.950   0.564   6.125 -0.2061  0.2205  0.2665
 2048ntf    fn415598   5.683   0.737   6.151  0.0881 -0.6120 -0.0290
 2048ntf    fn415599   5.831   0.811   6.022 -0.2771  0.0383 -0.7867
 2048ntf    fn415600   5.663   0.725   5.941 -0.2671 -0.8161 -0.0379
 2049ntf    cn115601   4.923   4.040   3.201  0.1659  0.0438  0.0025
 2049ntf    sn215602   5.053   3.917   3.169  0.1479  0.1556 -0.5099
 2049ntf    nn315603   4.996   3.862   3.033  0.4454 -0.7085 -0.2905
 2049ntf    sn215604   5.017   3.923   2.890  0.0958  0.2681  0.0655
 2049ntf    cn115605   5.153   3.826   2.817 -0.2808 -0.3296  0.1528
 2049ntf    fn415606   4.808   3.996   3.153 -0.1680  0.8954 -0.0079
 2049ntf    fn415607   4.905   4.077   3.327  0.2368  0.1573 -0.0198
 2049ntf    fn415608   4.950   4.154   3.138  0.5873 -0.0479  0.0111
 2049ntf    on515609   5.172   3.998   3.170  0.0409  0.3103 -0.1508
 2049ntf    on515610   5.040   3.823   3.277 -0.0782  0.4229 -0.3031
 2049ntf    on515611   5.064   4.059   2.880  0.1263  0.2252 -0.3612
 2049ntf    on515612   4.904   3.901   2.804 -0.0742  0.1774  0.3108
 2049ntf    fn415613   5.128   3.697   2.833 -0.2645 -0.3061  0.3793
 2049ntf    fn415614   5.184   3.850   2.691  0.0554 -0.0174  0.2923
 2049ntf    fn415615   5.267   3.846   2.880 -0.1919  0.5064 -0.2529
 2050ntf    cn115616   4.196   3.587   2.780 -0.2102  0.0480  0.3896
 2050ntf    sn215617   4.271   3.735   2.854  0.1197  0.1058 -0.0532
 2050ntf    nn315618   4.361   3.664   2.962  0.1213  0.1881 -0.0007
 2050ntf    sn215619   4.334   3.607   3.105  0.3325  0.0072 -0.0316
 2050ntf    cn115620   4.408   3.748   3.194 -0.0009  0.0839  0.1291
 2050ntf    fn415621   4.131   3.610   2.667 -0.0788  0.0180  0.3083
 2050ntf    fn415622   4.286   3.497   2.745 -0.7747 -0.3546 -0.0402
 2050ntf    fn415623   4.119   3.517   2.861 -0.0158 -0.5709  0.0447
 2050ntf    on515624   4.341   3.793   2.742  0.2708  0.2366  0.1084
 2050ntf    on515625   4.161   3.810   2.910 -0.0858 -0.2916  0.0830
 2050ntf    on515626   4.419   3.501   3.152 -0.0851 -0.2393  0.1782
 2050ntf    on515627   4.197   3.602   3.151  0.0739  1.2211 -0.6370
 2050ntf    fn415628   4.340   3.860   3.176 -0.0445  0.0538  0.1027
 2050ntf    fn415629   4.422   3.734   3.324 -0.2065 -0.2197  0.1205
 2050ntf    fn415630   4.528   3.766   3.141 -0.1757 -0.1783 -0.3673
 2051ntf    cn115631   3.554   6.618   1.646  0.1572  0.0667 -0.1148
 2051ntf    sn215632   3.580   6.715   1.797  0.0506 -0.1688  0.0559
 2051ntf    nn315633   3.688   6.632   1.875 -0.2021 -0.2347  0.3427
 2051ntf    sn215634   3.675   6.523   1.986  0.1910 -0.3218  0.3043
 2051ntf    cn115635   3.752   6.609   2.127  0.1959 -0.2748  0.2728
 2051ntf    fn415636   3.485   6.692   1.562 -0.0793  0.1731  0.1700
 2051ntf    fn415637   3.661   6.576   1.580  0.4134 -0.1742  0.4370
 2051ntf    fn415638   3.486   6.508   1.677  0.2560  0.0225 -0.0521
 2051ntf    on515639   3.622   6.844   1.748  0.4956 -0.4102 -0.1952
 2051ntf    on515640   3.448   6.711   1.857 -0.0101 -0.2555 -0.0828
 2051ntf    on515641   3.762   6.416   1.944  0.2396 -0.1558 -0.0211
 2051ntf    on515642   3.541   6.481   2.020 -0.0785 -0.1404 -0.5214
 2051ntf    fn415643   3.685   6.718   2.160  0.1417 -0.0463 -0.5722
 2051ntf    fn415644   3.757   6.524   2.228  0.6126 -0.1123  0.3914
 2051ntf    fn415645   3.877   6.649   2.113  0.1289 -0.2019 -0.1301
 2052ntf    cn115646   3.204   0.371   0.942  0.2429 -0.1019 -0.7420
 2052ntf    sn215647   3.270   0.359   1.111 -0.3782 -0.2650 -0.5084
 2052ntf    nn315648   3.174   0.455   1.191  0.1575  0.0323 -0.2198
 2052ntf    sn215649   3.202   0.602   1.238 -0.2399  0.0242  0.0415
 2052ntf    cn115650   3.305   0.576   1.385  0.0255 -0.0364 -0.1555
 2052ntf    fn415651   3.092   0.305   0.916  0.2406 -0.1026 -0.7306
 2052ntf    fn415652   3.183   0.495   0.900 -0.7514  0.0557  0.1484
 2052ntf    fn415653   3.288   0.319   0.854  0.4480 -0.2500 -0.4609
 2052ntf    on515654   3.240   0.219   1.125  0.1551 -0.3479 -0.1847
 2052ntf    on515655   3.409   0.394   1.106 -0.4295  0.0632  0.1502
 2052ntf    on515656   3.082   0.669   1.284  0.3336  0.7845  0.4519
 2052ntf    on515657   3.288   0.677   1.149 -0.3603  0.3954  0.2326
 2052ntf    fn415658   3.413   0.503   1.365 -0.0642 -0.3437  0.4704
 2052ntf    fn415659   3.353   0.693   1.424  0.3399 -0.4373  0.6696
 2052ntf    fn415660   3.235   0.527   1.485  0.0838  0.3910  0.0964
 2053ntf    cn115661   5.240   1.958   4.175  0.2377  0.0264  0.1591
 2053ntf    sn215662   5.409   2.022   4.156  0.2967 -0.2029 -0.1039
 2053ntf    nn315663   5.480   1.947   4.274 -0.1562  0.1741  0.4161
 2053ntf    sn215664   5.597   1.845   4.250 -0.1716  0.2975 -0.1939
 2053ntf    cn115665   5.691   1.885   4.400  0.0305 -0.4550 -0.1140
 2053ntf    fn415666   5.251   1.836   4.225  0.1130 -0.1541 -0.2482
 2053ntf    fn415667   5.166   2.032   4.255  0.3147  0.0911  0.1697
 2053ntf    fn415668   5.181   1.944   4.057  0.1751  0.5045  0.1349
 2053ntf    on515669   5.432   1.973   4.022 -0.4084 -0.7210 -0.0403
 2053ntf    on515670   5.388   2.164   4.174 -0.3659 -0.3325  0.2009
 2053ntf    on515671   5.681   1.865   4.135  0.8310 -0.0039  0.4803
 2053ntf    on515672   5.551   1.710   4.271 -0.5757  0.4207 -0.2773
 2053ntf    fn415673   5.610   1.889   4.505  0.0613 -0.1602 -0.1009
 2053ntf    fn415674   5.797   1.812   4.428 -0.3407 -0.9123  0.1331
 2053ntf    fn415675   5.726   2.012   4.393 -0.3308 -0.3658 -0.3306
 2054ntf    cn115676   4.338   3.639   1.668  0.2404  0.0332 -0.0940
 2054ntf    sn215677   4.478   3.552   1.592  0.2526 -0.0352  0.0064
 2054ntf    nn315678   4.431   3.545   1.442 -0.4504  0.0628  0.2209
 2054ntf    sn215679   4.447   3.650   1.327  0.0246 -0.1261  0.1156
 2054ntf    cn115680   4.600   3.581   1.258  0.0492  0.0482 -0.0059
 2054ntf    fn415681   4.347   3.768   1.641  0.4560  0.0803  0.2044
 2054ntf    fn415682   4.221   3.605   1.616 -0.1444  0.5385  0.4236
 2054ntf    fn415683   4.335   3.629   1.800  0.4531  0.4887 -0.0546
 2054ntf    on515684   4.590   3.638   1.618  0.7075 -0.6777  0.2116
 2054ntf    on515685   4.476   3.429   1.667 -0.0931  0.2775  0.5189
 2054ntf    on515686   4.485   3.785   1.362  0.0336  0.1247 -0.8280
 2054ntf    on515687   4.349   3.630   1.223  0.2699  0.0417 -0.1521
 2054ntf    fn415688   4.634   3.622   1.136 -0.0904  0.3955  0.0731
 2054ntf    fn415689   4.704   3.589   1.339  0.1636 -0.0451 -0.1411
 2054ntf    fn415690   4.588   3.451   1.236  0.0363  0.1419 -0.5879
 2055ntf    cn115691   2.192   0.788   0.561  0.2992 -0.5695 -0.0643
 2055ntf    sn215692   2.309   0.869   0.674 -0.1131  0.2643 -0.2311
 2055ntf    nn315693   2.287   1.021   0.641  0.0044  0.2826 -0.2258
 2055ntf    sn215694   2.375   1.110   0.546  0.1165  0.4559  0.0412
 2055ntf    cn115695   2.483   1.182   0.674  0.3677  0.1109  0.0235
 2055ntf    fn415696   2.237   0.809   0.439  0.4201 -0.5793 -0.0214
 2055ntf    fn415697   2.180   0.657   0.580 -0.0663 -0.5718 -0.2971
 2055ntf    fn415698   2.070   0.836   0.579  0.5179  0.0077 -0.1107
 2055ntf    on515699   2.247   0.848   0.802 -0.2932  0.3214 -0.3088
 2055ntf    on515700   2.442   0.819   0.647 -0.2070  0.0286 -0.2534
 2055ntf    on515701   2.303   1.225   0.495 -0.3870  0.3896  0.5938
 2055ntf    on515702   2.464   1.040   0.456  0.5824  0.0618  0.7962
 2055ntf    fn415703   2.509   1.090   0.766  0.0619  0.2620  0.2624
 2055ntf    fn415704   2.596   1.228   0.623 -0.1428  0.1222 -1.1332
 2055ntf    fn415705   2.423   1.284   0.733  0.3894  0.3029 -0.2842
 2056ntf    cn115706   0.212   3.509   1.129  0.1010 -0.1936  0.0234
 2056ntf    sn215707   0.215   3.489   1.309  0.0735  0.5020  0.1035
 2056ntf    nn315708   0.259   3.632   1.360  0.0749  0.5217  0.0477
 2056ntf    sn215709   0.368   3.675   1.464  0.0806  0.4581  0.0683
 2056ntf    cn115710   0.262   3.773   1.575  0.0886  0.4632  0.0713
 2056ntf    fn415711   0.149   3.411   1.067 -0.2981  0.0706  0.0025
 2056ntf    fn415712   0.148   3.619   1.089  0.4082 -0.0039  0.0509
 2056ntf    fn415713   0.331   3.514   1.071  0.0937 -0.2401  0.0045
 2056ntf    on515714   0.083   3.440   1.340  0.4371 -0.4049  0.2342
 2056ntf    on515715   0.314   3.385   1.321 -0.1835  0.2824  0.3437
 2056ntf    on515716   0.440   3.783   1.402  0.2060  0.2940 -0.0694
 2056ntf    on515717   0.438   3.584   1.551 -0.6206  0.1285  0.3033
 2056ntf    fn415718   0.175   3.694   1.637 -0.1382  0.4864 -0.2120
 2056ntf    fn415719   0.323   3.837   1.673  0.3606  0.3069  0.0037
 2056ntf    fn415720   0.188   3.860   1.508  0.0898  0.1780 -0.3047
 2057ntf    cn115721   3.479   2.300   1.070 -0.2233  0.0441 -0.0497
 2057ntf    sn215722   3.485   2.288   1.252 -0.6077  0.0817 -0.0317
 2057ntf    nn315723   3.426   2.142   1.247 -0.0569 -0.1283 -0.6370
 2057ntf    sn215724   3.303   2.079   1.321  0.1428  0.1447 -0.0651
 2057ntf    cn115725   3.171   2.101   1.198  0.2439 -0.0581 -0.2102
 2057ntf    fn415726   3.522   2.413   1.016  0.1416 -0.1581 -0.1778
 2057ntf    fn415727   3.551   2.206   1.013  0.0869 -0.1465  0.6390
 2057ntf    fn415728   3.353   2.288   1.030 -0.0062  0.2291 -0.7951
 2057ntf    on515729   3.626   2.289   1.284 -0.5189 -0.1691 -0.4005
 2057ntf    on515730   3.403   2.398   1.294 -0.2478  0.4776 -0.3580
 2057ntf    on515731   3.250   2.142   1.440 -0.3004 -0.1902 -0.0822
 2057ntf    on515732   3.320   1.936   1.329  0.6471  0.2087  0.0432
 2057ntf    fn415733   3.145   2.230   1.184 -0.4870 -0.1581  0.1540
 2057ntf    fn415734   3.188   2.041   1.081 -0.2077 -0.0358 -0.2898
 2057ntf    fn415735   3.056   2.054   1.243  0.5605  0.0928  0.7712
 2058ntf    cn115736   0.218   2.514   1.117 -0.2966 -0.0230  0.1161
 2058ntf    sn215737   0.328   2.381   1.173  0.0050  0.1973  0.0522
 2058ntf    nn315738   0.441   2.395   1.064  0.0674 -0.1219  0.0728
 2058ntf    sn215739   0.537   2.286   1.005  0.0100 -0.1654  0.0598
 2058ntf    cn115740   0.444   2.224   0.862 -0.0112  0.0903 -0.0376
 2058ntf    fn415741   0.280   2.628   1.089  0.4602 -0.2989  0.6254
 2058ntf    fn415742   0.139   2.486   1.016 -0.0081 -0.6609  0.0660
 2058ntf    fn415743   0.136   2.544   1.216 -0.3786  0.2812 -0.0410
 2058ntf    on515744   0.366   2.424   1.305 -0.5181 -0.5140  0.4402
 2058ntf    on515745   0.245   2.263   1.167 -0.0759  0.2194  0.6975
 2058ntf    on515746   0.561   2.171   1.088  0.2554  0.0951  0.3561
 2058ntf    on515747   0.650   2.346   0.939  0.2180 -0.5382  0.0765
 2058ntf    fn415748   0.499   2.122   0.798 -0.0429  0.4325 -0.6255
 2058ntf    fn415749   0.326   2.182   0.905 -0.0087  0.1045 -0.0167
 2058ntf    fn415750   0.422   2.318   0.771  0.0998  0.1011 -0.0540
 2059ntf    cn115751   1.158   2.132   4.376 -0.1344 -0.4681  0.0596
 2059ntf    sn215752   1.336   2.114   4.406 -0.0680  0.2053  0.0831
 2059ntf    nn315753   1.371   2.265   4.431 -0.3065  0.3023 -0.1747
 2059ntf    sn215754   1.466   2.325   4.540  0.2321 -0.0122 -0.4669
 2059ntf    cn115755   1.626   2.296   4.458  0.4140  0.2195 -0.1941
 2059ntf    fn415756   1.111   2.182   4.489 -0.2891 -0.6941  0.0978
 2059ntf    fn415757   1.147   2.220   4.279  0.2016 -0.2840  0.1860
 2059ntf    fn415758   1.087   2.024   4.345 -0.1270 -0.6595  0.6905
 2059ntf    on515759   1.333   2.021   4.517 -0.4491  0.2364  0.0997
 2059ntf    on515760   1.388   2.073   4.278  0.5788 -0.0664  0.4275
 2059ntf    on515761   1.481   2.255   4.665 -0.5882  0.1273 -0.2853
 2059ntf    on515762   1.455   2.468   4.551 -0.2308 -0.0529 -0.3655
 2059ntf    fn415763   1.725   2.344   4.532  0.5398 -0.1116 -0.1443
 2059ntf    fn415764   1.644   2.168   4.432 -0.1542  0.0834  0.0663
 2059ntf    fn415765   1.620   2.362   4.344  0.3136  0.0174 -0.3061
 2060ntf    cn115766   1.612   6.861   2.651  0.5467  0.0618 -0.3814
 2060ntf    sn215767   1.461   6.845   2.551  0.0872 -0.0162  0.3140
 2060ntf    nn315768   1.366   6.953   2.612 -0.6085 -0.0408 -0.6972
 2060ntf    sn215769   1.252   6.936   2.719  0.1837  0.0205  0.1727
 2060ntf    cn115770   1.321   6.992   2.878 -0.0412  0.4199  0.1301
 2060ntf    fn415771   1.669   6.979   2.640  0.0654  0.3051 -0.3019
 2060ntf    fn415772   1.596   6.840   2.781  0.1594 -0.2263 -0.4705
 2060ntf    fn415773   1.704   6.776   2.608  0.4993  0.0253 -0.4118
 2060ntf    on515774   1.497   6.888   2.418 -0.6610  0.1332  0.1562
 2060ntf    on515775   1.411   6.709   2.556  0.1926 -0.0766 -0.2316
 2060ntf    on515776   1.223   6.799   2.753  0.3495 -0.1915 -0.5257
 2060ntf    on515777   1.138   7.023   2.704  0.2065  0.0794  0.3332
 2060ntf    fn415778   1.418   6.911   2.914  0.1798  0.5838 -0.0892
 2060ntf    fn415779   1.372   7.114   2.866 -0.0565  0.4421  0.2888
 2060ntf    fn415780   1.240   7.010   2.981  0.4357  0.3121  0.5239
 2061ntf    cn115781   5.110   3.647   5.203 -0.1552  0.3517 -0.1368
 2061ntf    sn215782   5.204   3.573   5.065 -0.0666  0.2811 -0.0384
 2061ntf    nn315783   5.112   3.634   4.954  0.0590  0.4466 -0.0525
 2061ntf    sn215784   5.142   3.618   4.800  0.2087 -0.2221  0.0448
 2061ntf    cn115785   5.239   3.767   4.765 -0.2244  0.0198 -0.1228
 2061ntf    fn415786   5.136   3.581   5.314 -0.2454 -0.2490 -0.4676
 2061ntf    fn415787   5.138   3.774   5.225 -0.4915  0.3725  0.1693
 2061ntf    fn415788   4.979   3.642   5.187 -0.1667  0.0841  0.0328
 2061ntf    on515789   5.333   3.637   5.079 -0.1038  0.3776 -0.1322
 2061ntf    on515790   5.190   3.431   5.079 -0.1163  0.2832 -0.0659
 2061ntf    on515791   5.021   3.637   4.725  0.1732  0.0257  0.1657
 2061ntf    on515792   5.226   3.504   4.770  0.2712 -0.1268 -0.1456
 2061ntf    fn415793   5.229   3.793   4.635  0.1373 -0.1953 -0.1947
 2061ntf    fn415794   5.187   3.872   4.826  0.3078  0.3944 -0.3014
 2061ntf    fn415795   5.369   3.761   4.789 -0.2139  0.0569 -0.1698
 2062ntf    cn115796   3.649   1.881   4.555 -0.5746  0.3235  0.0657
 2062ntf    sn215797   3.733   2.036   4.507  0.2033 -0.0589  0.1801
 2062ntf    nn315798   3.633   2.141   4.567  0.0191 -0.0365 -0.1675
 2062ntf    sn215799   3.658   2.263   4.662 -0.0642  0.0784 -0.2933
 2062ntf    cn115800   3.578   2.396   4.567 -0.1466 -0.0916 -0.4630
 2062ntf    fn415801   3.541   1.859   4.483  0.1001 -0.4352 -0.7427
 2062ntf    fn415802   3.714   1.771   4.521 -0.1956  0.5583  0.0196
 2062ntf    fn415803   3.628   1.881   4.685 -0.4109 -0.3929  0.0914
 2062ntf    on515804   3.860   2.030   4.576  0.4523  0.1916 -0.2532
 2062ntf    on515805   3.726   2.042   4.363 -0.3907  1.0617  0.2422
 2062ntf    on515806   3.793   2.312   4.667  0.1301 -0.5071  0.1933
 2062ntf    on515807   3.579   2.252   4.782  0.3028 -0.0103 -0.0594
 2062ntf    fn415808   3.448   2.376   4.563 -0.1612 -0.2328  0.4746
 2062ntf    fn415809   3.588   2.510   4.634 -0.0862 -0.2784 -0.1513
 2062ntf    fn415810   3.618   2.419   4.443  0.0650 -0.8751 -0.5457
 2063ntf    cn115811   3.826   4.514   5.050  0.0847 -0.4242 -0.3044
 2063ntf    sn215812   3.717   4.623   4.952  0.1405 -0.1319 -0.0409
 2063ntf    nn315813   3.720   4.557   4.810 -0.0535  0.3097 -0.2518
 2063ntf    sn215814   3.629   4.458   4.729  0.2000  0.1561 -0.3478
 2063ntf    cn115815   3.585   4.569   4.592  0.3662  0.3861 -0.2142
 2063ntf    fn415816   3.951   4.531   5.011 -0.0309  0.1930 -0.4248
 2063ntf    fn415817   3.819   4.527   5.181 -0.6605  0.0795 -0.3838
 2063ntf    fn415818   3.799   4.387   5.026 -0.1964 -0.4748  0.2743
 2063ntf    on515819   3.593   4.623   5.025  0.2460  0.2360  0.1397
 2063ntf    on515820   3.785   4.750   4.954  0.1951 -0.1630  0.0910
 2063ntf    on515821   3.502   4.411   4.781  0.3748  0.1459  0.0768
 2063ntf    on515822   3.704   4.355   4.661 -0.0401 -0.2740  0.0315
 2063ntf    fn415823   3.516   4.504   4.500 -0.1154  0.2785  0.2207
 2063ntf    fn415824   3.516   4.669   4.644  0.0350  0.0872 -0.0721
 2063ntf    fn415825   3.691   4.623   4.534  0.4648  0.5199  0.0825
 2064ntf    cn115826   5.081   2.934   5.708  0.3611  0.3978  0.0084
 2064ntf    sn215827   4.962   2.951   5.572  0.1420  0.0380  0.1540
 2064ntf    nn315828   4.830   2.969   5.654 -0.0793  0.6237 -0.3209
 2064ntf    sn215829   4.730   2.857   5.703  0.0036  0.4975 -0.4412
 2064ntf    cn115830   4.613   2.844   5.564 -0.2329  0.0320 -0.2002
 2064ntf    fn415831   5.205   2.919   5.667  0.2122  0.1230 -0.3402
 2064ntf    fn415832   5.091   3.038   5.790  0.0855  0.5650 -0.1684
 2064ntf    fn415833   5.066   2.829   5.787 -0.3409  0.6899  0.2711
 2064ntf    on515834   5.001   3.072   5.503  0.2233 -0.2465 -0.3051
 2064ntf    on515835   4.968   2.830   5.494 -0.4157 -0.0748  0.2785
 2064ntf    on515836   4.642   2.907   5.805  0.4403 -0.3684  0.3727
 2064ntf    on515837   4.785   2.724   5.715  0.4152  0.7458  0.5307
 2064ntf    fn415838   4.536   2.737   5.569 -0.0388 -0.0944  0.1711
 2064ntf    fn415839   4.540   2.954   5.559 -0.0671  0.1531  0.0164
 2064ntf    fn415840   4.677   2.830   5.449 -0.3094 -0.3496 -0.1964
 2065ntf    cn115841   2.037   0.505   1.428  0.0822 -0.3480  0.4512
 2065ntf    sn215842   1.900   0.399   1.374 -0.2340  0.1341  0.3059
 2065ntf    nn315843   1.795   0.430   1.487  0.0737  0.2309  0.5675
 2065ntf    sn215844   1.681   0.538   1.492 -0.0987  0.0684  0.1900
 2065ntf    cn115845   1.536   0.441   1.544 -0.0543  0.0973  0.3694
 2065ntf    fn415846   2.014   0.635   1.425  0.2328 -0.3353 -0.4137
 2065ntf    fn415847   2.077   0.475   1.551 -0.4762 -0.2825  0.6499
 2065ntf    fn415848   2.144   0.481   1.354  0.0652 -0.1037  0.3464
 2065ntf    on515849   1.872   0.458   1.245 -0.0391  0.3300  0.3530
 2065ntf    on515850   1.943   0.262   1.368 -0.0589  0.1780  0.5425
 2065ntf    on515851   1.633   0.587   1.365 -0.0208 -0.3724 -0.0088
 2065ntf    on515852   1.697   0.637   1.596  0.4989  0.3728 -0.1831
 2065ntf    fn415853   1.540   0.401   1.670 -0.2548 -0.0876  0.3183
 2065ntf    fn415854   1.417   0.495   1.525 -0.2505 -0.4322  0.0476
 2065ntf    fn415855   1.530   0.333   1.468  0.1662  0.4409 -0.1465
 2066ntf    cn115856   4.339   2.015   2.566  0.2078 -0.5348 -0.1238
 2066ntf    sn215857   4.168   2.052   2.519  0.2023  0.0925  0.3707
 2066ntf    nn315858   4.083   1.937   2.585 -0.1960  0.0079 -0.2718
 2066ntf    sn215859   4.062   1.915   2.739  0.2399  0.1087 -0.1949
 2066ntf    cn115860   3.881   1.934   2.743  0.2432  0.0946  0.0348
 2066ntf    fn415861   4.368   1.889   2.536 -0.2864 -0.6789 -0.0102
 2066ntf    fn415862   4.426   2.092   2.504 -0.1392  0.0182  0.0746
 2066ntf    fn415863   4.354   2.020   2.698  0.3193 -0.1728 -0.1510
 2066ntf    on515864   4.132   2.186   2.559 -0.5327 -0.0920  0.3452
 2066ntf    on515865   4.169   2.028   2.377 -0.2735 -0.5496  0.4703
 2066ntf    on515866   4.106   2.018   2.830  0.0136 -0.0457  0.0935
 2066ntf    on515867   4.094   1.781   2.781 -0.3759  0.0274  0.0265
 2066ntf    fn415868   3.834   1.941   2.867  0.1872  0.6281 -0.0164
 2066ntf    fn415869   3.834   2.043   2.685 -0.1935 -0.1803 -0.1328
 2066ntf    fn415870   3.825   1.826   2.692  0.0172  0.2522 -0.0521
 2067ntf    cn115871   2.445   1.616   6.060 -0.1357 -0.2376 -0.3401
 2067ntf    sn215872   2.409   1.458   5.978 -0.3794 -0.2468 -0.2146
 2067ntf    nn315873   2.377   1.506   5.832 -0.4724  0.2153 -0.0419
 2067ntf    sn215874   2.323   1.407   5.723  0.1043 -0.0179 -0.1156
 2067ntf    cn115875   2.481   1.387   5.635  0.2845 -0.0924  0.2241
 2067ntf    fn415876   2.353   1.706   6.031  0.2691  0.2056 -0.2625
 2067ntf    fn415877   2.448   1.597   6.191  0.0836 -0.2619 -0.3473
 2067ntf    fn415878   2.560   1.673   6.026  0.2247 -0.7900 -0.0734
 2067ntf    on515879   2.528   1.377   5.980  0.1616  0.5556  1.0677
 2067ntf    on515880   2.296   1.402   6.049 -0.0216 -0.2302  0.3714
 2067ntf    on515881   2.237   1.478   5.632 -0.2061  0.0595  0.2373
 2067ntf    on515882   2.275   1.280   5.772  0.1435 -0.1803 -0.4937
 2067ntf    fn415883   2.534   1.501   5.592  0.3278 -0.3577 -0.4435
 2067ntf    fn415884   2.568   1.335   5.720  0.6122 -0.3739 -0.2769
 2067ntf    fn415885   2.469   1.300   5.536  0.0720 -0.3830  0.5050
 2068ntf    cn115886   3.706   6.641   0.481  0.2311 -0.4710 -0.1111
 2068ntf    sn215887   3.836   6.691   0.364  0.0379  0.0658 -0.1001
 2068ntf    nn315888   3.767   6.659   0.226 -0.3297  0.2166  0.0477
 2068ntf    sn215889   3.745   6.515   0.169  0.1262  0.1751 -0.0250
 2068ntf    cn115890   3.564   6.506   0.164  0.1425 -0.2192  0.0174
 2068ntf    fn415891   3.719   6.693   0.602  0.6694 -0.2642 -0.2459
 2068ntf    fn415892   3.590   6.685   0.436  0.2454 -0.2670  0.0462
 2068ntf    fn415893   3.700   6.510   0.494 -0.1179 -0.3741  0.7367
 2068ntf    on515894   3.840   6.834   0.380 -0.2789  0.0536  0.0942
 2068ntf    on515895   3.956   6.615   0.389 -0.2453 -0.2407  0.3347
 2068ntf    on515896   3.780   6.402   0.252 -0.4929  0.0658  0.0942
 2068ntf    on515897   3.778   6.510   0.028  0.0447  0.0697 -0.0402
 2068ntf    fn415898   3.507   6.397   0.115  0.1861 -0.3614  0.2817
 2068ntf    fn415899   3.508   6.517   0.284  0.3192 -0.4850  0.1232
 2068ntf    fn415900   3.511   6.592   0.078 -0.2258 -0.3688  0.0924
 2069ntf    cn115901   0.094   0.490   5.774  0.3727 -0.3527 -0.2808
 2069ntf    sn215902   0.132   0.446   5.947  0.1268  0.2788 -0.0630
 2069ntf    nn315903   0.260   0.357   5.934 -0.0678 -0.0188  0.0333
 2069ntf    sn215904   0.265   0.201   5.944 -0.1729 -0.0164  0.1219
 2069ntf    cn115905   0.358   0.196   6.100  0.0306 -0.1913 -0.0025
 2069ntf    fn415906   0.011   0.403   5.719 -0.2948  0.0974 -0.0065
 2069ntf    fn415907   0.025   0.602   5.762 -0.0360 -0.5382  0.2628
 2069ntf    fn415908   0.197   0.499   5.693  0.5038 -0.1097 -0.0900
 2069ntf    on515909   0.159   0.576   6.005 -0.0045  0.4726 -0.4320
 2069ntf    on515910   0.013   0.385   6.001  0.0414  0.0776 -0.4764
 2069ntf    on515911   0.353   0.143   5.845  0.1095  0.1385  0.2802
 2069ntf    on515912   0.145   0.127   5.972 -0.2356  0.0812  0.1076
 2069ntf    fn415913   0.474   0.258   6.094 -0.0455 -0.0635 -0.1507
 2069ntf    fn415914   0.302   0.270   6.195 -0.0640 -0.4512  0.1473
 2069ntf    fn415915   0.374   0.077   6.156 -0.8066 -0.2566  0.1190
 2070ntf    cn115916   0.797   0.767   6.568 -0.0064  0.1886  0.1933
 2070ntf    sn215917   0.833   0.893   6.694  0.0407  0.1313  0.2377
 2070ntf    nn315918   0.951   0.820   6.768  0.1359  0.4159  0.3701
 2070ntf    sn215919   0.962   0.758   6.911  0.1238  0.1670  0.2636
 2070ntf    cn115920   1.052   0.891   6.996 -0.1726  0.4176  0.1829
 2070ntf    fn415921   0.706   0.804   6.480 -0.0460  0.3219  0.2904
 2070ntf    fn415922   0.901   0.716   6.505 -0.1261 -0.0287  0.1727
 2070ntf    fn415923   0.738   0.660   6.619 -0.1347  0.1581 -0.0180
 2070ntf    on515924   0.873   1.000   6.607 -0.2322 -0.1116 -0.1893
 2070ntf    on515925   0.713   0.908   6.774  0.1328  0.6869  0.2757
 2070ntf    on515926   1.045   0.641   6.928 -0.1046 -0.0102  0.1635
 2070ntf    on515927   0.844   0.751   6.994 -0.0280  0.1438  0.0448
 2070ntf    fn415928   0.993   1.008   6.979  0.0584  0.5139  0.0425
 2070ntf    fn415929   1.057   0.876   7.128 -0.0666 -0.2475  0.1041
 2070ntf    fn415930   1.178   0.906   6.959 -0.2970  0.4668 -0.2230
 2071ntf    cn115931   3.016   6.334   4.484 -0.1656 -0.0081  0.4295
 2071ntf    sn215932   3.123   6.193   4.525 -0.0586 -0.0321  0.0681
 2071ntf    nn315933   3.266   6.258   4.521  0.0582 -0.2651  0.4074
 2071ntf    sn215934   3.396   6.212   4.446  0.0166 -0.1722  0.2791
 2071ntf    cn115935   3.407   6.336   4.314  0.1965 -0.4891 -0.0043
 2071ntf    fn415936   2.888   6.301   4.483 -0.1951  0.1118  0.1789
 2071ntf    fn415937   3.029   6.431   4.574  1.2108  0.2071  0.0249
 2071ntf    fn415938   3.041   6.380   4.363  0.3560  0.1916  0.6116
 2071ntf    on515939   3.082   6.159   4.659 -0.2104  0.1337  0.0630
 2071ntf    on515940   3.096   6.094   4.424 -0.2241 -0.4547  0.5208
 2071ntf    on515941   3.391   6.083   4.383 -0.2382 -0.0176 -0.0232
 2071ntf    on515942   3.515   6.235   4.524  0.2341  0.1462 -0.1406
 2071ntf    fn415943   3.332   6.311   4.208 -0.4673 -0.1023  0.3699
 2071ntf    fn415944   3.380   6.454   4.368  0.2121 -0.4731 -0.0306
 2071ntf    fn415945   3.527   6.340   4.257 -0.0215 -0.1584 -0.4505
 2072ntf    cn115946   5.980   5.995   1.783 -0.0416  0.1152 -0.5031
 2072ntf    sn215947   5.960   6.157   1.863  0.0058 -0.2257  0.2032
 2072ntf    nn315948   6.095   6.152   1.944 -0.1385  0.1697  0.4662
 2072ntf    sn215949   6.226   6.232   1.913  0.0493 -0.2580  0.1584
 2072ntf    cn115950   6.198   6.379   2.016  0.1917  0.1632 -0.4038
 2072ntf    fn415951   6.095   5.995   1.717  0.3657  0.0266  0.1966
 2072ntf    fn415952   5.985   5.893   1.867 -0.3036  0.7091  0.2482
 2072ntf    fn415953   5.879   5.965   1.703 -0.1167  0.2975 -0.4757
 2072ntf    on515954   5.950   6.254   1.757 -0.7796  0.0559  0.5253
 2072ntf    on515955   5.840   6.141   1.940 -0.0403  0.5477  0.2973
 2072ntf    on515956   6.236   6.291   1.782 -0.5429  0.6429  0.5085
 2072ntf    on515957   6.340   6.163   1.969  0.4816  0.3545  0.0455
 2072ntf    fn415958   6.189   6.350   2.144  0.3501  0.4350 -0.3305
 2072ntf    fn415959   6.298   6.465   2.002  0.1420  0.3496  0.3347
 2072ntf    fn415960   6.088   6.446   1.987 -0.3280 -0.4970  0.0148
 2073ntf    cn115961   1.874   3.947   5.806  0.3766  0.1757 -0.3075
 2073ntf    sn215962   1.776   3.818   5.889  0.0698  0.3699 -0.3706
 2073ntf    nn315963   1.671   3.899   5.974 -0.0632 -0.2975  0.1111
 2073ntf    sn215964   1.544   3.976   5.922  0.2143  0.0743 -0.0212
 2073ntf    cn115965   1.424   3.844   5.954 -0.0952  0.3563 -0.0220
 2073ntf    fn415966   1.958   4.006   5.890  0.4555  0.1547 -0.3725
 2073ntf    fn415967   1.952   3.898   5.711  0.8645  0.9105 -0.2992
 2073ntf    fn415968   1.794   4.041   5.759  0.0017  0.2561  0.4647
 2073ntf    on515969   1.716   3.755   5.773  0.2255  0.6916 -0.6274
 2073ntf    on515970   1.868   3.749   5.976 -0.5336 -0.2393 -0.2048
 2073ntf    on515971   1.529   4.004   5.781 -0.0404 -0.4237 -0.0951
 2073ntf    on515972   1.501   4.080   6.012 -0.3992 -0.2918  0.1061
 2073ntf    fn415973   1.296   3.878   5.944 -0.1377  0.2076  0.0130
 2073ntf    fn415974   1.432   3.742   5.871  0.3433  0.0179  0.4356
 2073ntf    fn415975   1.446   3.792   6.074 -0.7981 -0.1668 -0.1130
 2074ntf    cn115976   3.065   2.066   3.147 -0.0659 -0.0687 -0.1208
 2074ntf    sn215977   2.930   2.012   3.039  0.1073 -0.4641 -0.1414
 2074ntf    nn315978   2.824   2.126   3.061  0.4260 -0.0783 -0.5741
 2074ntf    sn215979   2.668   2.114   3.043  0.3861 -0.3537 -0.0845
 2074ntf    cn115980   2.629   2.251   2.930  0.3246 -0.1895  0.1355
 2074ntf    fn415981   3.035   2.070   3.276  0.1665 -0.3950 -0.0545
 2074ntf    fn415982   3.162   1.976   3.139 -0.0874 -0.0910 -0.1257
 2074ntf    fn415983   3.121   2.181   3.112  0.1696 -0.2272 -0.2643
 2074ntf    on515984   2.999   2.013   2.913  0.2805  0.2092 -0.0479
 2074ntf    on515985   2.895   1.886   3.101 -0.7373 -0.1416  0.0585
 2074ntf    on515986   2.604   2.160   3.164 -0.1525 -0.2114 -0.4209
 2074ntf    on515987   2.611   1.999   2.977  0.7816 -0.6253  0.0455
 2074ntf    fn415988   2.677   2.229   2.809  0.0964 -0.7180  0.1391
 2074ntf    fn415989   2.499   2.277   2.920  0.2081 -0.8241 -0.0199
 2074ntf    fn415990   2.683   2.361   2.980 -0.0415  0.2875 -0.5010
 2075ntf    cn115991   1.186   6.015   3.438 -0.2141 -0.0820 -0.8795
 2075ntf    sn215992   1.244   6.025   3.610 -0.8880 -0.0286 -0.6524
 2075ntf    nn315993   1.212   5.879   3.658  0.1503  0.0209  0.2277
 2075ntf    sn215994   1.074   5.820   3.704  0.1221 -0.1507 -0.0752
 2075ntf    cn115995   1.086   5.864   3.880  0.2464 -0.6567  0.0449
 2075ntf    fn415996   1.254   6.109   3.373  0.4605 -0.1898 -0.3432
 2075ntf    fn415997   1.208   5.896   3.383  0.4291 -0.4865  0.2342
 2075ntf    fn415998   1.055   6.032   3.432 -0.3000 -0.4177 -0.0762
 2075ntf    on515999   1.386   6.045   3.588 -0.6979  0.1571  0.7072
 2075ntf    on516000   1.165   6.134   3.661  0.0852  0.2521  0.2927
 2075ntf    on516001   1.064   5.676   3.707 -0.5227 -0.1112 -0.1588
 2075ntf    on516002   0.959   5.897   3.664  0.2742  0.2826  0.3184
 2075ntf    fn416003   1.080   5.995   3.899  0.2429 -0.6385 -0.0832
 2075ntf    fn416004   0.988   5.805   3.946 -0.4333 -0.4209 -0.7477
 2075ntf    fn416005   1.206   5.829   3.925  0.1445 -0.6115  0.3538
 2076ntf    cn116006   0.321   3.154   3.442 -0.2439 -0.2651  0.2487
 2076ntf    sn216007   0.330   3.266   3.585 -0.0509 -0.2394  0.2178
 2076ntf    nn316008   0.226   3.191   3.676 -0.1016  0.2118  0.5360
 2076ntf    sn216009   0.069   3.195   3.682 -0.1359 -0.1538 -0.0304
 2076ntf    cn116010   0.046   3.302   3.828  0.0917 -0.0515 -0.0697
 2076ntf    fn416011   0.317   3.027   3.479 -0.2081 -0.2695  0.2370
 2076ntf    fn416012   0.220   3.183   3.362  0.5319 -0.2459 -0.7466
 2076ntf    fn416013   0.432   3.167   3.370 -0.6479 -0.3188 -0.3883
 2076ntf    on516014   0.465   3.243   3.630  0.0364 -0.0002  0.0799
 2076ntf    on516015   0.300   3.399   3.537  0.5622 -0.2870 -0.3017
 2076ntf    on516016   0.012   3.069   3.724 -0.0109 -0.3262 -0.3755
 2076ntf    on516017   0.002   3.275   3.583 -0.1297 -0.5843 -0.3828
 2076ntf    fn416018   0.143   3.275   3.913  0.4604  0.5606 -0.2867
 2076ntf    fn416019   0.046   3.430   3.796 -0.0616 -0.0716 -0.1509
 2076ntf    fn416020  -0.069   3.276   3.887  0.0144  0.5071  0.0289
 2077ntf    cn116021   6.784   6.367   5.781  0.1162 -0.0888  0.1660
 2077ntf    sn216022   6.870   6.207   5.782  0.2463 -0.0205 -0.2070
 2077ntf    nn316023   6.986   6.243   5.882  0.2721 -0.2087 -0.1682
 2077ntf    sn216024   7.140   6.255   5.858  0.2651  0.3777  0.0584
 2077ntf    cn116025   7.195   6.084   5.884  0.0518  0.3341  0.2262
 2077ntf    fn416026   6.723   6.399   5.894  0.2563 -0.3392  0.3120
 2077ntf    fn416027   6.869   6.468   5.764 -0.0556 -0.0156 -0.2587
 2077ntf    fn416028   6.695   6.368   5.684  0.5522 -0.0405 -0.2355
 2077ntf    on516029   6.777   6.122   5.851  0.5100 -0.4246 -0.3472
 2077ntf    on516030   6.905   6.185   5.644  0.8387  0.1302 -0.0846
 2077ntf    on516031   7.206   6.316   5.971  0.1993  0.0828  0.2572
 2077ntf    on516032   7.190   6.294   5.729  0.3543 -0.2645 -0.1067
 2077ntf    fn416033   7.139   6.034   5.993  0.0706  0.1237  0.1400
 2077ntf    fn416034   7.158   6.002   5.786  0.2443  0.1928  0.2704
 2077ntf    fn416035   7.327   6.073   5.896  0.0157 -0.7401 -0.2088
 2078ntf    cn116036   6.072   1.412   3.669 -0.0660  0.1364  0.1439
 2078ntf    sn216037   5.963   1.470   3.536 -0.1049 -0.0047  0.1138
 2078ntf    nn316038   6.036   1.594   3.474  0.5005  0.0190  0.8545
 2078ntf    sn216039   6.037   1.744   3.519 -0.2709  0.2153  0.2401
 2078ntf    cn116040   5.930   1.806   3.386 -0.2435 -0.1861  0.0284
 2078ntf    fn416041   6.173   1.339   3.623 -0.1256  0.0717  0.1159
 2078ntf    fn416042   6.118   1.517   3.735  0.7258 -0.2291  0.1822
 2078ntf    fn416043   6.009   1.341   3.762 -0.0776 -0.1871 -0.1098
 2078ntf    on516044   5.948   1.352   3.455  0.6904  0.1513 -0.2639
 2078ntf    on516045   5.842   1.501   3.608 -0.1084  0.0963  0.0651
 2078ntf    on516046   6.163   1.814   3.503 -0.4007  0.4331  0.1632
 2078ntf    on516047   5.961   1.782   3.635  0.0924 -0.0949  0.5811
 2078ntf    fn416048   5.981   1.786   3.266 -0.3752 -0.1516 -0.0347
 2078ntf    fn416049   5.818   1.736   3.383 -0.1752 -0.2749 -0.4303
 2078ntf    fn416050   5.899   1.935   3.394  0.5978  0.0068  0.2356
 2079ntf    cn116051   0.369   1.223   3.275  0.7800 -0.1403 -0.0857
 2079ntf    sn216052   0.377   1.299   3.110  0.0847 -0.1777 -0.1411
 2079ntf    nn316053   0.457   1.430   3.144 -0.4333  0.0858  0.0648
 2079ntf    sn216054   0.610   1.458   3.162 -0.4079  0.1106 -0.1938
 2079ntf    cn116055   0.634   1.591   3.040 -0.1382  0.0184 -0.2429
 2079ntf    fn416056   0.491   1.193   3.317  0.5156 -0.5342  0.4180
 2079ntf    fn416057   0.318   1.308   3.363  0.2116 -0.8690  0.2984
 2079ntf    fn416058   0.299   1.111   3.264  0.2339  0.2137 -0.2044
 2079ntf    on516059   0.437   1.200   3.024  0.5847 -0.4063  0.4557
 2079ntf    on516060   0.240   1.325   3.077  0.2092 -0.0375 -0.5542
 2079ntf    on516061   0.700   1.351   3.125 -0.4933 -0.1350  0.3091
 2079ntf    on516062   0.636   1.524   3.287  0.5255  0.0295 -0.3357
 2079ntf    fn416063   0.744   1.660   3.061  0.1178 -0.4204 -0.1306
 2079ntf    fn416064   0.658   1.536   2.922  0.1290  0.4311 -0.3795
 2079ntf    fn416065   0.533   1.676   3.029 -0.1406 -0.0446 -0.7445
 2080ntf    cn116066   1.875   1.860   6.010  0.0248  0.2153  0.7182
 2080ntf    sn216067   1.985   2.004   6.022  0.0308  0.2730  0.0219
 2080ntf    nn316068   1.873   2.111   6.044  0.3488  0.5490  0.3047
 2080ntf    sn216069   1.803   2.160   6.176 -0.4361  0.1520  0.0409
 2080ntf    cn116070   1.885   2.321   6.194  0.1106 -0.1417  0.2273
 2080ntf    fn416071   1.933   1.741   6.004 -0.8688 -0.1708 -0.6686
 2080ntf    fn416072   1.790   1.855   6.111 -0.4637 -0.3641  0.2887
 2080ntf    fn416073   1.804   1.858   5.899  0.3017 -0.4377  0.5475
 2080ntf    on516074   2.063   1.958   6.135  0.3893  0.4846 -0.1380
 2080ntf    on516075   2.053   2.008   5.895  0.4148  0.3210  0.2268
 2080ntf    on516076   1.827   2.089   6.300  0.3356 -0.0043 -0.1883
 2080ntf    on516077   1.665   2.188   6.148 -0.4555  0.3047  0.2864
 2080ntf    fn416078   2.017   2.315   6.195  0.1313  0.1766 -0.2791
 2080ntf    fn416079   1.859   2.404   6.094 -0.5903  0.0645  0.5709
 2080ntf    fn416080   1.853   2.378   6.310 -0.6905  0.1268 -0.1156
 2081ntf    cn116081   3.259   0.136   2.418 -0.1369 -0.2999  0.2710
 2081ntf    sn216082   3.362   0.286   2.405 -0.1443 -0.2926  0.2944
 2081ntf    nn316083   3.503   0.222   2.376 -0.2311 -0.3816  0.0666
 2081ntf    sn216084   3.593   0.150   2.482 -0.2637 -0.1398  0.2583
 2081ntf    cn116085   3.735   0.259   2.454 -0.1865 -0.2738  0.1288
 2081ntf    fn416086   3.136   0.173   2.448  0.0172  0.0490  0.4797
 2081ntf    fn416087   3.255   0.066   2.307 -0.4413  0.0928  0.0312
 2081ntf    fn416088   3.302   0.043   2.501 -0.4318 -0.3033  0.4227
 2081ntf    on516089   3.312   0.356   2.289 -0.0420  0.0437  0.4542
 2081ntf    on516090   3.360   0.367   2.524  0.3928  0.4323 -0.1857
 2081ntf    on516091   3.650   0.027   2.434  0.1249 -0.0950  0.5962
 2081ntf    on516092   3.550   0.160   2.620 -0.3433  0.0765  0.2189
 2081ntf    fn416093   3.707   0.377   2.508 -0.2931 -0.2794  0.0854
 2081ntf    fn416094   3.840   0.211   2.519  0.0766  0.1140 -0.0031
 2081ntf    fn416095   3.772   0.285   2.330  0.1515  0.0799  0.2994
 2082ntf    cn116096   4.735   2.447   0.797 -0.2955 -0.2902 -0.1842
 2082ntf    sn216097   4.569   2.457   0.724 -0.3261  0.1612 -0.0610
 2082ntf    nn316098   4.577   2.606   0.677 -0.6019  0.0659 -0.4182
 2082ntf    sn216099   4.573   2.673   0.535 -0.3572  0.2977 -0.3166
 2082ntf    cn116100   4.749   2.676   0.489 -0.3367  0.3430 -0.2371
 2082ntf    fn416101   4.744   2.328   0.852 -0.2213 -0.3097 -0.2382
 2082ntf    fn416102   4.835   2.454   0.711  0.0528 -0.1420  0.2266
 2082ntf    fn416103   4.751   2.537   0.893  0.0671 -0.3061 -0.2283
 2082ntf    on516104   4.558   2.357   0.621  0.2722  0.2571 -0.2203
 2082ntf    on516105   4.479   2.437   0.835 -0.1930 -0.3313 -0.0365
 2082ntf    on516106   4.542   2.813   0.523 -0.9759  0.1965  0.0688
 2082ntf    on516107   4.522   2.584   0.435  0.2360 -0.3795 -0.0263
 2082ntf    fn416108   4.791   2.571   0.421  0.0141  0.0071  0.4868
 2082ntf    fn416109   4.778   2.774   0.405 -0.1555  0.4060 -0.1014
 2082ntf    fn416110   4.840   2.680   0.585 -0.5684 -0.0854  0.0042
 2083ntf    cn116111   2.904   4.646   4.284 -0.3946  0.0786  0.1957
 2083ntf    sn216112   2.798   4.524   4.367  0.0936 -0.2435  0.3485
 2083ntf    nn316113   2.697   4.617   4.444 -0.1435 -0.4266  0.2596
 2083ntf    sn216114   2.725   4.710   4.567  0.2495 -0.0148 -0.1359
 2083ntf    cn116115   2.667   4.602   4.702  0.3428 -0.2483 -0.2825
 2083ntf    fn416116   2.946   4.741   4.367 -0.3827  0.0295  0.2451
 2083ntf    fn416117   3.014   4.585   4.245 -0.3073  0.2202  0.2152
 2083ntf    fn416118   2.852   4.710   4.181 -0.4579 -0.1621  0.0793
 2083ntf    on516119   2.738   4.456   4.255  0.0804  0.1272  0.1290
 2083ntf    on516120   2.879   4.438   4.449 -0.5757 -0.5520  0.6924
 2083ntf    on516121   2.636   4.824   4.574  0.2164 -0.0210 -0.4676
 2083ntf    on516122   2.862   4.734   4.604 -0.0759  0.5208  0.7649
 2083ntf    fn416123   2.669   4.663   4.819 -0.8499  0.0746 -0.4080
 2083ntf    fn416124   2.550   4.542   4.683  0.5024 -0.6068 -0.1435
 2083ntf    fn416125   2.745   4.496   4.713  0.1977 -0.3894 -0.5760
 2084ntf    cn116126   0.162   6.158   4.775  0.2756 -0.1705 -0.0667
 2084ntf    sn216127  -0.013   6.187   4.814  0.2735 -0.0546 -0.1612
 2084ntf    nn316128  -0.005   6.247   4.958 -0.5333  0.3461 -0.2794
 2084ntf    sn216129  -0.064   6.193   5.093  0.1683  0.2468 -0.0104
 2084ntf    cn116130  -0.105   6.355   5.164  0.2878  0.3779 -0.2395
 2084ntf    fn416131   0.178   6.152   4.643 -0.1127 -0.1148 -0.1154
 2084ntf    fn416132   0.247   6.254   4.810  0.4075 -0.4648  0.4248
 2084ntf    fn416133   0.201   6.044   4.827  0.5166  0.1083  0.3671
 2084ntf    on516134  -0.066   6.277   4.715  0.3318  0.4954  0.3043
 2084ntf    on516135  -0.067   6.054   4.804 -0.5837  0.2474  0.3601
 2084ntf    on516136   0.034   6.141   5.186  0.1328  0.1492 -0.0284
 2084ntf    on516137  -0.195   6.135   5.080  0.3291 -0.0908 -0.1343
 2084ntf    fn416138  -0.184   6.436   5.095 -0.1501  0.2296  0.0871
 2084ntf    fn416139  -0.163   6.349   5.283  0.2820 -0.3165 -0.2752
 2084ntf    fn416140   0.004   6.427   5.182 -0.1117  0.7650  0.6916
 2085ntf    cn116141   5.684   5.767   6.374 -0.3489  0.1043  0.0213
 2085ntf    sn216142   5.603   5.724   6.532 -0.0510  0.0011  0.1447
 2085ntf    nn316143   5.729   5.719   6.626 -0.0163 -0.0168  0.0975
 2085ntf    sn216144   5.745   5.641   6.761  0.0964 -0.2175 -0.0324
 2085ntf    cn116145   5.701   5.778   6.872 -0.2389 -0.1420 -0.2556
 2085ntf    fn416146   5.737   5.664   6.311 -0.4046 -0.1749  0.4226
 2085ntf    fn416147   5.595   5.817   6.290 -0.5390 -0.1818  0.0509
 2085ntf    fn416148   5.774   5.862   6.393 -0.3596  0.1698 -0.2513
 2085ntf    on516149   5.503   5.825   6.554 -0.2096 -0.1190 -0.0159
 2085ntf    on516150   5.549   5.593   6.504 -0.3106  0.0779  0.2830
 2085ntf    on516151   5.886   5.613   6.778  0.1924  0.3242  0.0580
 2085ntf    on516152   5.651   5.537   6.797 -0.1844 -0.0014 -0.1398
 2085ntf    fn416153   5.575   5.817   6.866 -0.1313  0.1804 -0.4265
 2085ntf    fn416154   5.722   5.752   7.000  0.2104 -0.1167 -0.3206
 2085ntf    fn416155   5.773   5.884   6.837  0.1958 -0.4007 -0.1575
 2086ntf    cn116156   3.083   6.444   5.488 -0.0899 -0.4623  0.0665
 2086ntf    sn216157   3.218   6.364   5.580  0.3998 -0.0192 -0.2621
 2086ntf    nn316158   3.320   6.483   5.576  0.6948 -0.2683 -0.2574
 2086ntf    sn216159   3.357   6.595   5.679 -0.0447 -0.1341 -0.1329
 2086ntf    cn116160   3.537   6.578   5.696 -0.0879 -0.4028  0.0591
 2086ntf    fn416161   2.974   6.370   5.479 -0.3060 -0.0860 -0.3875
 2086ntf    fn416162   3.041   6.551   5.552  0.3580 -0.2382 -0.0126
 2086ntf    fn416163   3.119   6.483   5.367 -0.2413 -0.4448  0.0276
 2086ntf    on516164   3.163   6.340   5.711  0.3982  0.1284 -0.2363
 2086ntf    on516165   3.257   6.253   5.496  0.1791 -0.1349 -0.2114
 2086ntf    on516166   3.314   6.574   5.815 -0.2687  0.1684 -0.1547
 2086ntf    on516167   3.348   6.729   5.626  0.7128 -0.2438 -0.5604
 2086ntf    fn416168   3.597   6.621   5.586  0.3989 -0.6463  0.2280
 2086ntf    fn416169   3.584   6.658   5.791 -0.3778 -0.0047 -0.1294
 2086ntf    fn416170   3.587   6.458   5.722  0.1372 -0.2555  0.3193
 2087ntf    cn116171   1.935   3.989   6.787  0.0898  0.1482  0.4088
 2087ntf    sn216172   2.079   3.971   6.677 -0.0301 -0.2758  0.3201
 2087ntf    nn316173   2.102   3.816   6.690 -0.0376 -0.3104 -0.0977
 2087ntf    sn216174   2.210   3.734   6.769  0.1468 -0.2286 -0.2642
 2087ntf    cn116175   2.327   3.681   6.640  0.5132  0.3260 -0.1631
 2087ntf    fn416176   1.932   3.903   6.888  0.5286 -0.3325  0.0169
 2087ntf    fn416177   1.933   4.111   6.838 -0.3553  0.3101  0.0074
 2087ntf    fn416178   1.818   3.990   6.725 -0.0639 -0.0476  0.6935
 2087ntf    on516179   2.031   4.019   6.551  0.9602 -0.1003 -0.0025
 2087ntf    on516180   2.177   4.056   6.740 -0.3726  0.6130 -0.3425
 2087ntf    on516181   2.153   3.612   6.820  0.0288 -0.1010 -0.0879
 2087ntf    on516182   2.296   3.807   6.860 -0.3740 -0.0594  0.0945
 2087ntf    fn416183   2.383   3.793   6.597  0.1433  0.4669 -0.2808
 2087ntf    fn416184   2.426   3.599   6.672  0.5895  0.5362  0.1474
 2087ntf    fn416185   2.268   3.622   6.539  0.3376  0.2392 -0.0101
 2088ntf    cn116186   6.211   3.658   2.203 -0.1502  0.1884  0.3131
 2088ntf    sn216187   6.310   3.545   2.305  0.1437  0.0852 -0.0857
 2088ntf    nn316188   6.198   3.478   2.391  0.2582  0.0457  0.0327
 2088ntf    sn216189   6.116   3.348   2.358 -0.0308  0.1591  0.2910
 2088ntf    cn116190   6.240   3.220   2.397  0.2555  0.4445  0.3211
 2088ntf    fn416191   6.141   3.737   2.283  0.1628  0.5199  0.2609
 2088ntf    fn416192   6.280   3.734   2.120  0.4562 -0.6931 -0.0092
 2088ntf    fn416193   6.119   3.592   2.134  0.0606  0.1969  0.0255
 2088ntf    on516194   6.381   3.453   2.219 -0.8912 -1.0015  0.1884
 2088ntf    on516195   6.391   3.633   2.386  0.1059  0.3384 -0.3218
 2088ntf    on516196   6.079   3.332   2.220  0.6711 -0.5947  0.1782
 2088ntf    on516197   6.010   3.311   2.448 -0.2205 -0.2624 -0.0999
 2088ntf    fn416198   6.183   3.102   2.411  0.2212  0.3592 -0.4576
 2088ntf    fn416199   6.328   3.204   2.299  0.0282  0.2544  0.1459
 2088ntf    fn416200   6.310   3.244   2.506  0.0189 -0.6452  0.7243
 2089ntf    cn116201   4.367   4.001   4.411 -0.0524 -0.0442 -0.1382
 2089ntf    sn216202   4.330   3.866   4.528  0.0634 -0.0564 -0.1154
 2089ntf    nn316203   4.303   3.751   4.425  0.0827 -0.1425 -0.0231
 2089ntf    sn216204   4.402   3.643   4.369  0.4972  0.2060  0.0419
 2089ntf    cn116205   4.358   3.654   4.193 -0.0572  0.2387  0.1803
 2089ntf    fn416206   4.373   4.122   4.465 -0.4009 -0.0184 -0.1529
 2089ntf    fn416207   4.484   3.985   4.352  0.1181  0.2693  0.1152
 2089ntf    fn416208   4.276   4.007   4.315 -0.2041 -0.0731  0.0038
 2089ntf    on516209   4.448   3.846   4.608  0.6737  0.6522 -0.8094
 2089ntf    on516210   4.209   3.900   4.597  0.5505 -0.1608  0.7971
 2089ntf    on516211   4.373   3.507   4.406 -0.2325  0.5040  0.5853
 2089ntf    on516212   4.541   3.682   4.362  0.5266  0.0207 -0.4017
 2089ntf    fn416213   4.452   3.603   4.114 -0.3032 -0.3272  0.2439
 2089ntf    fn416214   4.259   3.571   4.165  0.4580 -0.3325  0.0082
 2089ntf    fn416215   4.322   3.772   4.146  0.0868  0.0535 -0.3977
 2090ntf    cn116216   2.960   3.653   0.587  0.0637 -0.6371 -0.3410
 2090ntf    sn216217   2.845   3.519   0.632  0.0318 -0.5173 -0.0641
 2090ntf    nn316218   2.798   3.467   0.491 -0.0425  0.5389 -0.4389
 2090ntf    sn216219   2.752   3.325   0.442  0.5083  0.1921  0.0374
 2090ntf    cn116220   2.575   3.362   0.424  0.3778 -0.3387  0.1854
 2090ntf    fn416221   2.911   3.747   0.508  0.1160 -0.1417  0.2132
 2090ntf    fn416222   2.987   3.714   0.700  0.3232 -0.9055 -0.2584
 2090ntf    fn416223   3.074   3.609   0.537  0.3734 -0.6517  0.3691
 2090ntf    on516224   2.926   3.429   0.710  0.0151 -0.0503  0.4962
 2090ntf    on516225   2.734   3.580   0.700  0.0983 -0.4459 -0.0183
 2090ntf    on516226   2.765   3.221   0.542  0.1973  0.0509 -0.0681
 2090ntf    on516227   2.808   3.303   0.311  0.2494  0.3199 -0.0944
 2090ntf    fn416228   2.504   3.251   0.417 -0.2084  0.0357  0.1448
 2090ntf    fn416229   2.526   3.431   0.526 -0.5101  0.0648 -0.5039
 2090ntf    fn416230   2.550   3.430   0.313 -0.2384 -0.0565  0.4953
 2091ntf    cn116231   2.229   6.041   2.923 -0.0839  0.3451  0.3377
 2091ntf    sn216232   2.287   6.071   2.753 -0.2846  0.2795  0.2575
 2091ntf    nn316233   2.178   5.993   2.671 -0.1421  0.1615  0.1802
 2091ntf    sn216234   2.177   5.862   2.584  0.1997  0.3646 -0.1296
 2091ntf    cn116235   2.036   5.780   2.663  0.1632  0.4286 -0.1285
 2091ntf    fn416236   2.219   5.913   2.953 -0.1767  0.2234 -0.1988
 2091ntf    fn416237   2.311   6.100   3.008  0.3948 -0.5729  0.5199
 2091ntf    fn416238   2.104   6.081   2.941 -0.2166  0.1387 -0.1186
 2091ntf    on516239   2.271   6.214   2.742 -0.2368  0.2645 -0.0236
 2091ntf    on516240   2.419   6.013   2.752 -0.5075 -0.2355  0.1230
 2091ntf    on516241   2.291   5.777   2.604 -0.3322 -0.2946  0.1210
 2091ntf    on516242   2.130   5.889   2.450 -0.0856 -0.0665 -0.1184
 2091ntf    fn416243   2.046   5.796   2.794 -0.0509  0.0360 -0.0620
 2091ntf    fn416244   1.926   5.828   2.608  0.2348  0.2461 -0.4358
 2091ntf    fn416245   2.021   5.653   2.628 -0.0869  0.4523 -0.1079
 2092ntf    cn116246   2.739   2.813   3.116 -0.0041  0.3158 -0.1124
 2092ntf    sn216247   2.838   2.877   2.977  0.2413  0.0742 -0.0506
 2092ntf    nn316248   2.957   2.943   3.055  0.0705  0.5166 -0.1574
 2092ntf    sn216249   3.100   2.884   3.085 -0.0300  0.4052  0.1002
 2092ntf    cn116250   3.202   3.034   3.066  0.2044  0.2741  0.3156
 2092ntf    fn416251   2.667   2.906   3.176 -0.1481  0.0608  0.1096
 2092ntf    fn416252   2.654   2.718   3.083 -0.0932  0.3108  0.1375
 2092ntf    fn416253   2.817   2.745   3.198  0.3086  0.8339  0.0260
 2092ntf    on516254   2.854   2.762   2.892  0.1878 -0.5799  0.8123
 2092ntf    on516255   2.762   2.983   2.914 -0.0636 -0.0599  0.0879
 2092ntf    on516256   3.152   2.785   2.995 -0.8909 -0.2885  0.3463
 2092ntf    on516257   3.123   2.864   3.226  0.6760  0.5932  0.0141
 2092ntf    fn416258   3.330   3.005   3.075  0.1064 -0.2198  0.1896
 2092ntf    fn416259   3.185   3.091   2.948 -0.1743 -0.2517  0.1058
 2092ntf    fn416260   3.169   3.126   3.155  0.3039 -0.2351  0.8841
 2093ntf    cn116261   1.207   1.132   0.431  0.2337  0.3530  0.1853
 2093ntf    sn216262   1.139   1.116   0.598 -0.0705 -0.0021  0.0292
 2093ntf    nn316263   1.251   1.032   0.670  0.0038  0.2018  0.1509
 2093ntf    sn216264   1.360   1.075   0.775 -0.1641  0.3548  0.2629
 2093ntf    cn116265   1.266   1.047   0.928  0.1937  0.2885  0.4708
 2093ntf    fn416266   1.332   1.175   0.431  0.1950  0.4702  0.0350
 2093ntf    fn416267   1.212   1.019   0.362  0.1132  0.1413  0.5204
 2093ntf    fn416268   1.131   1.213   0.358  0.1773  0.0828 -0.0600
 2093ntf    on516269   1.120   1.249   0.650 -0.2563  0.3048 -0.8156
 2093ntf    on516270   1.018   1.038   0.584  0.3128 -0.5307 -0.3745
 2093ntf    on516271   1.396   1.215   0.774 -0.3508  0.4020 -0.1061
 2093ntf    on516272   1.461   0.972   0.777 -0.3689  0.1539  0.3860
 2093ntf    fn416273   1.194   1.150   0.969  0.0546  0.2699  0.2757
 2093ntf    fn416274   1.171   0.956   0.917  0.5330 -0.0568  0.3552
 2093ntf    fn416275   1.340   1.005   1.029  0.6484 -0.1193 -0.0226
 2094ntf    cn116276   3.415   2.326   0.657  0.1519  0.1596  0.2986
 2094ntf    sn216277   3.476   2.285   0.491 -0.2070 -0.0987  0.2289
 2094ntf    nn316278   3.625   2.326   0.519  0.0262 -0.4640 -0.4320
 2094ntf    sn216279   3.743   2.357   0.419  0.1789 -0.0362 -0.1249
 2094ntf    cn116280   3.768   2.536   0.432 -0.1285  0.0082 -0.1374
 2094ntf    fn416281   3.447   2.449   0.692  0.1414  0.3102 -0.2083
 2094ntf    fn416282   3.283   2.315   0.663  0.1896 -0.3862  0.1729
 2094ntf    fn416283   3.467   2.249   0.751 -0.0075  0.0725  0.3161
 2094ntf    on516284   3.453   2.144   0.473 -0.0027 -0.0310 -0.6463
 2094ntf    on516285   3.410   2.371   0.396  0.0850  0.4641  0.5366
 2094ntf    on516286   3.715   2.341   0.279 -0.4031  0.1284 -0.0325
 2094ntf    on516287   3.866   2.311   0.479 -0.0582  0.0301  0.4185
 2094ntf    fn416288   3.729   2.591   0.546 -0.2234  0.0968 -0.2118
 2094ntf    fn416289   3.897   2.561   0.415 -0.0236 -0.4013  0.0431
 2094ntf    fn416290   3.708   2.610   0.341 -0.2548 -0.2956 -0.3021
 2095ntf    cn116291   2.385   0.293   1.061  0.1279  0.2670 -0.1933
 2095ntf    sn216292   2.318   0.127   1.032  0.1577  0.2748 -0.3030
 2095ntf    nn316293   2.429   0.066   0.939  0.4229 -0.4289  0.4619
 2095ntf    sn216294   2.412  -0.051   0.836  0.1824 -0.3010  0.3567
 2095ntf    cn116295   2.560  -0.149   0.874  0.5062  0.0359 -0.0235
 2095ntf    fn416296   2.502   0.286   1.123 -0.0955 -0.4494  0.1545
 2095ntf    fn416297   2.398   0.355   0.945 -0.3068  0.2328 -0.2641
 2095ntf    fn416298   2.303   0.367   1.135 -0.3857 -0.3306 -0.1545
 2095ntf    on516299   2.322   0.060   1.159  0.5409  0.1465 -0.3804
 2095ntf    on516300   2.192   0.158   0.968  0.2533 -0.0023 -0.6332
 2095ntf    on516301   2.433   0.001   0.703  0.0627  0.4487  0.6233
 2095ntf    on516302   2.295  -0.133   0.856  0.3268 -0.8033 -0.7945
 2095ntf    fn416303   2.670  -0.078   0.859  0.5748  0.0389  0.4775
 2095ntf    fn416304   2.558  -0.189   1.000 -0.2874 -1.0265 -0.3508
 2095ntf    fn416305   2.575  -0.256   0.798 -0.0627  0.0082 -0.1045
 2096ntf    cn116306   4.460   4.326   1.965  0.4154 -0.4107  0.0329
 2096ntf    sn216307   4.354   4.218   2.067 -0.1872  0.2725  0.1406
 2096ntf    nn316308   4.446   4.180   2.189 -0.3061  0.0125  0.1483
 2096ntf    sn216309   4.413   4.073   2.299 -0.1402 -0.0344  0.1526
 2096ntf    cn116310   4.568   3.980   2.311 -0.3180 -0.3703 -0.1535
 2096ntf    fn416311   4.401   4.356   1.851  0.6297  0.4667  0.1498
 2096ntf    fn416312   4.494   4.439   2.024 -0.5969 -0.0139 -0.1202
 2096ntf    fn416313   4.572   4.264   1.932  0.3076 -0.5679 -0.0358
 2096ntf    on516314   4.245   4.305   2.105 -0.5977  0.0059 -0.4195
 2096ntf    on516315   4.332   4.111   1.973 -0.3288  0.3249  0.1150
 2096ntf    on516316   4.312   3.980   2.256  0.0777  0.1504 -0.7653
 2096ntf    on516317   4.397   4.128   2.432  0.8995  0.5094  0.0610
 2096ntf    fn416318   4.667   4.055   2.356 -0.6170  0.0059 -0.1246
 2096ntf    fn416319   4.558   3.871   2.385 -0.0031 -0.2398  0.0845
 2096ntf    fn416320   4.609   3.937   2.192  0.2091 -0.2091 -0.0332
 2097ntf    cn116321   5.558   3.383   5.396 -0.3156  0.1520 -0.7197
 2097ntf    sn216322   5.416   3.330   5.497  0.0908  0.0173 -0.2148
 2097ntf    nn316323   5.486   3.282   5.629  0.4445  0.5714 -0.1981
 2097ntf    sn216324   5.498   3.356   5.766  0.0160  0.0815  0.1072
 2097ntf    cn116325   5.339   3.310   5.842 -0.0402  0.4930  0.2404
 2097ntf    fn416326   5.523   3.432   5.278 -0.3820  0.7986 -0.4316
 2097ntf    fn416327   5.615   3.481   5.464  0.4193 -0.4142 -0.5038
 2097ntf    fn416328   5.648   3.290   5.367 -0.3843 -0.0695 -0.2393
 2097ntf    on516329   5.325   3.439   5.520 -0.1046 -0.1027 -0.4105
 2097ntf    on516330   5.366   3.214   5.427  0.2768 -0.2689  0.1246
 2097ntf    on516331   5.496   3.500   5.755 -0.3645  0.1085  0.4771
 2097ntf    on516332   5.598   3.305   5.857 -0.3476 -0.3854  0.2484
 2097ntf    fn416333   5.318   3.382   5.951 -0.4522  0.1132  0.4148
 2097ntf    fn416334   5.237   3.316   5.757  0.0978 -0.2900  0.0205
 2097ntf    fn416335   5.336   3.183   5.877 -0.3912  0.4094 -0.0887
 2098ntf    cn116336   6.575   4.437   4.289  0.3817 -0.4462  0.1374
 2098ntf    sn216337   6.436   4.320   4.286  0.1188 -0.1365  0.2138
 2098ntf    nn316338   6.327   4.381   4.191  0.3396 -0.2163 -0.0914
 2098ntf    sn216339   6.274   4.320   4.057  0.0844  0.0074 -0.0921
 2098ntf    cn116340   6.131   4.427   4.021  0.0317 -0.0752 -0.1274
 2098ntf    fn416341   6.536   4.563   4.304  0.2138 -0.5155  0.2860
 2098ntf    fn416342   6.660   4.417   4.388  0.0499 -0.0790  0.4995
 2098ntf    fn416343   6.641   4.420   4.175 -0.1639 -0.2739 -0.2076
 2098ntf    on516344   6.484   4.189   4.249  0.1368 -0.2249  0.5425
 2098ntf    on516345   6.387   4.321   4.422 -0.3281 -0.3530  0.0566
 2098ntf    on516346   6.200   4.197   4.073  0.0664  0.0171 -0.0971
 2098ntf    on516347   6.359   4.343   3.943 -0.0762 -0.3591 -0.2885
 2098ntf    fn416348   6.176   4.546   3.985 -0.1704  0.1085  0.2258
 2098ntf    fn416349   6.057   4.382   3.921  0.1207 -0.5827  0.0317
 2098ntf    fn416350   6.058   4.446   4.130  0.5585 -0.2990  0.2696
 2099ntf    cn116351   2.622   5.803   4.707  0.2732 -0.0388  0.3988
 2099ntf    sn216352   2.645   5.810   4.887  0.0064 -0.1374  0.4374
 2099ntf    nn316353   2.790   5.751   4.896 -0.1624 -0.7458 -0.6839
 2099ntf    sn216354   2.865   5.677   5.013  0.2335  0.5964 -0.0723
 2099ntf    cn116355   2.821   5.503   4.984  0.1282  0.6234 -0.0747
 2099ntf    fn416356   2.499   5.839   4.672  0.3785  0.1769  0.2449
 2099ntf    fn416357   2.704   5.882   4.639  0.2183  0.0926  0.4845
 2099ntf    fn416358   2.638   5.682   4.656  0.3363 -0.0750  0.5029
 2099ntf    on516359   2.634   5.951   4.914 -0.0788 -0.0831  0.1282
 2099ntf    on516360   2.540   5.728   4.941  0.2244 -0.4581  0.3790
 2099ntf    on516361   2.810   5.705   5.143 -0.4519  0.6669 -0.3737
 2099ntf    on516362   3.009   5.664   5.007  0.0952 -1.2963  0.1340
 2099ntf    fn416363   2.821   5.482   4.853 -0.5267  0.5656 -0.0701
 2099ntf    fn416364   2.906   5.419   5.041 -0.2720  0.4372  0.2560
 2099ntf    fn416365   2.699   5.479   5.029  0.1395 -0.4850 -0.6162
 2100ntf    cn116366   3.998   3.659   6.172 -0.1002 -0.5148  0.2482
 2100ntf    sn216367   3.820   3.653   6.207 -0.1502 -0.1303  0.0692
 2100ntf    nn316368   3.786   3.806   6.208 -0.1806 -0.1393  0.5671
 2100ntf    sn216369   3.660   3.872   6.141  0.1462 -0.0643  0.0179
 2100ntf    cn116370   3.685   4.042   6.200  0.6006 -0.0450 -0.2296
 2100ntf    fn416371   4.046   3.537   6.193  0.0390 -0.4356  0.3945
 2100ntf    fn416372   4.024   3.701   6.049 -0.0394 -0.1262  0.3941
 2100ntf    fn416373   4.065   3.731   6.260  0.2305 -0.0506 -0.3740
 2100ntf    on516374   3.768   3.588   6.088  0.1863 -0.0314 -0.1329
 2100ntf    on516375   3.808   3.588   6.335 -0.1438  0.4321  0.3538
 2100ntf    on516376   3.536   3.830   6.203  0.0761  0.1444  0.0190
 2100ntf    on516377   3.668   3.881   5.997 -0.6799 -0.4493 -0.0616
 2100ntf    fn416378   3.584   4.126   6.193  0.7313  0.1803  0.4569
 2100ntf    fn416379   3.712   4.040   6.330  0.2830 -0.5001 -0.1661
 2100ntf    fn416380   3.787   4.107   6.148  0.3882  0.4864  0.0146
 2101ntf    cn116381   2.869   3.337   6.423 -0.0293  0.2191 -0.4852
 2101ntf    sn216382   2.892   3.504   6.356  0.0716  0.3715 -0.0725
 2101ntf    nn316383   2.742   3.527   6.316  0.0733  0.3819 -0.0740
 2101ntf    sn216384   2.635   3.609   6.395  0.1094  0.2698  0.0917
 2101ntf    cn116385   2.671   3.771   6.321 -0.1052  0.3493  0.1596
 2101ntf    fn416386   2.764   3.329   6.502  0.1118  0.8237 -0.2307
 2101ntf    fn416387   2.862   3.247   6.326 -0.0538 -0.1498 -0.1457
 2101ntf    fn416388   2.973   3.297   6.494 -0.1603  0.4027 -0.1881
 2101ntf    on516389   2.953   3.578   6.463  0.2247 -0.3639  0.3504
 2101ntf    on516390   2.980   3.476   6.245 -0.3476 -0.3035 -0.2397
 2101ntf    on516391   2.660   3.619   6.537 -0.2191 -0.3201  0.1964
 2101ntf    on516392   2.498   3.585   6.356  0.1188  0.0597  0.1872
 2101ntf    fn416393   2.613   3.868   6.390 -0.1899  0.1000  0.4420
 2101ntf    fn416394   2.800   3.796   6.321 -0.0136 -0.1112  0.7198
 2101ntf    fn416395   2.641   3.785   6.192 -0.4075  0.2689  0.2195
 2102ntf    cn116396   0.788   1.822   4.017 -0.0435  0.1134 -0.2673
 2102ntf    sn216397   0.827   1.679   3.912  0.1170 -0.0182 -0.0303
 2102ntf    nn316398   0.704   1.586   3.940  0.1571 -0.1157 -0.1754
 2102ntf    sn216399   0.677   1.497   4.067  0.1688 -0.1238 -0.1782
 2102ntf    cn116400   0.767   1.347   4.018  0.0887 -0.1700 -0.1824
 2102ntf    fn416401   0.657   1.835   4.022  0.0533  1.1172  0.0336
 2102ntf    fn416402   0.836   1.805   4.139 -0.0241 -0.4023 -0.3462
 2102ntf    fn416403   0.842   1.934   3.972 -0.1903  0.0593 -0.5803
 2102ntf    on516404   0.819   1.726   3.776  0.0502  0.5186  0.1539
 2102ntf    on516405   0.955   1.634   3.960  0.1578  0.2137  0.0822
 2102ntf    on516406   0.536   1.470   4.082  0.0894  0.2193 -0.3051
 2102ntf    on516407   0.742   1.541   4.188  0.2333 -0.3392 -0.1338
 2102ntf    fn416408   0.760   1.327   3.887  0.0251 -0.3516 -0.1532
 2102ntf    fn416409   0.895   1.349   4.052 -0.0222  0.0017  0.2294
 2102ntf    fn416410   0.716   1.239   4.076 -0.4550  0.4384  0.4966
 2103ntf    cn116411   0.157   5.397   4.067 -0.4645  0.0802 -0.0164
 2103ntf    sn216412   0.243   5.509   4.182  0.0663  0.2445 -0.5682
 2103ntf    nn316413   0.384   5.522   4.115  0.1156 -0.0454 -0.5252
 2103ntf    sn216414   0.503   5.420   4.124 -0.0906 -0.2426 -0.0714
 2103ntf    cn116415   0.525   5.386   3.947  0.3997  0.0200 -0.0596
 2103ntf    fn416416   0.151   5.451   3.946  0.1285 -0.0930 -0.1251
 2103ntf    fn416417   0.213   5.277   4.060 -0.3507  0.1186  0.2392
 2103ntf    fn416418   0.033   5.370   4.104 -0.2498 -0.3827  0.3719
 2103ntf    on516419   0.161   5.627   4.176 -0.5088 -0.1149  0.0328
 2103ntf    on516420   0.228   5.436   4.306 -0.7283  0.4892 -0.5161
 2103ntf    on516421   0.465   5.289   4.174 -0.3304 -0.2301 -0.2174
 2103ntf    on516422   0.626   5.479   4.169 -0.0958 -0.3211  0.0498
 2103ntf    fn416423   0.405   5.367   3.896  0.2193 -0.1407  0.4188
 2103ntf    fn416424   0.585   5.487   3.885  0.2709  0.0258 -0.1732
 2103ntf    fn416425   0.592   5.274   3.927  0.3903 -0.0017  0.0325
 2104ntf    cn116426   2.938   2.028   0.915  0.3793  0.2686  0.1369
 2104ntf    sn216427   2.825   2.020   0.773 -0.0021 -0.1969  0.4601
 2104ntf    nn316428   2.828   1.869   0.728  0.3135 -0.0489 -0.0309
 2104ntf    sn216429   2.724   1.762   0.777 -0.2231  0.3476 -0.2905
 2104ntf    cn116430   2.814   1.606   0.750 -0.1079  0.3565  0.0353
 2104ntf    fn416431   2.886   1.951   1.011  0.6994 -0.2671 -0.1136
 2104ntf    fn416432   3.056   1.975   0.887  0.0324 -0.0504 -0.7408
 2104ntf    fn416433   2.958   2.149   0.964  0.3740  0.1274  0.4959
 2104ntf    on516434   2.701   2.070   0.826 -0.1452 -0.2847  0.2095
 2104ntf    on516435   2.893   2.108   0.682  0.1227 -1.0188 -0.2644
 2104ntf    on516436   2.616   1.748   0.683 -0.0963 -0.5499 -0.3113
 2104ntf    on516437   2.693   1.753   0.918 -0.0973 -0.1300 -0.2912
 2104ntf    fn416438   2.727   1.508   0.733  0.7812 -0.3651 -0.3981
 2104ntf    fn416439   2.896   1.610   0.647 -0.2980 -0.1963 -0.1426
 2104ntf    fn416440   2.885   1.570   0.856  0.0825 -0.1231 -0.2567
 2105ntf    cn116441   5.418   6.319   5.179 -0.5767  0.2637 -0.2525
 2105ntf    sn216442   5.558   6.324   5.063 -0.0922 -0.4561  0.2904
 2105ntf    nn316443   5.671   6.292   5.167 -0.1915  0.2370  0.6192
 2105ntf    sn216444   5.809   6.363   5.189 -0.1987  0.4681 -0.0576
 2105ntf    cn116445   5.871   6.251   5.319 -0.2159  0.0482 -0.4095
 2105ntf    fn416446   5.426   6.406   5.278 -0.1797 -0.4517  0.3609
 2105ntf    fn416447   5.297   6.326   5.126 -0.3880 -0.3794 -0.7993
 2105ntf    fn416448   5.422   6.202   5.241  0.0085  0.0265 -0.7262
 2105ntf    on516449   5.533   6.216   4.972  0.5286 -0.0138 -0.4168
 2105ntf    on516450   5.562   6.460   5.014  0.7802 -0.5839 -0.0047
 2105ntf    on516451   5.797   6.494   5.249  0.3407  0.3148  0.3987
 2105ntf    on516452   5.899   6.347   5.077 -0.5643 -0.0283 -0.2826
 2105ntf    fn416453   5.824   6.265   5.442 -0.2533 -0.6347 -0.3418
 2105ntf    fn416454   5.854   6.124   5.289  0.2092 -0.0557 -0.2088
 2105ntf    fn416455   6.003   6.257   5.325 -0.2303 -0.2723  0.2966
 2106ntf    cn116456   3.628   1.670   0.200  0.4089 -0.0138  0.0634
 2106ntf    sn216457   3.580   1.515   0.119  0.1658  0.2273 -0.2585
 2106ntf    nn316458   3.716   1.436   0.134 -0.2056 -0.3383  0.1675
 2106ntf    sn216459   3.746   1.289   0.089 -0.0102 -0.2632  0.0529
 2106ntf    cn116460   3.814   1.224   0.244  0.1009 -0.3696 -0.0400
 2106ntf    fn416461   3.686   1.659   0.318 -0.1521  0.5516  0.3933
 2106ntf    fn416462   3.720   1.738   0.132  0.1583  0.7297  0.4563
 2106ntf    fn416463   3.527   1.755   0.209  0.1642 -0.2721 -0.2438
 2106ntf    on516464   3.472   1.471   0.204  0.3627  0.2452  0.0027
 2106ntf    on516465   3.550   1.558  -0.015  0.2209  0.2068 -0.2776
 2106ntf    on516466   3.864   1.275   0.007 -0.1049 -0.7050 -0.0093
 2106ntf    on516467   3.630   1.208   0.061  0.1983 -0.4799 -0.1927
 2106ntf    fn416468   3.937   1.267   0.263 -0.0626  0.0680  0.0437
 2106ntf    fn416469   3.756   1.262   0.357 -0.1098  0.0976 -0.3031
 2106ntf    fn416470   3.817   1.092   0.257 -0.3869 -0.3636  0.1801
 2107ntf    cn116471   5.525   2.198   0.507 -0.3165 -0.4258  0.1684
 2107ntf    sn216472   5.355   2.261   0.507 -0.1263  0.1013 -0.4800
 2107ntf    nn316473   5.340   2.300   0.659  0.7058 -0.4718 -0.2433
 2107ntf    sn216474   5.278   2.216   0.776 -0.0982 -0.0769 -0.3803
 2107ntf    cn116475   5.365   2.304   0.909 -0.5192 -0.3671  0.0914
 2107ntf    fn416476   5.558   2.114   0.605 -0.7004 -0.4097  0.3138
 2107ntf    fn416477   5.573   2.153   0.392 -0.1087  0.6000 -0.1525
 2107ntf    fn416478   5.601   2.303   0.533 -0.0484 -0.5448 -0.1333
 2107ntf    on516479   5.354   2.367   0.410  0.0913  0.4087 -0.1478
 2107ntf    on516480   5.278   2.145   0.468 -0.4985 -0.0981  0.7862
 2107ntf    on516481   5.337   2.085   0.788  0.4338  0.2059  0.1143
 2107ntf    on516482   5.137   2.230   0.802  0.0376 -0.5603  0.6636
 2107ntf    fn416483   5.356   2.240   1.025 -0.1090 -0.2310  0.1997
 2107ntf    fn416484   5.495   2.310   0.883 -0.6564 -0.2894 -0.5855
 2107ntf    fn416485   5.323   2.429   0.917 -0.1607 -0.2364 -0.0209
 2108ntf    cn116486   6.704   3.153   2.929 -0.3398  0.0311  0.1831
 2108ntf    sn216487   6.834   3.280   2.929 -0.4227  0.1156  0.0838
 2108ntf    nn316488   6.820   3.332   2.781  0.1593 -0.0589 -0.0365
 2108ntf    sn216489   6.934   3.343   2.674  0.2701  0.2029  0.1087
 2108ntf    cn116490   6.914   3.188   2.582  0.0106  0.1171  0.3100
 2108ntf    fn416491   6.586   3.210   2.947 -0.3964 -0.0522  0.0758
 2108ntf    fn416492   6.695   3.083   2.817 -0.2714  0.0253  0.1814
 2108ntf    fn416493   6.717   3.059   3.022  0.2212 -0.1479 -0.0721
 2108ntf    on516494   6.784   3.370   3.029 -0.1658  0.3122  0.0354
 2108ntf    on516495   6.957   3.207   2.950 -0.8490 -0.6570 -0.0509
 2108ntf    on516496   7.074   3.340   2.711  0.2586  0.1575  0.1493
 2108ntf    on516497   6.893   3.444   2.580 -0.2675  0.0764  0.2082
 2108ntf    fn416498   6.909   3.077   2.655  0.1342 -0.2837 -0.2758
 2108ntf    fn416499   6.803   3.179   2.510  0.4535  0.0794 -0.3738
 2108ntf    fn416500   7.013   3.172   2.496  0.0542  0.1838  0.3484
 2109ntf    cn116501   4.931   4.877   5.658 -0.1996 -0.0915  0.2652
 2109ntf    sn216502   4.889   4.703   5.688 -0.1131 -0.0909  0.3873
 2109ntf    nn316503   4.749   4.704   5.617  0.0263  0.3575  0.1139
 2109ntf    sn216504   4.607   4.699   5.685 -0.0833  0.2172 -0.1238
 2109ntf    cn116505   4.580   4.522   5.716 -0.4379  0.2980  0.0342
 2109ntf    fn416506   4.840   4.961   5.707 -0.0673  0.0634  0.2453
 2109ntf    fn416507   5.044   4.908   5.718  0.2196 -0.4049 -0.3544
 2109ntf    fn416508   4.947   4.907   5.530  0.6469  0.1361  0.4208
 2109ntf    on516509   4.993   4.642   5.608  0.1245  0.3873  0.3305
 2109ntf    on516510   4.899   4.690   5.831  1.1640  0.0552  0.3186
 2109ntf    on516511   4.513   4.745   5.586 -0.0927  0.3065 -0.0734
 2109ntf    on516512   4.589   4.767   5.811  0.1927  0.2937 -0.1241
 2109ntf    fn416513   4.575   4.447   5.607  0.2762 -0.2111  0.3379
 2109ntf    fn416514   4.679   4.479   5.793 -0.0219  0.2273 -0.5302
 2109ntf    fn416515   4.470   4.492   5.782 -0.4535  0.0537 -0.1023
 2110ntf    cn116516   6.763   1.991   3.341 -0.0117  0.0775  0.1168
 2110ntf    sn216517   6.685   1.883   3.217  0.3729  0.0008 -0.0594
 2110ntf    nn316518   6.737   1.742   3.262  0.1388 -0.0874 -0.0637
 2110ntf    sn216519   6.865   1.659   3.225 -0.0603 -0.3776 -0.1016
 2110ntf    cn116520   6.889   1.575   3.385  0.1577  0.3111  0.2334
 2110ntf    fn416521   6.761   1.952   3.467  0.2884 -0.1676  0.0472
 2110ntf    fn416522   6.891   2.010   3.311  0.0038 -0.1798  0.0206
 2110ntf    fn416523   6.719   2.116   3.340 -0.2398 -0.0004 -0.5388
 2110ntf    on516524   6.544   1.896   3.241  0.3775  0.1561 -0.1146
 2110ntf    on516525   6.733   1.927   3.088  0.0916 -0.5968 -0.3693
 2110ntf    on516526   6.983   1.737   3.196 -0.3218 -0.0642 -0.3183
 2110ntf    on516527   6.834   1.549   3.137 -0.3603 -0.7233  0.4242
 2110ntf    fn416528   6.984   1.483   3.374  0.0663  0.2376  0.0387
 2110ntf    fn416529   6.931   1.652   3.483  0.8043  0.0730  0.1513
 2110ntf    fn416530   6.784   1.504   3.423 -0.1982  0.8779  0.3181
 2111ntf    cn116531   1.133   6.709   5.238 -0.3393  0.2075  0.1908
 2111ntf    sn216532   1.084   6.556   5.324 -0.2715  0.2025  0.2206
 2111ntf    nn316533   1.168   6.563   5.456  0.0882 -0.7094  0.0488
 2111ntf    sn216534   1.142   6.556   5.611  0.0191 -0.2523  0.0612
 2111ntf    cn116535   1.193   6.721   5.666  0.1924 -0.2918  0.0188
 2111ntf    fn416536   1.264   6.719   5.220 -0.2850 -0.4761  0.1720
 2111ntf    fn416537   1.066   6.723   5.125 -0.0527  0.2440  0.0243
 2111ntf    fn416538   1.103   6.809   5.319  0.1668 -0.0465  0.7027
 2111ntf    on516539   0.942   6.575   5.340 -0.2292  0.3360  0.4365
 2111ntf    on516540   1.126   6.459   5.226 -0.2719  0.5897 -0.1648
 2111ntf    on516541   1.217   6.459   5.686  0.4727  0.2461  0.2562
 2111ntf    on516542   1.000   6.558   5.638  0.0827 -0.6496  0.4403
 2111ntf    fn416543   1.151   6.813   5.580 -0.1855 -0.8026 -0.3530
 2111ntf    fn416544   1.148   6.743   5.788 -0.3282  0.3799 -0.2848
 2111ntf    fn416545   1.324   6.735   5.671  0.1682  0.0260 -0.1584
 2112ntf    cn116546   1.633   1.359   0.007 -0.2134  0.1961  0.0552
 2112ntf    sn216547   1.758   1.380   0.138  0.0489  0.2893 -0.2080
 2112ntf    nn316548   1.849   1.485   0.066 -0.0054  0.1917 -0.4214
 2112ntf    sn216549   1.974   1.564   0.119 -0.1760  0.0845  0.1507
 2112ntf    cn116550   2.099   1.487   0.011 -0.0285 -0.1829  0.5095
 2112ntf    fn416551   1.678   1.304  -0.104  0.0371  0.5975 -0.0419
 2112ntf    fn416552   1.529   1.287   0.046  0.1267 -0.2216  0.2015
 2112ntf    fn416553   1.597   1.480  -0.033 -0.0369  0.2935  0.1872
 2112ntf    on516554   1.687   1.427   0.254 -0.0577  0.0918 -0.1928
 2112ntf    on516555   1.813   1.247   0.148 -0.0244  0.2697 -0.0616
 2112ntf    on516556   2.022   1.532   0.251 -0.1149  0.2190  0.1616
 2112ntf    on516557   1.963   1.703   0.081 -0.4666  0.0453  0.0918
 2112ntf    fn416558   2.077   1.500  -0.119  0.0603 -0.1555  0.4977
 2112ntf    fn416559   2.218   1.540   0.034 -0.0649  0.0777  0.1155
 2112ntf    fn416560   2.112   1.357   0.032  0.0053 -0.2278  0.2126
 2113ntf    cn116561   0.577   4.568   1.334  0.0441  0.1097 -0.0135
 2113ntf    sn216562   0.561   4.391   1.374 -0.0304  0.0797 -0.1726
 2113ntf    nn316563   0.580   4.390   1.530  0.4698 -0.0597 -0.2310
 2113ntf    sn216564   0.506   4.302   1.637  0.1237  0.6262  0.1067
 2113ntf    cn116565   0.624   4.164   1.656 -0.2796  0.1815 -0.5533
 2113ntf    fn416566   0.703   4.601   1.310 -0.0248  0.4892  0.1441
 2113ntf    fn416567   0.505   4.591   1.225  0.2151 -0.1000 -0.1707
 2113ntf    fn416568   0.533   4.647   1.431  0.4251 -0.0576  0.3009
 2113ntf    on516569   0.429   4.360   1.325  0.0027 -0.2608 -0.0464
 2113ntf    on516570   0.672   4.323   1.313 -0.1570  0.0464 -0.3640
 2113ntf    on516571   0.381   4.242   1.598  0.7637 -0.2235 -0.7098
 2113ntf    on516572   0.507   4.354   1.771 -0.2942  0.2555  0.2565
 2113ntf    fn416573   0.566   4.062   1.718  0.1643  0.3495  0.1528
 2113ntf    fn416574   0.683   4.114   1.550  0.3601 -0.3474  0.0452
 2113ntf    fn416575   0.724   4.194   1.737 -0.1504  0.1792 -0.7121
 2114ntf    cn116576   1.847   2.009   2.151 -0.3285 -0.0054  0.2922
 2114ntf    sn216577   1.787   1.863   2.061  0.0214  0.0441 -0.0254
 2114ntf    nn316578   1.780   1.773   2.189  0.0569 -0.4330 -0.3534
 2114ntf    sn216579   1.803   1.623   2.228 -0.0884 -0.3235  0.1592
 2114ntf    cn116580   1.967   1.636   2.305  0.1140  0.0788 -0.3373
 2114ntf    fn416581   1.974   1.993   2.186 -0.2869  0.3034  0.2820
 2114ntf    fn416582   1.846   2.116   2.073 -0.1349 -0.1898  0.0360
 2114ntf    fn416583   1.777   2.035   2.259 -0.1340 -0.3997  0.5168
 2114ntf    on516584   1.656   1.897   2.010  0.2930  0.1048 -0.6926
 2114ntf    on516585   1.891   1.830   1.967 -0.0766 -0.2008 -0.0482
 2114ntf    on516586   1.823   1.535   2.116  0.6801  0.2592 -0.1649
 2114ntf    on516587   1.721   1.577   2.338 -0.0725 -0.1621  0.2381
 2114ntf    fn416588   1.973   1.753   2.367 -0.0299 -0.1935  0.2015
 2114ntf    fn416589   1.990   1.547   2.400  0.0513  0.0403 -0.3583
 2114ntf    fn416590   2.073   1.631   2.226 -0.0681  0.5148 -0.6114
 2115ntf    cn116591   4.009   0.062   3.424 -0.1378 -0.0932  0.0982
 2115ntf    sn216592   3.885   0.082   3.292 -0.0184  0.4209  0.0635
 2115ntf    nn316593   3.866   0.237   3.276 -0.0887  0.4027 -0.0295
 2115ntf    sn216594   3.838   0.306   3.137  0.2546 -0.0766 -0.3383
 2115ntf    cn116595   4.005   0.359   3.087  0.4269  0.0011  0.3053
 2115ntf    fn416596   4.118   0.122   3.379 -0.1519 -0.0044  0.1831
 2115ntf    fn416597   3.966   0.119   3.535 -0.0550 -0.0219  0.0938
 2115ntf    fn416598   4.036  -0.065   3.449 -0.4203 -0.1735 -0.0008
 2115ntf    on516599   3.955   0.024   3.180 -0.1188 -0.0753  0.2596
 2115ntf    on516600   3.767   0.017   3.342  0.2255  0.0369  0.1366
 2115ntf    on516601   3.763   0.427   3.162  0.4114 -0.0555  0.0484
 2115ntf    on516602   3.776   0.221   3.039 -0.0737 -0.7298  0.4223
 2115ntf    fn416603   4.085   0.262   3.044  0.4909  0.2247 -0.0847
 2115ntf    fn416604   3.994   0.436   2.980  0.1470 -0.0778  0.2773
 2115ntf    fn416605   4.077   0.420   3.180  0.5043  0.5736 -0.1273
 2116ntf    cn116606   4.374   1.770   0.216 -0.0679  0.1074  0.1707
 2116ntf    sn216607   4.416   1.911   0.324 -0.0152  0.0905  0.1721
 2116ntf    nn316608   4.512   1.837   0.424 -0.1659 -0.3600 -0.0098
 2116ntf    sn216609   4.668   1.844   0.443 -0.1404  0.0250 -0.3541
 2116ntf    cn116610   4.685   1.921   0.607  0.0237  0.1233 -0.4173
 2116ntf    fn416611   4.296   1.798   0.113  0.3563 -0.3707 -0.2819
 2116ntf    fn416612   4.486   1.720   0.166  0.0982  0.5079  0.1339
 2116ntf    fn416613   4.307   1.679   0.285  0.0455 -0.2222 -0.1511
 2116ntf    on516614   4.486   2.000   0.235 -0.4570  0.4716  0.2034
 2116ntf    on516615   4.294   1.963   0.379  0.1073  0.1393  0.3990
 2116ntf    on516616   4.742   1.933   0.357  0.1428  0.3239  0.1912
 2116ntf    on516617   4.716   1.712   0.472  0.4424  0.2150 -0.4391
 2116ntf    fn416618   4.604   2.024   0.620 -0.3578 -0.1923 -0.2863
 2116ntf    fn416619   4.660   1.841   0.709 -0.1176  0.5333 -0.1283
 2116ntf    fn416620   4.807   1.968   0.631  0.2095 -0.5363 -0.0246
 2117ntf    cn116621   6.400   2.288   0.436 -0.0179 -0.0607  0.0650
 2117ntf    sn216622   6.540   2.291   0.320 -0.0502 -0.1809  0.0229
 2117ntf    nn316623   6.546   2.137   0.288 -0.0935 -0.1651 -0.0610
 2117ntf    sn216624   6.551   2.057   0.154  0.1748 -0.0401 -0.1258
 2117ntf    cn116625   6.680   1.940   0.208  0.3327  0.2264  0.0752
 2117ntf    fn416626   6.434   2.226   0.549  0.2070 -0.1870 -0.0705
 2117ntf    fn416627   6.364   2.412   0.466  0.1333 -0.1070  0.4506
 2117ntf    fn416628   6.292   2.230   0.387 -0.0873  0.1059  0.0184
 2117ntf    on516629   6.491   2.378   0.216 -0.1135 -0.3261 -0.0693
 2117ntf    on516630   6.650   2.347   0.396 -0.2276  0.3404 -0.1052
 2117ntf    on516631   6.594   2.129   0.037 -0.0091 -0.4863 -0.4742
 2117ntf    on516632   6.431   1.977   0.146 -0.2356  0.5794 -0.1554
 2117ntf    fn416633   6.722   1.869   0.104 -0.7777 -0.5426  0.1352
 2117ntf    fn416634   6.783   1.996   0.269  0.0847 -0.1131  0.8187
 2117ntf    fn416635   6.627   1.858   0.297  0.3797  0.1182  0.0033
 2118ntf    cn116636   1.560   3.210   6.378 -0.0469 -0.0095  0.0905
 2118ntf    sn216637   1.587   3.359   6.479  0.1258 -0.0710  0.1348
 2118ntf    nn316638   1.466   3.448   6.431  0.3068 -0.1211 -0.4192
 2118ntf    sn216639   1.351   3.507   6.520  0.1597 -0.2981 -0.4916
 2118ntf    cn116640   1.301   3.639   6.406 -0.0076  0.2005  0.1557
 2118ntf    fn416641   1.441   3.155   6.397 -0.3118  0.3568 -0.4613
 2118ntf    fn416642   1.560   3.237   6.248  0.1776 -0.1927  0.0523
 2118ntf    fn416643   1.645   3.112   6.399  0.0762  0.1329  0.2589
 2118ntf    on516644   1.570   3.307   6.612  0.2047 -0.8589 -0.1575
 2118ntf    on516645   1.716   3.406   6.435 -0.3248  0.6803 -0.4022
 2118ntf    on516646   1.392   3.573   6.642 -0.5317  0.3380 -0.5974
 2118ntf    on516647   1.237   3.420   6.530 -0.3136  0.3329 -0.3488
 2118ntf    fn416648   1.186   3.695   6.442 -0.1291  0.1848 -0.2079
 2118ntf    fn416649   1.384   3.742   6.398  0.5505 -0.1909  0.8217
 2118ntf    fn416650   1.289   3.597   6.281  0.0169 -0.4480  0.3690
 2119ntf    cn116651   5.159   0.284   2.695 -0.6525 -0.1087 -0.0457
 2119ntf    sn216652   5.188   0.133   2.599 -0.0608  0.1316 -0.2561
 2119ntf    nn316653   5.122   0.021   2.688 -0.1551  0.3891 -0.0013
 2119ntf    sn216654   4.976  -0.035   2.681 -0.0055  0.0320 -0.3285
 2119ntf    cn116655   4.991  -0.161   2.551 -0.0764 -0.1661 -0.1450
 2119ntf    fn416656   5.058   0.355   2.647 -0.2629  0.4810 -0.0033
 2119ntf    fn416657   5.159   0.268   2.826 -0.3841 -0.2462 -0.0621
 2119ntf    fn416658   5.258   0.368   2.669 -0.4643 -0.3784 -0.2096
 2119ntf    on516659   5.123   0.159   2.472 -0.2031  0.1055 -0.1893
 2119ntf    on516660   5.332   0.136   2.600 -0.0627  0.3744 -0.5935
 2119ntf    on516661   4.875   0.058   2.637 -0.1753 -0.2479 -0.5340
 2119ntf    on516662   4.944  -0.121   2.792  0.8037  0.0344 -0.0915
 2119ntf    fn416663   5.059  -0.106   2.452  0.3639 -0.4076  0.0232
 2119ntf    fn416664   5.047  -0.276   2.582 -0.5572 -0.2102  0.6030
 2119ntf    fn416665   4.876  -0.189   2.490 -0.3080  0.3729  0.0330
 2120ntf    cn116666   1.883   5.975   5.454  0.0698 -0.0012  0.1206
 2120ntf    sn216667   1.771   6.039   5.327  0.0397 -0.2767  0.0084
 2120ntf    nn316668   1.632   5.969   5.350 -0.0502 -0.1602 -0.1753
 2120ntf    sn216669   1.587   5.831   5.291  0.0094 -0.3879  0.3023
 2120ntf    cn116670   1.527   5.906   5.136 -0.1425 -0.2263  0.4394
 2120ntf    fn416671   1.985   6.059   5.451  0.2696 -0.2327  0.3688
 2120ntf    fn416672   1.826   5.973   5.573  0.1307  0.6563  0.1640
 2120ntf    fn416673   1.931   5.854   5.430 -0.1604 -0.0680 -0.0046
 2120ntf    on516674   1.771   6.178   5.363 -0.3727 -0.2868  0.0476
 2120ntf    on516675   1.837   6.021   5.199 -0.1382  0.5791 -0.2055
 2120ntf    on516676   1.466   5.779   5.348 -0.3489  0.0904 -0.0159
 2120ntf    on516677   1.693   5.739   5.256  0.5653  0.5507 -0.5374
 2120ntf    fn416678   1.627   5.936   5.055 -0.5567 -0.4943 -0.1792
 2120ntf    fn416679   1.457   5.823   5.061 -0.0460  0.1481 -0.0659
 2120ntf    fn416680   1.449   6.011   5.156 -0.3390 -0.2415 -0.2387
 2121ntf    cn116681   6.430   6.736   4.817 -0.0428  0.1632  0.1512
 2121ntf    sn216682   6.262   6.794   4.777  0.0202  0.1868 -0.0780
 2121ntf    nn316683   6.202   6.675   4.694 -0.1947  0.2006  0.0564
 2121ntf    sn216684   6.154   6.534   4.745  0.1536  0.0364 -0.0697
 2121ntf    cn116685   5.975   6.552   4.721  0.1561  0.0248 -0.0985
 2121ntf    fn416686   6.507   6.832   4.867  0.3321 -0.0749  0.0334
 2121ntf    fn416687   6.436   6.640   4.907 -0.3575 -0.1072 -0.1148
 2121ntf    fn416688   6.496   6.694   4.711 -0.1156 -0.0966  0.2080
 2121ntf    on516689   6.192   6.816   4.901  0.2517  0.0596  0.0771
 2121ntf    on516690   6.289   6.914   4.703 -0.0619  0.3687  0.1860
 2121ntf    on516691   6.167   6.509   4.886 -0.0174  0.8620  0.0981
 2121ntf    on516692   6.194   6.426   4.658  0.4502  0.5272 -0.5553
 2121ntf    fn416693   5.908   6.476   4.806  0.0853  0.5484  0.3208
 2121ntf    fn416694   5.939   6.677   4.747  0.3030  0.0453  0.0084
 2121ntf    fn416695   5.930   6.514   4.603  0.4604 -0.0173 -0.2010
 2122ntf    cn116696   0.874   2.766   5.774 -0.1276  0.1588 -0.0504
 2122ntf    sn216697   0.824   2.828   5.937  0.1259  0.0166  0.0810
 2122ntf    nn316698   0.887   2.722   6.034 -0.0620 -0.0453  0.1348
 2122ntf    sn216699   0.820   2.604   6.114 -0.1110 -0.0345  0.1098
 2122ntf    cn116700   0.768   2.696   6.262 -0.0403 -0.1472  0.2055
 2122ntf    fn416701   0.821   2.838   5.676 -0.4563  0.3953  0.3014
 2122ntf    fn416702   1.005   2.772   5.759 -0.0850 -0.2577  0.1366
 2122ntf    fn416703   0.836   2.641   5.754 -0.0007  0.1039  0.0561
 2122ntf    on516704   0.897   2.952   5.952 -0.0200  0.1413 -0.2306
 2122ntf    on516705   0.680   2.836   5.931  0.1271  0.0451  0.0873
 2122ntf    on516706   0.916   2.514   6.173  0.3651 -0.1645 -0.8444
 2122ntf    on516707   0.699   2.548   6.058  0.4932 -0.7293 -0.5179
 2122ntf    fn416708   0.686   2.629   6.341 -0.3076 -0.3786 -0.2624
 2122ntf    fn416709   0.867   2.729   6.343  0.1756  0.0124 -0.1209
 2122ntf    fn416710   0.691   2.801   6.236  0.2286 -0.0142 -0.0644
 2123ntf    cn116711   2.558   5.427   6.742 -0.1982  0.0185 -0.1629
 2123ntf    sn216712   2.410   5.327   6.706 -0.3122  0.1024  0.0739
 2123ntf    nn316713   2.360   5.298   6.852 -0.0598 -0.0158  0.1388
 2123ntf    sn216714   2.390   5.186   6.957  0.2393 -0.1744 -0.1146
 2123ntf    cn116715   2.264   5.067   6.902  0.1862 -0.1034 -0.1464
 2123ntf    fn416716   2.641   5.425   6.639 -0.1127  0.2626 -0.0976
 2123ntf    fn416717   2.522   5.551   6.769  0.4075  0.0958  0.3223
 2123ntf    fn416718   2.628   5.383   6.846  0.2382 -0.1343 -0.5161
 2123ntf    on516719   2.314   5.410   6.639 -0.6791 -0.3433  0.0478
 2123ntf    on516720   2.454   5.207   6.640 -0.0448  0.0202  0.3915
 2123ntf    on516721   2.348   5.225   7.090 -0.6371 -0.0975 -0.4046
 2123ntf    on516722   2.511   5.110   6.940  0.0237 -0.4274 -0.5349
 2123ntf    fn416723   2.164   5.134   6.846 -0.1399 -0.4493  0.0140
 2123ntf    fn416724   2.306   4.979   6.812 -0.2089 -0.5808  0.1310
 2123ntf    fn416725   2.208   5.004   7.004 -0.0694 -0.3125 -0.4146
 2124ntf    cn116726   2.569   5.684   0.128  0.4816 -0.2386 -0.1440
 2124ntf    sn216727   2.598   5.745   0.296  0.0097  0.2884 -0.2487
 2124ntf    nn316728   2.693   5.868   0.278  0.2920  0.0445 -0.4202
 2124ntf    sn216729   2.850   5.866   0.287  0.2618  0.0842  0.1364
 2124ntf    cn116730   2.879   5.880   0.466  0.1277 -0.1833  0.1792
 2124ntf    fn416731   2.462   5.606   0.122  0.0538  0.3069  0.3036
 2124ntf    fn416732   2.542   5.785   0.046 -0.2165 -0.0419  0.3193
 2124ntf    fn416733   2.671   5.620   0.073  0.4779 -0.0052 -0.4293
 2124ntf    on516734   2.466   5.793   0.329 -0.0511 -0.5123  0.7622
 2124ntf    on516735   2.650   5.629   0.365  0.0256  0.4945  0.0889
 2124ntf    on516736   2.909   5.988   0.237  0.2355  0.1023  0.1493
 2124ntf    on516737   2.911   5.741   0.250 -0.2252 -0.0870 -0.0963
 2124ntf    fn416738   2.824   5.782   0.535  0.3604 -0.1904  0.3549
 2124ntf    fn416739   3.009   5.883   0.493  0.2721 -0.0254 -0.5114
 2124ntf    fn416740   2.834   5.990   0.524  0.0426 -0.1452  0.0428
 2125ntf    cn116741   2.311   3.250   4.251  0.1220  0.2267  0.0869
 2125ntf    sn216742   2.445   3.128   4.239 -0.1253 -0.0372 -0.0119
 2125ntf    nn316743   2.443   3.056   4.379  0.3580  0.4897  0.2711
 2125ntf    sn216744   2.552   2.962   4.442 -0.0089 -0.3191 -0.2790
 2125ntf    cn116745   2.625   3.081   4.558  0.0050 -0.2355 -0.3728
 2125ntf    fn416746   2.314   3.341   4.155 -0.1703  0.2892  0.1369
 2125ntf    fn416747   2.194   3.188   4.246  0.1280  0.2281 -0.0736
 2125ntf    fn416748   2.311   3.311   4.369  0.0626  0.3745  0.0103
 2125ntf    on516749   2.398   3.049   4.128  0.2572  0.4848 -0.5491
 2125ntf    on516750   2.556   3.217   4.217  0.2799 -0.4885  0.1751
 2125ntf    on516751   2.661   2.915   4.360  0.1568  0.4683 -0.5205
 2125ntf    on516752   2.490   2.867   4.531  0.4449 -0.1968  0.1722
 2125ntf    fn416753   2.538   3.099   4.656  0.4491  0.1899 -0.0509
 2125ntf    fn416754   2.730   3.029   4.621 -0.3839 -0.4329  0.1216
 2125ntf    fn416755   2.655   3.195   4.498 -0.1423 -0.0516 -0.1023
 2126ntf    cn116756   0.801   3.010   2.281 -0.1328  0.1475 -0.0522
 2126ntf    sn216757   0.850   3.075   2.444  0.0413  0.1820 -0.1179
 2126ntf    nn316758   0.986   3.141   2.404 -0.0447  0.1131 -0.5281
 2126ntf    sn216759   1.134   3.090   2.420 -0.0682  0.2791  0.2350
 2126ntf    cn116760   1.140   2.959   2.295  0.3383  0.1750  0.3627
 2126ntf    fn416761   0.798   3.093   2.178  0.2372 -0.1505 -0.3043
 2126ntf    fn416762   0.873   2.904   2.251  0.1933  0.3388  0.0503
 2126ntf    fn416763   0.676   2.969   2.290  0.1317 -0.5998  0.2328
 2126ntf    on516764   0.748   3.174   2.469  0.1172  0.5129 -1.0781
 2126ntf    on516765   0.864   2.969   2.541 -0.9560 -0.3388 -0.5254
 2126ntf    on516766   1.191   3.034   2.540  0.0121 -0.2000 -0.0267
 2126ntf    on516767   1.214   3.194   2.360 -0.3691  0.3990  0.0418
 2126ntf    fn416768   1.077   2.995   2.184  0.5158 -0.3736  0.0821
 2126ntf    fn416769   1.264   2.927   2.260  0.4169  0.7511  0.1130
 2126ntf    fn416770   1.081   2.848   2.336 -0.1563  0.2866 -0.0295
 2127ntf    cn116771   4.971   5.160   6.650  0.5155 -0.0112 -0.1388
 2127ntf    sn216772   4.908   5.267   6.782  0.1984 -0.4460  0.0624
 2127ntf    nn316773   5.030   5.279   6.880 -0.0910 -0.1984  0.3963
 2127ntf    sn216774   5.054   5.219   7.023  0.3129 -0.4447  0.2266
 2127ntf    cn116775   5.134   5.061   6.982  0.4332 -0.2466 -0.3090
 2127ntf    fn416776   4.871   5.115   6.575  0.0021  0.3893  0.3041
 2127ntf    fn416777   5.044   5.235   6.568  0.6115  0.3315  0.2564
 2127ntf    fn416778   5.048   5.061   6.693  0.0921 -0.2236  0.1343
 2127ntf    on516779   4.894   5.390   6.707 -0.6655 -0.5809 -0.0109
 2127ntf    on516780   4.786   5.204   6.827 -0.1107  0.1122  0.0086
 2127ntf    on516781   4.937   5.181   7.099 -0.0259 -0.2986 -0.2139
 2127ntf    on516782   5.156   5.292   7.094  0.1368  0.0148  0.0135
 2127ntf    fn416783   5.173   4.992   7.088 -0.6025 -0.4014 -0.0170
 2127ntf    fn416784   5.051   4.981   6.918 -0.4696  0.3089  0.1493
 2127ntf    fn416785   5.241   5.070   6.904  0.2631  0.1580 -0.4996
 2128ntf    cn116786   6.183   5.631   1.717 -0.4615 -0.0786  0.0799
 2128ntf    sn216787   6.087   5.479   1.746 -0.0691 -0.3258  0.0913
 2128ntf    nn316788   5.998   5.515   1.870  0.3930  0.8157  0.1127
 2128ntf    sn216789   5.856   5.578   1.889 -0.1877 -0.3976 -0.0604
 2128ntf    cn116790   5.757   5.429   1.923 -0.8506  0.0389 -0.0460
 2128ntf    fn416791   6.256   5.668   1.821 -0.2990  0.0956 -0.0944
 2128ntf    fn416792   6.266   5.624   1.614 -0.4161 -0.1991  0.1256
 2128ntf    fn416793   6.101   5.732   1.688  0.0441  0.2385 -0.2645
 2128ntf    on516794   6.002   5.455   1.631 -0.2824 -0.5991  0.3055
 2128ntf    on516795   6.189   5.383   1.779  0.2862 -0.1408 -0.4577
 2128ntf    on516796   5.804   5.635   1.767 -0.3950 -0.4868 -0.0145
 2128ntf    on516797   5.841   5.658   2.008 -0.2004 -0.5069  0.0115
 2128ntf    fn416798   5.629   5.460   1.930 -0.6572  0.7682  0.3234
 2128ntf    fn416799   5.775   5.346   1.821  0.0401  0.2970 -0.1116
 2128ntf    fn416800   5.801   5.368   2.032  0.3468  0.5385 -0.2261
 2129ntf    cn116801   5.542   0.069   0.243  0.1655 -0.0340 -0.2763
 2129ntf    sn216802   5.583   0.136   0.408 -0.1857 -0.2196 -0.1136
 2129ntf    nn316803   5.737   0.158   0.386 -0.2868 -0.1853 -0.8339
 2129ntf    sn216804   5.861   0.070   0.426 -0.3117  0.1275 -0.0510
 2129ntf    cn116805   5.903   0.167   0.575  0.0692 -0.2642  0.0963
 2129ntf    fn416806   5.621  -0.028   0.200  0.0133 -0.3646  0.1773
 2129ntf    fn416807   5.418   0.025   0.237  0.2167 -0.2582  0.2431
 2129ntf    fn416808   5.550   0.161   0.148  0.0277  0.3583  0.0860
 2129ntf    on516809   5.513   0.261   0.423  0.3803  0.0466  0.3584
 2129ntf    on516810   5.544   0.030   0.498  0.1893 -0.1592  0.1200
 2129ntf    on516811   5.973   0.084   0.337 -0.1731  1.0337  0.2520
 2129ntf    on516812   5.829  -0.057   0.485  0.1949 -0.1970 -0.4707
 2129ntf    fn416813   5.809   0.155   0.667  0.3836  0.1615  0.4711
 2129ntf    fn416814   5.996   0.113   0.653  0.0717 -0.3372  0.0431
 2129ntf    fn416815   5.927   0.295   0.556  0.7192 -0.3895  0.0420
 2130ntf    cn116816   0.177   2.633   2.922  0.3221  0.1621 -0.0327
 2130ntf    sn216817   0.349   2.594   2.879  0.2496  0.0288 -0.2014
 2130ntf    nn316818   0.362   2.472   2.977  0.2004  0.0039 -0.2253
 2130ntf    sn216819   0.431   2.450   3.117 -0.3671  0.0353  0.0599
 2130ntf    cn116820   0.293   2.344   3.170  0.0113 -0.4143  0.1448
 2130ntf    fn416821   0.161   2.697   3.037  0.5107  0.4558 -0.1700
 2130ntf    fn416822   0.126   2.707   2.825  0.1314 -0.4120 -0.3754
 2130ntf    fn416823   0.094   2.530   2.916  0.2515  0.2415 -0.4191
 2130ntf    on516824   0.343   2.554   2.740 -0.6009 -0.6954  0.0388
 2130ntf    on516825   0.424   2.716   2.898  0.5595 -0.1950  0.0322
 2130ntf    on516826   0.422   2.562   3.208  0.5357  0.5727 -0.5002
 2130ntf    on516827   0.550   2.370   3.108 -0.4258 -0.0223 -0.2463
 2130ntf    fn416828   0.261   2.260   3.072 -0.5397 -0.0839  0.0368
 2130ntf    fn416829   0.322   2.272   3.277 -0.1476 -0.6172  0.0541
 2130ntf    fn416830   0.184   2.410   3.203  0.0559 -0.0486 -0.4236
 2131ntf    cn116831   3.524   1.327   3.140 -0.0660 -0.1297  0.2325
 2131ntf    sn216832   3.472   1.367   3.310  0.0269  0.3798  0.1453
 2131ntf    nn316833   3.317   1.376   3.289  0.0179  1.0867  0.4829
 2131ntf    sn216834   3.221   1.490   3.241 -0.6830  0.1127 -0.4811
 2131ntf    cn116835   3.176   1.565   3.400  0.3026 -0.1973 -0.0525
 2131ntf    fn416836   3.510   1.434   3.063  0.6653 -0.1776  0.0247
 2131ntf    fn416837   3.654   1.303   3.136 -0.1137 -0.2709 -0.5453
 2131ntf    fn416838   3.468   1.229   3.073 -0.1201 -0.0288  0.1297
 2131ntf    on516839   3.497   1.247   3.386 -0.1128  0.5139  0.4026
 2131ntf    on516840   3.541   1.489   3.342 -0.1089  0.4278  0.2540
 2131ntf    on516841   3.093   1.438   3.199 -0.7036  0.3422 -0.7106
 2131ntf    on516842   3.284   1.594   3.163  0.2740  0.1447  0.3165
 2131ntf    fn416843   3.282   1.591   3.475  0.0756 -0.2696  0.2959
 2131ntf    fn416844   3.128   1.687   3.382  0.4713 -0.2145 -0.6124
 2131ntf    fn416845   3.096   1.489   3.474  0.2215  0.3177  0.3992
 2132ntf    cn116846   2.116   0.253   4.523  0.2652 -0.0793  0.1842
 2132ntf    sn216847   2.271   0.245   4.618  0.4386 -0.0040 -0.0910
 2132ntf    nn316848   2.376   0.277   4.505  0.4154  0.0057 -0.1105
 2132ntf    sn216849   2.514   0.210   4.475  0.4611  0.1833 -0.2998
 2132ntf    cn116850   2.455   0.076   4.366 -0.6164  0.2140  0.2314
 2132ntf    fn416851   2.068   0.376   4.516  0.1964 -0.1120  0.0798
 2132ntf    fn416852   2.117   0.218   4.395 -0.5238  0.4148  0.0361
 2132ntf    fn416853   2.020   0.181   4.579  0.2615  0.1172  0.4304
 2132ntf    on516854   2.259   0.354   4.712 -0.0975  0.2266 -0.4211
 2132ntf    on516855   2.266   0.112   4.674  0.1098 -0.1359 -0.4289
 2132ntf    on516856   2.579   0.147   4.587 -0.0946 -0.2009 -0.1877
 2132ntf    on516857   2.583   0.296   4.383  0.2016  0.2455 -0.4368
 2132ntf    fn416858   2.421   0.118   4.246  0.3013  0.2488 -0.0280
 2132ntf    fn416859   2.548  -0.017   4.351 -1.1150 -0.3558  0.6274
 2132ntf    fn416860   2.353   0.009   4.416 -0.2484 -0.3496  0.2372
 2133ntf    cn116861   0.774   0.095   6.240  0.0857  0.2661 -0.2122
 2133ntf    sn216862   0.818  -0.064   6.163 -0.2112 -0.0199  0.1954
 2133ntf    nn316863   0.890  -0.132   6.284 -0.1275 -0.2229  0.0313
 2133ntf    sn216864   1.038  -0.126   6.337 -0.1314  0.0211  0.0156
 2133ntf    cn116865   1.011  -0.132   6.517 -0.1205  0.3896  0.0298
 2133ntf    fn416866   0.692   0.167   6.165 -0.3267 -0.6436 -0.6570
 2133ntf    fn416867   0.718   0.072   6.358  0.2812 -0.1934 -0.2043
 2133ntf    fn416868   0.879   0.174   6.254  0.0887  0.2442 -0.1064
 2133ntf    on516869   0.690  -0.128   6.144 -0.0712 -0.1863 -0.2058
 2133ntf    on516870   0.898  -0.028   6.048 -0.3392  0.5765  0.2872
 2133ntf    on516871   1.103   0.001   6.318  0.2284 -0.1291  0.2276
 2133ntf    on516872   1.118  -0.245   6.319 -0.0795 -0.1231  1.1167
 2133ntf    fn416873   0.926  -0.041   6.561 -0.3568  0.3865 -0.4058
 2133ntf    fn416874   0.966  -0.250   6.558  0.3613  0.0816 -0.3169
 2133ntf    fn416875   1.125  -0.112   6.581  0.0382  0.3048 -0.2258
 2134ntf    cn116876   4.070   5.394   2.956  0.1926  0.2073 -0.3200
 2134ntf    sn216877   3.940   5.273   2.918  0.1457  0.1506  0.0226
 2134ntf    nn316878   3.908   5.283   2.765 -0.0768  0.2581  0.0747
 2134ntf    sn216879   3.843   5.399   2.682 -0.2731  0.2432  0.2094
 2134ntf    cn116880   3.773   5.311   2.539 -0.1677  0.0813  0.2573
 2134ntf    fn416881   4.023   5.517   2.943 -0.2627  0.1287  0.5580
 2134ntf    fn416882   4.111   5.382   3.081 -0.3321  0.5264 -0.1198
 2134ntf    fn416883   4.178   5.393   2.879  0.4369  0.1807  0.0225
 2134ntf    on516884   4.000   5.146   2.951  0.5892  0.3967  0.1733
 2134ntf    on516885   3.831   5.311   3.005  0.3218  0.0164  0.3032
 2134ntf    on516886   3.940   5.491   2.629 -0.5209  0.1970 -0.3310
 2134ntf    on516887   3.728   5.463   2.742 -0.1730  0.4928  0.1333
 2134ntf    fn416888   3.734   5.389   2.440 -0.0523  0.3502  0.4221
 2134ntf    fn416889   3.860   5.230   2.481 -0.3701 -0.2445  0.4087
 2134ntf    fn416890   3.672   5.231   2.570 -0.0429 -0.2211 -0.1103
 2135ntf    cn116891   0.950   3.024   1.275 -0.4668 -0.0666 -0.1670
 2135ntf    sn216892   0.811   3.090   1.371 -0.3659 -0.2092  0.0797
 2135ntf    nn316893   0.848   3.058   1.520  0.4842 -0.3573 -0.1588
 2135ntf    sn216894   0.930   3.140   1.626 -0.1839 -0.0898  0.1586
 2135ntf    cn116895   0.799   3.199   1.737 -0.2688  0.3582 -0.1730
 2135ntf    fn416896   0.965   2.896   1.305 -0.1334 -0.0136 -0.1122
 2135ntf    fn416897   0.930   3.034   1.145  0.0997  0.0204 -0.2494
 2135ntf    fn416898   1.063   3.085   1.304 -0.2223 -0.6759  0.1711
 2135ntf    on516899   0.800   3.232   1.344 -0.9289 -0.2974 -0.1676
 2135ntf    on516900   0.703   3.005   1.328  0.0500 -0.7940  0.1829
 2135ntf    on516901   0.990   3.265   1.587 -0.3769 -0.1658 -0.3890
 2135ntf    on516902   1.013   3.059   1.710 -0.1860 -0.2062  0.0490
 2135ntf    fn416903   0.853   3.219   1.857 -0.2057 -0.6606 -0.0162
 2135ntf    fn416904   0.744   3.314   1.701 -0.7699  0.2277  0.1575
 2135ntf    fn416905   0.710   3.103   1.757  0.3417 -0.2208 -0.2053
 2136ntf    cn116906   1.998   6.646   5.625  0.1554 -0.4226  0.1684
 2136ntf    sn216907   1.897   6.797   5.625  0.2149 -0.3825 -0.0668
 2136ntf    nn316908   1.998   6.885   5.706  0.0951 -0.3902  0.0908
 2136ntf    sn216909   2.014   6.883   5.862  0.0111 -0.2678  0.1021
 2136ntf    cn116910   1.945   7.043   5.913 -0.0510 -0.2376 -0.0761
 2136ntf    fn416911   2.011   6.604   5.750  0.1422 -0.1159  0.2730
 2136ntf    fn416912   1.932   6.546   5.568 -0.2948  0.3173 -0.6290
 2136ntf    fn416913   2.120   6.653   5.574  0.0554 -0.2657 -0.0508
 2136ntf    on516914   1.888   6.836   5.486 -0.1052 -0.2005  0.0049
 2136ntf    on516915   1.776   6.757   5.691 -0.2590  0.1539 -0.5999
 2136ntf    on516916   2.153   6.892   5.899  0.0804  0.3987 -0.3203
 2136ntf    on516917   1.931   6.794   5.940 -0.2149 -0.2244 -0.0879
 2136ntf    fn416918   1.897   7.051   6.036  0.2733 -0.0833  0.0430
 2136ntf    fn416919   2.038   7.137   5.906  0.2387 -0.5226 -0.0732
 2136ntf    fn416920   1.849   7.085   5.833  0.0816 -0.5386 -0.3912
 2137ntf    cn116921   3.978   0.950   4.382 -0.3181  0.0890  0.0464
 2137ntf    sn216922   3.866   0.824   4.451 -0.1854 -0.0653 -0.0188
 2137ntf    nn316923   3.942   0.692   4.413  0.2599  0.1115  0.2429
 2137ntf    sn216924   4.060   0.624   4.491  0.4224 -0.0896 -0.1749
 2137ntf    cn116925   3.959   0.514   4.594 -0.1419  0.3459 -0.2591
 2137ntf    fn416926   3.979   0.952   4.250 -0.7843  0.4973  0.0459
 2137ntf    fn416927   3.929   1.067   4.419  0.2984  0.4578 -0.2787
 2137ntf    fn416928   4.101   0.936   4.430 -0.2484  0.6387  0.0403
 2137ntf    on516929   3.845   0.860   4.589  0.2560  0.3492 -0.0552
 2137ntf    on516930   3.746   0.837   4.373 -0.3682 -0.4885  0.1914
 2137ntf    on516931   4.124   0.701   4.596 -0.5358  0.1699  0.2248
 2137ntf    on516932   4.142   0.527   4.423  0.7128 -0.0433  0.1093
 2137ntf    fn416933   3.926   0.400   4.536 -0.1124  0.1066  0.1909
 2137ntf    fn416934   4.021   0.482   4.706 -0.9365  0.0489  0.1053
 2137ntf    fn416935   3.848   0.569   4.639 -0.2788 -0.2323  0.1235
 2138ntf    cn116936   0.873   1.844   5.236 -0.2835  0.1488 -0.4729
 2138ntf    sn216937   0.892   1.670   5.286 -0.1318  0.2929 -0.0219
 2138ntf    nn316938   0.885   1.582   5.156  0.6007 -0.2368  0.2901
 2138ntf    sn216939   0.965   1.455   5.113  0.5136 -0.2547  0.1795
 2138ntf    cn116940   1.075   1.536   4.993  0.0885  0.1371  0.0556
 2138ntf    fn416941   0.847   1.925   5.338  0.1777  0.1641 -0.3683
 2138ntf    fn416942   0.991   1.881   5.190 -0.0584 -0.2102 -0.1869
 2138ntf    fn416943   0.793   1.860   5.132 -0.3469  0.4231 -0.3844
 2138ntf    on516944   1.023   1.664   5.346 -0.2030  0.4534  0.1528
 2138ntf    on516945   0.785   1.654   5.381  0.0965 -0.3043  0.1396
 2138ntf    on516946   0.886   1.361   5.037  0.0539  0.2043  0.0906
 2138ntf    on516947   1.051   1.404   5.217 -0.0940 -0.4644  0.5836
 2138ntf    fn416948   1.152   1.451   4.927 -0.1441 -0.4365  0.5196
 2138ntf    fn416949   1.011   1.604   4.899 -0.1699 -0.2617 -0.0593
 2138ntf    fn416950   1.156   1.623   5.052  1.0732 -0.6213 -0.1591
 2139ntf    cn116951   4.301   0.829   2.865  0.2842 -0.2219 -0.1019
 2139ntf    sn216952   4.126   0.827   2.915  0.1875 -0.0093 -0.4348
 2139ntf    nn316953   4.062   0.962   2.864 -0.5882 -0.1196  0.2245
 2139ntf    sn216954   3.968   0.982   2.741 -0.5622  0.0013  0.2244
 2139ntf    cn116955   3.799   0.992   2.807 -0.4294  0.0158  0.5611
 2139ntf    fn416956   4.369   0.721   2.898  0.3655 -0.0695  0.2373
 2139ntf    fn416957   4.307   0.849   2.735  0.7137  0.0806 -0.0367
 2139ntf    fn416958   4.361   0.933   2.921  0.5876 -0.5489  0.1880
 2139ntf    on516959   4.076   0.708   2.851 -0.0348  0.3057 -0.8589
 2139ntf    on516960   4.136   0.822   3.058 -0.1218  0.2179 -0.4039
 2139ntf    on516961   3.960   0.870   2.651 -0.5898  0.1919 -0.0118
 2139ntf    on516962   3.995   1.111   2.682 -0.4255 -0.1575 -0.0606
 2139ntf    fn416963   3.746   0.876   2.845  0.0271 -0.1829  0.6006
 2139ntf    fn416964   3.795   1.083   2.903 -0.0610  0.6861 -0.0545
 2139ntf    fn416965   3.707   1.032   2.720 -0.2990 -0.1211  0.3586
 2140ntf    cn116966   0.661   4.958   3.220  0.0813 -0.1511  0.0053
 2140ntf    sn216967   0.715   5.131   3.215 -0.0620 -0.1135 -0.2152
 2140ntf    nn316968   0.800   5.136   3.083  0.3567  0.2214  0.0652
 2140ntf    sn216969   0.855   5.261   3.006  0.1364  0.3145  0.0601
 2140ntf    cn116970   1.029   5.210   3.003 -0.0021 -0.1466 -0.1009
 2140ntf    fn416971   0.603   4.934   3.337  0.2381  0.0148  0.1188
 2140ntf    fn416972   0.569   4.935   3.129  0.2220 -0.0921 -0.1512
 2140ntf    fn416973   0.756   4.866   3.215  0.4345  0.1987  0.1818
 2140ntf    on516974   0.594   5.207   3.233  0.0223 -0.0413  0.0527
 2140ntf    on516975   0.808   5.142   3.325  0.4501 -1.0162 -0.5497
 2140ntf    on516976   0.848   5.384   3.081 -1.1414  0.2496  0.0768
 2140ntf    on516977   0.831   5.268   2.864  0.3796 -0.5842 -0.0256
 2140ntf    fn416978   1.045   5.092   2.946  0.2096 -0.3533  0.3744
 2140ntf    fn416979   1.100   5.286   2.922  0.5072  0.0953  0.5612
 2140ntf    fn416980   1.093   5.207   3.119 -0.1829 -0.2014 -0.0009
 2141ntf    cn116981   6.222   2.036   1.989 -0.1014 -0.2901 -0.2720
 2141ntf    sn216982   6.080   1.998   2.096  0.1172 -0.1556  0.0682
 2141ntf    nn316983   6.123   1.862   2.163  0.3425 -0.2317 -0.2280
 2141ntf    sn216984   6.030   1.744   2.208  0.0545 -0.0013 -0.2124
 2141ntf    cn116985   6.092   1.608   2.105 -0.2681 -0.1125 -0.2617
 2141ntf    fn416986   6.328   2.082   2.054 -0.4557  0.1573 -0.0054
 2141ntf    fn416987   6.271   1.940   1.912  0.4391  0.0928 -0.4153
 2141ntf    fn416988   6.175   2.127   1.906 -0.6247 -0.2418  0.0687
 2141ntf    on516989   6.083   2.100   2.198 -0.1119 -0.2491  0.1690
 2141ntf    on516990   5.966   1.997   2.008 -0.2619  0.6969  0.5391
 2141ntf    on516991   5.891   1.760   2.174  0.1921  0.7501 -0.4444
 2141ntf    on516992   6.051   1.701   2.344 -0.8783 -0.0471 -0.0721
 2141ntf    fn416993   6.170   1.527   2.174 -0.3081  0.2619  0.2256
 2141ntf    fn416994   6.000   1.525   2.058 -0.2176 -0.3813  0.1047
 2141ntf    fn416995   6.173   1.645   2.007 -0.2120  0.7674  0.1155
 2142ntf    cn116996   0.099   3.322   5.781 -0.1648  0.2336  0.5762
 2142ntf    sn216997  -0.049   3.335   5.886 -0.5433 -0.0925  0.0876
 2142ntf    nn316998  -0.049   3.193   5.954  0.0414  0.0104  0.3124
 2142ntf    sn216999  -0.114   3.150   6.090 -0.0584  0.4114  0.3941
 2142ntf    cn117000   0.039   3.075   6.155 -0.1094  0.2979  0.3834
 2142ntf    fn417001   0.100   3.212   5.708 -0.0046  0.5376  0.1160
 2142ntf    fn417002   0.122   3.427   5.705  0.1797 -0.1415  0.1572
 2142ntf    fn417003   0.207   3.308   5.856 -0.0232  0.0337  0.3359
 2142ntf    on517004  -0.007   3.445   5.970 -0.2202 -0.0326 -0.1479
 2142ntf    on517005  -0.162   3.351   5.798 -0.0657  0.3935 -0.4461
 2142ntf    on517006  -0.197   3.032   6.083  0.3400  0.1440  0.1304
 2142ntf    on517007  -0.150   3.252   6.186 -0.2295  0.2394  0.5137
 2142ntf    fn417008   0.013   3.002   6.263  0.3216  0.0305  0.3085
 2142ntf    fn417009   0.090   2.981   6.077 -0.6411  0.5125 -0.2263
 2142ntf    fn417010   0.127   3.168   6.188  0.3107  0.2834 -0.6662
 2143ntf    cn117011   6.527   3.711   1.880  0.0460  0.1004  0.1121
 2143ntf    sn217012   6.696   3.715   1.813 -0.0347  0.0366 -0.0971
 2143ntf    nn317013   6.782   3.745   1.941 -0.7027 -0.1393  0.3965
 2143ntf    sn217014   6.865   3.648   2.032  0.0029  0.1192  0.0336
 2143ntf    cn117015   6.830   3.735   2.187 -0.0167 -0.2300  0.2262
 2143ntf    fn417016   6.516   3.626   1.981 -0.2080 -0.6686 -0.5452
 2143ntf    fn417017   6.496   3.827   1.935  0.3902  0.3866 -0.2905
 2143ntf    fn417018   6.444   3.677   1.782  0.0176 -0.0385  0.1842
 2143ntf    on517019   6.717   3.590   1.746 -0.1244  0.1235 -0.2905
 2143ntf    on517020   6.688   3.827   1.722 -0.3125 -0.1261 -0.2732
 2143ntf    on517021   7.006   3.675   2.019 -0.1173  0.7070 -0.0616
 2143ntf    on517022   6.817   3.513   2.051 -0.1715  0.0910 -0.5837
 2143ntf    fn417023   6.699   3.739   2.207 -0.0653  0.2714 -0.1614
 2143ntf    fn417024   6.891   3.672   2.286  0.2925 -0.4095 -0.0785
 2143ntf    fn417025   6.879   3.858   2.191 -0.2358 -0.1488  0.5032
 2144ntf    cn117026   0.106   4.665   6.502 -0.3286 -0.1552 -0.1478
 2144ntf    sn217027   0.238   4.744   6.598 -0.5313  0.1027 -0.0783
 2144ntf    nn317028   0.336   4.622   6.579 -0.9078 -0.1752 -0.2481
 2144ntf    sn217029   0.389   4.507   6.672 -0.2057  0.3871  0.0508
 2144ntf    cn117030   0.308   4.361   6.601  0.1080  0.1177  0.2448
 2144ntf    fn417031   0.158   4.598   6.401  0.0613 -0.5336  0.3012
 2144ntf    fn417032   0.044   4.578   6.581  0.2277  0.1297  0.6127
 2144ntf    fn417033   0.005   4.735   6.452  0.0157  0.3405 -0.1607
 2144ntf    on517034   0.273   4.858   6.517 -0.2294  0.6162  0.7557
 2144ntf    on517035   0.179   4.775   6.726  0.4664 -0.6221  0.5725
 2144ntf    on517036   0.352   4.513   6.811  0.3240  0.3247  0.2003
 2144ntf    on517037   0.528   4.476   6.649 -0.3760 -0.2097 -0.1762
 2144ntf    fn417038   0.319   4.358   6.469 -0.2695  0.4155  0.2055
 2144ntf    fn417039   0.360   4.245   6.638 -0.2432 -0.0861  0.1071
 2144ntf    fn417040   0.181   4.354   6.635  0.2344 -0.1674  0.6633
 2145ntf    cn117041   6.522   6.202   6.467  0.4625 -0.0414  0.1955
 2145ntf    sn217042   6.481   6.025   6.483 -0.1372  0.0636 -0.1556
 2145ntf    nn317043   6.536   5.998   6.627 -0.2222 -0.4251 -0.2131
 2145ntf    sn217044   6.674   5.931   6.660 -0.1329 -0.1125  0.0572
 2145ntf    cn117045   6.671   5.947   6.841  0.0342  0.0399  0.0455
 2145ntf    fn417046   6.490   6.242   6.345  0.5619 -0.3063  0.0826
 2145ntf    fn417047   6.458   6.286   6.547  0.2981 -0.1015  0.1286
 2145ntf    fn417048   6.649   6.228   6.493  0.4590  0.0739  0.0944
 2145ntf    on517049   6.340   6.003   6.461 -0.0519 -0.0862 -0.5791
 2145ntf    on517050   6.557   5.964   6.377 -0.6921  0.0399 -0.5447
 2145ntf    on517051   6.787   6.011   6.622  0.1538 -0.7831 -0.5288
 2145ntf    on517052   6.683   5.789   6.634  0.6417 -0.1233  0.3605
 2145ntf    fn417053   6.623   6.064   6.881 -0.2977 -0.0774 -0.0141
 2145ntf    fn417054   6.592   5.855   6.894  0.1023  0.0261  0.1247
 2145ntf    fn417055   6.792   5.929   6.892  0.0667 -0.2171 -0.1242
 2146ntf    cn117056   5.418   1.419   0.480 -0.1213  0.0296  0.1186
 2146ntf    sn217057   5.562   1.312   0.452  0.0127  0.2632 -0.0988
 2146ntf    nn317058   5.615   1.311   0.600  0.5963 -0.9117 -0.3028
 2146ntf    sn217059   5.714   1.218   0.679  0.7629 -0.0868  0.4771
 2146ntf    cn117060   5.848   1.336   0.712  0.3919  0.4475  0.0829
 2146ntf    fn417061   5.358   1.371   0.588 -0.1687 -0.2831 -0.0458
 2146ntf    fn417062   5.452   1.544   0.506 -0.2969  0.0902  0.0613
 2146ntf    fn417063   5.321   1.417   0.390 -0.2505 -0.0067  0.2599
 2146ntf    on517064   5.500   1.187   0.416  0.0687  0.1350  0.2450
 2146ntf    on517065   5.634   1.387   0.353 -0.1665  1.1799  0.4505
 2146ntf    on517066   5.780   1.113   0.605 -0.5615 -0.7221  0.1560
 2146ntf    on517067   5.666   1.190   0.812 -0.3667  0.2589  0.1497
 2146ntf    fn417068   5.930   1.280   0.799 -0.0587 -0.2546  0.0612
 2146ntf    fn417069   5.910   1.380   0.604 -0.2458  0.4975 -0.2676
 2146ntf    fn417070   5.792   1.445   0.762 -0.4862 -0.0365  0.1646
 2147ntf    cn117071   2.284   5.268   5.154  0.4626  0.1607 -0.1474
 2147ntf    sn217072   2.146   5.244   5.270  0.3966  0.8039 -0.0920
 2147ntf    nn317073   2.023   5.226   5.174  0.0169 -0.6745  0.6371
 2147ntf    sn217074   1.963   5.104   5.095  0.1161 -0.2591 -0.0941
 2147ntf    cn117075   1.830   5.067   5.212  0.1946  0.0884  0.1087
 2147ntf    fn417076   2.403   5.253   5.211  0.0352 -0.5243  0.5872
 2147ntf    fn417077   2.287   5.175   5.060 -0.0343 -0.0897  0.0799
 2147ntf    fn417078   2.282   5.383   5.089  0.4756  0.2704  0.0463
 2147ntf    on517079   2.184   5.125   5.342 -0.1609  0.8284  0.2452
 2147ntf    on517080   2.139   5.367   5.345 -0.1619  0.6612  0.0985
 2147ntf    on517081   2.039   4.982   5.097 -0.3380 -0.5355  0.3932
 2147ntf    on517082   1.889   5.120   4.973  0.2875 -0.0251 -0.1694
 2147ntf    fn417083   1.754   5.170   5.244 -0.3832 -0.2021 -0.3153
 2147ntf    fn417084   1.755   4.970   5.161  0.3102  0.0037  0.0999
 2147ntf    fn417085   1.876   5.012   5.323 -0.6171 -0.2519  0.2892
 2148ntf    cn117086   6.780   6.713   4.417  0.4265  0.2131  0.4571
 2148ntf    sn217087   6.856   6.876   4.392 -0.0187  0.2815 -0.4779
 2148ntf    nn317088   6.759   6.950   4.491  0.5167  0.3355  0.0032
 2148ntf    sn217089   6.737   7.101   4.531 -0.0759  0.1571  0.3662
 2148ntf    cn117090   6.774   7.099   4.709  0.2468 -0.4602  0.2972
 2148ntf    fn417091   6.864   6.612   4.395  0.1366 -0.0286  0.4510
 2148ntf    fn417092   6.727   6.696   4.536  0.5118 -0.1263  0.4483
 2148ntf    fn417093   6.682   6.701   4.329  0.7242 -1.1186  0.2711
 2148ntf    on517094   6.989   6.853   4.440 -0.2263 -0.3401 -0.1973
 2148ntf    on517095   6.824   6.893   4.252 -0.2911  0.1767 -0.4307
 2148ntf    on517096   6.597   7.133   4.519 -0.1053 -0.1797 -0.2624
 2148ntf    on517097   6.828   7.189   4.463  0.2290 -0.1479  0.3732
 2148ntf    fn417098   6.778   7.223   4.754 -0.0438 -0.2765 -0.1736
 2148ntf    fn417099   6.681   7.029   4.772  0.1939 -0.9718 -0.3354
 2148ntf    fn417100   6.891   7.044   4.735  0.4498 -0.2637 -0.1915
 2149ntf    cn117101   0.390   4.707   4.337 -0.2166  0.1500 -0.2248
 2149ntf    sn217102   0.248   4.596   4.363 -0.0032 -0.0403  0.1240
 2149ntf    nn317103   0.165   4.676   4.469  0.0402 -0.2811  0.3421
 2149ntf    sn217104   0.046   4.776   4.442  0.0768 -0.3325 -0.0069
 2149ntf    cn117105  -0.092   4.658   4.423 -0.3550  0.1320  0.2243
 2149ntf    fn417106   0.489   4.657   4.265  0.0920  0.0014  0.2984
 2149ntf    fn417107   0.352   4.815   4.270 -0.4378  0.2446  0.0503
 2149ntf    fn417108   0.441   4.751   4.451  0.0374 -0.2368 -0.1894
 2149ntf    on517109   0.190   4.566   4.235 -0.1606  0.7776 -0.0027
 2149ntf    on517110   0.332   4.498   4.428  0.5223  0.2571 -0.0996
 2149ntf    on517111   0.061   4.840   4.313 -0.1896  0.1567  0.2028
 2149ntf    on517112   0.009   4.863   4.550  0.3863  0.3713 -0.4631
 2149ntf    fn417113  -0.092   4.555   4.507 -0.5149 -0.2188 -0.2020
 2149ntf    fn417114  -0.210   4.715   4.440 -0.2107  0.3880  0.3749
 2149ntf    fn417115  -0.097   4.610   4.300 -0.1089  0.5158  0.0644
 2150ntf    cn117116   2.919   2.324   4.871  0.1618 -0.2489 -0.1514
 2150ntf    sn217117   2.919   2.505   4.855 -0.3986 -0.2606 -0.2923
 2150ntf    nn317118   2.989   2.521   4.715  0.4739 -0.4071  0.1198
 2150ntf    sn217119   3.059   2.652   4.665 -0.1378 -0.0340  0.2247
 2150ntf    cn117120   3.235   2.608   4.684 -0.0823  0.0557 -0.0783
 2150ntf    fn417121   2.858   2.265   4.770 -0.1905 -0.2290  0.0488
 2150ntf    fn417122   3.042   2.274   4.868  0.0459 -0.5402 -0.0213
 2150ntf    fn417123   2.850   2.284   4.976 -0.3254  0.8174 -0.0499
 2150ntf    on517124   2.778   2.532   4.866 -0.3190 -0.2354  0.7402
 2150ntf    on517125   3.002   2.547   4.965 -0.6195  0.0195 -0.2317
 2150ntf    on517126   3.033   2.773   4.739 -0.4657  0.4223 -0.6159
 2150ntf    on517127   3.046   2.673   4.523 -0.3073  1.0092  0.3806
 2150ntf    fn417128   3.309   2.652   4.584 -0.1473  0.1922 -0.0672
 2150ntf    fn417129   3.283   2.658   4.796 -0.0879 -0.4999  0.1747
 2150ntf    fn417130   3.257   2.478   4.694  0.1508  0.0809 -0.2459
 2151ntf    cn117131   0.713   5.261   0.086  0.2744  0.0137  0.0189
 2151ntf    sn217132   0.878   5.260   0.011  0.3212 -0.0470  0.1230
 2151ntf    nn317133   0.929   5.121   0.065  0.3200 -0.2633 -0.4236
 2151ntf    sn217134   1.000   5.104   0.204  0.2924  0.2907 -0.3367
 2151ntf    cn117135   1.173   5.114   0.148  0.2012  0.2072 -0.6362
 2151ntf    fn417136   0.647   5.150   0.059 -0.0412  0.2224 -0.0755
 2151ntf    fn417137   0.700   5.282   0.216 -0.0412 -0.2341  0.0288
 2151ntf    fn417138   0.626   5.343   0.029  0.0759 -0.0303  0.2535
 2151ntf    on517139   0.857   5.259  -0.131 -0.2642  0.1834  0.2076
 2151ntf    on517140   0.930   5.380   0.071  0.6604 -0.1286 -0.0050
 2151ntf    on517141   0.985   4.971   0.257  0.0459  0.7677  0.8143
 2151ntf    on517142   0.992   5.206   0.305 -0.1617 -0.3693  0.3059
 2151ntf    fn417143   1.183   5.225   0.077 -0.2720  0.6543 -0.0228
 2151ntf    fn417144   1.259   5.125   0.248 -0.6439  0.0550  0.1226
 2151ntf    fn417145   1.198   5.007   0.075 -0.4223 -0.5777  0.2698
 2152ntf    cn117146   1.362   6.725   4.070  0.1038  0.1089 -0.0896
 2152ntf    sn217147   1.523   6.721   3.986  0.0255 -0.3830 -0.2212
 2152ntf    nn317148   1.580   6.863   4.023 -0.6116 -0.1038 -0.2847
 2152ntf    sn217149   1.572   6.983   3.923  0.1306  0.0700 -0.1407
 2152ntf    cn117150   1.586   7.131   4.028 -0.3634  0.0329 -0.0208
 2152ntf    fn417151   1.298   6.610   4.054 -0.2879  0.3515 -0.2923
 2152ntf    fn417152   1.368   6.732   4.202 -0.0879 -0.5015 -0.0421
 2152ntf    fn417153   1.276   6.818   4.030  0.0341 -0.0133 -0.2264
 2152ntf    on517154   1.589   6.610   4.049 -0.3631 -0.4750  0.0245
 2152ntf    on517155   1.484   6.705   3.848 -0.1361 -0.0508 -0.2165
 2152ntf    on517156   1.440   7.010   3.872  0.2383 -0.0033 -0.4660
 2152ntf    on517157   1.680   6.992   3.827 -0.0674  0.5119 -0.3244
 2152ntf    fn417158   1.672   7.114   4.127 -0.5132  0.1749  0.1343
 2152ntf    fn417159   1.628   7.236   3.961  0.4407  0.0866  0.5571
 2152ntf    fn417160   1.470   7.156   4.085 -0.4086 -0.0358 -0.0817
 2153ntf    cn117161   0.178   0.862   0.080 -0.0481  0.1779  0.3027
 2153ntf    sn217162   0.101   0.741   0.192  0.1428 -0.2657 -0.0432
 2153ntf    nn317163   0.210   0.628   0.176  0.5204  0.1137 -0.1812
 2153ntf    sn217164   0.206   0.515   0.067 -0.2898 -0.1815  0.1421
 2153ntf    cn117165   0.136   0.373   0.155 -0.2462 -0.0567  0.3785
 2153ntf    fn417166   0.303   0.895   0.110  0.0769 -0.1829  0.1939
 2153ntf    fn417167   0.181   0.808  -0.041  0.3366 -0.4199  0.5731
 2153ntf    fn417168   0.112   0.975   0.066 -0.7610 -0.3041 -0.3181
 2153ntf    on517169   0.094   0.798   0.324 -0.9128  0.2980 -0.3350
 2153ntf    on517170  -0.029   0.713   0.137  0.1204  0.0470 -0.1486
 2153ntf    on517171   0.335   0.466   0.024 -0.0985  0.3987  0.0358
 2153ntf    on517172   0.117   0.538  -0.044 -0.6130 -0.1864  0.3986
 2153ntf    fn417173   0.230   0.328   0.236  0.1973  0.4920  0.1724
 2153ntf    fn417174   0.034   0.420   0.226 -0.6362 -0.6467  0.2235
 2153ntf    fn417175   0.098   0.267   0.085  0.3266 -0.2028  0.2862
 2154ntf    cn117176   2.270   3.953   3.935 -0.6043 -0.3742 -0.0161
 2154ntf    sn217177   2.435   3.931   3.861 -0.6411  0.1744 -0.2702
 2154ntf    nn317178   2.422   4.029   3.739 -0.3464 -0.0523 -0.4860
 2154ntf    sn217179   2.514   4.153   3.712 -0.0492 -0.1627  0.0118
 2154ntf    cn117180   2.650   4.073   3.622  0.1797  0.0197  0.1910
 2154ntf    fn417181   2.272   3.902   4.056  0.5542 -0.1992  0.0544
 2154ntf    fn417182   2.232   4.077   3.960 -0.0249 -0.1170 -0.3744
 2154ntf    fn417183   2.177   3.891   3.864 -0.5965  0.2784 -0.6178
 2154ntf    on517184   2.512   3.974   3.975 -0.1474  0.7864 -0.8326
 2154ntf    on517185   2.432   3.792   3.824  0.3963  0.0214  0.2009
 2154ntf    on517186   2.581   4.211   3.826 -0.2907 -0.3570  0.2527
 2154ntf    on517187   2.448   4.240   3.618  0.4107  0.1029 -0.0700
 2154ntf    fn417188   2.741   4.166   3.597  0.0845 -0.0183 -0.3063
 2154ntf    fn417189   2.708   3.974   3.689  0.5786  0.6486  0.7842
 2154ntf    fn417190   2.613   4.032   3.502 -0.1099  0.4429  0.1351
 2155ntf    cn117191   6.406   3.022   0.241 -0.1288 -0.1923 -0.3080
 2155ntf    sn217192   6.428   2.958   0.073  0.2999 -0.2382 -0.2348
 2155ntf    nn317193   6.280   2.973   0.022  0.2045  0.1767  0.1551
 2155ntf    sn217194   6.215   2.883  -0.090  0.2759 -0.0635  0.3050
 2155ntf    cn117195   6.166   3.012  -0.209 -0.0356 -0.3381  0.1356
 2155ntf    fn417196   6.513   3.002   0.317 -0.1867  0.4797 -0.0443
 2155ntf    fn417197   6.368   3.148   0.257 -0.4585 -0.3783  0.4591
 2155ntf    fn417198   6.309   2.950   0.296  0.0113 -0.0324  0.1513
 2155ntf    on517199   6.522   3.050   0.014  0.2842 -0.1573 -0.1336
 2155ntf    on517200   6.474   2.823   0.094  0.3881 -0.1427  0.1949
 2155ntf    on517201   6.085   2.834  -0.052  0.2990 -0.7606 -0.4963
 2155ntf    on517202   6.306   2.794  -0.157 -0.4061 -0.7655  0.3026
 2155ntf    fn417203   6.088   2.964  -0.304 -0.0026 -0.8181  0.3494
 2155ntf    fn417204   6.094   3.105  -0.149  0.4138  0.0397  0.0923
 2155ntf    fn417205   6.272   3.072  -0.261 -0.0418 -0.2420  0.2338
 2156ntf    cn117206   2.980   0.863   6.415  0.2122  0.1719 -0.1400
 2156ntf    sn217207   2.997   1.043   6.393  0.2219  0.2309  0.3358
 2156ntf    nn317208   3.127   1.065   6.309  0.2591 -0.0134  0.3296
 2156ntf    sn217209   3.276   1.040   6.353  0.2185 -0.1388  0.3963
 2156ntf    cn117210   3.352   1.195   6.296  0.3232 -0.1203  0.5856
 2156ntf    fn417211   2.949   0.807   6.299  0.0302  0.3010 -0.1542
 2156ntf    fn417212   3.091   0.804   6.456 -0.1643 -0.5907 -0.1921
 2156ntf    fn417213   2.882   0.829   6.498  0.6578 -0.7062  0.0430
 2156ntf    on517214   2.888   1.077   6.305  0.0775  0.0863  0.4581
 2156ntf    on517215   2.999   1.105   6.524  0.0312 -0.0888  0.4920
 2156ntf    on517216   3.345   0.940   6.276  0.4422  0.4182 -0.1293
 2156ntf    on517217   3.300   1.045   6.495 -0.4661  0.5432  0.4893
 2156ntf    fn417218   3.267   1.292   6.326  0.4898  0.1231  0.2740
 2156ntf    fn417219   3.471   1.225   6.345  0.6659  0.0282 -0.3378
 2156ntf    fn417220   3.358   1.187   6.164  0.6356 -1.3663  0.6614
 2157ntf    cn117221   4.567   4.050   3.457  0.1405 -0.1079  0.2328
 2157ntf    sn217222   4.467   4.000   3.600  0.0883 -0.0811  0.2053
 2157ntf    nn317223   4.405   4.138   3.643 -0.2350 -0.0807 -0.2557
 2157ntf    sn217224   4.255   4.164   3.681 -0.1366  0.1181 -0.0028
 2157ntf    cn117225   4.226   4.053   3.822  0.4604  0.1959  0.1821
 2157ntf    fn417226   4.495   4.060   3.346 -0.0049 -0.4693  0.2936
 2157ntf    fn417227   4.617   4.172   3.466 -0.2193  0.0051  0.6915
 2157ntf    fn417228   4.668   3.970   3.428  0.4774  0.4887 -0.2661
 2157ntf    on517229   4.381   3.893   3.557  0.7376 -0.6449  0.2995
 2157ntf    on517230   4.578   3.961   3.684  1.0585  0.0901 -0.9615
 2157ntf    on517231   4.157   4.133   3.579 -0.1900 -0.2880  0.1712
 2157ntf    on517232   4.233   4.296   3.736 -0.3034 -0.0304  0.2848
 2157ntf    fn417233   4.238   3.925   3.789 -0.0715  0.2443 -0.1965
 2157ntf    fn417234   4.311   4.068   3.922  0.6849  0.0531  0.0149
 2157ntf    fn417235   4.110   4.063   3.883  0.2865 -0.0129 -0.1141
 2158ntf    cn117236   4.040   4.866   5.275 -0.3170  0.0859  0.0910
 2158ntf    sn217237   4.024   5.009   5.165 -0.1277  0.0748  0.0488
 2158ntf    nn317238   3.884   5.062   5.211 -0.2199 -0.3167  0.2173
 2158ntf    sn217239   3.852   5.187   5.302 -0.4985  0.0670 -0.4038
 2158ntf    cn117240   3.845   5.313   5.171  0.0318  0.0172 -0.4840
 2158ntf    fn417241   4.071   4.884   5.402 -0.0832 -0.3074  0.0923
 2158ntf    fn417242   3.929   4.793   5.276 -0.1832 -0.1174  0.2987
 2158ntf    fn417243   4.137   4.787   5.233 -0.6431  0.0346 -0.5757
 2158ntf    on517244   4.133   5.102   5.181 -0.1335  0.1250 -0.1902
 2158ntf    on517245   4.010   4.944   5.037 -0.0555  0.4254 -0.1414
 2158ntf    on517246   3.941   5.248   5.397  0.1063  0.0574 -0.9546
 2158ntf    on517247   3.713   5.183   5.340 -0.3489 -0.1458  0.1162
 2158ntf    fn417248   3.734   5.303   5.100 -0.0862 -0.1922 -0.2716
 2158ntf    fn417249   3.834   5.433   5.225  0.5722  0.0332 -0.4045
 2158ntf    fn417250   3.939   5.308   5.078  0.3364 -0.0649 -0.1730
 2159ntf    cn117251   1.376   1.070   2.553 -0.2297 -0.0219 -0.0706
 2159ntf    sn217252   1.203   1.051   2.500 -0.2864 -0.3428  0.2238
 2159ntf    nn317253   1.213   1.029   2.345 -0.0143 -0.2998  0.2352
 2159ntf    sn217254   1.213   0.897   2.259  0.2604 -0.0882 -0.0973
 2159ntf    cn117255   1.034   0.890   2.228  0.2674  0.2583 -0.2167
 2159ntf    fn417256   1.441   1.172   2.499 -0.0970 -0.1507 -0.1562
 2159ntf    fn417257   1.378   1.093   2.683 -0.9448 -0.4608  0.0219
 2159ntf    fn417258   1.448   0.960   2.532 -0.3906 -0.2046  0.3370
 2159ntf    on517259   1.144   0.947   2.580  0.1018 -0.5957  0.1848
 2159ntf    on517260   1.158   1.186   2.523 -0.4925 -0.3671 -0.0415
 2159ntf    on517261   1.247   0.778   2.334  0.4013  0.2080  0.3176
 2159ntf    on517262   1.270   0.912   2.128  0.1060  0.1584 -0.1388
 2159ntf    fn417263   0.992   0.788   2.155  0.5902 -0.3510  0.4441
 2159ntf    fn417264   0.973   0.873   2.344  0.5001 -0.4281 -0.1940
 2159ntf    fn417265   0.986   0.996   2.165 -0.3059 -0.2041 -0.5678
 2160ntf    cn117266   3.528   3.939   0.158  0.1945  0.1846 -0.4026
 2160ntf    sn217267   3.526   3.992  -0.016  0.1210  0.1665 -0.4073
 2160ntf    nn317268   3.408   3.904  -0.071  0.2472 -0.7198  0.7084
 2160ntf    sn217269   3.401   3.780  -0.168 -0.3204 -0.1156 -0.0363
 2160ntf    cn117270   3.395   3.871  -0.325 -0.0310  0.2122  0.1397
 2160ntf    fn417271   3.405   3.919   0.203  0.4955 -0.6129  0.0707
 2160ntf    fn417272   3.586   3.821   0.166  0.3590  0.2941  0.0358
 2160ntf    fn417273   3.589   4.010   0.251 -0.4400  0.1534  0.0374
 2160ntf    on517274   3.471   4.123   0.010  0.2945  0.1812 -0.1120
 2160ntf    on517275   3.659   3.986  -0.071  0.3571 -0.2847  0.2074
 2160ntf    on517276   3.270   3.719  -0.159 -0.5620  0.4271  0.2233
 2160ntf    on517277   3.517   3.702  -0.202 -0.1201  0.1926 -0.0686
 2160ntf    fn417278   3.342   3.804  -0.426 -0.0680  0.0628  0.2588
 2160ntf    fn417279   3.309   3.970  -0.312 -0.3782 -0.0894  0.1556
 2160ntf    fn417280   3.506   3.926  -0.370 -0.2842  0.1179 -0.6132
   6.88079   6.88079   6.88079
