Converted from moscito
21600
    1SOL     ow    1   2.938   6.527   4.274 -0.0191  0.0703 -0.6939
    1SOL     hw    2   2.906   6.512   4.185 -0.2391 -1.2399 -0.4100
    1SOL     hw    3   3.020   6.478   4.279 -0.0137  0.1325 -0.1732
    1SOL     vw    4   2.944   6.519   4.263 -0.0474 -0.0944 -0.5875
    2SOL     ow    5   6.873   3.653   6.937 -0.1874 -0.1342  0.0561
    2SOL     hw    6   6.963   3.632   6.914 -1.3367 -1.7331 -3.9897
    2SOL     hw    7   6.872   3.748   6.948  1.6250  0.2832 -2.4126
    2SOL     vw    8   6.885   3.663   6.935 -0.1001 -0.2902 -0.8035
    3SOL     ow    9   5.400   1.689   4.991 -0.4302 -0.3168  0.7477
    3SOL     hw   10   5.320   1.643   4.964  1.4862 -3.0528 -0.6942
    3SOL     hw   11   5.445   1.628   5.049  2.1048 -0.2695 -1.0274
    3SOL     vw   12   5.395   1.675   4.995  0.1569 -0.6715  0.3233
    4SOL     ow   13   1.610   2.897   1.236 -0.4272  0.7219  0.4765
    4SOL     hw   14   1.681   2.895   1.172 -0.4399  0.9371  0.4549
    4SOL     hw   15   1.655   2.894   1.321 -0.4290 -0.0086  0.4548
    4SOL     vw   16   1.625   2.897   1.239 -0.4291  0.6539  0.4708
    5SOL     ow   17   4.364   5.320   1.534  0.1088  0.6815  0.7356
    5SOL     hw   18   4.312   5.330   1.614  1.8575  1.4029  1.8236
    5SOL     hw   19   4.325   5.382   1.472 -1.4072 -0.0498  0.8930
    5SOL     vw   20   4.352   5.329   1.536  0.1392  0.6802  0.8999
    6SOL     ow   21   3.934   4.609   2.649  0.3355 -0.6125 -0.4332
    6SOL     hw   22   3.927   4.541   2.715  0.3861 -0.2530 -0.0495
    6SOL     hw   23   3.845   4.617   2.613  0.0911 -0.1727  0.2448
    6SOL     vw   24   3.921   4.601   2.653  0.3099 -0.5074 -0.2930
    7SOL     ow   25   5.227   0.645   4.393 -0.6673 -0.2850 -0.3895
    7SOL     hw   26   5.257   0.601   4.473  1.0503  0.2553 -0.6787
    7SOL     hw   27   5.252   0.585   4.322 -1.4887 -0.4141 -0.5744
    7SOL     vw   28   5.234   0.631   4.394 -0.5493 -0.2308 -0.4518
    8SOL     ow   29   5.001   5.689   0.025 -0.0971  1.1795  0.3628
    8SOL     hw   30   4.967   5.610   0.068 -2.5173  2.2844  0.6502
    8SOL     hw   31   5.091   5.666   0.002 -0.5093 -1.4409  0.9606
    8SOL     vw   32   5.008   5.675   0.028 -0.4709  0.9797  0.4796
    9SOL     ow   33   2.276   2.636   1.082  0.1474  0.2225 -0.8081
    9SOL     hw   34   2.324   2.716   1.104  1.9931 -0.9377 -0.4604
    9SOL     hw   35   2.185   2.655   1.107  0.7478  1.7991  0.3135
    9SOL     vw   36   2.270   2.649   1.088  0.4702  0.2774 -0.6142
   10SOL     ow   37   4.773   6.702   6.377  0.3247 -0.0780  0.0768
   10SOL     hw   38   4.782   6.788   6.337 -0.2544  1.3099  2.6816
   10SOL     hw   39   4.680   6.682   6.373  0.4881 -0.7426 -0.7484
   10SOL     vw   40   4.762   6.710   6.371  0.2697  0.0176  0.3119
   11SOL     ow   41   5.215   5.701   3.510  0.0413 -0.7514  0.1806
   11SOL     hw   42   5.212   5.795   3.527  3.6585 -0.2753 -0.9219
   11SOL     hw   43   5.205   5.693   3.416 -1.9537 -1.6915  0.4362
   11SOL     vw   44   5.213   5.712   3.500  0.2556 -0.8123  0.0688
   12SOL     ow   45   5.920   0.209   3.037 -0.0848  0.2362 -0.6284
   12SOL     hw   46   5.991   0.222   2.975  0.8438 -0.5773  0.2263
   12SOL     hw   47   5.854   0.159   2.988  0.0042  0.8448 -1.3758
   12SOL     vw   48   5.921   0.204   3.022  0.0494  0.2092 -0.6142
   13SOL     ow   49   3.976   3.175   1.280 -0.1246  0.0090 -0.1716
   13SOL     hw   50   3.980   3.138   1.192  3.1407  0.3810 -0.3037
   13SOL     hw   51   3.962   3.269   1.267 -0.4871 -0.0484 -0.2193
   13SOL     vw   52   3.975   3.183   1.267  0.2584  0.0508 -0.1953
   14SOL     ow   53   1.426   4.992   6.576  0.2727  0.2570 -0.0325
   14SOL     hw   54   1.420   4.903   6.541  0.8122 -0.7223  2.1913
   14SOL     hw   55   1.503   5.029   6.533  0.3310 -0.5296 -0.6350
   14SOL     vw   56   1.436   4.985   6.566  0.3515  0.0238  0.1812
   15SOL     ow   57   5.818   2.738   2.498  0.5595  0.4396  0.0926
   15SOL     hw   58   5.742   2.796   2.490 -1.4478 -1.5027  3.0874
   15SOL     hw   59   5.882   2.789   2.548 -0.5794  0.6488  1.3857
   15SOL     vw   60   5.816   2.752   2.504  0.1442  0.2109  0.6584
   16SOL     ow   61   0.612   5.770   1.077  0.1823 -0.2299 -0.2287
   16SOL     hw   62   0.547   5.702   1.060 -0.8436  0.5366  0.4432
   16SOL     hw   63   0.611   5.824   0.997  0.3743 -0.5147 -0.4247
   16SOL     vw   64   0.603   5.768   1.064  0.0723 -0.1662 -0.1659
   17SOL     ow   65   0.705   4.819   0.604  0.3484 -0.0048 -0.5510
   17SOL     hw   66   0.780   4.877   0.613  0.8073 -0.5520 -0.8186
   17SOL     hw   67   0.697   4.804   0.510  0.0426 -0.1292 -0.5063
   17SOL     vw   68   0.714   4.824   0.593  0.3686 -0.0935 -0.5804
   18SOL     ow   69   4.970   4.844   4.062 -0.2659 -0.2181 -0.4765
   18SOL     hw   70   4.948   4.753   4.042  2.1306 -0.9106 -0.2420
   18SOL     hw   71   5.063   4.851   4.044 -0.1714  1.9374  0.5175
   18SOL     vw   72   4.979   4.833   4.057  0.0629 -0.0253 -0.3145
   19SOL     ow   73   6.531   2.299   0.730 -0.0931  0.0933  0.4457
   19SOL     hw   74   6.499   2.388   0.718 -1.3061 -0.4523 -0.6320
   19SOL     hw   75   6.490   2.249   0.659 -1.9695 -1.9877  2.7951
   19SOL     vw   76   6.522   2.304   0.719 -0.5007 -0.2532  0.6135
   20SOL     ow   77   3.595   7.021   6.155  0.0646  0.1558  0.3698
   20SOL     hw   78   3.611   7.071   6.235  1.8843  1.0300 -0.4960
   20SOL     hw   79   3.500   7.028   6.141 -0.2875  0.0078  2.3931
   20SOL     vw   80   3.585   7.028   6.163  0.2582  0.2515  0.5226
   21SOL     ow   81   0.639   4.428   5.673 -0.0765 -0.5238  0.1136
   21SOL     hw   82   0.640   4.520   5.702  1.5598 -1.1404  2.3674
   21SOL     hw   83   0.642   4.433   5.578 -0.1210  1.7588  0.1637
   21SOL     vw   84   0.640   4.441   5.664  0.1335 -0.3040  0.4172
   22SOL     ow   85   5.402   0.084   1.335 -0.1509  0.2909  0.0650
   22SOL     hw   86   5.313   0.059   1.362  0.0810  0.5223  1.1099
   22SOL     hw   87   5.441   0.119   1.415  0.8582  0.2583 -0.4068
   22SOL     vw   88   5.395   0.085   1.349  0.0131  0.3171  0.1407
   23SOL     ow   89   3.244   4.970   2.204  0.0537 -0.2360  0.7390
   23SOL     hw   90   3.191   4.902   2.246  1.7669 -2.9282 -1.1214
   23SOL     hw   91   3.202   4.984   2.119  0.1694  0.4933  0.7949
   23SOL     vw   92   3.231   4.963   2.198  0.2949 -0.4947  0.5009
   24SOL     ow   93   0.388   5.538   2.588 -0.3009 -0.0036  0.3022
   24SOL     hw   94   0.355   5.461   2.635 -1.9234  0.2478 -0.3883
   24SOL     hw   95   0.452   5.576   2.648  1.0652 -2.2521  0.3808
   24SOL     vw   96   0.392   5.533   2.602 -0.3347 -0.2673  0.2216
   25SOL     ow   97   2.364   5.547   2.697  0.4811  0.1713  0.1092
   25SOL     hw   98   2.390   5.455   2.702  0.8261  0.1315 -1.6153
   25SOL     hw   99   2.287   5.554   2.753  1.1746 -0.8813  1.2253
   25SOL     vw  100   2.357   5.536   2.705  0.6181  0.0272  0.0290
   26SOL     ow  101   6.748   5.675   6.531 -0.1968 -0.5157 -0.3897
   26SOL     hw  102   6.716   5.738   6.467 -0.5443 -0.6878 -0.3834
   26SOL     hw  103   6.790   5.606   6.479  3.6718  1.5300 -0.3492
   26SOL     vw  104   6.749   5.674   6.516  0.2680 -0.2685 -0.3834
   27SOL     ow  105   3.262   0.446   0.476  0.1689 -0.7936 -0.0926
   27SOL     hw  106   3.256   0.414   0.566  1.3186 -1.0845 -0.1081
   27SOL     hw  107   3.294   0.536   0.484 -2.0083  0.0515 -0.1122
   27SOL     vw  108   3.265   0.454   0.489  0.0334 -0.7205 -0.0972
   28SOL     ow  109   2.167   0.986   1.673 -0.8117  0.6285 -0.4350
   28SOL     hw  110   2.251   1.010   1.636 -0.7747  0.2598 -0.5942
   28SOL     hw  111   2.123   0.937   1.604  0.3968 -2.5664  0.8788
   28SOL     vw  112   2.172   0.983   1.659 -0.6474  0.1584 -0.2826
   29SOL     ow  113   1.119   0.724   5.885  0.3889 -0.3864 -0.3716
   29SOL     hw  114   1.034   0.767   5.878 -0.6955 -1.8424  2.5054
   29SOL     hw  115   1.180   0.795   5.907 -0.5072  0.3278 -0.1555
   29SOL     vw  116   1.116   0.739   5.887  0.1276 -0.4843  0.0367
   30SOL     ow  117   7.038   4.542   6.271  0.4261 -0.5492 -0.0896
   30SOL     hw  118   7.092   4.507   6.342  1.7558 -0.6921 -1.1240
   30SOL     hw  119   7.068   4.495   6.193 -1.1078 -0.5068 -0.7363
   30SOL     vw  120   7.049   4.531   6.270  0.3991 -0.5622 -0.3114
   31SOL     ow  121   4.845   7.046   3.663 -0.6087 -0.0275 -0.0737
   31SOL     hw  122   4.828   7.088   3.747 -0.6039  1.7143 -0.8976
   31SOL     hw  123   4.940   7.049   3.652 -0.4378 -1.7191  0.5338
   31SOL     vw  124   4.855   7.052   3.672 -0.5856 -0.0210 -0.1022
   32SOL     ow  125   3.605   5.293   5.459 -0.2749  0.0934 -0.2482
   32SOL     hw  126   3.652   5.246   5.527 -2.5263 -2.7795 -0.4655
   32SOL     hw  127   3.595   5.229   5.388 -1.7143  1.5830 -1.4867
   32SOL     vw  128   3.610   5.278   5.459 -0.7617 -0.0889 -0.4404
   33SOL     ow  129   1.996   2.060   2.771  0.7402  0.5804 -0.4597
   33SOL     hw  130   1.984   2.147   2.808  0.8301  1.2588 -1.9555
   33SOL     hw  131   1.917   2.012   2.797  0.0044  1.5566 -0.8251
   33SOL     vw  132   1.984   2.065   2.779  0.6549  0.7986 -0.7052
   34SOL     ow  133   1.897   4.659   3.595  0.5503  0.7132 -0.0667
   34SOL     hw  134   1.975   4.689   3.642  0.9363  2.3367 -1.6252
   34SOL     hw  135   1.876   4.732   3.536 -1.9510  0.1751  0.0656
   34SOL     vw  136   1.905   4.673   3.594  0.2712  0.8562 -0.2550
   35SOL     ow  137   3.639   0.094   5.014 -1.0494  0.7368 -0.2641
   35SOL     hw  138   3.671   0.004   5.001  0.0774  1.0003  0.5470
   35SOL     hw  139   3.566   0.084   5.076  0.2774  0.5277  1.3378
   35SOL     vw  140   3.634   0.081   5.021 -0.7256  0.7439  0.0544
   36SOL     ow  141   5.451   4.897   2.682  0.1689  0.2117  0.1653
   36SOL     hw  142   5.375   4.943   2.717  0.7293  1.3904 -0.1220
   36SOL     hw  143   5.495   4.861   2.760 -0.1641  0.3353  0.4129
   36SOL     vw  144   5.447   4.898   2.697  0.1988  0.3836  0.1600
   37SOL     ow  145   5.353   3.261   5.614 -0.4879  0.1483 -0.5859
   37SOL     hw  146   5.331   3.229   5.701 -0.4684  0.8340 -0.3290
   37SOL     hw  147   5.331   3.354   5.616 -1.9104 -0.1120 -1.7637
   37SOL     vw  148   5.347   3.269   5.625 -0.6731  0.2046 -0.7074
   38SOL     ow  149   4.420   0.062   4.719  0.1818  0.0305 -0.0125
   38SOL     hw  150   4.400   0.149   4.685  1.0848  0.0198 -0.5907
   38SOL     hw  151   4.434   0.008   4.641  0.2587 -0.4810  0.3507
   38SOL     vw  152   4.419   0.067   4.704  0.3114 -0.0384 -0.0410
   39SOL     ow  153   6.110   0.043   1.392  0.3503  0.3309  0.1077
   39SOL     hw  154   6.131  -0.009   1.470 -0.5776  1.8404  1.4310
   39SOL     hw  155   6.195   0.077   1.363  0.8763 -1.2888 -0.3599
   39SOL     vw  156   6.124   0.041   1.399  0.2971  0.3163  0.2206
   40SOL     ow  157   4.526   2.176   3.273 -0.4653  0.0623 -0.2666
   40SOL     hw  158   4.533   2.084   3.297 -1.4068 -0.4247 -1.7070
   40SOL     hw  159   4.473   2.215   3.343  0.5103 -0.3164  0.7101
   40SOL     vw  160   4.520   2.169   3.286 -0.4609 -0.0519 -0.3277
   41SOL     ow  161   4.266   0.273   1.100 -0.0687 -0.0606  0.1558
   41SOL     hw  162   4.294   0.270   1.191 -0.0157 -1.0969  0.1160
   41SOL     hw  163   4.297   0.358   1.068  0.0653  0.2314  1.0474
   41SOL     vw  164   4.274   0.284   1.108 -0.0439 -0.1588  0.2682
   42SOL     ow  165   5.946   4.835   3.468  0.5866  0.0273 -0.2303
   42SOL     hw  166   6.024   4.890   3.461  0.4165  0.0594 -2.8399
   42SOL     hw  167   5.949   4.779   3.391 -1.4969 -0.6107  0.0922
   42SOL     vw  168   5.957   4.835   3.457  0.2894 -0.0525 -0.5320
   43SOL     ow  169   0.738   4.480   2.312 -0.5952 -0.2397 -0.0568
   43SOL     hw  170   0.645   4.495   2.324 -0.6782 -0.2227 -0.7011
   43SOL     hw  171   0.756   4.397   2.357 -0.6320  0.4682  1.3128
   43SOL     vw  172   0.728   4.471   2.320 -0.6110 -0.1440  0.0389
   44SOL     ow  173   4.153   1.182   4.465  0.0863 -0.3604 -0.0093
   44SOL     hw  174   4.199   1.246   4.411  0.5917 -1.2007 -0.5988
   44SOL     hw  175   4.217   1.112   4.479 -0.5374 -0.8538  0.4158
   44SOL     vw  176   4.168   1.181   4.460  0.0708 -0.5364 -0.0308
   45SOL     ow  177   4.738   5.849   0.240 -0.4804  0.4228 -0.0674
   45SOL     hw  178   4.820   5.866   0.194 -0.3263  0.6566  0.2894
   45SOL     hw  179   4.677   5.914   0.207 -0.6348  0.0089 -0.6132
   45SOL     vw  180   4.740   5.860   0.230 -0.4804  0.3989 -0.0923
   46SOL     ow  181   4.227   5.532   0.598  1.0028  0.6458  0.0202
   46SOL     hw  182   4.278   5.601   0.557  0.1586  1.8041  0.8415
   46SOL     hw  183   4.137   5.567   0.600  0.8631  0.2948  2.0331
   46SOL     vw  184   4.222   5.546   0.593  0.8733  0.7524  0.3941
   47SOL     ow  185   5.688   6.541   3.974 -0.0557 -0.4911 -0.0493
   47SOL     hw  186   5.622   6.521   4.040  0.1255 -0.7119  0.0671
   47SOL     hw  187   5.690   6.636   3.970 -1.0023 -0.4838 -0.6774
   47SOL     vw  188   5.679   6.551   3.982 -0.1566 -0.5193 -0.1168
   48SOL     ow  189   3.082   2.778   5.790  0.6792  0.2790 -0.6676
   48SOL     hw  190   3.050   2.721   5.860 -2.6055  1.8951 -0.6584
   48SOL     hw  191   3.112   2.857   5.834  0.6708  0.4501 -0.9640
   48SOL     vw  192   3.081   2.781   5.805  0.2446  0.5149 -0.7055
   49SOL     ow  193   2.165   2.198   2.229  0.4724 -0.1591  0.0793
   49SOL     hw  194   2.204   2.285   2.220  1.1137 -0.2272  1.8098
   49SOL     hw  195   2.236   2.138   2.206  0.6968 -0.2516  1.0073
   49SOL     vw  196   2.179   2.202   2.224  0.5866 -0.1802  0.4300
   50SOL     ow  197   3.645   3.934   3.269 -0.0386  0.1169  0.2410
   50SOL     hw  198   3.570   3.905   3.320 -0.2033 -0.3060 -0.2328
   50SOL     hw  199   3.653   3.869   3.200  0.7662  0.1593  0.2894
   50SOL     vw  200   3.636   3.922   3.267  0.0459  0.0666  0.1850
   51SOL     ow  201   4.057   4.844   5.144 -0.0179  0.5761  0.0688
   51SOL     hw  202   4.147   4.873   5.159  0.0623  0.5257 -0.3016
   51SOL     hw  203   4.042   4.776   5.209  1.7306 -2.6480 -2.5517
   51SOL     vw  204   4.067   4.839   5.154  0.2232  0.1440 -0.3257
   52SOL     ow  205   4.133   1.744   0.829  0.4925 -0.1181  0.0413
   52SOL     hw  206   4.223   1.773   0.818  0.7614 -0.0384  1.9798
   52SOL     hw  207   4.100   1.796   0.903 -0.7407 -0.9910  0.1369
   52SOL     vw  208   4.140   1.755   0.838  0.3655 -0.2227  0.3096
   53SOL     ow  209   0.749   1.369   4.467 -0.2776  0.2143  0.0735
   53SOL     hw  210   0.839   1.399   4.476 -0.1387  0.0549 -0.6861
   53SOL     hw  211   0.706   1.398   4.547  0.4463  0.2909  0.4448
   53SOL     vw  212   0.755   1.377   4.479 -0.1638  0.2034  0.0224
   54SOL     ow  213   4.898   2.924   1.713  0.4975 -0.8278  0.8598
   54SOL     hw  214   4.988   2.901   1.736  1.4738  1.2632 -0.6371
   54SOL     hw  215   4.899   3.018   1.698 -1.4324 -1.0603 -1.3903
   54SOL     vw  216   4.910   2.933   1.714  0.3719 -0.5826  0.3654
   55SOL     ow  217   4.635   5.467   5.956 -0.1810 -0.7083  0.1286
   55SOL     hw  218   4.726   5.498   5.959 -1.2986  3.0157  2.1846
   55SOL     hw  219   4.608   5.465   6.047 -2.6006 -0.1804 -0.5250
   55SOL     vw  220   4.644   5.471   5.968 -0.6478 -0.1473  0.3138
   56SOL     ow  221   6.618   2.093   0.951 -0.5127 -0.2959  0.6124
   56SOL     hw  222   6.701   2.121   0.988 -0.7887  3.0805 -0.9418
   56SOL     hw  223   6.636   2.005   0.917  2.1448 -0.0657  1.1780
   56SOL     vw  224   6.631   2.085   0.951 -0.1986  0.1799  0.4819
   57SOL     ow  225   0.754   4.671   3.139  0.1516 -0.7852 -0.2693
   57SOL     hw  226   0.670   4.626   3.145  0.0782 -1.2113 -3.1459
   57SOL     hw  227   0.820   4.601   3.144  0.2606 -0.6663 -0.0052
   57SOL     vw  228   0.752   4.656   3.141  0.1563 -0.8254 -0.6140
   58SOL     ow  229   0.348   4.658   4.557 -0.6205 -0.5659 -0.2118
   58SOL     hw  230   0.277   4.606   4.519 -0.5291  1.5576 -3.7343
   58SOL     hw  231   0.318   4.749   4.547  1.4475  0.2722  0.7182
   58SOL     vw  232   0.334   4.663   4.551 -0.3356 -0.1750 -0.5543
   59SOL     ow  233   5.780   4.544   4.040 -0.0886 -0.5726 -0.1631
   59SOL     hw  234   5.776   4.639   4.028  0.0035 -0.5953 -0.3828
   59SOL     hw  235   5.731   4.527   4.121 -1.3332 -0.4881 -0.8856
   59SOL     vw  236   5.773   4.554   4.049 -0.2406 -0.5646 -0.2878
   60SOL     ow  237   3.822   2.864   4.996 -0.4840 -0.1955 -0.4371
   60SOL     hw  238   3.901   2.873   5.050 -1.1184  0.8969  0.3379
   60SOL     hw  239   3.817   2.770   4.979  0.7517 -0.3393 -0.1463
   60SOL     vw  240   3.832   2.852   5.001 -0.4046 -0.0703 -0.2968
   61SOL     ow  241   0.289   2.032   3.026  0.0907 -0.4723  0.3695
   61SOL     hw  242   0.315   2.041   2.934  1.2336 -1.5438  0.5530
   61SOL     hw  243   0.227   1.959   3.026  0.6527 -0.9654  0.5183
   61SOL     vw  244   0.284   2.023   3.014  0.3156 -0.6787  0.4134
   62SOL     ow  245   3.128   2.417   4.911 -0.2217 -0.0553  0.3632
   62SOL     hw  246   3.147   2.356   4.982 -1.2135  1.3073  1.8753
   62SOL     hw  247   3.085   2.491   4.954 -3.8096 -0.5109 -2.0107
   62SOL     vw  248   3.124   2.419   4.926 -0.8259  0.0644  0.2494
   63SOL     ow  249   3.871   5.482   4.000  0.0945 -0.1867 -0.3820
   63SOL     hw  250   3.842   5.556   4.053 -1.5817 -1.2272  0.2707
   63SOL     hw  251   3.916   5.521   3.926  0.0706  1.4355  0.4102
   63SOL     vw  252   3.873   5.497   3.997 -0.1297 -0.1101 -0.1912
   64SOL     ow  253   2.778   3.489   7.007  0.6312  0.2827  0.5405
   64SOL     hw  254   2.798   3.397   6.990 -1.7238 -0.2209  0.0278
   64SOL     hw  255   2.846   3.538   6.960 -0.6384 -1.1855 -3.2095
   64SOL     vw  256   2.789   3.484   6.999  0.1531  0.0225 -0.0219
   65SOL     ow  257   4.275   1.544   0.950 -0.1876 -0.8077 -0.0565
   65SOL     hw  258   4.357   1.561   0.904 -0.4388  1.3851  0.2285
   65SOL     hw  259   4.209   1.592   0.901 -1.1370 -1.6385  0.3619
   65SOL     vw  260   4.277   1.552   0.938 -0.3459 -0.6280  0.0363
   66SOL     ow  261   0.326   6.518   5.590 -0.0770 -0.7107  0.3563
   66SOL     hw  262   0.251   6.480   5.545 -0.0244 -1.8148  1.1638
   66SOL     hw  263   0.328   6.610   5.561 -0.2793 -1.2632 -1.5580
   66SOL     vw  264   0.316   6.525   5.580 -0.0968 -0.9294  0.2105
   67SOL     ow  265   3.206   4.365   3.933 -0.2614 -0.4554  0.3304
   67SOL     hw  266   3.133   4.361   3.872 -1.2943 -1.4690  1.5737
   67SOL     hw  267   3.169   4.406   4.011  0.4250 -1.2008  1.0632
   67SOL     vw  268   3.192   4.370   3.935 -0.3070 -0.6876  0.5912
   68SOL     ow  269   0.145   1.573   4.083 -0.4927  0.0674  0.1443
   68SOL     hw  270   0.178   1.598   3.997 -2.7599  0.0953 -0.7853
   68SOL     hw  271   0.113   1.655   4.121  1.0124  0.1599  1.3113
   68SOL     vw  272   0.145   1.587   4.077 -0.5932  0.0833  0.1757
   69SOL     ow  273   5.215   5.470   2.887  0.2849 -0.7120  0.3282
   69SOL     hw  274   5.159   5.483   2.964 -0.4205 -2.2152  0.1008
   69SOL     hw  275   5.248   5.558   2.867  0.1852 -0.2213  2.1078
   69SOL     vw  276   5.212   5.484   2.895  0.1788 -0.8457  0.5330
   70SOL     ow  277   5.416   5.381   1.029 -0.7390 -0.2957  0.3380
   70SOL     hw  278   5.510   5.369   1.013 -0.6087 -0.5031  1.2235
   70SOL     hw  279   5.408   5.474   1.050 -0.9599  0.0568 -1.1496
   70SOL     vw  280   5.428   5.392   1.030 -0.7508 -0.2766  0.2586
   71SOL     ow  281   6.180   5.917   3.754  0.7677  0.5592 -0.6715
   71SOL     hw  282   6.233   5.843   3.723 -1.1050 -1.0771 -0.1439
   71SOL     hw  283   6.102   5.915   3.699  0.1345  1.4004  0.1738
   71SOL     vw  284   6.177   5.907   3.742  0.4373  0.4542 -0.4904
   72SOL     ow  285   4.549   3.778   5.505 -0.0605 -0.0936 -0.0367
   72SOL     hw  286   4.631   3.793   5.552  1.0688  0.7016 -2.1064
   72SOL     hw  287   4.542   3.683   5.496  0.7936 -0.1541 -0.0829
   72SOL     vw  288   4.559   3.768   5.510  0.2010  0.0033 -0.3157
   73SOL     ow  289   4.969   2.797   2.832  0.1024  0.6264  0.5956
   73SOL     hw  290   5.001   2.739   2.901  1.5912  1.1304  0.3725
   73SOL     hw  291   4.943   2.877   2.878 -0.3648  0.3939  0.7332
   73SOL     vw  292   4.970   2.800   2.847  0.2370  0.6621  0.5842
   74SOL     ow  293   5.379   3.344   1.170 -0.1288  0.1015  0.2267
   74SOL     hw  294   5.405   3.284   1.100 -1.9176 -0.3893 -0.0490
   74SOL     hw  295   5.389   3.294   1.251  1.7520  0.6082  0.3708
   74SOL     vw  296   5.384   3.330   1.172 -0.1168  0.1036  0.2094
   75SOL     ow  297   2.798   6.459   4.854  0.8188 -0.5661 -0.1954
   75SOL     hw  298   2.828   6.421   4.937  1.5684 -0.6758 -0.5098
   75SOL     hw  299   2.729   6.400   4.824 -1.2772  0.8255  1.5887
   75SOL     vw  300   2.793   6.446   4.861  0.6411 -0.3970 -0.0014
   76SOL     ow  301   1.349   0.974   6.807 -0.1541 -0.2641 -0.1941
   76SOL     hw  302   1.425   0.951   6.860 -0.5856  2.3367  1.7457
   76SOL     hw  303   1.384   0.981   6.718  1.3398 -1.3532  0.2640
   76SOL     vw  304   1.364   0.972   6.802 -0.0139 -0.0647  0.1223
   77SOL     ow  305   4.755   3.093   1.309  0.4570 -0.0955  0.1161
   77SOL     hw  306   4.706   3.170   1.279  1.0697 -0.7786 -2.9712
   77SOL     hw  307   4.811   3.127   1.379  0.2900  2.1720 -0.7357
   77SOL     vw  308   4.756   3.108   1.314  0.5157  0.1136 -0.4036
   78SOL     ow  309   4.578   0.952   5.867  0.1847 -0.1742 -0.3893
   78SOL     hw  310   4.537   0.914   5.945  0.7494  0.8308  0.4265
   78SOL     hw  311   4.606   0.877   5.815 -0.7558 -0.8606  0.0748
   78SOL     vw  312   4.577   0.937   5.871  0.1347 -0.1322 -0.2205
   79SOL     ow  313   3.221   6.442   5.731  0.0291 -0.0479  0.5001
   79SOL     hw  314   3.280   6.385   5.780  1.0044  1.4138  1.1170
   79SOL     hw  315   3.257   6.443   5.643  0.3830  0.0914  0.6431
   79SOL     vw  316   3.234   6.435   5.726  0.2044  0.1633  0.6006
   80SOL     ow  317   6.243   3.647   3.399  0.1176 -0.2199  1.0946
   80SOL     hw  318   6.238   3.574   3.461 -0.7465 -0.7258  0.4537
   80SOL     hw  319   6.293   3.613   3.325 -2.1002 -0.9618 -0.1817
   80SOL     vw  320   6.249   3.633   3.398 -0.2892 -0.3844  0.8416
   81SOL     ow  321   1.193   1.708   6.276 -0.2665 -0.7224 -0.2937
   81SOL     hw  322   1.285   1.714   6.301  0.4195 -1.6973 -2.3536
   81SOL     hw  323   1.153   1.787   6.313  1.4150 -0.1900  0.5100
   81SOL     vw  324   1.200   1.719   6.284  0.0459 -0.7808 -0.4594
   82SOL     ow  325   2.548   3.111   6.960  0.4620 -0.4577 -0.2243
   82SOL     hw  326   2.457   3.081   6.958  0.7033 -1.3863  1.3901
   82SOL     hw  327   2.583   3.085   6.874 -1.4759  2.4013 -2.0614
   82SOL     vw  328   2.541   3.104   6.948  0.2382 -0.2030 -0.2539
   83SOL     ow  329   2.304   2.338   3.380 -1.0312 -0.7736  0.1214
   83SOL     hw  330   2.382   2.287   3.402  0.0519 -0.0796 -1.9090
   83SOL     hw  331   2.286   2.316   3.289 -0.2768  2.6616 -0.9832
   83SOL     vw  332   2.312   2.328   3.371 -0.7886 -0.2288 -0.2921
   84SOL     ow  333   1.538   0.073   0.266  0.3968  0.5785 -0.0964
   84SOL     hw  334   1.481  -0.004   0.261 -1.5265  1.6722  2.3165
   84SOL     hw  335   1.614   0.044   0.316 -0.5338  0.2671  1.2137
   84SOL     vw  336   1.540   0.059   0.272  0.0201  0.6816  0.3948
   85SOL     ow  337   0.254   2.878   1.065  0.5079  0.1242  0.2147
   85SOL     hw  338   0.260   2.971   1.085  2.4726  0.0347  0.1761
   85SOL     hw  339   0.220   2.838   1.145 -0.3958  0.8676  0.2099
   85SOL     vw  340   0.250   2.885   1.078  0.6479  0.2104  0.2090
   86SOL     ow  341   1.846   1.315   6.012 -0.1274 -0.3598 -0.4507
   86SOL     hw  342   1.941   1.315   6.001 -0.1213 -0.6849 -0.3846
   86SOL     hw  343   1.828   1.401   6.051  0.3032 -0.8810  0.9419
   86SOL     vw  344   1.856   1.326   6.016 -0.0699 -0.4715 -0.2582
   87SOL     ow  345   2.698   6.055   1.656 -0.1561 -0.2045 -0.0265
   87SOL     hw  346   2.672   6.096   1.738  2.3814 -0.6297  1.0896
   87SOL     hw  347   2.699   5.961   1.674 -0.5696 -0.3828 -0.8694
   87SOL     vw  348   2.695   6.048   1.669  0.1240 -0.2842  0.0095
   88SOL     ow  349   0.782   2.417   1.812  0.3697  0.1409 -0.2088
   88SOL     hw  350   0.835   2.453   1.741 -0.9600  1.5085 -0.5686
   88SOL     hw  351   0.787   2.322   1.800 -0.2517  0.3344 -2.4710
   88SOL     vw  352   0.790   2.409   1.801  0.1123  0.3470 -0.5547
   89SOL     ow  353   1.064   4.186   3.622  0.0174  0.4661  0.3214
   89SOL     hw  354   1.010   4.247   3.571 -1.0453  0.5632  1.5048
   89SOL     hw  355   1.067   4.224   3.710 -2.3047 -2.0110  1.6678
   89SOL     vw  356   1.057   4.199   3.627 -0.4292  0.1519  0.6552
   90SOL     ow  357   0.694   3.748   6.727 -0.2081 -0.4134 -0.0495
   90SOL     hw  358   0.726   3.832   6.693 -0.9030 -0.2586 -0.3444
   90SOL     hw  359   0.767   3.713   6.777  1.0481 -0.8708 -2.0729
   90SOL     vw  360   0.708   3.755   6.729 -0.1340 -0.4535 -0.3555
   91SOL     ow  361   0.973   6.881   2.014 -0.6330  0.0900 -0.0837
   91SOL     hw  362   0.901   6.836   1.970 -0.2496  0.5194 -1.1647
   91SOL     hw  363   0.968   6.971   1.984  1.8534 -0.3742 -2.2108
   91SOL     vw  364   0.963   6.887   2.004 -0.2544  0.0851 -0.5069
   92SOL     ow  365   3.949   3.824   3.882  0.3624  0.4410  0.1144
   92SOL     hw  366   4.014   3.888   3.912 -0.7362  1.9905 -0.6895
   92SOL     hw  367   3.928   3.851   3.793 -0.3452 -0.9066 -0.1510
   92SOL     vw  368   3.955   3.836   3.874  0.1241  0.4677 -0.0268
   93SOL     ow  369   3.513   2.615   7.069  0.2813  0.6925  0.8743
   93SOL     hw  370   3.441   2.647   7.015  1.8126  2.3073 -0.2973
   93SOL     hw  371   3.504   2.519   7.067  0.2523  0.6789 -2.2407
   93SOL     vw  372   3.502   2.606   7.062  0.4793  0.9037  0.3088
   94SOL     ow  373   0.183   2.228   2.762  0.3928 -0.4486  0.5606
   94SOL     hw  374   0.112   2.253   2.821  2.7685  1.0555  2.9552
   94SOL     hw  375   0.242   2.304   2.761  1.8917 -1.5404 -1.5051
   94SOL     vw  376   0.181   2.241   2.769  0.9040 -0.3942  0.6039
   95SOL     ow  377   3.866   3.420   6.418  0.2357  0.0522 -0.1859
   95SOL     hw  378   3.882   3.507   6.380 -0.5060 -0.4572 -1.7479
   95SOL     hw  379   3.918   3.419   6.498 -1.4676  2.7417  1.0602
   95SOL     vw  380   3.875   3.431   6.423 -0.0869  0.3399 -0.2272
   96SOL     ow  381   2.326   3.296   3.276  0.3091 -0.7392  0.5001
   96SOL     hw  382   2.353   3.220   3.225  0.1702  0.1990 -1.0602
   96SOL     hw  383   2.231   3.290   3.280  0.2952 -0.6387  0.3445
   96SOL     vw  384   2.317   3.285   3.270  0.2890 -0.6021  0.2737
   97SOL     ow  385   6.901   6.108   4.967  0.4102 -0.1284  0.0675
   97SOL     hw  386   6.837   6.129   4.899  0.0698 -0.4644  0.2770
   97SOL     hw  387   6.859   6.137   5.048  0.1408 -1.1527  0.3044
   97SOL     vw  388   6.887   6.114   4.969  0.3295 -0.3078  0.1264
   98SOL     ow  389   5.750   4.082   4.849  0.6490 -0.3542  0.0475
   98SOL     hw  390   5.691   4.011   4.826 -0.1864  0.0917  0.7702
   98SOL     hw  391   5.745   4.143   4.776  2.8654 -1.8929 -1.5352
   98SOL     vw  392   5.742   4.081   4.836  0.8311 -0.4985 -0.0660
   99SOL     ow  393   1.353   2.095   3.948  0.4814 -0.3670 -0.1364
   99SOL     hw  394   1.324   2.154   3.878 -0.1841  0.5701  0.8936
   99SOL     hw  395   1.295   2.116   4.022  1.8134 -0.6058  1.0083
   99SOL     vw  396   1.341   2.106   3.949  0.5693 -0.2749  0.1506
  100SOL     ow  397   4.829   1.295   6.904 -0.7856  0.0233 -0.0013
  100SOL     hw  398   4.848   1.208   6.870  1.1642  0.4835 -0.2085
  100SOL     hw  399   4.906   1.318   6.956 -2.4207  0.5156  2.4190
  100SOL     vw  400   4.842   1.287   6.907 -0.7441  0.1490  0.2906
  101SOL     ow  401   1.721   3.770   2.520  0.1662  0.2256 -0.5758
  101SOL     hw  402   1.646   3.731   2.566  1.0014 -0.3500  0.3204
  101SOL     hw  403   1.783   3.793   2.589  0.4175  1.6311 -1.2239
  101SOL     vw  404   1.719   3.768   2.535  0.3095  0.3352 -0.5431
  102SOL     ow  405   2.167   0.839   1.925  0.2302 -0.5340  0.1988
  102SOL     hw  406   2.235   0.792   1.878  0.1736  0.6314 -1.1003
  102SOL     hw  407   2.193   0.834   2.017  1.1423 -1.5488 -0.0955
  102SOL     vw  408   2.179   0.832   1.931  0.3428 -0.5141 -0.0114
  103SOL     ow  409   3.882   1.665   2.296 -0.0827  0.6348  0.7275
  103SOL     hw  410   3.924   1.709   2.223  0.8270  1.2057  1.5688
  103SOL     hw  411   3.940   1.592   2.317 -2.3660 -2.1446 -1.7161
  103SOL     vw  412   3.895   1.661   2.289 -0.2639  0.3435  0.5162
  104SOL     ow  413   1.533   1.900   3.766 -0.5959  0.3796 -0.3349
  104SOL     hw  414   1.499   1.813   3.744  0.3075  0.2767 -1.3854
  104SOL     hw  415   1.618   1.905   3.722  1.8825 -0.1904  3.8128
  104SOL     vw  416   1.540   1.889   3.757 -0.1497  0.2908  0.0738
  105SOL     ow  417   0.012   0.595   4.076 -0.0282  0.2369 -0.5318
  105SOL     hw  418   0.083   0.637   4.125  0.3903 -0.8572 -0.1687
  105SOL     hw  419  -0.026   0.533   4.137 -1.6077  1.1023 -0.5867
  105SOL     vw  420   0.017   0.593   4.090 -0.1817  0.2067 -0.4911
  106SOL     ow  421   3.203   5.761   2.173 -0.2394 -0.6168  0.5830
  106SOL     hw  422   3.219   5.676   2.133 -1.0731 -0.8575  0.7541
  106SOL     hw  423   3.237   5.753   2.263 -0.2034 -0.7233  0.5595
  106SOL     vw  424   3.210   5.749   2.180 -0.3446 -0.6626  0.6024
  107SOL     ow  425   0.047   1.787   4.211 -0.4031 -0.1897  0.0389
  107SOL     hw  426  -0.036   1.771   4.256 -0.2155  1.0139  0.8322
  107SOL     hw  427   0.026   1.854   4.146 -0.6509 -1.8319 -1.6732
  107SOL     vw  428   0.033   1.793   4.208 -0.4111 -0.2475 -0.0823
  108SOL     ow  429   6.915   6.301   2.447  0.3898 -0.3706 -0.7734
  108SOL     hw  430   6.952   6.344   2.524  0.8523 -0.7485 -0.7801
  108SOL     hw  431   6.827   6.275   2.474  0.8188 -1.1802 -0.1154
  108SOL     vw  432   6.908   6.304   2.461  0.5076 -0.5271 -0.6872
  109SOL     ow  433   0.135   0.471   3.852  0.9269 -0.6806 -0.4078
  109SOL     hw  434   0.184   0.528   3.791 -1.0181 -0.0665 -1.4729
  109SOL     hw  435   0.147   0.383   3.816 -0.2807 -0.3145 -1.7921
  109SOL     vw  436   0.143   0.467   3.839  0.5109 -0.5513 -0.7310
  110SOL     ow  437   3.171   4.805   0.072 -0.0093  0.2429 -0.0991
  110SOL     hw  438   3.166   4.875   0.008  2.5883  1.0516  0.4537
  110SOL     hw  439   3.113   4.832   0.143 -1.7098  0.0832 -1.3827
  110SOL     vw  440   3.163   4.817   0.073  0.1091  0.3288 -0.1955
  111SOL     ow  441   3.366   5.177   3.108 -0.1096  0.9686 -0.7854
  111SOL     hw  442   3.369   5.228   3.189 -1.5767  2.0765 -1.3860
  111SOL     hw  443   3.365   5.242   3.038  0.8517  0.0345 -1.7081
  111SOL     vw  444   3.366   5.192   3.110 -0.1764  0.9913 -0.9866
  112SOL     ow  445   6.995   2.051   0.137 -0.2324  0.1217 -0.2012
  112SOL     hw  446   6.906   2.015   0.132  0.0029 -0.2944 -2.2309
  112SOL     hw  447   7.041   2.013   0.062  1.1611  1.6576 -0.1930
  112SOL     vw  448   6.989   2.041   0.127 -0.0174  0.2694 -0.4679
  113SOL     ow  449   6.915   5.583   3.463  0.5022 -0.1345  0.4745
  113SOL     hw  450   6.949   5.602   3.376 -0.7564  0.0462  0.0019
  113SOL     hw  451   6.826   5.620   3.463  0.0076 -1.2614  1.3803
  113SOL     vw  452   6.908   5.590   3.452  0.2711 -0.2594  0.5317
  114SOL     ow  453   1.324   4.257   5.518 -0.6969  0.2240  0.4087
  114SOL     hw  454   1.333   4.190   5.450 -2.1755  0.9066 -0.5134
  114SOL     hw  455   1.413   4.289   5.533  0.1124 -2.1521  1.1331
  114SOL     vw  456   1.337   4.252   5.511 -0.7851  0.0005  0.3827
  115SOL     ow  457   4.172   4.602   5.823  0.0483 -0.3200  0.6645
  115SOL     hw  458   4.212   4.684   5.853  0.3956 -0.5558  0.8529
  115SOL     hw  459   4.169   4.611   5.728 -1.9296  0.8317  0.7836
  115SOL     vw  460   4.177   4.614   5.814 -0.1667 -0.1991  0.7050
  116SOL     ow  461   6.279   2.802   7.077 -0.0111  0.2712 -0.2861
  116SOL     hw  462   6.261   2.896   7.069  2.9411  1.0428  0.8492
  116SOL     hw  463   6.363   2.791   7.031  0.3924 -1.5237  0.8264
  116SOL     vw  464   6.288   2.813   7.070  0.4318  0.1361  0.0104
  117SOL     ow  465   0.078   5.283   3.223  0.5264  0.2246  0.9479
  117SOL     hw  466   0.075   5.188   3.232 -0.0615 -0.0525 -1.4767
  117SOL     hw  467   0.167   5.307   3.250  0.9895 -1.1274  0.6676
  117SOL     vw  468   0.090   5.274   3.228  0.5100  0.0095  0.5910
  118SOL     ow  469   0.234   4.342   3.710 -0.4860 -0.3862 -0.6899
  118SOL     hw  470   0.198   4.286   3.642 -1.2008  0.5389 -1.0875
  118SOL     hw  471   0.161   4.356   3.771 -0.1969 -0.2074 -0.3809
  118SOL     vw  472   0.220   4.336   3.709 -0.5421 -0.2403 -0.7015
  119SOL     ow  473   1.288   4.291   4.398  0.2683  0.1359  0.5376
  119SOL     hw  474   1.320   4.263   4.484  4.0210 -1.6457 -1.2184
  119SOL     hw  475   1.232   4.219   4.369  1.3808 -0.7012  0.3760
  119SOL     vw  476   1.285   4.278   4.405  0.9102 -0.2096  0.2844
  120SOL     ow  477   0.540   4.244   5.846 -0.3317  0.1458  0.1194
  120SOL     hw  478   0.565   4.298   5.921 -0.0514  0.7474 -0.4088
  120SOL     hw  479   0.566   4.294   5.769  0.2127 -0.8619 -0.3827
  120SOL     vw  480   0.547   4.258   5.846 -0.2229  0.0920 -0.0167
  121SOL     ow  481   0.333   2.343   3.096 -0.2426 -0.5791 -0.4472
  121SOL     hw  482   0.399   2.392   3.145 -0.2030 -1.5795  0.5387
  121SOL     hw  483   0.323   2.392   3.014  1.4078 -0.1933 -0.4502
  121SOL     vw  484   0.340   2.356   3.092 -0.0196 -0.6602 -0.3175
  122SOL     ow  485   2.626   5.236   2.128 -0.2600 -0.8635 -0.0016
  122SOL     hw  486   2.579   5.307   2.083  1.0884 -0.0043 -0.1175
  122SOL     hw  487   2.578   5.224   2.210 -1.0680 -0.4717 -0.4027
  122SOL     vw  488   2.613   5.244   2.133 -0.1887 -0.6986 -0.0697
  123SOL     ow  489   0.394   0.613   0.913  0.3054 -0.8381  0.4017
  123SOL     hw  490   0.378   0.624   1.006  0.1741  0.0208  0.2875
  123SOL     hw  491   0.343   0.536   0.888  1.7448 -2.1419  1.3779
  123SOL     vw  492   0.385   0.604   0.922  0.4780 -0.8968  0.5154
  124SOL     ow  493   0.231   5.319   0.230  0.0915  0.2440 -0.4394
  124SOL     hw  494   0.150   5.324   0.281  1.0348  0.6068  1.0880
  124SOL     hw  495   0.204   5.342   0.141 -1.3816  0.9556  0.1472
  124SOL     vw  496   0.217   5.323   0.225  0.0216  0.3858 -0.1604
  125SOL     ow  497   6.737   2.661   3.360 -0.2076 -0.3670 -0.0995
  125SOL     hw  498   6.697   2.592   3.411  0.7666 -0.2926  0.7896
  125SOL     hw  499   6.819   2.624   3.328 -0.0416  0.1231 -0.2629
  125SOL     vw  500   6.743   2.647   3.362 -0.0570 -0.2925 -0.0038
  126SOL     ow  501   0.277   4.540   1.836  0.2079 -0.0600  0.1410
  126SOL     hw  502   0.222   4.562   1.911 -2.1386  0.6721 -1.6755
  126SOL     hw  503   0.299   4.624   1.796  0.2850 -0.4813 -0.7431
  126SOL     vw  504   0.273   4.554   1.840 -0.0915 -0.0191 -0.2154
  127SOL     ow  505   0.017   0.547   5.890  0.0500 -0.3007  0.4838
  127SOL     hw  506   0.067   0.467   5.879  1.3723  0.3127  1.6509
  127SOL     hw  507   0.074   0.616   5.854 -0.2218  0.3284  1.2220
  127SOL     vw  508   0.031   0.546   5.884  0.1886 -0.1368  0.7353
  128SOL     ow  509   3.137   1.595   3.818 -0.0043 -0.9274 -0.4173
  128SOL     hw  510   3.129   1.515   3.870  1.8875 -0.6660  0.3598
  128SOL     hw  511   3.204   1.646   3.864  0.6221 -0.0045 -2.2852
  128SOL     vw  512   3.145   1.591   3.831  0.3279 -0.7711 -0.5611
  129SOL     ow  513   4.186   1.364   4.694 -0.1326 -0.1034 -0.2956
  129SOL     hw  514   4.207   1.333   4.781 -0.1728 -0.4306 -0.4009
  129SOL     hw  515   4.223   1.452   4.690  1.2995 -0.6889 -0.5081
  129SOL     vw  516   4.194   1.371   4.705  0.0510 -0.2238 -0.3374
  130SOL     ow  517   3.841   3.560   4.772  0.0246 -0.5420  0.1317
  130SOL     hw  518   3.817   3.629   4.710  0.1559 -0.5171  0.1082
  130SOL     hw  519   3.761   3.545   4.823  0.0645 -0.2015  0.2995
  130SOL     vw  520   3.827   3.567   4.771  0.0472 -0.4939  0.1507
  131SOL     ow  521   5.887   4.650   3.273  0.8053  0.4564  0.2216
  131SOL     hw  522   5.927   4.698   3.201  0.5518  0.4138  0.0521
  131SOL     hw  523   5.947   4.578   3.290  0.5845  0.1394 -0.3229
  131SOL     vw  524   5.900   4.647   3.266  0.7427  0.4091  0.1276
  132SOL     ow  525   2.883   1.332   5.228  0.5253  0.6146 -0.0977
  132SOL     hw  526   2.825   1.358   5.300  1.5542  0.0965  0.9590
  132SOL     hw  527   2.856   1.243   5.206  0.6416  0.5276  0.1083
  132SOL     vw  528   2.872   1.324   5.235  0.6765  0.5348  0.0691
  133SOL     ow  529   0.882   0.797   4.998  0.1474 -0.2938  0.3642
  133SOL     hw  530   0.975   0.786   5.020  0.4832  0.6569 -0.5143
  133SOL     hw  531   0.836   0.748   5.066  1.2884 -0.8182  0.7927
  133SOL     vw  532   0.889   0.789   5.010  0.3422 -0.2376  0.3047
  134SOL     ow  533   6.754   4.531   6.169  0.1762 -0.6647  0.1366
  134SOL     hw  534   6.671   4.522   6.215  0.0869 -0.0921  0.0995
  134SOL     hw  535   6.783   4.441   6.153 -0.5251 -0.8694 -0.0165
  134SOL     vw  536   6.747   4.518   6.173  0.0720 -0.6161  0.1116
  135SOL     ow  537   6.330   1.238   5.822 -0.4338  0.3337  0.1403
  135SOL     hw  538   6.317   1.180   5.897  0.8815 -0.3687 -0.1568
  135SOL     hw  539   6.300   1.187   5.747  1.1327 -0.1670 -0.1781
  135SOL     vw  540   6.324   1.224   5.822 -0.0536  0.1750  0.0591
  136SOL     ow  541   6.219   0.783   1.087  0.1890 -0.4955 -0.6426
  136SOL     hw  542   6.137   0.767   1.040 -0.3827 -2.3696  0.8260
  136SOL     hw  543   6.192   0.793   1.179  1.4922  0.1968 -0.3124
  136SOL     vw  544   6.205   0.782   1.093  0.2854 -0.6514 -0.4053
  137SOL     ow  545   2.434   6.046   3.638 -0.5505 -0.6760 -0.1443
  137SOL     hw  546   2.372   6.117   3.620  0.3478  0.3482  0.6775
  137SOL     hw  547   2.469   6.022   3.552  1.4595  2.0734 -0.2210
  137SOL     vw  548   2.430   6.052   3.624 -0.1667 -0.1781 -0.0460
  138SOL     ow  549   3.042   1.413   6.018 -0.1779  0.6588 -0.0233
  138SOL     hw  550   2.973   1.453   5.966 -0.6124 -0.7009 -0.5321
  138SOL     hw  551   3.068   1.335   5.969  1.7060  1.1144  0.1795
  138SOL     vw  552   3.036   1.408   6.005  0.0134  0.5396 -0.0637
  139SOL     ow  553   2.450   1.351   0.258 -0.0960  0.0400  0.2856
  139SOL     hw  554   2.398   1.277   0.227 -2.6129  1.1582  1.5800
  139SOL     hw  555   2.440   1.418   0.190  1.0649 -0.2932 -0.2394
  139SOL     vw  556   2.442   1.350   0.245 -0.2749  0.1436  0.3871
  140SOL     ow  557   2.984   2.164   0.027 -0.1326 -0.1126 -0.3578
  140SOL     hw  558   2.981   2.182   0.121  0.4950  0.4432 -0.4323
  140SOL     hw  559   2.968   2.249  -0.014  1.3336  0.0161 -0.7309
  140SOL     vw  560   2.982   2.178   0.034  0.1439 -0.0224 -0.4170
  141SOL     ow  561   3.033   2.004   2.484 -0.0171  0.2434 -0.2093
  141SOL     hw  562   2.995   2.026   2.399 -0.2783 -2.0653 -0.7602
  141SOL     hw  563   2.979   2.050   2.548 -0.0538  1.7051 -1.2579
  141SOL     vw  564   3.021   2.013   2.481 -0.0563  0.1317 -0.4203
  142SOL     ow  565   4.094   5.082   3.149 -0.2812 -0.2951 -0.9414
  142SOL     hw  566   4.031   5.094   3.219 -1.3042  0.3343 -1.9396
  142SOL     hw  567   4.073   5.149   3.085  0.6138 -0.8573 -1.8710
  142SOL     vw  568   4.083   5.092   3.150 -0.2983 -0.2861 -1.1958
  143SOL     ow  569   5.023   4.621   2.339  0.2174  0.6350 -0.1180
  143SOL     hw  570   5.105   4.654   2.376  0.4536  0.8269 -0.7911
  143SOL     hw  571   5.022   4.528   2.361  0.3374  0.7494  0.3861
  143SOL     vw  572   5.034   4.613   2.347  0.2644  0.6754 -0.1403
  144SOL     ow  573   2.828   0.773   3.325 -0.2401  0.0516  0.3818
  144SOL     hw  574   2.832   0.707   3.256 -0.1946 -0.3072  0.7244
  144SOL     hw  575   2.873   0.849   3.288 -0.9328  0.1426 -0.2838
  144SOL     vw  576   2.834   0.774   3.311 -0.3254  0.0162  0.3390
  145SOL     ow  577   3.871   1.775   0.731  0.5337  0.0093  0.0281
  145SOL     hw  578   3.963   1.778   0.755  0.9544  0.7122 -1.5377
  145SOL     hw  579   3.840   1.691   0.765  2.1318 -0.9335 -0.7321
  145SOL     vw  580   3.879   1.765   0.739  0.8001 -0.0224 -0.2788
  146SOL     ow  581   6.140   4.328   5.387  0.3032  0.3910 -0.0105
  146SOL     hw  582   6.204   4.277   5.438 -1.5979 -2.1601  0.0283
  146SOL     hw  583   6.191   4.365   5.315  2.2783  0.6412  1.4350
  146SOL     vw  584   6.156   4.326   5.384  0.3130  0.0875  0.1853
  147SOL     ow  585   3.975   4.651   4.958 -0.0123  0.0092  0.5818
  147SOL     hw  586   3.985   4.645   4.863 -2.3970  1.9082  0.1238
  147SOL     hw  587   3.918   4.577   4.981  0.2899 -0.2523  0.4956
  147SOL     vw  588   3.969   4.640   4.949 -0.2872  0.2253  0.5102
  148SOL     ow  589   2.432   6.465   3.689  0.3763 -0.0477  0.1530
  148SOL     hw  590   2.394   6.485   3.775 -0.2235 -1.8729  0.3596
  148SOL     hw  591   2.364   6.415   3.645 -0.6368  3.4568 -2.6942
  148SOL     vw  592   2.418   6.461   3.695  0.1636  0.1740 -0.1953
  149SOL     ow  593   2.605   3.307   1.481  0.7309  0.2272  0.0390
  149SOL     hw  594   2.639   3.382   1.531 -2.5686  2.4080 -0.6560
  149SOL     hw  595   2.564   3.251   1.547 -0.0088  0.9753  0.2331
  149SOL     vw  596   2.605   3.310   1.497  0.1980  0.6136 -0.0271
  150SOL     ow  597   4.674   4.648   1.275  0.0922 -0.1443 -0.6261
  150SOL     hw  598   4.692   4.638   1.369  1.0958  1.6643 -0.5815
  150SOL     hw  599   4.579   4.653   1.269  0.0187 -0.2762  0.3002
  150SOL     vw  600   4.664   4.648   1.287  0.2146  0.0770 -0.4981
  151SOL     ow  601   2.505   5.683   3.482  0.9935 -0.0875 -0.3995
  151SOL     hw  602   2.579   5.703   3.424  1.3548 -1.6855 -0.5295
  151SOL     hw  603   2.528   5.599   3.522  0.1822  0.3830  1.1342
  151SOL     vw  604   2.518   5.675   3.480  0.9341 -0.2363 -0.2143
  152SOL     ow  605   4.241   5.124   5.762 -0.5481 -0.0080 -0.2609
  152SOL     hw  606   4.160   5.074   5.772 -1.1044  0.5437 -1.6499
  152SOL     hw  607   4.305   5.060   5.730 -0.5599 -0.3503  0.3978
  152SOL     vw  608   4.239   5.109   5.759 -0.6230  0.0200 -0.3572
  153SOL     ow  609   1.960   2.239   2.028  0.4379  0.1887 -0.2302
  153SOL     hw  610   1.921   2.155   2.002  0.2451  0.2111 -0.0148
  153SOL     hw  611   2.034   2.214   2.083  1.4595  0.1074 -1.5894
  153SOL     vw  612   1.965   2.225   2.032  0.5472  0.1810 -0.3811
  154SOL     ow  613   2.037   4.445   2.598  0.1433 -0.4633  0.1867
  154SOL     hw  614   1.965   4.455   2.536  1.4164 -0.8053 -1.4180
  154SOL     hw  615   1.996   4.413   2.678 -1.6036  0.3405 -0.3416
  154SOL     vw  616   2.022   4.442   2.601  0.0808 -0.4025 -0.0949
  155SOL     ow  617   3.671   2.097   3.064 -0.4182  0.4480 -0.1156
  155SOL     hw  618   3.714   2.072   2.982 -1.7116  1.1008 -1.0450
  155SOL     hw  619   3.582   2.061   3.056 -0.0015 -1.2138  1.9060
  155SOL     vw  620   3.665   2.089   3.052 -0.5339  0.3148  0.0285
  156SOL     ow  621   1.999   4.410   0.423 -0.4418  0.0529 -0.2574
  156SOL     hw  622   2.009   4.504   0.410  1.1953 -0.0745 -0.1844
  156SOL     hw  623   2.040   4.393   0.508  0.2588 -0.8562 -0.7512
  156SOL     vw  624   2.006   4.420   0.433 -0.1333 -0.0837 -0.3129
  157SOL     ow  625   0.209   3.428   3.319 -0.5548 -0.0779 -0.2547
  157SOL     hw  626   0.245   3.468   3.240 -3.0716 -1.0660 -2.0449
  157SOL     hw  627   0.138   3.372   3.287 -0.6857 -1.7414  2.6004
  157SOL     vw  628   0.204   3.426   3.305 -0.9041 -0.4277 -0.1141
  158SOL     ow  629   2.645   2.804   5.032 -0.4921 -0.0794  0.3053
  158SOL     hw  630   2.585   2.819   4.959  0.4514  2.7771 -0.0041
  158SOL     hw  631   2.665   2.892   5.066  1.0809 -1.1368  2.3895
  158SOL     vw  632   2.640   2.818   5.027 -0.1600  0.1578  0.5393
  159SOL     ow  633   1.953   2.935   1.738 -0.5372  0.2688 -0.5368
  159SOL     hw  634   2.036   2.890   1.749 -0.3213  0.6044 -0.7632
  159SOL     hw  635   1.890   2.866   1.716 -0.4531 -0.0703  0.2499
  159SOL     vw  636   1.956   2.920   1.737 -0.4976  0.2685 -0.4629
  160SOL     ow  637   4.811   2.297   4.398  0.1016  0.8679 -0.4079
  160SOL     hw  638   4.799   2.252   4.315 -1.9668  0.6075 -0.0311
  160SOL     hw  639   4.888   2.352   4.385  1.0839 -0.7472 -1.7694
  160SOL     vw  640   4.819   2.298   4.385 -0.0417  0.6205 -0.5379
  161SOL     ow  641   6.804   6.623   6.379  0.5391 -0.6022  0.7241
  161SOL     hw  642   6.749   6.699   6.358  0.0151 -0.3314  2.8655
  161SOL     hw  643   6.766   6.551   6.329  0.4321  0.3202 -0.5664
  161SOL     vw  644   6.792   6.624   6.370  0.4556 -0.4444  0.8361
  162SOL     ow  645   1.888   4.746   3.864  0.1994  0.6951  0.1775
  162SOL     hw  646   1.858   4.731   3.954 -2.3256  0.1635 -0.6869
  162SOL     hw  647   1.965   4.802   3.874 -1.1343  2.2768  2.6071
  162SOL     vw  648   1.894   4.751   3.877 -0.3097  0.8337  0.3841
  163SOL     ow  649   6.757   1.669   0.568 -0.2765 -0.2807 -0.2202
  163SOL     hw  650   6.699   1.630   0.633  0.9261 -2.9733 -0.6454
  163SOL     hw  651   6.698   1.711   0.505 -1.5552 -0.0574  1.0763
  163SOL     vw  652   6.741   1.670   0.568 -0.2866 -0.6065 -0.1052
  164SOL     ow  653   5.276   2.245   2.556 -0.8585 -0.1260  0.0150
  164SOL     hw  654   5.218   2.320   2.544 -1.9681 -1.2006 -1.7890
  164SOL     hw  655   5.274   2.229   2.650 -1.9241  1.0880  0.2337
  164SOL     vw  656   5.268   2.253   2.567 -1.1454 -0.1076 -0.1941
  165SOL     ow  657   5.096   3.407   7.033  0.0061  0.6895  0.4257
  165SOL     hw  658   5.006   3.377   7.041 -0.7968  2.4476 -1.3975
  165SOL     hw  659   5.115   3.403   6.940  1.9025  0.2064  0.7833
  165SOL     vw  660   5.087   3.402   7.022  0.1504  0.8576  0.2325
  166SOL     ow  661   5.832   6.323   6.768  0.0986 -0.2095 -0.5861
  166SOL     hw  662   5.809   6.234   6.793 -0.3219  0.3537  1.1946
  166SOL     hw  663   5.756   6.376   6.793  1.2439  0.9543  0.5987
  166SOL     vw  664   5.819   6.318   6.774  0.1943  0.0184 -0.1950
  167SOL     ow  665   2.053   2.495   3.400 -0.2526 -0.5514  0.6291
  167SOL     hw  666   2.071   2.588   3.412  0.7544 -0.4066 -1.5316
  167SOL     hw  667   1.957   2.491   3.390 -0.1681  0.6126 -1.3529
  167SOL     vw  668   2.042   2.507   3.400 -0.1085 -0.3788  0.0825
  168SOL     ow  669   3.220   4.163   2.648  0.3755 -0.1524  0.1157
  168SOL     hw  670   3.263   4.182   2.565 -1.5780 -2.7949 -1.6485
  168SOL     hw  671   3.150   4.228   2.654  0.9553  0.4912  0.1177
  168SOL     vw  672   3.216   4.174   2.638  0.1942 -0.4163 -0.1168
  169SOL     ow  673   2.533   2.927   2.409 -0.5442  0.0654 -0.3137
  169SOL     hw  674   2.463   2.963   2.464  2.7185  1.9776  3.0406
  169SOL     hw  675   2.507   2.836   2.395 -4.2512  0.9611 -0.4210
  169SOL     vw  676   2.520   2.920   2.414 -0.6028  0.4359  0.1147
  170SOL     ow  677   5.370   5.247   6.051  0.2572  0.2765  0.3405
  170SOL     hw  678   5.308   5.200   6.107 -0.5894  1.1108  0.1345
  170SOL     hw  679   5.395   5.324   6.102  0.2761  0.5093 -0.0162
  170SOL     vw  680   5.365   5.251   6.065  0.1478  0.4177  0.2661
  171SOL     ow  681   4.217   1.325   1.592 -0.2130 -0.0874 -0.0785
  171SOL     hw  682   4.153   1.293   1.528  0.3354 -0.2961 -0.5302
  171SOL     hw  683   4.302   1.298   1.557  0.0693 -0.6024  0.9671
  171SOL     vw  684   4.220   1.317   1.579 -0.1032 -0.1829 -0.0001
  172SOL     ow  685   3.315   5.295   2.245  0.0567  0.5282  0.6176
  172SOL     hw  686   3.232   5.339   2.230  0.6527  1.2139 -0.8597
  172SOL     hw  687   3.380   5.365   2.244  0.9254 -0.2526 -0.8545
  172SOL     vw  688   3.313   5.310   2.243  0.2500  0.5157  0.2284
  173SOL     ow  689   6.917   2.602   0.243  0.4051  0.2415 -0.4657
  173SOL     hw  690   6.919   2.632   0.152 -2.2679  2.5886  0.0965
  173SOL     hw  691   6.940   2.680   0.295 -0.4319 -0.3870  0.9162
  173SOL     vw  692   6.920   2.616   0.238 -0.0582  0.4683 -0.2092
  174SOL     ow  693   4.075   6.397   2.081  0.5152 -0.5408  0.2302
  174SOL     hw  694   4.016   6.340   2.032  1.0956 -1.1095  0.1761
  174SOL     hw  695   4.040   6.486   2.068 -1.0278 -0.9700  1.1942
  174SOL     vw  696   4.062   6.402   2.073  0.3881 -0.6723  0.3502
  175SOL     ow  697   4.751   4.293   0.303  0.1700 -0.5411  0.5241
  175SOL     hw  698   4.840   4.314   0.329  0.2804 -1.6750  1.1373
  175SOL     hw  699   4.744   4.198   0.316  0.2193 -1.2941 -3.4954
  175SOL     vw  700   4.762   4.283   0.308  0.1910 -0.7901  0.0747
  176SOL     ow  701   6.597   1.754   0.374 -0.1431  0.0292 -0.0029
  176SOL     hw  702   6.522   1.696   0.361 -0.6020  0.6344 -0.1172
  176SOL     hw  703   6.632   1.768   0.286 -0.5068  0.5417 -0.0681
  176SOL     vw  704   6.591   1.748   0.360 -0.2515  0.1767 -0.0266
  177SOL     ow  705   5.561   3.028   2.725  0.0015 -0.2567  0.2192
  177SOL     hw  706   5.615   3.028   2.805  1.3794  2.4780 -0.5819
  177SOL     hw  707   5.544   2.935   2.708  1.7059 -1.0552  2.3459
  177SOL     vw  708   5.566   3.015   2.734  0.4082 -0.0011  0.3941
  178SOL     ow  709   4.891   1.869   2.384  0.0362  0.4876 -0.1793
  178SOL     hw  710   4.855   1.910   2.462  0.7978 -0.7673  0.8829
  178SOL     hw  711   4.822   1.811   2.353  0.0201  0.3764  0.0584
  178SOL     vw  712   4.877   1.866   2.390  0.1347  0.3073 -0.0079
  179SOL     ow  713   2.254   3.606   0.457  0.2583 -0.4559 -0.6993
  179SOL     hw  714   2.197   3.676   0.490  0.2597 -0.7189 -0.1339
  179SOL     hw  715   2.200   3.559   0.394 -0.5990 -1.4795  0.7438
  179SOL     vw  716   2.239   3.609   0.453  0.1452 -0.6257 -0.4343
  180SOL     ow  717   5.622   2.655   5.917  0.1216  0.3534 -0.7222
  180SOL     hw  718   5.574   2.718   5.970  0.6700 -0.6951  1.1421
  180SOL     hw  719   5.655   2.705   5.843  0.9292  2.3964  0.9163
  180SOL     vw  720   5.620   2.670   5.914  0.3004  0.4846 -0.2599
  181SOL     ow  721   2.740   1.427   2.397 -0.0757  0.1430  0.0562
  181SOL     hw  722   2.646   1.444   2.401 -0.0167  0.3512  0.7537
  181SOL     hw  723   2.772   1.449   2.485  1.0804  2.7374 -0.9194
  181SOL     vw  724   2.732   1.432   2.409  0.0848  0.5128  0.0196
  182SOL     ow  725   5.287   1.235   0.572 -0.2784  0.4224 -0.0291
  182SOL     hw  726   5.311   1.143   0.582 -0.0301  0.5160  0.2693
  182SOL     hw  727   5.304   1.255   0.480 -2.1205 -0.3267 -0.5599
  182SOL     vw  728   5.292   1.226   0.561 -0.4890  0.3359 -0.0598
  183SOL     ow  729   4.844   3.829   3.571  0.7066  0.0278 -0.1121
  183SOL     hw  730   4.880   3.752   3.527  2.4610  0.9628 -0.4047
  183SOL     hw  731   4.858   3.813   3.664 -2.4409 -1.6706  0.1986
  183SOL     vw  732   4.851   3.816   3.577  0.5229 -0.0730 -0.1098
  184SOL     ow  733   4.819   4.876   4.302  0.5844 -0.3927  0.4234
  184SOL     hw  734   4.882   4.815   4.340  0.5985  0.2622  1.4924
  184SOL     hw  735   4.767   4.907   4.377  0.0892  0.3274 -0.2017
  184SOL     vw  736   4.820   4.872   4.317  0.5209 -0.2115  0.4818
  185SOL     ow  737   2.704   6.905   0.991  0.2512  0.0996  0.4974
  185SOL     hw  738   2.611   6.920   0.973 -0.3371 -0.3920  2.8825
  185SOL     hw  739   2.706   6.833   1.054  2.1570  0.9574  1.5028
  185SOL     vw  740   2.692   6.898   0.997  0.4249  0.1478  0.9447
  186SOL     ow  741   5.610   0.210   1.122  0.0532 -0.9745 -0.1160
  186SOL     hw  742   5.587   0.297   1.154 -1.0432 -1.1811 -0.2823
  186SOL     hw  743   5.692   0.223   1.074 -1.2818  0.4612 -2.1867
  186SOL     vw  744   5.618   0.223   1.120 -0.2675 -0.8123 -0.4112
  187SOL     ow  745   1.984   1.717   6.023 -0.1247  0.0197  0.2039
  187SOL     hw  746   1.949   1.638   6.064  0.3000  0.0581  0.6566
  187SOL     hw  747   1.995   1.694   5.931  1.1372 -0.8701  0.5488
  187SOL     vw  748   1.981   1.704   6.016  0.0978 -0.0926  0.3092
  188SOL     ow  749   6.074   5.366   3.752 -0.1779  0.0040 -0.1752
  188SOL     hw  750   6.084   5.419   3.673 -1.0012  0.9186  0.3164
  188SOL     hw  751   6.125   5.287   3.735 -0.3312  0.2018 -1.6084
  188SOL     vw  752   6.082   5.362   3.740 -0.3071  0.1507 -0.2995
  189SOL     ow  753   0.737   6.289   4.426 -0.3460 -0.3525  0.4041
  189SOL     hw  754   0.803   6.324   4.365  0.1064  1.4700  1.8351
  189SOL     hw  755   0.656   6.334   4.401 -0.2038  0.2424  0.9776
  189SOL     vw  756   0.735   6.300   4.415 -0.2675 -0.0336  0.6685
  190SOL     ow  757   2.902   1.493   2.613  0.2697 -0.1959 -0.1002
  190SOL     hw  758   2.929   1.425   2.674 -0.8961 -0.1058  0.5575
  190SOL     hw  759   2.830   1.539   2.658  0.0180  0.4816 -1.1458
  190SOL     vw  760   2.896   1.490   2.627  0.0826 -0.0945 -0.1514
  191SOL     ow  761   5.559   5.489   1.751 -0.3883  1.2256  0.1930
  191SOL     hw  762   5.545   5.417   1.689  1.5031 -1.0650  2.2158
  191SOL     hw  763   5.595   5.560   1.698  2.1497 -0.9777 -1.2901
  191SOL     vw  764   5.562   5.489   1.735  0.1962  0.6325  0.2642
  192SOL     ow  765   7.006   5.595   3.774 -0.3276 -0.3043  0.5598
  192SOL     hw  766   6.933   5.594   3.836  0.2811 -0.9191  1.2966
  192SOL     hw  767   7.083   5.612   3.829  0.1191  0.0252 -0.1592
  192SOL     vw  768   7.007   5.597   3.790 -0.1886 -0.3421  0.5620
  193SOL     ow  769   6.979   6.115   1.060 -0.3323 -0.4452  0.3404
  193SOL     hw  770   7.064   6.144   1.094  0.3609  0.5517 -2.0738
  193SOL     hw  771   6.923   6.113   1.137  1.2476  1.2571  1.6296
  193SOL     vw  772   6.983   6.118   1.075 -0.0324 -0.0889  0.1919
  194SOL     ow  773   2.400   2.533   0.827  0.3135  0.2073  0.6111
  194SOL     hw  774   2.381   2.624   0.804  0.1156 -0.1279 -0.6081
  194SOL     hw  775   2.496   2.526   0.822  0.2518 -0.0051 -0.7981
  194SOL     vw  776   2.410   2.544   0.823  0.2793  0.1351  0.2643
  195SOL     ow  777   1.123   2.031   3.182  0.5876 -0.0490 -0.4984
  195SOL     hw  778   1.189   1.965   3.205 -0.8509 -1.9217 -1.4456
  195SOL     hw  779   1.079   2.050   3.265  0.1877 -1.3000 -0.3972
  195SOL     vw  780   1.126   2.025   3.196  0.3451 -0.4611 -0.6100
  196SOL     ow  781   5.466   3.126   3.923  0.0309  0.3848 -0.3033
  196SOL     hw  782   5.440   3.049   3.972 -4.3079  0.4041 -2.1704
  196SOL     hw  783   5.473   3.195   3.989  0.9869 -0.8857  0.9919
  196SOL     vw  784   5.464   3.125   3.938 -0.4153  0.2198 -0.3787
  197SOL     ow  785   6.021   6.453   3.886 -0.1597  0.4833 -0.7575
  197SOL     hw  786   6.068   6.494   3.813  0.0183 -0.9414 -1.4877
  197SOL     hw  787   6.041   6.507   3.962  0.2823  1.5614 -1.6242
  197SOL     vw  788   6.030   6.465   3.886 -0.0782  0.4380 -0.9681
  198SOL     ow  789   4.678   6.890   0.454 -0.0350 -0.0832  1.1069
  198SOL     hw  790   4.728   6.811   0.436  0.6382  0.1944  1.7012
  198SOL     hw  791   4.671   6.934   0.370 -4.0832 -2.7632 -0.2573
  198SOL     vw  792   4.684   6.885   0.441 -0.4804 -0.4003  1.0053
  199SOL     ow  793   6.914   1.463   5.017 -0.0441  0.2518  0.0456
  199SOL     hw  794   6.877   1.543   4.979 -1.7582  0.3094  1.6376
  199SOL     hw  795   6.918   1.401   4.945 -3.4317  0.2496 -0.3005
  199SOL     vw  796   6.909   1.466   5.003 -0.7172  0.2592  0.2100
  200SOL     ow  797   6.418   4.449   1.979 -0.5169 -0.1940 -0.3430
  200SOL     hw  798   6.398   4.478   1.889 -0.8688 -2.5422 -1.0813
  200SOL     hw  799   6.333   4.426   2.016 -0.3493  0.5916  0.5542
  200SOL     vw  800   6.404   4.450   1.972 -0.5412 -0.3998 -0.3220
  201SOL     ow  801   2.222   1.783   6.193 -0.4073  0.1389 -0.5475
  201SOL     hw  802   2.308   1.778   6.152  0.4328  2.0293  0.8321
  201SOL     hw  803   2.230   1.728   6.271 -0.9236 -0.7611 -1.1058
  201SOL     vw  804   2.235   1.775   6.198 -0.3645  0.2696 -0.4389
  202SOL     ow  805   2.324   4.552   2.725  0.1305  0.2719 -0.2809
  202SOL     hw  806   2.418   4.567   2.721  0.3374 -1.1453 -1.7548
  202SOL     hw  807   2.285   4.628   2.681  0.5877  0.7457  0.1216
  202SOL     vw  808   2.331   4.564   2.719  0.2182  0.1476 -0.4222
  203SOL     ow  809   0.395   5.553   6.180  0.1350 -0.1727  0.2040
  203SOL     hw  810   0.368   5.557   6.089  0.9869 -1.8391 -0.1712
  203SOL     hw  811   0.399   5.644   6.209  0.2626  0.3997 -1.5369
  203SOL     vw  812   0.392   5.565   6.172  0.2642 -0.3169 -0.0753
  204SOL     ow  813   4.729   6.095   5.625  0.3438 -0.1895 -0.2481
  204SOL     hw  814   4.679   6.018   5.599 -0.6455  0.5387 -0.5928
  204SOL     hw  815   4.743   6.143   5.544 -0.1860  0.6256  0.1262
  204SOL     vw  816   4.724   6.091   5.611  0.1433  0.0141 -0.2439
  205SOL     ow  817   2.686   5.022   6.365  0.3365 -0.4645 -0.2573
  205SOL     hw  818   2.643   5.083   6.424  2.4704 -0.4763  1.4131
  205SOL     hw  819   2.778   5.021   6.393  1.1229 -1.6691 -2.5844
  205SOL     vw  820   2.693   5.030   6.376  0.7219 -0.6251 -0.3440
  206SOL     ow  821   6.364   6.427   4.463  0.3587 -0.0168  0.6613
  206SOL     hw  822   6.294   6.374   4.425  0.8860 -1.4186  1.5477
  206SOL     hw  823   6.422   6.447   4.389 -0.3340  0.1166  0.1455
  206SOL     vw  824   6.362   6.423   4.448  0.3369 -0.1841  0.7102
  207SOL     ow  825   3.614   2.388   1.700  0.2632 -0.1372 -0.3832
  207SOL     hw  826   3.540   2.329   1.683 -1.3072  1.3552  0.9058
  207SOL     hw  827   3.605   2.457   1.634 -0.2258  0.6609  0.4955
  207SOL     vw  828   3.603   2.389   1.689 -0.0086  0.1650 -0.0972
  208SOL     ow  829   6.474   0.422   6.141 -0.1702 -0.5688 -0.5400
  208SOL     hw  830   6.503   0.379   6.060  2.1363  0.5418 -0.3755
  208SOL     hw  831   6.420   0.495   6.111 -1.0332 -1.3364 -0.9445
  208SOL     vw  832   6.470   0.426   6.126  0.0203 -0.5236 -0.5717
  209SOL     ow  833   2.845   1.697   2.974  0.3539 -1.2275 -0.4419
  209SOL     hw  834   2.864   1.783   3.011  0.1273 -0.7881 -1.3307
  209SOL     hw  835   2.931   1.656   2.964  0.5658 -0.6448 -1.0941
  209SOL     vw  836   2.859   1.703   2.978  0.3519 -1.0927 -0.6452
  210SOL     ow  837   0.246   3.069   5.196  0.2971 -0.2975 -0.2337
  210SOL     hw  838   0.271   3.138   5.134  1.0036 -1.0458 -0.8030
  210SOL     hw  839   0.294   3.091   5.276 -0.9887  0.9405  0.2304
  210SOL     vw  840   0.256   3.081   5.198  0.2207 -0.2328 -0.2475
  211SOL     ow  841   5.118   1.654   0.835 -0.2393 -0.0182 -0.1152
  211SOL     hw  842   5.061   1.663   0.911  0.7511 -2.5493  1.0344
  211SOL     hw  843   5.149   1.743   0.817 -2.6630  1.0589  0.6609
  211SOL     vw  844   5.114   1.667   0.843 -0.4282 -0.2100  0.1388
  212SOL     ow  845   2.441   4.020   1.801  0.1627  0.1372 -0.1563
  212SOL     hw  846   2.413   4.057   1.885 -0.3378 -1.1034  0.2438
  212SOL     hw  847   2.517   3.965   1.823 -2.6774 -4.0457  0.4258
  212SOL     vw  848   2.447   4.017   1.815 -0.2780 -0.5784 -0.0268
  213SOL     ow  849   6.006   6.922   1.908  0.2124  0.2747 -0.3148
  213SOL     hw  850   6.097   6.935   1.880  0.1912 -0.5656 -0.8157
  213SOL     hw  851   6.006   6.837   1.952  0.0092  1.0740  1.2952
  213SOL     vw  852   6.018   6.912   1.910  0.1829  0.2694 -0.1685
  214SOL     ow  853   4.939   0.706   4.510  0.2440  0.2561 -0.2750
  214SOL     hw  854   4.881   0.637   4.542 -2.0229  1.4964 -1.4558
  214SOL     hw  855   4.937   0.773   4.579  0.0667  0.4039 -0.4225
  214SOL     vw  856   4.931   0.706   4.524 -0.0784  0.4393 -0.4501
  215SOL     ow  857   3.483   0.680   6.216 -0.1216 -0.5722 -0.6247
  215SOL     hw  858   3.554   0.638   6.264 -0.5888 -1.9600 -1.0963
  215SOL     hw  859   3.520   0.703   6.131 -0.0424 -0.6323 -0.6057
  215SOL     vw  860   3.497   0.678   6.211 -0.1727 -0.7633 -0.6843
  216SOL     ow  861   4.106   3.581   3.747  0.0241  0.0453  0.5779
  216SOL     hw  862   4.171   3.636   3.703  0.5272 -0.5201  0.6028
  216SOL     hw  863   4.037   3.643   3.774 -0.0494  0.4698 -0.5360
  216SOL     vw  864   4.105   3.597   3.745  0.0811  0.0267  0.4343
  217SOL     ow  865   5.626   5.145   6.119 -0.3082 -0.3747 -0.2648
  217SOL     hw  866   5.553   5.202   6.093  0.7716  1.7608  1.0921
  217SOL     hw  867   5.605   5.121   6.210 -0.5148 -1.8314 -0.6746
  217SOL     vw  868   5.613   5.150   6.128 -0.1931 -0.2854 -0.1400
  218SOL     ow  869   3.932   6.258   1.151 -0.0118 -0.1217  0.6406
  218SOL     hw  870   3.894   6.334   1.108  1.5370 -0.1499 -0.8890
  218SOL     hw  871   4.021   6.253   1.116  0.9046 -0.9370  2.9079
  218SOL     vw  872   3.939   6.267   1.141  0.3135 -0.2329  0.7379
  219SOL     ow  873   6.871   5.798   4.902 -0.0791 -0.6097 -0.2200
  219SOL     hw  874   6.819   5.748   4.965 -0.2851  0.2992  0.3465
  219SOL     hw  875   6.813   5.806   4.826 -0.8579  0.5133  0.4568
  219SOL     vw  876   6.856   5.792   4.900 -0.2089 -0.3417 -0.0558
  220SOL     ow  877   4.860   7.070   1.916  0.0224 -0.3197  0.1035
  220SOL     hw  878   4.887   7.001   1.976 -1.2073  1.2609  2.6694
  220SOL     hw  879   4.938   7.125   1.905  0.0956 -0.2734  0.8148
  220SOL     vw  880   4.874   7.068   1.922 -0.1299 -0.1050  0.5359
  221SOL     ow  881   3.536   4.923   3.921  0.4467  0.3183  0.5592
  221SOL     hw  882   3.473   4.973   3.870 -1.8006 -1.8509  0.9961
  221SOL     hw  883   3.526   4.833   3.889  0.8849 -0.6447  2.9442
  221SOL     vw  884   3.526   4.918   3.910  0.2080 -0.0949  0.9314
  222SOL     ow  885   2.056   0.975   5.342  0.8843 -0.5931  0.2756
  222SOL     hw  886   2.060   0.989   5.247 -1.0967  1.3060  0.4129
  222SOL     hw  887   2.095   1.054   5.380  0.9842 -1.0138  1.0770
  222SOL     vw  888   2.062   0.987   5.334  0.6361 -0.3981  0.3994
  223SOL     ow  889   6.388   0.130   3.669  0.2970 -0.0041  0.4770
  223SOL     hw  890   6.432   0.130   3.584 -1.4469  2.3710 -0.5389
  223SOL     hw  891   6.309   0.077   3.655 -0.7392  1.5888  0.1416
  223SOL     vw  892   6.383   0.123   3.656 -0.0699  0.5194  0.2989
  224SOL     ow  893   5.559   6.228   6.114 -0.1815 -0.2115  0.3675
  224SOL     hw  894   5.554   6.191   6.202 -1.5735  0.0466  0.4301
  224SOL     hw  895   5.567   6.322   6.127 -1.0385 -0.1106  0.2390
  224SOL     vw  896   5.559   6.236   6.127 -0.4785 -0.1640  0.3588
  225SOL     ow  897   0.149   5.612   3.909 -0.0920  0.7116 -0.0260
  225SOL     hw  898   0.234   5.573   3.933  0.5196  1.4000 -1.0231
  225SOL     hw  899   0.149   5.697   3.952 -1.4961 -0.3520  2.2810
  225SOL     vw  900   0.160   5.618   3.918 -0.1966  0.6621  0.1467
  226SOL     ow  901   3.871   6.401   6.143  0.0626 -0.4854 -0.1395
  226SOL     hw  902   3.822   6.476   6.111 -1.8032 -1.3155  0.6409
  226SOL     hw  903   3.847   6.329   6.083  3.6964 -0.0667 -2.4250
  226SOL     vw  904   3.862   6.401   6.130  0.2959 -0.5395 -0.3381
  227SOL     ow  905   3.707   4.503   3.181 -0.3781  0.1294 -0.5669
  227SOL     hw  906   3.774   4.454   3.229  1.3000  1.3978 -1.5059
  227SOL     hw  907   3.676   4.569   3.242 -0.4520 -0.1864 -0.2635
  227SOL     vw  908   3.712   4.505   3.195 -0.1665  0.2549 -0.6506
  228SOL     ow  909   4.306   5.720   0.440 -0.2680 -0.3939  0.1248
  228SOL     hw  910   4.296   5.807   0.477 -1.1001 -0.5436  0.2784
  228SOL     hw  911   4.393   5.720   0.399 -0.2330  0.4678  0.1961
  228SOL     vw  912   4.316   5.731   0.440 -0.3734 -0.3002  0.1545
  229SOL     ow  913   5.305   6.645   5.746 -0.1335 -0.3633  0.2206
  229SOL     hw  914   5.322   6.714   5.810 -1.4146  0.0228  0.1869
  229SOL     hw  915   5.225   6.674   5.701  0.9222 -0.4403 -1.8079
  229SOL     vw  916   5.297   6.658   5.749 -0.1633 -0.3228 -0.0515
  230SOL     ow  917   6.230   0.311   4.630  0.3709  0.6186  0.2378
  230SOL     hw  918   6.243   0.216   4.636  1.7915  0.7313 -0.5123
  230SOL     hw  919   6.293   0.339   4.563 -1.1541  1.8783 -0.7268
  230SOL     vw  920   6.240   0.302   4.622  0.3572  0.7997  0.0117
  231SOL     ow  921   1.709   4.878   5.998 -0.6836  0.1586 -0.3059
  231SOL     hw  922   1.709   4.851   5.906  0.5364 -0.8113 -0.0512
  231SOL     hw  923   1.638   4.828   6.038 -1.1732  0.5320 -0.6945
  231SOL     vw  924   1.700   4.868   5.991 -0.5873  0.0799 -0.3235
  232SOL     ow  925   0.104   5.273   5.144 -0.4150 -0.3147  0.2801
  232SOL     hw  926   0.106   5.232   5.058  0.0682 -0.7431  0.4907
  232SOL     hw  927   0.131   5.204   5.204  0.0172  0.2016  0.6886
  232SOL     vw  928   0.108   5.259   5.141 -0.2942 -0.3030  0.3619
  233SOL     ow  929   2.185   0.747   0.873 -0.4927 -0.4594  0.0736
  233SOL     hw  930   2.090   0.737   0.882 -0.5935 -0.5773 -0.9578
  233SOL     hw  931   2.212   0.797   0.950 -1.4502 -0.1097  0.1910
  233SOL     vw  932   2.176   0.752   0.884 -0.6324 -0.4288 -0.0470
  234SOL     ow  933   1.382   1.250   5.129  0.2881  0.1062  0.3708
  234SOL     hw  934   1.331   1.206   5.198  0.0458 -0.5831 -0.2368
  234SOL     hw  935   1.338   1.334   5.117 -0.5302 -0.3484  0.0766
  234SOL     vw  936   1.369   1.255   5.137  0.1481 -0.0448  0.2518
  235SOL     ow  937   2.286   5.045   1.563  0.1142 -0.0927 -0.5535
  235SOL     hw  938   2.256   4.974   1.507 -0.9240  0.5811 -0.8894
  235SOL     hw  939   2.381   5.035   1.566  0.0561 -0.9865 -1.2745
  235SOL     vw  940   2.295   5.034   1.556 -0.0304 -0.1218 -0.6930
  236SOL     ow  941   5.686   6.579   0.161 -0.1663  0.1375 -0.3254
  236SOL     hw  942   5.747   6.631   0.214  0.3856 -0.3053 -0.5144
  236SOL     hw  943   5.612   6.562   0.220 -0.4706  1.3298 -0.3398
  236SOL     vw  944   5.684   6.584   0.176 -0.1333  0.2363 -0.3523
  237SOL     ow  945   6.882   4.706   4.786 -0.4204  0.4535 -0.5589
  237SOL     hw  946   6.959   4.671   4.743  0.2782  2.4185 -1.0093
  237SOL     hw  947   6.870   4.651   4.864  1.4793  0.1611 -0.4387
  237SOL     vw  948   6.890   4.694   4.791 -0.0777  0.6745 -0.6025
  238SOL     ow  949   5.147   6.004   4.752 -0.3651 -0.0720  0.0141
  238SOL     hw  950   5.168   6.022   4.661 -0.7525  3.8388  0.5002
  238SOL     hw  951   5.190   6.074   4.801 -1.4172 -1.1479  2.6839
  238SOL     vw  952   5.155   6.016   4.746 -0.5548  0.3021  0.4306
  239SOL     ow  953   0.242   3.562   2.701 -0.2542 -0.5693  0.3228
  239SOL     hw  954   0.305   3.628   2.731  0.9195 -1.5415  0.0817
  239SOL     hw  955   0.198   3.603   2.627  2.1955 -0.8851 -1.4295
  239SOL     vw  956   0.245   3.576   2.695  0.2238 -0.7392  0.0597
  240SOL     ow  957   5.599   6.505   6.114 -0.1457 -0.1418  0.2297
  240SOL     hw  958   5.569   6.567   6.047  2.1539  1.0803  0.2366
  240SOL     hw  959   5.607   6.557   6.194 -0.1919 -0.9499  0.7719
  240SOL     vw  960   5.596   6.520   6.115  0.1512 -0.0873  0.3021
  241SOL     ow  961   2.039   4.072   0.392  0.0233 -0.0458  0.4041
  241SOL     hw  962   2.134   4.070   0.379 -0.0621 -0.2299 -0.2546
  241SOL     hw  963   2.022   4.005   0.459  0.3948  0.2619  0.8073
  241SOL     vw  964   2.049   4.063   0.399  0.0610 -0.0293  0.3704
  242SOL     ow  965   3.593   3.020   4.861  0.5193 -0.0042 -0.1324
  242SOL     hw  966   3.594   3.115   4.861  1.7790  0.0184  0.7276
  242SOL     hw  967   3.577   2.995   4.770 -2.5221  0.9798  0.0430
  242SOL     vw  968   3.591   3.029   4.849  0.2841  0.1286  0.0043
  243SOL     ow  969   0.074   1.442   4.742  0.0538 -0.5795  0.3260
  243SOL     hw  970   0.105   1.385   4.812  1.2479 -0.6716 -0.2345
  243SOL     hw  971   0.128   1.521   4.750 -1.3883  0.3791  0.9205
  243SOL     vw  972   0.085   1.445   4.752  0.0211 -0.4652  0.3304
  244SOL     ow  973   0.205   0.127   3.305 -0.0750 -0.5641  0.5200
  244SOL     hw  974   0.163   0.202   3.346 -0.1946 -0.0669 -0.4742
  244SOL     hw  975   0.298   0.152   3.299 -0.4113  0.4120 -1.6376
  244SOL     vw  976   0.212   0.140   3.309 -0.1352 -0.3697  0.1042
  245SOL     ow  977   6.531   3.600   5.020 -0.1393 -0.6269 -0.3054
  245SOL     hw  978   6.502   3.563   5.103  0.8480 -0.1595  0.2537
  245SOL     hw  979   6.475   3.677   5.008 -0.0149 -0.4673  0.1218
  245SOL     vw  980   6.520   3.605   5.029  0.0074 -0.5441 -0.1755
  246SOL     ow  981   5.576   3.849   5.162  0.2107 -0.4541 -0.0608
  246SOL     hw  982   5.653   3.799   5.190  0.2633  0.5472  1.7472
  246SOL     hw  983   5.535   3.877   5.244 -1.1048  0.4924 -1.0123
  246SOL     vw  984   5.581   3.846   5.177  0.0441 -0.1969  0.0522
  247SOL     ow  985   5.796   5.448   1.934  0.0946  0.0772  0.0474
  247SOL     hw  986   5.859   5.469   1.865 -0.2008  0.3463 -0.1442
  247SOL     hw  987   5.711   5.444   1.889  0.1594 -1.9387 -0.0199
  247SOL     vw  988   5.793   5.450   1.919  0.0641 -0.1531  0.0132
  248SOL     ow  989   1.182   0.476   5.814 -0.0176  0.3461 -0.2341
  248SOL     hw  990   1.116   0.413   5.786  0.0231  0.7550 -1.3253
  248SOL     hw  991   1.133   0.558   5.825  0.2317  0.5630 -0.6868
  248SOL     vw  992   1.166   0.479   5.812  0.0207  0.4287 -0.4380
  249SOL     ow  993   4.406   0.827   2.160  0.5589  0.3452 -0.1358
  249SOL     hw  994   4.377   0.899   2.217 -1.2372 -0.3540 -0.0995
  249SOL     hw  995   4.361   0.842   2.077  0.3854 -0.5749 -0.2204
  249SOL     vw  996   4.396   0.838   2.157  0.2990  0.1315 -0.1421
  250SOL     ow  997   3.326   4.940   0.707  0.0295 -0.4449  0.0940
  250SOL     hw  998   3.359   4.965   0.793  0.4221  0.0773 -0.2053
  250SOL     hw  999   3.321   5.022   0.658 -1.9257 -0.4688  0.1903
  250SOL     vw 1000   3.330   4.954   0.712 -0.1767 -0.3791  0.0672
  251SOL     ow 1001   6.347   5.056   0.049 -0.2162 -0.9309  0.5143
  251SOL     hw 1002   6.391   4.972   0.052 -1.4184 -1.6002  0.0094
  251SOL     hw 1003   6.319   5.067  -0.042 -0.5074 -0.2280  0.6765
  251SOL     vw 1004   6.349   5.046   0.038 -0.4137 -0.9267  0.4691
  252SOL     ow 1005   4.401   0.667   6.243  0.0960  0.3203  0.2662
  252SOL     hw 1006   4.329   0.610   6.216  0.8013 -0.6693  0.4568
  252SOL     hw 1007   4.394   0.743   6.185 -0.4730 -0.2334 -0.4091
  252SOL     vw 1008   4.390   0.670   6.232  0.1140  0.1167  0.2019
  253SOL     ow 1009   3.955   4.182   2.460 -0.0317  0.3137 -0.1521
  253SOL     hw 1010   3.936   4.210   2.549 -2.1855  0.6802 -0.6713
  253SOL     hw 1011   4.009   4.253   2.424  3.2557 -1.0845  1.5893
  253SOL     vw 1012   3.960   4.195   2.467  0.1179  0.1776  0.0092
  254SOL     ow 1013   5.954   1.224   2.249  0.1584  0.5312 -0.5223
  254SOL     hw 1014   5.880   1.214   2.309  0.8112  2.1397  0.6176
  254SOL     hw 1015   5.993   1.137   2.244  0.1689  0.3867  1.5240
  254SOL     vw 1016   5.949   1.211   2.256  0.2458  0.7243 -0.1017
  255SOL     ow 1017   3.358   3.458   4.618  0.4788  0.0017  0.2948
  255SOL     hw 1018   3.395   3.376   4.584  0.6063  0.1472  0.0838
  255SOL     hw 1019   3.416   3.483   4.690  0.1234 -0.3854  0.7201
  255SOL     vw 1020   3.370   3.450   4.623  0.4488 -0.0302  0.3231
  256SOL     ow 1021   4.610   1.138   6.809 -0.1412  0.3131 -0.0818
  256SOL     hw 1022   4.546   1.067   6.800 -0.2021  0.3932 -0.2799
  256SOL     hw 1023   4.641   1.153   6.720 -0.9833  1.3456 -0.2069
  256SOL     vw 1024   4.606   1.130   6.796 -0.2604  0.4598 -0.1245
  257SOL     ow 1025   0.012   2.641   6.454 -0.4024  0.5653  0.0948
  257SOL     hw 1026   0.107   2.651   6.447 -0.4859  0.3857 -1.8967
  257SOL     hw 1027  -0.011   2.583   6.382 -1.8455 -0.8335  1.6119
  257SOL     vw 1028   0.022   2.635   6.444 -0.6038  0.3570  0.0322
  258SOL     ow 1029   0.609   1.228   4.221 -0.9456 -0.3838 -0.3368
  258SOL     hw 1030   0.531   1.200   4.270  0.9551 -2.1135  1.9243
  258SOL     hw 1031   0.610   1.171   4.144 -1.0637 -1.5161  0.4684
  258SOL     vw 1032   0.599   1.217   4.218 -0.7103 -0.7614  0.0677
  259SOL     ow 1033   1.182   3.204   1.377  0.1371 -0.7865  0.6862
  259SOL     hw 1034   1.135   3.194   1.460  0.5331  0.6621  1.1099
  259SOL     hw 1035   1.177   3.297   1.357  2.1187 -0.7100  0.3324
  259SOL     vw 1036   1.175   3.215   1.385  0.4508 -0.5852  0.6955
  260SOL     ow 1037   0.822   4.701   0.840  0.3174 -0.2470 -0.6128
  260SOL     hw 1038   0.786   4.764   0.902 -0.7949 -2.1923  0.8167
  260SOL     hw 1039   0.761   4.703   0.766 -0.3252 -0.3893 -0.0995
  260SOL     vw 1040   0.809   4.709   0.838  0.0859 -0.5224 -0.3565
  261SOL     ow 1041   2.992   4.511   7.099 -0.3605 -0.4343  0.2170
  261SOL     hw 1042   2.986   4.472   7.011 -1.2262 -0.3095  0.2119
  261SOL     hw 1043   2.960   4.442   7.157  0.9283 -0.7945  0.5292
  261SOL     vw 1044   2.987   4.497   7.095 -0.3047 -0.4656  0.2575
  262SOL     ow 1045   0.199   2.918   2.222 -0.0397 -0.0733  0.0514
  262SOL     hw 1046   0.258   2.906   2.148 -0.0656 -1.0878  0.1870
  262SOL     hw 1047   0.257   2.923   2.299 -0.1161 -1.3276  0.2148
  262SOL     vw 1048   0.215   2.917   2.223 -0.0532 -0.3726  0.0908
  263SOL     ow 1049   1.395   6.210   5.160  0.5453 -0.0404  0.3315
  263SOL     hw 1050   1.299   6.205   5.158  0.5122  0.6930  0.0108
  263SOL     hw 1051   1.423   6.166   5.079  0.5713 -1.9356  1.3112
  263SOL     vw 1052   1.386   6.203   5.149  0.5443 -0.1934  0.4184
  264SOL     ow 1053   2.567   3.632   0.502  0.2902 -0.4245  0.2635
  264SOL     hw 1054   2.544   3.707   0.556  1.3733 -0.1057  0.3053
  264SOL     hw 1055   2.604   3.569   0.564 -3.0264 -2.1647  0.7058
  264SOL     vw 1056   2.569   3.633   0.517 -0.0044 -0.6120  0.3274
  265SOL     ow 1057   4.800   0.104   1.610  0.2964 -0.6615 -0.2531
  265SOL     hw 1058   4.735   0.150   1.556  1.0861  2.6315  1.3082
  265SOL     hw 1059   4.855   0.057   1.546 -1.9853 -1.4018 -1.7895
  265SOL     vw 1060   4.799   0.104   1.594  0.0997 -0.3247 -0.2498
  266SOL     ow 1061   1.190   6.354   3.379 -1.0361 -0.1525  0.0593
  266SOL     hw 1062   1.156   6.279   3.427 -0.6397 -0.1429  0.3600
  266SOL     hw 1063   1.285   6.340   3.377 -0.7930  1.1069  1.4274
  266SOL     vw 1064   1.198   6.342   3.385 -0.9518  0.0148  0.2794
  267SOL     ow 1065   6.620   5.186   4.090  0.2370  0.1634 -0.1547
  267SOL     hw 1066   6.659   5.242   4.157  1.1434  0.1324 -0.6520
  267SOL     hw 1067   6.693   5.158   4.035 -0.2080 -1.3741 -0.0287
  267SOL     vw 1068   6.635   5.189   4.092  0.2980 -0.0436 -0.2036
  268SOL     ow 1069   6.200   0.078   6.916 -0.0071  0.2754  0.5012
  268SOL     hw 1070   6.254   0.156   6.909  1.1226 -0.2689  2.3902
  268SOL     hw 1071   6.240   0.015   6.856 -0.3969  0.8417 -0.3684
  268SOL     vw 1072   6.212   0.080   6.907  0.0906  0.2783  0.6359
  269SOL     ow 1073   6.236   4.129   6.830  0.2007  0.4480  0.0572
  269SOL     hw 1074   6.211   4.174   6.749  0.4684  0.5510  0.0326
  269SOL     hw 1075   6.225   4.195   6.898 -1.1597  0.0378  0.2778
  269SOL     vw 1076   6.231   4.143   6.828  0.0565  0.4075  0.0827
  270SOL     ow 1077   0.043   2.633   2.165 -0.1849 -0.0439 -0.0130
  270SOL     hw 1078   0.084   2.679   2.092 -0.0115 -1.4204 -0.8264
  270SOL     hw 1079   0.113   2.577   2.200 -0.1243  0.9468  1.5570
  270SOL     vw 1080   0.058   2.631   2.160 -0.1540 -0.0947  0.0868
  271SOL     ow 1081   0.921   1.599   6.379 -1.0235 -0.5696  0.4246
  271SOL     hw 1082   0.890   1.632   6.294  0.4114 -1.4134 -0.4790
  271SOL     hw 1083   0.877   1.654   6.444 -1.6450  0.5524 -0.8924
  271SOL     vw 1084   0.911   1.611   6.376 -0.9162 -0.5330  0.1316
  272SOL     ow 1085   5.357   0.107   0.992  0.2287  0.1421 -0.1508
  272SOL     hw 1086   5.272   0.080   0.956 -0.5725  2.2923 -0.0192
  272SOL     hw 1087   5.409   0.131   0.915 -0.5397  2.1443 -0.0966
  272SOL     vw 1088   5.352   0.106   0.977  0.0215  0.6900 -0.1263
  273SOL     ow 1089   4.438   3.007   7.052 -0.1017 -0.4850 -0.3372
  273SOL     hw 1090   4.528   3.038   7.050 -0.6745  1.3007 -1.9094
  273SOL     hw 1091   4.401   3.043   7.132  0.4005 -0.6588 -0.0281
  273SOL     vw 1092   4.445   3.016   7.062 -0.1109 -0.2722 -0.5038
  274SOL     ow 1093   6.928   6.997   0.378  0.4979 -0.2075 -0.1353
  274SOL     hw 1094   6.923   7.078   0.429 -1.5382 -0.4241  0.0769
  274SOL     hw 1095   6.954   7.025   0.290 -0.3769  0.7132 -0.1178
  274SOL     vw 1096   6.931   7.012   0.373  0.1137 -0.1147 -0.1050
  275SOL     ow 1097   4.092   6.628   0.839 -0.5616 -0.4593  0.1248
  275SOL     hw 1098   4.052   6.690   0.778  1.3543 -0.9916 -1.8066
  275SOL     hw 1099   4.103   6.548   0.787  0.4564 -1.1749  1.4071
  275SOL     vw 1100   4.088   6.626   0.824 -0.1745 -0.6239  0.0392
  276SOL     ow 1101   1.603   4.466   0.204  0.3960 -0.5338  0.1066
  276SOL     hw 1102   1.623   4.543   0.256 -1.4057 -1.5026  2.4188
  276SOL     hw 1103   1.659   4.397   0.239  0.5167 -0.7760 -0.5421
  276SOL     vw 1104   1.613   4.467   0.215  0.1742 -0.6936  0.3261
  277SOL     ow 1105   0.499   2.130   5.203  0.3461  0.1368  0.0981
  277SOL     hw 1106   0.567   2.194   5.226 -0.0327  1.4629 -2.2284
  277SOL     hw 1107   0.423   2.183   5.179  0.1853 -1.1160 -2.4656
  277SOL     vw 1108   0.498   2.146   5.203  0.2749  0.1464 -0.5469
  278SOL     ow 1109   6.347   3.976   0.044  0.1271 -0.8284 -0.6880
  278SOL     hw 1110   6.423   4.034   0.036 -0.5709  0.0559 -1.1436
  278SOL     hw 1111   6.360   3.930   0.127 -0.3494  1.5773  0.8208
  278SOL     vw 1112   6.359   3.978   0.054 -0.0279 -0.3942 -0.5490
  279SOL     ow 1113   5.298   5.741   4.688  0.3763  0.6963  0.4851
  279SOL     hw 1114   5.289   5.753   4.593 -0.3036 -0.9959  0.2869
  279SOL     hw 1115   5.391   5.726   4.702  0.1301 -2.5262 -0.4771
  279SOL     vw 1116   5.309   5.740   4.677  0.2542  0.0479  0.3321
  280SOL     ow 1117   1.285   5.126   2.046  0.5770 -0.2147 -0.4220
  280SOL     hw 1118   1.305   5.151   2.136  0.4773 -0.0876 -0.4352
  280SOL     hw 1119   1.288   5.208   1.996 -1.0305 -0.0068 -0.2266
  280SOL     vw 1120   1.288   5.140   2.051  0.3517 -0.1705 -0.3979
  281SOL     ow 1121   7.077   0.167   2.274 -0.2426 -0.6699  0.1001
  281SOL     hw 1122   7.079   0.113   2.353 -0.8345 -1.8497 -0.6611
  281SOL     hw 1123   7.086   0.104   2.202 -0.1613  0.3345 -0.7849
  281SOL     vw 1124   7.078   0.151   2.275 -0.3099 -0.6931 -0.1171
  282SOL     ow 1125   3.658   0.787   0.153  0.0246  0.0142  0.2013
  282SOL     hw 1126   3.668   0.881   0.164 -0.9962  0.4417 -2.0629
  282SOL     hw 1127   3.574   0.776   0.109  0.2199 -1.9348  0.2262
  282SOL     vw 1128   3.648   0.798   0.148 -0.0843 -0.1865 -0.0942
  283SOL     ow 1129   2.418   6.747   6.735 -0.6656 -0.4491 -0.5112
  283SOL     hw 1130   2.355   6.773   6.802 -0.9096  0.2160 -0.9817
  283SOL     hw 1131   2.411   6.815   6.668  1.9917  0.7660  0.3293
  283SOL     vw 1132   2.408   6.759   6.735 -0.3471 -0.2010 -0.4625
  284SOL     ow 1133   0.685   6.882   0.825 -0.4569  0.3425 -0.2853
  284SOL     hw 1134   0.763   6.925   0.861 -0.5209  0.3062 -0.1018
  284SOL     hw 1135   0.621   6.953   0.817 -0.7458  0.1856  0.5384
  284SOL     vw 1136   0.687   6.897   0.829 -0.5035  0.3171 -0.1524
  285SOL     ow 1137   5.226   5.290   0.140 -0.1521 -0.3209  0.4710
  285SOL     hw 1138   5.271   5.358   0.089  1.2461 -0.8136  1.0167
  285SOL     hw 1139   5.139   5.327   0.155  0.4000  1.1455  0.3106
  285SOL     vw 1140   5.221   5.304   0.135  0.1051 -0.1924  0.5218
  286SOL     ow 1141   0.739   0.352   1.529 -0.1510  0.2494 -1.4156
  286SOL     hw 1142   0.737   0.447   1.518 -0.4851  0.2980 -0.9914
  286SOL     hw 1143   0.768   0.318   1.444  0.4208  0.7516 -1.4292
  286SOL     vw 1144   0.743   0.360   1.516 -0.1196  0.3221 -1.3614
  287SOL     ow 1145   2.858   6.632   4.608  0.2212  0.5799  0.2704
  287SOL     hw 1146   2.848   6.576   4.686  0.9569  1.6617  1.1866
  287SOL     hw 1147   2.864   6.721   4.644  2.0757  0.9720 -0.8984
  287SOL     vw 1148   2.857   6.636   4.623  0.5630  0.7744  0.2372
  288SOL     ow 1149   4.704   2.139   6.740 -0.3421 -0.3733 -0.8109
  288SOL     hw 1150   4.667   2.143   6.828  2.4195  0.0385  0.4355
  288SOL     hw 1151   4.628   2.142   6.682 -2.3285 -1.9279  1.5334
  288SOL     vw 1152   4.689   2.140   6.744 -0.2398 -0.5242 -0.3371
  289SOL     ow 1153   3.952   5.996   1.340 -0.6849 -0.1452 -0.1082
  289SOL     hw 1154   3.930   6.017   1.431  0.8115  0.1788  0.1967
  289SOL     hw 1155   3.985   5.906   1.343 -1.2334 -0.3664 -0.4488
  289SOL     vw 1156   3.953   5.987   1.352 -0.5598 -0.1318 -0.1129
  290SOL     ow 1157   1.823   1.045   6.120 -0.5804 -0.6773  0.0632
  290SOL     hw 1158   1.893   0.981   6.133  0.7194  0.9124  1.3465
  290SOL     hw 1159   1.825   1.100   6.198 -0.0316  2.3661 -1.8948
  290SOL     vw 1160   1.833   1.044   6.132 -0.3365 -0.0660 -0.0257
  291SOL     ow 1161   2.214   0.769   5.545  0.7074  0.1030 -0.6569
  291SOL     hw 1162   2.285   0.800   5.489  2.0599 -1.3139  0.1904
  291SOL     hw 1163   2.246   0.783   5.634 -0.0119 -0.6894 -0.2591
  291SOL     vw 1164   2.228   0.775   5.549  0.7908 -0.1885 -0.4926
  292SOL     ow 1165   1.948   0.155   4.639  0.2434  0.5200 -0.2065
  292SOL     hw 1166   1.934   0.075   4.587  0.9364 -0.1508  0.6167
  292SOL     hw 1167   1.949   0.124   4.730 -0.2054  1.5767  0.1650
  292SOL     vw 1168   1.946   0.140   4.644  0.2756  0.5709 -0.0489
  293SOL     ow 1169   1.670   4.871   5.717 -0.6945  0.5308 -0.5961
  293SOL     hw 1170   1.722   4.810   5.665  1.5741  0.9568  1.0149
  293SOL     hw 1171   1.604   4.905   5.657  0.2246 -0.8482 -2.4596
  293SOL     vw 1172   1.668   4.867   5.703 -0.2739  0.4048 -0.6292
  294SOL     ow 1173   5.694   1.977   6.216 -0.1470 -0.1836 -0.4183
  294SOL     hw 1174   5.789   1.975   6.205 -0.0309 -0.4449  0.5338
  294SOL     hw 1175   5.674   1.899   6.267 -1.1791 -1.5489 -2.7191
  294SOL     vw 1176   5.704   1.966   6.221 -0.2680 -0.3982 -0.5963
  295SOL     ow 1177   3.447   2.814   0.229  0.3811 -0.7501  0.2742
  295SOL     hw 1178   3.417   2.760   0.301 -0.7435 -1.7954 -0.9286
  295SOL     hw 1179   3.387   2.889   0.227  0.6789 -0.4971  0.6736
  295SOL     vw 1180   3.435   2.817   0.238  0.2719 -0.8546  0.1682
  296SOL     ow 1181   5.816   1.128   4.825 -0.2415  0.1826  0.0247
  296SOL     hw 1182   5.816   1.112   4.919  2.0176  0.0113  0.0377
  296SOL     hw 1183   5.775   1.050   4.787  2.4166 -1.6236  0.6528
  296SOL     vw 1184   5.810   1.116   4.833  0.4072 -0.0784  0.1092
  297SOL     ow 1185   2.822   6.279   2.884  0.8774  0.6567  0.0902
  297SOL     hw 1186   2.789   6.277   2.794  0.1364  0.1675  0.3571
  297SOL     hw 1187   2.743   6.292   2.937  1.0151 -1.0953  0.7925
  297SOL     vw 1188   2.807   6.281   2.879  0.7977  0.3612  0.2182
  298SOL     ow 1189   3.761   3.094   3.272 -0.0796  0.0898  0.2155
  298SOL     hw 1190   3.850   3.090   3.236 -0.4022 -3.0575 -0.4812
  298SOL     hw 1191   3.758   3.026   3.339 -2.7334 -2.1198 -1.9020
  298SOL     vw 1192   3.772   3.085   3.276 -0.4723 -0.6169 -0.1558
  299SOL     ow 1193   1.140   3.829   1.946 -0.9935 -0.1756  0.4042
  299SOL     hw 1194   1.168   3.739   1.963 -1.2033 -0.0214  1.6078
  299SOL     hw 1195   1.144   3.872   2.031 -0.6542  1.0321 -0.1992
  299SOL     vw 1196   1.144   3.823   1.959 -0.9764  0.0041  0.4834
  300SOL     ow 1197   4.425   3.167   0.951  0.2615 -0.2248 -0.3625
  300SOL     hw 1198   4.382   3.088   0.983 -0.4806  0.2324 -0.2081
  300SOL     hw 1199   4.388   3.238   1.003  2.5968  0.0162  1.1501
  300SOL     vw 1200   4.415   3.166   0.962  0.4716 -0.1328 -0.1425
  301SOL     ow 1201   1.957   4.058   6.394 -0.4851 -0.0340  0.4530
  301SOL     hw 1202   1.890   4.066   6.326 -2.3127 -3.4319  1.5681
  301SOL     hw 1203   1.963   3.963   6.410  2.2433  0.3945  2.7509
  301SOL     vw 1204   1.949   4.046   6.387 -0.3662 -0.4258  0.9034
  302SOL     ow 1205   5.189   0.235   3.389 -0.7900  0.2838  0.1159
  302SOL     hw 1206   5.270   0.271   3.425 -0.8859  0.8788 -0.2558
  302SOL     hw 1207   5.193   0.254   3.295 -1.0078 -0.3654 -0.0313
  302SOL     vw 1208   5.200   0.242   3.381 -0.8314  0.2767  0.0474
  303SOL     ow 1209   5.748   6.714   1.321 -1.2974 -0.4587 -1.2577
  303SOL     hw 1210   5.653   6.720   1.328 -1.4172 -1.0271 -2.2581
  303SOL     hw 1211   5.766   6.621   1.310 -0.6916 -0.2850 -1.8648
  303SOL     vw 1212   5.738   6.702   1.321 -1.2333 -0.5112 -1.4698
  304SOL     ow 1213   4.277   4.036   6.526  0.0198  0.3944 -0.5780
  304SOL     hw 1214   4.235   3.986   6.456  0.8265 -0.1095 -0.7230
  304SOL     hw 1215   4.327   4.103   6.479  1.1710 -0.4127 -0.5498
  304SOL     vw 1216   4.278   4.038   6.510  0.2780  0.2213 -0.5934
  305SOL     ow 1217   0.308   5.902   0.093  0.0661  0.2499  0.2888
  305SOL     hw 1218   0.338   5.970   0.033 -3.3061  0.6515 -1.1751
  305SOL     hw 1219   0.323   5.820   0.046 -2.2901  0.5432 -1.1238
  305SOL     vw 1220   0.314   5.900   0.079 -0.6897  0.3419 -0.0907
  306SOL     ow 1221   0.525   7.038   0.448  0.1632  0.1879 -0.4737
  306SOL     hw 1222   0.619   7.020   0.451 -0.2065 -2.1038 -0.8210
  306SOL     hw 1223   0.498   7.044   0.540  0.7093  1.4145 -0.3750
  306SOL     vw 1224   0.533   7.037   0.460  0.1865  0.0477 -0.5065
  307SOL     ow 1225   0.687   2.999   6.683 -0.2419 -0.1741  0.5084
  307SOL     hw 1226   0.598   2.965   6.675 -0.9313  1.5690  0.2946
  307SOL     hw 1227   0.693   3.068   6.618  1.0395  0.2138  0.9937
  307SOL     vw 1228   0.676   3.003   6.674 -0.1638  0.1072  0.5443
  308SOL     ow 1229   1.659   5.540   0.546  0.3466  0.5524  0.7779
  308SOL     hw 1230   1.604   5.615   0.570 -0.5353  0.1107  0.2128
  308SOL     hw 1231   1.747   5.577   0.537 -0.1350  1.6043  0.1444
  308SOL     vw 1232   1.663   5.555   0.548  0.1667  0.6328  0.6198
  309SOL     ow 1233   2.797   1.375   0.970 -0.3281 -0.4032 -0.4220
  309SOL     hw 1234   2.711   1.345   0.939 -1.1264 -0.6568  1.8292
  309SOL     hw 1235   2.855   1.300   0.957 -1.1754 -1.2940  0.7449
  309SOL     vw 1236   2.793   1.361   0.964 -0.5450 -0.5542  0.0290
  310SOL     ow 1237   5.265   0.692   6.994  1.1806  0.4420  0.0848
  310SOL     hw 1238   5.180   0.724   6.966  0.5201 -0.6778  0.7587
  310SOL     hw 1239   5.301   0.649   6.916  0.5098 -0.3170  0.1821
  310SOL     vw 1240   5.259   0.691   6.980  1.0049  0.1941  0.1864
  311SOL     ow 1241   0.752   0.879   4.169 -0.0756  0.1133  0.4201
  311SOL     hw 1242   0.780   0.788   4.154  2.1871  1.2695 -4.2438
  311SOL     hw 1243   0.668   0.886   4.124 -1.0361  0.0741  2.1193
  311SOL     vw 1244   0.745   0.868   4.161  0.0962  0.2607  0.0291
  312SOL     ow 1245   4.838   0.529   2.153 -0.0002 -0.1739  0.4848
  312SOL     hw 1246   4.926   0.509   2.186 -0.3873 -3.5412 -0.2011
  312SOL     hw 1247   4.850   0.537   2.058 -0.6404 -2.5160  0.1611
  312SOL     vw 1248   4.852   0.528   2.145 -0.1359 -0.9272  0.3517
  313SOL     ow 1249   0.154   4.321   1.604 -0.5044 -0.1996  0.0460
  313SOL     hw 1250   0.153   4.367   1.520  2.2995 -1.1730 -0.6148
  313SOL     hw 1251   0.104   4.241   1.588  0.7069 -0.7756 -0.9921
  313SOL     vw 1252   0.147   4.317   1.591  0.0254 -0.4041 -0.1781
  314SOL     ow 1253   1.144   7.036   6.457  0.1648  0.4964  0.2926
  314SOL     hw 1254   1.227   7.060   6.497 -0.2375 -1.0673  2.1776
  314SOL     hw 1255   1.165   6.962   6.400  0.0618  0.0650  0.8125
  314SOL     vw 1256   1.158   7.029   6.454  0.0982  0.2332  0.6099
  315SOL     ow 1257   2.695   6.006   6.361  0.0177  0.3211  0.1637
  315SOL     hw 1258   2.642   6.078   6.396  0.5400  1.8749 -2.0390
  315SOL     hw 1259   2.746   5.976   6.436 -1.5870  0.9536  1.5806
  315SOL     vw 1260   2.694   6.012   6.376 -0.1252  0.6096  0.0601
  316SOL     ow 1261   6.346   1.686   4.606  0.4019 -0.5200  0.2237
  316SOL     hw 1262   6.294   1.641   4.540  0.2882 -1.2841  0.8127
  316SOL     hw 1263   6.284   1.745   4.650  0.0397 -1.3747  0.8753
  316SOL     vw 1264   6.331   1.688   4.603  0.3395 -0.7336  0.3874
  317SOL     ow 1265   0.953   2.821   6.606  0.4825  0.4313  0.0906
  317SOL     hw 1266   0.956   2.730   6.577 -2.2475  0.5161 -0.7534
  317SOL     hw 1267   1.045   2.845   6.620  1.3131 -2.2858 -0.0816
  317SOL     vw 1268   0.966   2.812   6.604  0.2319  0.0842 -0.0434
  318SOL     ow 1269   2.109   2.970   3.908  0.1544  0.1003  1.0015
  318SOL     hw 1270   2.055   3.030   3.855 -1.8885 -1.6091  1.0108
  318SOL     hw 1271   2.171   2.933   3.845 -1.1449 -0.6498  0.1178
  318SOL     vw 1272   2.110   2.973   3.892 -0.2866 -0.2242  0.8861
  319SOL     ow 1273   3.651   0.923   6.070 -0.7696  0.4557  0.0095
  319SOL     hw 1274   3.724   0.929   6.131 -0.4820 -0.6243 -0.2076
  319SOL     hw 1275   3.682   0.867   5.999 -1.4535  0.8413 -0.6232
  319SOL     vw 1276   3.665   0.916   6.069 -0.8219  0.3641 -0.1028
  320SOL     ow 1277   0.925   0.044   1.932 -0.4049 -0.2732 -0.0894
  320SOL     hw 1278   1.019   0.056   1.919 -0.3620  0.0003  0.4419
  320SOL     hw 1279   0.901   0.111   1.996 -0.8845 -0.6020  0.0809
  320SOL     vw 1280   0.934   0.054   1.939 -0.4625 -0.2805  0.0032
  321SOL     ow 1281   0.030   4.006   4.686 -0.8131  0.6826  0.3475
  321SOL     hw 1282  -0.012   4.071   4.742  0.2803  2.2445 -0.5672
  321SOL     hw 1283   0.117   3.994   4.723 -0.1946  1.4892 -0.7732
  321SOL     vw 1284   0.036   4.013   4.698 -0.5872  0.9949  0.0789
  322SOL     ow 1285   5.226   1.178   5.949 -0.8101 -0.3581 -0.1709
  322SOL     hw 1286   5.306   1.126   5.938 -0.1426  0.7474 -0.7718
  322SOL     hw 1287   5.249   1.265   5.914 -2.2287  0.0278 -0.2114
  322SOL     vw 1288   5.240   1.183   5.943 -0.9093 -0.1613 -0.2556
  323SOL     ow 1289   3.023   2.112   6.573 -0.3343  0.0626  0.5533
  323SOL     hw 1290   2.954   2.148   6.517  0.7280 -0.3613 -1.0854
  323SOL     hw 1291   3.080   2.186   6.591 -1.5980  0.6254  2.6428
  323SOL     vw 1292   3.021   2.126   6.568 -0.3608  0.0809  0.6127
  324SOL     ow 1293   7.033   0.624   0.387 -0.2742 -1.4742 -0.3615
  324SOL     hw 1294   7.116   0.610   0.342  0.5764  0.2223  0.5835
  324SOL     hw 1295   7.053   0.612   0.480 -0.5998  0.7577  0.0496
  324SOL     vw 1296   7.046   0.621   0.393 -0.2048 -0.9559 -0.1826
  325SOL     ow 1297   4.895   5.991   6.801  0.0063  0.4348 -0.4659
  325SOL     hw 1298   4.952   5.983   6.877  1.0529  1.9979 -1.0390
  325SOL     hw 1299   4.825   6.051   6.828 -1.9346 -2.0823  0.4955
  325SOL     vw 1300   4.893   5.998   6.814 -0.1116  0.3090 -0.4148
  326SOL     ow 1301   4.535   6.341   5.193 -0.3692 -0.1753 -0.1093
  326SOL     hw 1302   4.573   6.291   5.121  1.6349  1.7798 -0.5241
  326SOL     hw 1303   4.508   6.424   5.153  1.0321  1.0636  1.3451
  326SOL     vw 1304   4.537   6.346   5.178  0.0801  0.2463  0.0281
  327SOL     ow 1305   4.254   2.256   6.755  0.3576 -0.1142  0.3585
  327SOL     hw 1306   4.295   2.240   6.840 -0.0241 -0.8667  0.4012
  327SOL     hw 1307   4.326   2.287   6.700  0.5632  0.6161  1.0101
  327SOL     vw 1308   4.269   2.258   6.759  0.3343 -0.1172  0.4501
  328SOL     ow 1309   3.877   1.653   3.887  0.0783  0.0402  0.1700
  328SOL     hw 1310   3.942   1.584   3.905  0.0143 -0.4659 -1.4304
  328SOL     hw 1311   3.903   1.725   3.944  2.3146  0.0172 -0.7359
  328SOL     vw 1312   3.889   1.653   3.897  0.3649 -0.0296 -0.1606
  329SOL     ow 1313   5.845   4.425   5.547  0.1767  0.2147 -0.6839
  329SOL     hw 1314   5.800   4.430   5.632 -0.1416  1.8205 -0.9170
  329SOL     hw 1315   5.835   4.512   5.510  1.6194 -0.0365 -1.7203
  329SOL     vw 1316   5.838   4.437   5.554  0.3250  0.3934 -0.8512
  330SOL     ow 1317   1.949   0.518   2.172 -0.1726 -0.0758 -0.0565
  330SOL     hw 1318   1.891   0.502   2.246 -1.0693  1.5211 -0.3730
  330SOL     hw 1319   1.983   0.606   2.187 -0.2912  0.2359 -1.4701
  330SOL     vw 1320   1.946   0.527   2.184 -0.3065  0.1760 -0.2848
  331SOL     ow 1321   3.661   4.965   1.600 -0.4480  0.2181  0.1145
  331SOL     hw 1322   3.684   4.878   1.570  0.4007  0.5974 -0.3702
  331SOL     hw 1323   3.580   4.953   1.650  0.6490 -1.1367  1.7042
  331SOL     vw 1324   3.653   4.952   1.603 -0.1913  0.0894  0.2603
  332SOL     ow 1325   0.808   4.905   6.501  0.3243 -0.3129 -0.1576
  332SOL     hw 1326   0.767   4.850   6.435 -0.9313  0.1817  0.1963
  332SOL     hw 1327   0.739   4.964   6.530  1.9398  2.4121 -1.5087
  332SOL     vw 1328   0.794   4.905   6.496  0.3717  0.1121 -0.2890
  333SOL     ow 1329   0.678   4.710   7.005  0.0226 -0.1671  0.6247
  333SOL     hw 1330   0.607   4.726   7.067 -0.1334 -1.2774  0.7618
  333SOL     hw 1331   0.749   4.675   7.059  0.9333  1.5378  0.5896
  333SOL     vw 1332   0.678   4.707   7.020  0.1221 -0.0889  0.6380
  334SOL     ow 1333   3.891   1.188   4.966  0.3309  0.2542 -0.3995
  334SOL     hw 1334   3.812   1.232   4.998  0.8344 -0.6601  2.3955
  334SOL     hw 1335   3.963   1.243   4.998  0.8733 -0.6325 -0.0496
  334SOL     vw 1336   3.890   1.201   4.975  0.4689  0.0166  0.0155
  335SOL     ow 1337   6.029   5.605   4.391  0.5603 -0.1424  0.3175
  335SOL     hw 1338   6.067   5.594   4.303 -1.1479 -1.1605 -0.3495
  335SOL     hw 1339   6.030   5.700   4.406  0.2254  0.1158 -1.1231
  335SOL     vw 1340   6.035   5.616   4.381  0.2904 -0.2425  0.0396
  336SOL     ow 1341   1.748   3.619   2.256 -0.3212  0.0762 -0.1385
  336SOL     hw 1342   1.666   3.570   2.243 -0.4985  0.3913 -0.2188
  336SOL     hw 1343   1.807   3.587   2.188  0.4835 -1.9629  1.4032
  336SOL     vw 1344   1.745   3.608   2.245 -0.2385 -0.1514  0.0542
  337SOL     ow 1345   0.802   2.751   6.882 -0.2252 -0.0416  0.3588
  337SOL     hw 1346   0.856   2.673   6.901 -1.1305 -0.5878  0.7657
  337SOL     hw 1347   0.773   2.780   6.968  0.9627  1.4077  0.3073
  337SOL     vw 1348   0.805   2.744   6.896 -0.1879  0.0776  0.4058
  338SOL     ow 1349   5.536   2.173   6.226 -0.2575 -0.3165 -0.0600
  338SOL     hw 1350   5.545   2.219   6.143  0.4449  4.1495  2.2278
  338SOL     hw 1351   5.594   2.097   6.218 -1.8101 -1.3157 -4.2466
  338SOL     vw 1352   5.545   2.169   6.214 -0.3698  0.1410 -0.3102
  339SOL     ow 1353   3.683   5.597   1.287  0.6719  0.2362  0.0611
  339SOL     hw 1354   3.636   5.583   1.369  0.2049 -0.1150 -0.2640
  339SOL     hw 1355   3.771   5.562   1.304  0.0854 -1.4025 -0.1178
  339SOL     vw 1356   3.689   5.590   1.300  0.5330 -0.0262 -0.0054
  340SOL     ow 1357   4.040   1.625   4.464 -0.3101  0.3408  0.4460
  340SOL     hw 1358   4.101   1.688   4.502 -0.4052 -0.3497  1.8075
  340SOL     hw 1359   4.000   1.672   4.390 -0.0708  1.7219  1.1543
  340SOL     vw 1360   4.043   1.640   4.459 -0.2913  0.4320  0.7193
  341SOL     ow 1361   3.348   0.016   3.362  0.2902 -0.4423 -0.6065
  341SOL     hw 1362   3.267   0.007   3.312  0.1760  0.3621 -0.5814
  341SOL     hw 1363   3.367   0.110   3.360  0.6227 -0.4759  0.3145
  341SOL     vw 1364   3.340   0.028   3.355  0.3190 -0.3406 -0.4816
  342SOL     ow 1365   0.066   6.860   4.865  0.2678 -0.5651 -0.0550
  342SOL     hw 1366   0.073   6.951   4.838  1.9996  0.0154  2.0051
  342SOL     hw 1367   0.127   6.813   4.807 -0.9038 -0.5295 -1.3636
  342SOL     vw 1368   0.075   6.866   4.854  0.3419 -0.4838  0.0439
  343SOL     ow 1369   5.083   3.702   6.993  0.1595 -0.4717 -0.4491
  343SOL     hw 1370   5.099   3.623   7.045 -0.0597 -0.0640  0.2456
  343SOL     hw 1371   5.170   3.741   6.983 -0.0895  0.8645  1.9230
  343SOL     vw 1372   5.097   3.696   6.998  0.0980 -0.2418 -0.0446
  344SOL     ow 1373   4.559   4.423   4.614 -1.0367  0.1256 -0.3021
  344SOL     hw 1374   4.502   4.494   4.583 -2.4580 -0.8321 -0.0037
  344SOL     hw 1375   4.509   4.382   4.685 -1.3985 -2.6943 -2.0403
  344SOL     vw 1376   4.545   4.427   4.620 -1.2720 -0.3729 -0.4919
  345SOL     ow 1377   6.919   0.037   1.538 -0.0854 -0.1640  0.2263
  345SOL     hw 1378   6.865   0.004   1.610 -0.0174  0.0862  0.3938
  345SOL     hw 1379   6.909  -0.028   1.469  0.6606 -0.9526  0.8295
  345SOL     vw 1380   6.910   0.024   1.539  0.0217 -0.2351  0.3280
  346SOL     ow 1381   4.565   1.729   6.459 -0.1005  0.2698  0.1939
  346SOL     hw 1382   4.619   1.715   6.537 -1.7194  2.0471  1.7433
  346SOL     hw 1383   4.558   1.642   6.419 -0.8458 -1.1767  3.1530
  346SOL     vw 1384   4.571   1.716   6.464 -0.4125  0.3135  0.7887
  347SOL     ow 1385   5.766   3.721   6.053  0.1357  0.0190 -0.5776
  347SOL     hw 1386   5.838   3.750   5.997  0.3575 -0.9876 -0.8205
  347SOL     hw 1387   5.732   3.642   6.011  0.7645 -1.1665  1.0675
  347SOL     vw 1388   5.771   3.715   6.040  0.2480 -0.2702 -0.3927
  348SOL     ow 1389   2.650   1.075   6.951  0.1451 -0.2715 -0.2997
  348SOL     hw 1390   2.606   1.095   7.033 -0.3813  0.2167 -0.6967
  348SOL     hw 1391   2.708   1.150   6.936 -0.8762  0.3703 -1.1337
  348SOL     vw 1392   2.652   1.087   6.960 -0.0590 -0.1224 -0.4621
  349SOL     ow 1393   4.497   6.787   0.971  0.3978  0.8214  0.4072
  349SOL     hw 1394   4.547   6.734   1.033  1.2752 -0.3311 -1.1972
  349SOL     hw 1395   4.407   6.782   1.003  0.6953 -0.3956  1.1541
  349SOL     vw 1396   4.492   6.779   0.983  0.5527  0.5088  0.2941
  350SOL     ow 1397   3.777   6.291   0.078 -0.1654 -0.0123 -0.0155
  350SOL     hw 1398   3.774   6.241  -0.004  0.1406 -0.8209  0.4546
  350SOL     hw 1399   3.864   6.330   0.079 -0.0960 -0.1709  0.0285
  350SOL     vw 1400   3.788   6.290   0.068 -0.1159 -0.1400  0.0523
  351SOL     ow 1401   6.302   0.298   6.317 -0.1223 -0.0056 -1.2321
  351SOL     hw 1402   6.369   0.317   6.252 -0.8815  2.3170 -1.4497
  351SOL     hw 1403   6.346   0.309   6.401 -0.0266  0.7652 -1.3750
  351SOL     vw 1404   6.317   0.302   6.320 -0.2098  0.4025 -1.2798
  352SOL     ow 1405   6.845   2.677   6.497 -0.5406 -0.4011 -0.2435
  352SOL     hw 1406   6.807   2.594   6.469 -0.5891 -0.8866  1.2086
  352SOL     hw 1407   6.770   2.735   6.508 -0.5714 -0.3958 -0.4673
  352SOL     vw 1408   6.830   2.674   6.495 -0.5510 -0.4644 -0.0815
  353SOL     ow 1409   0.092   3.643   2.501 -0.0062 -0.6114  0.2746
  353SOL     hw 1410   0.025   3.619   2.437  0.3250  1.0024 -0.7472
  353SOL     hw 1411   0.148   3.705   2.454  3.2904 -3.1482  0.4822
  353SOL     vw 1412   0.090   3.648   2.486  0.4724 -0.7331  0.1671
  354SOL     ow 1413   0.904   5.205   6.626 -0.3362 -0.0103  0.1220
  354SOL     hw 1414   0.864   5.289   6.649  0.4271  0.6927 -1.0565
  354SOL     hw 1415   0.862   5.142   6.685 -1.9725  0.9625  0.0494
  354SOL     vw 1416   0.893   5.208   6.637 -0.4514  0.2105 -0.0432
  355SOL     ow 1417   3.952   6.964   2.338  0.2324  0.3403 -0.0839
  355SOL     hw 1418   3.902   7.037   2.375  1.5482  1.3774 -0.2679
  355SOL     hw 1419   3.915   6.951   2.251 -1.2160 -0.4456  0.6148
  355SOL     vw 1420   3.941   6.972   2.332  0.2147  0.3734 -0.0161
  356SOL     ow 1421   3.051   6.200   3.097 -0.0556 -1.1630 -0.4554
  356SOL     hw 1422   3.112   6.144   3.145 -1.2744 -2.3861 -0.2616
  356SOL     hw 1423   2.976   6.210   3.155 -0.8148 -1.2065 -1.3885
  356SOL     vw 1424   3.049   6.194   3.111 -0.3166 -1.3301 -0.5530
  357SOL     ow 1425   4.320   6.014   4.061  0.4806 -0.5318  0.1833
  357SOL     hw 1426   4.408   6.024   4.024 -0.9877  1.4479 -3.1928
  357SOL     hw 1427   4.312   6.087   4.123  0.2747  1.1738 -1.7568
  357SOL     vw 1428   4.331   6.025   4.064  0.2599 -0.0455 -0.5183
  358SOL     ow 1429   1.941   5.064   1.665 -0.0976 -0.2199  0.3121
  358SOL     hw 1430   1.915   5.127   1.732 -1.4112 -1.0448  0.6057
  358SOL     hw 1431   1.920   5.107   1.582  1.2333  0.6713  0.4057
  358SOL     vw 1432   1.935   5.078   1.663 -0.0954 -0.2112  0.3632
  359SOL     ow 1433   4.249   6.182   1.947 -0.2787  0.0808 -0.0357
  359SOL     hw 1434   4.315   6.165   1.879  1.3231  1.9602  0.9376
  359SOL     hw 1435   4.175   6.126   1.924 -0.1194  1.1576 -3.7742
  359SOL     vw 1436   4.248   6.172   1.935 -0.0463  0.4709 -0.4006
  360SOL     ow 1437   4.896   2.340   6.737 -0.2602 -0.5078 -0.6496
  360SOL     hw 1438   4.825   2.278   6.729 -0.7247 -0.0070 -0.4665
  360SOL     hw 1439   4.869   2.415   6.684 -0.7676  0.4840  0.9650
  360SOL     vw 1440   4.883   2.342   6.729 -0.3881 -0.3109 -0.4122
  361SOL     ow 1441   6.198   1.397   6.059 -0.7709 -0.0850  0.1300
  361SOL     hw 1442   6.187   1.470   5.997 -0.7965 -0.5558 -0.4319
  361SOL     hw 1443   6.194   1.319   6.004 -0.3148 -0.4939  0.6727
  361SOL     vw 1444   6.196   1.396   6.043 -0.7141 -0.2012  0.1276
  362SOL     ow 1445   4.163   6.949   0.215 -0.1538  0.2267  0.5851
  362SOL     hw 1446   4.259   6.945   0.220 -0.0030  1.6689 -0.4410
  362SOL     hw 1447   4.135   6.962   0.306  0.5480 -1.0645  1.0115
  362SOL     vw 1448   4.172   6.950   0.228 -0.0412  0.2465  0.5060
  363SOL     ow 1449   4.385   1.166   5.896 -0.2910 -0.2016  0.1223
  363SOL     hw 1450   4.345   1.253   5.897  0.8761  0.4391  2.8023
  363SOL     hw 1451   4.312   1.105   5.904 -1.2025  0.3861 -2.6458
  363SOL     vw 1452   4.370   1.170   5.898 -0.2570 -0.0395  0.1106
  364SOL     ow 1453   5.912   5.343   4.032 -0.2601 -0.1266 -0.5564
  364SOL     hw 1454   5.980   5.372   4.092  1.2383  1.2300 -2.7389
  364SOL     hw 1455   5.835   5.330   4.087  1.0439  0.8195  1.6400
  364SOL     vw 1456   5.911   5.345   4.047  0.1097  0.1769 -0.5543
  365SOL     ow 1457   6.576   1.551   4.700  0.0691  0.3403  0.2330
  365SOL     hw 1458   6.493   1.594   4.681 -0.6215 -0.0393  2.1193
  365SOL     hw 1459   6.606   1.592   4.781 -0.5908 -2.5579  2.1016
  365SOL     vw 1460   6.569   1.562   4.708 -0.1092 -0.0921  0.7286
  366SOL     ow 1461   6.841   0.706   0.134 -0.8779  0.1963  0.8368
  366SOL     hw 1462   6.930   0.680   0.107 -0.9578 -0.0611  0.8227
  366SOL     hw 1463   6.838   0.800   0.117 -1.0916 -0.0318 -0.5276
  366SOL     vw 1464   6.853   0.715   0.128 -0.9165  0.1322  0.6549
  367SOL     ow 1465   1.301   2.328   0.607  0.1664  0.2068  0.8615
  367SOL     hw 1466   1.280   2.421   0.622 -0.9395 -0.3460  3.1844
  367SOL     hw 1467   1.220   2.282   0.630 -0.0360 -1.2903 -2.2638
  367SOL     vw 1468   1.287   2.335   0.612 -0.0063 -0.0638  0.7556
  368SOL     ow 1469   4.244   5.348   5.557  0.2450 -0.3999 -0.2075
  368SOL     hw 1470   4.154   5.360   5.528  0.1566 -1.6278 -0.4825
  368SOL     hw 1471   4.288   5.430   5.534 -0.9935  0.5759  0.7302
  368SOL     vw 1472   4.238   5.360   5.550  0.0701 -0.4332 -0.1204
  369SOL     ow 1473   2.573   3.596   5.573 -0.9618 -0.1054  0.0668
  369SOL     hw 1474   2.485   3.616   5.605 -1.5032 -1.2907 -0.6377
  369SOL     hw 1475   2.614   3.548   5.646 -0.5976  1.1385  0.7069
  369SOL     vw 1476   2.567   3.592   5.587 -0.9853 -0.0976  0.0584
  370SOL     ow 1477   3.054   3.486   4.417  0.6529 -0.1245  0.0884
  370SOL     hw 1478   3.039   3.446   4.331  1.8801 -0.3797 -0.0254
  370SOL     hw 1479   3.000   3.435   4.477  0.4922 -0.5350 -0.3945
  370SOL     vw 1480   3.045   3.474   4.414  0.7936 -0.2124  0.0098
  371SOL     ow 1481   2.060   6.596   2.791 -0.1755  0.6743 -0.3727
  371SOL     hw 1482   2.067   6.502   2.810  0.8719  0.5623 -1.2311
  371SOL     hw 1483   1.988   6.603   2.729  1.1985  0.1234 -2.1147
  371SOL     vw 1484   2.051   6.584   2.786  0.1440  0.5870 -0.7157
  372SOL     ow 1485   2.729   3.439   6.289 -0.0455  0.2997  0.0016
  372SOL     hw 1486   2.773   3.370   6.240 -0.2661  0.8927 -1.0495
  372SOL     hw 1487   2.799   3.500   6.311 -0.2688  1.1543 -1.5208
  372SOL     vw 1488   2.744   3.438   6.286 -0.1041  0.4907 -0.3378
  373SOL     ow 1489   5.323   0.480   4.212  0.3531  1.0338 -0.4386
  373SOL     hw 1490   5.333   0.395   4.170  1.4390  1.1887 -0.5321
  373SOL     hw 1491   5.383   0.538   4.164  1.7786  1.1650  1.3944
  373SOL     vw 1492   5.332   0.476   4.200  0.6845  1.0716 -0.2091
  374SOL     ow 1493   6.490   3.734   2.411  0.4259 -0.3890  0.3384
  374SOL     hw 1494   6.577   3.712   2.379  0.3259  1.2154 -1.1652
  374SOL     hw 1495   6.466   3.814   2.364 -1.1662  0.1622  1.9635
  374SOL     vw 1496   6.498   3.742   2.401  0.2027 -0.1045  0.3544
  375SOL     ow 1497   6.688   2.691   1.850  0.3827  0.2957 -0.5834
  375SOL     hw 1498   6.764   2.748   1.855 -0.1917  1.0684 -0.5968
  375SOL     hw 1499   6.643   2.718   1.770  1.3626 -1.7693 -1.9181
  375SOL     vw 1500   6.692   2.702   1.840  0.4363  0.1252 -0.7612
  376SOL     ow 1501   6.598   6.544   4.253 -0.3668 -0.0901 -0.1507
  376SOL     hw 1502   6.591   6.590   4.337 -0.8823 -1.0784  0.3635
  376SOL     hw 1503   6.521   6.574   4.204  1.3046  2.5681 -1.3834
  376SOL     vw 1504   6.587   6.554   4.257 -0.2141  0.1304 -0.2453
  377SOL     ow 1505   2.674   6.995   6.356  0.4825 -0.4933  0.0947
  377SOL     hw 1506   2.635   7.076   6.389  1.7401 -0.6723  2.2273
  377SOL     hw 1507   2.624   6.974   6.278 -0.4723  1.8445  0.0041
  377SOL     vw 1508   2.663   7.003   6.350  0.5225 -0.2086  0.3643
  378SOL     ow 1509   5.772   0.835   6.632  0.2006 -0.2683 -0.3083
  378SOL     hw 1510   5.852   0.880   6.660 -0.0016  0.1530 -0.4013
  378SOL     hw 1511   5.769   0.756   6.686  0.7405 -0.3467 -0.3844
  378SOL     vw 1512   5.782   0.831   6.642  0.2451 -0.2231 -0.3307
  379SOL     ow 1513   6.137   1.435   2.065  0.6815 -0.4892  0.2099
  379SOL     hw 1514   6.199   1.462   2.132 -0.1686 -0.0590  0.8438
  379SOL     hw 1515   6.104   1.516   2.027  0.7002 -0.7160 -0.3009
  379SOL     vw 1516   6.141   1.449   2.069  0.5717 -0.4624  0.2261
  380SOL     ow 1517   4.872   0.834   2.007 -0.4423  0.8500 -0.3890
  380SOL     hw 1518   4.812   0.819   2.079  0.1953  1.3246  0.2557
  380SOL     hw 1519   4.889   0.747   1.971 -1.4958  0.7121 -0.5767
  380SOL     vw 1520   4.867   0.821   2.012 -0.4971  0.8944 -0.3288
  381SOL     ow 1521   4.085   4.416   2.429 -0.4191  0.3663 -0.2897
  381SOL     hw 1522   4.166   4.412   2.379  0.1942 -0.2174  0.7180
  381SOL     hw 1523   4.016   4.417   2.363  0.3536 -0.6787 -1.1431
  381SOL     vw 1524   4.086   4.415   2.414 -0.2363  0.1512 -0.2694
  382SOL     ow 1525   6.853   3.019   5.732 -0.2164  0.5870  0.1278
  382SOL     hw 1526   6.770   3.063   5.748 -1.7690 -1.4513 -1.6954
  382SOL     hw 1527   6.874   3.038   5.641  0.3773 -0.3470  0.0456
  382SOL     vw 1528   6.845   3.027   5.722 -0.3431  0.1949 -0.1235
  383SOL     ow 1529   0.541   3.674   3.442  0.0835 -0.8098  0.7062
  383SOL     hw 1530   0.467   3.735   3.434  0.3036 -0.4792  1.1176
  383SOL     hw 1531   0.598   3.696   3.369  0.2670 -0.3730  0.9795
  383SOL     vw 1532   0.539   3.685   3.432  0.1368 -0.7086  0.7963
  384SOL     ow 1533   2.621   5.039   5.205  1.0669 -1.0294  0.3433
  384SOL     hw 1534   2.714   5.028   5.186  0.7971 -1.1767 -0.9545
  384SOL     hw 1535   2.576   5.000   5.130 -0.0203  1.3776 -0.3241
  384SOL     vw 1536   2.628   5.032   5.193  0.8878 -0.7315  0.0842
  385SOL     ow 1537   5.155   0.079   1.419  0.0993  0.4663  0.4041
  385SOL     hw 1538   5.086   0.013   1.427  0.4186 -0.6458 -3.7684
  385SOL     hw 1539   5.109   0.163   1.425 -1.5760 -0.2502 -1.3745
  385SOL     vw 1540   5.140   0.082   1.421 -0.0796  0.2251 -0.3811
  386SOL     ow 1541   5.413   0.598   3.018 -0.1585  0.0169 -0.3866
  386SOL     hw 1542   5.463   0.591   3.100  0.3033  0.8944 -0.5774
  386SOL     hw 1543   5.373   0.685   3.022  2.1234  1.2687 -2.3088
  386SOL     vw 1544   5.415   0.608   3.030  0.2034  0.2978 -0.6654
  387SOL     ow 1545   5.450   5.495   1.980  0.2297  0.6428  0.4485
  387SOL     hw 1546   5.384   5.427   1.988  0.7613  0.2683  1.9289
  387SOL     hw 1547   5.485   5.484   1.892 -1.1176  0.3473 -0.0703
  387SOL     vw 1548   5.446   5.485   1.970  0.1221  0.5543  0.5754
  388SOL     ow 1549   5.969   6.599   2.880 -0.5676  0.3738  0.1603
  388SOL     hw 1550   6.044   6.634   2.928 -0.0379  2.3818 -1.9822
  388SOL     hw 1551   5.899   6.595   2.946  0.2500  2.5379  1.2773
  388SOL     vw 1552   5.969   6.603   2.895 -0.3898  0.9243  0.0250
  389SOL     ow 1553   5.167   0.562   0.190  0.1667  0.0513  0.5348
  389SOL     hw 1554   5.084   0.516   0.175 -1.4107  1.5579  3.7362
  389SOL     hw 1555   5.203   0.521   0.268  1.6746  0.5142  0.1194
  389SOL     vw 1556   5.161   0.551   0.198  0.1574  0.3111  0.9024
  390SOL     ow 1557   3.338   3.095   6.398  0.1898 -0.0081 -0.3546
  390SOL     hw 1558   3.314   3.073   6.308 -0.1131  1.1167 -0.5610
  390SOL     hw 1559   3.361   3.188   6.395 -0.6316  0.2566  0.8811
  390SOL     vw 1560   3.338   3.104   6.386  0.0415  0.1751 -0.2186
  391SOL     ow 1561   3.502   0.999   4.287  0.3981  0.2826 -0.0639
  391SOL     hw 1562   3.597   0.992   4.283  0.5294  1.8448 -0.2142
  391SOL     hw 1563   3.471   0.929   4.230  1.4846  0.1982 -0.5800
  391SOL     vw 1564   3.510   0.989   4.279  0.5587  0.4776 -0.1521
  392SOL     ow 1565   0.626   0.079   3.954 -0.6516  0.0649 -0.8702
  392SOL     hw 1566   0.671  -0.006   3.954  0.4109  0.6137 -0.8532
  392SOL     hw 1567   0.574   0.077   3.873 -0.2287 -0.3954 -1.1424
  392SOL     vw 1568   0.625   0.067   3.943 -0.4556  0.0766 -0.9038
  393SOL     ow 1569   6.194   1.468   5.706 -0.1829 -0.0205  0.3175
  393SOL     hw 1570   6.224   1.397   5.762  1.1012  0.4503  0.2608
  393SOL     hw 1571   6.105   1.443   5.680 -0.8025 -0.2865  2.4923
  393SOL     vw 1572   6.186   1.455   5.710 -0.0954  0.0066  0.5972
  394SOL     ow 1573   5.498   1.509   0.396  0.2396  0.1219 -0.3407
  394SOL     hw 1574   5.446   1.589   0.394  0.6067  0.3672 -0.2050
  394SOL     hw 1575   5.478   1.470   0.481  2.1690  1.5129  0.8497
  394SOL     vw 1576   5.488   1.514   0.407  0.5426  0.3378 -0.1657
  395SOL     ow 1577   4.577   1.450   6.824 -0.3879 -0.0989  0.5472
  395SOL     hw 1578   4.605   1.452   6.733  3.0961  2.5131  1.4438
  395SOL     hw 1579   4.487   1.483   6.823  0.6488  3.1354 -1.7820
  395SOL     vw 1580   4.569   1.455   6.812  0.2086  0.6724  0.3583
  396SOL     ow 1581   5.439   5.446   0.030  0.0891  0.3345  0.3151
  396SOL     hw 1582   5.413   5.536   0.008  2.0017  1.2006  1.3355
  396SOL     hw 1583   5.421   5.396  -0.049 -0.7958  1.6431 -0.3636
  396SOL     vw 1584   5.433   5.451   0.017  0.2248  0.6216  0.3603
  397SOL     ow 1585   2.711   1.754   1.424 -0.6296 -0.5503  0.4425
  397SOL     hw 1586   2.625   1.796   1.424 -0.2233  0.3095  0.9074
  397SOL     hw 1587   2.773   1.826   1.432  0.3421 -0.8417 -2.9358
  397SOL     vw 1588   2.708   1.769   1.425 -0.4476 -0.4753  0.0581
  398SOL     ow 1589   5.237   1.417   0.807 -0.4140 -0.5574  0.4667
  398SOL     hw 1590   5.190   1.347   0.760  1.3645 -0.0865 -2.2714
  398SOL     hw 1591   5.175   1.490   0.809 -0.1974 -0.1531 -2.5133
  398SOL     vw 1592   5.223   1.417   0.801 -0.1507 -0.4419 -0.2877
  399SOL     ow 1593   2.591   4.958   2.037  0.2682  0.1099 -0.4383
  399SOL     hw 1594   2.571   4.879   2.087 -0.9714  0.4203 -0.4095
  399SOL     hw 1595   2.564   4.937   1.948 -1.4533  0.9818 -0.1550
  399SOL     vw 1596   2.585   4.945   2.032 -0.1224  0.2661 -0.3972
  400SOL     ow 1597   6.936   6.033   2.283  0.2578  0.3378 -0.1592
  400SOL     hw 1598   6.947   5.943   2.252 -3.9902 -0.8370  1.0391
  400SOL     hw 1599   6.886   6.077   2.214  0.4448  1.1183  0.1859
  400SOL     vw 1600   6.931   6.027   2.270 -0.2780  0.2856  0.0445
  401SOL     ow 1601   4.556   6.569   4.561 -0.0278 -0.0444 -0.4413
  401SOL     hw 1602   4.551   6.650   4.510 -0.9003  0.3354  0.2380
  401SOL     hw 1603   4.473   6.525   4.545  0.9924 -1.5701 -1.9948
  401SOL     vw 1604   4.545   6.574   4.552 -0.0083 -0.1955 -0.5565
  402SOL     ow 1605   1.419   5.147   1.046 -0.4366 -0.1119  0.2009
  402SOL     hw 1606   1.438   5.059   1.011  1.3602  0.0453  0.6707
  402SOL     hw 1607   1.444   5.141   1.138 -1.7637  0.4800  0.6131
  402SOL     vw 1608   1.425   5.134   1.054 -0.3747 -0.0134  0.3173
  403SOL     ow 1609   6.470   0.817   5.427 -0.3116  0.7748 -0.4592
  403SOL     hw 1610   6.444   0.744   5.483 -0.4301  0.5243 -0.8368
  403SOL     hw 1611   6.548   0.785   5.382 -1.0579  0.4266 -1.5285
  403SOL     vw 1612   6.477   0.803   5.429 -0.4258  0.6958 -0.6502
  404SOL     ow 1613   5.660   1.428   2.921 -0.1503  0.1533  0.3169
  404SOL     hw 1614   5.679   1.422   2.827 -2.4398  1.3683 -0.2994
  404SOL     hw 1615   5.566   1.446   2.925  0.0587  1.0261  2.8054
  404SOL     vw 1616   5.650   1.430   2.909 -0.4249  0.4287  0.5639
  405SOL     ow 1617   5.572   6.595   5.823 -0.1630 -0.1728  0.1647
  405SOL     hw 1618   5.492   6.557   5.788  0.9470 -1.2003 -1.4069
  405SOL     hw 1619   5.607   6.647   5.751  1.2056 -0.7407  0.3979
  405SOL     vw 1620   5.566   6.597   5.809  0.1643 -0.3831 -0.0119
  406SOL     ow 1621   0.293   6.607   1.547 -0.9221  0.3907 -0.7591
  406SOL     hw 1622   0.335   6.681   1.503 -2.2844  1.9918  0.4980
  406SOL     hw 1623   0.365   6.544   1.561  0.4919  1.8734 -1.0065
  406SOL     vw 1624   0.308   6.608   1.543 -0.9152  0.7977 -0.6259
  407SOL     ow 1625   1.375   5.314   4.571 -0.0155  0.3615  0.4669
  407SOL     hw 1626   1.314   5.371   4.524  0.4285  0.3644 -0.1178
  407SOL     hw 1627   1.369   5.230   4.525  0.9791  0.5761 -0.0894
  407SOL     vw 1628   1.366   5.311   4.558  0.1743  0.3903  0.3164
  408SOL     ow 1629   5.571   5.255   1.583 -0.2661  0.5990 -0.6252
  408SOL     hw 1630   5.482   5.221   1.574 -0.3350  0.6478 -0.1650
  408SOL     hw 1631   5.581   5.316   1.511 -0.4507  0.2618 -0.9405
  408SOL     vw 1632   5.560   5.258   1.573 -0.2995  0.5610 -0.6061
  409SOL     ow 1633   6.463   2.239   4.494  1.2421  0.2990 -0.8370
  409SOL     hw 1634   6.458   2.299   4.420  1.0365 -0.3344 -1.3412
  409SOL     hw 1635   6.372   2.216   4.513  1.2754  0.6523 -0.2245
  409SOL     vw 1636   6.450   2.244   4.487  1.2193  0.2621 -0.8228
  410SOL     ow 1637   3.618   1.480   2.638 -0.1862  0.0008 -0.3473
  410SOL     hw 1638   3.602   1.516   2.725  1.4994  1.3817 -0.5680
  410SOL     hw 1639   3.578   1.393   2.641  1.5730 -0.8320  2.4645
  410SOL     vw 1640   3.610   1.473   2.650  0.2683  0.0731 -0.0055
  411SOL     ow 1641   1.638   4.718   1.910 -0.0881 -0.3719  0.0262
  411SOL     hw 1642   1.674   4.681   1.991 -2.0242  0.7053  1.4415
  411SOL     hw 1643   1.661   4.653   1.842  1.3601 -1.4241  1.4454
  411SOL     vw 1644   1.646   4.704   1.912 -0.1524 -0.3686  0.4002
  412SOL     ow 1645   2.219   3.552   4.434 -0.0787 -0.9269  0.5512
  412SOL     hw 1646   2.212   3.604   4.514  1.1350  0.8560 -0.4249
  412SOL     hw 1647   2.128   3.535   4.409 -0.4885 -0.5830  1.7018
  412SOL     vw 1648   2.206   3.557   4.442  0.0275 -0.6462  0.5741
  413SOL     ow 1649   2.989   4.316   2.664 -0.1195 -0.0065  0.5820
  413SOL     hw 1650   2.939   4.381   2.614  0.6876  0.0030 -0.2417
  413SOL     hw 1651   2.925   4.277   2.724 -0.9839  0.3955 -0.0572
  413SOL     vw 1652   2.974   4.319   2.665 -0.1270  0.0474  0.3889
  414SOL     ow 1653   6.632   4.480   1.730  0.2589 -0.3628  0.2796
  414SOL     hw 1654   6.679   4.402   1.703  0.0642 -0.1812 -0.5940
  414SOL     hw 1655   6.698   4.535   1.771  1.1325  0.4526 -2.0741
  414SOL     vw 1656   6.647   4.477   1.732  0.3481 -0.2313 -0.1462
  415SOL     ow 1657   1.321   4.611   4.501  0.0110 -0.4639 -0.3227
  415SOL     hw 1658   1.356   4.610   4.590  2.0629 -2.2412 -1.0714
  415SOL     hw 1659   1.341   4.699   4.468  0.8458 -0.3843  0.3679
  415SOL     vw 1660   1.328   4.623   4.509  0.3918 -0.6878 -0.3304
  416SOL     ow 1661   4.417   1.239   0.807  0.3953  0.4468 -0.2154
  416SOL     hw 1662   4.436   1.277   0.892  1.8570 -1.6006  0.4601
  416SOL     hw 1663   4.500   1.245   0.759 -0.4278  1.6550 -1.5538
  416SOL     vw 1664   4.430   1.244   0.812  0.4795  0.3361 -0.3029
  417SOL     ow 1665   6.092   3.636   2.732 -0.2920  0.0164  0.3130
  417SOL     hw 1666   6.057   3.715   2.772  1.0747  0.9659 -0.2771
  417SOL     hw 1667   6.110   3.578   2.806 -0.2509  0.7099  0.8590
  417SOL     vw 1668   6.090   3.638   2.747 -0.1063  0.2333  0.3072
  418SOL     ow 1669   3.232   4.466   6.241  0.6003 -0.2516 -0.3435
  418SOL     hw 1670   3.187   4.419   6.171  1.1403  0.4332 -1.1805
  418SOL     hw 1671   3.295   4.522   6.195  0.5592  0.6515  0.6595
  418SOL     vw 1672   3.234   4.467   6.225  0.6661 -0.0420 -0.3216
  419SOL     ow 1673   4.714   6.327   6.064  0.0243 -0.0917  0.4941
  419SOL     hw 1674   4.652   6.398   6.077 -0.5369 -0.0470 -1.9434
  419SOL     hw 1675   4.693   6.263   6.132 -2.9254 -0.2103 -0.4073
  419SOL     vw 1676   4.703   6.328   6.074 -0.4389 -0.1016  0.0536
  420SOL     ow 1677   5.292   5.263   3.070  0.4611 -0.6250  0.8290
  420SOL     hw 1678   5.320   5.185   3.118 -0.6282 -0.7941  1.2187
  420SOL     hw 1679   5.197   5.252   3.060  0.6648 -0.6882 -1.5474
  420SOL     vw 1680   5.283   5.251   3.075  0.3440 -0.6554  0.5668
  421SOL     ow 1681   4.155   6.841   1.064  0.4676 -0.0663 -0.0962
  421SOL     hw 1682   4.147   6.932   1.035 -0.5400  0.4178  1.5723
  421SOL     hw 1683   4.160   6.847   1.159  2.3192 -1.6592 -0.0206
  421SOL     vw 1684   4.155   6.854   1.073  0.5791 -0.2127  0.1339
  422SOL     ow 1685   3.692   5.330   2.578  0.0426  0.1050 -0.8363
  422SOL     hw 1686   3.737   5.292   2.503  0.7171  2.1744 -1.5223
  422SOL     hw 1687   3.718   5.422   2.579 -1.2190  0.5081  0.9925
  422SOL     vw 1688   3.702   5.337   2.568 -0.0349  0.4313 -0.6856
  423SOL     ow 1689   3.684   2.026   0.821  0.0123  0.5984  0.8907
  423SOL     hw 1690   3.594   2.010   0.847 -0.1723  1.1457  0.6167
  423SOL     hw 1691   3.679   2.105   0.767  0.6455  0.5946  0.8210
  423SOL     vw 1692   3.672   2.034   0.817  0.0715  0.6701  0.8454
  424SOL     ow 1693   4.680   5.382   1.407 -0.0396  0.4049 -0.5197
  424SOL     hw 1694   4.767   5.421   1.409 -0.3864  1.2465 -1.3153
  424SOL     hw 1695   4.673   5.346   1.319  0.8716 -2.9348  0.6142
  424SOL     vw 1696   4.691   5.382   1.396  0.0348  0.0751 -0.4750
  425SOL     ow 1697   6.235   2.136   4.606  0.2766 -0.2673  0.1878
  425SOL     hw 1698   6.212   2.085   4.683 -0.0969 -0.4645 -0.0510
  425SOL     hw 1699   6.151   2.155   4.563  0.5149 -0.5861 -0.4340
  425SOL     vw 1700   6.221   2.132   4.610  0.2584 -0.3355  0.0744
  426SOL     ow 1701   4.028   1.952   5.602  0.6464  0.3307  0.5679
  426SOL     hw 1702   4.057   1.919   5.687 -1.3508 -2.1326  0.4312
  426SOL     hw 1703   4.091   1.915   5.540  0.0161 -1.0481  0.6976
  426SOL     vw 1704   4.040   1.943   5.605  0.2999 -0.1763  0.5670
  427SOL     ow 1705   0.137   5.560   5.025 -0.5103  0.2356  0.7024
  427SOL     hw 1706   0.206   5.580   4.961  0.3658  0.9405  1.8208
  427SOL     hw 1707   0.063   5.529   4.973  0.7591 -0.8773 -0.5230
  427SOL     vw 1708   0.137   5.558   5.010 -0.2272  0.1817  0.6886
  428SOL     ow 1709   4.787   0.312   1.133  0.4248  0.0191 -0.3288
  428SOL     hw 1710   4.694   0.336   1.138  0.0494 -0.8282 -2.2099
  428SOL     hw 1711   4.790   0.223   1.166  1.2083  1.1398  3.0272
  428SOL     vw 1712   4.775   0.304   1.138  0.4787  0.0551 -0.1342
  429SOL     ow 1713   2.426   5.040   6.228 -0.4653  0.3300 -0.2223
  429SOL     hw 1714   2.354   5.025   6.289 -0.9394 -0.2821 -0.9071
  429SOL     hw 1715   2.384   5.076   6.150  0.1701  1.3998 -0.0780
  429SOL     vw 1716   2.411   5.042   6.226 -0.4438  0.3903 -0.2935
  430SOL     ow 1717   2.117   6.574   4.533  0.4518 -0.3053 -0.0737
  430SOL     hw 1718   2.103   6.524   4.453  4.4564 -0.1961 -1.0548
  430SOL     hw 1719   2.119   6.665   4.504 -0.9132  0.0184  0.7286
  430SOL     vw 1720   2.115   6.579   4.519  0.8000 -0.2484 -0.0975
  431SOL     ow 1721   1.047   4.539   0.796 -0.4319  0.2456  0.1634
  431SOL     hw 1722   1.037   4.484   0.718  1.3868 -0.1338  0.1671
  431SOL     hw 1723   1.135   4.574   0.790 -1.1356  2.2535  0.7837
  431SOL     vw 1724   1.057   4.536   0.785 -0.2849  0.4604  0.2457
  432SOL     ow 1725   4.194   3.990   2.401 -0.6794 -0.0223  0.2009
  432SOL     hw 1726   4.277   4.037   2.411 -1.8750  2.5031 -0.6741
  432SOL     hw 1727   4.168   3.970   2.491 -0.8853  2.6227  0.8212
  432SOL     vw 1728   4.202   3.994   2.414 -0.8645  0.6598  0.1675
  433SOL     ow 1729   5.564   2.576   0.600 -0.0053 -0.3028 -0.1272
  433SOL     hw 1730   5.603   2.662   0.619  0.2560 -0.3052 -0.6371
  433SOL     hw 1731   5.622   2.514   0.645 -1.1236 -0.1263  1.6512
  433SOL     vw 1732   5.577   2.579   0.609 -0.1185 -0.2799  0.0402
  434SOL     ow 1733   3.597   5.153   0.205 -0.5897 -0.0383 -0.4070
  434SOL     hw 1734   3.614   5.059   0.199 -0.4590  0.0107 -0.8432
  434SOL     hw 1735   3.675   5.194   0.167 -0.4546  0.2598  0.1826
  434SOL     vw 1736   3.610   5.146   0.199 -0.5546  0.0072 -0.3867
  435SOL     ow 1737   2.494   1.721   5.329  0.1941 -0.0903  0.9445
  435SOL     hw 1738   2.569   1.749   5.381  1.3169 -2.0262  0.4593
  435SOL     hw 1739   2.483   1.628   5.350 -2.6913  0.3027  1.6991
  435SOL     vw 1740   2.502   1.712   5.339 -0.0385 -0.2939  0.9799
  436SOL     ow 1741   1.862   3.327   5.621 -0.6119 -0.5800 -0.4855
  436SOL     hw 1742   1.905   3.340   5.705 -0.9295 -2.6092  0.0654
  436SOL     hw 1743   1.932   3.301   5.562 -0.8721 -3.4074  0.2924
  436SOL     vw 1744   1.877   3.325   5.625 -0.6882 -1.2207 -0.3107
  437SOL     ow 1745   6.850   5.188   3.919 -0.2515 -0.2427  0.4127
  437SOL     hw 1746   6.853   5.281   3.897 -1.3741 -0.8846 -2.9414
  437SOL     hw 1747   6.927   5.151   3.876 -1.0893 -1.2031 -0.2867
  437SOL     vw 1748   6.861   5.195   3.911 -0.5102 -0.4542 -0.1221
  438SOL     ow 1749   3.801   6.673   7.073 -0.2203 -0.1058 -0.5412
  438SOL     hw 1750   3.843   6.624   7.143  0.4813 -0.6337 -1.3108
  438SOL     hw 1751   3.767   6.606   7.014 -1.5560  0.3191 -0.2966
  438SOL     vw 1752   3.802   6.658   7.074 -0.3039 -0.1194 -0.6105
  439SOL     ow 1753   5.282   4.755   6.828  0.5270 -0.3329 -0.5338
  439SOL     hw 1754   5.363   4.771   6.878 -1.0410  0.2847  2.0202
  439SOL     hw 1755   5.247   4.843   6.810  0.3431 -0.5962 -1.5131
  439SOL     vw 1756   5.288   4.769   6.833  0.2956 -0.2863 -0.3259
  440SOL     ow 1757   0.054   5.473   3.555  0.7114  0.0913 -0.1953
  440SOL     hw 1758   0.049   5.378   3.545 -0.3583  0.1126  0.0086
  440SOL     hw 1759   0.143   5.495   3.528  0.5728 -0.8228 -1.5389
  440SOL     vw 1760   0.065   5.463   3.550  0.5520 -0.0265 -0.3458
  441SOL     ow 1761   3.776   3.738   1.209 -0.1007 -0.1177 -0.2719
  441SOL     hw 1762   3.834   3.685   1.263 -0.8409 -1.1681 -0.4631
  441SOL     hw 1763   3.816   3.736   1.122  0.8071  1.1262  0.1013
  441SOL     vw 1764   3.789   3.730   1.204 -0.0786 -0.0921 -0.2480
  442SOL     ow 1765   2.949   5.898   0.675 -0.1838  0.1507 -0.0296
  442SOL     hw 1766   3.020   5.961   0.688  3.2777 -3.5786  1.3317
  442SOL     hw 1767   2.967   5.858   0.590  0.8246 -2.3105  1.2365
  442SOL     vw 1768   2.960   5.901   0.666  0.4060 -0.6659  0.3170
  443SOL     ow 1769   5.970   4.285   0.533 -0.4616 -0.3474 -0.0614
  443SOL     hw 1770   6.042   4.336   0.568  0.4619 -1.8490  0.3231
  443SOL     hw 1771   6.011   4.210   0.491 -1.7793 -1.0400 -0.1831
  443SOL     vw 1772   5.985   4.282   0.532 -0.5138 -0.6368 -0.0267
  444SOL     ow 1773   0.146   1.060   7.056  0.2705  0.1001  0.0398
  444SOL     hw 1774   0.068   1.105   7.090  1.7292  2.8465  0.0072
  444SOL     hw 1775   0.156   0.984   7.113 -2.9317 -0.9226 -0.5716
  444SOL     vw 1776   0.137   1.056   7.068  0.0405  0.3275 -0.0453
  445SOL     ow 1777   2.284   0.872   5.786 -0.2015  0.1403  0.2786
  445SOL     hw 1778   2.212   0.935   5.787 -1.6947 -1.4790  1.1444
  445SOL     hw 1779   2.295   0.846   5.878  1.3513  0.1664  0.1338
  445SOL     vw 1780   2.276   0.877   5.798 -0.1937 -0.0699  0.3738
  446SOL     ow 1781   5.882   5.162   3.753  0.3180 -0.2346 -0.6071
  446SOL     hw 1782   5.823   5.115   3.694  0.0148 -0.8549  0.1834
  446SOL     hw 1783   5.960   5.107   3.758 -0.6558 -1.5228  1.5803
  446SOL     vw 1784   5.884   5.149   3.746  0.1495 -0.4866 -0.2141
  447SOL     ow 1785   5.433   0.057   4.899  0.1417  0.0277 -0.2715
  447SOL     hw 1786   5.471   0.099   4.977  0.5845  0.5978 -0.7761
  447SOL     hw 1787   5.437   0.125   4.831 -4.2257  1.0835  0.2501
  447SOL     vw 1788   5.439   0.072   4.900 -0.3762  0.2420 -0.2692
  448SOL     ow 1789   6.872   0.884   1.903 -0.0811  0.0665  0.4299
  448SOL     hw 1790   6.827   0.800   1.912 -0.8493  0.4929  0.6682
  448SOL     hw 1791   6.851   0.932   1.984 -2.0152  1.5818 -0.8783
  448SOL     vw 1792   6.863   0.880   1.915 -0.4377  0.3227  0.2887
  449SOL     ow 1793   3.835   5.143   2.041 -0.0009  0.3688  0.7587
  449SOL     hw 1794   3.832   5.154   2.136 -0.0001  1.9701  0.6010
  449SOL     hw 1795   3.907   5.200   2.013  2.1682 -2.4766  0.0700
  449SOL     vw 1796   3.844   5.152   2.050  0.2854  0.2046  0.6469
  450SOL     ow 1797   1.173   3.442   4.698  0.2456 -0.1123 -0.0240
  450SOL     hw 1798   1.099   3.383   4.692 -0.0047  0.1664  0.3278
  450SOL     hw 1799   1.225   3.410   4.771 -0.5142  0.7965  0.9430
  450SOL     vw 1800   1.170   3.430   4.707  0.1122  0.0443  0.1500
  451SOL     ow 1801   1.389   2.120   2.993  0.2953  0.0714  0.1408
  451SOL     hw 1802   1.404   2.028   2.970 -1.4763 -0.6021  1.4496
  451SOL     hw 1803   1.455   2.139   3.060  0.8918 -0.1110 -0.3806
  451SOL     vw 1804   1.400   2.110   2.999  0.1402 -0.0416  0.2447
  452SOL     ow 1805   5.991   3.516   2.319  0.6687  0.0536  0.2875
  452SOL     hw 1806   5.977   3.424   2.297 -2.0125  0.4424  0.0805
  452SOL     hw 1807   6.008   3.558   2.235 -1.6024  0.2546 -0.1262
  452SOL     vw 1808   5.992   3.509   2.305  0.0157  0.1315  0.2056
  453SOL     ow 1809   0.504   2.774   1.193 -0.1410  0.2035 -0.6579
  453SOL     hw 1810   0.477   2.705   1.253 -2.8640  0.5433 -1.3625
  453SOL     hw 1811   0.536   2.845   1.249  1.1564 -0.9693  0.1422
  453SOL     vw 1812   0.505   2.774   1.208 -0.3291  0.0935 -0.6453
  454SOL     ow 1813   0.732   0.612   2.805 -0.1109 -0.0354  0.2590
  454SOL     hw 1814   0.708   0.702   2.782 -0.4954 -0.1644  0.1495
  454SOL     hw 1815   0.714   0.561   2.725 -0.3230 -0.2850  0.4653
  454SOL     vw 1816   0.727   0.617   2.791 -0.1897 -0.0853  0.2717
  455SOL     ow 1817   2.039   6.406   0.971 -0.5287  0.0336  0.1196
  455SOL     hw 1818   2.088   6.391   1.052  1.5201  0.4148 -0.9533
  455SOL     hw 1819   2.030   6.501   0.965  0.5840  0.1203 -0.7138
  455SOL     vw 1820   2.044   6.417   0.981 -0.1117  0.0956 -0.1319
  456SOL     ow 1821   4.951   1.042   5.868 -0.3698 -0.0905  0.5923
  456SOL     hw 1822   4.980   1.066   5.780  1.9869  0.1770  1.3709
  456SOL     hw 1823   4.902   0.961   5.856  0.9298 -0.7051 -0.8545
  456SOL     vw 1824   4.949   1.034   5.855  0.1128 -0.1363  0.5045
  457SOL     ow 1825   3.554   5.477   2.254  0.1094 -0.6793 -0.0279
  457SOL     hw 1826   3.618   5.506   2.188 -0.8492  1.7212  0.0161
  457SOL     hw 1827   3.554   5.546   2.320 -1.9581 -1.0238  0.3921
  457SOL     vw 1828   3.563   5.490   2.254 -0.2898 -0.4082  0.0334
  458SOL     ow 1829   3.713   6.672   3.054  0.5139  0.2909 -0.1190
  458SOL     hw 1830   3.700   6.599   3.115 -1.7262  0.6713 -0.0507
  458SOL     hw 1831   3.669   6.644   2.973 -0.6032  1.6188 -0.0128
  458SOL     vw 1832   3.705   6.659   3.051  0.0710  0.5159 -0.0958
  459SOL     ow 1833   4.528   1.181   5.626  0.5359 -0.6632 -0.3288
  459SOL     hw 1834   4.487   1.139   5.550  0.5921 -0.0529 -0.6999
  459SOL     hw 1835   4.506   1.274   5.617  2.8401 -0.1232 -1.1289
  459SOL     vw 1836   4.520   1.188   5.615  0.8471 -0.5115 -0.4833
  460SOL     ow 1837   4.610   6.043   3.238 -0.1693  0.2121  0.0604
  460SOL     hw 1838   4.686   6.076   3.287  0.2940  2.1901 -1.8410
  460SOL     hw 1839   4.638   6.043   3.147 -2.3732  0.7453 -0.6714
  460SOL     vw 1840   4.624   6.047   3.233 -0.3989  0.5431 -0.2869
  461SOL     ow 1841   6.344   2.240   0.945 -0.0909  0.2260 -0.5044
  461SOL     hw 1842   6.319   2.290   1.023 -0.1806 -0.1782 -0.2728
  461SOL     hw 1843   6.261   2.219   0.903 -0.0798 -0.1702 -0.3265
  461SOL     vw 1844   6.330   2.244   0.950 -0.1011  0.1204 -0.4504
  462SOL     ow 1845   1.102   2.159   4.627 -0.0027  0.1605  0.2741
  462SOL     hw 1846   1.176   2.120   4.675 -1.6753 -2.4525  0.9406
  462SOL     hw 1847   1.125   2.144   4.535 -0.2859 -2.0430  0.4921
  462SOL     vw 1848   1.115   2.152   4.621 -0.2607 -0.4749  0.3910
  463SOL     ow 1849   0.977   5.444   3.681 -0.0262  0.2563 -0.0805
  463SOL     hw 1850   0.897   5.456   3.630 -1.1176 -1.8810  0.9538
  463SOL     hw 1851   1.033   5.389   3.626 -0.3623 -0.3602  0.1762
  463SOL     vw 1852   0.974   5.438   3.667 -0.2145 -0.1070  0.0898
  464SOL     ow 1853   3.475   3.653   1.192 -0.2155  0.1656 -0.3086
  464SOL     hw 1854   3.417   3.684   1.122 -1.5146  0.3789  0.8104
  464SOL     hw 1855   3.444   3.564   1.210 -1.5613  0.9637  1.6355
  464SOL     vw 1856   3.463   3.645   1.185 -0.5645  0.2991  0.0955
  465SOL     ow 1857   1.858   3.986   4.781 -0.5913 -0.6450  0.4254
  465SOL     hw 1858   1.796   3.922   4.745 -0.1606  1.1415 -4.1046
  465SOL     hw 1859   1.938   3.935   4.795 -0.7003 -1.4613 -1.5939
  465SOL     vw 1860   1.860   3.971   4.778 -0.5488 -0.5170 -0.4385
  466SOL     ow 1861   3.965   1.300   2.833 -0.1981 -0.0860  1.5064
  466SOL     hw 1862   4.059   1.291   2.842 -0.1608  0.6253  1.9444
  466SOL     hw 1863   3.933   1.310   2.923 -0.6446  0.0409  1.3389
  466SOL     vw 1864   3.973   1.300   2.846 -0.2521  0.0246  1.5421
  467SOL     ow 1865   5.901   2.684   4.121  0.2041 -0.1958  0.7912
  467SOL     hw 1866   5.924   2.596   4.151  0.6003 -0.1217  0.7172
  467SOL     hw 1867   5.887   2.675   4.027  4.0965  0.4902 -0.0280
  467SOL     vw 1868   5.903   2.672   4.113  0.7699 -0.0954  0.6731
  468SOL     ow 1869   7.090   6.764   5.171  0.5010 -0.0933 -0.0681
  468SOL     hw 1870   7.168   6.788   5.222 -0.1980 -0.3942  1.1884
  468SOL     hw 1871   7.070   6.674   5.200 -0.3116 -0.0164 -0.3638
  468SOL     vw 1872   7.098   6.755   5.182  0.3014 -0.1230  0.0584
  469SOL     ow 1873   7.085   1.502   5.231  0.5142  0.1364 -0.2374
  469SOL     hw 1874   7.045   1.495   5.145 -0.5882 -0.0822  0.2831
  469SOL     hw 1875   7.134   1.420   5.242 -1.0550 -0.7793  0.1796
  469SOL     vw 1876   7.086   1.491   5.221  0.1619 -0.0133 -0.1137
  470SOL     ow 1877   6.133   3.876   6.939  0.2326 -0.3761 -0.0088
  470SOL     hw 1878   6.176   3.885   6.854  1.0839 -0.3634  0.4143
  470SOL     hw 1879   6.048   3.838   6.919  0.9673 -1.6889 -0.7285
  470SOL     vw 1880   6.128   3.872   6.925  0.4418 -0.5476 -0.0479
  471SOL     ow 1881   1.933   0.127   4.046 -0.3405  0.3587  0.2616
  471SOL     hw 1882   2.001   0.073   4.085  0.5605  0.1899 -1.4460
  471SOL     hw 1883   1.980   0.204   4.013 -1.0116  0.3986 -0.6473
  471SOL     vw 1884   1.948   0.130   4.047 -0.3102  0.3417 -0.0839
  472SOL     ow 1885   3.645   6.138   3.652  0.3403  0.1536  0.3924
  472SOL     hw 1886   3.653   6.208   3.587 -1.8487 -0.6382 -0.8518
  472SOL     hw 1887   3.710   6.073   3.626 -1.2363 -0.6678 -1.8036
  472SOL     vw 1888   3.655   6.139   3.640 -0.1565 -0.0591 -0.0614
  473SOL     ow 1889   6.625   3.454   7.022  0.1505  0.3482  0.5427
  473SOL     hw 1890   6.606   3.382   6.960  1.7132 -1.6785  2.2660
  473SOL     hw 1891   6.546   3.460   7.076  0.0945 -0.2775  0.5441
  473SOL     vw 1892   6.612   3.445   7.021  0.3493 -0.0017  0.7701
  474SOL     ow 1893   5.762   5.678   2.085 -0.2948 -0.0399 -0.2358
  474SOL     hw 1894   5.803   5.735   2.020  1.3476 -0.5941  0.2644
  474SOL     hw 1895   5.775   5.590   2.051 -1.0034 -0.2488  0.0035
  474SOL     vw 1896   5.769   5.674   2.072 -0.1717 -0.1404 -0.1383
  475SOL     ow 1897   7.041   6.622   3.257  0.2581  0.1050  0.5150
  475SOL     hw 1898   7.101   6.656   3.190 -0.4743  0.2365 -0.0933
  475SOL     hw 1899   7.086   6.638   3.340  0.7471  0.8629  0.1147
  475SOL     vw 1900   7.055   6.629   3.259  0.2260  0.2222  0.3818
  476SOL     ow 1901   6.279   1.661   6.242 -0.3815 -0.4112  0.0036
  476SOL     hw 1902   6.372   1.640   6.241 -0.7073 -2.0489 -0.1005
  476SOL     hw 1903   6.274   1.755   6.225  1.1772 -0.6083 -1.8797
  476SOL     vw 1904   6.291   1.670   6.240 -0.2191 -0.6533 -0.2584
  477SOL     ow 1905   2.698   0.516   3.297  0.4564  0.0224 -0.1343
  477SOL     hw 1906   2.620   0.489   3.346 -0.4175  1.9759 -0.3721
  477SOL     hw 1907   2.725   0.436   3.250 -2.4114 -0.3444 -1.3989
  477SOL     vw 1908   2.691   0.502   3.297 -0.0372  0.2317 -0.3327
  478SOL     ow 1909   1.128   5.049   0.950 -0.1964 -0.5453 -0.1895
  478SOL     hw 1910   1.169   4.970   0.984 -1.3680 -0.8653  0.5356
  478SOL     hw 1911   1.043   5.053   0.995 -1.0051  0.0377 -1.7149
  478SOL     vw 1912   1.122   5.039   0.961 -0.4576 -0.5105 -0.2951
  479SOL     ow 1913   4.014   5.660   6.982 -0.3518  0.0608 -0.0167
  479SOL     hw 1914   3.955   5.722   6.939 -1.6575 -0.0052  1.5704
  479SOL     hw 1915   4.028   5.591   6.917 -1.5267  0.4131 -0.6689
  479SOL     vw 1916   4.008   5.659   6.968 -0.6793  0.0982  0.1068
  480SOL     ow 1917   4.161   4.859   3.341  0.2948 -0.0948 -0.4622
  480SOL     hw 1918   4.219   4.802   3.392 -0.0462  0.2294  0.2994
  480SOL     hw 1919   4.073   4.834   3.368  0.0278 -0.9437 -1.9896
  480SOL     vw 1920   4.157   4.848   3.351  0.2146 -0.1643 -0.5631
  481SOL     ow 1921   7.056   4.726   4.550 -0.8136 -0.0326  0.0816
  481SOL     hw 1922   7.120   4.791   4.519  0.5587 -0.7204  1.3585
  481SOL     hw 1923   7.107   4.645   4.558 -2.2860 -1.0580 -0.5865
  481SOL     vw 1924   7.071   4.724   4.547 -0.8268 -0.2584  0.1619
  482SOL     ow 1925   0.206   3.000   4.882  0.4783  0.0794  0.5107
  482SOL     hw 1926   0.133   3.034   4.830  1.6594  1.5139 -0.2874
  482SOL     hw 1927   0.281   3.002   4.822  1.1745 -1.4643  1.2707
  482SOL     vw 1928   0.206   3.005   4.867  0.7260  0.0651  0.5054
  483SOL     ow 1929   4.992   1.523   3.798 -0.2938 -0.2149 -0.2751
  483SOL     hw 1930   5.037   1.442   3.773 -0.5080 -0.8350  1.2857
  483SOL     hw 1931   4.899   1.498   3.801 -0.2500 -0.2614  1.4202
  483SOL     vw 1932   4.985   1.509   3.795 -0.3161 -0.3029  0.1544
  484SOL     ow 1933   0.733   3.907   6.954  0.0186  0.6697 -0.1111
  484SOL     hw 1934   0.716   3.833   7.012  0.5305  1.3408  0.9161
  484SOL     hw 1935   0.715   3.873   6.866  1.7690 -1.1610  0.1609
  484SOL     vw 1936   0.728   3.893   6.950  0.3171  0.5167  0.0601
  485SOL     ow 1937   2.776   0.542   6.049 -0.0599  0.3595  0.3047
  485SOL     hw 1938   2.757   0.479   6.118  1.3089  0.6159  0.9484
  485SOL     hw 1939   2.702   0.602   6.049 -0.8255 -0.5566  0.4649
  485SOL     vw 1940   2.764   0.542   6.058  0.0196  0.2725  0.4110
  486SOL     ow 1941   5.854   1.901   1.128 -0.2136 -0.2043  0.7168
  486SOL     hw 1942   5.775   1.870   1.084 -0.6992  0.9765  0.7329
  486SOL     hw 1943   5.909   1.822   1.138 -0.4311 -0.6424 -1.2706
  486SOL     vw 1944   5.851   1.886   1.124 -0.3064 -0.1062  0.4567
  487SOL     ow 1945   3.624   0.750   2.258  0.3755 -0.2189 -0.3792
  487SOL     hw 1946   3.579   0.729   2.340  0.9972 -0.0906  0.0026
  487SOL     hw 1947   3.599   0.840   2.239 -0.3003 -0.4676 -0.6873
  487SOL     vw 1948   3.615   0.759   2.266  0.3685 -0.2348 -0.3694
  488SOL     ow 1949   4.956   3.707   6.775 -0.1198  0.0290 -0.3712
  488SOL     hw 1950   4.986   3.637   6.717 -0.5713  1.0518 -1.9000
  488SOL     hw 1951   5.005   3.694   6.856  1.0043 -1.0741 -1.1871
  488SOL     vw 1952   4.966   3.696   6.778 -0.0310  0.0185 -0.6804
  489SOL     ow 1953   6.497   4.815   0.113  0.0099 -0.3799 -0.0429
  489SOL     hw 1954   6.506   4.732   0.065 -1.0918 -0.2662 -0.4721
  489SOL     hw 1955   6.452   4.791   0.194 -0.9834 -0.1093 -0.4977
  489SOL     vw 1956   6.492   4.801   0.118 -0.2663 -0.3290 -0.1596
  490SOL     ow 1957   1.387   1.901   5.716  0.2376  0.1994 -0.6519
  490SOL     hw 1958   1.452   1.961   5.681  1.7527 -2.2057 -2.2543
  490SOL     hw 1959   1.338   1.871   5.640 -1.1211  0.1100  0.2250
  490SOL     vw 1960   1.389   1.905   5.701  0.2582 -0.1297 -0.7477
  491SOL     ow 1961   4.243   0.552   6.997 -0.1486  0.0044  0.1836
  491SOL     hw 1962   4.272   0.537   7.087  0.5649 -0.6519 -0.1432
  491SOL     hw 1963   4.249   0.647   6.986 -0.1166  0.0790  0.7843
  491SOL     vw 1964   4.248   0.562   7.007 -0.0501 -0.0724  0.2196
  492SOL     ow 1965   3.413   0.972   6.184  0.1878 -0.4803  0.3925
  492SOL     hw 1966   3.498   0.963   6.142 -1.2270  0.9655 -3.1044
  492SOL     hw 1967   3.426   1.039   6.251  2.1478 -1.6128  1.2258
  492SOL     vw 1968   3.426   0.980   6.187  0.2595 -0.4390  0.0412
  493SOL     ow 1969   5.529   6.412   6.710 -0.0728 -0.3274 -0.1119
  493SOL     hw 1970   5.508   6.482   6.648  0.4775 -0.7505 -0.7941
  493SOL     hw 1971   5.523   6.332   6.658  1.7556 -0.5870  0.0023
  493SOL     vw 1972   5.526   6.411   6.695  0.2413 -0.4172 -0.1869
  494SOL     ow 1973   1.023   1.223   3.958 -0.3161 -0.2465  0.5239
  494SOL     hw 1974   1.035   1.317   3.976 -1.5063 -0.0937  0.5818
  494SOL     hw 1975   1.111   1.187   3.961  0.5106  1.2982 -1.9308
  494SOL     vw 1976   1.036   1.231   3.961 -0.3640 -0.0226  0.2078
  495SOL     ow 1977   1.963   1.597   4.369  0.3027 -0.1014 -0.2864
  495SOL     hw 1978   1.958   1.501   4.367  0.3800 -0.0978 -1.0905
  495SOL     hw 1979   2.013   1.620   4.290  0.0048  0.6131 -0.2771
  495SOL     vw 1980   1.969   1.587   4.358  0.2736 -0.0067 -0.3915
  496SOL     ow 1981   6.776   2.204   6.768 -0.1672 -0.3265  0.4677
  496SOL     hw 1982   6.802   2.271   6.832 -0.8952  0.8148 -0.3739
  496SOL     hw 1983   6.691   2.173   6.800 -0.4370  0.0982  0.1689
  496SOL     vw 1984   6.768   2.209   6.781 -0.2987 -0.1199  0.3169
  497SOL     ow 1985   5.785   4.857   6.124 -0.1833 -0.4677 -0.6767
  497SOL     hw 1986   5.740   4.778   6.092  1.9089 -1.7666 -0.6770
  497SOL     hw 1987   5.869   4.824   6.156  2.0092  2.0640 -3.2696
  497SOL     vw 1988   5.790   4.842   6.124  0.3822 -0.3052 -1.0188
  498SOL     ow 1989   2.382   5.501   5.068  0.8772  0.5257  0.1923
  498SOL     hw 1990   2.333   5.419   5.075 -0.0810  1.1926  1.8190
  498SOL     hw 1991   2.375   5.525   4.976  1.9623 -1.6624 -0.5304
  498SOL     vw 1992   2.375   5.493   5.057  0.8938  0.3250  0.3114
  499SOL     ow 1993   2.382   0.010   5.204  0.6213 -0.5637  0.2800
  499SOL     hw 1994   2.287   0.020   5.201  0.8317  1.6047 -0.5467
  499SOL     hw 1995   2.399  -0.064   5.146 -0.5700 -1.1802  0.6738
  499SOL     vw 1996   2.372   0.001   5.196  0.4920 -0.3590  0.2229
  500SOL     ow 1997   4.921   2.440   3.498  0.2493  0.3717  0.7370
  500SOL     hw 1998   4.863   2.406   3.567  0.5503  1.2376  1.4310
  500SOL     hw 1999   4.983   2.496   3.545  1.7438 -0.6240  0.0380
  500SOL     vw 2000   4.921   2.443   3.514  0.4859  0.3546  0.7362
  501SOL     ow 2001   2.079   1.062   5.969  0.1508  0.2791 -0.5364
  501SOL     hw 2002   2.002   1.081   6.021 -0.1142  1.3302 -1.2791
  501SOL     hw 2003   2.120   0.987   6.013 -0.3564  0.7770  0.8315
  501SOL     vw 2004   2.075   1.054   5.981  0.0490  0.4835 -0.4539
  502SOL     ow 2005   2.580   1.628   3.021 -0.5649  0.0506  0.0076
  502SOL     hw 2006   2.554   1.716   2.992 -0.3600 -0.7428 -2.8723
  502SOL     hw 2007   2.676   1.632   3.025 -0.4785 -0.2876 -1.2139
  502SOL     vw 2008   2.589   1.640   3.018 -0.5264 -0.0988 -0.5337
  503SOL     ow 2009   3.093   4.185   5.072 -0.3867 -0.3807  0.0646
  503SOL     hw 2010   3.022   4.156   5.015  0.4033  0.2140 -1.2790
  503SOL     hw 2011   3.170   4.140   5.038  0.3465  1.0524 -0.2733
  503SOL     vw 2012   3.094   4.175   5.060 -0.1858 -0.1130 -0.1571
  504SOL     ow 2013   4.796   5.563   2.224 -0.3349  0.6368  0.1560
  504SOL     hw 2014   4.752   5.606   2.150 -0.2426  1.7565  0.7162
  504SOL     hw 2015   4.737   5.493   2.249 -1.0451  1.1228 -0.1104
  504SOL     vw 2016   4.782   5.560   2.217 -0.4165  0.8490  0.1948
  505SOL     ow 2017   6.555   6.346   4.629 -0.0060 -0.1749 -0.7472
  505SOL     hw 2018   6.506   6.289   4.688  0.9132 -0.4952 -0.2838
  505SOL     hw 2019   6.488   6.384   4.572 -1.1379  1.2605  1.3794
  505SOL     vw 2020   6.540   6.343   4.629 -0.0339 -0.0277 -0.4055
  506SOL     ow 2021   0.653   0.649   6.302 -0.1925  0.1537 -0.0259
  506SOL     hw 2022   0.719   0.661   6.370 -0.1370 -1.5284  0.2403
  506SOL     hw 2023   0.627   0.738   6.279  1.4424  0.8264  0.5667
  506SOL     vw 2024   0.658   0.662   6.308  0.0306  0.0205  0.0875
  507SOL     ow 2025   3.280   3.083   6.691 -0.3987  0.1894  0.2014
  507SOL     hw 2026   3.236   3.128   6.762  0.5625 -0.6165  1.3572
  507SOL     hw 2027   3.373   3.096   6.708 -0.0138 -2.8686  1.1260
  507SOL     vw 2028   3.287   3.090   6.703 -0.2211 -0.3203  0.4761
  508SOL     ow 2029   3.273   6.058   2.264  0.5636 -0.2279 -0.0179
  508SOL     hw 2030   3.332   6.133   2.257 -0.0074  0.3155  0.7411
  508SOL     hw 2031   3.294   6.018   2.349  1.2378 -1.2702 -0.6551
  508SOL     vw 2032   3.284   6.063   2.274  0.5772 -0.2935 -0.0018
  509SOL     ow 2033   6.721   3.680   5.709 -0.3112  0.2950 -0.5268
  509SOL     hw 2034   6.702   3.611   5.645 -1.4782  0.4698 -0.3918
  509SOL     hw 2035   6.776   3.638   5.775 -1.2036 -0.5698 -0.3210
  509SOL     vw 2036   6.726   3.666   5.709 -0.5829  0.2038 -0.4821
  510SOL     ow 2037   4.368   6.913   3.444  0.2841 -0.5605 -0.1324
  510SOL     hw 2038   4.360   6.845   3.511  0.3349  1.1927  1.7713
  510SOL     hw 2039   4.393   6.866   3.365 -1.7965 -2.9941  0.5105
  510SOL     vw 2040   4.370   6.898   3.443  0.0165 -0.6504  0.2037
  511SOL     ow 2041   0.601   1.848   2.523 -0.5054  0.2234 -0.2603
  511SOL     hw 2042   0.645   1.808   2.447 -0.1920  0.4221 -0.1870
  511SOL     hw 2043   0.660   1.830   2.596  0.3817  2.0524 -0.4659
  511SOL     vw 2044   0.615   1.841   2.522 -0.3470  0.4909 -0.2779
  512SOL     ow 2045   2.344   3.252   0.053  0.5997 -0.3687  0.5678
  512SOL     hw 2046   2.284   3.321   0.023  1.2518  0.2131  0.5886
  512SOL     hw 2047   2.336   3.184  -0.013  0.5198  0.0558  0.1322
  512SOL     vw 2048   2.335   3.252   0.040  0.6753 -0.2360  0.5131
  513SOL     ow 2049   1.335   1.871   3.207  0.4907 -0.5975  0.0637
  513SOL     hw 2050   1.317   1.815   3.283  0.3763  1.4860  1.6771
  513SOL     hw 2051   1.430   1.878   3.203  0.4787  0.2241  0.8006
  513SOL     vw 2052   1.345   1.865   3.217  0.4741 -0.2142  0.3737
  514SOL     ow 2053   4.662   7.000   3.466 -0.2510 -0.2014 -0.1215
  514SOL     hw 2054   4.714   7.028   3.542  1.0950 -0.5544 -0.8766
  514SOL     hw 2055   4.689   6.910   3.450  0.5023  0.2798 -1.8104
  514SOL     vw 2056   4.673   6.992   3.474  0.0260 -0.1848 -0.4439
  515SOL     ow 2057   3.360   4.859   3.184 -0.3654 -0.1557 -0.1609
  515SOL     hw 2058   3.291   4.814   3.233 -0.1572  1.0717  1.3545
  515SOL     hw 2059   3.438   4.850   3.238  0.5138 -0.9027 -1.5032
  515SOL     vw 2060   3.361   4.852   3.198 -0.2218 -0.0920 -0.1380
  516SOL     ow 2061   3.078   4.031   2.919  0.1968  0.1641 -0.1141
  516SOL     hw 2062   3.047   4.078   2.997  1.1876 -1.2100  1.1512
  516SOL     hw 2063   3.095   3.942   2.949  2.8433  0.1649 -1.3487
  516SOL     vw 2064   3.076   4.026   2.933  0.6766 -0.0172 -0.1100
  517SOL     ow 2065   3.710   5.149   4.906 -0.3055  0.0219 -0.6945
  517SOL     hw 2066   3.625   5.156   4.861 -0.6473 -1.1122 -0.2733
  517SOL     hw 2067   3.733   5.239   4.929 -1.9137  0.2734  0.0896
  517SOL     vw 2068   3.702   5.162   4.903 -0.5628 -0.0947 -0.5357
  518SOL     ow 2069   0.223   6.896   3.348  0.1089  0.6182 -0.2545
  518SOL     hw 2070   0.238   6.814   3.302 -0.0197  0.5477 -0.1706
  518SOL     hw 2071   0.285   6.895   3.422  0.8068  1.0430 -0.8132
  518SOL     vw 2072   0.233   6.885   3.352  0.1840  0.6652 -0.3170
  519SOL     ow 2073   1.599   1.485   2.160 -0.6801  0.1758 -0.0768
  519SOL     hw 2074   1.612   1.511   2.069 -1.8774 -2.4285 -1.0661
  519SOL     hw 2075   1.672   1.426   2.179 -0.4814  0.6381  0.6440
  519SOL     vw 2076   1.610   1.481   2.151 -0.8119 -0.1068 -0.1123
  520SOL     ow 2077   0.011   0.744   1.981  0.3160 -0.4906 -0.2208
  520SOL     hw 2078  -0.023   0.823   2.023  2.0169  1.2493 -1.8687
  520SOL     hw 2079   0.106   0.754   1.985  0.6617 -3.2600  0.8485
  520SOL     vw 2080   0.019   0.756   1.987  0.5860 -0.6265 -0.2971
  521SOL     ow 2081   5.748   4.091   1.464  0.0946  0.7337  0.2374
  521SOL     hw 2082   5.783   4.118   1.549  0.1371  0.4438  0.3135
  521SOL     hw 2083   5.820   4.105   1.403  0.3813  0.0541  0.4082
  521SOL     vw 2084   5.762   4.097   1.467  0.1380  0.6058  0.2699
  522SOL     ow 2085   3.926   0.815   0.064  0.5414 -0.5808 -0.1463
  522SOL     hw 2086   3.923   0.826  -0.031  1.9386 -1.6083 -0.3448
  522SOL     hw 2087   4.005   0.863   0.091  1.1970 -1.8181  0.2222
  522SOL     vw 2088   3.936   0.823   0.055  0.8123 -0.8797 -0.1239
  523SOL     ow 2089   5.960   6.181   5.399 -0.1994 -0.3645 -0.6433
  523SOL     hw 2090   5.936   6.271   5.419 -0.0191 -0.2846 -0.7803
  523SOL     hw 2091   5.993   6.184   5.309  0.9672 -0.3477 -0.2262
  523SOL     vw 2092   5.961   6.193   5.390 -0.0217 -0.3514 -0.6065
  524SOL     ow 2093   3.342   5.404   5.553 -0.1778  0.3517 -0.1167
  524SOL     hw 2094   3.360   5.344   5.625 -0.6756  2.3590  1.7848
  524SOL     hw 2095   3.268   5.365   5.507 -1.0364 -0.0928  1.5758
  524SOL     vw 2096   3.335   5.391   5.557 -0.3568  0.5577  0.3574
  525SOL     ow 2097   2.963   1.474   2.242  0.1405  0.2391 -0.1770
  525SOL     hw 2098   2.983   1.532   2.315  0.3571 -0.9282  0.7142
  525SOL     hw 2099   2.996   1.521   2.165  1.5740  0.7011  0.6666
  525SOL     vw 2100   2.970   1.488   2.241  0.3581  0.1460  0.0520
  526SOL     ow 2101   5.738   2.787   5.701 -0.3784 -0.0973 -0.4085
  526SOL     hw 2102   5.787   2.740   5.634  3.0469  2.2920  0.1699
  526SOL     hw 2103   5.716   2.871   5.661 -0.3363  0.4665  0.7011
  526SOL     vw 2104   5.742   2.792   5.687  0.0792  0.2922 -0.1860
  527SOL     ow 2105   4.793   4.572   5.812  0.3306  0.1562  0.0306
  527SOL     hw 2106   4.732   4.636   5.775 -0.4697 -0.8097 -0.3408
  527SOL     hw 2107   4.749   4.539   5.890  1.2186  0.8254  0.8538
  527SOL     vw 2108   4.779   4.576   5.817  0.3419  0.1171  0.0904
  528SOL     ow 2109   1.224   0.961   6.001  0.4260  0.5998 -0.0688
  528SOL     hw 2110   1.248   0.963   6.093  2.3708  2.5940 -0.5367
  528SOL     hw 2111   1.140   1.007   5.997  0.1711  0.2248  0.7185
  528SOL     vw 2112   1.216   0.968   6.012  0.6490  0.8135 -0.0265
  529SOL     ow 2113   6.579   7.058   5.655  0.3141 -0.3898  0.8609
  529SOL     hw 2114   6.595   7.057   5.750  0.5609 -0.7713  0.8191
  529SOL     hw 2115   6.574   7.150   5.632  1.9804 -0.2576  0.9546
  529SOL     vw 2116   6.580   7.070   5.665  0.5665 -0.4227  0.8676
  530SOL     ow 2117   3.908   0.580   2.920 -0.0193  0.7048 -0.1247
  530SOL     hw 2118   3.880   0.489   2.928 -4.8242  1.9269  0.0430
  530SOL     hw 2119   4.001   0.574   2.899 -0.1444 -4.2183 -0.5954
  530SOL     vw 2120   3.916   0.567   2.918 -0.6697  0.2165 -0.1646
  531SOL     ow 2121   3.093   6.302   7.084 -0.7736  0.2981 -0.1610
  531SOL     hw 2122   3.075   6.317   7.176 -1.4909  0.4561 -0.3180
  531SOL     hw 2123   3.108   6.389   7.047  3.6802  0.0482  0.5663
  531SOL     vw 2124   3.092   6.315   7.091 -0.2807  0.2859 -0.0858
  532SOL     ow 2125   4.331   1.032   3.132  0.1882 -1.5242 -0.5814
  532SOL     hw 2126   4.261   1.034   3.067 -0.7400 -0.0442  0.4052
  532SOL     hw 2127   4.401   1.085   3.093 -0.4578 -0.4393 -0.3169
  532SOL     vw 2128   4.331   1.039   3.119 -0.0193 -1.1859 -0.4163
  533SOL     ow 2129   6.896   5.868   6.704 -0.5331  0.3092 -0.2673
  533SOL     hw 2130   6.905   5.922   6.782  1.1812 -2.9498  2.0118
  533SOL     hw 2131   6.966   5.898   6.646  2.6791 -1.4307  2.3729
  533SOL     vw 2132   6.906   5.879   6.707  0.1168 -0.3505  0.3819
  534SOL     ow 2133   1.074   0.468   0.557  0.2865 -0.5810  0.0023
  534SOL     hw 2134   1.081   0.542   0.498  1.0149 -0.2201  0.5233
  534SOL     hw 2135   1.112   0.499   0.640 -1.8577 -0.6450  1.0744
  534SOL     vw 2136   1.080   0.482   0.560  0.0997 -0.5418  0.2125
  535SOL     ow 2137   1.954   2.615   4.931 -0.0602 -0.4759  0.0775
  535SOL     hw 2138   1.964   2.664   5.013 -1.4437 -0.3660  0.2006
  535SOL     hw 2139   2.041   2.578   4.915  0.5624  0.5525  0.9105
  535SOL     vw 2140   1.967   2.617   4.940 -0.1606 -0.3258  0.2036
  536SOL     ow 2141   6.031   2.139   1.059 -0.7655  0.4351 -0.0197
  536SOL     hw 2142   6.104   2.077   1.052 -0.8297  0.2652  0.7725
  536SOL     hw 2143   6.034   2.188   0.977  1.0236  1.2925  0.5046
  536SOL     vw 2144   6.041   2.137   1.047 -0.5379  0.5258  0.1540
  537SOL     ow 2145   6.743   3.337   4.526 -0.6672 -0.3625  0.4026
  537SOL     hw 2146   6.710   3.384   4.449 -1.6335  0.9765  1.5772
  537SOL     hw 2147   6.836   3.325   4.509 -1.0383 -0.9936 -1.4122
  537SOL     vw 2148   6.751   3.342   4.514 -0.8438 -0.2691  0.3181
  538SOL     ow 2149   2.435   3.397   0.338 -0.2404  0.3038 -0.3084
  538SOL     hw 2150   2.394   3.321   0.297 -0.7379  0.3480  0.0977
  538SOL     hw 2151   2.482   3.360   0.413 -0.2900  0.3700 -0.2451
  538SOL     vw 2152   2.436   3.382   0.343 -0.3127  0.3184 -0.2465
  539SOL     ow 2153   5.389   4.098   3.924  0.1442 -0.2730 -1.2580
  539SOL     hw 2154   5.360   4.052   4.002 -1.0327  1.9333 -0.3146
  539SOL     hw 2155   5.453   4.039   3.883  0.1015 -1.8707  0.8588
  539SOL     vw 2156   5.394   4.084   3.929 -0.0167 -0.1929 -0.8544
  540SOL     ow 2157   2.948   1.782   2.690 -0.2907  0.4292 -0.2020
  540SOL     hw 2158   2.963   1.865   2.737 -1.2525  0.0164  0.8866
  540SOL     hw 2159   2.855   1.766   2.700  0.0326 -1.2511  0.4325
  540SOL     vw 2160   2.938   1.791   2.698 -0.3748  0.1531  0.0254
  541SOL     ow 2161   3.707   1.727   2.546 -0.3514 -0.8177 -0.0461
  541SOL     hw 2162   3.704   1.752   2.638 -0.0817  0.2612 -0.3089
  541SOL     hw 2163   3.708   1.631   2.547  0.2950 -0.8200  1.0960
  541SOL     vw 2164   3.707   1.718   2.558 -0.2307 -0.6756  0.0700
  542SOL     ow 2165   1.768   5.126   5.786 -0.1862 -0.3798  0.2014
  542SOL     hw 2166   1.713   5.049   5.769 -0.3590  0.3097 -3.0052
  542SOL     hw 2167   1.855   5.100   5.756 -0.3725  0.7715 -1.5000
  542SOL     vw 2168   1.772   5.112   5.780 -0.2337 -0.1369 -0.4461
  543SOL     ow 2169   6.663   2.403   0.972  0.0675 -0.4156  0.3201
  543SOL     hw 2170   6.643   2.473   0.909 -1.5741  0.1244  1.3719
  543SOL     hw 2171   6.756   2.414   0.990 -0.3998  2.5571  1.5960
  543SOL     vw 2172   6.673   2.414   0.966 -0.2110  0.0477  0.6272
  544SOL     ow 2173   5.063   1.050   6.176 -0.3471  0.2469  0.8561
  544SOL     hw 2174   5.015   1.070   6.256 -0.1428  0.0900  1.0174
  544SOL     hw 2175   5.099   0.963   6.190 -1.1775 -0.2204  0.1777
  544SOL     vw 2176   5.062   1.041   6.188 -0.4296  0.1645  0.7880
  545SOL     ow 2177   6.579   2.386   1.857  0.2865  0.3377 -0.4836
  545SOL     hw 2178   6.486   2.390   1.837  0.4033  0.5770 -0.9830
  545SOL     hw 2179   6.582   2.363   1.950 -0.2416 -1.7299 -0.9351
  545SOL     vw 2180   6.567   2.384   1.867  0.2322  0.0966 -0.6090
  546SOL     ow 2181   3.221   3.851   2.675 -1.0142 -0.0519 -0.2549
  546SOL     hw 2182   3.204   3.797   2.597  1.0575 -1.8902  0.4816
  546SOL     hw 2183   3.181   3.803   2.747 -0.3302  0.0892  0.2280
  546SOL     vw 2184   3.213   3.838   2.674 -0.6505 -0.2759 -0.0941
  547SOL     ow 2185   1.057   3.622   0.615  0.1684  0.2577  0.5258
  547SOL     hw 2186   1.102   3.547   0.575 -0.7453 -0.0805  0.0946
  547SOL     hw 2187   1.097   3.699   0.574 -2.8466 -0.0464 -3.7228
  547SOL     vw 2188   1.068   3.622   0.604 -0.3500  0.1731 -0.0916
  548SOL     ow 2189   1.619   3.499   4.588 -0.6236 -0.3723  0.0084
  548SOL     hw 2190   1.664   3.525   4.668  1.9457 -0.8902 -1.1422
  548SOL     hw 2191   1.671   3.427   4.554 -0.7068  0.7690 -2.8496
  548SOL     vw 2192   1.632   3.493   4.594 -0.2956 -0.2900 -0.5202
  549SOL     ow 2193   2.007   4.862   6.079  0.2153 -0.7048  0.2032
  549SOL     hw 2194   2.091   4.906   6.065 -0.4237  0.6711  0.6439
  549SOL     hw 2195   2.013   4.784   6.023  1.4256 -0.1693 -0.4692
  549SOL     vw 2196   2.019   4.857   6.070  0.2909 -0.4528  0.1724
  550SOL     ow 2197   4.641   4.538   0.292 -0.4085 -0.9202  0.6155
  550SOL     hw 2198   4.576   4.572   0.230 -0.6966 -0.5784  1.0939
  550SOL     hw 2199   4.648   4.445   0.272  0.1372 -0.6605 -0.4956
  550SOL     vw 2200   4.633   4.531   0.281 -0.3746 -0.8407  0.5320
  551SOL     ow 2201   6.983   6.276   3.019  0.1035  0.0496  0.0752
  551SOL     hw 2202   7.009   6.189   2.989  0.3626 -0.4047  1.5360
  551SOL     hw 2203   6.921   6.307   2.953 -0.4356 -1.4845 -0.1708
  551SOL     vw 2204   6.978   6.269   3.006  0.0665 -0.2127  0.2353
  552SOL     ow 2205   0.416   1.229   7.092 -0.1131  0.4294  0.2825
  552SOL     hw 2206   0.422   1.323   7.109 -0.2947  0.6435 -0.7674
  552SOL     hw 2207   0.506   1.201   7.077 -0.1202  0.5529  0.0113
  552SOL     vw 2208   0.428   1.237   7.092 -0.1380  0.4739  0.1082
  553SOL     ow 2209   3.907   6.050   3.187  0.5484  0.1253 -0.5644
  553SOL     hw 2210   3.931   5.991   3.258  1.1063  2.4071  1.2841
  553SOL     hw 2211   3.843   6.110   3.225  0.0446  0.7871 -2.3194
  553SOL     vw 2212   3.902   6.050   3.201  0.5555  0.5138 -0.5521
  554SOL     ow 2213   2.572   3.718   6.935  0.5352  0.4110 -0.3613
  554SOL     hw 2214   2.484   3.733   6.970  1.5229  2.4495  1.5721
  554SOL     hw 2215   2.580   3.781   6.863  0.7465  1.0334  0.1907
  554SOL     vw 2216   2.561   3.728   6.930  0.6934  0.7621 -0.0334
  555SOL     ow 2217   4.264   3.202   2.787 -0.1352  0.2349  0.0174
  555SOL     hw 2218   4.223   3.129   2.740 -2.4441  1.0328  0.6233
  555SOL     hw 2219   4.312   3.160   2.858  0.8453 -0.8101 -1.2222
  555SOL     vw 2220   4.265   3.187   2.790 -0.3104  0.2023 -0.0662
  556SOL     ow 2221   1.365   0.897   2.740  0.0173 -0.1140  0.0431
  556SOL     hw 2222   1.319   0.917   2.821 -2.3513 -1.1383 -0.9425
  556SOL     hw 2223   1.329   0.958   2.676 -0.4526 -1.3363 -0.8991
  556SOL     vw 2224   1.354   0.908   2.742 -0.3573 -0.4104 -0.2114
  557SOL     ow 2225   6.344   2.444   1.142 -0.1180 -0.6031  0.2014
  557SOL     hw 2226   6.437   2.446   1.166  0.2252 -1.5901 -0.9306
  557SOL     hw 2227   6.303   2.509   1.199  1.3017  0.0027  0.5816
  557SOL     vw 2228   6.351   2.453   1.153  0.1147 -0.6534  0.1022
  558SOL     ow 2229   4.198   6.793   4.012  0.3810 -0.6208  0.3366
  558SOL     hw 2230   4.229   6.760   3.928  3.2458  1.2517  0.5526
  558SOL     hw 2231   4.203   6.717   4.071  0.5280 -1.3835 -0.6324
  558SOL     vw 2232   4.202   6.778   4.009  0.7784 -0.4740  0.2372
  559SOL     ow 2233   4.827   3.782   5.610 -0.1087 -0.1743  0.3547
  559SOL     hw 2234   4.903   3.837   5.591  0.7966 -1.0165  1.4416
  559SOL     hw 2235   4.829   3.769   5.705 -0.3452 -1.9780  0.1559
  559SOL     vw 2236   4.837   3.788   5.620 -0.0205 -0.5236  0.4721
  560SOL     ow 2237   4.747   2.228   3.535  0.2209  0.5696 -0.2046
  560SOL     hw 2238   4.686   2.285   3.487 -0.3586  0.8558  0.8374
  560SOL     hw 2239   4.693   2.157   3.569  0.3957  0.9715  0.9670
  560SOL     vw 2240   4.732   2.226   3.533  0.1674  0.6604  0.0874
  561SOL     ow 2241   6.635   4.611   3.688  0.1943 -0.0928  0.6390
  561SOL     hw 2242   6.581   4.589   3.764  0.9631  0.5230  1.3863
  561SOL     hw 2243   6.677   4.529   3.664  0.1926 -0.2313  1.0912
  561SOL     vw 2244   6.633   4.597   3.695  0.2954 -0.0300  0.7972
  562SOL     ow 2245   4.275   2.381   2.671  0.4941  0.4659 -0.5016
  562SOL     hw 2246   4.222   2.441   2.723  1.7184 -0.3890  1.8917
  562SOL     hw 2247   4.212   2.330   2.620 -0.9420  0.1605  1.4921
  562SOL     vw 2248   4.260   2.382   2.671  0.4661  0.3129  0.0771
  563SOL     ow 2249   1.310   4.465   4.813 -0.5751  0.1299  0.5494
  563SOL     hw 2250   1.306   4.393   4.750 -2.0155  0.5402  0.1306
  563SOL     hw 2251   1.399   4.463   4.846  0.7378  0.7936 -2.5659
  563SOL     vw 2252   1.321   4.455   4.809 -0.5918  0.2716  0.0832
  564SOL     ow 2253   3.788   2.902   3.492 -0.0497 -0.2494  0.4558
  564SOL     hw 2254   3.712   2.903   3.549  0.4932  0.9134  1.1841
  564SOL     hw 2255   3.863   2.893   3.551  0.3871 -1.7577 -0.2668
  564SOL     vw 2256   3.788   2.901   3.507  0.0795 -0.2952  0.4566
  565SOL     ow 2257   0.173   4.447   5.276 -0.9432 -1.2368  0.1883
  565SOL     hw 2258   0.165   4.402   5.192 -1.2047 -1.0937  0.1353
  565SOL     hw 2259   0.255   4.415   5.313  0.0043 -0.0660 -0.8412
  565SOL     vw 2260   0.182   4.437   5.270 -0.8527 -1.0636  0.0455
  566SOL     ow 2261   2.606   4.765   3.909  0.6205  0.5955 -0.2503
  566SOL     hw 2262   2.539   4.806   3.855  1.3389  0.1147 -1.5596
  566SOL     hw 2263   2.579   4.674   3.915  1.2619  0.3469 -0.9892
  566SOL     vw 2264   2.594   4.759   3.902  0.8000  0.4992 -0.5205
  567SOL     ow 2265   3.115   2.528   0.634 -0.0233 -0.2770  0.4916
  567SOL     hw 2266   3.077   2.570   0.711  1.3366  1.0077  0.5043
  567SOL     hw 2267   3.099   2.434   0.648 -0.7792  0.0161  1.7791
  567SOL     vw 2268   3.108   2.521   0.646  0.0565 -0.0689  0.6631
  568SOL     ow 2269   3.481   3.979   5.963 -0.6761 -0.0628  0.4702
  568SOL     hw 2270   3.476   4.073   5.945  0.9145 -0.0328 -0.0453
  568SOL     hw 2271   3.575   3.961   5.963 -0.9729 -1.7066  0.2974
  568SOL     vw 2272   3.493   3.989   5.961 -0.5052 -0.2757  0.3796
  569SOL     ow 2273   0.751   5.998   4.277  0.0616 -0.1786  0.4470
  569SOL     hw 2274   0.660   5.996   4.247 -0.1082  0.6268  0.8618
  569SOL     hw 2275   0.790   5.919   4.240 -0.4555  0.1368 -0.8489
  569SOL     vw 2276   0.744   5.988   4.268 -0.0290 -0.0308  0.3307
  570SOL     ow 2277   2.749   5.024   3.894  0.9773 -0.1684  0.1379
  570SOL     hw 2278   2.787   5.105   3.860  0.6642 -0.2525 -0.4223
  570SOL     hw 2279   2.657   5.027   3.866  0.8399 -0.4814  0.5441
  570SOL     vw 2280   2.742   5.035   3.886  0.9178 -0.2208  0.1177
  571SOL     ow 2281   0.897   6.593   1.061  0.0819  0.3396 -0.7528
  571SOL     hw 2282   0.833   6.664   1.069  1.3512  1.5945 -1.4749
  571SOL     hw 2283   0.979   6.636   1.037  1.0172 -1.3230 -0.6971
  571SOL     vw 2284   0.899   6.608   1.059  0.3728  0.2859 -0.8407
  572SOL     ow 2285   4.421   5.405   0.083 -0.1873  0.0885  0.5693
  572SOL     hw 2286   4.431   5.437  -0.007  0.1259  1.3673  1.0383
  572SOL     hw 2287   4.508   5.417   0.122 -0.2886 -0.5787  1.0087
  572SOL     vw 2288   4.434   5.411   0.076 -0.1590  0.1690  0.6890
  573SOL     ow 2289   7.000   2.894   2.245 -0.0629 -0.6457 -0.8591
  573SOL     hw 2290   6.919   2.881   2.295  0.3126 -0.0929 -0.0916
  573SOL     hw 2291   6.970   2.914   2.156 -0.7293 -2.5946 -1.1333
  573SOL     vw 2292   6.985   2.895   2.240 -0.1016 -0.8299 -0.7941
  574SOL     ow 2293   4.100   0.077   7.097  0.4743 -0.2984 -0.3852
  574SOL     hw 2294   4.088  -0.014   7.070  1.2202 -0.2102 -1.0112
  574SOL     hw 2295   4.141   0.071   7.184 -1.7860 -0.5730  0.7524
  574SOL     vw 2296   4.104   0.064   7.105  0.2744 -0.3230 -0.3177
  575SOL     ow 2297   3.296   5.359   4.795 -0.4477  0.7892  0.1597
  575SOL     hw 2298   3.370   5.389   4.847 -0.0805 -0.9235  0.6814
  575SOL     hw 2299   3.331   5.349   4.706 -0.3269  0.9725  0.1862
  575SOL     vw 2300   3.310   5.361   4.790 -0.3834  0.5875  0.2317
  576SOL     ow 2301   1.037   1.709   1.608  0.1809  0.2677 -0.6700
  576SOL     hw 2302   1.078   1.795   1.610  3.0154 -0.9586 -0.2040
  576SOL     hw 2303   0.954   1.720   1.653  2.7698  1.7692  4.5399
  576SOL     vw 2304   1.032   1.722   1.614  0.8965  0.3041  0.0789
  577SOL     ow 2305   6.736   0.254   1.463 -0.0288 -0.6505  0.0785
  577SOL     hw 2306   6.720   0.206   1.381  1.1366  2.4949 -2.2151
  577SOL     hw 2307   6.816   0.215   1.499  1.2688 -0.1461 -2.0659
  577SOL     vw 2308   6.745   0.243   1.457  0.2961 -0.1689 -0.5071
  578SOL     ow 2309   3.325   3.343   5.017 -0.1395  0.0856 -0.1829
  578SOL     hw 2310   3.353   3.421   5.065  0.0740 -0.7697  1.1415
  578SOL     hw 2311   3.235   3.327   5.048 -0.8845  0.8389 -1.8369
  578SOL     vw 2312   3.316   3.351   5.027 -0.2096  0.0720 -0.2263
  579SOL     ow 2313   4.019   2.050   6.817 -0.0043  0.1981  0.6673
  579SOL     hw 2314   4.001   2.121   6.878  0.6667 -0.4815  1.6885
  579SOL     hw 2315   3.995   1.971   6.864 -1.5921 -0.2443 -0.7781
  579SOL     vw 2316   4.013   2.049   6.831 -0.1252  0.0499  0.6115
  580SOL     ow 2317   6.144   1.614   5.927 -0.4297 -0.1918 -0.1011
  580SOL     hw 2318   6.147   1.709   5.938  0.3526 -0.2378  0.1375
  580SOL     hw 2319   6.173   1.599   5.838 -1.0273 -0.1839 -0.3027
  580SOL     vw 2320   6.148   1.625   5.917 -0.4055 -0.1968 -0.0961
  581SOL     ow 2321   1.838   4.825   6.292  0.5427  0.6813 -0.6728
  581SOL     hw 2322   1.763   4.783   6.333  0.5903 -0.3019 -1.5522
  581SOL     hw 2323   1.914   4.778   6.327  0.7986  1.8165  0.3852
  581SOL     vw 2324   1.838   4.813   6.302  0.5827  0.7014 -0.6492
  582SOL     ow 2325   0.779   6.022   5.952  0.2574  0.1331  0.0987
  582SOL     hw 2326   0.817   6.110   5.952  3.4775 -1.0577  1.8466
  582SOL     hw 2327   0.745   6.010   6.041  0.0579 -0.4321 -0.0465
  582SOL     vw 2328   0.780   6.032   5.964  0.6559 -0.0989  0.3099
  583SOL     ow 2329   3.291   0.955   4.522  0.5384 -0.0007  0.7361
  583SOL     hw 2330   3.361   0.897   4.552 -0.6643 -2.2204 -0.5466
  583SOL     hw 2331   3.217   0.897   4.504 -1.0837  2.0691  0.3608
  583SOL     vw 2332   3.291   0.940   4.524  0.1657 -0.0204  0.5171
  584SOL     ow 2333   0.802   2.206   0.174 -0.9468  0.2612  0.2153
  584SOL     hw 2334   0.857   2.232   0.100 -0.8901  0.1840  0.2294
  584SOL     hw 2335   0.800   2.283   0.231 -1.3372  0.4645 -0.0699
  584SOL     vw 2336   0.809   2.219   0.172 -0.9908  0.2779  0.1796
  585SOL     ow 2337   3.953   3.327   3.781  0.1651 -0.2349 -0.3302
  585SOL     hw 2338   3.860   3.347   3.791  0.7607  2.0810  1.7412
  585SOL     hw 2339   3.963   3.239   3.817 -1.1581 -0.3778 -0.2702
  585SOL     vw 2340   3.942   3.318   3.787  0.0693  0.0517 -0.0490
  586SOL     ow 2341   0.380   5.722   3.697 -0.7447 -0.1374 -0.3718
  586SOL     hw 2342   0.412   5.654   3.637 -0.2685 -0.1395 -0.1191
  586SOL     hw 2343   0.378   5.679   3.782  1.4598  0.7048  0.1674
  586SOL     vw 2344   0.384   5.707   3.700 -0.3910 -0.0265 -0.2673
  587SOL     ow 2345   1.256   5.259   6.862 -0.0853  0.1999  0.0709
  587SOL     hw 2346   1.198   5.308   6.921 -0.3106  0.8283 -0.6477
  587SOL     hw 2347   1.210   5.260   6.778  0.0900 -0.9413 -0.0494
  587SOL     vw 2348   1.242   5.266   6.859 -0.0919  0.1323 -0.0398
  588SOL     ow 2349   1.020   0.187   6.302 -0.0026 -0.2076 -0.0518
  588SOL     hw 2350   0.962   0.161   6.230  0.2261 -4.5178  1.0633
  588SOL     hw 2351   1.106   0.194   6.261 -0.4890  1.7771 -0.8790
  588SOL     vw 2352   1.023   0.184   6.287 -0.0366 -0.5144 -0.0136
  589SOL     ow 2353   4.967   3.336   4.151  0.2606  0.1552  0.0069
  589SOL     hw 2354   4.871   3.342   4.154  0.2912  1.1710 -0.4785
  589SOL     hw 2355   4.994   3.338   4.243 -0.1229  1.5591  0.1179
  589SOL     vw 2356   4.958   3.337   4.164  0.2141  0.4746 -0.0424
  590SOL     ow 2357   1.871   6.433   6.292  0.0171  0.4222  0.0598
  590SOL     hw 2358   1.857   6.352   6.341  0.1809  0.8893  0.8992
  590SOL     hw 2359   1.827   6.418   6.209 -0.2900 -0.3815  0.3514
  590SOL     vw 2360   1.863   6.420   6.288 -0.0018  0.3779  0.2091
  591SOL     ow 2361   6.243   4.660   2.948 -0.1837 -0.0870 -0.0764
  591SOL     hw 2362   6.168   4.694   2.997 -1.0893  0.3413 -1.6955
  591SOL     hw 2363   6.311   4.726   2.961  0.5577 -1.2572  2.7667
  591SOL     vw 2364   6.242   4.673   2.956 -0.2055 -0.1848  0.0851
  592SOL     ow 2365   1.772   6.307   0.409  0.3746 -0.4024 -0.2487
  592SOL     hw 2366   1.792   6.275   0.497 -0.1926  0.8360  0.3582
  592SOL     hw 2367   1.828   6.255   0.351 -0.1718 -2.1432  0.7018
  592SOL     vw 2368   1.782   6.296   0.413  0.2276 -0.4687 -0.0432
  593SOL     ow 2369   4.370   2.151   5.438  0.0033 -0.2882  0.2579
  593SOL     hw 2370   4.359   2.156   5.343  0.1130 -1.6646  0.1481
  593SOL     hw 2371   4.367   2.057   5.457 -2.6717  0.0438  1.9543
  593SOL     vw 2372   4.368   2.139   5.428 -0.3350 -0.4261  0.4671
  594SOL     ow 2373   3.339   4.558   0.135  0.4550  0.2973 -0.0273
  594SOL     hw 2374   3.413   4.498   0.128  0.8526  0.8604 -0.6846
  594SOL     hw 2375   3.311   4.550   0.227  1.7266  0.5575  0.4038
  594SOL     vw 2376   3.345   4.549   0.146  0.6752  0.4060 -0.0572
  595SOL     ow 2377   0.211   1.283   4.171  0.7898  0.2050  0.9976
  595SOL     hw 2378   0.180   1.243   4.253 -4.8931  2.4009  0.3343
  595SOL     hw 2379   0.205   1.212   4.107  1.3396 -0.4985  1.6903
  595SOL     vw 2380   0.206   1.268   4.174  0.1125  0.4019  1.0016
  596SOL     ow 2381   2.247   3.239   4.448 -0.6696 -0.0604 -0.0959
  596SOL     hw 2382   2.175   3.228   4.511 -0.4307  0.7199  0.3166
  596SOL     hw 2383   2.203   3.251   4.364 -0.9911 -1.2334 -0.1153
  596SOL     vw 2384   2.232   3.239   4.445 -0.6803 -0.1123 -0.0441
  597SOL     ow 2385   1.725   6.782   1.319  0.0894 -0.1735  0.1347
  597SOL     hw 2386   1.793   6.722   1.287  0.5211  0.9079 -1.0098
  597SOL     hw 2387   1.702   6.836   1.244 -1.5314 -0.0210  0.7026
  597SOL     vw 2388   1.731   6.781   1.305 -0.0675 -0.0110  0.0587
  598SOL     ow 2389   2.796   4.710   7.102  0.5971  0.2880  0.5862
  598SOL     hw 2390   2.859   4.639   7.100 -1.0454 -1.2308  0.3585
  598SOL     hw 2391   2.841   4.781   7.147  2.8001 -0.3609 -0.4477
  598SOL     vw 2392   2.810   4.710   7.108  0.6711  0.0021  0.4199
  599SOL     ow 2393   4.802   6.410   4.682 -0.3772  0.1890 -0.2969
  599SOL     hw 2394   4.845   6.455   4.755 -2.4063 -0.1426  1.2331
  599SOL     hw 2395   4.837   6.321   4.684  0.2279  0.4232 -0.3077
  599SOL     vw 2396   4.812   6.404   4.692 -0.5651  0.1760 -0.0966
  600SOL     ow 2397   3.656   1.310   5.446 -0.4089 -0.4401  0.0608
  600SOL     hw 2398   3.599   1.251   5.495 -1.2517  1.3945  1.3801
  600SOL     hw 2399   3.723   1.336   5.510 -0.2901  0.3408 -0.3761
  600SOL     vw 2400   3.658   1.306   5.461 -0.5045 -0.0950  0.1774
  601SOL     ow 2401   4.016   0.380   0.778 -0.0388  0.4747 -0.0676
  601SOL     hw 2402   3.996   0.326   0.701 -1.9263  0.6473  0.2688
  601SOL     hw 2403   4.056   0.459   0.741 -2.6064  1.3895 -1.1089
  601SOL     vw 2404   4.019   0.384   0.763 -0.6263  0.6181 -0.1606
  602SOL     ow 2405   5.103   4.981   6.804  0.0569  0.0505 -0.7721
  602SOL     hw 2406   5.027   4.942   6.761 -0.9030  1.5766 -0.5352
  602SOL     hw 2407   5.083   5.075   6.808  2.0419  0.5303 -0.8829
  602SOL     vw 2408   5.090   4.988   6.799  0.1922  0.3152 -0.7553
  603SOL     ow 2409   6.767   0.710   0.466  1.0420 -0.0922  0.4337
  603SOL     hw 2410   6.742   0.658   0.543 -1.7375 -0.7332 -0.7793
  603SOL     hw 2411   6.801   0.792   0.502 -0.9201 -0.0487  2.3749
  603SOL     vw 2412   6.768   0.714   0.481  0.4165 -0.1710  0.5298
  604SOL     ow 2413   5.724   1.688   0.283 -0.5560  0.1939 -0.8186
  604SOL     hw 2414   5.802   1.733   0.251  0.4288  0.4078  1.6662
  604SOL     hw 2415   5.653   1.752   0.275  0.3837  1.4871  0.6252
  604SOL     vw 2416   5.725   1.702   0.278 -0.3021  0.3927 -0.3002
  605SOL     ow 2417   5.904   5.543   1.719  0.2235  0.2252  0.0546
  605SOL     hw 2418   5.858   5.627   1.722 -0.3894 -0.1299  1.1756
  605SOL     hw 2419   5.934   5.535   1.628  1.5009  2.2890  0.2364
  605SOL     vw 2420   5.902   5.553   1.707  0.3114  0.4508  0.2265
  606SOL     ow 2421   5.706   3.392   2.433  0.5080 -0.1120  0.2271
  606SOL     hw 2422   5.662   3.341   2.501  2.6611  1.2309  2.8299
  606SOL     hw 2423   5.677   3.353   2.350 -2.9328 -1.2877  1.8101
  606SOL     vw 2424   5.697   3.380   2.431  0.3381 -0.0899  0.7793
  607SOL     ow 2425   3.416   0.200   0.371 -0.6307 -0.0913  0.4381
  607SOL     hw 2426   3.463   0.203   0.454  2.4820  0.6753 -1.1721
  607SOL     hw 2427   3.469   0.143   0.316 -1.3386  1.1410 -1.6469
  607SOL     vw 2428   3.429   0.193   0.375 -0.3134  0.1724 -0.0494
  608SOL     ow 2429   2.814   0.591   3.594 -0.1700  0.0153  0.1153
  608SOL     hw 2430   2.795   0.505   3.632  0.3553  0.3365  1.1476
  608SOL     hw 2431   2.906   0.607   3.617 -0.4560  1.1550  0.5497
  608SOL     vw 2432   2.824   0.582   3.602 -0.1385  0.2080  0.3089
  609SOL     ow 2433   2.285   5.827   3.667 -0.0618 -0.1059 -0.7375
  609SOL     hw 2434   2.328   5.912   3.670 -2.0460  1.0624 -2.4495
  609SOL     hw 2435   2.242   5.819   3.752  1.0041  0.0841 -0.1646
  609SOL     vw 2436   2.285   5.837   3.679 -0.1830  0.0734 -0.8876
  610SOL     ow 2437   1.140   5.335   1.048 -0.1572 -0.0281 -0.1882
  610SOL     hw 2438   1.057   5.353   1.004 -0.9940 -1.3046  0.8111
  610SOL     hw 2439   1.136   5.388   1.128  0.0648  0.0124 -0.2040
  610SOL     vw 2440   1.129   5.345   1.052 -0.2382 -0.1912 -0.0585
  611SOL     ow 2441   3.750   5.718   4.103  0.3729  0.6833 -0.4704
  611SOL     hw 2442   3.774   5.746   4.191 -0.7946 -0.7945  0.3620
  611SOL     hw 2443   3.741   5.800   4.053  0.1092  1.6005  1.0302
  611SOL     vw 2444   3.752   5.732   4.108  0.1839  0.6092 -0.1624
  612SOL     ow 2445   5.933   2.351   3.552  0.0838  0.2678 -0.1686
  612SOL     hw 2446   6.013   2.357   3.603  0.1813 -2.0577  0.0294
  612SOL     hw 2447   5.962   2.351   3.461  0.2177  0.4286 -0.1259
  612SOL     vw 2448   5.947   2.352   3.546  0.1144 -0.0178 -0.1369
  613SOL     ow 2449   0.681   3.594   2.521 -0.0772 -0.0342 -0.5222
  613SOL     hw 2450   0.657   3.606   2.612  0.7089 -0.6434 -0.2243
  613SOL     hw 2451   0.649   3.673   2.477 -0.6363  0.1712  0.2361
  613SOL     vw 2452   0.674   3.606   2.527 -0.0472 -0.0874 -0.3830
  614SOL     ow 2453   1.775   5.432   5.598  0.2932  0.5684  0.1407
  614SOL     hw 2454   1.750   5.509   5.548  2.1033  1.1511  0.0597
  614SOL     hw 2455   1.867   5.447   5.621  1.4911 -2.5777 -1.8662
  614SOL     vw 2456   1.784   5.444   5.595  0.6900  0.2301 -0.1347
  615SOL     ow 2457   1.493   6.661   2.355 -0.8206 -0.4374  0.0613
  615SOL     hw 2458   1.480   6.595   2.288 -0.3282 -0.9570  0.4698
  615SOL     hw 2459   1.521   6.612   2.432  0.3457  0.3129  0.1374
  615SOL     vw 2460   1.495   6.646   2.356 -0.6018 -0.4067  0.1252
  616SOL     ow 2461   4.846   3.085   1.957 -0.1850  1.3261 -0.3317
  616SOL     hw 2462   4.889   3.160   1.915 -0.1837  1.0161 -0.8956
  616SOL     hw 2463   4.776   3.124   2.010 -1.6187  1.6185 -2.3304
  616SOL     vw 2464   4.843   3.100   1.958 -0.3738  1.3238 -0.6698
  617SOL     ow 2465   1.024   4.657   1.086  0.0776  0.1904  0.3280
  617SOL     hw 2466   1.088   4.723   1.060  1.1521 -0.9504 -0.0361
  617SOL     hw 2467   1.007   4.674   1.178  1.9860 -0.3308  0.8148
  617SOL     vw 2468   1.030   4.668   1.094  0.4712 -0.0291  0.3441
  618SOL     ow 2469   0.193   3.657   4.343 -0.3527 -0.0131  0.1117
  618SOL     hw 2470   0.278   3.635   4.382 -0.2853  0.0857  0.0219
  618SOL     hw 2471   0.141   3.577   4.350  0.1037 -0.4030 -0.8066
  618SOL     vw 2472   0.197   3.644   4.349 -0.2836 -0.0515 -0.0210
  619SOL     ow 2473   6.280   5.618   0.562  0.8310 -0.5809  0.2054
  619SOL     hw 2474   6.283   5.648   0.471 -0.5643  0.6807  0.5380
  619SOL     hw 2475   6.372   5.607   0.587  1.2763  0.2041 -0.9939
  619SOL     vw 2476   6.293   5.621   0.553  0.7057 -0.3109  0.0911
  620SOL     ow 2477   5.582   4.880   5.083 -0.0697  0.6252  0.2367
  620SOL     hw 2478   5.545   4.964   5.113 -2.2122  0.1702 -0.9183
  620SOL     hw 2479   5.673   4.900   5.063  0.2661  1.9932  2.6765
  620SOL     vw 2480   5.589   4.894   5.085 -0.3080  0.7455  0.4060
  621SOL     ow 2481   6.379   6.125   4.771  0.0839  0.7170  0.5531
  621SOL     hw 2482   6.295   6.103   4.731 -0.3782  0.4208  1.6588
  621SOL     hw 2483   6.374   6.087   4.859  1.5749  0.2428  0.4587
  621SOL     vw 2484   6.367   6.117   4.777  0.2196  0.6154  0.6866
  622SOL     ow 2485   4.287   0.933   4.540 -0.3373  0.2446  0.5410
  622SOL     hw 2486   4.200   0.895   4.553 -0.0088 -0.5948  0.3456
  622SOL     hw 2487   4.324   0.939   4.628  0.5023 -2.0970  0.4217
  622SOL     vw 2488   4.280   0.929   4.553 -0.1833 -0.1751  0.4997
  623SOL     ow 2489   6.110   1.790   6.937  0.5038  0.6299  0.1459
  623SOL     hw 2490   6.198   1.828   6.929  0.3978  0.8332 -0.0802
  623SOL     hw 2491   6.101   1.771   7.031  0.9356  0.2454  0.1160
  623SOL     vw 2492   6.120   1.793   6.949  0.5472  0.6061  0.1123
  624SOL     ow 2493   2.665   1.438   1.386  0.2479 -0.0755 -0.1856
  624SOL     hw 2494   2.703   1.351   1.385  0.0749 -0.1489 -0.3726
  624SOL     hw 2495   2.584   1.430   1.335  0.5324  0.3282 -0.7125
  624SOL     vw 2496   2.659   1.426   1.379  0.2625 -0.0320 -0.2798
  625SOL     ow 2497   4.362   3.038   6.020 -0.1932  0.4781  0.2129
  625SOL     hw 2498   4.426   3.109   6.012  2.2545 -1.6743 -0.2723
  625SOL     hw 2499   4.354   3.025   6.115 -1.8078  2.2733  0.3954
  625SOL     vw 2500   4.369   3.046   6.032 -0.0834  0.4309  0.1729
  626SOL     ow 2501   3.652   3.221   6.335  0.0819  0.4227 -0.5033
  626SOL     hw 2502   3.686   3.131   6.342  1.0691  0.8231 -0.0157
  626SOL     hw 2503   3.726   3.276   6.359 -0.7206  1.3537 -0.1339
  626SOL     vw 2504   3.666   3.216   6.339  0.1063  0.5983 -0.3903
  627SOL     ow 2505   2.840   0.011   6.559  0.4063  0.6331 -0.0098
  627SOL     hw 2506   2.912  -0.008   6.620  0.9070  2.3401 -0.0235
  627SOL     hw 2507   2.870   0.088   6.511 -0.0695 -0.5496 -2.3056
  627SOL     vw 2508   2.854   0.019   6.561  0.4096  0.7024 -0.3142
  628SOL     ow 2509   2.847   1.897   7.073  0.2297 -0.0508  0.0654
  628SOL     hw 2510   2.817   1.915   7.162 -0.1335 -0.6057  0.0593
  628SOL     hw 2511   2.807   1.813   7.051  0.0995  0.2147 -0.7277
  628SOL     vw 2512   2.838   1.888   7.082  0.1646 -0.0889 -0.0401
  629SOL     ow 2513   4.354   1.311   1.121  0.2470  0.0969  0.6986
  629SOL     hw 2514   4.338   1.243   1.187  0.1706 -2.7174 -2.0182
  629SOL     hw 2515   4.449   1.323   1.122  0.2901 -0.2446  1.0143
  629SOL     vw 2516   4.365   1.303   1.130  0.2425 -0.3195  0.3818
  630SOL     ow 2517   1.050   0.195   4.599  0.0995 -0.2058 -0.0903
  630SOL     hw 2518   1.102   0.230   4.671 -0.2106  0.6900 -0.2910
  630SOL     hw 2519   1.113   0.182   4.528 -0.1531  2.6105 -0.9629
  630SOL     vw 2520   1.065   0.198   4.599  0.0253  0.2840 -0.2317
  631SOL     ow 2521   6.197   5.035   3.416  0.8921  0.3109  0.6023
  631SOL     hw 2522   6.275   5.048   3.363  0.4744  1.5711  0.2458
  631SOL     hw 2523   6.131   5.091   3.374  0.3694  0.8115  2.0518
  631SOL     vw 2524   6.198   5.044   3.403  0.7684  0.5434  0.7466
  632SOL     ow 2525   2.855   6.127   0.026  0.7067  0.6863  0.2045
  632SOL     hw 2526   2.781   6.078  -0.009  1.2807  0.8624 -1.3659
  632SOL     hw 2527   2.817   6.189   0.089 -0.2384 -0.4450  0.7695
  632SOL     vw 2528   2.841   6.129   0.030  0.6578  0.5603  0.0718
  633SOL     ow 2529   6.717   6.154   4.740 -0.5845 -0.6045 -0.2422
  633SOL     hw 2530   6.646   6.093   4.757 -2.7651  2.0065  0.6907
  633SOL     hw 2531   6.674   6.233   4.708  1.8062  1.3564  1.0713
  633SOL     vw 2532   6.702   6.156   4.738 -0.5567 -0.0012  0.0541
  634SOL     ow 2533   3.284   0.212   4.098  0.8732  0.4508  0.2692
  634SOL     hw 2534   3.235   0.186   4.176  1.7778  1.9931  1.4110
  634SOL     hw 2535   3.365   0.161   4.103 -0.2378 -1.6251 -1.2822
  634SOL     vw 2536   3.288   0.202   4.109  0.8460  0.3804  0.2153
  635SOL     ow 2537   6.721   0.813   1.457 -0.1648  0.6020 -0.7454
  635SOL     hw 2538   6.803   0.858   1.435  0.3431  0.6237  1.0324
  635SOL     hw 2539   6.679   0.871   1.521  0.1186 -1.0478  0.9920
  635SOL     vw 2540   6.726   0.827   1.463 -0.0603  0.3872 -0.2817
  636SOL     ow 2541   1.525   1.739   0.874 -0.0994 -0.4914  0.1921
  636SOL     hw 2542   1.487   1.821   0.844  2.8769  1.2558  0.8216
  636SOL     hw 2543   1.497   1.674   0.809 -2.8991  0.8654 -0.0739
  636SOL     vw 2544   1.517   1.741   0.862 -0.0761 -0.0819  0.2401
  637SOL     ow 2545   0.017   6.044   0.157 -0.4609 -0.0775  0.0693
  637SOL     hw 2546   0.060   6.113   0.207  1.1986 -0.8769 -0.2059
  637SOL     hw 2547  -0.074   6.046   0.188  0.4084 -0.3563  2.9675
  637SOL     vw 2548   0.011   6.054   0.168 -0.1273 -0.2201  0.4154
  638SOL     ow 2549   0.961   6.628   2.236 -0.5523  0.1950 -0.3686
  638SOL     hw 2550   1.035   6.573   2.210 -1.6636 -1.2139 -0.6942
  638SOL     hw 2551   0.884   6.576   2.213 -1.6430  1.4648  0.3001
  638SOL     vw 2552   0.960   6.614   2.230 -0.8428  0.1767 -0.3233
  639SOL     ow 2553   1.463   5.831   3.176 -0.0387 -0.6342 -0.0084
  639SOL     hw 2554   1.390   5.887   3.150 -0.3476 -1.3048 -0.6507
  639SOL     hw 2555   1.540   5.887   3.171 -0.2850 -0.3566 -1.0305
  639SOL     vw 2556   1.463   5.846   3.172 -0.1119 -0.6859 -0.2279
  640SOL     ow 2557   0.716   1.494   3.090  0.5223 -0.6455  0.1478
  640SOL     hw 2558   0.804   1.522   3.115  0.9294  0.1135 -1.9160
  640SOL     hw 2559   0.660   1.524   3.162  1.6531  0.9680  0.4062
  640SOL     vw 2560   0.720   1.502   3.103  0.7252 -0.3324 -0.0904
  641SOL     ow 2561   6.171   2.552   4.784 -0.3454 -0.4939  0.0771
  641SOL     hw 2562   6.232   2.492   4.827  0.6883 -0.1418 -0.8569
  641SOL     hw 2563   6.090   2.503   4.776 -0.5695 -0.5930  2.3634
  641SOL     vw 2564   6.169   2.538   4.789 -0.2387 -0.4605  0.2556
  642SOL     ow 2565   6.098   5.591   0.833 -0.1228 -0.0338 -0.6195
  642SOL     hw 2566   6.046   5.645   0.893  0.2629 -0.2256 -0.0966
  642SOL     hw 2567   6.034   5.543   0.782 -0.4929 -1.3633  1.0140
  642SOL     vw 2568   6.083   5.592   0.835 -0.1209 -0.2346 -0.3350
  643SOL     ow 2569   5.226   6.492   5.928 -0.1573  0.4029  0.4805
  643SOL     hw 2570   5.282   6.415   5.932 -2.0114 -1.1550 -1.2032
  643SOL     hw 2571   5.260   6.543   5.855  1.1496  1.3214  1.6765
  643SOL     vw 2572   5.238   6.489   5.919 -0.2296  0.3185  0.4160
  644SOL     ow 2573   0.876   0.229   0.630  0.4453  0.1698 -0.1438
  644SOL     hw 2574   0.939   0.190   0.690 -0.2036 -2.2855 -0.9357
  644SOL     hw 2575   0.796   0.238   0.681  1.2988  3.2920  0.8632
  644SOL     vw 2576   0.874   0.225   0.644  0.4723  0.2578 -0.1154
  645SOL     ow 2577   4.774   4.337   4.769  0.5704  1.2414  0.3323
  645SOL     hw 2578   4.765   4.389   4.849 -1.1269  0.0072  0.9975
  645SOL     hw 2579   4.827   4.262   4.794  0.3573  1.0470  0.2121
  645SOL     vw 2580   4.780   4.334   4.783  0.3183  1.0529  0.4039
  646SOL     ow 2581   5.786   0.877   3.663  0.6448 -0.0043  0.0721
  646SOL     hw 2582   5.776   0.971   3.648 -2.1755 -0.2331 -0.0179
  646SOL     hw 2583   5.707   0.839   3.625  2.9619 -2.7698 -2.4760
  646SOL     vw 2584   5.775   0.884   3.656  0.5784 -0.3994 -0.2761
  647SOL     ow 2585   0.383   0.062   0.168 -0.4201  0.3107 -0.8262
  647SOL     hw 2586   0.430   0.141   0.141 -0.5396 -0.3783 -3.3520
  647SOL     hw 2587   0.307   0.058   0.109 -1.8045 -0.3919  0.9278
  647SOL     vw 2588   0.379   0.072   0.156 -0.6185  0.1271 -0.9280
  648SOL     ow 2589   5.407   0.461   2.724  0.4335  0.5169  0.3237
  648SOL     hw 2590   5.335   0.407   2.757 -0.1313  0.2355 -1.2744
  648SOL     hw 2591   5.478   0.399   2.706  0.8124  0.6951  1.1135
  648SOL     vw 2592   5.407   0.445   2.726  0.4086  0.5033  0.2170
  649SOL     ow 2593   4.743   6.636   2.711  0.2267 -0.4760 -0.6932
  649SOL     hw 2594   4.648   6.646   2.720  0.6001  1.4048  2.2860
  649SOL     hw 2595   4.767   6.572   2.778  1.0055 -1.9496 -2.2895
  649SOL     vw 2596   4.733   6.629   2.721  0.3786 -0.4225 -0.5108
  650SOL     ow 2597   6.545   6.774   6.263 -0.9459 -0.2609 -0.0435
  650SOL     hw 2598   6.530   6.856   6.216 -2.4554 -0.8553 -0.6544
  650SOL     hw 2599   6.485   6.711   6.223  0.1126 -1.6668  0.4597
  650SOL     vw 2600   6.535   6.776   6.252 -1.0054 -0.5250 -0.0579
  651SOL     ow 2601   5.488   1.409   1.207 -0.2309 -0.1208  0.6670
  651SOL     hw 2602   5.549   1.442   1.274 -0.0635 -1.0646  0.9881
  651SOL     hw 2603   5.428   1.482   1.192  2.5610  1.9370 -1.6630
  651SOL     vw 2604   5.488   1.423   1.214  0.1597  0.0262  0.4020
  652SOL     ow 2605   3.545   5.909   6.311  0.2503  0.0143  0.4997
  652SOL     hw 2606   3.541   5.994   6.354 -0.1906 -0.4867  1.4999
  652SOL     hw 2607   3.455   5.891   6.285  0.6294  0.6768 -1.4513
  652SOL     vw 2608   3.532   5.918   6.313  0.2422  0.0358  0.3743
  653SOL     ow 2609   0.280   0.308   5.160 -0.8447  1.1749  0.4635
  653SOL     hw 2610   0.267   0.279   5.251 -1.2798 -1.0162 -0.2240
  653SOL     hw 2611   0.375   0.301   5.146 -0.9751 -0.4283  0.2022
  653SOL     vw 2612   0.291   0.303   5.170 -0.9193  0.6743  0.3383
  654SOL     ow 2613   4.781   3.122   5.234  0.5255  0.1725  0.2624
  654SOL     hw 2614   4.835   3.044   5.218  3.9288  1.3860  4.0001
  654SOL     hw 2615   4.722   3.096   5.304  0.0367  0.3214 -0.0943
  654SOL     vw 2616   4.781   3.108   5.241  0.9103  0.3523  0.7083
  655SOL     ow 2617   1.675   4.243   1.198 -0.3390 -0.1735 -0.5117
  655SOL     hw 2618   1.680   4.327   1.154  1.7428 -0.4958 -1.0155
  655SOL     hw 2619   1.745   4.191   1.158 -1.2686 -1.9776  0.1170
  655SOL     vw 2620   1.685   4.247   1.187 -0.1869 -0.4539 -0.4952
  656SOL     ow 2621   1.719   3.758   4.751  0.9084 -0.7353 -0.2561
  656SOL     hw 2622   1.771   3.724   4.825  2.5224  0.8815 -0.5767
  656SOL     hw 2623   1.630   3.764   4.785  1.3137 -1.5479  1.0350
  656SOL     vw 2624   1.714   3.754   4.766  1.1749 -0.6289 -0.1280
  657SOL     ow 2625   5.503   5.696   3.668 -0.0718 -0.1164  0.4750
  657SOL     hw 2626   5.595   5.674   3.682  0.2437  0.1743 -1.0225
  657SOL     hw 2627   5.496   5.788   3.694  0.5879  0.5256 -1.4766
  657SOL     vw 2628   5.514   5.705   3.673  0.0570  0.0067  0.0200
  658SOL     ow 2629   1.532   5.345   6.957 -0.1682  0.3305  0.1461
  658SOL     hw 2630   1.516   5.438   6.973  0.2975  0.0893  2.3717
  658SOL     hw 2631   1.627   5.338   6.948 -0.3538  0.3445 -2.4406
  658SOL     vw 2632   1.543   5.356   6.958 -0.1312  0.3002  0.0985
  659SOL     ow 2633   1.409   2.183   0.323 -0.3090  0.3397  0.2584
  659SOL     hw 2634   1.362   2.138   0.252 -1.6254  0.0078  1.2905
  659SOL     hw 2635   1.479   2.230   0.279 -0.5098 -0.6081 -1.1626
  659SOL     vw 2636   1.412   2.183   0.307 -0.5092  0.1709  0.2071
  660SOL     ow 2637   3.661   1.033   1.320  0.1462  0.5332  0.3385
  660SOL     hw 2638   3.674   1.088   1.243 -1.2567  1.9774  1.0597
  660SOL     hw 2639   3.739   0.978   1.325  0.9165  1.4316 -1.2672
  660SOL     vw 2640   3.673   1.033   1.311  0.0627  0.8423  0.2219
  661SOL     ow 2641   6.029   0.347   6.324 -0.1025 -0.3617 -0.2507
  661SOL     hw 2642   6.124   0.336   6.312 -0.1291 -0.8200 -0.0604
  661SOL     hw 2643   6.015   0.334   6.418 -0.8067 -4.0624 -0.7220
  661SOL     vw 2644   6.040   0.344   6.335 -0.1986 -0.9104 -0.2878
  662SOL     ow 2645   6.406   7.007   2.196 -0.3552 -0.1238  0.1487
  662SOL     hw 2646   6.453   6.961   2.127  0.5175  2.1793 -0.9109
  662SOL     hw 2647   6.313   6.991   2.176 -0.1444 -2.9643  1.0312
  662SOL     vw 2648   6.400   6.999   2.184 -0.2122 -0.1950  0.1253
  663SOL     ow 2649   3.137   7.012   2.113 -0.5273  0.2677 -0.7406
  663SOL     hw 2650   3.160   6.923   2.086  0.6744  0.8791 -1.8889
  663SOL     hw 2651   3.217   7.063   2.098 -0.8576  1.3458  0.9084
  663SOL     vw 2652   3.150   7.007   2.107 -0.4123  0.4904 -0.6745
  664SOL     ow 2653   6.237   6.788   6.884 -0.2291 -0.3482  0.0062
  664SOL     hw 2654   6.282   6.869   6.857 -1.4223 -0.7209 -3.5199
  664SOL     hw 2655   6.304   6.720   6.876 -0.1130 -0.1910 -0.4011
  664SOL     vw 2656   6.252   6.790   6.879 -0.3710 -0.3765 -0.5126
  665SOL     ow 2657   5.780   0.042   5.420 -0.3228  0.3325  0.2625
  665SOL     hw 2658   5.765   0.020   5.328  1.0553 -0.2553  0.1473
  665SOL     hw 2659   5.794  -0.043   5.463  1.3898  0.7038  0.5289
  665SOL     vw 2660   5.780   0.027   5.414  0.0846  0.3042  0.2825
  666SOL     ow 2661   1.905   5.298   4.940  0.0969 -0.2107 -0.1279
  666SOL     hw 2662   1.905   5.275   5.033 -0.0757  1.2278  0.2523
  666SOL     hw 2663   1.900   5.214   4.895  2.1866 -1.0853  1.1117
  666SOL     vw 2664   1.904   5.284   4.946  0.3499 -0.1364  0.0858
  667SOL     ow 2665   4.505   1.537   2.737  0.1673 -0.2215  0.3404
  667SOL     hw 2666   4.463   1.463   2.779 -0.7710 -0.3989 -0.8856
  667SOL     hw 2667   4.447   1.611   2.755  0.3689 -0.0624  0.3428
  667SOL     vw 2668   4.492   1.537   2.745  0.0701 -0.2239  0.1788
  668SOL     ow 2669   4.215   0.940   6.002  0.3320  0.7517  0.5160
  668SOL     hw 2670   4.174   0.929   6.088 -0.0006  0.2828  0.3026
  668SOL     hw 2671   4.223   0.851   5.968 -1.0528  1.0371 -0.6442
  668SOL     vw 2672   4.211   0.927   6.009  0.1056  0.7275  0.3347
  669SOL     ow 2673   0.531   0.295   5.177 -0.9592 -0.0865 -0.1230
  669SOL     hw 2674   0.541   0.209   5.217 -2.9413  0.6842  2.2671
  669SOL     hw 2675   0.566   0.356   5.242 -0.4642  1.0148 -1.3655
  669SOL     vw 2676   0.537   0.292   5.191 -1.1555  0.1605  0.0281
  670SOL     ow 2677   4.151   5.193   0.692 -0.6827  0.0363  0.6501
  670SOL     hw 2678   4.062   5.173   0.662 -0.7734 -0.4824  1.2220
  670SOL     hw 2679   4.172   5.121   0.752  0.6701 -0.6133 -0.5576
  670SOL     vw 2680   4.142   5.181   0.696 -0.5164 -0.1178  0.5662
  671SOL     ow 2681   6.120   3.016   6.421  0.0006  0.2456  0.2895
  671SOL     hw 2682   6.204   2.980   6.449  0.2891  0.9084  0.2923
  671SOL     hw 2683   6.142   3.081   6.354 -0.4564  0.8706  0.7238
  671SOL     vw 2684   6.134   3.020   6.416 -0.0217  0.4157  0.3471
  672SOL     ow 2685   3.686   5.273   3.836 -0.6183 -0.1504 -0.6968
  672SOL     hw 2686   3.676   5.224   3.754 -3.7413 -0.0110 -0.5449
  672SOL     hw 2687   3.613   5.335   3.835 -1.8854 -1.3257  2.9168
  672SOL     vw 2688   3.675   5.275   3.825 -1.1977 -0.2871 -0.2000
  673SOL     ow 2689   1.061   2.671   5.009 -0.4354  0.0996 -0.6857
  673SOL     hw 2690   1.041   2.582   5.040 -0.7781  0.4407  0.1015
  673SOL     hw 2691   0.976   2.713   5.002 -0.2261  0.5953 -0.3189
  673SOL     vw 2692   1.047   2.665   5.012 -0.4529  0.2100 -0.5338
  674SOL     ow 2693   3.890   3.856   4.178  0.0766 -0.2479 -0.5748
  674SOL     hw 2694   3.852   3.944   4.172  0.8632  0.0259 -2.1112
  674SOL     hw 2695   3.978   3.869   4.211  0.3095 -0.4170 -1.1168
  674SOL     vw 2696   3.896   3.869   4.182  0.2110 -0.2341 -0.8492
  675SOL     ow 2697   2.209   1.186   1.927  0.3077 -0.1339 -0.4692
  675SOL     hw 2698   2.303   1.172   1.930  0.1916 -0.8195  1.1669
  675SOL     hw 2699   2.188   1.225   2.012 -0.5851  2.2081 -1.6974
  675SOL     vw 2700   2.218   1.189   1.939  0.1746  0.0847 -0.4154
  676SOL     ow 2701   3.557   3.539   4.815 -0.0542  0.8824  0.2726
  676SOL     hw 2702   3.579   3.446   4.817 -0.0315  0.7846 -1.7740
  676SOL     hw 2703   3.513   3.556   4.898 -1.3955 -1.3104  0.0826
  676SOL     vw 2704   3.554   3.529   4.826 -0.2282  0.5803 -0.0224
  677SOL     ow 2705   7.039   3.598   3.301  0.2146  0.2964 -0.3189
  677SOL     hw 2706   7.055   3.653   3.377  2.2146 -2.1112  1.1528
  677SOL     hw 2707   6.950   3.565   3.312 -0.5531  2.1922 -0.5951
  677SOL     vw 2708   7.030   3.601   3.312  0.3772  0.2289 -0.1612
  678SOL     ow 2709   1.208   6.793   2.189  0.2269  0.3064 -0.6313
  678SOL     hw 2710   1.269   6.759   2.124  1.6227  0.7673  0.3860
  678SOL     hw 2711   1.257   6.790   2.271 -1.2971  0.2511  0.3097
  678SOL     vw 2712   1.223   6.788   2.191  0.2100  0.3600 -0.3730
  679SOL     ow 2713   0.504   1.776   5.225 -0.4962 -0.0233 -0.3192
  679SOL     hw 2714   0.598   1.762   5.239  0.5011  5.4781  1.2133
  679SOL     hw 2715   0.462   1.722   5.292  1.7676 -1.0877  0.3540
  679SOL     vw 2716   0.511   1.767   5.236 -0.0659  0.5621 -0.0281
  680SOL     ow 2717   1.464   5.281   6.651  0.3018 -0.5468 -0.0034
  680SOL     hw 2718   1.506   5.229   6.583  0.7974 -0.6340  0.3639
  680SOL     hw 2719   1.457   5.369   6.614  0.9848 -0.4869  0.0038
  680SOL     vw 2720   1.469   5.286   6.637  0.4573 -0.5503  0.0458
  681SOL     ow 2721   2.021   2.524   1.865  0.1233 -0.0911 -0.4554
  681SOL     hw 2722   2.070   2.606   1.872 -0.1747 -0.0283  1.5923
  681SOL     hw 2723   2.015   2.507   1.771  2.0036  1.1346 -0.8591
  681SOL     vw 2724   2.027   2.532   1.854  0.3321  0.0789 -0.2385
  682SOL     ow 2725   0.018   6.581   1.706 -0.1694 -0.3457 -0.4334
  682SOL     hw 2726  -0.036   6.611   1.633  1.8557 -3.8518 -3.7361
  682SOL     hw 2727  -0.028   6.503   1.739 -0.1717  0.1995  0.8875
  682SOL     vw 2728   0.005   6.574   1.701  0.0975 -0.7362 -0.6948
  683SOL     ow 2729   0.308   2.491   2.855  0.5931 -0.7069 -0.0522
  683SOL     hw 2730   0.363   2.557   2.896 -0.8831 -0.4347  1.6212
  683SOL     hw 2731   0.247   2.540   2.801 -1.8425 -0.3586  2.7581
  683SOL     vw 2732   0.307   2.506   2.854  0.0770 -0.6251  0.5393
  684SOL     ow 2733   1.610   1.129   5.836 -0.2452 -0.4701  0.4566
  684SOL     hw 2734   1.626   1.202   5.775  1.6110  0.1473  1.5997
  684SOL     hw 2735   1.527   1.092   5.807  0.9717 -0.8215 -3.0565
  684SOL     vw 2736   1.601   1.134   5.824  0.1603 -0.4350  0.1438
  685SOL     ow 2737   3.867   4.953   1.846  0.6502  0.5477  0.6687
  685SOL     hw 2738   3.824   4.970   1.929  1.9904 -1.5611  1.8967
  685SOL     hw 2739   3.959   4.938   1.869  0.4233 -4.3201 -0.4039
  685SOL     vw 2740   3.874   4.953   1.860  0.7970 -0.3726  0.6892
  686SOL     ow 2741   6.809   3.983   0.834  0.4506 -0.1181 -0.5000
  686SOL     hw 2742   6.897   3.958   0.807 -0.3548 -0.5738 -2.9466
  686SOL     hw 2743   6.764   3.900   0.851  0.1329  0.0539 -0.4875
  686SOL     vw 2744   6.814   3.969   0.833  0.3028 -0.1554 -0.8211
  687SOL     ow 2745   6.282   4.338   2.959 -0.0332 -0.2682 -0.0447
  687SOL     hw 2746   6.345   4.344   3.031  0.1988  0.1717 -0.2812
  687SOL     hw 2747   6.228   4.262   2.981  0.8365 -0.9013 -0.0484
  687SOL     vw 2748   6.283   4.329   2.972  0.1123 -0.2937 -0.0764
  688SOL     ow 2749   5.784   5.196   2.013 -0.4425 -0.5229  0.3609
  688SOL     hw 2750   5.731   5.230   2.085  1.8305  1.3656  1.2697
  688SOL     hw 2751   5.784   5.266   1.949 -0.3427 -1.1763 -0.3672
  688SOL     vw 2752   5.777   5.210   2.014 -0.1295 -0.3600  0.3847
  689SOL     ow 2753   3.014   1.859   6.654  0.3121 -0.2571 -0.3409
  689SOL     hw 2754   2.925   1.847   6.689 -0.0475 -0.0432 -1.1558
  689SOL     hw 2755   3.011   1.945   6.612  0.7802 -0.4487 -0.7692
  689SOL     vw 2756   3.002   1.869   6.653  0.3264 -0.2542 -0.5047
  690SOL     ow 2757   1.978   5.064   5.642  0.1274  0.5315  0.3237
  690SOL     hw 2758   2.054   5.005   5.643 -1.5546 -1.8353 -1.1034
  690SOL     hw 2759   1.949   5.065   5.551 -3.5927 -1.5848  1.2683
  690SOL     vw 2760   1.984   5.056   5.630 -0.5854 -0.0601  0.2601
  691SOL     ow 2761   2.378   0.676   1.836  0.0061  0.4180 -0.4010
  691SOL     hw 2762   2.463   0.707   1.866 -0.0775  2.5481 -2.1620
  691SOL     hw 2763   2.383   0.677   1.741 -1.3053 -1.5376 -0.5571
  691SOL     vw 2764   2.390   0.680   1.828 -0.1779  0.4411 -0.6539
  692SOL     ow 2765   6.320   1.949   1.678 -0.0203  0.4938 -0.7384
  692SOL     hw 2766   6.314   1.856   1.699  3.0418 -0.2201 -2.3682
  692SOL     hw 2767   6.256   1.991   1.735 -0.4108 -2.4278  1.2021
  692SOL     vw 2768   6.311   1.942   1.688  0.3324  0.0141 -0.6974
  693SOL     ow 2769   2.751   0.386   5.759 -0.4696  0.4201 -0.8100
  693SOL     hw 2770   2.809   0.311   5.749 -0.7010  0.0458  0.4356
  693SOL     hw 2771   2.664   0.347   5.767 -0.5355  0.7741  0.3204
  693SOL     vw 2772   2.747   0.371   5.759 -0.5089  0.4174 -0.4961
  694SOL     ow 2773   5.946   0.494   1.934 -0.1669  0.1170  0.7314
  694SOL     hw 2774   5.950   0.574   1.882  2.0186 -0.3837  0.0019
  694SOL     hw 2775   5.853   0.472   1.939 -0.6070  1.3348 -1.1745
  694SOL     vw 2776   5.935   0.502   1.928  0.0637  0.2116  0.3837
  695SOL     ow 2777   6.557   6.995   5.369 -0.6148  0.2448  1.3380
  695SOL     hw 2778   6.549   7.090   5.357 -1.3596  0.2463  1.7660
  695SOL     hw 2779   6.471   6.961   5.347 -0.3648 -0.3296  1.2398
  695SOL     vw 2780   6.545   7.003   5.365 -0.6802  0.1693  1.3812
  696SOL     ow 2781   0.154   3.329   2.969 -0.1517  0.2996  0.0714
  696SOL     hw 2782   0.194   3.245   2.946 -2.7987 -0.8477 -0.7203
  696SOL     hw 2783   0.101   3.309   3.046 -1.3287  1.0406 -0.5206
  696SOL     vw 2784   0.152   3.315   2.976 -0.6563  0.2459 -0.1111
  697SOL     ow 2785   1.734   5.537   5.246  0.6667 -0.2998 -0.1888
  697SOL     hw 2786   1.790   5.459   5.245 -0.4855 -1.2716  2.2292
  697SOL     hw 2787   1.654   5.508   5.290 -0.2479  1.9987 -0.1914
  697SOL     vw 2788   1.730   5.523   5.252  0.3940 -0.1249  0.1299
  698SOL     ow 2789   5.780   1.569   3.143 -0.5793 -0.1987  0.3792
  698SOL     hw 2790   5.823   1.528   3.218 -1.2368 -0.4568  0.6236
  698SOL     hw 2791   5.743   1.650   3.177 -0.3734 -0.0270  0.1957
  698SOL     vw 2792   5.781   1.574   3.157 -0.6390 -0.2102  0.3872
  699SOL     ow 2793   3.232   3.071   2.369  0.3619 -0.1457  0.2001
  699SOL     hw 2794   3.222   3.079   2.274 -0.3442 -0.7836  0.2080
  699SOL     hw 2795   3.228   2.977   2.386 -1.0099  0.0327  0.9983
  699SOL     vw 2796   3.230   3.060   2.359  0.0879 -0.2062  0.3064
  700SOL     ow 2797   3.286   6.507   2.350  0.5381  0.4370  0.4265
  700SOL     hw 2798   3.250   6.441   2.291 -0.6210  0.1727  1.4006
  700SOL     hw 2799   3.238   6.495   2.431  1.8842  1.0146  1.3335
  700SOL     vw 2800   3.275   6.497   2.353  0.5627  0.4785  0.6747
  701SOL     ow 2801   2.647   6.975   2.365 -0.3753 -0.4971  0.0604
  701SOL     hw 2802   2.628   6.925   2.285  0.5452  0.4148 -0.7756
  701SOL     hw 2803   2.683   6.911   2.426 -0.8617 -1.1693 -0.3493
  701SOL     vw 2804   2.649   6.960   2.362 -0.3181 -0.4656 -0.1041
  702SOL     ow 2805   1.298   5.219   0.768  0.2468  0.2918 -0.2293
  702SOL     hw 2806   1.360   5.269   0.716 -1.4503  2.5069 -0.2451
  702SOL     hw 2807   1.225   5.202   0.709 -1.7616  2.9416  1.2598
  702SOL     vw 2808   1.296   5.223   0.754 -0.2421  0.9336 -0.0349
  703SOL     ow 2809   6.347   3.430   0.913  0.0839  0.3592  0.8553
  703SOL     hw 2810   6.385   3.441   1.000 -0.1566 -0.9139  1.1388
  703SOL     hw 2811   6.262   3.472   0.918  0.6120  1.4895  0.8050
  703SOL     vw 2812   6.341   3.437   0.925  0.1221  0.3403  0.8861
  704SOL     ow 2813   5.645   2.994   5.584  0.5228  0.0337 -0.5611
  704SOL     hw 2814   5.716   3.046   5.548 -0.0081  0.6816 -0.6794
  704SOL     hw 2815   5.614   3.044   5.660 -0.1568  0.0186 -0.8245
  704SOL     vw 2816   5.650   3.007   5.590  0.3629  0.1172 -0.6115
  705SOL     ow 2817   3.856   3.909   2.454  0.5429  0.5269 -0.6444
  705SOL     hw 2818   3.789   3.947   2.510  0.3295 -0.5352 -0.1520
  705SOL     hw 2819   3.842   3.814   2.460  0.5196  0.3610 -2.4885
  705SOL     vw 2820   3.846   3.901   2.462  0.5116  0.3650 -0.8227
  706SOL     ow 2821   2.205   4.734   2.561 -0.6508  0.5397 -0.0443
  706SOL     hw 2822   2.127   4.718   2.508 -0.6470 -1.1307  0.4062
  706SOL     hw 2823   2.247   4.809   2.519 -0.3721 -1.0058 -2.7516
  706SOL     vw 2824   2.200   4.741   2.549 -0.6136  0.1149 -0.3421
  707SOL     ow 2825   5.998   4.122   5.484 -0.0837  0.0935  0.2326
  707SOL     hw 2826   6.086   4.108   5.519 -0.4697  0.4144  1.3839
  707SOL     hw 2827   5.948   4.046   5.514  0.3421 -1.3701 -2.4902
  707SOL     vw 2828   6.003   4.110   5.493 -0.0782 -0.0575  0.0253
  708SOL     ow 2829   0.533   2.850   0.887 -0.0314  0.3768  0.1797
  708SOL     hw 2830   0.606   2.815   0.836  1.3345  0.8641  1.7058
  708SOL     hw 2831   0.517   2.936   0.850  3.2534  2.2335  2.5190
  708SOL     vw 2832   0.541   2.857   0.876  0.5822  0.6860  0.6897
  709SOL     ow 2833   3.921   1.262   5.288  0.2808 -0.3551  0.5076
  709SOL     hw 2834   3.973   1.216   5.354  2.3993  0.9466 -0.1693
  709SOL     hw 2835   3.960   1.237   5.204  0.0963  0.9696  0.0070
  709SOL     vw 2836   3.933   1.252   5.286  0.5360 -0.0086  0.3524
  710SOL     ow 2837   0.297   6.552   1.857 -0.2064 -0.2363  0.1505
  710SOL     hw 2838   0.389   6.531   1.867  0.0319  0.7738  0.2341
  710SOL     hw 2839   0.253   6.508   1.930  0.2817 -0.2675  0.4255
  710SOL     vw 2840   0.303   6.544   1.868 -0.1106 -0.1073  0.1978
  711SOL     ow 2841   5.647   2.661   0.130  0.2217 -0.1031 -0.6505
  711SOL     hw 2842   5.625   2.748   0.098  0.5196  0.5184  0.7660
  711SOL     hw 2843   5.662   2.609   0.051  0.7125  1.3032 -1.5090
  711SOL     vw 2844   5.646   2.665   0.115  0.3259  0.1645 -0.5769
  712SOL     ow 2845   6.515   0.679   3.101 -0.3289  0.3127 -0.1461
  712SOL     hw 2846   6.479   0.680   3.190 -1.7727 -3.2784 -0.4903
  712SOL     hw 2847   6.453   0.730   3.049 -1.6554 -0.7566  0.3267
  712SOL     vw 2848   6.502   0.686   3.106 -0.6945 -0.3022 -0.1291
  713SOL     ow 2849   2.433   6.587   3.429  0.2025 -0.0830 -0.3237
  713SOL     hw 2850   2.480   6.549   3.354  0.1572 -1.6305  0.3964
  713SOL     hw 2851   2.354   6.624   3.391 -0.1559 -1.4610 -0.9873
  713SOL     vw 2852   2.429   6.587   3.414  0.1493 -0.4690 -0.3163
  714SOL     ow 2853   0.589   5.271   0.125 -0.1127 -0.1599 -0.0522
  714SOL     hw 2854   0.563   5.267   0.033 -2.0754 -0.8155  0.4905
  714SOL     hw 2855   0.667   5.327   0.125 -0.2896  0.1686 -2.0518
  714SOL     vw 2856   0.596   5.278   0.112 -0.3950 -0.2034 -0.2444
  715SOL     ow 2857   6.119   3.557   0.944 -0.1030 -0.6435  1.0745
  715SOL     hw 2858   6.130   3.609   1.024  0.5116  0.3428  0.3767
  715SOL     hw 2859   6.052   3.604   0.894  0.9056 -0.1461  0.1568
  715SOL     vw 2860   6.112   3.570   0.948  0.1113 -0.4479  0.8613
  716SOL     ow 2861   3.998   5.374   5.725  0.3031  0.6309  0.4856
  716SOL     hw 2862   3.971   5.461   5.754 -1.1591  0.9336 -1.5284
  716SOL     hw 2863   3.917   5.334   5.694  1.5785  0.2288 -2.6584
  716SOL     vw 2864   3.984   5.380   5.725  0.2785  0.6180 -0.1948
  717SOL     ow 2865   1.542   5.243   5.648  0.0680  0.3845  0.3208
  717SOL     hw 2866   1.530   5.185   5.572  1.3924  1.7325 -0.9977
  717SOL     hw 2867   1.464   5.228   5.701  0.1394 -2.2532 -0.1535
  717SOL     vw 2868   1.530   5.233   5.645  0.2521  0.2141  0.0842
  718SOL     ow 2869   6.791   4.322   0.968  0.2439  0.7192  0.2458
  718SOL     hw 2870   6.846   4.376   0.911  0.0282 -0.7919 -1.4668
  718SOL     hw 2871   6.842   4.311   1.048  1.0829  1.8802 -0.1079
  718SOL     vw 2872   6.805   4.328   0.971  0.3262  0.6728 -0.0269
  719SOL     ow 2873   1.792   2.455   5.680 -0.9767  0.4667 -0.6048
  719SOL     hw 2874   1.851   2.383   5.656 -0.0809  1.8878 -2.9685
  719SOL     hw 2875   1.847   2.518   5.726 -1.7603 -0.2395  1.4515
  719SOL     vw 2876   1.807   2.453   5.683 -0.9619  0.5609 -0.6454
  720SOL     ow 2877   4.560   2.010   6.420  0.2537 -0.5364  0.0826
  720SOL     hw 2878   4.554   2.096   6.380 -2.0186 -0.6246  0.0985
  720SOL     hw 2879   4.515   2.020   6.504  1.2372 -1.3970  0.7306
  720SOL     vw 2880   4.553   2.023   6.426  0.0837 -0.6616  0.1702
  721SOL     ow 2881   4.187   4.508   6.094  0.4438  0.1931 -0.5801
  721SOL     hw 2882   4.259   4.569   6.109  1.5749 -0.6082 -2.3278
  721SOL     hw 2883   4.173   4.465   6.178  2.7664 -0.3783 -0.4090
  721SOL     vw 2884   4.195   4.510   6.107  0.8996  0.0119 -0.7880
  722SOL     ow 2885   5.786   0.042   4.436  0.3599 -0.2762 -0.3162
  722SOL     hw 2886   5.791  -0.044   4.393 -0.1026  0.8116 -2.7164
  722SOL     hw 2887   5.839   0.032   4.515  1.0270 -2.5260 -0.9651
  722SOL     vw 2888   5.794   0.029   4.441  0.3867 -0.4295 -0.7184
  723SOL     ow 2889   1.475   3.487   6.692  0.5131  0.3969 -0.0022
  723SOL     hw 2890   1.518   3.420   6.744  0.2136  0.9036  0.9270
  723SOL     hw 2891   1.391   3.448   6.668  0.8680 -0.0347 -0.5606
  723SOL     vw 2892   1.469   3.473   6.696  0.5204  0.4069  0.0470
  724SOL     ow 2893   5.613   4.719   2.455  0.1153 -0.1699  0.3743
  724SOL     hw 2894   5.702   4.738   2.484 -0.3596 -0.7749  2.4208
  724SOL     hw 2895   5.619   4.631   2.417  1.1012  1.3290 -3.3253
  724SOL     vw 2896   5.626   4.710   2.454  0.1829 -0.0522  0.1560
  725SOL     ow 2897   7.081   1.755   5.740 -0.1688  0.3992 -0.1500
  725SOL     hw 2898   7.084   1.795   5.827  0.6137  1.6527 -0.7366
  725SOL     hw 2899   7.164   1.707   5.733 -0.1007  0.5435 -0.3217
  725SOL     vw 2900   7.092   1.754   5.751 -0.0570  0.5836 -0.2501
  726SOL     ow 2901   2.452   3.667   0.218  0.1884 -0.9114 -0.0225
  726SOL     hw 2902   2.516   3.738   0.210 -1.3032  0.7105  1.3871
  726SOL     hw 2903   2.402   3.670   0.136 -0.0507 -0.0744  0.1361
  726SOL     vw 2904   2.454   3.677   0.206 -0.0398 -0.5870  0.1844
  727SOL     ow 2905   0.028   3.063   0.939 -0.1917  0.5298  0.0038
  727SOL     hw 2906   0.084   3.114   0.880 -0.4922  0.2155 -0.5614
  727SOL     hw 2907   0.089   3.004   0.984 -0.1760 -0.6535 -1.4756
  727SOL     vw 2908   0.044   3.062   0.937 -0.2293  0.3322 -0.2660
  728SOL     ow 2909   5.765   5.107   1.715 -0.0469 -0.2818 -0.2740
  728SOL     hw 2910   5.682   5.129   1.673  0.0292 -0.7460 -0.6652
  728SOL     hw 2911   5.831   5.125   1.649  0.0400 -1.4199 -0.5109
  728SOL     vw 2912   5.763   5.113   1.701 -0.0255 -0.4933 -0.3569
  729SOL     ow 2913   2.377   3.440   3.558  0.7607  0.1884 -0.4320
  729SOL     hw 2914   2.389   3.357   3.511  0.3195 -0.9215  1.3382
  729SOL     hw 2915   2.282   3.448   3.570  0.8493  0.5653  0.0711
  729SOL     vw 2916   2.366   3.430   3.553  0.7141  0.0918 -0.1322
  730SOL     ow 2917   2.285   4.421   2.424 -0.1240  0.6482 -0.0701
  730SOL     hw 2918   2.224   4.439   2.351 -2.1230 -2.7229  0.5420
  730SOL     hw 2919   2.334   4.344   2.395  1.4149  1.2440  0.8760
  730SOL     vw 2920   2.283   4.413   2.410 -0.1847  0.2820  0.1354
  731SOL     ow 2921   6.489   4.957   5.578 -0.0669  0.1614 -0.3810
  731SOL     hw 2922   6.478   4.907   5.498 -2.0249 -1.4021  0.7683
  731SOL     hw 2923   6.463   5.046   5.556  0.6344  0.0420 -1.7563
  731SOL     vw 2924   6.485   4.962   5.565 -0.2327 -0.0603 -0.4110
  732SOL     ow 2925   6.948   4.018   2.995  0.5905 -0.0678 -0.1003
  732SOL     hw 2926   6.995   4.085   3.045  0.1189 -0.0146  0.2815
  732SOL     hw 2927   6.919   3.955   3.061  0.9043 -0.5796 -0.4372
  732SOL     vw 2928   6.950   4.018   3.010  0.5698 -0.1280 -0.0945
  733SOL     ow 2929   6.809   5.372   3.709 -0.1614 -0.5561  0.3025
  733SOL     hw 2930   6.784   5.286   3.675 -1.0257 -0.8489  1.6310
  733SOL     hw 2931   6.739   5.396   3.769 -0.5807  1.6627 -0.9454
  733SOL     vw 2932   6.797   5.364   3.712 -0.3307 -0.3018  0.3130
  734SOL     ow 2933   7.057   0.489   2.119  0.5491  0.4562 -0.0713
  734SOL     hw 2934   7.057   0.569   2.171 -0.9796  0.6809 -0.3807
  734SOL     hw 2935   7.013   0.513   2.038  0.6951 -0.5289 -0.4538
  734SOL     vw 2936   7.051   0.503   2.115  0.3667  0.3558 -0.1625
  735SOL     ow 2937   6.246   0.096   2.412  0.1565  0.7689  0.0888
  735SOL     hw 2938   6.246   0.019   2.469  0.2094  1.3963  0.9632
  735SOL     hw 2939   6.260   0.061   2.324 -1.7381 -0.4045  0.1959
  735SOL     vw 2940   6.248   0.081   2.408 -0.0865  0.6971  0.2184
  736SOL     ow 2941   6.287   2.529   0.183 -0.1808 -0.6630  0.0797
  736SOL     hw 2942   6.257   2.443   0.212  0.4753 -0.7122  0.6216
  736SOL     hw 2943   6.342   2.561   0.254 -0.3070  0.1529 -0.1772
  736SOL     vw 2944   6.290   2.522   0.196 -0.1109 -0.5618  0.1173
  737SOL     ow 2945   6.683   2.760   5.744  0.5719  0.1934  0.5967
  737SOL     hw 2946   6.677   2.762   5.649 -0.0743 -1.6217  0.5660
  737SOL     hw 2947   6.719   2.846   5.767  0.2254  0.8809 -1.2254
  737SOL     vw 2948   6.687   2.772   5.735  0.4411  0.0445  0.3521
  738SOL     ow 2949   4.718   3.880   6.905 -0.4581  0.1296 -0.0668
  738SOL     hw 2950   4.685   3.800   6.946 -0.4674 -0.2012 -0.6879
  738SOL     hw 2951   4.783   3.914   6.966  0.2247 -0.8770 -0.2023
  738SOL     vw 2952   4.722   3.874   6.918 -0.3693 -0.0467 -0.1667
  739SOL     ow 2953   4.772   1.216   5.409  0.5163  0.0878  0.2494
  739SOL     hw 2954   4.836   1.255   5.349  1.4448  0.2667  1.3434
  739SOL     hw 2955   4.697   1.277   5.406  1.1882  0.9441  0.4719
  739SOL     vw 2956   4.770   1.229   5.400  0.7274  0.2244  0.4232
  740SOL     ow 2957   3.438   5.370   3.836  0.6185  0.2819  0.2382
  740SOL     hw 2958   3.365   5.427   3.809 -2.6604 -2.4552  2.4228
  740SOL     hw 2959   3.448   5.386   3.929  1.6353 -0.6261  0.3041
  740SOL     vw 2960   3.429   5.379   3.845  0.3201 -0.1988  0.5351
  741SOL     ow 2961   2.333   4.958   0.546  0.3563 -0.8030  0.0721
  741SOL     hw 2962   2.313   4.921   0.460  0.1500 -0.0324 -0.2165
  741SOL     hw 2963   2.392   5.031   0.528  2.5944 -2.3434  0.8191
  741SOL     vw 2964   2.338   4.963   0.532  0.6242 -0.9046  0.1326
  742SOL     ow 2965   3.031   1.569   6.522  0.8069  0.0986  0.1635
  742SOL     hw 2966   2.935   1.561   6.523  0.8931 -1.4240 -0.9200
  742SOL     hw 2967   3.062   1.503   6.583  1.2045 -0.3066 -0.4654
  742SOL     vw 2968   3.022   1.560   6.530  0.8707 -0.1559 -0.0625
  743SOL     ow 2969   3.310   0.470   4.238 -0.0635  0.2059  0.3385
  743SOL     hw 2970   3.253   0.416   4.293  1.2020 -1.9953 -0.3870
  743SOL     hw 2971   3.361   0.522   4.300 -0.0385 -0.7909  1.1908
  743SOL     vw 2972   3.309   0.470   4.253  0.1067 -0.2160  0.3555
  744SOL     ow 2973   0.759   1.921   0.065  0.3090 -0.0205  0.3523
  744SOL     hw 2974   0.736   1.830   0.048 -1.2465  0.1740  1.2215
  744SOL     hw 2975   0.772   1.959  -0.022  0.4233 -0.9204 -0.0382
  744SOL     vw 2976   0.758   1.914   0.051  0.1189 -0.1135  0.4155
  745SOL     ow 2977   2.973   1.571   0.316 -0.5365  0.0509 -0.4425
  745SOL     hw 2978   2.956   1.655   0.359 -0.4825  0.3614 -1.0177
  745SOL     hw 2979   2.887   1.545   0.281 -0.7524 -0.5998  0.5437
  745SOL     vw 2980   2.959   1.579   0.317 -0.5579  0.0060 -0.3883
  746SOL     ow 2981   1.104   1.182   3.639  0.5199  0.3047  0.1788
  746SOL     hw 2982   1.111   1.261   3.585  0.5828  0.6491  0.6909
  746SOL     hw 2983   1.156   1.117   3.592  1.2030  0.8183  0.2092
  746SOL     vw 2984   1.112   1.184   3.625  0.6183  0.4179  0.2503
  747SOL     ow 2985   2.674   4.242   4.396  0.4683  0.8204 -0.2325
  747SOL     hw 2986   2.651   4.167   4.341 -0.7744  1.3041 -0.4029
  747SOL     hw 2987   2.757   4.273   4.361  0.1698  0.5267 -1.2268
  747SOL     vw 2988   2.682   4.237   4.384  0.2649  0.8454 -0.3862
  748SOL     ow 2989   4.187   0.714   4.409  0.1703 -0.1887  0.1623
  748SOL     hw 2990   4.144   0.707   4.324 -1.1024  1.0207  0.6610
  748SOL     hw 2991   4.179   0.627   4.448 -3.1799  0.2711  0.7985
  748SOL     vw 2992   4.180   0.701   4.403 -0.4394  0.0315  0.3119
  749SOL     ow 2993   1.830   4.312   5.389  0.3231  0.2891  0.2986
  749SOL     hw 2994   1.787   4.396   5.374  1.4788  1.0761  1.2427
  749SOL     hw 2995   1.758   4.249   5.389 -0.7424  1.4462  0.9378
  749SOL     vw 2996   1.815   4.315   5.387  0.3350  0.5457  0.5076
  750SOL     ow 2997   0.798   6.588   5.034 -0.2438  0.3133 -0.7342
  750SOL     hw 2998   0.839   6.563   5.117 -2.0012 -0.0137  0.0797
  750SOL     hw 2999   0.709   6.615   5.058 -0.7593  0.3261 -2.5033
  750SOL     vw 3000   0.792   6.588   5.048 -0.5437  0.2720 -0.8602
  751SOL     ow 3001   5.753   6.814   1.919  0.8722 -0.2225 -0.3832
  751SOL     hw 3002   5.764   6.733   1.969 -0.4432 -0.5581 -0.6035
  751SOL     hw 3003   5.699   6.870   1.975  0.8853  0.0840 -0.6745
  751SOL     vw 3004   5.747   6.810   1.933  0.7002 -0.2263 -0.4507
  752SOL     ow 3005   0.790   4.310   3.014 -0.4884 -0.6199 -0.1634
  752SOL     hw 3006   0.839   4.379   3.058 -0.3592  0.0007 -1.2471
  752SOL     hw 3007   0.705   4.309   3.057 -0.7938  0.8170 -0.6964
  752SOL     vw 3008   0.785   4.319   3.025 -0.5117 -0.3486 -0.3767
  753SOL     ow 3009   2.690   6.819   6.595 -0.3206 -0.2609  0.3849
  753SOL     hw 3010   2.664   6.868   6.673 -0.0620 -1.5931  1.3398
  753SOL     hw 3011   2.620   6.756   6.582  0.2052 -0.8300  0.2532
  753SOL     vw 3012   2.678   6.817   6.604 -0.2171 -0.5116  0.4935
  754SOL     ow 3013   1.939   0.932   3.217  0.0038  0.4513  0.4358
  754SOL     hw 3014   1.913   0.889   3.299 -0.0947  2.9185  1.8148
  754SOL     hw 3015   1.998   0.870   3.175 -1.4023 -1.6793  1.4448
  754SOL     vw 3016   1.944   0.918   3.223 -0.1947  0.4957  0.7509
  755SOL     ow 3017   4.489   5.242   5.466 -0.6818  0.0625  0.2550
  755SOL     hw 3018   4.511   5.150   5.480  1.3768  0.5506  0.5080
  755SOL     hw 3019   4.400   5.250   5.499 -1.4638 -2.1300 -1.0698
  755SOL     vw 3020   4.480   5.231   5.472 -0.5133 -0.1624  0.1135
  756SOL     ow 3021   6.712   1.861   0.872  0.0599 -0.1077 -0.3019
  756SOL     hw 3022   6.667   1.795   0.819 -1.3016  0.8181 -0.3548
  756SOL     hw 3023   6.804   1.855   0.845 -0.4486 -0.2380 -2.1803
  756SOL     vw 3024   6.718   1.852   0.861 -0.1869 -0.0028 -0.5567
  757SOL     ow 3025   4.426   6.004   3.518 -0.2757 -0.6378  0.3142
  757SOL     hw 3026   4.350   6.017   3.576  0.0441  0.3533  0.5251
  757SOL     hw 3027   4.502   6.022   3.574  0.2275 -3.1121  0.5301
  757SOL     vw 3028   4.426   6.008   3.533 -0.1674 -0.8335  0.3705
  758SOL     ow 3029   6.581   3.124   4.040  0.2972  0.2217 -0.0363
  758SOL     hw 3030   6.575   3.209   4.084 -2.6408 -0.1839  0.5294
  758SOL     hw 3031   6.580   3.060   4.111 -0.2221 -0.3233 -0.5230
  758SOL     vw 3032   6.580   3.127   4.055 -0.1590  0.0964 -0.0260
  759SOL     ow 3033   1.932   6.208   3.924  0.1891  0.3888  0.0265
  759SOL     hw 3034   1.979   6.278   3.969  2.8392 -1.9314  1.1868
  759SOL     hw 3035   1.942   6.229   3.831 -0.4311  2.2822  0.3354
  759SOL     vw 3036   1.940   6.220   3.917  0.4570  0.3324  0.2204
  760SOL     ow 3037   5.234   3.881   3.296 -0.1553 -0.7186 -0.0389
  760SOL     hw 3038   5.161   3.842   3.345 -1.3209  0.8368 -0.4458
  760SOL     hw 3039   5.257   3.959   3.345 -0.2293 -0.0255 -1.0709
  760SOL     vw 3040   5.227   3.886   3.309 -0.3188 -0.4220 -0.2286
  761SOL     ow 3041   0.491   6.252   2.589 -0.3031 -0.1366  0.0230
  761SOL     hw 3042   0.466   6.298   2.509  0.2182  1.2815  0.6508
  761SOL     hw 3043   0.407   6.234   2.633 -0.6418 -1.5132 -1.1198
  761SOL     vw 3044   0.476   6.256   2.585 -0.2790 -0.1314 -0.0449
  762SOL     ow 3045   0.875   3.835   5.745  0.3201  0.7438 -0.2523
  762SOL     hw 3046   0.969   3.818   5.743  0.0081 -1.0246 -1.9541
  762SOL     hw 3047   0.848   3.834   5.653 -1.7415 -1.1387  0.3036
  762SOL     vw 3048   0.884   3.833   5.733  0.0069  0.2621 -0.4036
  763SOL     ow 3049   5.447   5.119   0.180 -0.6148 -0.5393 -0.0293
  763SOL     hw 3050   5.431   5.025   0.172 -1.7016 -0.3853  0.1563
  763SOL     hw 3051   5.359   5.157   0.186 -0.3081  0.7455 -2.6190
  763SOL     vw 3052   5.433   5.111   0.180 -0.7179 -0.3495 -0.3465
  764SOL     ow 3053   3.193   1.423   6.310 -0.1084 -0.6650 -0.0126
  764SOL     hw 3054   3.159   1.424   6.399  1.9894  3.2083  0.9895
  764SOL     hw 3055   3.247   1.345   6.305  1.0178 -0.1695  2.7448
  764SOL     vw 3056   3.195   1.413   6.321  0.3170 -0.0886  0.4835
  765SOL     ow 3057   6.597   5.363   3.899  0.1153 -0.0241  0.6919
  765SOL     hw 3058   6.575   5.287   3.954 -1.4282 -0.3974 -0.3762
  765SOL     hw 3059   6.586   5.438   3.957  0.0947 -0.5160  1.3366
  765SOL     vw 3060   6.592   5.363   3.914 -0.0913 -0.1385  0.6361
  766SOL     ow 3061   6.350   6.340   6.478  0.9527  0.5836 -0.2784
  766SOL     hw 3062   6.419   6.314   6.417  1.3942 -0.0805  0.4714
  766SOL     hw 3063   6.384   6.315   6.564 -0.3283 -0.0229  0.0848
  766SOL     vw 3064   6.363   6.333   6.482  0.8419  0.4158 -0.1316
  767SOL     ow 3065   6.394   4.763   4.766 -0.1692 -0.4601  0.6306
  767SOL     hw 3066   6.331   4.715   4.712  0.5356  0.1796 -0.8076
  767SOL     hw 3067   6.381   4.728   4.854 -3.0462  0.1679  0.5543
  767SOL     vw 3068   6.384   4.752   4.770 -0.4556 -0.2930  0.4308
  768SOL     ow 3069   6.883   3.487   0.119 -0.0144 -0.0659 -0.1196
  768SOL     hw 3070   6.892   3.451   0.207 -1.7219  2.2085  1.1163
  768SOL     hw 3071   6.970   3.480   0.081  1.1768  0.2726  2.3445
  768SOL     vw 3072   6.896   3.482   0.126 -0.0823  0.2788  0.3685
  769SOL     ow 3073   4.113   1.557   1.208  0.3812 -0.1043  0.3359
  769SOL     hw 3074   4.079   1.617   1.141  1.4610  0.6913  0.4796
  769SOL     hw 3075   4.078   1.591   1.290  0.9925  0.3468  0.4172
  769SOL     vw 3076   4.104   1.569   1.210  0.6044  0.0602  0.3656
  770SOL     ow 3077   3.455   3.291   2.257  0.2202  0.2587 -0.2880
  770SOL     hw 3078   3.494   3.256   2.177 -0.4973  0.0686 -0.5672
  770SOL     hw 3079   3.523   3.347   2.294  0.5812  0.3120 -1.0034
  770SOL     vw 3080   3.469   3.294   2.251  0.1731  0.2406 -0.4193
  771SOL     ow 3081   2.470   6.591   6.997  0.0912  0.6556 -1.1892
  771SOL     hw 3082   2.380   6.608   7.026  0.9309  1.0037  1.4950
  771SOL     hw 3083   2.519   6.578   7.079  2.7436  1.7727 -2.4974
  771SOL     vw 3084   2.465   6.592   7.012  0.5521  0.8492 -1.0078
  772SOL     ow 3085   2.249   3.504   3.133 -0.5011 -0.2212  0.1266
  772SOL     hw 3086   2.173   3.457   3.097 -1.6490 -0.0987  2.2207
  772SOL     hw 3087   2.300   3.436   3.178  0.5147 -0.2572 -1.0508
  772SOL     vw 3088   2.245   3.489   3.134 -0.5184 -0.2098  0.2475
  773SOL     ow 3089   6.795   4.919   3.713  0.4475  0.6482  0.5082
  773SOL     hw 3090   6.775   5.002   3.670  0.9391  0.8542  0.6663
  773SOL     hw 3091   6.875   4.937   3.763  1.1533 -0.1838 -0.2781
  773SOL     vw 3092   6.803   4.932   3.714  0.6056  0.5658  0.4253
  774SOL     ow 3093   5.482   1.651   0.823  0.5418  0.4046  0.3091
  774SOL     hw 3094   5.504   1.703   0.746  1.5976  1.6730  1.4276
  774SOL     hw 3095   5.539   1.684   0.892  0.0312 -1.0901  1.5091
  774SOL     vw 3096   5.492   1.662   0.822  0.6139  0.3747  0.6150
  775SOL     ow 3097   3.546   5.699   1.008  0.2240  0.3769  0.3997
  775SOL     hw 3098   3.457   5.732   1.022  0.1852  0.7734 -0.6485
  775SOL     hw 3099   3.545   5.663   0.919  1.6441  2.3375 -0.4910
  775SOL     vw 3100   3.534   5.699   0.998  0.4063  0.6878  0.1439
  776SOL     ow 3101   2.490   3.168   3.071 -0.2660  0.0668  0.2213
  776SOL     hw 3102   2.566   3.213   3.034 -0.5825  1.2226  0.9184
  776SOL     hw 3103   2.504   3.076   3.049  0.6507  0.4286 -0.8243
  776SOL     vw 3104   2.502   3.162   3.063 -0.1868  0.2669  0.1752
  777SOL     ow 3105   6.084   6.463   6.659 -0.3579  0.4682  0.2092
  777SOL     hw 3106   6.112   6.512   6.737  0.1226 -0.2003  0.4648
  777SOL     hw 3107   6.006   6.415   6.687  0.8373 -1.1965  0.8471
  777SOL     vw 3108   6.077   6.463   6.673 -0.1371  0.1605  0.3271
  778SOL     ow 3109   4.778   4.530   4.455  0.0853  0.6668  0.2922
  778SOL     hw 3110   4.727   4.610   4.467 -0.8923  0.1726 -0.3563
  778SOL     hw 3111   4.868   4.560   4.445 -0.0304  1.5527  1.6978
  778SOL     vw 3112   4.783   4.545   4.455 -0.0589  0.7186  0.3920
  779SOL     ow 3113   3.272   4.466   5.058  0.1391  0.0326 -0.5131
  779SOL     hw 3114   3.323   4.546   5.072 -0.5075  0.8354 -2.4618
  779SOL     hw 3115   3.322   4.416   4.994 -0.3319 -0.3034 -0.6253
  779SOL     vw 3116   3.285   4.470   5.051 -0.0082  0.0939 -0.7851
  780SOL     ow 3117   5.349   1.751   4.477 -0.8231 -0.7744  0.7377
  780SOL     hw 3118   5.297   1.690   4.530 -0.0332  0.2138  2.7523
  780SOL     hw 3119   5.383   1.814   4.540  0.3792  0.3384 -0.9522
  780SOL     vw 3120   5.347   1.751   4.492 -0.5603 -0.4972  0.7803
  781SOL     ow 3121   0.890   0.231   4.837 -0.0562 -0.0924  0.1951
  781SOL     hw 3122   0.893   0.171   4.911 -1.2131 -0.6377 -0.1729
  781SOL     hw 3123   0.915   0.316   4.873  2.0346 -0.8597  0.6339
  781SOL     vw 3124   0.893   0.235   4.851  0.0670 -0.2656  0.2046
  782SOL     ow 3125   0.659   0.334   1.841 -0.5526  0.1804 -0.4248
  782SOL     hw 3126   0.684   0.298   1.926 -1.4063 -1.4017 -0.8019
  782SOL     hw 3127   0.622   0.420   1.861  2.4947  1.4110  0.4083
  782SOL     vw 3128   0.657   0.340   1.854 -0.2632  0.1341 -0.3647
  783SOL     ow 3129   5.599   5.412   0.521 -0.1328 -0.0160 -0.1452
  783SOL     hw 3130   5.565   5.329   0.554 -1.3188  0.6340  0.3795
  783SOL     hw 3131   5.566   5.477   0.583 -0.1826  0.9678 -1.1637
  783SOL     vw 3132   5.590   5.410   0.534 -0.2959  0.1993 -0.2104
  784SOL     ow 3133   1.544   3.290   5.548 -1.0133  0.4965 -0.5187
  784SOL     hw 3134   1.502   3.309   5.464 -0.6968  0.9515 -0.5771
  784SOL     hw 3135   1.485   3.228   5.591 -1.2461  0.3692 -1.0184
  784SOL     vw 3136   1.530   3.284   5.543 -1.0023  0.5397 -0.5922
  785SOL     ow 3137   1.480   2.809   2.862  0.0760  0.0578 -0.7877
  785SOL     hw 3138   1.519   2.791   2.776  1.4103 -1.8186  0.1369
  785SOL     hw 3139   1.553   2.843   2.914 -0.4835  0.2331 -0.1101
  785SOL     vw 3140   1.495   2.811   2.857  0.1782 -0.1665 -0.5764
  786SOL     ow 3141   2.040   4.128   4.932 -0.1244  0.0108  0.7646
  786SOL     hw 3142   2.064   4.041   4.899 -0.7946  0.3012 -0.5640
  786SOL     hw 3143   2.122   4.178   4.929 -0.0326 -0.1656  0.1446
  786SOL     vw 3144   2.054   4.123   4.927 -0.2007  0.0255  0.5076
  787SOL     ow 3145   2.615   3.243   1.166  0.8791  0.3641  0.7143
  787SOL     hw 3146   2.583   3.230   1.077  0.0540 -1.9614  1.2687
  787SOL     hw 3147   2.696   3.294   1.156  1.2438 -0.5347 -1.4355
  787SOL     vw 3148   2.622   3.248   1.153  0.8185 -0.0613  0.5038
  788SOL     ow 3149   2.668   6.003   5.140  0.3485 -0.6601 -0.0789
  788SOL     hw 3150   2.629   6.090   5.133 -0.7541 -1.1036  0.3736
  788SOL     hw 3151   2.734   6.013   5.209  0.9063  0.0453 -0.6994
  788SOL     vw 3152   2.672   6.016   5.148  0.2766 -0.6256 -0.1011
  789SOL     ow 3153   4.237   3.274   3.692  0.4247 -0.2359 -0.0617
  789SOL     hw 3154   4.290   3.267   3.613 -0.8165  0.9625 -1.0491
  789SOL     hw 3155   4.227   3.184   3.722  0.2420 -0.8149 -1.7322
  789SOL     vw 3156   4.243   3.261   3.686  0.2367 -0.1541 -0.4126
  790SOL     ow 3157   6.807   0.573   1.542  0.0709 -0.4595  0.5178
  790SOL     hw 3158   6.784   0.657   1.503 -0.3024  0.5039  2.6529
  790SOL     hw 3159   6.897   0.557   1.512 -0.6009 -0.4356 -1.6850
  790SOL     vw 3160   6.816   0.582   1.533 -0.0668 -0.3293  0.5089
  791SOL     ow 3161   2.464   0.596   2.758  0.2054  0.0763 -0.1920
  791SOL     hw 3162   2.549   0.634   2.738 -0.5814  0.9796 -1.9802
  791SOL     hw 3163   2.416   0.666   2.803 -0.6491  0.6876 -1.9750
  791SOL     vw 3164   2.469   0.610   2.761 -0.0111  0.2762 -0.6630
  792SOL     ow 3165   0.864   4.244   2.411 -0.0414  0.2563 -0.3527
  792SOL     hw 3166   0.807   4.171   2.388 -0.4258  0.9141 -1.5958
  792SOL     hw 3167   0.951   4.217   2.385 -0.2885  0.5004 -1.4641
  792SOL     vw 3168   0.868   4.231   2.405 -0.1248  0.3753 -0.6634
  793SOL     ow 3169   0.506   2.785   0.177 -0.0369 -0.1906 -0.6085
  793SOL     hw 3170   0.450   2.789   0.100 -1.0467 -0.7081  0.0734
  793SOL     hw 3171   0.546   2.698   0.173 -0.1411 -0.2429 -0.5185
  793SOL     vw 3172   0.504   2.774   0.166 -0.1839 -0.2657 -0.5067
  794SOL     ow 3173   6.194   3.601   2.484 -0.3507  0.1809  0.5033
  794SOL     hw 3174   6.164   3.622   2.573 -1.2589 -1.6727  0.6796
  794SOL     hw 3175   6.113   3.589   2.434  0.1521  0.5694 -0.4178
  794SOL     vw 3176   6.180   3.602   2.489 -0.4044 -0.0124  0.4050
  795SOL     ow 3177   1.597   3.981   1.377 -0.3887  0.6767 -0.0815
  795SOL     hw 3178   1.542   3.902   1.371 -0.9660  1.0604  0.0075
  795SOL     hw 3179   1.680   3.950   1.412 -0.0436 -0.1651 -1.5368
  795SOL     vw 3180   1.600   3.966   1.381 -0.4193  0.6162 -0.2618
  796SOL     ow 3181   0.036   2.745   2.465  0.3685  0.5883 -0.0412
  796SOL     hw 3182  -0.003   2.797   2.535 -0.2789 -0.6634  0.5699
  796SOL     hw 3183   0.084   2.676   2.511  0.2567 -0.0258 -0.8265
  796SOL     vw 3184   0.038   2.743   2.481  0.2683  0.3421 -0.0643
  797SOL     ow 3185   3.213   2.584   3.846 -0.2571  0.0142  0.1182
  797SOL     hw 3186   3.212   2.500   3.800 -1.4190 -0.2067  0.4859
  797SOL     hw 3187   3.219   2.650   3.777  2.0137 -0.3733 -0.1084
  797SOL     vw 3188   3.214   2.582   3.831 -0.1109 -0.0662  0.1369
  798SOL     ow 3189   5.321   3.434   0.072  0.3021 -0.5545 -0.0580
  798SOL     hw 3190   5.367   3.358   0.036  0.3709 -0.2992 -0.5270
  798SOL     hw 3191   5.229   3.415   0.058  0.3327 -0.3871 -0.5391
  798SOL     vw 3192   5.315   3.421   0.065  0.3152 -0.4987 -0.1833
  799SOL     ow 3193   3.381   5.063   2.426  0.4921 -1.1572 -0.6191
  799SOL     hw 3194   3.402   5.132   2.489  0.8222 -1.3956 -0.4691
  799SOL     hw 3195   3.410   4.982   2.468 -1.7437 -1.6637  0.1271
  799SOL     vw 3196   3.387   5.062   2.440  0.2408 -1.2553 -0.5008
  800SOL     ow 3197   5.500   1.456   7.094 -0.2209  0.4469 -0.0087
  800SOL     hw 3198   5.424   1.454   7.153  0.1646  1.8471  0.5745
  800SOL     hw 3199   5.462   1.472   7.008 -0.8207 -1.9315 -0.2714
  800SOL     vw 3200   5.485   1.458   7.090 -0.2489  0.3178  0.0336
  801SOL     ow 3201   0.080   3.565   2.055 -0.6372  0.3512 -0.4332
  801SOL     hw 3202   0.132   3.550   2.134  2.0217 -2.2584 -2.4467
  801SOL     hw 3203  -0.011   3.564   2.085  0.2580  0.8659  2.7132
  801SOL     vw 3204   0.075   3.563   2.069 -0.1683  0.0749 -0.2837
  802SOL     ow 3205   6.394   3.114   0.776 -0.3318  0.1230  0.3219
  802SOL     hw 3206   6.369   3.041   0.832  0.4573  0.8226  1.6289
  802SOL     hw 3207   6.490   3.111   0.773 -0.3556 -0.4074 -1.7187
  802SOL     vw 3208   6.404   3.104   0.783 -0.2306  0.1453  0.2251
  803SOL     ow 3209   0.664   4.752   6.714 -0.5047  0.2832  0.1941
  803SOL     hw 3210   0.663   4.733   6.808 -0.9767  0.1292  0.1611
  803SOL     hw 3211   0.574   4.735   6.685  0.1689 -2.0174 -0.7668
  803SOL     vw 3212   0.652   4.747   6.723 -0.4781 -0.0405  0.0629
  804SOL     ow 3213   5.880   0.326   5.395  0.5469  0.0250 -0.1842
  804SOL     hw 3214   5.894   0.416   5.365  1.6053 -0.3942 -1.0289
  804SOL     hw 3215   5.815   0.334   5.465  1.2744  1.5502  0.3749
  804SOL     vw 3216   5.873   0.339   5.400  0.7823  0.1709 -0.2217
  805SOL     ow 3217   4.096   4.742   2.438 -0.2813  0.6430  0.1415
  805SOL     hw 3218   4.179   4.779   2.407  0.2280 -0.5014  0.0546
  805SOL     hw 3219   4.029   4.799   2.401  0.4814  1.9549  0.7186
  805SOL     vw 3220   4.098   4.754   2.429 -0.1137  0.6654  0.2061
  806SOL     ow 3221   5.474   1.708   2.079  0.9843  0.5853 -0.1185
  806SOL     hw 3222   5.527   1.708   1.999  0.9293 -0.2771 -0.1618
  806SOL     hw 3223   5.528   1.756   2.142  0.8729  1.5828 -0.7598
  806SOL     vw 3224   5.488   1.715   2.077  0.9623  0.6032 -0.2087
  807SOL     ow 3225   2.095   0.339   6.845 -0.9606  0.4060 -0.1429
  807SOL     hw 3226   2.074   0.309   6.756 -1.8230 -2.1971  0.8331
  807SOL     hw 3227   2.135   0.263   6.887  0.1147  1.8159  1.5002
  807SOL     vw 3228   2.097   0.325   6.839 -0.9325  0.2486  0.2027
  808SOL     ow 3229   2.655   5.711   5.103  0.2734 -0.2590  0.2073
  808SOL     hw 3230   2.709   5.683   5.029  1.8491 -0.8486  1.5137
  808SOL     hw 3231   2.679   5.803   5.116  1.3076 -0.6212  1.0212
  808SOL     vw 3232   2.666   5.719   5.095  0.6179 -0.3846  0.4871
  809SOL     ow 3233   5.448   0.662   0.095 -0.7314 -0.6095 -0.0410
  809SOL     hw 3234   5.517   0.672   0.029  0.4706 -2.6119  0.8148
  809SOL     hw 3235   5.477   0.714   0.169  0.8030 -2.7461  0.9495
  809SOL     vw 3236   5.461   0.670   0.096 -0.3705 -1.1556  0.2026
  810SOL     ow 3237   2.930   6.814   6.421  0.0882 -0.3731 -0.6743
  810SOL     hw 3238   3.020   6.801   6.450  0.5332  2.4454 -0.5707
  810SOL     hw 3239   2.928   6.778   6.332  1.2867 -0.5144 -0.6527
  810SOL     vw 3240   2.941   6.807   6.413  0.3048 -0.0198 -0.6578
  811SOL     ow 3241   6.401   4.801   1.295  0.4947 -0.0294  0.0699
  811SOL     hw 3242   6.454   4.838   1.365  1.8412 -1.2551 -0.2480
  811SOL     hw 3243   6.353   4.875   1.259 -0.9111  0.5244  2.7994
  811SOL     vw 3244   6.402   4.816   1.299  0.4873 -0.1178  0.3881
  812SOL     ow 3245   0.635   1.292   6.004  0.1181  0.6275 -0.3054
  812SOL     hw 3246   0.706   1.352   6.028 -1.0030  0.8824  2.7624
  812SOL     hw 3247   0.610   1.251   6.086 -1.9883 -0.9488 -1.6455
  812SOL     vw 3248   0.641   1.295   6.018 -0.3077  0.4532 -0.0775
  813SOL     ow 3249   2.118   5.749   6.916 -0.3111 -0.4266  0.9747
  813SOL     hw 3250   2.089   5.821   6.860  1.2485 -0.6410 -0.2027
  813SOL     hw 3251   2.127   5.674   6.856  1.4752 -0.6435  1.4532
  813SOL     vw 3252   2.116   5.749   6.900  0.1303 -0.4833  0.8826
  814SOL     ow 3253   5.819   4.223   4.059  0.1446  0.4008  0.8337
  814SOL     hw 3254   5.797   4.134   4.029 -0.0821  1.3419 -2.1200
  814SOL     hw 3255   5.852   4.211   4.148  0.4651 -2.6779  0.4117
  814SOL     vw 3256   5.820   4.210   4.067  0.1574  0.1185  0.3884
  815SOL     ow 3257   0.333   2.819   5.136  0.0290 -0.4401 -0.2276
  815SOL     hw 3258   0.372   2.846   5.219  0.9535 -1.0140 -0.4575
  815SOL     hw 3259   0.400   2.764   5.095 -0.1940  0.2707 -1.6013
  815SOL     vw 3260   0.347   2.815   5.142  0.1216 -0.4220 -0.4389
  816SOL     ow 3261   5.998   1.740   3.303 -1.0544 -0.3739  0.0313
  816SOL     hw 3262   6.010   1.679   3.376 -1.2349 -1.2395 -0.6424
  816SOL     hw 3263   6.021   1.825   3.339 -0.3759 -0.8980  0.8832
  816SOL     vw 3264   6.003   1.743   3.317 -0.9885 -0.5573  0.0547
  817SOL     ow 3265   1.035   5.024   2.180 -0.4531  0.6191  0.1176
  817SOL     hw 3266   1.119   5.028   2.135 -0.1434  0.1165  0.6439
  817SOL     hw 3267   0.982   5.092   2.138 -0.7628 -0.9357 -2.1459
  817SOL     vw 3268   1.039   5.034   2.169 -0.4532  0.3476 -0.1117
  818SOL     ow 3269   5.529   3.225   2.558  0.2813 -0.3781  0.1009
  818SOL     hw 3270   5.554   3.144   2.603  1.3475 -0.3155 -0.3629
  818SOL     hw 3271   5.482   3.275   2.625  0.9535 -0.7172  0.8513
  818SOL     vw 3272   5.526   3.221   2.573  0.5105 -0.4145  0.1389
  819SOL     ow 3273   5.756   4.992   5.860 -0.0142  0.3434 -0.5894
  819SOL     hw 3274   5.826   4.953   5.806 -2.3100 -0.8956 -2.8708
  819SOL     hw 3275   5.680   4.937   5.843 -2.0697  2.7786  0.2601
  819SOL     vw 3276   5.755   4.980   5.850 -0.5882  0.5014 -0.7784
  820SOL     ow 3277   1.128   3.513   4.425  0.6512  0.1727  0.0967
  820SOL     hw 3278   1.152   3.421   4.412  1.7521  0.5395 -0.5490
  820SOL     hw 3279   1.043   3.522   4.382  0.5045 -0.5510  0.2199
  820SOL     vw 3280   1.120   3.502   4.418  0.7771  0.1256  0.0277
  821SOL     ow 3281   2.530   1.387   3.160 -0.7047  0.0641  0.3570
  821SOL     hw 3282   2.614   1.341   3.152 -0.5710  0.3347  0.1852
  821SOL     hw 3283   2.542   1.468   3.111 -1.1450  0.0008  0.1376
  821SOL     vw 3284   2.543   1.391   3.153 -0.7451  0.0914  0.3053
  822SOL     ow 3285   0.750   3.564   0.566  0.1665  0.2365  0.0206
  822SOL     hw 3286   0.666   3.520   0.569 -0.8358  2.0074 -0.7720
  822SOL     hw 3287   0.779   3.555   0.476  0.8822 -0.4312  0.3067
  822SOL     vw 3288   0.743   3.557   0.555  0.1287  0.3821 -0.0462
  823SOL     ow 3289   2.601   4.746   6.235 -0.0990  0.1268  0.5885
  823SOL     hw 3290   2.565   4.709   6.155 -2.2140 -0.6372  1.8166
  823SOL     hw 3291   2.680   4.695   6.252  0.3965  0.3268 -0.9968
  823SOL     vw 3292   2.607   4.734   6.227 -0.3128  0.0527  0.5412
  824SOL     ow 3293   1.366   4.581   0.114  0.2594  0.7521  0.5319
  824SOL     hw 3294   1.427   4.510   0.136  1.4861  1.2437 -1.1336
  824SOL     hw 3295   1.312   4.546   0.044 -0.5194  0.7880  1.0960
  824SOL     vw 3296   1.367   4.567   0.108  0.3184  0.8218  0.3866
  825SOL     ow 3297   0.816   1.035   0.461 -0.3612 -0.4217  0.4526
  825SOL     hw 3298   0.827   0.966   0.396  0.0510 -0.5136  0.6179
  825SOL     hw 3299   0.741   1.086   0.429 -0.9464 -1.1967  0.5563
  825SOL     vw 3300   0.808   1.033   0.448 -0.3840 -0.5361  0.4881
  826SOL     ow 3301   4.860   4.903   2.219 -0.2493  0.2608 -0.1502
  826SOL     hw 3302   4.888   4.986   2.181  2.0545 -0.5325 -0.3395
  826SOL     hw 3303   4.917   4.890   2.295  0.6762 -1.9386 -1.1319
  826SOL     vw 3304   4.871   4.912   2.224  0.1767 -0.1340 -0.3046
  827SOL     ow 3305   4.266   6.890   2.240 -0.3609 -0.4635 -0.0643
  827SOL     hw 3306   4.351   6.866   2.277  0.2428  1.4906 -0.0915
  827SOL     hw 3307   4.283   6.898   2.146  0.0584  2.0893  0.1427
  827SOL     vw 3308   4.279   6.888   2.232 -0.2260  0.1309 -0.0405
  828SOL     ow 3309   5.014   2.478   3.227  0.0185  0.3544 -0.1788
  828SOL     hw 3310   5.031   2.571   3.212  1.1840  0.0656 -0.7631
  828SOL     hw 3311   5.091   2.434   3.191 -0.6080 -0.8486 -0.0750
  828SOL     vw 3312   5.026   2.485   3.220  0.0894  0.1577 -0.2421
  829SOL     ow 3313   4.917   6.189   0.831 -0.3304 -0.0351  0.0016
  829SOL     hw 3314   4.865   6.209   0.909 -0.6854  0.5788 -0.3833
  829SOL     hw 3315   4.998   6.239   0.843 -0.7917  0.8525 -0.4739
  829SOL     vw 3316   4.921   6.198   0.843 -0.4380  0.1631 -0.1119
  830SOL     ow 3317   4.898   3.139   4.903 -0.2362 -1.3132 -0.0974
  830SOL     hw 3318   4.979   3.115   4.858 -0.5131  1.0600 -2.1287
  830SOL     hw 3319   4.848   3.057   4.908  1.9440 -2.6836  0.6067
  830SOL     vw 3320   4.902   3.125   4.897  0.0148 -1.1809 -0.2723
  831SOL     ow 3321   2.657   0.733   1.930  0.2256  0.3232 -0.1618
  831SOL     hw 3322   2.745   0.742   1.892  0.3303 -0.2284 -0.0618
  831SOL     hw 3323   2.666   0.664   1.995  0.7110  3.0371  2.9120
  831SOL     vw 3324   2.670   0.725   1.934  0.3035  0.6085  0.2570
  832SOL     ow 3325   2.075   2.371   7.055 -0.3520 -0.8048  0.3224
  832SOL     hw 3326   2.040   2.375   6.966 -0.1970 -0.1835  0.2858
  832SOL     hw 3327   2.005   2.407   7.109  0.0744  0.0819  0.2929
  832SOL     vw 3328   2.061   2.376   7.050 -0.2753 -0.6059  0.3135
  833SOL     ow 3329   2.850   2.476   3.180 -0.1891  0.0175 -0.0637
  833SOL     hw 3330   2.777   2.480   3.241  2.5851  0.4335  3.5678
  833SOL     hw 3331   2.903   2.403   3.211  1.2319  0.0330 -2.2367
  833SOL     vw 3332   2.848   2.467   3.192  0.3643  0.0744  0.1287
  834SOL     ow 3333   1.778   0.089   3.759 -0.0811 -0.0925 -0.7606
  834SOL     hw 3334   1.841   0.131   3.701  1.0972  0.3898  0.7912
  834SOL     hw 3335   1.740   0.019   3.706  2.2103 -0.8151 -1.6160
  834SOL     vw 3336   1.782   0.085   3.745  0.3767 -0.1242 -0.6686
  835SOL     ow 3337   0.369   2.314   4.528  0.5460 -0.2768 -0.2340
  835SOL     hw 3338   0.389   2.233   4.575  1.2367 -0.2299 -0.4430
  835SOL     hw 3339   0.415   2.306   4.445  0.5834  0.3095 -0.2770
  835SOL     vw 3340   0.378   2.302   4.524  0.6420 -0.1934 -0.2670
  836SOL     ow 3341   2.963   4.002   2.633  0.6412 -0.1014 -0.5556
  836SOL     hw 3342   2.877   3.988   2.671  1.3156  0.2060  1.1810
  836SOL     hw 3343   2.956   3.969   2.544 -1.3023  0.0607 -0.5007
  836SOL     vw 3344   2.951   3.996   2.626  0.4739 -0.0395 -0.3194
  837SOL     ow 3345   5.616   5.179   0.361 -0.0032 -0.3062 -0.2300
  837SOL     hw 3346   5.554   5.153   0.293  0.7166  3.4928 -2.6284
  837SOL     hw 3347   5.692   5.122   0.348 -0.9025 -1.4236 -0.7571
  837SOL     vw 3348   5.618   5.168   0.351 -0.0269  0.0477 -0.6160
  838SOL     ow 3349   5.682   5.327   6.870  0.3729  0.1144 -0.4622
  838SOL     hw 3350   5.770   5.360   6.852  0.3740 -0.1855 -1.0684
  838SOL     hw 3351   5.624   5.401   6.852  0.6908  1.5483  3.5929
  838SOL     vw 3352   5.686   5.341   6.865  0.4148  0.2639 -0.0074
  839SOL     ow 3353   7.025   2.335   0.121  0.6794 -0.1195  0.6214
  839SOL     hw 3354   7.014   2.240   0.128 -0.8606 -0.1003 -1.0980
  839SOL     hw 3355   7.106   2.346   0.071  1.2372 -0.4813  1.4118
  839SOL     vw 3356   7.034   2.324   0.116  0.5496 -0.1647  0.4988
  840SOL     ow 3357   1.668   5.334   4.715  0.4294  0.8162 -0.0113
  840SOL     hw 3358   1.728   5.406   4.733  1.4951  0.2275 -1.0675
  840SOL     hw 3359   1.711   5.284   4.646  1.0141 -2.2703  2.3545
  840SOL     vw 3360   1.682   5.337   4.709  0.6471  0.3314  0.1614
  841SOL     ow 3361   1.992   2.727   4.075 -0.3393  0.1791 -0.7686
  841SOL     hw 3362   2.027   2.642   4.103 -1.6866 -0.7206 -1.6722
  841SOL     hw 3363   1.897   2.719   4.089 -0.5059  1.4586 -1.0675
  841SOL     vw 3364   1.984   2.715   4.081 -0.5390  0.2292 -0.9272
  842SOL     ow 3365   0.919   1.794   1.375 -0.3636  0.1319  0.0383
  842SOL     hw 3366   0.958   1.879   1.355  0.2743 -0.2294 -0.3015
  842SOL     hw 3367   0.852   1.782   1.308  0.6113 -0.3156 -0.8822
  842SOL     vw 3368   0.916   1.804   1.363 -0.1508  0.0252 -0.1280
  843SOL     ow 3369   1.388   6.503   5.175 -0.8169  0.6499 -0.1018
  843SOL     hw 3370   1.317   6.541   5.226 -0.6611  0.1124  0.5413
  843SOL     hw 3371   1.432   6.577   5.134  0.2940  1.3094  2.1686
  843SOL     vw 3372   1.384   6.518   5.176 -0.6498  0.6661  0.2825
  844SOL     ow 3373   2.810   2.745   1.701  0.1734  0.7300 -0.0356
  844SOL     hw 3374   2.805   2.731   1.796  2.2577  1.0245  0.1593
  844SOL     hw 3375   2.822   2.657   1.665 -2.1338  0.4135 -0.2369
  844SOL     vw 3376   2.811   2.731   1.709  0.1441  0.7269 -0.0364
  845SOL     ow 3377   2.133   5.235   4.235  0.0090 -0.3221 -0.6902
  845SOL     hw 3378   2.199   5.220   4.168  0.2019  1.4451 -0.9426
  845SOL     hw 3379   2.053   5.253   4.187  0.4397  2.2843 -0.5520
  845SOL     vw 3380   2.131   5.235   4.220  0.0913  0.2549 -0.7055
  846SOL     ow 3381   0.903   3.424   2.338 -0.8193  0.0502  0.3135
  846SOL     hw 3382   0.899   3.379   2.254  0.6628 -2.3663  1.4163
  846SOL     hw 3383   0.938   3.511   2.318  1.3503 -1.1080 -1.4298
  846SOL     vw 3384   0.907   3.430   2.324 -0.3375 -0.4215  0.2288
  847SOL     ow 3385   3.853   2.043   1.017  0.2429  0.4674  0.2639
  847SOL     hw 3386   3.876   1.951   1.031  1.3758  0.4814 -1.2350
  847SOL     hw 3387   3.769   2.040   0.972  0.2067  0.1681  0.3490
  847SOL     vw 3388   3.845   2.031   1.013  0.3875  0.4297  0.0774
  848SOL     ow 3389   0.067   2.243   4.563 -0.5953 -0.6078 -0.2126
  848SOL     hw 3390   0.061   2.186   4.486  0.3784 -1.3050  0.2047
  848SOL     hw 3391   0.030   2.190   4.634  0.6779 -0.9064  0.2594
  848SOL     vw 3392   0.061   2.228   4.562 -0.2989 -0.7392 -0.0954
  849SOL     ow 3393   2.870   4.752   3.750 -0.0622 -0.1392 -0.1849
  849SOL     hw 3394   2.865   4.768   3.656 -1.9793 -0.1523 -0.1221
  849SOL     hw 3395   2.947   4.697   3.761  0.1267 -0.2349 -1.7481
  849SOL     vw 3396   2.879   4.747   3.739 -0.2903 -0.1535 -0.3828
  850SOL     ow 3397   2.434   7.032   2.572 -0.0686  0.1055  0.4751
  850SOL     hw 3398   2.364   6.996   2.518  0.1734 -0.1881  0.3469
  850SOL     hw 3399   2.478   6.954   2.608 -0.2354  0.2954  1.1052
  850SOL     vw 3400   2.431   7.017   2.570 -0.0588  0.0920  0.5413
  851SOL     ow 3401   0.765   2.146   1.736 -0.4787 -0.6249  0.0572
  851SOL     hw 3402   0.838   2.170   1.679 -0.5908  0.6064  0.3930
  851SOL     hw 3403   0.780   2.054   1.757  2.0125  0.0038  1.5343
  851SOL     vw 3404   0.777   2.137   1.731 -0.1649 -0.3794  0.2964
  852SOL     ow 3405   2.057   6.418   0.719  0.0014 -0.8001  0.3887
  852SOL     hw 3406   2.044   6.401   0.813  0.9111 -0.0830  0.6545
  852SOL     hw 3407   2.034   6.335   0.677 -0.5584 -1.0912  1.2257
  852SOL     vw 3408   2.052   6.404   0.726  0.0477 -0.7441  0.5342
  853SOL     ow 3409   5.414   1.065   5.233  0.6549  0.7082 -0.2364
  853SOL     hw 3410   5.400   1.031   5.144  2.2053  0.5514 -0.4381
  853SOL     hw 3411   5.499   1.108   5.230  0.6309  0.8965  1.1178
  853SOL     vw 3412   5.423   1.066   5.221  0.8564  0.7123 -0.0846
  854SOL     ow 3413   4.241   1.076   0.508 -0.3611  0.0737  0.1159
  854SOL     hw 3414   4.264   0.986   0.530 -2.2824 -0.5506 -0.2551
  854SOL     hw 3415   4.215   1.072   0.416  0.1817  1.1537 -0.1054
  854SOL     vw 3416   4.240   1.064   0.498 -0.5431  0.1338  0.0377
  855SOL     ow 3417   4.924   1.866   3.760  0.7517 -0.2740  0.1900
  855SOL     hw 3418   4.841   1.893   3.801 -0.3094 -1.5972 -0.9675
  855SOL     hw 3419   4.945   1.937   3.699  0.6280  0.2060  0.6984
  855SOL     vw 3420   4.916   1.879   3.757  0.5951 -0.3852  0.1044
  856SOL     ow 3421   4.047   2.600   4.360 -0.0470 -0.2605 -0.1882
  856SOL     hw 3422   4.099   2.532   4.319 -0.5805 -0.0556 -1.2350
  856SOL     hw 3423   4.110   2.668   4.383  0.3536 -0.6919 -0.0035
  856SOL     vw 3424   4.062   2.600   4.358 -0.0646 -0.2904 -0.3021
  857SOL     ow 3425   0.937   4.493   3.154  0.6533  0.0670 -0.4994
  857SOL     hw 3426   1.028   4.520   3.140  1.1156 -0.4499  1.3462
  857SOL     hw 3427   0.932   4.470   3.246 -1.1681 -0.7024 -0.7491
  857SOL     vw 3428   0.948   4.494   3.164  0.4740 -0.1025 -0.2888
  858SOL     ow 3429   5.672   2.965   3.755  0.1246 -0.0114  0.6602
  858SOL     hw 3430   5.766   2.974   3.774  0.1302 -1.9744  1.8437
  858SOL     hw 3431   5.669   2.915   3.674  0.0780  0.6978  0.2146
  858SOL     vw 3432   5.684   2.960   3.747  0.1190 -0.1768  0.7577
  859SOL     ow 3433   3.009   0.848   4.500 -0.6084 -0.4664  0.5791
  859SOL     hw 3434   3.044   0.797   4.573 -1.1502 -0.0405  1.1506
  859SOL     hw 3435   2.999   0.936   4.535 -2.3564 -0.5979  0.4922
  859SOL     vw 3436   3.012   0.853   4.514 -0.9104 -0.4276  0.6430
  860SOL     ow 3437   5.825   5.575   2.371  0.1361  0.1803  0.0458
  860SOL     hw 3438   5.807   5.574   2.465 -2.2987 -1.1981 -0.3523
  860SOL     hw 3439   5.914   5.542   2.363 -0.2468 -1.4774  1.8056
  860SOL     vw 3440   5.834   5.570   2.382 -0.2356 -0.2205  0.2257
  861SOL     ow 3441   7.066   1.633   5.471  0.3331  0.3054 -0.9282
  861SOL     hw 3442   7.063   1.554   5.525  1.8444 -0.1624 -1.4751
  861SOL     hw 3443   7.067   1.601   5.381  0.0921  0.9764 -1.1736
  861SOL     vw 3444   7.066   1.619   5.467  0.5012  0.3322 -1.0326
  862SOL     ow 3445   1.749   6.416   6.071  0.6242 -0.4422  0.3794
  862SOL     hw 3446   1.754   6.384   5.981  2.2689 -0.6127  0.5050
  862SOL     hw 3447   1.672   6.474   6.072  1.1234  0.3153 -1.3725
  862SOL     vw 3448   1.740   6.420   6.060  0.9070 -0.3645  0.1652
  863SOL     ow 3449   6.855   3.210   3.958  0.1330 -0.5749  0.3514
  863SOL     hw 3450   6.861   3.305   3.973 -1.8699 -0.5417  1.3028
  863SOL     hw 3451   6.891   3.171   4.038  1.0055 -0.6420 -0.0615
  863SOL     vw 3452   6.861   3.218   3.971 -0.0162 -0.5794  0.4225
  864SOL     ow 3453   4.213   6.145   2.247 -0.7006 -0.4222  0.4029
  864SOL     hw 3454   4.199   6.081   2.177  0.3001 -0.3415  0.1204
  864SOL     hw 3455   4.153   6.117   2.317 -0.5040 -1.4869  0.1623
  864SOL     vw 3456   4.203   6.133   2.247 -0.5426 -0.5519  0.3340
  865SOL     ow 3457   6.644   1.600   3.330  0.0667  0.2507  0.0802
  865SOL     hw 3458   6.714   1.634   3.274  1.1612  1.2007  1.9601
  865SOL     hw 3459   6.569   1.593   3.271  1.0145  1.7276 -1.3969
  865SOL     vw 3460   6.643   1.604   3.315  0.3362  0.5709  0.1334
  866SOL     ow 3461   3.107   3.772   2.910 -0.2632 -0.8079  0.1892
  866SOL     hw 3462   3.182   3.733   2.956  0.2652 -0.1515 -0.0969
  866SOL     hw 3463   3.034   3.712   2.928  0.4015 -1.6345  0.1953
  866SOL     vw 3464   3.107   3.759   2.919 -0.1056 -0.8303  0.1522
  867SOL     ow 3465   2.368   2.009   5.211  0.2925 -0.1479 -0.1065
  867SOL     hw 3466   2.360   2.095   5.252 -0.2693 -0.5364  0.6351
  867SOL     hw 3467   2.451   2.011   5.165  0.3906  0.7119  0.1053
  867SOL     vw 3468   2.378   2.020   5.210  0.2313 -0.0856  0.0191
  868SOL     ow 3469   2.680   1.631   2.723  0.2758 -0.6315 -0.0118
  868SOL     hw 3470   2.626   1.702   2.689  1.1768  0.5219  0.8441
  868SOL     hw 3471   2.661   1.630   2.817  1.3273 -0.5430  0.2149
  868SOL     vw 3472   2.670   1.640   2.731  0.5333 -0.4677  0.1310
  869SOL     ow 3473   0.843   0.045   6.504 -0.1655  0.4724  0.1162
  869SOL     hw 3474   0.810  -0.018   6.440 -0.2910  0.6104  0.0447
  869SOL     hw 3475   0.766   0.072   6.553 -0.3178  1.4777 -0.6480
  869SOL     vw 3476   0.829   0.040   6.502 -0.2022  0.6230  0.0060
  870SOL     ow 3477   3.459   2.451   4.493 -0.4388  0.2908  0.5287
  870SOL     hw 3478   3.489   2.366   4.523  0.3765  0.4742  0.2591
  870SOL     hw 3479   3.483   2.453   4.400  1.2532  1.5325  0.9479
  870SOL     vw 3480   3.466   2.440   4.484 -0.1080  0.4787  0.5481
  871SOL     ow 3481   1.775   1.736   0.680 -1.2724 -0.0819 -0.4077
  871SOL     hw 3482   1.703   1.734   0.617 -1.2024 -2.6344 -0.5129
  871SOL     hw 3483   1.836   1.668   0.650 -1.0981 -1.2090  2.1933
  871SOL     vw 3484   1.774   1.727   0.667 -1.2402 -0.5674 -0.0784
  872SOL     ow 3485   6.655   4.811   6.876 -0.4288 -0.0900  0.2088
  872SOL     hw 3486   6.656   4.738   6.939 -0.6399 -0.1223  0.1732
  872SOL     hw 3487   6.566   4.845   6.880  0.0414  1.1133  1.3144
  872SOL     vw 3488   6.644   4.806   6.885 -0.3946  0.0644  0.3500
  873SOL     ow 3489   1.496   5.063   6.832  0.1526  0.1797 -0.0500
  873SOL     hw 3490   1.463   5.012   6.758  0.2291 -2.9398  1.9017
  873SOL     hw 3491   1.586   5.035   6.843 -0.1198 -0.0632  1.7403
  873SOL     vw 3492   1.503   5.053   6.823  0.1267 -0.2639  0.4439
  874SOL     ow 3493   6.579   5.663   5.514 -0.3370 -0.3322  0.2002
  874SOL     hw 3494   6.570   5.670   5.419  0.7480 -1.9854 -0.0570
  874SOL     hw 3495   6.671   5.641   5.528 -0.7759 -1.4517  1.5410
  874SOL     vw 3496   6.590   5.661   5.503 -0.2518 -0.6981  0.3431
  875SOL     ow 3497   1.175   6.858   1.159  0.1748  0.1471  0.1595
  875SOL     hw 3498   1.198   6.951   1.163  1.6184 -0.0495 -1.8972
  875SOL     hw 3499   1.201   6.824   1.245  1.1248  1.3405  0.3794
  875SOL     vw 3500   1.182   6.866   1.171  0.4907  0.2787 -0.0828
  876SOL     ow 3501   1.497   4.438   4.286  0.4665  0.0929  0.3769
  876SOL     hw 3502   1.534   4.383   4.217  1.8678 -0.4718  1.5072
  876SOL     hw 3503   1.563   4.435   4.356  0.4813  2.9651  0.6243
  876SOL     vw 3504   1.511   4.430   4.286  0.6533  0.3977  0.5586
  877SOL     ow 3505   3.151   0.159   4.340  0.3261 -0.3382  0.6875
  877SOL     hw 3506   3.081   0.179   4.402  0.8657  1.4945  0.7675
  877SOL     hw 3507   3.173   0.068   4.357 -0.2552 -0.1896  2.4681
  877SOL     vw 3508   3.144   0.150   4.350  0.3206 -0.0768  0.9332
  878SOL     ow 3509   6.870   5.083   2.198 -0.2500 -0.3471  0.0983
  878SOL     hw 3510   6.932   5.050   2.135 -0.5612  0.0852 -0.4442
  878SOL     hw 3511   6.921   5.144   2.253 -0.8873  3.0420 -2.7149
  878SOL     vw 3512   6.885   5.087   2.197 -0.3753  0.1574 -0.3445
  879SOL     ow 3513   1.422   1.689   5.939  0.5757  0.0322  0.2629
  879SOL     hw 3514   1.403   1.626   6.008  3.0496 -0.9354  0.1567
  879SOL     hw 3515   1.482   1.643   5.880  2.1482  2.3115 -0.0572
  879SOL     vw 3516   1.427   1.675   5.940  1.1096  0.2053  0.2067
  880SOL     ow 3517   3.347   5.316   0.320 -0.7998 -0.4485 -0.2470
  880SOL     hw 3518   3.270   5.325   0.376 -0.5576  0.5160 -0.0516
  880SOL     hw 3519   3.381   5.405   0.311 -0.2343 -0.7351 -1.0817
  880SOL     vw 3520   3.342   5.329   0.326 -0.6932 -0.3588 -0.3314
  881SOL     ow 3521   4.996   2.161   3.290  0.3219 -0.6108 -1.0847
  881SOL     hw 3522   5.045   2.129   3.366 -2.2215 -2.2931  0.0169
  881SOL     hw 3523   4.990   2.086   3.231 -1.9276 -0.9483 -0.5478
  881SOL     vw 3524   5.002   2.147   3.293 -0.3104 -0.8774 -0.8686
  882SOL     ow 3525   3.643   7.079   1.597  0.1703 -0.0243 -0.0953
  882SOL     hw 3526   3.560   7.034   1.583  0.2402  0.0771 -0.8927
  882SOL     hw 3527   3.697   7.016   1.646 -0.0122 -0.4929 -0.4921
  882SOL     vw 3528   3.640   7.065   1.602  0.1553 -0.0727 -0.2528
  883SOL     ow 3529   6.076   0.558   4.508 -0.4814 -0.3729  0.3078
  883SOL     hw 3530   6.136   0.626   4.479 -2.2659  1.0694 -0.2503
  883SOL     hw 3531   6.131   0.483   4.528  1.4742  0.9112 -0.0357
  883SOL     vw 3532   6.091   0.557   4.507 -0.4590 -0.0132  0.1891
  884SOL     ow 3533   6.894   4.536   4.331 -0.3513  0.1016 -0.0449
  884SOL     hw 3534   6.859   4.452   4.362  0.6213  0.2510  1.5405
  884SOL     hw 3535   6.910   4.521   4.237  0.3071 -1.6775  0.3045
  884SOL     vw 3536   6.892   4.523   4.322 -0.1359 -0.1135  0.2105
  885SOL     ow 3537   5.925   3.003   3.860 -0.4964 -0.0957  0.4546
  885SOL     hw 3538   5.996   2.947   3.891 -0.0681  0.1701 -0.0309
  885SOL     hw 3539   5.969   3.072   3.810 -0.7938  1.8088  2.6120
  885SOL     vw 3540   5.941   3.005   3.857 -0.4790  0.1906  0.6752
  886SOL     ow 3541   2.287   5.867   5.709  0.4731 -0.0258  0.5725
  886SOL     hw 3542   2.205   5.916   5.713 -0.9653 -2.1777 -0.4733
  886SOL     hw 3543   2.261   5.780   5.680  3.2536 -0.5256 -0.7382
  886SOL     vw 3544   2.273   5.862   5.705  0.6503 -0.3757  0.2615
  887SOL     ow 3545   2.212   5.156   3.186 -0.4608  0.5953 -0.3858
  887SOL     hw 3546   2.262   5.125   3.261 -0.0881  0.0826 -0.8426
  887SOL     hw 3547   2.147   5.087   3.171  0.6297 -0.1992 -1.6579
  887SOL     vw 3548   2.210   5.143   3.194 -0.2677  0.4230 -0.6139
  888SOL     ow 3549   0.317   3.490   3.554 -0.5700  0.0052  0.5268
  888SOL     hw 3550   0.233   3.498   3.600 -0.6247 -0.3062  0.4832
  888SOL     hw 3551   0.293   3.481   3.461 -0.5109 -0.6134  0.5695
  888SOL     vw 3552   0.303   3.490   3.547 -0.5694 -0.1175  0.5268
  889SOL     ow 3553   3.743   2.473   4.441  0.1319  0.1652 -0.0277
  889SOL     hw 3554   3.664   2.498   4.489 -0.6519 -1.1038 -0.5849
  889SOL     hw 3555   3.711   2.413   4.373  1.4387  0.5298 -0.9928
  889SOL     vw 3556   3.728   2.468   4.438  0.2009  0.0457 -0.2284
  890SOL     ow 3557   6.618   2.231   4.809  0.6503 -0.2756  0.3197
  890SOL     hw 3558   6.694   2.205   4.861  0.1530 -0.6213  0.8743
  890SOL     hw 3559   6.588   2.312   4.849  1.4828  0.5646 -0.6852
  890SOL     vw 3560   6.624   2.238   4.821  0.6945 -0.2103  0.2604
  891SOL     ow 3561   3.527   0.546   2.075  0.2672  0.0464  0.0789
  891SOL     hw 3562   3.485   0.464   2.101 -0.4204  0.9387  1.9455
  891SOL     hw 3563   3.454   0.607   2.064  0.8918  0.8795  0.5108
  891SOL     vw 3564   3.512   0.543   2.077  0.2590  0.2740  0.3821
  892SOL     ow 3565   0.407   4.488   3.868 -0.3893  0.3549 -0.1567
  892SOL     hw 3566   0.384   4.557   3.931 -0.6280  1.4402 -1.3815
  892SOL     hw 3567   0.342   4.420   3.883  0.1500  0.1384  1.4214
  892SOL     vw 3568   0.395   4.488   3.878 -0.3496  0.4692 -0.1103
  893SOL     ow 3569   3.768   3.023   1.477  0.0512 -0.4276  0.2268
  893SOL     hw 3570   3.686   3.064   1.506 -0.1126 -0.5671 -0.0323
  893SOL     hw 3571   3.746   2.985   1.391  0.6061  0.2400 -0.2222
  893SOL     vw 3572   3.754   3.023   1.469  0.1028 -0.3580  0.1333
  894SOL     ow 3573   2.604   5.477   3.588  0.2834  0.0792 -0.3435
  894SOL     hw 3574   2.690   5.503   3.555  0.1125  0.2953 -0.6283
  894SOL     hw 3575   2.622   5.406   3.650  0.6128 -0.4027 -0.9732
  894SOL     vw 3576   2.618   5.471   3.592  0.3041  0.0441 -0.4641
  895SOL     ow 3577   3.307   4.610   6.952 -0.2696  0.0728  0.3470
  895SOL     hw 3578   3.276   4.519   6.951 -1.3056  0.3791 -1.8250
  895SOL     hw 3579   3.390   4.608   6.904 -0.7124  0.3574 -0.4609
  895SOL     vw 3580   3.314   4.598   6.945 -0.4647  0.1507 -0.0465
  896SOL     ow 3581   6.079   2.765   4.545 -0.3590  0.5369 -0.1915
  896SOL     hw 3582   5.991   2.797   4.523  0.0934  0.7465 -1.7917
  896SOL     hw 3583   6.099   2.700   4.477  0.7596  0.5609  0.0988
  896SOL     vw 3584   6.070   2.761   4.533 -0.1519  0.5678 -0.3643
  897SOL     ow 3585   6.184   3.746   4.736 -0.8405 -0.6994 -0.0419
  897SOL     hw 3586   6.267   3.787   4.761 -1.7546  0.3950  1.3268
  897SOL     hw 3587   6.172   3.675   4.799 -1.0968 -0.6484 -0.0328
  897SOL     vw 3588   6.193   3.742   4.748 -0.9949 -0.5484  0.1400
  898SOL     ow 3589   5.649   4.320   0.657 -0.0418 -0.8015  0.4530
  898SOL     hw 3590   5.591   4.271   0.598 -0.5457 -3.2100  2.7844
  898SOL     hw 3591   5.595   4.337   0.734  0.8688  1.4988  0.6558
  898SOL     vw 3592   5.634   4.316   0.659  0.0117 -0.8159  0.7873
  899SOL     ow 3593   5.612   0.189   6.442 -0.2740  0.2732  0.3172
  899SOL     hw 3594   5.618   0.130   6.517 -0.4123  0.3985  0.4275
  899SOL     hw 3595   5.522   0.222   6.445 -0.5803 -0.4422 -0.4480
  899SOL     vw 3596   5.601   0.185   6.453 -0.3328  0.1953  0.2308
  900SOL     ow 3597   4.845   4.623   2.131  0.0710  0.1601  0.0830
  900SOL     hw 3598   4.861   4.554   2.066 -1.1772 -0.0531 -0.0168
  900SOL     hw 3599   4.926   4.626   2.182  1.0362  0.2446 -1.3842
  900SOL     vw 3600   4.858   4.614   2.129  0.0336  0.1431 -0.1239
  901SOL     ow 3601   5.685   5.205   4.101 -0.8288 -0.0446  0.3426
  901SOL     hw 3602   5.627   5.154   4.158  0.4475  0.3830  2.1087
  901SOL     hw 3603   5.762   5.150   4.091 -0.9078  0.0239 -0.7714
  901SOL     vw 3604   5.687   5.191   4.107 -0.6707  0.0207  0.4287
  902SOL     ow 3605   3.681   7.025   5.852 -0.3396  0.1008 -0.3496
  902SOL     hw 3606   3.751   6.991   5.796  0.1894  1.2571 -0.4079
  902SOL     hw 3607   3.601   6.988   5.814  0.3309 -3.6715  1.4588
  902SOL     vw 3608   3.680   7.016   5.839 -0.1813 -0.2444 -0.1187
  903SOL     ow 3609   5.425   0.806   2.468  0.0224 -0.4374  0.3491
  903SOL     hw 3610   5.438   0.856   2.388  0.4281  0.8424  1.1921
  903SOL     hw 3611   5.481   0.729   2.457  1.7774  0.7782  0.2750
  903SOL     vw 3612   5.434   0.802   2.456  0.3073 -0.1082  0.4505
  904SOL     ow 3613   2.114   1.137   0.498 -0.2824 -0.3219 -0.1850
  904SOL     hw 3614   2.059   1.201   0.452 -2.7172 -0.7612  1.8906
  904SOL     hw 3615   2.070   1.054   0.484  2.3130 -1.5498 -2.0246
  904SOL     vw 3616   2.101   1.135   0.490 -0.2613 -0.5419 -0.1539
  905SOL     ow 3617   4.820   3.017   4.095 -0.5840 -0.3121  0.7254
  905SOL     hw 3618   4.830   2.976   4.181  3.2410 -0.4029  0.4138
  905SOL     hw 3619   4.848   3.108   4.108  0.5372 -0.4558 -0.4472
  905SOL     vw 3620   4.825   3.024   4.108  0.0684 -0.3431  0.5295
  906SOL     ow 3621   4.315   3.187   0.700  0.2377 -1.0393 -0.1824
  906SOL     hw 3622   4.270   3.103   0.695  0.4616 -1.0829 -3.7097
  906SOL     hw 3623   4.256   3.249   0.656 -0.4186  1.0554  3.2177
  906SOL     vw 3624   4.301   3.184   0.694  0.1807 -0.7687 -0.1992
  907SOL     ow 3625   2.689   4.949   6.048  0.0946 -0.5456  0.4730
  907SOL     hw 3626   2.725   4.878   5.993 -1.0487  1.5023 -3.2907
  907SOL     hw 3627   2.751   5.021   6.036 -1.6186  0.8256 -0.4621
  907SOL     vw 3628   2.702   4.949   6.039 -0.2823 -0.0947 -0.1469
  908SOL     ow 3629   5.053   3.295   6.260 -0.0040  0.3365 -0.0475
  908SOL     hw 3630   5.136   3.252   6.242 -1.6738 -2.5350 -1.5546
  908SOL     hw 3631   5.015   3.245   6.332 -0.1062  2.2036  1.2774
  908SOL     vw 3632   5.059   3.283   6.267 -0.2377  0.2040 -0.0715
  909SOL     ow 3633   6.239   6.220   0.413 -0.3918 -0.2003  0.4286
  909SOL     hw 3634   6.151   6.205   0.378 -0.7504  0.4041  1.0648
  909SOL     hw 3635   6.288   6.141   0.388 -0.4479  0.4413 -1.9538
  909SOL     vw 3636   6.234   6.207   0.405 -0.4463 -0.0360  0.1982
  910SOL     ow 3637   2.227   6.667   3.050 -0.9558 -1.5412 -0.3444
  910SOL     hw 3638   2.249   6.574   3.057  1.9031 -1.1568 -2.3897
  910SOL     hw 3639   2.279   6.709   3.118 -0.3525 -1.2410 -0.9793
  910SOL     vw 3640   2.237   6.660   3.060 -0.4990 -1.4508 -0.6981
  911SOL     ow 3641   1.211   2.571   0.619  0.5301  0.5227  0.3929
  911SOL     hw 3642   1.129   2.581   0.667  0.5095 -1.1424  0.7745
  911SOL     hw 3643   1.226   2.657   0.579 -2.4583  0.3532 -1.3998
  911SOL     vw 3644   1.202   2.584   0.620  0.1330  0.2807  0.2068
  912SOL     ow 3645   2.874   1.364   6.273  0.6585  0.0903  0.3766
  912SOL     hw 3646   2.816   1.404   6.338 -0.4393  1.6547 -1.4575
  912SOL     hw 3647   2.823   1.292   6.236 -0.0434  1.2361 -0.9770
  912SOL     vw 3648   2.860   1.360   6.277  0.4210  0.4480 -0.0439
  913SOL     ow 3649   6.822   3.143   0.949  0.2121  0.4036 -0.5218
  913SOL     hw 3650   6.770   3.116   0.874 -1.3059 -3.8253  1.7607
  913SOL     hw 3651   6.759   3.154   1.020  2.0021 -2.0935  1.6473
  913SOL     vw 3652   6.807   3.141   0.948  0.2480 -0.4836  0.0655
  914SOL     ow 3653   3.420   5.264   2.604  0.1087 -0.5066  0.1113
  914SOL     hw 3654   3.506   5.295   2.574 -0.6279 -0.1173 -1.7381
  914SOL     hw 3655   3.365   5.343   2.603 -0.8459 -1.1621 -1.0032
  914SOL     vw 3656   3.424   5.279   2.600 -0.1144 -0.5419 -0.2795
  915SOL     ow 3657   4.127   5.764   4.133  0.3130  0.7025  0.0680
  915SOL     hw 3658   4.062   5.802   4.193  1.0077 -0.3198  1.5361
  915SOL     hw 3659   4.084   5.763   4.048 -1.3683  0.6156  0.8802
  915SOL     vw 3660   4.113   5.769   4.130  0.1829  0.5562  0.3691
  916SOL     ow 3661   4.582   4.741   2.247  0.0113  0.1925  0.2387
  916SOL     hw 3662   4.497   4.778   2.269 -0.4238 -0.1317 -0.8205
  916SOL     hw 3663   4.612   4.698   2.327 -0.7757  0.3851  0.6427
  916SOL     vw 3664   4.575   4.741   2.260 -0.1500  0.1752  0.1522
  917SOL     ow 3665   2.780   2.223   1.438  0.3825 -0.4315 -0.0238
  917SOL     hw 3666   2.842   2.238   1.367 -3.2287  1.1633 -3.2310
  917SOL     hw 3667   2.722   2.155   1.404 -0.7731 -0.5087  1.9756
  917SOL     vw 3668   2.780   2.216   1.424 -0.2464 -0.2313 -0.1832
  918SOL     ow 3669   2.818   5.323   3.708 -0.2204  0.4878  0.0297
  918SOL     hw 3670   2.859   5.390   3.763 -0.2866  2.3776 -2.0894
  918SOL     hw 3671   2.872   5.319   3.630 -1.4426 -0.3951 -0.8078
  918SOL     vw 3672   2.830   5.331   3.705 -0.3903  0.6206 -0.3604
  919SOL     ow 3673   3.489   4.813   0.039  0.2517  0.9288  0.2687
  919SOL     hw 3674   3.546   4.833  -0.035  0.1809  0.2314  0.0166
  919SOL     hw 3675   3.546   4.774   0.105 -0.0311 -0.4293 -0.2595
  919SOL     vw 3676   3.504   4.810   0.038  0.2050  0.6576  0.1658
  920SOL     ow 3677   5.414   3.429   2.712  0.8633 -0.5359 -0.5474
  920SOL     hw 3678   5.374   3.480   2.641 -1.7990  0.6644  1.6516
  920SOL     hw 3679   5.488   3.482   2.741  1.7778 -0.8854 -2.1253
  920SOL     vw 3680   5.419   3.443   2.706  0.6330 -0.4237 -0.4655
  921SOL     ow 3681   5.267   3.122   2.544 -0.1485  0.1508  0.2698
  921SOL     hw 3682   5.358   3.149   2.529 -0.5486  1.6241  0.2712
  921SOL     hw 3683   5.216   3.175   2.482 -1.0543 -0.2426  0.6580
  921SOL     vw 3684   5.272   3.133   2.534 -0.3207  0.2933  0.3213
  922SOL     ow 3685   5.413   3.094   1.299  0.2583 -0.5794 -0.3805
  922SOL     hw 3686   5.330   3.109   1.345 -0.6788 -0.9672 -1.8886
  922SOL     hw 3687   5.461   3.034   1.356  0.5662  1.4568  1.6878
  922SOL     vw 3688   5.409   3.088   1.313  0.1752 -0.3619 -0.3066
  923SOL     ow 3689   5.314   1.509   2.299 -0.2232 -0.1769  0.6681
  923SOL     hw 3690   5.257   1.567   2.350 -0.1157  1.1301 -0.6589
  923SOL     hw 3691   5.393   1.501   2.352  0.5234  2.4218  0.0726
  923SOL     vw 3692   5.317   1.515   2.313 -0.1106  0.3384  0.4145
  924SOL     ow 3693   5.284   4.821   4.995 -0.5779  0.5194 -0.3693
  924SOL     hw 3694   5.216   4.809   5.061 -3.0346  2.7052 -2.2804
  924SOL     hw 3695   5.280   4.915   4.974  3.1813  0.8111 -0.5529
  924SOL     vw 3696   5.275   4.832   5.001 -0.4060  0.8461 -0.6456
  925SOL     ow 3697   5.419   3.114   5.396  1.1902 -0.4267 -0.0524
  925SOL     hw 3698   5.369   3.172   5.453 -0.4946 -0.0240 -1.8172
  925SOL     hw 3699   5.425   3.162   5.313  0.5817 -2.3357 -1.2636
  925SOL     vw 3700   5.413   3.128   5.393  0.8879 -0.6255 -0.4449
  926SOL     ow 3701   1.320   4.614   2.596  0.2315 -0.6332 -0.0650
  926SOL     hw 3702   1.329   4.525   2.560 -1.6436 -1.0364  0.3177
  926SOL     hw 3703   1.225   4.626   2.605  0.5153  0.6694  1.7156
  926SOL     vw 3704   1.309   4.604   2.593  0.0215 -0.5145  0.2205
  927SOL     ow 3705   5.844   2.846   4.411  0.5166  0.0274  0.2500
  927SOL     hw 3706   5.766   2.817   4.459  0.1842 -0.1212 -0.3750
  927SOL     hw 3707   5.855   2.938   4.438 -0.6152  0.4445 -0.5993
  927SOL     vw 3708   5.835   2.855   4.421  0.3235  0.0628  0.0556
  928SOL     ow 3709   0.035   3.589   1.744  0.0589 -0.8136  0.0353
  928SOL     hw 3710   0.053   3.674   1.704  1.9354 -1.1339  0.1118
  928SOL     hw 3711  -0.051   3.600   1.785  0.1712  0.9781 -0.1170
  928SOL     vw 3712   0.026   3.602   1.744  0.3213 -0.6194  0.0253
  929SOL     ow 3713   4.966   1.313   5.996  0.1789  0.1480 -0.3269
  929SOL     hw 3714   4.959   1.327   5.901  1.8153 -0.5829 -0.5926
  929SOL     hw 3715   4.995   1.397   6.030  2.3455 -0.2946 -0.8938
  929SOL     vw 3716   4.969   1.326   5.988  0.6807 -0.0069 -0.4368
  930SOL     ow 3717   3.328   6.278   3.220  0.2429  0.0380 -0.2072
  930SOL     hw 3718   3.248   6.328   3.204 -0.3775 -1.2340 -1.2530
  930SOL     hw 3719   3.384   6.297   3.144  1.3178  1.5711  0.9097
  930SOL     vw 3720   3.325   6.287   3.208  0.3028  0.0725 -0.1979
  931SOL     ow 3721   2.683   6.002   6.943 -0.2012  0.3454 -0.0353
  931SOL     hw 3722   2.590   6.020   6.958 -1.0903 -0.6176 -3.5027
  931SOL     hw 3723   2.686   5.910   6.917  1.6082  0.5542 -0.7250
  931SOL     vw 3724   2.671   5.993   6.942 -0.0799  0.2460 -0.5836
  932SOL     ow 3725   1.408   5.405   0.596 -0.1053 -0.1563 -0.2831
  932SOL     hw 3726   1.430   5.460   0.671 -2.3108  0.0039  0.3075
  932SOL     hw 3727   1.327   5.443   0.561  0.5160 -0.6141 -2.3836
  932SOL     vw 3728   1.401   5.417   0.601 -0.3144 -0.1957 -0.4823
  933SOL     ow 3729   3.633   0.083   0.227  0.4483  0.6092  0.6469
  933SOL     hw 3730   3.710   0.066   0.281  0.8796 -1.6663 -0.5454
  933SOL     hw 3731   3.669   0.102   0.140 -0.2542 -2.2317 -0.3704
  933SOL     vw 3732   3.648   0.084   0.223  0.4125 -0.0658  0.3554
  934SOL     ow 3733   5.069   6.597   2.775  0.6796 -0.8115 -0.2706
  934SOL     hw 3734   5.157   6.626   2.751  0.5549  0.3672  0.6264
  934SOL     hw 3735   5.076   6.574   2.868  0.2528 -1.6401 -0.4290
  934SOL     vw 3736   5.082   6.598   2.784  0.6068 -0.7653 -0.1731
  935SOL     ow 3737   0.278   4.689   3.682 -0.1513 -0.1611 -0.1397
  935SOL     hw 3738   0.359   4.705   3.731  0.8351 -1.7597 -1.1640
  935SOL     hw 3739   0.237   4.776   3.675  0.6777  0.4374  1.7088
  935SOL     vw 3740   0.283   4.703   3.687  0.0882 -0.2930 -0.0310
  936SOL     ow 3741   2.543   4.238   0.830  0.1711 -0.2524  0.0917
  936SOL     hw 3742   2.488   4.165   0.800  1.4176 -2.0635  1.9491
  936SOL     hw 3743   2.552   4.224   0.924  0.9811  1.9873  0.3984
  936SOL     vw 3744   2.537   4.226   0.838  0.4425 -0.1957  0.3772
  937SOL     ow 3745   4.206   0.683   5.929 -0.4923 -0.2725  0.4498
  937SOL     hw 3746   4.154   0.672   5.849 -0.6887 -0.1219  0.5567
  937SOL     hw 3747   4.297   0.672   5.900 -0.4978  0.6750  0.0398
  937SOL     vw 3748   4.211   0.680   5.915 -0.5188 -0.1276  0.4096
  938SOL     ow 3749   2.909   5.084   2.136  0.2931 -0.0650 -0.7588
  938SOL     hw 3750   2.944   5.116   2.219 -1.0646 -0.8942  0.1717
  938SOL     hw 3751   2.954   5.001   2.122 -0.2464 -0.4406 -0.2951
  938SOL     vw 3752   2.920   5.077   2.145  0.0428 -0.2236 -0.5748
  939SOL     ow 3753   3.070   3.989   2.360 -0.3370  0.4400  0.2502
  939SOL     hw 3754   3.062   4.084   2.354 -1.4445  0.4170  0.9834
  939SOL     hw 3755   3.164   3.973   2.368 -0.0846  1.4165 -0.6269
  939SOL     vw 3756   3.081   3.999   2.360 -0.4499  0.5656  0.2313
  940SOL     ow 3757   2.590   6.132   3.907 -0.2239  0.0757 -0.2073
  940SOL     hw 3758   2.507   6.136   3.860 -1.0064  1.9689  1.1689
  940SOL     hw 3759   2.612   6.224   3.925  3.8030 -0.0417 -3.0979
  940SOL     vw 3760   2.582   6.145   3.903  0.2041  0.3099 -0.4072
  941SOL     ow 3761   3.590   4.021   1.897 -0.7808  0.0299  0.3262
  941SOL     hw 3762   3.666   4.060   1.854  0.3055  0.2075  2.2661
  941SOL     hw 3763   3.622   3.936   1.930 -2.0162 -0.7964 -0.5325
  941SOL     vw 3764   3.604   4.015   1.896 -0.8005 -0.0558  0.4689
  942SOL     ow 3765   5.004   1.134   2.009  0.6382  0.0241 -0.4329
  942SOL     hw 3766   4.989   1.149   2.102  1.4342 -0.9824 -0.1308
  942SOL     hw 3767   5.099   1.144   1.998  0.3080  2.7959 -1.6587
  942SOL     vw 3768   5.015   1.137   2.020  0.6998  0.2571 -0.5547
  943SOL     ow 3769   1.354   1.037   5.787  0.5629 -0.0052  0.0485
  943SOL     hw 3770   1.281   1.088   5.752  1.3794  1.1349 -0.0546
  943SOL     hw 3771   1.319   0.999   5.868 -0.1507  0.5374  0.0144
  943SOL     vw 3772   1.340   1.039   5.793  0.5766  0.2169  0.0305
  944SOL     ow 3773   2.139   2.020   6.007  0.1782  0.0419 -1.0850
  944SOL     hw 3774   2.143   2.040   5.914 -1.9415  0.0366 -1.2266
  944SOL     hw 3775   2.229   2.034   6.039  0.8786  0.2999 -3.0471
  944SOL     vw 3776   2.152   2.024   5.999 -0.0091  0.0751 -1.3628
  945SOL     ow 3777   4.527   3.028   0.679  0.1135 -0.2491 -0.6052
  945SOL     hw 3778   4.495   2.955   0.733  1.0960 -0.7127 -0.6310
  945SOL     hw 3779   4.514   2.999   0.589 -1.0802  0.3295 -0.6448
  945SOL     vw 3780   4.521   3.015   0.674  0.0858 -0.2340 -0.6138
  946SOL     ow 3781   4.887   1.395   5.739 -0.5367 -0.2337 -0.6825
  946SOL     hw 3782   4.814   1.387   5.799  0.0584 -0.2040  0.0552
  946SOL     hw 3783   4.887   1.487   5.712  0.5884  0.3261  1.0879
  946SOL     vw 3784   4.877   1.406   5.743 -0.3097 -0.1559 -0.3514
  947SOL     ow 3785   6.291   3.174   1.983 -0.0718 -0.0902 -0.6580
  947SOL     hw 3786   6.214   3.118   1.983  0.0368 -0.2400 -0.8113
  947SOL     hw 3787   6.344   3.142   2.057  0.3691 -0.7169 -1.2327
  947SOL     vw 3788   6.288   3.163   1.993  0.0007 -0.1928 -0.7541
  948SOL     ow 3789   3.212   0.468   3.949 -0.5837  0.4371 -0.1859
  948SOL     hw 3790   3.117   0.478   3.948 -0.7387 -0.8494 -1.3697
  948SOL     hw 3791   3.242   0.511   3.870 -0.2855 -0.0052 -0.3181
  948SOL     vw 3792   3.204   0.475   3.939 -0.5648  0.2090 -0.3595
  949SOL     ow 3793   6.991   6.594   6.667  0.5119 -0.0123 -0.0021
  949SOL     hw 3794   6.952   6.641   6.740  2.7918 -0.2254  1.4419
  949SOL     hw 3795   6.957   6.505   6.676  0.9914 -0.1100  1.0047
  949SOL     vw 3796   6.981   6.588   6.678  0.8762 -0.0532  0.3209
  950SOL     ow 3797   3.986   0.107   0.924 -0.6426  0.1186 -0.4786
  950SOL     hw 3798   3.940   0.065   0.852 -0.7250 -0.6740  0.0175
  950SOL     hw 3799   4.062   0.050   0.940 -0.3575  0.5550 -0.2686
  950SOL     vw 3800   3.990   0.094   0.917 -0.6160  0.0716 -0.3854
  951SOL     ow 3801   5.077   2.873   3.967  0.1277 -0.2092  0.6678
  951SOL     hw 3802   5.076   2.791   4.016 -0.1772 -1.2365 -0.9816
  951SOL     hw 3803   5.132   2.855   3.891 -1.6168  0.4193 -0.8223
  951SOL     vw 3804   5.084   2.860   3.963 -0.1426 -0.2619  0.2537
  952SOL     ow 3805   5.360   4.632   2.601  0.2045  0.2277 -0.3269
  952SOL     hw 3806   5.289   4.595   2.654  0.5013  1.1857  0.7902
  952SOL     hw 3807   5.438   4.588   2.633  0.3387  0.5318 -0.2369
  952SOL     vw 3808   5.361   4.621   2.613  0.2615  0.3941 -0.1677
  953SOL     ow 3809   0.812   1.192   0.750 -0.4760 -0.0726  0.6263
  953SOL     hw 3810   0.826   1.259   0.817 -0.6957  2.0274 -1.3196
  953SOL     hw 3811   0.718   1.193   0.734 -0.5751 -1.3414  1.0138
  953SOL     vw 3812   0.801   1.201   0.757 -0.5180  0.0370  0.4207
  954SOL     ow 3813   2.774   5.972   6.098 -0.3480  0.4833  0.1423
  954SOL     hw 3814   2.741   5.987   6.186  0.4802  0.9145  0.3921
  954SOL     hw 3815   2.853   5.920   6.110 -0.8296 -0.4048 -0.4305
  954SOL     vw 3816   2.780   5.967   6.111 -0.3022  0.4230  0.0997
  955SOL     ow 3817   5.134   0.843   2.631  0.0283  0.4172  0.3984
  955SOL     hw 3818   5.069   0.815   2.695 -0.3610  0.6145  0.0885
  955SOL     hw 3819   5.158   0.932   2.658  0.2266  0.3185  0.5542
  955SOL     vw 3820   5.129   0.851   2.643  0.0031  0.4302  0.3781
  956SOL     ow 3821   0.706   3.292   5.816  0.1643  0.1557 -0.3215
  956SOL     hw 3822   0.783   3.275   5.762  1.3476 -3.2779  2.1072
  956SOL     hw 3823   0.632   3.269   5.760  1.1862 -1.0071 -1.2613
  956SOL     vw 3824   0.706   3.287   5.802  0.4552 -0.4508 -0.1252
  957SOL     ow 3825   1.646   5.331   6.155  0.4748 -0.1350 -0.3198
  957SOL     hw 3826   1.579   5.265   6.169 -0.4927  0.9502  0.2802
  957SOL     hw 3827   1.635   5.393   6.227 -0.3410  2.0629 -2.2180
  957SOL     vw 3828   1.636   5.331   6.166  0.2395  0.2983 -0.4911
  958SOL     ow 3829   2.694   3.379   5.360 -0.0610 -0.6094  0.3388
  958SOL     hw 3830   2.671   3.332   5.279  1.4204 -1.1480  0.2001
  958SOL     hw 3831   2.786   3.357   5.375 -0.6248 -1.6006  2.9122
  958SOL     vw 3832   2.703   3.370   5.351  0.0602 -0.8112  0.6602
  959SOL     ow 3833   5.011   0.402   1.069 -0.8343  0.3233  0.3384
  959SOL     hw 3834   5.062   0.332   1.109  1.9397  1.9482 -0.1349
  959SOL     hw 3835   4.920   0.377   1.086  0.0608 -2.3364  1.9009
  959SOL     vw 3836   5.005   0.389   1.077 -0.3500  0.1868  0.4821
  960SOL     ow 3837   1.087   0.180   6.617 -0.0544 -0.1816  0.1279
  960SOL     hw 3838   1.156   0.246   6.625  0.4903 -0.9367  2.5370
  960SOL     hw 3839   1.050   0.174   6.705 -1.4614 -1.6423 -0.5200
  960SOL     vw 3840   1.092   0.188   6.630 -0.1682 -0.4740  0.3600
  961SOL     ow 3841   5.073   5.933   7.040 -0.0594  0.3105  0.8772
  961SOL     hw 3842   5.035   5.857   7.083  0.0386  0.8591  1.9831
  961SOL     hw 3843   5.167   5.927   7.059 -0.0337  0.6313  0.8594
  961SOL     vw 3844   5.081   5.922   7.048 -0.0432  0.4253  1.0207
  962SOL     ow 3845   1.148   3.713   1.659 -0.0888  0.6375  0.0989
  962SOL     hw 3846   1.221   3.684   1.604  1.0018  0.2804  1.6602
  962SOL     hw 3847   1.113   3.633   1.697 -0.2997  0.9366  0.5469
  962SOL     vw 3848   1.153   3.699   1.657  0.0273  0.6299  0.3641
  963SOL     ow 3849   0.083   3.984   4.432  0.0841  0.1978  0.1685
  963SOL     hw 3850   0.078   4.004   4.526 -0.0787 -0.0868  0.2214
  963SOL     hw 3851   0.030   4.052   4.391 -0.7384 -0.3009  0.3758
  963SOL     vw 3852   0.076   3.996   4.439 -0.0459  0.0944  0.2031
  964SOL     ow 3853   0.718   0.265   4.205 -0.2508  0.6295  0.1294
  964SOL     hw 3854   0.708   0.174   4.230  2.0305  0.4425  0.6193
  964SOL     hw 3855   0.813   0.279   4.203 -0.5283  2.8927 -0.2800
  964SOL     vw 3856   0.729   0.255   4.208  0.0136  0.9034  0.1402
  965SOL     ow 3857   4.849   4.657   1.004  0.4716  0.0522 -0.1881
  965SOL     hw 3858   4.925   4.645   0.948 -0.6113  0.2838 -1.7550
  965SOL     hw 3859   4.854   4.749   1.032  0.9995 -0.0615  0.1070
  965SOL     vw 3860   4.860   4.668   1.001  0.3984  0.0677 -0.3559
  966SOL     ow 3861   1.443   3.715   4.834  0.4187 -0.1957  0.2808
  966SOL     hw 3862   1.358   3.758   4.844 -0.0397 -1.0265 -0.0223
  966SOL     hw 3863   1.462   3.679   4.921 -0.1439 -1.1076  0.0369
  966SOL     vw 3864   1.434   3.716   4.847  0.2841 -0.4257  0.2086
  967SOL     ow 3865   3.606   3.297   4.926 -0.0299 -0.3076 -0.2164
  967SOL     hw 3866   3.512   3.305   4.944 -0.3466 -2.0740 -0.8499
  967SOL     hw 3867   3.648   3.342   4.999 -1.3361 -2.0616  1.7759
  967SOL     vw 3868   3.599   3.304   4.938 -0.2438 -0.7720 -0.0367
  968SOL     ow 3869   7.015   2.862   6.696  0.1174 -0.0576 -0.3929
  968SOL     hw 3870   6.993   2.951   6.723  1.3886 -0.2049  1.3201
  968SOL     hw 3871   6.970   2.806   6.760  1.0556 -0.5298 -0.1181
  968SOL     vw 3872   7.006   2.866   6.708  0.4089 -0.1394 -0.1307
  969SOL     ow 3873   0.737   4.462   3.519 -0.6527  0.4642 -0.3612
  969SOL     hw 3874   0.804   4.523   3.550 -0.2031 -0.6585  1.0464
  969SOL     hw 3875   0.786   4.382   3.500 -1.5252 -0.2470  0.3036
  969SOL     vw 3876   0.752   4.459   3.521 -0.7085  0.2224 -0.0877
  970SOL     ow 3877   5.511   5.654   2.209 -0.2273  0.1053  0.1033
  970SOL     hw 3878   5.477   5.589   2.147  0.3491 -0.2349  0.1370
  970SOL     hw 3879   5.515   5.735   2.159  1.5411 -0.4493 -0.7503
  970SOL     vw 3880   5.507   5.656   2.194  0.0823 -0.0126 -0.0048
  971SOL     ow 3881   1.433   4.800   0.366 -0.2036 -0.0842  0.8056
  971SOL     hw 3882   1.523   4.778   0.389 -0.4691 -0.9764  0.9964
  971SOL     hw 3883   1.379   4.756   0.431 -0.7314  2.0232  1.8968
  971SOL     vw 3884   1.438   4.792   0.377 -0.3082  0.0763  0.9748
  972SOL     ow 3885   0.532   2.065   0.244  0.3714 -0.3669 -0.7253
  972SOL     hw 3886   0.482   2.009   0.184  0.1031 -1.1401  0.1986
  972SOL     hw 3887   0.521   2.024   0.329  1.9640 -0.1225 -0.3732
  972SOL     vw 3888   0.524   2.052   0.247  0.5461 -0.4367 -0.5569
  973SOL     ow 3889   6.171   5.108   3.668 -0.2570 -0.4246 -0.2968
  973SOL     hw 3890   6.144   5.081   3.580 -0.4536  0.1902 -0.4339
  973SOL     hw 3891   6.258   5.144   3.656 -1.0126  1.4267 -0.5997
  973SOL     vw 3892   6.179   5.109   3.655 -0.3829 -0.0992 -0.3549
  974SOL     ow 3893   6.218   0.327   2.038 -0.4393  0.3451  0.2922
  974SOL     hw 3894   6.240   0.278   1.958 -0.0152 -0.7654  1.0653
  974SOL     hw 3895   6.284   0.299   2.102 -2.0108 -0.4213  1.6553
  974SOL     vw 3896   6.230   0.316   2.036 -0.5906  0.0975  0.5741
  975SOL     ow 3897   5.805   5.387   4.420 -0.5215  0.1704  0.6470
  975SOL     hw 3898   5.826   5.294   4.431 -0.4817  0.2536  1.3678
  975SOL     hw 3899   5.711   5.389   4.403 -0.3838 -0.0498 -0.1662
  975SOL     vw 3900   5.796   5.375   4.419 -0.4981  0.1523  0.6349
  976SOL     ow 3901   3.856   1.864   3.660 -0.2875 -0.2043  0.2736
  976SOL     hw 3902   3.833   1.956   3.672 -1.2112 -0.7076  3.7135
  976SOL     hw 3903   3.950   1.859   3.677  0.0542  0.2464 -1.3720
  976SOL     vw 3904   3.865   1.875   3.664 -0.3642 -0.2112  0.5102
  977SOL     ow 3905   3.099   2.451   5.476  0.2173  0.0330  0.5272
  977SOL     hw 3906   3.051   2.380   5.433  0.0052  1.7534 -2.3440
  977SOL     hw 3907   3.189   2.441   5.444 -0.1098  1.8302 -1.1510
  977SOL     vw 3908   3.105   2.440   5.466  0.1463  0.4971 -0.0732
  978SOL     ow 3909   5.781   1.831   0.751  0.0886 -0.1644 -0.7355
  978SOL     hw 3910   5.862   1.866   0.713  0.4277 -0.7295 -0.5492
  978SOL     hw 3911   5.774   1.742   0.715  1.0221 -1.1492  1.3327
  978SOL     vw 3912   5.791   1.824   0.741  0.2568 -0.3689 -0.4380
  979SOL     ow 3913   1.838   3.444   0.423 -0.5132  0.0837  0.1295
  979SOL     hw 3914   1.905   3.379   0.444  0.8541  1.9408  1.9508
  979SOL     hw 3915   1.859   3.474   0.335  0.4239 -0.0999  0.2830
  979SOL     vw 3916   1.849   3.439   0.415 -0.2092  0.3046  0.3900
  980SOL     ow 3917   2.596   4.237   1.118  0.2326 -0.3674  0.6037
  980SOL     hw 3918   2.647   4.270   1.192 -1.5465 -0.6460  2.0036
  980SOL     hw 3919   2.526   4.301   1.106  0.3877 -0.4129 -0.7632
  980SOL     vw 3920   2.594   4.250   1.126  0.0182 -0.4101  0.6081
  981SOL     ow 3921   5.589   5.446   3.938  0.1433  0.4953 -0.3959
  981SOL     hw 3922   5.594   5.368   3.992 -0.5884  1.1596  0.6804
  981SOL     hw 3923   5.614   5.518   3.996 -1.1211  1.2890 -0.7663
  981SOL     vw 3924   5.593   5.445   3.953 -0.1197  0.6876 -0.3028
  982SOL     ow 3925   2.669   2.660   2.922  0.3371 -0.2441  0.4597
  982SOL     hw 3926   2.602   2.627   2.862  0.1105  0.0172  0.5653
  982SOL     hw 3927   2.629   2.737   2.963  0.5754 -0.2827  0.7736
  982SOL     vw 3928   2.655   2.666   2.920  0.3386 -0.2147  0.5150
  983SOL     ow 3929   1.332   2.943   1.282 -0.0409 -0.2306  0.2358
  983SOL     hw 3930   1.285   2.879   1.335  0.1510 -0.8567 -0.3334
  983SOL     hw 3931   1.421   2.908   1.277 -0.6869 -1.7711 -2.8731
  983SOL     vw 3932   1.338   2.930   1.288 -0.1008 -0.5164 -0.2494
  984SOL     ow 3933   4.525   2.262   2.545 -0.2177  0.5447  0.2816
  984SOL     hw 3934   4.608   2.301   2.519  0.2645 -0.1197  0.8213
  984SOL     hw 3935   4.465   2.286   2.475  0.6197  0.3448 -0.5175
  984SOL     vw 3936   4.528   2.271   2.533 -0.0436  0.4307  0.2474
  985SOL     ow 3937   0.788   1.720   1.131 -0.0563  0.0350  0.6901
  985SOL     hw 3938   0.813   1.744   1.042 -0.1500 -0.1051  0.6250
  985SOL     hw 3939   0.718   1.655   1.119 -1.8983  1.8876  0.8453
  985SOL     vw 3940   0.782   1.714   1.118 -0.3117  0.2609  0.7020
  986SOL     ow 3941   4.459   5.482   5.286 -0.1060 -0.5639 -0.0207
  986SOL     hw 3942   4.451   5.549   5.354  0.1488  0.4370 -0.9352
  986SOL     hw 3943   4.378   5.488   5.236  0.9150  0.8564 -1.6347
  986SOL     vw 3944   4.447   5.492   5.289  0.0622 -0.2441 -0.3541
  987SOL     ow 3945   0.108   0.688   6.749  0.3747  0.0102 -0.1731
  987SOL     hw 3946   0.165   0.635   6.692  1.6699 -0.8601  1.8291
  987SOL     hw 3947   0.089   0.766   6.696  3.2523  0.2483 -1.0901
  987SOL     vw 3948   0.113   0.691   6.734  0.9252 -0.0732 -0.0298
  988SOL     ow 3949   3.625   6.903   0.158 -0.1543 -0.0498  0.5236
  988SOL     hw 3950   3.532   6.880   0.153 -0.3322  0.5852  0.8126
  988SOL     hw 3951   3.625   6.995   0.182  0.4725  1.1400 -3.2818
  988SOL     vw 3952   3.613   6.912   0.160 -0.0951  0.1912  0.0597
  989SOL     ow 3953   0.462   5.254   5.124  1.2288 -0.4729  0.0606
  989SOL     hw 3954   0.395   5.205   5.075  0.9119 -0.2048  0.2236
  989SOL     hw 3955   0.412   5.314   5.179  1.5702 -0.9682  0.9328
  989SOL     vw 3956   0.446   5.256   5.124  1.2321 -0.5028  0.1974
  990SOL     ow 3957   4.076   7.095   4.014  0.1822 -0.2052  0.8831
  990SOL     hw 3958   4.090   7.121   4.105  1.3034 -0.4253  0.7888
  990SOL     hw 3959   4.046   7.175   3.971  1.2886  0.3523  1.1059
  990SOL     vw 3960   4.074   7.109   4.020  0.4759 -0.1607  0.9003
  991SOL     ow 3961   5.470   5.505   4.832 -0.1121  0.0599 -0.1943
  991SOL     hw 3962   5.460   5.428   4.888 -0.3376  2.1951  2.9438
  991SOL     hw 3963   5.403   5.495   4.764 -0.9607 -1.8724  0.8613
  991SOL     vw 3964   5.460   5.493   4.830 -0.2539  0.0870  0.3591
  992SOL     ow 3965   5.208   1.927   5.005 -0.5579  0.0848  0.2125
  992SOL     hw 3966   5.244   2.016   5.011 -2.3318  0.9007 -0.4023
  992SOL     hw 3967   5.176   1.921   4.915 -1.5875 -0.7084  0.6113
  992SOL     vw 3968   5.209   1.938   4.994 -0.9277  0.0877  0.1843
  993SOL     ow 3969   2.472   6.787   3.678 -0.0109  0.1669 -0.5404
  993SOL     hw 3970   2.423   6.852   3.627 -0.0791  1.1906  0.7676
  993SOL     hw 3971   2.512   6.837   3.749  1.5689 -0.9290 -0.6024
  993SOL     vw 3972   2.471   6.802   3.681  0.1885  0.1574 -0.3760
  994SOL     ow 3973   3.175   2.274   5.672 -0.5408  0.1503  0.0935
  994SOL     hw 3974   3.165   2.296   5.764 -0.4611  0.8523 -0.0599
  994SOL     hw 3975   3.163   2.357   5.626  0.0069 -0.0806 -0.4865
  994SOL     vw 3976   3.172   2.288   5.678 -0.4581  0.2124 -0.0033
  995SOL     ow 3977   2.396   3.752   3.252  0.4103 -0.6668 -0.6756
  995SOL     hw 3978   2.356   3.835   3.227 -1.9263 -0.5791  2.7442
  995SOL     hw 3979   2.485   3.775   3.280 -0.3160  0.8038  0.5685
  995SOL     vw 3980   2.403   3.766   3.252  0.0061 -0.4612 -0.0603
  996SOL     ow 3981   2.779   1.764   6.753 -0.8084  0.2805  0.2745
  996SOL     hw 3982   2.763   1.707   6.828 -0.9548 -0.5442 -0.3680
  996SOL     hw 3983   2.724   1.841   6.770 -2.9724 -1.0727 -0.2831
  996SOL     vw 3984   2.769   1.767   6.765 -1.1133 -0.0067  0.1161
  997SOL     ow 3985   0.186   1.180   1.672  0.8576 -0.0300  0.0392
  997SOL     hw 3986   0.273   1.218   1.664 -0.5322  3.1355 -1.7301
  997SOL     hw 3987   0.158   1.162   1.583 -0.3032 -1.0614  0.5721
  997SOL     vw 3988   0.194   1.182   1.659  0.5211  0.2516 -0.1239
  998SOL     ow 3989   3.961   6.608   1.115 -0.0629 -0.3884  0.0111
  998SOL     hw 3990   3.880   6.568   1.082  0.3999 -3.1977  1.9051
  998SOL     hw 3991   3.938   6.639   1.203  0.9309 -1.5369  0.7070
  998SOL     vw 3992   3.947   6.607   1.122  0.1293 -0.9108  0.3528
  999SOL     ow 3993   0.915   6.945   0.951 -0.0640 -0.1485  0.6655
  999SOL     hw 3994   0.876   6.905   1.029  0.2541  1.1793  1.5244
  999SOL     hw 3995   0.971   6.875   0.915 -0.3991 -0.8616  1.4755
  999SOL     vw 3996   0.918   6.930   0.957 -0.0662 -0.0672  0.8857
 1000SOL     ow 3997   5.111   6.528   3.076  0.5498  0.8338 -0.2279
 1000SOL     hw 3998   5.189   6.567   3.116  2.0853 -1.5184 -0.6769
 1000SOL     hw 3999   5.039   6.557   3.131  1.7040  3.2070  0.1391
 1000SOL     vw 4000   5.112   6.537   3.089  0.9046  0.8364 -0.2389
 1001SOL     ow 4001   1.032   0.107   0.806  1.2089 -0.5217  0.0262
 1001SOL     hw 4002   1.105   0.118   0.867 -0.3425  2.3194  1.5690
 1001SOL     hw 4003   0.980   0.035   0.843  0.3438  1.0985  2.1176
 1001SOL     vw 4004   1.035   0.099   0.819  0.8900  0.0669  0.5057
 1002SOL     ow 4005   5.169   2.490   6.826 -0.2257  0.2708  0.1069
 1002SOL     hw 4006   5.260   2.469   6.845 -0.6094 -2.6275 -0.6962
 1002SOL     hw 4007   5.171   2.579   6.792  2.6717 -0.4581 -2.0380
 1002SOL     vw 4008   5.181   2.499   6.824  0.1063 -0.2078 -0.2820
 1003SOL     ow 4009   6.046   4.437   4.051 -0.4666  0.6800 -0.4525
 1003SOL     hw 4010   6.136   4.437   4.017 -0.7158  2.6812 -1.2562
 1003SOL     hw 4011   6.036   4.523   4.091 -1.0621 -0.6388  2.4689
 1003SOL     vw 4012   6.057   4.448   4.052 -0.5779  0.7699 -0.1733
 1004SOL     ow 4013   0.880   2.534   2.126 -0.8552 -0.3115 -0.1532
 1004SOL     hw 4014   0.955   2.492   2.169 -0.2388 -0.7289 -1.5972
 1004SOL     hw 4015   0.896   2.628   2.137 -0.2516 -0.4016 -0.2263
 1004SOL     vw 4016   0.892   2.541   2.133 -0.6943 -0.3786 -0.3533
 1005SOL     ow 4017   4.011   4.155   7.018 -0.6323 -0.1401 -1.0035
 1005SOL     hw 4018   3.928   4.162   7.065  0.8551  0.3258  1.7150
 1005SOL     hw 4019   4.055   4.239   7.033  1.7386 -1.5422  0.5440
 1005SOL     vw 4020   4.006   4.167   7.026 -0.1230 -0.2635 -0.4406
 1006SOL     ow 4021   5.295   1.799   4.092  0.2019  0.5367 -0.0951
 1006SOL     hw 4022   5.341   1.799   4.008 -0.7056  1.4150 -0.6152
 1006SOL     hw 4023   5.210   1.839   4.074 -0.4521 -0.2662  1.0256
 1006SOL     vw 4024   5.290   1.805   4.079 -0.0041  0.5466 -0.0160
 1007SOL     ow 4025   1.224   0.025   1.162 -0.1004 -0.6841  0.0282
 1007SOL     hw 4026   1.273   0.083   1.221  0.2175  0.0960 -0.9764
 1007SOL     hw 4027   1.244   0.057   1.075 -3.6109  0.6455 -0.4319
 1007SOL     vw 4028   1.233   0.036   1.159 -0.5217 -0.4058 -0.1650
 1008SOL     ow 4029   6.764   1.443   2.956 -0.4041  0.5027  0.7791
 1008SOL     hw 4030   6.719   1.495   3.023  1.4740  3.1883  0.1437
 1008SOL     hw 4031   6.748   1.490   2.875 -0.4769 -1.2455 -0.2679
 1008SOL     vw 4032   6.756   1.456   2.954 -0.1662  0.6264  0.5572
 1009SOL     ow 4033   6.063   0.047   3.262  0.7158 -0.0067 -0.0357
 1009SOL     hw 4034   6.090  -0.007   3.188  1.7959 -0.4013  0.6321
 1009SOL     hw 4035   6.024  -0.015   3.323 -3.3464  0.6871 -1.5890
 1009SOL     vw 4036   6.061   0.032   3.260  0.3223  0.0328 -0.1526
 1010SOL     ow 4037   0.325   2.348   5.200  0.0850  0.0735  0.6376
 1010SOL     hw 4038   0.367   2.434   5.199  0.3890 -0.0367 -1.7694
 1010SOL     hw 4039   0.244   2.362   5.248  1.0480  1.2011  2.0228
 1010SOL     vw 4040   0.320   2.361   5.206  0.2522  0.2078  0.5028
 1011SOL     ow 4041   2.024   4.263   6.587 -0.2680  0.0482  0.0132
 1011SOL     hw 4042   1.952   4.324   6.603  0.9878  1.8898 -1.0965
 1011SOL     hw 4043   2.080   4.271   6.664 -1.2325 -1.4599  0.9237
 1011SOL     vw 4044   2.022   4.272   6.599 -0.2296  0.0923 -0.0129
 1012SOL     ow 4045   1.972   1.133   2.965 -0.1628 -0.1293 -0.0856
 1012SOL     hw 4046   1.950   1.202   2.903 -0.3443  0.6818  0.8546
 1012SOL     hw 4047   2.022   1.069   2.913 -0.7212  0.2804 -1.1586
 1012SOL     vw 4048   1.976   1.134   2.950 -0.2604  0.0317 -0.1031
 1013SOL     ow 4049   3.406   3.298   6.212  0.0276 -0.5780  0.1391
 1013SOL     hw 4050   3.359   3.218   6.190  0.2323 -1.0012  1.1561
 1013SOL     hw 4051   3.341   3.351   6.258 -0.0806 -0.2009 -0.4482
 1013SOL     vw 4052   3.391   3.294   6.215  0.0403 -0.5841  0.1957
 1014SOL     ow 4053   5.883   0.142   6.265  0.4507  0.0988 -0.4111
 1014SOL     hw 4054   5.951   0.204   6.292 -0.0419  0.4063  0.1747
 1014SOL     hw 4055   5.921   0.095   6.191  0.8605  1.0650 -0.8397
 1014SOL     vw 4056   5.897   0.144   6.259  0.4399  0.2668 -0.3903
 1015SOL     ow 4057   2.521   0.260   5.812  0.3385  0.2513 -0.3577
 1015SOL     hw 4058   2.559   0.174   5.793 -2.6919 -1.4350  0.5346
 1015SOL     hw 4059   2.527   0.269   5.907  0.6966  1.0876 -0.4493
 1015SOL     vw 4060   2.527   0.250   5.822 -0.0139  0.1392 -0.2520
 1016SOL     ow 4061   4.250   4.562   2.616  0.8839  0.1642  0.0192
 1016SOL     hw 4062   4.279   4.652   2.602  0.8275 -0.1081 -2.4082
 1016SOL     hw 4063   4.330   4.513   2.634  0.6555  1.0395  4.3248
 1016SOL     vw 4064   4.264   4.567   2.616  0.8461  0.2437  0.2671
 1017SOL     ow 4065   2.820   0.672   4.424  0.2440 -0.2207 -0.2270
 1017SOL     hw 4066   2.889   0.736   4.438 -1.9739  2.6003 -1.1554
 1017SOL     hw 4067   2.808   0.670   4.329 -2.2717  1.0559 -0.0374
 1017SOL     vw 4068   2.827   0.680   4.413 -0.3806  0.3200 -0.3242
 1018SOL     ow 4069   4.702   1.312   2.601  0.1023  0.1053 -0.4083
 1018SOL     hw 4070   4.789   1.302   2.638 -0.0807  1.3872  0.4471
 1018SOL     hw 4071   4.653   1.236   2.633  0.1944  0.7377  1.3010
 1018SOL     vw 4072   4.707   1.301   2.610  0.0901  0.3579 -0.0700
 1019SOL     ow 4073   6.089   1.509   6.790 -0.1352 -0.4616  0.5928
 1019SOL     hw 4074   6.055   1.430   6.830  0.4478 -1.3834 -0.6412
 1019SOL     hw 4075   6.184   1.501   6.799 -0.0401 -0.2602 -0.1586
 1019SOL     vw 4076   6.097   1.498   6.796 -0.0458 -0.5566  0.3307
 1020SOL     ow 4077   2.493   0.655   0.849 -0.1126 -0.1422 -0.1261
 1020SOL     hw 4078   2.516   0.743   0.818  1.7391 -0.7936 -0.7763
 1020SOL     hw 4079   2.520   0.655   0.941 -1.4138  0.3793  0.2758
 1020SOL     vw 4080   2.500   0.667   0.857 -0.0399 -0.1593 -0.1588
 1021SOL     ow 4081   3.642   6.042   4.708  0.2341  0.6033  0.8621
 1021SOL     hw 4082   3.641   5.948   4.691  0.9278  1.2686 -4.4240
 1021SOL     hw 4083   3.552   6.071   4.691  0.5190  1.1388  0.2085
 1021SOL     vw 4084   3.630   6.034   4.704  0.3633  0.7617  0.0782
 1022SOL     ow 4085   4.175   4.178   6.772 -0.2469  0.1131  0.2446
 1022SOL     hw 4086   4.103   4.174   6.834 -1.6190 -0.2492 -1.3143
 1022SOL     hw 4087   4.218   4.262   6.789  0.5492 -0.7334  2.8382
 1022SOL     vw 4088   4.171   4.188   6.782 -0.3228 -0.0460  0.3812
 1023SOL     ow 4089   2.526   1.532   4.229 -0.2228 -0.3444  0.1840
 1023SOL     hw 4090   2.532   1.451   4.178 -0.5191  0.0200 -0.4345
 1023SOL     hw 4091   2.518   1.502   4.320  0.0966 -1.0020  0.0042
 1023SOL     vw 4092   2.526   1.517   4.235 -0.2198 -0.3831  0.0787
 1024SOL     ow 4093   1.673   6.809   2.499  0.0066  0.3033  0.1634
 1024SOL     hw 4094   1.734   6.750   2.544 -1.1128  0.0301  1.3936
 1024SOL     hw 4095   1.640   6.867   2.568 -2.6190 -0.8491 -0.0031
 1024SOL     vw 4096   1.677   6.809   2.514 -0.4875  0.1149  0.3037
 1025SOL     ow 4097   0.545   2.086   2.419  0.0497  0.1305  0.3679
 1025SOL     hw 4098   0.637   2.062   2.410 -0.1370 -0.0401 -1.4222
 1025SOL     hw 4099   0.546   2.179   2.440  0.6401 -0.1259  1.5457
 1025SOL     vw 4100   0.557   2.095   2.420  0.1030  0.0741  0.2871
 1026SOL     ow 4101   6.164   6.295   5.132 -0.1852  0.2066 -0.3312
 1026SOL     hw 4102   6.218   6.329   5.203  1.7116  1.0895 -2.0971
 1026SOL     hw 4103   6.208   6.214   5.105  0.4181  0.9970 -1.8647
 1026SOL     vw 4104   6.177   6.289   5.138  0.1445  0.4275 -0.7665
 1027SOL     ow 4105   4.778   1.598   2.606 -0.1146  0.8671 -0.2970
 1027SOL     hw 4106   4.864   1.573   2.639 -0.6451  1.0060  1.2964
 1027SOL     hw 4107   4.770   1.691   2.628 -2.0403  0.0675  2.9160
 1027SOL     vw 4108   4.788   1.607   2.613 -0.4385  0.7799  0.3371
 1028SOL     ow 4109   0.750   4.765   6.259 -0.1403  0.3641  0.2546
 1028SOL     hw 4110   0.664   4.741   6.224  0.1954  1.2362 -1.2827
 1028SOL     hw 4111   0.812   4.726   6.198  0.5540  0.2246  1.0359
 1028SOL     vw 4112   0.747   4.757   6.246 -0.0044  0.4606  0.1547
 1029SOL     ow 4113   5.061   0.109   3.691 -0.0167 -0.3432 -0.1088
 1029SOL     hw 4114   4.995   0.134   3.756  0.5971  0.3194  0.2629
 1029SOL     hw 4115   5.134   0.074   3.742  0.7909  0.9010 -0.3575
 1029SOL     vw 4116   5.062   0.108   3.706  0.1709 -0.0916 -0.0925
 1030SOL     ow 4117   5.186   1.762   3.707  0.0251 -0.0925  0.2200
 1030SOL     hw 4118   5.271   1.739   3.744  0.1644 -0.8062 -0.5328
 1030SOL     hw 4119   5.188   1.728   3.618 -0.9857  0.0372  0.1355
 1030SOL     vw 4120   5.197   1.755   3.700 -0.0896 -0.1695  0.1096
 1031SOL     ow 4121   1.661   6.254   3.833  0.0701  0.1377  0.0400
 1031SOL     hw 4122   1.686   6.306   3.756 -0.0912  2.2308  1.3380
 1031SOL     hw 4123   1.570   6.278   3.849  0.0381 -0.4534  0.7812
 1031SOL     vw 4124   1.652   6.264   3.825  0.0446  0.3359  0.3091
 1032SOL     ow 4125   1.281   2.654   3.681  0.0528  0.0864 -0.1327
 1032SOL     hw 4126   1.326   2.694   3.755  0.2511 -1.2733  0.5032
 1032SOL     hw 4127   1.311   2.564   3.679 -0.9482 -0.2578 -1.0762
 1032SOL     vw 4128   1.291   2.648   3.690 -0.0531 -0.1385 -0.1733
 1033SOL     ow 4129   1.098   6.740   0.932 -0.3951 -0.0550 -0.1248
 1033SOL     hw 4130   1.160   6.759   0.862  0.7216 -2.4078  0.1144
 1033SOL     hw 4131   1.136   6.781   1.009  0.5246 -0.8404 -0.1360
 1033SOL     vw 4132   1.111   6.748   0.933 -0.1265 -0.4690 -0.0947
 1034SOL     ow 4133   4.401   1.578   1.225 -0.2802  0.3123  0.0067
 1034SOL     hw 4134   4.471   1.584   1.291 -0.6893  0.4679  0.4348
 1034SOL     hw 4135   4.415   1.654   1.169  2.2408 -1.6644 -2.2958
 1034SOL     vw 4136   4.412   1.589   1.227 -0.0017  0.0721 -0.2406
 1035SOL     ow 4137   3.845   3.661   0.416  0.0082  0.1489 -0.1503
 1035SOL     hw 4138   3.779   3.594   0.434 -0.7814  0.8867 -0.2250
 1035SOL     hw 4139   3.808   3.741   0.454  0.3608  0.8009 -1.1487
 1035SOL     vw 4140   3.831   3.663   0.423 -0.0494  0.3324 -0.2919
 1036SOL     ow 4141   2.042   2.825   6.576 -0.1475  0.5002  0.0943
 1036SOL     hw 4142   1.964   2.813   6.630 -1.0102 -1.4286 -1.4592
 1036SOL     hw 4143   2.113   2.839   6.638 -1.6125  1.7812  1.5722
 1036SOL     vw 4144   2.041   2.826   6.591 -0.4545  0.4147  0.0846
 1037SOL     ow 4145   6.609   1.987   4.626 -0.1443 -0.5180 -0.4018
 1037SOL     hw 4146   6.587   1.913   4.569  0.2456 -2.1474  1.4596
 1037SOL     hw 4147   6.684   1.956   4.678 -0.4038  0.9237  0.9007
 1037SOL     vw 4148   6.616   1.973   4.625 -0.1268 -0.5428  0.0155
 1038SOL     ow 4149   4.928   6.175   4.741  0.5218 -0.1808 -1.2419
 1038SOL     hw 4150   5.007   6.125   4.758 -0.2972 -1.3771 -0.8789
 1038SOL     hw 4151   4.858   6.110   4.737 -0.7343  0.9831  0.2506
 1038SOL     vw 4152   4.929   6.160   4.743  0.2480 -0.1850 -0.9968
 1039SOL     ow 4153   0.228   6.756   4.001  0.0977 -0.1016  0.5818
 1039SOL     hw 4154   0.177   6.753   3.921  0.4413 -0.3734  0.3669
 1039SOL     hw 4155   0.165   6.777   4.070 -0.6188 -1.9512  0.5617
 1039SOL     vw 4156   0.213   6.758   4.000  0.0485 -0.3812  0.5509
 1040SOL     ow 4157   2.039   5.433   4.468 -0.5435  0.0844  0.0201
 1040SOL     hw 4158   2.012   5.419   4.558 -2.3339  0.3719 -0.4358
 1040SOL     hw 4159   2.052   5.527   4.461 -1.5363  0.2152 -0.2846
 1040SOL     vw 4160   2.037   5.443   4.479 -0.9108  0.1395 -0.0803
 1041SOL     ow 4161   2.925   2.098   6.843  0.6057  0.2376  0.0064
 1041SOL     hw 4162   2.839   2.139   6.847  0.4893 -0.0957  1.1796
 1041SOL     hw 4163   2.945   2.093   6.749 -0.0127  1.6178 -0.2152
 1041SOL     vw 4164   2.916   2.103   6.831  0.5088  0.3757  0.1321
 1042SOL     ow 4165   6.714   1.371   4.563  0.3753  0.2130 -0.6020
 1042SOL     hw 4166   6.658   1.294   4.560  0.5264  0.0444 -4.7774
 1042SOL     hw 4167   6.653   1.444   4.578 -0.3503 -0.3561 -0.7417
 1042SOL     vw 4168   6.698   1.371   4.565  0.2995  0.1156 -1.1714
 1043SOL     ow 4169   2.593   0.598   7.095 -0.0709 -0.1897  0.6404
 1043SOL     hw 4170   2.555   0.514   7.120  0.2517  0.1954  2.5530
 1043SOL     hw 4171   2.605   0.645   7.177  1.8134  0.8755 -0.1779
 1043SOL     vw 4172   2.589   0.593   7.109  0.2202  0.0016  0.7846
 1044SOL     ow 4173   3.622   3.464   5.175 -0.8432  0.4909  0.0871
 1044SOL     hw 4174   3.636   3.427   5.262 -1.7349  0.3870  0.1881
 1044SOL     hw 4175   3.584   3.550   5.191  1.0977  1.4679 -0.1471
 1044SOL     vw 4176   3.619   3.470   5.188 -0.7048  0.6062  0.0694
 1045SOL     ow 4177   4.063   5.366   4.901 -0.2499 -0.7961 -1.0327
 1045SOL     hw 4178   3.986   5.419   4.880 -0.0398 -0.3902 -0.8108
 1045SOL     hw 4179   4.102   5.346   4.816  1.0480  1.5143 -1.0709
 1045SOL     vw 4180   4.058   5.371   4.887 -0.0513 -0.4377 -1.0083
 1046SOL     ow 4181   2.218   0.870   6.070 -0.1169  0.9069 -0.0039
 1046SOL     hw 4182   2.211   0.873   6.165 -1.1166  1.5089 -0.0916
 1046SOL     hw 4183   2.159   0.799   6.044  1.7740 -0.7561 -0.0511
 1046SOL     vw 4184   2.209   0.861   6.079  0.0007  0.7669 -0.0219
 1047SOL     ow 4185   3.692   0.727   2.941 -0.6291  0.0926 -0.7030
 1047SOL     hw 4186   3.697   0.821   2.924 -0.4494  0.1605 -0.2965
 1047SOL     hw 4187   3.780   0.694   2.925 -1.0156 -0.2641 -2.2444
 1047SOL     vw 4188   3.704   0.735   2.937 -0.6565  0.0545 -0.8527
 1048SOL     ow 4189   0.363   1.066   4.528  0.1132  0.1690  0.7186
 1048SOL     hw 4190   0.359   0.990   4.469 -4.3536 -0.1885  1.1938
 1048SOL     hw 4191   0.396   1.030   4.610 -2.0862 -1.4466  0.9878
 1048SOL     vw 4192   0.367   1.051   4.531 -0.7664 -0.0913  0.8168
 1049SOL     ow 4193   5.964   0.048   1.169 -0.0774 -0.0820 -0.2029
 1049SOL     hw 4194   6.027   0.056   1.240  1.5320 -1.4220 -1.3871
 1049SOL     hw 4195   5.917  -0.033   1.187 -0.4061  0.1303 -0.1063
 1049SOL     vw 4196   5.967   0.038   1.180  0.0916 -0.2308 -0.3464
 1050SOL     ow 4197   2.647   0.816   6.851 -0.2043 -0.1334  0.3335
 1050SOL     hw 4198   2.603   0.825   6.767  0.6676 -0.8455 -0.2265
 1050SOL     hw 4199   2.643   0.903   6.890 -4.3957 -0.6630  1.5405
 1050SOL     vw 4200   2.641   0.829   6.845 -0.6423 -0.2972  0.4189
 1051SOL     ow 4201   0.737   4.314   2.062 -0.4212 -0.5683 -0.2674
 1051SOL     hw 4202   0.826   4.278   2.055  0.2354  0.9016  0.1217
 1051SOL     hw 4203   0.735   4.359   2.146 -1.5548 -0.6033 -0.2591
 1051SOL     vw 4204   0.749   4.315   2.072 -0.4841 -0.3791 -0.2151
 1052SOL     ow 4205   0.391   6.684   3.778  0.4957  0.1313  0.2908
 1052SOL     hw 4206   0.331   6.649   3.712 -0.8603  1.8550  0.5309
 1052SOL     hw 4207   0.472   6.636   3.764 -0.5126 -1.3016 -0.9774
 1052SOL     vw 4208   0.394   6.673   3.767  0.1837  0.1698  0.1552
 1053SOL     ow 4209   6.894   2.199   6.469 -0.4900  0.6417 -0.0454
 1053SOL     hw 4210   6.972   2.195   6.413 -0.0498 -2.0997  0.6020
 1053SOL     hw 4211   6.832   2.139   6.426 -1.3338  0.9682  0.7077
 1053SOL     vw 4212   6.897   2.190   6.456 -0.5434  0.3232  0.1395
 1054SOL     ow 4213   1.322   4.834   1.913 -0.0087  0.2901  0.3860
 1054SOL     hw 4214   1.324   4.915   1.963 -2.5401  0.4037  0.4174
 1054SOL     hw 4215   1.245   4.842   1.857 -1.0461 -2.5536  1.2518
 1054SOL     vw 4216   1.312   4.846   1.912 -0.4796 -0.0701  0.5043
 1055SOL     ow 4217   3.382   5.333   2.893  1.0779  0.8694  0.0560
 1055SOL     hw 4218   3.400   5.315   2.800  2.2913 -1.9642  0.7286
 1055SOL     hw 4219   3.351   5.423   2.894 -0.5689  0.5139 -3.3044
 1055SOL     vw 4220   3.381   5.343   2.881  1.0206  0.4487 -0.2986
 1056SOL     ow 4221   3.765   1.903   5.727  0.0957  0.2275  0.6771
 1056SOL     hw 4222   3.831   1.894   5.796  0.1011  0.6852  0.7364
 1056SOL     hw 4223   3.681   1.898   5.773  0.0961  1.7577  0.9049
 1056SOL     vw 4224   3.763   1.901   5.742  0.0964  0.4898  0.7145
 1057SOL     ow 4225   5.217   1.721   5.225  0.0544 -0.5310  0.0323
 1057SOL     hw 4226   5.231   1.633   5.262  0.5336 -1.5290 -2.3364
 1057SOL     hw 4227   5.123   1.736   5.236 -0.0092 -1.2690  0.6245
 1057SOL     vw 4228   5.207   1.711   5.231  0.1097 -0.7601 -0.2022
 1058SOL     ow 4229   5.649   7.059   6.264 -0.0964  0.2937 -0.5797
 1058SOL     hw 4230   5.659   7.020   6.176 -0.4054 -0.2252 -0.3888
 1058SOL     hw 4231   5.680   6.990   6.323  1.3538  1.1103 -0.3324
 1058SOL     vw 4232   5.655   7.044   6.260  0.0541  0.3328 -0.5221
 1059SOL     ow 4233   6.716   7.050   1.693 -0.0137  0.0695  0.1731
 1059SOL     hw 4234   6.662   7.023   1.618  0.8335  1.7913 -1.1590
 1059SOL     hw 4235   6.653   7.068   1.763 -0.9795 -0.0355 -0.6422
 1059SOL     vw 4236   6.700   7.049   1.692 -0.0291  0.2828 -0.1103
 1060SOL     ow 4237   4.389   5.781   2.276  0.0079 -0.4686 -0.1256
 1060SOL     hw 4238   4.336   5.813   2.203 -0.3132  3.8622  1.7093
 1060SOL     hw 4239   4.475   5.821   2.263  0.3862 -0.8440  1.1084
 1060SOL     vw 4240   4.393   5.790   2.265  0.0153  0.0529  0.2793
 1061SOL     ow 4241   3.847   0.072   0.035 -0.0701  0.1217  0.2822
 1061SOL     hw 4242   3.817   0.029  -0.044 -1.2900  0.8187  0.3494
 1061SOL     hw 4243   3.937   0.098   0.015 -0.4001  0.3998 -0.9135
 1061SOL     vw 4244   3.855   0.070   0.022 -0.2745  0.2504  0.1333
 1062SOL     ow 4245   2.186   5.143   4.515  0.1934 -0.1334  0.1364
 1062SOL     hw 4246   2.265   5.123   4.565 -0.4423  0.0062  1.2163
 1062SOL     hw 4247   2.141   5.059   4.508 -0.2475  0.0485  0.7407
 1062SOL     vw 4248   2.191   5.129   4.520  0.0513 -0.0908  0.3583
 1063SOL     ow 4249   3.869   6.904   2.941 -0.0285 -0.2284 -0.7022
 1063SOL     hw 4250   3.906   6.993   2.939  0.2934 -0.3403  0.0403
 1063SOL     hw 4251   3.790   6.910   2.887 -2.1323  1.4782  2.3019
 1063SOL     vw 4252   3.864   6.917   2.933 -0.2636 -0.0179 -0.2078
 1064SOL     ow 4253   1.691   6.571   0.286  0.1194 -0.5136 -0.1221
 1064SOL     hw 4254   1.614   6.601   0.239  1.4826  1.7468 -1.1273
 1064SOL     hw 4255   1.763   6.582   0.224  1.2776 -2.6880  0.7117
 1064SOL     vw 4256   1.691   6.576   0.272  0.4520 -0.5023 -0.1447
 1065SOL     ow 4257   0.816   1.999   4.595  0.1600  0.1955  0.6140
 1065SOL     hw 4258   0.779   1.984   4.508  1.7265 -0.1184 -0.0352
 1065SOL     hw 4259   0.783   1.927   4.649 -1.0056  0.5240  0.3519
 1065SOL     vw 4260   0.807   1.987   4.591  0.2129  0.1974  0.4938
 1066SOL     ow 4261   0.932   3.014   6.863 -0.4910 -0.1555 -0.0295
 1066SOL     hw 4262   0.947   2.992   6.955 -2.6403 -0.5017  0.2691
 1066SOL     hw 4263   0.951   3.108   6.858 -3.8820  0.7686  1.6791
 1066SOL     vw 4264   0.937   3.023   6.875 -1.2220 -0.0792  0.2351
 1067SOL     ow 4265   4.082   1.320   5.086 -0.3485 -0.4039  0.2723
 1067SOL     hw 4266   4.172   1.307   5.056  0.2251 -0.3798  1.8780
 1067SOL     hw 4267   4.079   1.412   5.113 -0.8175 -0.4365  0.3321
 1067SOL     vw 4268   4.094   1.331   5.085 -0.3347 -0.4050  0.4919
 1068SOL     ow 4269   1.917   5.749   1.258  0.3546 -0.4452  0.4844
 1068SOL     hw 4270   1.926   5.841   1.283  1.8735 -0.5340  0.3214
 1068SOL     hw 4271   1.894   5.752   1.165 -2.6839 -0.1918  1.1328
 1068SOL     vw 4272   1.915   5.761   1.249  0.1541 -0.4234  0.5484
 1069SOL     ow 4273   6.966   3.052   1.219  0.1310  0.1054 -0.7486
 1069SOL     hw 4274   6.963   3.084   1.309 -1.7726  1.6169 -1.2998
 1069SOL     hw 4275   6.886   3.000   1.210 -0.0554  0.5638 -1.7842
 1069SOL     vw 4276   6.955   3.049   1.230 -0.1447  0.3654 -0.9579
 1070SOL     ow 4277   6.022   4.000   4.780 -0.7365  0.8440 -0.0779
 1070SOL     hw 4278   5.954   4.040   4.835 -0.5277  1.8355 -0.5133
 1070SOL     hw 4279   6.080   4.073   4.758  0.1649  0.1193 -0.1679
 1070SOL     vw 4280   6.021   4.015   4.785 -0.5896  0.8793 -0.1469
 1071SOL     ow 4281   2.168   5.103   6.119  0.1280 -0.3391 -0.0971
 1071SOL     hw 4282   2.114   5.145   6.052 -1.4546 -1.2341  0.5534
 1071SOL     hw 4283   2.111   5.097   6.196  1.5938 -0.1805  1.0495
 1071SOL     vw 4284   2.153   5.108   6.121  0.1127 -0.4361  0.1400
 1072SOL     ow 4285   4.093   6.087   2.915 -0.0349  0.5585 -0.1112
 1072SOL     hw 4286   4.173   6.037   2.897  1.0865  0.9243  3.1991
 1072SOL     hw 4287   4.119   6.178   2.906 -0.7954  0.6658 -1.4296
 1072SOL     vw 4288   4.107   6.092   2.912  0.0124  0.6208  0.1516
 1073SOL     ow 4289   5.502   4.268   6.593 -0.4348 -0.4501  0.3724
 1073SOL     hw 4290   5.524   4.186   6.639  0.1561 -1.6952 -1.9353
 1073SOL     hw 4291   5.430   4.244   6.535  0.1896  0.4576 -0.8242
 1073SOL     vw 4292   5.496   4.254   6.591 -0.2747 -0.4947 -0.0901
 1074SOL     ow 4293   5.480   1.933   5.149  0.5402 -0.1573  0.0447
 1074SOL     hw 4294   5.524   1.961   5.069  0.1345  0.1681 -0.0658
 1074SOL     hw 4295   5.469   2.013   5.200 -1.1915  0.0163 -0.5447
 1074SOL     vw 4296   5.485   1.947   5.145  0.2580 -0.0915 -0.0474
 1075SOL     ow 4297   6.371   3.959   6.694  0.0021 -0.2046 -1.0273
 1075SOL     hw 4298   6.443   3.998   6.645  0.8617 -0.4037  0.0403
 1075SOL     hw 4299   6.327   4.033   6.736 -0.0138 -0.1408 -1.1575
 1075SOL     vw 4300   6.375   3.974   6.693  0.1135 -0.2224 -0.9038
 1076SOL     ow 4301   6.744   2.441   6.397 -0.1306  0.2257 -0.4682
 1076SOL     hw 4302   6.825   2.390   6.390  0.0828  0.6666 -1.3119
 1076SOL     hw 4303   6.679   2.378   6.430  0.1691 -0.5680 -1.3370
 1076SOL     vw 4304   6.746   2.426   6.400 -0.0629  0.1792 -0.6943
 1077SOL     ow 4305   0.661   6.829   6.878 -0.1293  0.4825 -0.8172
 1077SOL     hw 4306   0.699   6.915   6.863  0.2198  0.6659  0.9335
 1077SOL     hw 4307   0.566   6.845   6.880 -0.0851  0.7626 -0.8786
 1077SOL     vw 4308   0.653   6.842   6.876 -0.0774  0.5438 -0.5941
 1078SOL     ow 4309   5.910   0.660   3.939 -0.0072  0.6673 -0.5181
 1078SOL     hw 4310   5.996   0.702   3.945  0.3122 -0.0931  0.4048
 1078SOL     hw 4311   5.929   0.569   3.916 -0.4294  0.0307  1.4941
 1078SOL     vw 4312   5.924   0.654   3.936 -0.0210  0.4830 -0.1308
 1079SOL     ow 4313   2.120   1.618   2.021  0.1814  0.2593  0.4913
 1079SOL     hw 4314   2.173   1.679   1.969 -1.9733 -0.3721 -2.7409
 1079SOL     hw 4315   2.050   1.672   2.058  0.6013  0.3885  1.1059
 1079SOL     vw 4316   2.118   1.633   2.019 -0.0474  0.1931  0.1459
 1080SOL     ow 4317   3.892   2.542   4.132  0.6641  0.1647 -0.1910
 1080SOL     hw 4318   3.872   2.478   4.063 -1.1776  0.1233  0.3089
 1080SOL     hw 4319   3.947   2.607   4.090 -1.3654  0.7764 -2.1100
 1080SOL     vw 4320   3.896   2.542   4.117  0.1535  0.2400 -0.3781
 1081SOL     ow 4321   5.987   0.289   4.397 -0.5484  0.0478 -0.7004
 1081SOL     hw 4322   5.999   0.384   4.405 -1.2653  0.0632  0.4202
 1081SOL     hw 4323   6.011   0.255   4.482  1.0092 -0.9562 -1.5005
 1081SOL     vw 4324   5.992   0.297   4.409 -0.4375 -0.0827 -0.6580
 1082SOL     ow 4325   2.064   5.954   1.965  0.2015 -0.2937  0.2534
 1082SOL     hw 4326   2.150   5.938   1.926  0.2496  0.3960  0.0699
 1082SOL     hw 4327   2.054   5.884   2.030  1.2268  0.0767  0.8331
 1082SOL     vw 4328   2.074   5.943   1.968  0.3431 -0.1538  0.3057
 1083SOL     ow 4329   1.972   5.469   4.716  0.1472 -0.0520 -0.5892
 1083SOL     hw 4330   1.980   5.409   4.791  0.6968 -1.1013 -1.4573
 1083SOL     hw 4331   2.025   5.545   4.740 -1.4700  0.6416  1.0215
 1083SOL     vw 4332   1.980   5.471   4.729  0.0063 -0.0992 -0.4914
 1084SOL     ow 4333   6.596   3.790   6.924 -0.5168 -0.3936  0.8342
 1084SOL     hw 4334   6.635   3.714   6.880  0.1315 -0.7658  1.9976
 1084SOL     hw 4335   6.665   3.856   6.922 -1.3270  0.4591 -0.8121
 1084SOL     vw 4336   6.610   3.788   6.918 -0.5379 -0.3301  0.7706
 1085SOL     ow 4337   1.694   5.380   5.890 -0.7904  0.0278 -0.0611
 1085SOL     hw 4338   1.693   5.476   5.888 -0.0104  0.0840  1.3070
 1085SOL     hw 4339   1.674   5.357   5.980 -0.3704 -1.0861 -0.2325
 1085SOL     vw 4340   1.691   5.390   5.901 -0.6321 -0.1116  0.0966
 1086SOL     ow 4341   7.083   3.747   5.118 -0.5137  0.0189  0.1792
 1086SOL     hw 4342   7.113   3.829   5.079 -0.1391  0.6230  1.6420
 1086SOL     hw 4343   7.160   3.690   5.115  0.5171  1.0928  2.6538
 1086SOL     vw 4344   7.097   3.751   5.113 -0.3283  0.2402  0.6990
 1087SOL     ow 4345   2.806   0.049   0.884  0.1911 -0.6224 -0.6136
 1087SOL     hw 4346   2.776   0.079   0.798 -0.8337  0.3050  0.0490
 1087SOL     hw 4347   2.874   0.112   0.909 -1.1697  0.5672  0.2733
 1087SOL     vw 4348   2.811   0.061   0.876 -0.1236 -0.3431 -0.4092
 1088SOL     ow 4349   1.802   4.304   4.984  0.1727  0.1577 -0.8590
 1088SOL     hw 4350   1.712   4.323   4.958  0.1365  3.6158  1.1858
 1088SOL     hw 4351   1.808   4.336   5.074  2.4594 -3.5985  0.5602
 1088SOL     vw 4352   1.791   4.311   4.992  0.4696  0.1187 -0.4020
 1089SOL     ow 4353   0.428   2.113   2.671  0.3416 -0.0596 -0.6060
 1089SOL     hw 4354   0.336   2.129   2.692 -0.8037 -3.3054 -2.5070
 1089SOL     hw 4355   0.463   2.200   2.652 -2.4048  1.2576 -0.1437
 1089SOL     vw 4356   0.420   2.127   2.671 -0.1719 -0.3140 -0.7958
 1090SOL     ow 4357   5.493   0.226   1.569  0.5002  0.4041 -0.2388
 1090SOL     hw 4358   5.402   0.250   1.586  0.1078 -0.5368 -0.9574
 1090SOL     hw 4359   5.544   0.301   1.600 -0.4900  0.7731  0.5238
 1090SOL     vw 4360   5.488   0.239   1.575  0.3178  0.3287 -0.2330
 1091SOL     ow 4361   5.398   3.385   0.362 -0.2526 -0.1732  0.1332
 1091SOL     hw 4362   5.491   3.409   0.354 -0.0908 -1.2830 -1.9348
 1091SOL     hw 4363   5.399   3.303   0.411 -0.0217 -0.7779 -0.8603
 1091SOL     vw 4364   5.411   3.378   0.367 -0.2005 -0.3994 -0.2707
 1092SOL     ow 4365   6.677   2.920   3.360 -0.3608 -0.4338  0.2399
 1092SOL     hw 4366   6.762   2.910   3.403  0.8713  2.7841 -1.1457
 1092SOL     hw 4367   6.687   2.997   3.305 -3.2578 -1.7117 -2.3869
 1092SOL     vw 4368   6.689   2.929   3.358 -0.5803 -0.1781 -0.2894
 1093SOL     ow 4369   6.235   5.591   2.497  0.4448 -0.1100  0.4141
 1093SOL     hw 4370   6.164   5.562   2.440 -0.0694 -2.0431  1.9372
 1093SOL     hw 4371   6.294   5.515   2.502  0.1011 -0.3040  2.9504
 1093SOL     vw 4372   6.234   5.577   2.490  0.3316 -0.3903  0.9496
 1094SOL     ow 4373   7.041   1.417   3.095 -0.4077  0.3535 -0.4712
 1094SOL     hw 4374   7.056   1.346   3.157 -1.2750  0.5294 -0.0509
 1094SOL     hw 4375   7.117   1.475   3.107 -1.2855  1.1836  1.5645
 1094SOL     vw 4376   7.053   1.416   3.105 -0.6382  0.4863 -0.1472
 1095SOL     ow 4377   1.005   1.892   6.327  0.5101 -0.4316 -0.1601
 1095SOL     hw 4378   0.944   1.894   6.401  0.4929  0.8608 -0.1842
 1095SOL     hw 4379   0.950   1.872   6.251 -0.3584  2.7602 -0.5270
 1095SOL     vw 4380   0.990   1.890   6.326  0.3932  0.1600 -0.2115
 1096SOL     ow 4381   1.858   0.252   2.026  0.2337 -0.2398  0.3334
 1096SOL     hw 4382   1.794   0.219   1.963  0.0176 -0.1024  0.4816
 1096SOL     hw 4383   1.935   0.197   2.013  0.3061 -0.0017 -0.2876
 1096SOL     vw 4384   1.860   0.241   2.016  0.2148 -0.1903  0.2711
 1097SOL     ow 4385   0.405   2.971   2.059  0.4349  0.1730  0.3758
 1097SOL     hw 4386   0.418   3.010   1.973  1.3603 -2.4061 -0.7663
 1097SOL     hw 4387   0.489   2.984   2.104  0.8529 -0.6362 -0.1221
 1097SOL     vw 4388   0.418   2.978   2.054  0.6121 -0.2741  0.1594
 1098SOL     ow 4389   1.784   6.521   4.600  0.6933  0.2208 -0.3908
 1098SOL     hw 4390   1.698   6.480   4.599  0.3324  0.8553  1.3578
 1098SOL     hw 4391   1.771   6.606   4.558  0.5558  0.1623 -0.4665
 1098SOL     vw 4392   1.771   6.527   4.595  0.6276  0.2966 -0.1700
 1099SOL     ow 4393   1.101   3.756   4.662  0.0349 -0.0610  0.3360
 1099SOL     hw 4394   1.116   3.830   4.604  1.2686  0.4658  1.2870
 1099SOL     hw 4395   1.032   3.786   4.721  0.3904  0.2644  0.5913
 1099SOL     vw 4396   1.094   3.770   4.662  0.2445  0.0515  0.4950
 1100SOL     ow 4397   2.326   1.712   2.194 -0.2675 -0.1227 -0.2172
 1100SOL     hw 4398   2.329   1.806   2.209 -1.6675  0.0041 -0.6442
 1100SOL     hw 4399   2.233   1.690   2.191  0.0289 -1.4982 -0.2740
 1100SOL     vw 4400   2.314   1.722   2.196 -0.4131 -0.2875 -0.2811
 1101SOL     ow 4401   3.323   4.055   1.939 -0.7663 -0.8295 -0.1511
 1101SOL     hw 4402   3.299   4.135   1.892  0.1333 -0.5073 -0.0743
 1101SOL     hw 4403   3.419   4.051   1.932 -0.8851 -2.7923 -1.6338
 1101SOL     vw 4404   3.333   4.065   1.932 -0.6633 -1.0459 -0.3366
 1102SOL     ow 4405   0.490   2.789   3.825 -0.4534  0.3948  0.0085
 1102SOL     hw 4406   0.443   2.872   3.834 -0.2467  0.4469  0.6366
 1102SOL     hw 4407   0.470   2.760   3.736 -2.3811 -0.0000  0.5173
 1102SOL     vw 4408   0.481   2.796   3.814 -0.6804  0.3495  0.1585
 1103SOL     ow 4409   5.005   2.111   3.590  0.1177 -0.0914  0.6177
 1103SOL     hw 4410   5.055   2.158   3.656  0.1487 -0.7108  1.0475
 1103SOL     hw 4411   4.927   2.164   3.575 -0.4376 -0.4793  1.9679
 1103SOL     vw 4412   5.001   2.124   3.597  0.0486 -0.2242  0.8526
 1104SOL     ow 4413   1.716   1.178   4.234 -0.1695  0.1355  0.1058
 1104SOL     hw 4414   1.802   1.220   4.228  0.0305  0.1374  2.2150
 1104SOL     hw 4415   1.666   1.215   4.162  1.4248  0.5483 -0.8257
 1104SOL     vw 4416   1.721   1.189   4.224  0.0672  0.1902  0.2611
 1105SOL     ow 4417   0.824   6.273   0.475 -0.4917 -0.4432  0.3681
 1105SOL     hw 4418   0.872   6.237   0.401  1.5664 -0.3459  1.5811
 1105SOL     hw 4419   0.778   6.198   0.513  3.3532 -1.9749  2.5843
 1105SOL     vw 4420   0.825   6.259   0.470  0.2871 -0.6325  0.8206
 1106SOL     ow 4421   4.239   5.529   5.114 -0.0590 -0.2044  0.5003
 1106SOL     hw 4422   4.163   5.488   5.073  0.5885 -0.8260 -0.0929
 1106SOL     hw 4423   4.272   5.591   5.049 -0.7401  0.9364  1.2055
 1106SOL     vw 4424   4.233   5.532   5.100 -0.0634 -0.1357  0.5150
 1107SOL     ow 4425   6.557   1.949   4.259 -0.2436 -0.2691  0.1155
 1107SOL     hw 4426   6.505   1.959   4.179  1.5991 -0.9599 -1.2519
 1107SOL     hw 4427   6.516   1.876   4.305 -0.5346 -0.7813 -0.9132
 1107SOL     vw 4428   6.545   1.941   4.255 -0.0389 -0.4278 -0.2003
 1108SOL     ow 4429   5.795   5.462   3.764  0.5746 -0.1469 -0.1546
 1108SOL     hw 4430   5.770   5.476   3.673  1.4880  3.3391 -0.0270
 1108SOL     hw 4431   5.711   5.453   3.811 -0.0460  0.8480 -1.0251
 1108SOL     vw 4432   5.781   5.463   3.758  0.6132  0.4442 -0.2525
 1109SOL     ow 4433   5.494   0.760   2.745 -0.0093 -0.7723 -0.3036
 1109SOL     hw 4434   5.472   0.795   2.658 -1.4908  0.3193  0.4713
 1109SOL     hw 4435   5.482   0.834   2.804 -0.2742 -1.8255  0.9968
 1109SOL     vw 4436   5.489   0.774   2.741 -0.2396 -0.7672 -0.0299
 1110SOL     ow 4437   4.740   6.198   6.862  0.6396  0.3520 -0.4406
 1110SOL     hw 4438   4.715   6.241   6.944 -1.3447  0.0072 -0.8136
 1110SOL     hw 4439   4.664   6.208   6.805  1.6276 -0.2268 -1.9275
 1110SOL     vw 4440   4.727   6.205   6.865  0.5081  0.2303 -0.6864
 1111SOL     ow 4441   4.865   6.127   5.853 -0.1767  0.5381  0.1036
 1111SOL     hw 4442   4.823   6.135   5.768 -0.2601  0.4178  0.1347
 1111SOL     hw 4443   4.835   6.044   5.888 -0.5351  0.8123  0.4654
 1111SOL     vw 4444   4.856   6.117   5.846 -0.2346  0.5584  0.1554
 1112SOL     ow 4445   6.354   5.801   2.708 -0.3004  0.0589 -0.1575
 1112SOL     hw 4446   6.392   5.881   2.744  0.6863 -0.4906  0.0530
 1112SOL     hw 4447   6.393   5.730   2.759 -2.7257 -0.4939  1.1007
 1112SOL     vw 4448   6.364   5.802   2.719 -0.4902 -0.0865  0.0364
 1113SOL     ow 4449   2.706   6.582   3.602 -0.1835  0.4398  0.6187
 1113SOL     hw 4450   2.705   6.499   3.554  0.1943  0.4831  0.5345
 1113SOL     hw 4451   2.775   6.571   3.667  1.3692  1.4617 -0.7743
 1113SOL     vw 4452   2.715   6.569   3.604  0.0713  0.5803  0.4237
 1114SOL     ow 4453   3.822   0.520   2.180 -0.1256  0.4914 -0.4895
 1114SOL     hw 4454   3.839   0.555   2.267  2.7434 -0.6078 -0.5079
 1114SOL     hw 4455   3.807   0.426   2.194 -0.2077  0.4003 -1.1458
 1114SOL     vw 4456   3.822   0.512   2.193  0.2422  0.3344 -0.5785
 1115SOL     ow 4457   3.398   2.647   0.476  0.4153 -0.1206 -0.4336
 1115SOL     hw 4458   3.445   2.714   0.525  0.5125 -0.7646  0.3775
 1115SOL     hw 4459   3.457   2.572   0.475 -0.8694 -1.2287  1.3130
 1115SOL     vw 4460   3.412   2.646   0.482  0.2586 -0.3518 -0.0961
 1116SOL     ow 4461   6.918   4.235   2.781  0.1998 -0.3110 -0.6540
 1116SOL     hw 4462   7.010   4.263   2.775 -0.4324  2.9582  1.9193
 1116SOL     hw 4463   6.873   4.288   2.716 -0.1438 -0.0600 -0.2195
 1116SOL     vw 4464   6.924   4.246   2.772  0.0708  0.1533 -0.2571
 1117SOL     ow 4465   2.748   6.365   4.005 -0.7108  0.1872 -0.3207
 1117SOL     hw 4466   2.808   6.404   3.941 -0.6339  0.8020  0.1151
 1117SOL     hw 4467   2.712   6.440   4.052 -1.9939 -0.1587 -0.7156
 1117SOL     vw 4468   2.751   6.380   4.003 -0.8700  0.2227 -0.3154
 1118SOL     ow 4469   3.299   2.525   4.690 -0.9393 -0.6227 -1.1383
 1118SOL     hw 4470   3.277   2.613   4.661  1.4491  0.9945  1.5008
 1118SOL     hw 4471   3.359   2.492   4.624 -0.2340  0.6036 -1.1426
 1118SOL     vw 4472   3.304   2.532   4.678 -0.5312 -0.2475 -0.7904
 1119SOL     ow 4473   4.132   4.282   5.873 -0.0492  0.1460 -0.1170
 1119SOL     hw 4474   4.191   4.277   5.798  0.6264  0.8878  0.3552
 1119SOL     hw 4475   4.115   4.190   5.896 -1.2072 -0.1260 -1.8831
 1119SOL     vw 4476   4.137   4.269   5.866 -0.1128  0.2077 -0.2878
 1120SOL     ow 4477   6.761   4.742   4.479  0.3887 -0.4445  0.3497
 1120SOL     hw 4478   6.758   4.820   4.533  0.6637  0.5253 -0.9799
 1120SOL     hw 4479   6.712   4.676   4.528 -1.3520  1.0479  0.7137
 1120SOL     vw 4480   6.754   4.744   4.493  0.1953 -0.1194  0.2222
 1121SOL     ow 4481   0.873   4.320   2.704  0.4109 -0.3143 -0.5113
 1121SOL     hw 4482   0.913   4.297   2.620  0.3290  1.8894 -1.2275
 1121SOL     hw 4483   0.795   4.370   2.681 -0.9476 -1.6727  0.9051
 1121SOL     vw 4484   0.868   4.324   2.690  0.2209 -0.2024 -0.4190
 1122SOL     ow 4485   1.264   2.846   4.937 -0.4200 -0.3412 -0.0728
 1122SOL     hw 4486   1.316   2.923   4.913  0.6529 -0.9842  0.0743
 1122SOL     hw 4487   1.275   2.785   4.864  1.3156 -1.5576  1.0912
 1122SOL     vw 4488   1.273   2.848   4.924 -0.0495 -0.5865  0.1001
 1123SOL     ow 4489   0.927   3.969   1.116  0.3057  0.3775 -0.0398
 1123SOL     hw 4490   0.907   4.048   1.066  1.0210 -1.1372 -2.9678
 1123SOL     hw 4491   0.980   3.915   1.056 -1.6950 -3.1452  1.0532
 1123SOL     vw 4492   0.932   3.972   1.102  0.1361 -0.2872 -0.2819
 1124SOL     ow 4493   3.680   2.419   6.052 -0.2350  0.3658 -0.2962
 1124SOL     hw 4494   3.649   2.329   6.049 -0.2454  0.3772 -0.6905
 1124SOL     hw 4495   3.718   2.434   5.965  0.6961  0.4191  0.1145
 1124SOL     vw 4496   3.681   2.409   6.040 -0.1136  0.3743 -0.2940
 1125SOL     ow 4497   0.512   6.891   4.015 -0.4254 -0.7324 -0.4761
 1125SOL     hw 4498   0.454   6.962   3.988 -0.5432 -1.7737 -3.3089
 1125SOL     hw 4499   0.600   6.923   3.994 -0.2906 -0.5956  0.2903
 1125SOL     vw 4500   0.516   6.904   4.008 -0.4232 -0.8516 -0.7486
 1126SOL     ow 4501   0.222   5.430   2.414 -0.3876  0.4582  0.1225
 1126SOL     hw 4502   0.227   5.348   2.366  1.3759  1.2486 -1.1243
 1126SOL     hw 4503   0.129   5.440   2.435 -0.5694 -2.0991  0.8180
 1126SOL     vw 4504   0.210   5.421   2.411 -0.1789  0.2251  0.0498
 1127SOL     ow 4505   4.775   2.269   1.421 -0.2647  0.5869 -0.0077
 1127SOL     hw 4506   4.810   2.304   1.340 -0.3973 -0.0417 -0.3401
 1127SOL     hw 4507   4.681   2.285   1.416 -0.2615  0.6342  0.0705
 1127SOL     vw 4508   4.767   2.276   1.410 -0.2818  0.5101 -0.0412
 1128SOL     ow 4509   5.353   4.875   2.407 -0.4176 -0.1000 -0.2265
 1128SOL     hw 4510   5.259   4.885   2.420 -0.0415  0.2389  3.2713
 1128SOL     hw 4511   5.383   4.963   2.382 -1.0727 -0.4828 -2.6530
 1128SOL     vw 4512   5.345   4.888   2.405 -0.4544 -0.1056 -0.0850
 1129SOL     ow 4513   5.426   5.198   6.960  0.3504  0.5330  0.3011
 1129SOL     hw 4514   5.415   5.118   7.010 -1.2347  0.6010  0.0910
 1129SOL     hw 4515   5.349   5.203   6.904  1.5984  0.9644 -1.4630
 1129SOL     vw 4516   5.415   5.188   6.959  0.3061  0.5991  0.0405
 1130SOL     ow 4517   3.903   3.685   0.124 -0.2169  0.5158 -0.3547
 1130SOL     hw 4518   3.948   3.684   0.208  1.5101 -1.4105 -1.2026
 1130SOL     hw 4519   3.880   3.593   0.108  0.7134  0.5971 -2.5642
 1130SOL     vw 4520   3.906   3.672   0.133  0.1339  0.2724 -0.7581
 1131SOL     ow 4521   6.896   4.904   0.859 -0.4143  0.6243 -0.3651
 1131SOL     hw 4522   6.857   4.971   0.803  1.4744  0.6677 -1.6987
 1131SOL     hw 4523   6.895   4.824   0.806  0.8233  0.5143 -0.2477
 1131SOL     vw 4524   6.891   4.902   0.845 -0.0017  0.6154 -0.5256
 1132SOL     ow 4525   5.540   3.981   6.048  0.6053  0.2621  0.2397
 1132SOL     hw 4526   5.514   3.942   5.965  3.7296  0.3076 -0.9281
 1132SOL     hw 4527   5.497   4.067   6.049  0.6890  0.3599 -1.4869
 1132SOL     vw 4528   5.531   3.987   6.037  1.0285  0.2811 -0.1423
 1133SOL     ow 4529   2.473   0.073   2.242 -0.4893  0.3280  0.5280
 1133SOL     hw 4530   2.477   0.168   2.233  0.3568  0.2915  0.5067
 1133SOL     hw 4531   2.427   0.044   2.163  1.1681  0.5457 -0.5591
 1133SOL     vw 4532   2.467   0.082   2.231 -0.1590  0.3519  0.3817
 1134SOL     ow 4533   2.904   7.005   2.308 -0.2193  0.4819  0.5395
 1134SOL     hw 4534   2.814   7.007   2.340 -0.2964  2.4552  0.3224
 1134SOL     hw 4535   2.957   7.016   2.387 -0.2708  1.4268  0.4577
 1134SOL     vw 4536   2.899   7.007   2.323 -0.2363  0.8671  0.5001
 1135SOL     ow 4537   1.047   6.308   1.200 -0.7454  0.8239  0.2145
 1135SOL     hw 4538   1.084   6.266   1.278  1.0146  1.1074 -0.4202
 1135SOL     hw 4539   1.088   6.262   1.127 -0.9292  1.7973 -0.5176
 1135SOL     vw 4540   1.058   6.296   1.201 -0.5374  0.9897  0.0342
 1136SOL     ow 4541   0.680   2.914   0.387 -0.3164 -0.1915 -0.3695
 1136SOL     hw 4542   0.695   2.840   0.445 -0.1154  1.0151  1.1907
 1136SOL     hw 4543   0.704   2.991   0.439  1.3609  0.8998 -2.5401
 1136SOL     vw 4544   0.685   2.914   0.401 -0.0686  0.1117 -0.4500
 1137SOL     ow 4545   2.947   2.660   5.538  0.2157 -0.4389 -0.4750
 1137SOL     hw 4546   2.872   2.609   5.567 -1.0437  0.3386 -2.2008
 1137SOL     hw 4547   3.011   2.595   5.510  0.8878 -1.1615  2.4333
 1137SOL     vw 4548   2.946   2.645   5.538  0.1383 -0.4318 -0.3188
 1138SOL     ow 4549   4.391   3.850   1.677 -0.1418 -0.0823 -0.4423
 1138SOL     hw 4550   4.307   3.893   1.696 -0.7396 -0.5400 -1.9153
 1138SOL     hw 4551   4.380   3.813   1.589  1.1731 -1.2499 -0.1517
 1138SOL     vw 4552   4.379   3.851   1.668 -0.0472 -0.2968 -0.5983
 1139SOL     ow 4553   1.522   6.376   0.523 -0.1499  0.0195 -0.0006
 1139SOL     hw 4554   1.504   6.300   0.580 -1.1558 -0.0208 -0.3472
 1139SOL     hw 4555   1.510   6.452   0.580 -0.9291 -0.0291 -0.0834
 1139SOL     vw 4556   1.518   6.376   0.538 -0.3855  0.0079 -0.0573
 1140SOL     ow 4557   4.679   1.298   5.900  0.0305 -0.0696  0.1218
 1140SOL     hw 4558   4.748   1.271   5.960 -0.7835 -1.3911  0.5180
 1140SOL     hw 4559   4.625   1.359   5.951 -0.0919 -0.4164  0.4131
 1140SOL     vw 4560   4.681   1.302   5.914 -0.0930 -0.2897  0.2122
 1141SOL     ow 4561   6.837   3.579   5.059  0.3924  0.1260 -0.0537
 1141SOL     hw 4562   6.884   3.525   4.996 -2.0630 -2.0985 -0.1162
 1141SOL     hw 4563   6.746   3.577   5.031 -1.1010 -1.9883  4.0577
 1141SOL     vw 4564   6.831   3.572   5.047 -0.1285 -0.4464  0.4804
 1142SOL     ow 4565   1.327   1.387   2.295  0.4090 -0.5513  0.2817
 1142SOL     hw 4566   1.404   1.367   2.347  0.1265 -0.0543  0.8915
 1142SOL     hw 4567   1.253   1.381   2.356  0.1472  0.7520  0.1313
 1142SOL     vw 4568   1.327   1.384   2.310  0.3372 -0.3138  0.3422
 1143SOL     ow 4569   3.923   1.171   4.688 -0.4941 -0.5515  0.2936
 1143SOL     hw 4570   3.913   1.186   4.782 -1.4996 -2.1026  0.4738
 1143SOL     hw 4571   3.870   1.093   4.670 -0.1728 -0.4036 -1.5314
 1143SOL     vw 4572   3.915   1.163   4.698 -0.5844 -0.7367  0.0765
 1144SOL     ow 4573   5.651   5.692   4.961 -0.1800 -0.5751 -0.0152
 1144SOL     hw 4574   5.591   5.627   4.923  1.7235 -1.7331 -1.2363
 1144SOL     hw 4575   5.653   5.762   4.896  0.1651 -0.7737 -0.2209
 1144SOL     vw 4576   5.643   5.692   4.947  0.1168 -0.7541 -0.2031
 1145SOL     ow 4577   0.317   2.538   3.955  0.7137 -0.4289 -0.0539
 1145SOL     hw 4578   0.261   2.552   3.879 -0.7504 -0.4587  0.9728
 1145SOL     hw 4579   0.310   2.445   3.974 -2.1559  0.1470  2.4134
 1145SOL     vw 4580   0.309   2.528   3.947  0.1419 -0.3568  0.4071
 1146SOL     ow 4581   3.365   5.175   0.021  0.4820 -0.7013 -0.1964
 1146SOL     hw 4582   3.307   5.123  -0.034  1.7274 -0.4175 -1.8384
 1146SOL     hw 4583   3.372   5.259  -0.023  1.4898 -0.4494  0.4062
 1146SOL     vw 4584   3.358   5.179   0.008  0.7794 -0.6304 -0.3336
 1147SOL     ow 4585   1.802   1.810   0.995 -0.5506 -0.4298 -0.1391
 1147SOL     hw 4586   1.895   1.806   1.016 -0.0649  2.5059 -1.3007
 1147SOL     hw 4587   1.758   1.787   1.076  1.2097  0.5200  1.1625
 1147SOL     vw 4588   1.809   1.806   1.008 -0.2543  0.0829 -0.1206
 1148SOL     ow 4589   1.262   1.014   1.631 -0.3212  0.4720  0.4516
 1148SOL     hw 4590   1.329   1.036   1.695 -1.1051  1.5621  0.9275
 1148SOL     hw 4591   1.295   1.050   1.549 -0.6135  1.6204  0.8172
 1148SOL     vw 4592   1.276   1.022   1.629 -0.4632  0.7673  0.5627
 1149SOL     ow 4593   2.359   2.649   5.077 -0.3756 -0.1710  0.1036
 1149SOL     hw 4594   2.296   2.708   5.035 -1.9635 -0.3857  2.0525
 1149SOL     hw 4595   2.334   2.562   5.047 -0.9971 -0.2488  0.8164
 1149SOL     vw 4596   2.347   2.645   5.068 -0.6670 -0.2096  0.4544
 1150SOL     ow 4597   7.059   1.408   2.783  0.4216 -0.2640 -0.5095
 1150SOL     hw 4598   7.033   1.372   2.698  0.2549  1.0968 -1.0546
 1150SOL     hw 4599   7.153   1.422   2.775  0.1537  1.4495 -1.1216
 1150SOL     vw 4600   7.068   1.405   2.771  0.3641  0.1416 -0.6622
 1151SOL     ow 4601   0.833   6.267   4.900 -0.1985  0.6933 -0.2823
 1151SOL     hw 4602   0.747   6.241   4.932 -0.1815 -1.0767 -1.5133
 1151SOL     hw 4603   0.893   6.239   4.969 -0.4095 -0.4320 -0.5314
 1151SOL     vw 4604   0.830   6.260   4.914 -0.2241  0.3111 -0.4776
 1152SOL     ow 4605   3.107   7.104   3.568 -0.7068 -0.6243 -0.0324
 1152SOL     hw 4606   3.084   7.195   3.552  0.1390 -0.0126  1.9383
 1152SOL     hw 4607   3.044   7.074   3.634  0.6561 -0.5768  1.3714
 1152SOL     vw 4608   3.096   7.112   3.575 -0.4154 -0.5373  0.4127
 1153SOL     ow 4609   2.116   5.833   6.010  0.5060  0.6514 -0.3359
 1153SOL     hw 4610   2.115   5.817   5.916  0.0658 -2.0230  0.0571
 1153SOL     hw 4611   2.157   5.919   6.019  1.0725  0.7311 -2.9092
 1153SOL     vw 4612   2.121   5.842   5.999  0.5227  0.3092 -0.6235
 1154SOL     ow 4613   1.221   5.215   6.570  0.0253 -0.0383  0.2578
 1154SOL     hw 4614   1.243   5.123   6.574 -2.5311 -0.7497  0.0247
 1154SOL     hw 4615   1.301   5.261   6.595  1.4566 -2.2823  0.0200
 1154SOL     vw 4616   1.234   5.209   6.574 -0.1232 -0.4284  0.1955
 1155SOL     ow 4617   4.805   3.405   6.076  0.2513  0.0847 -0.4565
 1155SOL     hw 4618   4.743   3.339   6.106  0.5206 -0.4948 -1.1305
 1155SOL     hw 4619   4.764   3.443   5.998 -0.1344  1.0858  0.2217
 1155SOL     vw 4620   4.792   3.401   6.070  0.2360  0.1403 -0.4559
 1156SOL     ow 4621   0.060   5.557   5.342  0.4707  0.1819 -0.2873
 1156SOL     hw 4622   0.086   5.638   5.385  2.5571 -0.6306  0.1207
 1156SOL     hw 4623   0.050   5.494   5.414  1.1903 -0.4795 -0.7475
 1156SOL     vw 4624   0.062   5.559   5.358  0.8409 -0.0124 -0.2942
 1157SOL     ow 4625   6.752   6.347   4.022  0.0310  0.4879  0.5229
 1157SOL     hw 4626   6.826   6.334   3.962  0.1093  0.4061  0.6364
 1157SOL     hw 4627   6.738   6.262   4.062 -0.3177  0.4336  0.2839
 1157SOL     vw 4628   6.760   6.334   4.019 -0.0048  0.4702  0.5062
 1158SOL     ow 4629   0.878   6.507   0.309 -0.8819  0.4022 -0.3297
 1158SOL     hw 4630   0.961   6.462   0.297 -0.1857  1.9620 -1.7363
 1158SOL     hw 4631   0.830   6.491   0.228 -1.2849  0.8733 -0.1922
 1158SOL     vw 4632   0.882   6.499   0.297 -0.8432  0.6704 -0.4972
 1159SOL     ow 4633   1.268   4.441   3.281  0.7061  0.3122  0.5776
 1159SOL     hw 4634   1.356   4.415   3.252  0.9039  0.5077  0.9895
 1159SOL     hw 4635   1.257   4.530   3.246  0.4057  0.0392 -0.0329
 1159SOL     vw 4636   1.278   4.450   3.272  0.6925  0.3021  0.5513
 1160SOL     ow 4637   5.086   2.852   2.589 -0.4757  0.3996 -0.3585
 1160SOL     hw 4638   5.039   2.805   2.658  1.1259 -0.0167  0.5160
 1160SOL     hw 4639   5.095   2.788   2.518 -1.0285  0.4189 -0.4505
 1160SOL     vw 4640   5.081   2.837   2.589 -0.3371  0.3471 -0.2552
 1161SOL     ow 4641   0.827   2.447   6.141  0.1493  1.0326  0.2865
 1161SOL     hw 4642   0.891   2.379   6.158  3.0959  3.7678  1.1076
 1161SOL     hw 4643   0.789   2.467   6.227  0.9046  1.8333  0.4520
 1161SOL     vw 4644   0.830   2.441   6.155  0.6377  1.4991  0.4168
 1162SOL     ow 4645   1.847   6.146   2.087 -0.2193  0.4015  0.2210
 1162SOL     hw 4646   1.918   6.183   2.139  1.7506 -0.7987 -1.4505
 1162SOL     hw 4647   1.814   6.074   2.140  0.8592  0.0243  0.4089
 1162SOL     vw 4648   1.852   6.141   2.101  0.1830  0.1934  0.0253
 1163SOL     ow 4649   3.510   5.099   2.140 -0.5047 -0.6931  0.5860
 1163SOL     hw 4650   3.567   5.150   2.082 -1.3489 -0.9007 -0.4493
 1163SOL     hw 4651   3.570   5.055   2.200  0.3213  0.4197  0.6101
 1163SOL     vw 4652   3.526   5.100   2.140 -0.5070 -0.5739  0.4526
 1164SOL     ow 4653   3.034   5.247   4.847  0.3408  0.1169  0.0131
 1164SOL     hw 4654   3.014   5.204   4.764 -2.2250  1.4002 -0.1279
 1164SOL     hw 4655   2.997   5.188   4.914  0.3949  0.1655  0.0865
 1164SOL     vw 4656   3.027   5.233   4.845  0.0094  0.2925  0.0043
 1165SOL     ow 4657   4.603   0.451   6.417 -0.3927  0.8272 -0.5409
 1165SOL     hw 4658   4.693   0.420   6.431 -0.1435  2.0333  0.7919
 1165SOL     hw 4659   4.570   0.398   6.345  0.1377 -2.1963  1.2910
 1165SOL     vw 4660   4.611   0.440   6.410 -0.2894  0.5874 -0.1233
 1166SOL     ow 4661   0.202   5.015   0.793  0.1400  0.3402  0.4037
 1166SOL     hw 4662   0.234   4.933   0.755 -0.2742  0.1335  0.4970
 1166SOL     hw 4663   0.185   5.071   0.717 -0.2502  0.0874  0.2990
 1166SOL     vw 4664   0.204   5.012   0.778  0.0339  0.2797  0.4022
 1167SOL     ow 4665   3.631   1.816   3.811  0.2536 -0.5576  0.0039
 1167SOL     hw 4666   3.622   1.889   3.748  0.7041 -0.8589 -0.4168
 1167SOL     hw 4667   3.618   1.857   3.896 -0.0286 -0.0772 -0.2581
 1167SOL     vw 4668   3.628   1.831   3.814  0.2757 -0.5340 -0.0859
 1168SOL     ow 4669   3.509   4.474   3.977 -0.8374 -0.3201  0.4081
 1168SOL     hw 4670   3.572   4.423   4.028 -1.5754 -0.5199  1.1330
 1168SOL     hw 4671   3.444   4.504   4.041 -0.7264  1.0574 -0.1039
 1168SOL     vw 4672   3.509   4.471   3.992 -0.9202 -0.1645  0.4363
 1169SOL     ow 4673   2.230   4.110   6.385 -0.2843  0.6744 -0.0860
 1169SOL     hw 4674   2.287   4.156   6.323  1.1254 -0.2395  0.4742
 1169SOL     hw 4675   2.289   4.080   6.454 -1.8136  1.7727  1.8060
 1169SOL     vw 4676   2.245   4.112   6.386 -0.3002  0.6990  0.2375
 1170SOL     ow 4677   5.751   2.916   4.087 -0.1466  0.0903  0.0554
 1170SOL     hw 4678   5.687   2.848   4.064  0.3580 -0.6905  0.8786
 1170SOL     hw 4679   5.787   2.944   4.003 -1.3926  0.3871 -0.4127
 1170SOL     vw 4680   5.747   2.911   4.073 -0.2444  0.0266  0.1023
 1171SOL     ow 4681   6.971   1.474   4.471  0.2870 -0.5740  0.8576
 1171SOL     hw 4682   6.953   1.528   4.394  0.2656 -1.4680  0.2213
 1171SOL     hw 4683   7.048   1.514   4.511  0.0827  0.1135  0.5853
 1171SOL     vw 4684   6.979   1.486   4.466  0.2573 -0.6013  0.7379
 1172SOL     ow 4685   4.647   4.845   1.990  0.0510 -0.0451  0.2555
 1172SOL     hw 4686   4.555   4.873   1.994 -0.1335 -0.0925 -2.1258
 1172SOL     hw 4687   4.651   4.786   1.914  2.1649  0.4433 -0.0818
 1172SOL     vw 4688   4.635   4.841   1.980  0.3057  0.0134 -0.1032
 1173SOL     ow 4689   6.630   3.515   4.784 -0.6359  0.1260 -0.4096
 1173SOL     hw 4690   6.575   3.538   4.858 -0.4201  0.8965 -0.4846
 1173SOL     hw 4691   6.668   3.598   4.755  1.6966 -0.5386  0.5324
 1173SOL     vw 4692   6.628   3.529   4.790 -0.2997  0.1401 -0.2952
 1174SOL     ow 4693   0.457   6.575   4.044  0.4349 -0.4527 -0.1664
 1174SOL     hw 4694   0.528   6.511   4.039 -0.2577 -1.1469 -2.6488
 1174SOL     hw 4695   0.399   6.541   4.112  1.8289 -0.4993  1.0571
 1174SOL     vw 4696   0.458   6.562   4.052  0.5275 -0.5503 -0.3326
 1175SOL     ow 4697   5.778   4.781   3.746  0.4348 -0.1368  0.3164
 1175SOL     hw 4698   5.780   4.826   3.831  1.2100 -0.8411  0.6890
 1175SOL     hw 4699   5.748   4.693   3.767 -0.1745 -0.0764 -0.2711
 1175SOL     vw 4700   5.774   4.775   3.760  0.4566 -0.2220  0.2881
 1176SOL     ow 4701   2.483   3.995   3.321  0.2658 -0.1354  0.5135
 1176SOL     hw 4702   2.533   4.038   3.391  2.1588 -1.7843  0.2577
 1176SOL     hw 4703   2.538   4.006   3.243  0.0261 -1.6195  0.1152
 1176SOL     vw 4704   2.497   4.002   3.320  0.4840 -0.5491  0.4271
 1177SOL     ow 4705   2.900   4.312   0.175  0.0122 -0.3298  0.7355
 1177SOL     hw 4706   2.831   4.246   0.186 -1.3103  0.8468 -0.0506
 1177SOL     hw 4707   2.945   4.314   0.259 -2.3053  0.3297  2.0483
 1177SOL     vw 4708   2.897   4.304   0.187 -0.4681 -0.0877  0.8050
 1178SOL     ow 4709   4.554   5.686   0.356 -0.0982  0.2301 -0.2502
 1178SOL     hw 4710   4.618   5.744   0.315 -0.0210 -0.6329 -1.3860
 1178SOL     hw 4711   4.605   5.611   0.384 -0.5407 -0.3017 -0.8421
 1178SOL     vw 4712   4.569   5.684   0.354 -0.1462  0.0458 -0.4782
 1179SOL     ow 4713   7.099   6.343   3.294  0.0357 -0.3507 -0.0258
 1179SOL     hw 4714   7.074   6.302   3.376 -0.3048 -0.2266 -0.0676
 1179SOL     hw 4715   7.169   6.287   3.260  0.0786 -0.4828  0.2753
 1179SOL     vw 4716   7.105   6.330   3.300 -0.0036 -0.3517  0.0083
 1180SOL     ow 4717   2.079   5.850   6.328  0.6201 -0.1124  0.7272
 1180SOL     hw 4718   2.170   5.864   6.354  0.6898 -0.3754  0.6327
 1180SOL     hw 4719   2.032   5.837   6.411  0.7905 -0.6553  0.7455
 1180SOL     vw 4720   2.085   5.850   6.342  0.6517 -0.2184  0.7169
 1181SOL     ow 4721   3.985   4.031   2.189 -0.3203 -0.0726 -0.1983
 1181SOL     hw 4722   3.960   3.946   2.154 -0.7780  0.6543 -1.7570
 1181SOL     hw 4723   4.017   4.079   2.112 -1.0031  1.4812  0.4540
 1181SOL     vw 4724   3.986   4.026   2.174 -0.4706  0.2286 -0.3178
 1182SOL     ow 4725   2.200   5.204   2.845 -0.2054 -0.1355  0.2581
 1182SOL     hw 4726   2.238   5.211   2.758 -0.0219  1.0287  0.4081
 1182SOL     hw 4727   2.114   5.245   2.837  0.5135  1.6568  0.9901
 1182SOL     vw 4728   2.194   5.211   2.833 -0.0863  0.2546  0.3744
 1183SOL     ow 4729   2.513   5.924   5.865 -0.0284 -0.2141 -0.6026
 1183SOL     hw 4730   2.539   5.984   5.794 -0.0768 -1.6494 -1.8774
 1183SOL     hw 4731   2.420   5.907   5.849 -0.1210 -0.2967  0.0091
 1183SOL     vw 4732   2.504   5.930   5.853 -0.0470 -0.4144 -0.6900
 1184SOL     ow 4733   3.533   0.403   4.008 -0.9292  0.0381  0.6893
 1184SOL     hw 4734   3.544   0.372   3.918 -1.0566  1.5561  0.1249
 1184SOL     hw 4735   3.621   0.422   4.039 -0.6978 -2.1796  1.5616
 1184SOL     vw 4736   3.546   0.401   4.001 -0.9155 -0.0542  0.7302
 1185SOL     ow 4737   1.801   3.786   4.134 -0.0512 -0.2154 -0.0366
 1185SOL     hw 4738   1.765   3.850   4.073  1.7702 -0.5847 -1.6051
 1185SOL     hw 4739   1.891   3.816   4.148  0.1076 -1.1670  1.0301
 1185SOL     vw 4740   1.808   3.799   4.128  0.2100 -0.3897 -0.1030
 1186SOL     ow 4741   6.849   4.655   6.673 -0.5903 -0.5218  0.2244
 1186SOL     hw 4742   6.800   4.622   6.597 -0.3633  0.8460 -0.5506
 1186SOL     hw 4743   6.928   4.601   6.677 -0.5092 -0.4691 -0.6328
 1186SOL     vw 4744   6.853   4.643   6.664 -0.5498 -0.3347  0.0091
 1187SOL     ow 4745   4.961   6.427   5.887 -0.7671  0.4022  0.6551
 1187SOL     hw 4746   5.050   6.460   5.880 -0.5003 -0.4703 -0.1342
 1187SOL     hw 4747   4.907   6.506   5.896  0.1803  0.8816  2.5817
 1187SOL     vw 4748   4.965   6.442   5.887 -0.6073  0.3505  0.8054
 1188SOL     ow 4749   5.594   3.851   1.338 -0.4231 -0.4629  0.6660
 1188SOL     hw 4750   5.661   3.840   1.270 -0.8216 -1.3508  0.3955
 1188SOL     hw 4751   5.616   3.785   1.404 -0.5249 -0.1707  0.9934
 1188SOL     vw 4752   5.605   3.841   1.338 -0.4895 -0.5414  0.6736
 1189SOL     ow 4753   6.868   3.585   5.901 -0.6846 -0.0700 -0.2922
 1189SOL     hw 4754   6.886   3.593   5.995  1.6164  0.2803 -0.6906
 1189SOL     hw 4755   6.952   3.605   5.859 -1.4311 -1.0583 -2.4049
 1189SOL     vw 4756   6.881   3.589   5.908 -0.4795 -0.1541 -0.6237
 1190SOL     ow 4757   5.690   1.827   5.256 -0.4567  0.2923 -0.2292
 1190SOL     hw 4758   5.722   1.795   5.171  1.3137  1.5303 -0.0802
 1190SOL     hw 4759   5.616   1.884   5.234 -0.1477  0.4296 -0.9359
 1190SOL     vw 4760   5.684   1.830   5.242 -0.1824  0.4738 -0.3028
 1191SOL     ow 4761   3.516   6.554   2.535  0.5417 -0.7485 -0.4387
 1191SOL     hw 4762   3.592   6.495   2.537 -0.7057 -2.3973  0.6331
 1191SOL     hw 4763   3.457   6.520   2.602 -0.3075  1.6974  0.1740
 1191SOL     vw 4764   3.518   6.542   2.544  0.2652 -0.6435 -0.2164
 1192SOL     ow 4765   3.943   1.393   4.494 -0.3953  0.2599 -0.3879
 1192SOL     hw 4766   3.980   1.481   4.483 -1.8388  0.8044 -1.1185
 1192SOL     hw 4767   3.922   1.365   4.405 -1.7001 -0.0355 -0.0022
 1192SOL     vw 4768   3.945   1.401   4.481 -0.7579  0.2928 -0.4332
 1193SOL     ow 4769   3.919   3.896   7.022 -0.1440  0.0622  0.2931
 1193SOL     hw 4770   3.901   3.869   6.932 -1.7323  0.4121  0.4818
 1193SOL     hw 4771   3.954   3.985   7.014  2.4241 -0.9096 -0.1328
 1193SOL     vw 4772   3.921   3.904   7.009 -0.0148 -0.0198  0.2618
 1194SOL     ow 4773   3.763   0.357   0.929  0.1643  0.0728  0.4362
 1194SOL     hw 4774   3.681   0.308   0.932 -0.3276  0.8931  0.8567
 1194SOL     hw 4775   3.744   0.431   0.871  0.7994 -0.0676  0.0409
 1194SOL     vw 4776   3.750   0.360   0.922  0.1831  0.1625  0.4396
 1195SOL     ow 4777   6.959   1.147   4.492 -1.4339 -1.0442 -0.4251
 1195SOL     hw 4778   6.898   1.129   4.421  0.2550  1.6491 -2.7844
 1195SOL     hw 4779   7.045   1.150   4.450 -0.3317  0.4762  1.7181
 1195SOL     vw 4780   6.963   1.145   4.477 -1.0657 -0.4882 -0.4537
 1196SOL     ow 4781   0.698   5.521   2.336 -0.1370 -0.3603 -0.3742
 1196SOL     hw 4782   0.664   5.432   2.340 -1.5745  0.1308 -0.9708
 1196SOL     hw 4783   0.706   5.549   2.427  2.6286 -1.8823 -0.0530
 1196SOL     vw 4784   0.694   5.513   2.348  0.0382 -0.4961 -0.4107
 1197SOL     ow 4785   0.729   5.027   3.136 -0.5819 -0.1036  0.2110
 1197SOL     hw 4786   0.693   5.048   3.050 -0.6786  1.0787  0.5210
 1197SOL     hw 4787   0.815   5.070   3.137 -0.7371  0.2087  0.8327
 1197SOL     vw 4788   0.736   5.036   3.125 -0.6152  0.0932  0.3340
 1198SOL     ow 4789   1.032   0.473   4.895 -0.2593 -0.2039  0.5114
 1198SOL     hw 4790   1.092   0.411   4.937  1.1588  0.1113 -0.9864
 1198SOL     hw 4791   1.073   0.559   4.909 -0.8130  0.1094  0.2178
 1198SOL     vw 4792   1.045   0.476   4.903 -0.1453 -0.1210  0.2751
 1199SOL     ow 4793   5.516   1.348   0.924 -0.1054  0.2832 -0.0638
 1199SOL     hw 4794   5.604   1.331   0.889 -0.4110 -1.8195  0.0328
 1199SOL     hw 4795   5.516   1.305   1.009 -1.2391  0.2154 -0.0828
 1199SOL     vw 4796   5.528   1.340   0.930 -0.2949 -0.0032 -0.0536
 1200SOL     ow 4797   6.906   1.464   0.461 -0.8967 -0.2190 -0.3142
 1200SOL     hw 4798   6.885   1.375   0.490  3.0770 -0.7889  1.5279
 1200SOL     hw 4799   6.844   1.520   0.506 -1.8641 -1.8982  0.5277
 1200SOL     vw 4800   6.895   1.459   0.471 -0.5000 -0.5158  0.0399
 1201SOL     ow 4801   7.021   2.965   6.391  0.2753 -0.3557 -0.1291
 1201SOL     hw 4802   6.961   3.038   6.407  0.9716  0.5786 -1.6096
 1201SOL     hw 4803   7.105   3.007   6.373  0.5720 -1.5065 -1.5386
 1201SOL     vw 4804   7.024   2.980   6.391  0.4063 -0.3843 -0.5105
 1202SOL     ow 4805   5.266   0.053   7.105  0.1869 -0.0947  0.0235
 1202SOL     hw 4806   5.333   0.122   7.100  0.6278 -0.2601  2.5492
 1202SOL     hw 4807   5.303  -0.013   7.163 -2.1496 -0.1536  1.5981
 1202SOL     vw 4808   5.279   0.054   7.112 -0.0632 -0.1240  0.5646
 1203SOL     ow 4809   2.059   2.475   4.210 -0.9061 -0.0550  0.5477
 1203SOL     hw 4810   2.136   2.479   4.267 -0.4592  0.4574 -0.0778
 1203SOL     hw 4811   2.008   2.401   4.244  0.6367 -1.4528  0.0001
 1203SOL     vw 4812   2.063   2.466   4.222 -0.6436 -0.1719  0.3929
 1204SOL     ow 4813   0.481   4.453   3.608  0.0291  0.4095 -0.7973
 1204SOL     hw 4814   0.488   4.475   3.701 -0.2681  0.6666 -0.8365
 1204SOL     hw 4815   0.571   4.438   3.581  0.0143 -1.2377 -0.0828
 1204SOL     vw 4816   0.494   4.454   3.617 -0.0121  0.2265 -0.7082
 1205SOL     ow 4817   6.373   2.986   2.190  0.1861 -0.5069 -0.5592
 1205SOL     hw 4818   6.456   2.991   2.237 -0.4396 -1.5971  0.7197
 1205SOL     hw 4819   6.374   2.898   2.151 -0.1622 -0.3475 -0.9274
 1205SOL     vw 4820   6.384   2.975   2.191  0.0577 -0.6297 -0.4390
 1206SOL     ow 4821   4.573   1.269   7.083 -0.2050 -0.1855 -0.2320
 1206SOL     hw 4822   4.514   1.333   7.123 -0.4534 -0.9146  0.6041
 1206SOL     hw 4823   4.538   1.184   7.111  1.3137 -0.6313  0.3700
 1206SOL     vw 4824   4.560   1.266   7.092 -0.0370 -0.3405 -0.0422
 1207SOL     ow 4825   0.932   0.960   4.342 -0.4006  0.2868 -0.1640
 1207SOL     hw 4826   1.020   0.922   4.341 -0.6611 -0.4254  1.1647
 1207SOL     hw 4827   0.880   0.902   4.286 -0.4681 -0.5385  0.7147
 1207SOL     vw 4828   0.937   0.947   4.334 -0.4439  0.0839  0.1273
 1208SOL     ow 4829   1.908   1.317   2.778  0.0787 -0.0146 -0.2401
 1208SOL     hw 4830   1.906   1.402   2.821  0.9470  0.0066 -0.2300
 1208SOL     hw 4831   1.945   1.335   2.691 -1.4038 -0.0994 -0.9208
 1208SOL     vw 4832   1.913   1.330   2.772 -0.0023 -0.0229 -0.3284
 1209SOL     ow 4833   2.335   5.396   4.413  0.0406 -0.6975  0.3245
 1209SOL     hw 4834   2.352   5.483   4.378  0.0798 -0.3311  1.2192
 1209SOL     hw 4835   2.418   5.349   4.403  1.1325  0.4842  2.9610
 1209SOL     vw 4836   2.348   5.401   4.407  0.1899 -0.4933  0.7904
 1210SOL     ow 4837   4.839   5.723   6.620  0.2275 -0.1206 -0.5380
 1210SOL     hw 4838   4.853   5.649   6.561 -0.0645 -3.2975  3.0018
 1210SOL     hw 4839   4.746   5.745   6.610 -0.7675 -3.0482  1.0636
 1210SOL     vw 4840   4.829   5.716   6.611  0.0577 -0.9260  0.1402
 1211SOL     ow 4841   1.287   5.638   2.311 -0.1173  0.1066  0.3428
 1211SOL     hw 4842   1.263   5.563   2.366  0.2752 -0.0802  0.2609
 1211SOL     hw 4843   1.383   5.635   2.306 -0.2149 -0.9998 -1.9236
 1211SOL     vw 4844   1.297   5.628   2.318 -0.0784 -0.0639  0.0330
 1212SOL     ow 4845   5.878   0.935   3.984  0.8066 -0.4085  0.2473
 1212SOL     hw 4846   5.958   0.987   3.971 -0.1640  0.7684 -1.2381
 1212SOL     hw 4847   5.840   0.969   4.065  1.1463 -0.1020  0.2801
 1212SOL     vw 4848   5.884   0.946   3.993  0.7234 -0.2128  0.0557
 1213SOL     ow 4849   3.468   4.896   0.483  0.5399 -0.2123 -0.4226
 1213SOL     hw 4850   3.561   4.920   0.478  0.4113  0.1098 -1.6529
 1213SOL     hw 4851   3.428   4.942   0.409 -0.8954  0.8741  0.9734
 1213SOL     vw 4852   3.475   4.905   0.473  0.3335 -0.0267 -0.4007
 1214SOL     ow 4853   3.680   6.486   6.936 -0.2223  0.3976  0.3054
 1214SOL     hw 4854   3.669   6.406   6.886 -2.0420  0.1769  0.9623
 1214SOL     hw 4855   3.591   6.520   6.946  0.2153  1.1072  2.2429
 1214SOL     vw 4856   3.666   6.480   6.931 -0.4046  0.4621  0.6478
 1215SOL     ow 4857   0.124   4.522   3.493 -0.1972  0.2528 -0.1103
 1215SOL     hw 4858   0.037   4.488   3.474  0.3725 -1.3502  0.0458
 1215SOL     hw 4859   0.124   4.610   3.456 -2.0688  0.5080  0.3911
 1215SOL     vw 4860   0.112   4.529   3.486 -0.3689  0.0753 -0.0236
 1216SOL     ow 4861   4.462   5.565   5.756 -0.1444  0.0034  0.5703
 1216SOL     hw 4862   4.540   5.536   5.804  1.2409 -1.1092 -2.1421
 1216SOL     hw 4863   4.473   5.659   5.746  1.3808 -0.2566 -0.5429
 1216SOL     vw 4864   4.474   5.573   5.761  0.2394 -0.1779  0.0658
 1217SOL     ow 4865   3.850   2.293   2.951  0.1231 -0.3453 -0.5197
 1217SOL     hw 4866   3.845   2.361   2.884 -0.2159 -1.1537 -1.3220
 1217SOL     hw 4867   3.937   2.306   2.991  0.1138  0.4770 -0.7347
 1217SOL     vw 4868   3.861   2.304   2.948  0.0772 -0.3436 -0.6539
 1218SOL     ow 4869   6.752   3.399   0.858 -0.4673 -0.3594 -0.2069
 1218SOL     hw 4870   6.814   3.332   0.887  0.9432  2.3512  3.9235
 1218SOL     hw 4871   6.804   3.457   0.803 -0.4938 -0.3757 -0.2488
 1218SOL     vw 4872   6.767   3.398   0.855 -0.2847 -0.0039  0.3325
 1219SOL     ow 4873   6.393   0.240   3.947  0.4096  0.2014  1.1242
 1219SOL     hw 4874   6.356   0.165   3.992 -1.9899  1.4511  1.4180
 1219SOL     hw 4875   6.403   0.307   4.015  0.7298  0.7530  0.5547
 1219SOL     vw 4876   6.390   0.239   3.962  0.1352  0.4390  1.0879
 1220SOL     ow 4877   6.951   1.332   4.736 -0.1045 -0.1513  0.4517
 1220SOL     hw 4878   7.030   1.382   4.757  0.1439 -0.2341 -0.2685
 1220SOL     hw 4879   6.976   1.241   4.748  0.0206 -0.1948 -0.1529
 1220SOL     vw 4880   6.965   1.327   4.741 -0.0548 -0.1679  0.2770
 1221SOL     ow 4881   5.128   5.827   6.764 -0.4014 -0.3945 -0.5414
 1221SOL     hw 4882   5.186   5.780   6.704 -0.3272 -0.3662 -0.4903
 1221SOL     hw 4883   5.167   5.815   6.850 -2.5278 -3.7666  0.1278
 1221SOL     vw 4884   5.141   5.819   6.767 -0.6723 -0.8357 -0.4463
 1222SOL     ow 4885   2.506   2.875   2.981 -0.3598 -0.4815  0.2867
 1222SOL     hw 4886   2.456   2.896   2.902  1.2821  0.6477 -0.5080
 1222SOL     hw 4887   2.444   2.825   3.035 -1.8412 -0.4652 -1.2720
 1222SOL     vw 4888   2.491   2.871   2.977 -0.3386 -0.3306 -0.0237
 1223SOL     ow 4889   0.782   5.567   1.242 -0.2466  0.7047 -0.3718
 1223SOL     hw 4890   0.824   5.541   1.324 -1.5213  1.8706  0.6863
 1223SOL     hw 4891   0.786   5.488   1.187 -0.4772 -0.4784  1.2635
 1223SOL     vw 4892   0.788   5.553   1.245 -0.4452  0.7021 -0.0163
 1224SOL     ow 4893   4.822   2.119   1.695 -0.1217 -0.7007 -0.1606
 1224SOL     hw 4894   4.847   2.185   1.759 -1.0396 -1.4300  0.9862
 1224SOL     hw 4895   4.760   2.063   1.741  0.7899 -2.5094 -1.0163
 1224SOL     vw 4896   4.817   2.120   1.709 -0.1225 -1.0357 -0.1222
 1225SOL     ow 4897   5.629   1.679   5.497  0.3887  0.2938 -0.8976
 1225SOL     hw 4898   5.644   1.594   5.456 -0.1007 -0.2192 -0.0308
 1225SOL     hw 4899   5.595   1.659   5.584 -1.4740  1.3917 -1.3186
 1225SOL     vw 4900   5.627   1.665   5.503  0.0784  0.3710 -0.8388
 1226SOL     ow 4901   2.575   0.504   4.622 -0.1719  0.4372  0.5819
 1226SOL     hw 4902   2.523   0.495   4.702  0.6422  0.7557  1.1695
 1226SOL     hw 4903   2.622   0.421   4.616  0.9517  0.9870  1.3255
 1226SOL     vw 4904   2.575   0.492   4.632  0.0838  0.5517  0.7577
 1227SOL     ow 4905   6.936   1.156   2.983  0.3063  0.3419  0.3090
 1227SOL     hw 4906   6.918   1.131   3.074 -0.7825 -1.8955 -0.4555
 1227SOL     hw 4907   6.874   1.105   2.931  1.1699  1.2642 -1.7412
 1227SOL     vw 4908   6.925   1.146   2.988  0.2766  0.1684 -0.0625
 1228SOL     ow 4909   4.296   0.262   7.053 -0.3557 -0.1481 -0.2652
 1228SOL     hw 4910   4.230   0.193   7.048  1.2407 -1.6807 -1.1668
 1228SOL     hw 4911   4.327   0.260   7.143 -0.2034 -0.7454 -0.3273
 1228SOL     vw 4912   4.291   0.253   7.064 -0.1247 -0.4291 -0.3924
 1229SOL     ow 4913   4.537   2.714   7.100 -0.0997  0.2772 -0.1219
 1229SOL     hw 4914   4.574   2.756   7.178 -0.8336 -0.9274  0.8951
 1229SOL     hw 4915   4.506   2.629   7.130 -1.5657  0.3003 -1.4615
 1229SOL     vw 4916   4.538   2.709   7.114 -0.3898  0.1214 -0.1643
 1230SOL     ow 4917   3.448   5.108   4.107 -0.0454 -0.3454  0.4623
 1230SOL     hw 4918   3.448   5.191   4.156  2.5992  0.0686 -0.0971
 1230SOL     hw 4919   3.390   5.124   4.033 -0.9684  0.3660  1.3060
 1230SOL     vw 4920   3.440   5.121   4.104  0.1818 -0.1972  0.5000
 1231SOL     ow 4921   4.555   0.497   2.242  0.2573  0.4437  0.7258
 1231SOL     hw 4922   4.644   0.478   2.214 -0.0202 -0.5833  0.4837
 1231SOL     hw 4923   4.557   0.493   2.337  0.8019  2.0527  0.8090
 1231SOL     vw 4924   4.567   0.494   2.251  0.2928  0.5205  0.7048
 1232SOL     ow 4925   1.592   0.580   0.945  0.0682  0.7966 -0.2878
 1232SOL     hw 4926   1.513   0.622   0.911  0.9007  1.4260 -1.5183
 1232SOL     hw 4927   1.566   0.545   1.030 -0.8799  3.1623  0.4777
 1232SOL     vw 4928   1.578   0.581   0.952  0.0529  1.1918 -0.3492
 1233SOL     ow 4929   6.019   6.607   5.147  1.2553  0.1500 -0.1590
 1233SOL     hw 4930   5.995   6.628   5.237 -0.9001 -1.0568 -0.3943
 1233SOL     hw 4931   6.020   6.692   5.102 -0.8740  0.4758  0.3126
 1233SOL     vw 4932   6.016   6.621   5.153  0.6902  0.0336 -0.1278
 1234SOL     ow 4933   5.456   3.669   1.172 -0.0966 -0.2667  0.3056
 1234SOL     hw 4934   5.410   3.737   1.123 -1.6462 -0.5868  1.2166
 1234SOL     hw 4935   5.499   3.716   1.244  0.7097 -0.0068 -0.3343
 1234SOL     vw 4936   5.455   3.684   1.175 -0.1948 -0.2745  0.3414
 1235SOL     ow 4937   0.149   1.456   1.901 -0.2109 -0.2964 -0.5405
 1235SOL     hw 4938   0.221   1.508   1.936 -0.3722 -0.2296 -0.3054
 1235SOL     hw 4939   0.083   1.521   1.875 -1.1652 -0.4212  1.3865
 1235SOL     vw 4940   0.149   1.471   1.902 -0.3581 -0.3040 -0.2553
 1236SOL     ow 4941   5.394   2.074   2.326  0.0018 -0.5565  0.2721
 1236SOL     hw 4942   5.435   2.072   2.240  1.6969  2.5312  0.8742
 1236SOL     hw 4943   5.460   2.036   2.385 -1.5052 -3.5396  0.2306
 1236SOL     vw 4944   5.408   2.068   2.322  0.0267 -0.5426  0.3459
 1237SOL     ow 4945   0.697   6.758   1.079  0.6433  0.2384  0.1893
 1237SOL     hw 4946   0.647   6.811   1.141 -0.5123  0.6150 -1.0212
 1237SOL     hw 4947   0.660   6.780   0.993  0.0541 -2.5631 -0.3823
 1237SOL     vw 4948   0.685   6.768   1.076  0.4131 -0.0815 -0.0458
 1238SOL     ow 4949   0.340   5.506   2.058  0.5362 -0.3959  0.0358
 1238SOL     hw 4950   0.296   5.441   2.003  0.6496 -0.0796 -0.4323
 1238SOL     hw 4951   0.270   5.558   2.096  0.5215  0.5629 -1.2694
 1238SOL     vw 4952   0.325   5.504   2.056  0.5493 -0.2277 -0.1981
 1239SOL     ow 4953   5.058   5.299   0.846  0.2996  0.2469 -0.0671
 1239SOL     hw 4954   5.040   5.356   0.920  1.2354  1.1401 -0.4995
 1239SOL     hw 4955   4.995   5.327   0.779 -0.2245 -0.2380  0.2116
 1239SOL     vw 4956   5.047   5.310   0.847  0.3538  0.3009 -0.0874
 1240SOL     ow 4957   4.468   5.958   5.544 -0.7225 -0.1723  0.2414
 1240SOL     hw 4958   4.378   5.992   5.551 -0.7772 -0.0753 -0.8720
 1240SOL     hw 4959   4.479   5.937   5.452  0.6420  0.4363  0.2483
 1240SOL     vw 4960   4.457   5.960   5.533 -0.5496 -0.0792  0.0956
 1241SOL     ow 4961   5.266   2.986   2.789 -0.4804 -0.1001  1.2296
 1241SOL     hw 4962   5.356   3.000   2.761 -0.8766 -1.2541 -0.7848
 1241SOL     hw 4963   5.270   2.994   2.885  1.6384  0.3814  1.1601
 1241SOL     vw 4964   5.278   2.989   2.798 -0.2532 -0.1888  0.9545
 1242SOL     ow 4965   5.345   2.494   5.766 -0.3810  0.2699 -0.1490
 1242SOL     hw 4966   5.270   2.547   5.793 -0.2956  0.1266  0.3746
 1242SOL     hw 4967   5.309   2.436   5.697 -1.2942 -1.2498  1.5070
 1242SOL     vw 4968   5.330   2.493   5.760 -0.4902  0.0505  0.1385
 1243SOL     ow 4969   6.573   2.007   1.812  0.0130  0.3509 -0.7569
 1243SOL     hw 4970   6.652   1.989   1.862  0.6514 -0.0490 -1.8845
 1243SOL     hw 4971   6.549   2.096   1.836  2.3480  1.5341 -2.3746
 1243SOL     vw 4972   6.580   2.016   1.822  0.4055  0.4544 -1.1191
 1244SOL     ow 4973   1.443   1.796   4.036 -0.0437  0.1221  0.0254
 1244SOL     hw 4974   1.481   1.722   3.988 -0.9396  0.1048 -0.6687
 1244SOL     hw 4975   1.363   1.760   4.074 -0.7423  0.8583 -0.7235
 1244SOL     vw 4976   1.438   1.781   4.035 -0.2541  0.2170 -0.1650
 1245SOL     ow 4977   3.513   4.653   0.689  0.1605 -0.3483  0.3630
 1245SOL     hw 4978   3.533   4.686   0.776  0.4772 -0.5198  0.3597
 1245SOL     hw 4979   3.572   4.578   0.678  2.0007  1.1654 -0.9808
 1245SOL     vw 4980   3.524   4.647   0.699  0.4450 -0.1714  0.1853
 1246SOL     ow 4981   3.091   1.156   6.244  0.5223 -0.4949  0.1799
 1246SOL     hw 4982   3.020   1.142   6.307  0.4755 -2.3115 -0.2478
 1246SOL     hw 4983   3.086   1.082   6.184  2.2035 -0.1743 -0.4143
 1246SOL     vw 4984   3.081   1.145   6.245  0.7378 -0.6924  0.0453
 1247SOL     ow 4985   2.167   6.388   6.357  0.2900  0.5193 -0.5635
 1247SOL     hw 4986   2.181   6.376   6.451 -0.0843 -0.8281 -0.6499
 1247SOL     hw 4987   2.254   6.381   6.318  0.2919 -0.2953 -0.4296
 1247SOL     vw 4988   2.180   6.385   6.364  0.2409  0.2339 -0.5572
 1248SOL     ow 4989   0.071   2.082   4.352 -0.3242  0.4617  0.4982
 1248SOL     hw 4990  -0.009   2.066   4.303 -1.1328  1.9784  1.2599
 1248SOL     hw 4991   0.140   2.042   4.299 -1.4520  0.0123 -0.6766
 1248SOL     vw 4992   0.070   2.075   4.339 -0.5797  0.6026  0.4437
 1249SOL     ow 4993   0.327   5.456   5.230 -0.3400 -0.2857 -0.4126
 1249SOL     hw 4994   0.362   5.532   5.182 -0.9805  0.2746 -0.0140
 1249SOL     hw 4995   0.345   5.476   5.322 -0.4974 -0.6285 -0.3076
 1249SOL     vw 4996   0.334   5.469   5.235 -0.4453 -0.2573 -0.3459
 1250SOL     ow 4997   1.552   6.934   1.476 -0.2061 -0.0157  0.6523
 1250SOL     hw 4998   1.536   6.986   1.555  0.0882  2.1546 -0.6486
 1250SOL     hw 4999   1.625   6.978   1.433  1.0798 -2.4242  0.1922
 1250SOL     vw 5000   1.560   6.947   1.481  0.0023 -0.0472  0.4200
 1251SOL     ow 5001   5.327   6.403   2.931  0.1859  0.1351 -0.5434
 1251SOL     hw 5002   5.330   6.379   2.838  0.4955 -2.0561 -0.0102
 1251SOL     hw 5003   5.415   6.436   2.950  1.1325 -2.2599 -0.3843
 1251SOL     vw 5004   5.339   6.404   2.921  0.3517 -0.4699 -0.4520
 1252SOL     ow 5005   3.775   3.997   5.090  0.3535  0.7737  0.0381
 1252SOL     hw 5006   3.762   3.903   5.073 -0.7601  0.6719  1.3310
 1252SOL     hw 5007   3.702   4.039   5.045  0.9502  1.0502 -0.6861
 1252SOL     vw 5008   3.763   3.990   5.081  0.2854  0.7967  0.1128
 1253SOL     ow 5009   4.153   4.144   0.873  0.7139 -0.1819 -0.8978
 1253SOL     hw 5010   4.135   4.051   0.883 -0.0647 -0.0105 -0.6441
 1253SOL     hw 5011   4.234   4.148   0.822  1.2724 -1.0104 -0.1089
 1253SOL     vw 5012   4.162   4.132   0.868  0.6847 -0.2685 -0.7602
 1254SOL     ow 5013   4.464   0.875   6.077  0.1623 -0.2642  0.2141
 1254SOL     hw 5014   4.511   0.915   6.149 -1.3141 -0.6708  1.4697
 1254SOL     hw 5015   4.390   0.935   6.061 -0.4983 -1.0534  0.2419
 1254SOL     vw 5016   4.460   0.888   6.084 -0.1197 -0.4219  0.3834
 1255SOL     ow 5017   4.847   2.206   4.693  0.2933  0.6505 -0.6530
 1255SOL     hw 5018   4.818   2.164   4.774 -2.0228 -1.2487 -2.3309
 1255SOL     hw 5019   4.939   2.229   4.710 -0.2776  1.0391  2.7221
 1255SOL     vw 5020   4.855   2.203   4.706 -0.0875  0.4513 -0.4289
 1256SOL     ow 5021   5.535   5.419   2.990 -0.0339  0.7178  0.2838
 1256SOL     hw 5022   5.573   5.416   3.078 -0.1591  0.9354  0.3479
 1256SOL     hw 5023   5.539   5.512   2.967  1.2490  0.4862 -0.4911
 1256SOL     vw 5024   5.540   5.431   2.999  0.1190  0.7160  0.1900
 1257SOL     ow 5025   5.130   1.936   2.485  0.1382 -0.0787 -0.3913
 1257SOL     hw 5026   5.126   1.932   2.581 -0.8963 -0.7477 -0.4506
 1257SOL     hw 5027   5.042   1.911   2.456 -0.3687  2.6086 -1.4513
 1257SOL     vw 5028   5.118   1.932   2.494 -0.0653  0.1876 -0.5388
 1258SOL     ow 5029   1.648   2.041   4.034 -0.0893 -0.0201  0.1948
 1258SOL     hw 5030   1.730   1.997   4.058  1.4832  1.7808 -1.5802
 1258SOL     hw 5031   1.642   2.115   4.093  1.5785  1.9634 -1.9446
 1258SOL     vw 5032   1.658   2.045   4.045  0.3383  0.4791 -0.3219
 1259SOL     ow 5033   0.078   6.068   2.408  0.1484  0.0014 -0.0236
 1259SOL     hw 5034   0.137   6.050   2.335 -0.3711  0.7429 -0.6444
 1259SOL     hw 5035   0.136   6.078   2.484  1.0534  2.5536 -0.9400
 1259SOL     vw 5036   0.094   6.067   2.408  0.1992  0.4358 -0.2265
 1260SOL     ow 5037   5.815   0.241   0.945 -0.7727  0.1404  0.2426
 1260SOL     hw 5038   5.847   0.331   0.957  2.5297 -0.5086 -2.1873
 1260SOL     hw 5039   5.776   0.241   0.858  0.3870 -0.9808 -0.3150
 1260SOL     vw 5040   5.814   0.253   0.935 -0.1841 -0.0932 -0.1516
 1261SOL     ow 5041   2.223   4.075   1.583 -0.3598  0.3332 -0.4562
 1261SOL     hw 5042   2.190   3.985   1.592 -0.9853  0.6873  1.0732
 1261SOL     hw 5043   2.187   4.121   1.659  1.3536  1.4682 -0.2937
 1261SOL     vw 5044   2.214   4.069   1.594 -0.2164  0.5298 -0.2330
 1262SOL     ow 5045   1.572   6.366   0.159 -0.5338 -0.0591 -0.4741
 1262SOL     hw 5046   1.532   6.279   0.162 -1.8117  0.5327  1.9982
 1262SOL     hw 5047   1.635   6.361   0.087 -1.5370 -2.5874 -1.2708
 1262SOL     vw 5048   1.575   6.354   0.150 -0.8348 -0.3147 -0.2530
 1263SOL     ow 5049   2.226   3.993   3.423  0.1688  0.1078  0.1171
 1263SOL     hw 5050   2.174   3.949   3.355  0.3290 -0.5886  0.4381
 1263SOL     hw 5051   2.313   3.999   3.385  0.4226 -0.8891  0.5087
 1263SOL     vw 5052   2.230   3.988   3.409  0.2234 -0.1158  0.2112
 1264SOL     ow 5053   0.043   6.032   0.806  0.3299 -0.6080  0.6715
 1264SOL     hw 5054   0.131   6.037   0.769  0.6381 -1.1913  1.2902
 1264SOL     hw 5055  -0.012   6.080   0.744  1.1553  0.1699  0.5203
 1264SOL     vw 5056   0.047   6.039   0.793  0.4794 -0.5822  0.7332
 1265SOL     ow 5057   0.049   2.835   5.083  0.4094 -0.1918  0.3186
 1265SOL     hw 5058  -0.030   2.825   5.029 -0.2406  1.5616  0.8776
 1265SOL     hw 5059   0.062   2.749   5.123  0.4763 -1.3380 -1.9981
 1265SOL     vw 5060   0.040   2.822   5.081  0.3325 -0.1117  0.0865
 1266SOL     ow 5061   4.378   4.072   5.353  0.3742  0.0716  0.3246
 1266SOL     hw 5062   4.291   4.110   5.363  0.8950  1.2889  0.3804
 1266SOL     hw 5063   4.397   4.080   5.259  0.5812  0.1450  0.3733
 1266SOL     vw 5064   4.369   4.078   5.342  0.4704  0.2418  0.3383
 1267SOL     ow 5065   1.481   0.630   2.728  0.4862  0.3546 -0.1410
 1267SOL     hw 5066   1.530   0.551   2.707  0.8758 -0.0135  1.9503
 1267SOL     hw 5067   1.411   0.601   2.786  0.6121  1.5111  0.6349
 1267SOL     vw 5068   1.478   0.616   2.733  0.5542  0.4586  0.2373
 1268SOL     ow 5069   0.096   1.386   0.365 -0.2024 -0.4117  0.1120
 1268SOL     hw 5070   0.181   1.385   0.321 -0.7717  0.8921 -1.0907
 1268SOL     hw 5071   0.090   1.301   0.408  1.0674 -1.1087 -1.0212
 1268SOL     vw 5072   0.106   1.375   0.365 -0.1100 -0.3316 -0.1962
 1269SOL     ow 5073   5.859   2.006   3.597  1.0342 -0.4379 -0.1344
 1269SOL     hw 5074   5.794   1.951   3.553  0.9667 -1.7640  1.5354
 1269SOL     hw 5075   5.943   1.974   3.566  0.9799 -1.2034  0.4963
 1269SOL     vw 5076   5.861   1.995   3.587  1.0180 -0.7138  0.1690
 1270SOL     ow 5077   6.776   2.107   4.232  0.0447  0.9552 -0.1899
 1270SOL     hw 5078   6.792   2.109   4.138 -1.0261  1.6120 -0.3743
 1270SOL     hw 5079   6.694   2.058   4.242  1.0928 -0.7577  0.5751
 1270SOL     vw 5080   6.767   2.100   4.221  0.0415  0.8157 -0.1132
 1271SOL     ow 5081   5.895   3.509   2.614  0.4734  0.7208 -0.1588
 1271SOL     hw 5082   5.975   3.550   2.645  0.1690  0.0002  1.7396
 1271SOL     hw 5083   5.875   3.442   2.679 -2.3345  1.6978  0.1569
 1271SOL     vw 5084   5.903   3.505   2.627  0.0627  0.7547  0.1333
 1272SOL     ow 5085   5.355   3.645   5.101  0.5221  0.0708 -0.5216
 1272SOL     hw 5086   5.413   3.587   5.051  1.2209 -0.0846  0.4425
 1272SOL     hw 5087   5.362   3.615   5.191  0.5340  1.3493 -0.0706
 1272SOL     vw 5088   5.364   3.633   5.106  0.6158  0.2190 -0.3345
 1273SOL     ow 5089   4.326   5.592   5.522 -0.1174 -0.2242  0.6146
 1273SOL     hw 5090   4.374   5.573   5.603  1.0274  0.2405  0.0620
 1273SOL     hw 5091   4.255   5.649   5.550 -1.8093 -2.7527  1.8162
 1273SOL     vw 5092   4.323   5.597   5.537 -0.1895 -0.4966  0.7002
 1274SOL     ow 5093   0.204   0.616   5.265  0.0564 -0.2921  0.3892
 1274SOL     hw 5094   0.178   0.623   5.357  0.8848 -0.2896  0.6273
 1274SOL     hw 5095   0.228   0.705   5.240  0.4406 -0.4051  0.3538
 1274SOL     vw 5096   0.203   0.629   5.274  0.2164 -0.3067  0.4163
 1275SOL     ow 5097   1.497   5.579   2.954 -0.4023 -0.3064 -0.2575
 1275SOL     hw 5098   1.453   5.619   2.880 -0.9888 -2.7156 -1.2975
 1275SOL     hw 5099   1.577   5.541   2.917 -0.0736 -0.4569  0.5812
 1275SOL     vw 5100   1.502   5.579   2.940 -0.4364 -0.6442 -0.2838
 1276SOL     ow 5101   4.183   0.509   6.152 -0.5114  0.2950  0.1599
 1276SOL     hw 5102   4.095   0.524   6.188 -1.6617 -0.0452 -2.2929
 1276SOL     hw 5103   4.187   0.565   6.074  1.8420  0.9994  0.7123
 1276SOL     vw 5104   4.172   0.519   6.147 -0.3526  0.3431 -0.0908
 1277SOL     ow 5105   5.013   4.676   4.368 -0.4804  0.4034  0.1285
 1277SOL     hw 5106   5.054   4.668   4.282 -0.9002  2.2903 -0.2845
 1277SOL     hw 5107   5.081   4.649   4.430 -0.6464 -2.4506 -0.7949
 1277SOL     vw 5108   5.027   4.672   4.365 -0.5579  0.2759 -0.0477
 1278SOL     ow 5109   2.518   3.387   6.882  0.4341  0.2281  0.3174
 1278SOL     hw 5110   2.451   3.366   6.817  1.3403  0.4199 -0.6984
 1278SOL     hw 5111   2.538   3.303   6.924 -0.2991  0.1396  0.5104
 1278SOL     vw 5112   2.512   3.373   6.879  0.4569  0.2418  0.2086
 1279SOL     ow 5113   6.070   3.264   6.511 -0.3332 -0.5147  0.1224
 1279SOL     hw 5114   6.094   3.295   6.424 -0.4293 -0.5374  0.0868
 1279SOL     hw 5115   5.982   3.299   6.525  0.5119  1.3627  1.1153
 1279SOL     vw 5116   6.061   3.273   6.501 -0.2346 -0.2700  0.2487
 1280SOL     ow 5117   4.726   6.236   5.385  0.1602 -0.0956 -0.3330
 1280SOL     hw 5118   4.805   6.291   5.382  0.9967 -1.3105 -2.4887
 1280SOL     hw 5119   4.752   6.155   5.342 -0.8895 -2.4973  3.1363
 1280SOL     vw 5120   4.740   6.233   5.379  0.1321 -0.5729 -0.1595
 1281SOL     ow 5121   5.725   1.424   0.137  0.7452 -0.0581 -0.5809
 1281SOL     hw 5122   5.650   1.416   0.078  0.9132 -0.6644 -0.7186
 1281SOL     hw 5123   5.795   1.374   0.095  0.1212 -2.7994  1.3497
 1281SOL     vw 5124   5.724   1.416   0.124  0.6852 -0.4998 -0.3443
 1282SOL     ow 5125   0.393   6.403   5.883  0.3381 -0.0563 -0.4941
 1282SOL     hw 5126   0.310   6.435   5.918 -0.4190 -1.8290 -0.5592
 1282SOL     hw 5127   0.395   6.310   5.905  1.9193 -0.2494 -1.2507
 1282SOL     vw 5128   0.383   6.395   5.890  0.4468 -0.3154 -0.6027
 1283SOL     ow 5129   5.087   0.691   0.992 -0.3540  0.5881 -0.6485
 1283SOL     hw 5130   5.137   0.769   1.013 -0.5325 -0.3247  4.4332
 1283SOL     hw 5131   5.003   0.703   1.037 -0.1510 -2.6018  0.9215
 1283SOL     vw 5132   5.082   0.703   1.001 -0.3510  0.0468  0.2291
 1284SOL     ow 5133   2.151   2.957   4.217 -0.2712 -0.0005 -0.2353
 1284SOL     hw 5134   2.231   2.979   4.264  0.6764  1.0914 -2.2418
 1284SOL     hw 5135   2.082   3.008   4.261  0.0155 -1.0771  1.6089
 1284SOL     vw 5136   2.152   2.967   4.229 -0.1084  0.0014 -0.2565
 1285SOL     ow 5137   1.971   6.596   2.385 -0.0892  0.5190 -0.1227
 1285SOL     hw 5138   1.970   6.635   2.298 -0.8995 -0.9814 -0.8203
 1285SOL     hw 5139   1.969   6.502   2.369 -2.1157  0.2148  1.5059
 1285SOL     vw 5140   1.971   6.589   2.371 -0.4634  0.2811  0.0001
 1286SOL     ow 5141   6.459   3.466   1.863 -0.0973  0.1840 -0.0762
 1286SOL     hw 5142   6.530   3.507   1.912 -0.3755 -0.6977  1.1120
 1286SOL     hw 5143   6.434   3.532   1.798 -0.3750  1.8233  1.6018
 1286SOL     vw 5144   6.465   3.480   1.861 -0.1707  0.2838  0.3019
 1287SOL     ow 5145   5.518   5.925   3.859  0.1072  0.2414  0.0044
 1287SOL     hw 5146   5.425   5.906   3.872  0.1388  0.1970  0.1648
 1287SOL     hw 5147   5.564   5.865   3.918  0.2179  0.5958  0.2860
 1287SOL     vw 5148   5.512   5.915   3.869  0.1256  0.2823  0.0626
 1288SOL     ow 5149   0.180   5.697   2.313 -0.0088  0.5548  0.5252
 1288SOL     hw 5150   0.161   5.773   2.257  1.4898  1.3289  1.0183
 1288SOL     hw 5151   0.111   5.699   2.380 -1.7426 -0.2945 -1.1315
 1288SOL     vw 5152   0.168   5.707   2.314 -0.0398  0.5448  0.3717
 1289SOL     ow 5153   3.327   4.430   6.549  0.6707  0.0629 -0.2452
 1289SOL     hw 5154   3.348   4.357   6.607  1.1305 -0.4383 -1.0279
 1289SOL     hw 5155   3.363   4.507   6.593 -1.2699  0.1057  1.4193
 1289SOL     vw 5156   3.335   4.430   6.563  0.4754  0.0021 -0.1290
 1290SOL     ow 5157   6.921   3.829   3.206  0.1181 -0.3945  0.2859
 1290SOL     hw 5158   6.848   3.839   3.267 -0.6508  0.7588 -0.7753
 1290SOL     hw 5159   6.963   3.747   3.232 -1.1092 -0.7079  1.3792
 1290SOL     vw 5160   6.917   3.819   3.217 -0.1452 -0.2836  0.2902
 1291SOL     ow 5161   0.153   5.474   3.001 -0.3757 -0.3498  0.2215
 1291SOL     hw 5162   0.217   5.403   2.989 -1.4697 -1.4322  0.5755
 1291SOL     hw 5163   0.134   5.504   2.912 -1.6827 -2.1677 -0.1796
 1291SOL     vw 5164   0.159   5.469   2.988 -0.6925 -0.7324  0.2153
 1292SOL     ow 5165   3.786   5.225   5.635  0.5481 -0.1703  0.1626
 1292SOL     hw 5166   3.731   5.177   5.697 -1.5023  0.1231 -1.3573
 1292SOL     hw 5167   3.848   5.160   5.602  1.3160 -0.4597  2.0318
 1292SOL     vw 5168   3.787   5.210   5.639  0.3790 -0.1698  0.2086
 1293SOL     ow 5169   3.760   0.742   1.981  0.7796 -0.5489 -0.6756
 1293SOL     hw 5170   3.733   0.759   1.891  2.2833 -0.6662 -1.1602
 1293SOL     hw 5171   3.852   0.768   1.985  0.3122  1.0782  1.2816
 1293SOL     vw 5172   3.768   0.748   1.970  0.9164 -0.3497 -0.4813
 1294SOL     ow 5173   6.536   1.750   4.440  0.1844  0.5936 -0.3711
 1294SOL     hw 5174   6.459   1.732   4.495  0.7147  0.1183  0.2266
 1294SOL     hw 5175   6.573   1.663   4.422 -0.6512  0.6226 -2.4888
 1294SOL     vw 5176   6.531   1.736   4.445  0.1442  0.5347 -0.5717
 1295SOL     ow 5177   4.484   4.880   6.619 -0.3562 -0.1312  0.5996
 1295SOL     hw 5178   4.411   4.858   6.677 -1.1845  3.1953  1.0209
 1295SOL     hw 5179   4.536   4.800   6.614 -2.6185 -1.8335  2.3916
 1295SOL     vw 5180   4.482   4.867   6.626 -0.7639  0.0832  0.8917
 1296SOL     ow 5181   3.250   6.432   5.472 -0.0151  0.0682  0.0266
 1296SOL     hw 5182   3.236   6.512   5.421 -1.1590 -1.1752 -1.6852
 1296SOL     hw 5183   3.310   6.379   5.419  2.6900  0.6609  2.2187
 1296SOL     vw 5184   3.256   6.436   5.459  0.1909 -0.0176  0.0899
 1297SOL     ow 5185   4.410   5.197   6.598  0.3823 -0.5244 -0.2017
 1297SOL     hw 5186   4.318   5.209   6.622  0.2245  2.9118 -2.0278
 1297SOL     hw 5187   4.418   5.236   6.511  3.5776 -0.7475 -0.1307
 1297SOL     vw 5188   4.399   5.203   6.589  0.7832 -0.1006 -0.4332
 1298SOL     ow 5189   6.956   0.383   3.989 -0.3010 -0.5430  0.0178
 1298SOL     hw 5190   7.010   0.305   4.004 -0.2866 -1.1816 -2.8221
 1298SOL     hw 5191   6.883   0.372   4.049  0.9882 -1.3894  1.5305
 1298SOL     vw 5192   6.954   0.371   3.999 -0.1287 -0.7389 -0.1574
 1299SOL     ow 5193   0.762   6.412   2.628 -0.0409  0.8189 -0.0253
 1299SOL     hw 5194   0.771   6.506   2.612  1.3754  0.7958  0.4751
 1299SOL     hw 5195   0.819   6.371   2.564 -0.9829  0.2587 -0.5250
 1299SOL     vw 5196   0.771   6.419   2.618  0.0217  0.7420 -0.0252
 1300SOL     ow 5197   2.809   1.585   1.181 -0.4779 -0.3159 -0.1122
 1300SOL     hw 5198   2.826   1.524   1.109 -2.0929  3.4145 -4.1091
 1300SOL     hw 5199   2.855   1.664   1.157  0.9315  0.5418  4.4369
 1300SOL     vw 5200   2.817   1.587   1.168 -0.5051  0.2893 -0.0394
 1301SOL     ow 5201   5.016   0.180   0.085 -0.4547 -0.4889 -0.0847
 1301SOL     hw 5202   4.994   0.270   0.061  0.2713 -0.2961 -0.0611
 1301SOL     hw 5203   5.084   0.190   0.152 -0.4548 -1.0557  0.0025
 1301SOL     vw 5204   5.022   0.193   0.091 -0.3591 -0.5382 -0.0701
 1302SOL     ow 5205   6.687   5.148   3.603 -0.0067  0.1061 -0.0953
 1302SOL     hw 5206   6.597   5.161   3.630 -0.9200 -1.0168 -2.3321
 1302SOL     hw 5207   6.683   5.141   3.508  2.7210  1.9939 -0.4587
 1302SOL     vw 5208   6.675   5.149   3.594  0.2329  0.2072 -0.4383
 1303SOL     ow 5209   2.577   4.397   4.676  0.0872 -0.0512  0.8668
 1303SOL     hw 5210   2.620   4.335   4.735 -2.2687  0.2841  3.1010
 1303SOL     hw 5211   2.544   4.466   4.733  1.7188  2.8431 -1.4341
 1303SOL     vw 5212   2.578   4.398   4.691 -0.0085  0.3746  0.8578
 1304SOL     ow 5213   1.051   4.419   3.459 -0.4759 -0.3014  0.2850
 1304SOL     hw 5214   1.071   4.442   3.550 -3.4837  0.2265  0.9365
 1304SOL     hw 5215   1.135   4.425   3.413  0.9908  0.1987  2.8599
 1304SOL     vw 5216   1.065   4.423   3.465 -0.6793 -0.1657  0.7106
 1305SOL     ow 5217   0.555   5.362   6.954  0.5014 -0.0822 -0.0660
 1305SOL     hw 5218   0.617   5.367   6.882  0.9936  0.9198  0.4035
 1305SOL     hw 5219   0.471   5.388   6.916  0.5724 -0.4272 -0.4658
 1305SOL     vw 5220   0.552   5.366   6.940  0.5757  0.0043 -0.0570
 1306SOL     ow 5221   4.015   0.364   1.112  0.1776 -0.2851  0.3725
 1306SOL     hw 5222   4.098   0.318   1.121  1.4339  1.1986 -2.3642
 1306SOL     hw 5223   4.040   0.453   1.085 -2.2950 -0.0197 -1.3496
 1306SOL     vw 5224   4.029   0.370   1.110  0.0169 -0.0543 -0.2158
 1307SOL     ow 5225   5.467   4.374   0.870  0.3519 -0.1315  0.3996
 1307SOL     hw 5226   5.383   4.333   0.892  0.9800 -1.6880  0.0719
 1307SOL     hw 5227   5.467   4.457   0.917 -0.4832 -1.0618  2.1443
 1307SOL     vw 5228   5.456   4.379   0.879  0.3245 -0.4599  0.5866
 1308SOL     ow 5229   3.652   4.838   4.196  0.6889 -0.2722 -0.3327
 1308SOL     hw 5230   3.729   4.781   4.191  0.3062 -0.8974  0.6492
 1308SOL     hw 5231   3.615   4.820   4.282 -0.5240  0.0690 -0.7731
 1308SOL     vw 5232   3.658   4.828   4.206  0.4785 -0.3097 -0.2611
 1309SOL     ow 5233   4.194   5.616   0.142 -0.2680 -0.2377 -0.1227
 1309SOL     hw 5234   4.267   5.556   0.131 -1.1443 -1.6169  1.2173
 1309SOL     hw 5235   4.199   5.644   0.233 -1.1174  0.0448 -0.1502
 1309SOL     vw 5236   4.204   5.612   0.153 -0.4957 -0.3827  0.0505
 1310SOL     ow 5237   0.031   0.907   1.696  0.1733 -0.3043  0.0091
 1310SOL     hw 5238   0.098   0.972   1.718 -0.2507 -0.0148  0.4650
 1310SOL     hw 5239   0.012   0.923   1.604 -0.1554  0.4422  0.1915
 1310SOL     vw 5240   0.037   0.918   1.687  0.0741 -0.1676  0.0933
 1311SOL     ow 5241   4.955   1.166   5.602 -0.0364  0.4819 -0.2097
 1311SOL     hw 5242   4.874   1.151   5.553  0.6851  0.0324 -1.2987
 1311SOL     hw 5243   4.938   1.246   5.651 -1.5512 -0.2242  0.4910
 1311SOL     vw 5244   4.942   1.175   5.602 -0.1411  0.3294 -0.2608
 1312SOL     ow 5245   6.922   6.759   1.029  0.1046 -0.4168  0.0643
 1312SOL     hw 5246   6.999   6.815   1.028  0.1029 -0.4059  0.6077
 1312SOL     hw 5247   6.860   6.803   1.086 -0.4045 -0.3042 -0.5554
 1312SOL     vw 5248   6.924   6.772   1.036  0.0370 -0.4005  0.0543
 1313SOL     ow 5249   2.603   4.523   6.931 -0.3897  0.2437  0.2723
 1313SOL     hw 5250   2.520   4.476   6.919 -0.6353  0.3919  1.2919
 1313SOL     hw 5251   2.668   4.453   6.935 -0.5620  0.0775  0.2489
 1313SOL     vw 5252   2.600   4.507   6.930 -0.4448  0.2415  0.4036
 1314SOL     ow 5253   6.404   5.244   3.690  0.5034 -0.1754 -0.2060
 1314SOL     hw 5254   6.467   5.283   3.751  1.7448 -1.5612 -0.5790
 1314SOL     hw 5255   6.405   5.302   3.614 -0.1452  0.8797  0.5544
 1314SOL     vw 5256   6.412   5.257   3.688  0.5815 -0.2193 -0.1547
 1315SOL     ow 5257   5.443   6.810   6.977  0.3373  0.0878 -0.4618
 1315SOL     hw 5258   5.450   6.845   6.888 -1.7605 -2.6430 -1.8608
 1315SOL     hw 5259   5.412   6.884   7.029  0.0132  1.3557 -2.3347
 1315SOL     vw 5260   5.440   6.824   6.972  0.0179 -0.1051 -0.8936
 1316SOL     ow 5261   5.925   5.109   6.121  0.2417  0.5978  0.7995
 1316SOL     hw 5262   5.936   5.204   6.127 -0.0036  0.6028  1.1648
 1316SOL     hw 5263   5.981   5.074   6.190 -2.1412  0.6297  2.8980
 1316SOL     vw 5264   5.934   5.117   6.130 -0.1051  0.6027  1.1249
 1317SOL     ow 5265   2.037   0.341   4.359 -0.6355  0.0855 -0.1438
 1317SOL     hw 5266   2.014   0.426   4.319 -2.0753 -0.1500  0.1241
 1317SOL     hw 5267   2.097   0.301   4.296 -0.5593  0.9713 -0.6593
 1317SOL     vw 5268   2.042   0.347   4.345 -0.8154  0.1713 -0.1767
 1318SOL     ow 5269   6.648   5.046   5.830 -0.2167 -0.1053  0.3389
 1318SOL     hw 5270   6.705   5.065   5.755 -0.3882 -0.0552  0.2187
 1318SOL     hw 5271   6.639   5.130   5.875 -0.4750 -0.0310  0.1582
 1318SOL     vw 5272   6.654   5.060   5.826 -0.2735 -0.0889  0.2992
 1319SOL     ow 5273   6.815   0.696   2.859  0.4829 -0.0307 -0.1136
 1319SOL     hw 5274   6.877   0.734   2.922 -0.7097  0.2168  0.9566
 1319SOL     hw 5275   6.782   0.771   2.810 -1.1524  0.2662  1.3469
 1319SOL     vw 5276   6.819   0.711   2.861  0.1099  0.0411  0.2203
 1320SOL     ow 5277   1.055   5.032   4.679 -0.4541  0.7280 -0.6683
 1320SOL     hw 5278   1.137   5.028   4.631  0.1362 -2.3969  0.3466
 1320SOL     hw 5279   0.988   5.049   4.612  0.3328 -3.3022 -2.8132
 1320SOL     vw 5280   1.057   5.034   4.664 -0.2724 -0.2158 -0.8173
 1321SOL     ow 5281   1.166   4.873   1.158  0.4160  0.2288  0.2286
 1321SOL     hw 5282   1.251   4.830   1.162  0.1944 -0.3303 -0.7480
 1321SOL     hw 5283   1.143   4.891   1.249 -0.0270 -2.8523  0.8297
 1321SOL     vw 5284   1.174   4.870   1.170  0.3283 -0.2513  0.1790
 1322SOL     ow 5285   6.169   0.643   2.017  0.1679 -0.4295  0.0222
 1322SOL     hw 5286   6.157   0.662   1.924 -0.3612  2.7944  0.6270
 1322SOL     hw 5287   6.260   0.668   2.035 -0.3534  1.0891  0.7360
 1322SOL     vw 5288   6.179   0.649   2.007  0.0293  0.1962  0.1961
 1323SOL     ow 5289   4.727   6.220   0.551 -1.0080  0.1243  0.3543
 1323SOL     hw 5290   4.660   6.152   0.542 -0.6466 -0.2943  0.8089
 1323SOL     hw 5291   4.745   6.247   0.461  1.1647 -2.6691 -0.1844
 1323SOL     vw 5292   4.720   6.215   0.538 -0.6738 -0.2995  0.3432
 1324SOL     ow 5293   5.476   3.936   4.883 -0.3164 -0.0707  0.6641
 1324SOL     hw 5294   5.502   3.901   4.798 -0.8244 -1.1026  0.9096
 1324SOL     hw 5295   5.406   3.998   4.863 -0.7367 -0.6354  0.3566
 1324SOL     vw 5296   5.470   3.939   4.869 -0.4389 -0.2813  0.6559
 1325SOL     ow 5297   5.480   5.200   6.685 -0.3920 -0.5118 -0.0820
 1325SOL     hw 5298   5.415   5.268   6.670  1.8097  1.2001 -2.5506
 1325SOL     hw 5299   5.536   5.201   6.608  2.9590 -1.4708  2.0873
 1325SOL     vw 5300   5.479   5.209   6.673  0.3405 -0.4125 -0.1216
 1326SOL     ow 5301   2.659   4.419   0.567 -0.1947  0.3127  0.4109
 1326SOL     hw 5302   2.578   4.466   0.586  0.1992  0.6936  1.2541
 1326SOL     hw 5303   2.635   4.353   0.502 -0.6620  1.9924 -1.1854
 1326SOL     vw 5304   2.646   4.416   0.561 -0.2044  0.5848  0.3115
 1327SOL     ow 5305   5.217   5.319   1.245  0.7400 -0.1243  0.3687
 1327SOL     hw 5306   5.155   5.297   1.314  0.1786  0.3055  0.0095
 1327SOL     hw 5307   5.185   5.402   1.209  1.0566 -0.3088 -0.3632
 1327SOL     vw 5308   5.205   5.327   1.249  0.7079 -0.0920  0.2248
 1328SOL     ow 5309   3.020   2.825   3.832  0.8024  0.0227 -0.2669
 1328SOL     hw 5310   3.002   2.832   3.738 -2.8422 -3.0032 -0.0646
 1328SOL     hw 5311   2.943   2.863   3.874  1.1810 -0.9721  1.4237
 1328SOL     vw 5312   3.007   2.831   3.825  0.3716 -0.5077 -0.0172
 1329SOL     ow 5313   5.701   1.710   0.979 -0.2355  0.3786  0.9128
 1329SOL     hw 5314   5.773   1.650   0.998 -0.5784  0.0148  1.0878
 1329SOL     hw 5315   5.732   1.762   0.904 -1.8154 -3.4761 -2.8143
 1329SOL     vw 5316   5.715   1.709   0.972 -0.4895 -0.1780  0.4442
 1330SOL     ow 5317   6.139   1.069   1.012 -0.4868 -0.5304  0.2601
 1330SOL     hw 5318   6.173   1.158   1.021  1.5826 -1.4186  2.1028
 1330SOL     hw 5319   6.101   1.067   0.924 -0.6857  2.1665  0.1880
 1330SOL     vw 5320   6.139   1.081   1.002 -0.2401 -0.2918  0.4938
 1331SOL     ow 5321   0.898   1.171   4.201 -0.0301  0.2694  0.1719
 1331SOL     hw 5322   0.926   1.084   4.229  2.4555  1.5115  2.0385
 1331SOL     hw 5323   0.946   1.187   4.120  1.3292  0.7015  1.0287
 1331SOL     vw 5324   0.908   1.162   4.194  0.4772  0.4903  0.5312
 1332SOL     ow 5325   6.757   5.385   1.380  0.1748 -0.0524  0.2188
 1332SOL     hw 5326   6.767   5.393   1.285  0.7727 -1.1800  0.1669
 1332SOL     hw 5327   6.846   5.374   1.413 -0.1746 -1.7672  0.6796
 1332SOL     vw 5328   6.770   5.384   1.372  0.2077 -0.4275  0.2727
 1333SOL     ow 5329   6.620   6.991   0.364  0.3822  0.4605 -0.4877
 1333SOL     hw 5330   6.556   6.920   0.360  1.8356 -1.0411  0.9832
 1333SOL     hw 5331   6.571   7.066   0.398 -0.5793 -0.7029  0.8201
 1333SOL     vw 5332   6.605   6.991   0.368  0.4473  0.1087 -0.1211
 1334SOL     ow 5333   6.831   1.653   5.637 -0.2601 -0.2967  0.4954
 1334SOL     hw 5334   6.822   1.580   5.698 -2.0657 -0.0685  0.5520
 1334SOL     hw 5335   6.742   1.684   5.622 -0.0191 -0.7958 -2.8545
 1334SOL     vw 5336   6.818   1.647   5.643 -0.4666 -0.3324  0.0608
 1335SOL     ow 5337   2.372   3.351   6.338 -0.6012  0.3372 -0.4129
 1335SOL     hw 5338   2.301   3.416   6.338 -0.0066  1.0064  0.2571
 1335SOL     hw 5339   2.329   3.269   6.363 -1.5698  0.2076 -2.3351
 1335SOL     vw 5340   2.357   3.349   6.341 -0.6505  0.4082 -0.5782
 1336SOL     ow 5341   2.132   1.455   1.816  0.1194 -0.0056 -0.5940
 1336SOL     hw 5342   2.150   1.374   1.863 -1.3647  0.1272  0.2367
 1336SOL     hw 5343   2.122   1.521   1.884 -1.3353  0.3312 -1.1079
 1336SOL     vw 5344   2.133   1.453   1.831 -0.2683  0.0563 -0.5521
 1337SOL     ow 5345   2.213   4.932   5.683 -0.3297  0.5072  0.8050
 1337SOL     hw 5346   2.202   4.843   5.718  0.5040 -0.2859 -0.8495
 1337SOL     hw 5347   2.251   4.981   5.756 -0.7944 -0.4837  1.7545
 1337SOL     vw 5348   2.217   4.926   5.697 -0.2810  0.2716  0.7117
 1338SOL     ow 5349   5.763   2.637   1.388  0.2741  0.4357 -0.1772
 1338SOL     hw 5350   5.675   2.607   1.412  0.3272  1.3052  1.2051
 1338SOL     hw 5351   5.789   2.578   1.317 -1.0688 -0.4045 -0.0219
 1338SOL     vw 5352   5.755   2.625   1.382  0.1037  0.4398  0.0256
 1339SOL     ow 5353   4.564   4.027   3.493 -0.1253  0.3895  0.4028
 1339SOL     hw 5354   4.537   4.104   3.542 -0.8464  0.7724 -0.5814
 1339SOL     hw 5355   4.519   4.034   3.409  0.5673 -0.5960 -0.0733
 1339SOL     vw 5356   4.555   4.038   3.488 -0.1292  0.3102  0.2102
 1340SOL     ow 5357   3.780   5.791   6.231  0.2494  0.1158  0.5452
 1340SOL     hw 5358   3.758   5.795   6.138 -2.1641  0.1058  1.0395
 1340SOL     hw 5359   3.713   5.845   6.273  1.1489 -0.0789  2.2987
 1340SOL     vw 5360   3.768   5.799   6.224  0.0496  0.0889  0.8416
 1341SOL     ow 5361   2.905   3.506   0.164 -0.3191 -0.2030  0.5322
 1341SOL     hw 5362   2.855   3.434   0.204 -0.2157  0.0452  1.1213
 1341SOL     hw 5363   2.868   3.514   0.076  0.4651 -1.7534  0.0281
 1341SOL     vw 5364   2.893   3.498   0.158 -0.2021 -0.3748  0.5434
 1342SOL     ow 5365   1.571   1.226   6.130 -0.4169  0.2124 -0.0164
 1342SOL     hw 5366   1.567   1.157   6.197  0.6801 -0.8165 -0.9556
 1342SOL     hw 5367   1.567   1.308   6.179 -3.2451 -0.4431  1.0485
 1342SOL     vw 5368   1.570   1.227   6.145 -0.6453 -0.0098  0.0000
 1343SOL     ow 5369   0.793   0.051   4.629 -0.0454 -0.1751  0.4184
 1343SOL     hw 5370   0.713   0.064   4.679  0.0931  0.2025  0.5476
 1343SOL     hw 5371   0.844  -0.011   4.681 -0.0348 -0.0234  0.5896
 1343SOL     vw 5372   0.789   0.045   4.643 -0.0257 -0.1053  0.4580
 1344SOL     ow 5373   0.822   4.063   5.872 -0.0633  0.0572  0.1549
 1344SOL     hw 5374   0.883   4.062   5.945 -0.3992  0.5788  0.4465
 1344SOL     hw 5375   0.848   3.988   5.818  2.4836  1.7193 -1.1109
 1344SOL     vw 5376   0.833   4.053   5.874  0.2284  0.3455  0.0262
 1345SOL     ow 5377   5.759   3.749   2.426  0.1101 -0.1707 -0.1318
 1345SOL     hw 5378   5.804   3.811   2.484 -2.4303  0.9573  0.7445
 1345SOL     hw 5379   5.697   3.802   2.377  0.7054 -1.4475 -2.4418
 1345SOL     vw 5380   5.757   3.764   2.427 -0.1464 -0.1901 -0.3209
 1346SOL     ow 5381   3.926   6.922   0.117 -0.3407  0.0511  0.1076
 1346SOL     hw 5382   4.016   6.912   0.148  0.9270 -0.2342 -3.2436
 1346SOL     hw 5383   3.914   7.016   0.106 -1.7696  0.4383  3.6637
 1346SOL     vw 5384   3.936   6.933   0.119 -0.3619  0.0644  0.1346
 1347SOL     ow 5385   2.164   0.542   6.659  0.4848  0.1227 -0.0082
 1347SOL     hw 5386   2.177   0.633   6.632 -0.9937  0.1369 -0.7834
 1347SOL     hw 5387   2.128   0.499   6.581  2.7286 -1.5588 -0.2177
 1347SOL     vw 5388   2.161   0.549   6.645  0.5857 -0.0972 -0.1383
 1348SOL     ow 5389   2.364   3.727   2.963 -0.1506 -0.3935 -0.1974
 1348SOL     hw 5390   2.346   3.820   2.949  0.6611 -0.1165  0.5245
 1348SOL     hw 5391   2.291   3.682   2.921 -1.4615  0.6136  0.9167
 1348SOL     vw 5392   2.352   3.734   2.955 -0.2165 -0.2240  0.0449
 1349SOL     ow 5393   4.987   4.647   0.321 -0.1245  0.8673 -0.1590
 1349SOL     hw 5394   5.014   4.736   0.297  2.2622  0.1480 -0.4214
 1349SOL     hw 5395   5.038   4.591   0.263 -1.1894 -0.7138  0.3779
 1349SOL     vw 5396   4.997   4.652   0.310  0.0501  0.5639 -0.1227
 1350SOL     ow 5397   1.515   0.358   3.461 -0.3509  0.1925  0.1663
 1350SOL     hw 5398   1.462   0.436   3.472  3.0806  2.5369  2.0394
 1350SOL     hw 5399   1.574   0.378   3.389  1.0137 -0.3189  1.0898
 1350SOL     vw 5400   1.516   0.371   3.453  0.2818  0.4344  0.5352
 1351SOL     ow 5401   5.282   1.925   6.251  0.3032 -0.2786  0.1392
 1351SOL     hw 5402   5.309   1.863   6.319 -1.8843 -0.8907  0.4989
 1351SOL     hw 5403   5.254   1.870   6.177  1.2594  0.3612 -0.7371
 1351SOL     vw 5404   5.282   1.909   6.250  0.1407 -0.2750  0.0710
 1352SOL     ow 5405   4.939   0.435   0.096  0.0243  0.0501 -0.0510
 1352SOL     hw 5406   4.859   0.389   0.121 -0.3841  1.4516  1.4285
 1352SOL     hw 5407   4.913   0.493   0.025 -0.1048 -0.0313 -0.0694
 1352SOL     vw 5408   4.925   0.436   0.090 -0.0467  0.2243  0.1418
 1353SOL     ow 5409   3.199   5.004   6.987  0.4063  0.3843 -0.4997
 1353SOL     hw 5410   3.113   5.039   6.963  0.3347  0.9557  0.5755
 1353SOL     hw 5411   3.252   5.014   6.907 -0.2670  0.8544 -0.8924
 1353SOL     vw 5412   3.195   5.010   6.973  0.3080  0.5214 -0.4096
 1354SOL     ow 5413   5.393   4.540   6.679 -0.5624  0.3878  1.0083
 1354SOL     hw 5414   5.342   4.612   6.716 -1.9938  1.7609 -3.0699
 1354SOL     hw 5415   5.336   4.503   6.612  2.4034 -0.4317 -1.2670
 1354SOL     vw 5416   5.379   4.545   6.675 -0.3603  0.4609  0.1700
 1355SOL     ow 5417   0.584   6.336   2.871 -0.2497  0.1650 -0.1564
 1355SOL     hw 5418   0.523   6.309   2.940 -1.3479  2.1307 -0.2816
 1355SOL     hw 5419   0.605   6.427   2.892 -1.0143  0.9957 -2.6440
 1355SOL     vw 5420   0.579   6.345   2.883 -0.4954  0.5343 -0.5013
 1356SOL     ow 5421   6.683   2.627   0.810  0.2597  0.2238  0.0399
 1356SOL     hw 5422   6.779   2.631   0.807  0.3831 -1.9804 -0.3041
 1356SOL     hw 5423   6.655   2.687   0.741  1.4336  0.2179 -0.4689
 1356SOL     vw 5424   6.692   2.635   0.800  0.4311 -0.0677 -0.0726
 1357SOL     ow 5425   2.879   6.968   1.751 -0.3027 -0.3528 -0.2378
 1357SOL     hw 5426   2.857   7.041   1.692 -0.7015  0.7605  1.2326
 1357SOL     hw 5427   2.862   6.890   1.699 -1.4238  0.5753 -1.3358
 1357SOL     vw 5428   2.874   6.968   1.736 -0.5032 -0.0832 -0.1886
 1358SOL     ow 5429   2.933   6.005   2.911  0.0388 -0.1647  0.0290
 1358SOL     hw 5430   3.001   5.948   2.874 -0.1818 -0.0795 -0.5090
 1358SOL     hw 5431   2.906   5.959   2.991  2.2660  0.8831  1.4751
 1358SOL     vw 5432   2.938   5.991   2.917  0.3034 -0.0150  0.1488
 1359SOL     ow 5433   6.448   3.336   4.574 -0.3226  0.0293  0.1322
 1359SOL     hw 5434   6.379   3.382   4.621  0.4564  0.7706  0.5703
 1359SOL     hw 5435   6.445   3.372   4.485 -0.5748 -0.0347  0.1134
 1359SOL     vw 5436   6.439   3.347   4.569 -0.2532  0.1186  0.1879
 1360SOL     ow 5437   1.383   4.605   2.962  0.2106 -0.9167  0.0926
 1360SOL     hw 5438   1.328   4.652   3.025  0.0190 -1.2706  0.1948
 1360SOL     hw 5439   1.435   4.545   3.015  0.0175 -1.2465 -0.0844
 1360SOL     vw 5440   1.382   4.603   2.978  0.1598 -1.0071  0.0830
 1361SOL     ow 5441   6.172   0.008   2.109 -0.0442  0.4184 -0.4320
 1361SOL     hw 5442   6.197   0.023   2.017  0.2432 -0.2742 -0.4793
 1361SOL     hw 5443   6.094  -0.047   2.103  1.3124 -1.6606 -0.2939
 1361SOL     vw 5444   6.165   0.003   2.096  0.1729  0.0527 -0.4200
 1362SOL     ow 5445   6.894   0.908   2.164  0.0481  0.4980 -1.0464
 1362SOL     hw 5446   6.818   0.849   2.169  1.7531 -1.7348  0.6586
 1362SOL     hw 5447   6.881   0.969   2.236  0.3516 -0.5935 -0.0285
 1362SOL     vw 5448   6.882   0.908   2.174  0.3130  0.0594 -0.6871
 1363SOL     ow 5449   5.594   6.553   6.956 -0.1104  0.3958  0.2614
 1363SOL     hw 5450   5.530   6.623   6.953 -3.1303 -2.1278  0.6650
 1363SOL     hw 5451   5.579   6.502   6.877  1.4714 -0.2553  0.3361
 1363SOL     vw 5452   5.584   6.555   6.945 -0.2999 -0.0229  0.3250
 1364SOL     ow 5453   0.819   0.106   1.710  0.0467 -0.7147  0.7776
 1364SOL     hw 5454   0.843   0.052   1.635 -1.9946  0.9917 -1.2777
 1364SOL     hw 5455   0.873   0.075   1.781  0.9568 -3.5243 -0.9996
 1364SOL     vw 5456   0.829   0.095   1.709 -0.1025 -0.8602  0.2720
 1365SOL     ow 5457   0.959   1.040   1.728  0.1460  0.2607 -0.1258
 1365SOL     hw 5458   0.878   0.991   1.743 -0.0755  0.2451 -1.2492
 1365SOL     hw 5459   0.974   1.087   1.810 -0.5455 -0.3910  0.3863
 1365SOL     vw 5460   0.950   1.040   1.741  0.0255  0.1728 -0.2065
 1366SOL     ow 5461   3.167   1.990   6.978 -0.7553 -0.0705  0.2517
 1366SOL     hw 5462   3.224   2.046   7.032  0.3173 -0.7674 -0.1147
 1366SOL     hw 5463   3.198   2.003   6.889 -0.7238 -0.9771  0.1256
 1366SOL     vw 5464   3.179   1.999   6.974 -0.6096 -0.2821  0.1867
 1367SOL     ow 5465   6.918   0.344   5.911  0.3862 -0.4385 -0.2317
 1367SOL     hw 5466   6.841   0.304   5.951 -0.0514  2.8251  2.6746
 1367SOL     hw 5467   6.891   0.364   5.822 -1.2296 -1.5532 -0.0345
 1367SOL     vw 5468   6.904   0.342   5.905  0.1152 -0.1550  0.1781
 1368SOL     ow 5469   6.674   2.887   6.600  0.3433 -0.6350 -0.1365
 1368SOL     hw 5470   6.714   2.973   6.586 -1.5321  0.1181 -1.2704
 1368SOL     hw 5471   6.658   2.883   6.695 -1.2038  1.1143 -0.2627
 1368SOL     vw 5472   6.677   2.898   6.611 -0.1082 -0.3049 -0.3028
 1369SOL     ow 5473   6.385   4.536   1.728 -0.7185  0.1120  0.2072
 1369SOL     hw 5474   6.321   4.481   1.684 -0.3806 -2.0404  2.2296
 1369SOL     hw 5475   6.470   4.504   1.698 -0.5159  0.7543  0.0631
 1369SOL     vw 5476   6.388   4.525   1.718 -0.6473 -0.0873  0.4550
 1370SOL     ow 5477   6.070   3.891   3.439 -0.3222  0.2116 -0.0263
 1370SOL     hw 5478   6.007   3.962   3.453 -0.2090 -0.2433  3.5438
 1370SOL     hw 5479   6.015   3.813   3.427 -0.4190  0.3732 -0.6924
 1370SOL     vw 5480   6.054   3.890   3.439 -0.3200  0.1729  0.3569
 1371SOL     ow 5481   0.986   2.232   6.160  0.3994  0.9265 -0.2911
 1371SOL     hw 5482   0.958   2.171   6.228  0.9293  0.7748 -0.2057
 1371SOL     hw 5483   0.954   2.194   6.078 -0.1566  1.0614 -0.1388
 1371SOL     vw 5484   0.978   2.219   6.158  0.3960  0.9242 -0.2599
 1372SOL     ow 5485   3.410   4.227   3.762  0.2126  0.0681 -0.2193
 1372SOL     hw 5486   3.460   4.146   3.779 -1.4078 -0.9903 -0.2667
 1372SOL     hw 5487   3.332   4.197   3.717 -0.1293  1.7747 -0.8083
 1372SOL     vw 5488   3.406   4.212   3.758 -0.0461  0.1538 -0.3033
 1373SOL     ow 5489   3.644   4.186   3.128 -0.1921  0.4808 -0.5376
 1373SOL     hw 5490   3.620   4.104   3.172 -0.0384  1.2090  0.9884
 1373SOL     hw 5491   3.717   4.162   3.070  0.2519 -0.3590  0.3335
 1373SOL     vw 5492   3.651   4.172   3.126 -0.1132  0.4661 -0.2214
 1374SOL     ow 5493   5.043   1.743   4.007  0.2987  0.1050 -0.8240
 1374SOL     hw 5494   5.043   1.660   4.056  1.3751 -0.3259 -1.5102
 1374SOL     hw 5495   4.989   1.802   4.059  1.3857 -0.3357  0.8914
 1374SOL     vw 5496   5.036   1.739   4.021  0.5841 -0.0100 -0.6881
 1375SOL     ow 5497   1.639   1.136   4.919  0.0989 -0.1536  0.3655
 1375SOL     hw 5498   1.574   1.066   4.909  0.3779 -0.5438  1.2015
 1375SOL     hw 5499   1.723   1.092   4.917  0.3175  0.2614  0.0877
 1375SOL     vw 5500   1.641   1.121   4.917  0.1646 -0.1503  0.4394
 1376SOL     ow 5501   2.831   1.069   5.198 -0.5867 -0.3041 -0.0880
 1376SOL     hw 5502   2.876   1.002   5.147 -1.4609  0.4743 -1.9729
 1376SOL     hw 5503   2.765   1.021   5.247  1.1132 -1.2392  1.4060
 1376SOL     vw 5504   2.828   1.054   5.198 -0.4778 -0.3248 -0.1395
 1377SOL     ow 5505   1.964   1.383   1.535  0.2618 -0.1680 -0.4756
 1377SOL     hw 5506   1.869   1.371   1.527  0.3313 -1.7333  0.6141
 1377SOL     hw 5507   2.002   1.320   1.475  0.6037 -1.3167  0.8874
 1377SOL     vw 5508   1.957   1.373   1.526  0.3160 -0.5260 -0.1519
 1378SOL     ow 5509   5.950   0.133   5.200 -0.1666  0.5192 -0.1449
 1378SOL     hw 5510   5.916   0.066   5.141  2.1981  0.1677 -1.2040
 1378SOL     hw 5511   5.961   0.210   5.144  2.0581  0.1963 -0.2258
 1378SOL     vw 5512   5.947   0.135   5.185  0.4389  0.4302 -0.2954
 1379SOL     ow 5513   6.385   2.653   5.753 -0.9002 -0.2938 -0.1719
 1379SOL     hw 5514   6.344   2.729   5.795  0.7510  1.0506 -0.8850
 1379SOL     hw 5515   6.313   2.610   5.707 -1.7559  1.3249 -0.4474
 1379SOL     vw 5516   6.370   2.658   5.752 -0.7956  0.0970 -0.3026
 1380SOL     ow 5517   3.756   6.960   6.963 -0.0215 -0.8750  0.1052
 1380SOL     hw 5518   3.699   6.994   6.895  0.0832  1.6025  1.1622
 1380SOL     hw 5519   3.832   6.925   6.916  0.2935  1.2538 -1.0611
 1380SOL     vw 5520   3.759   6.960   6.948  0.0340 -0.2673  0.0908
 1381SOL     ow 5521   2.361   2.021   2.204  0.9433 -0.3925 -0.0005
 1381SOL     hw 5522   2.440   2.069   2.228  0.1279  2.2511 -2.1196
 1381SOL     hw 5523   2.375   1.997   2.113 -1.2029  1.4872 -0.9252
 1381SOL     vw 5524   2.373   2.024   2.195  0.5524  0.2042 -0.4020
 1382SOL     ow 5525   3.717   6.210   0.371  0.0934 -0.3887 -0.5598
 1382SOL     hw 5526   3.631   6.192   0.410  0.0563 -0.4101 -0.6522
 1382SOL     hw 5527   3.779   6.164   0.428  0.0753 -0.0835 -0.2885
 1382SOL     vw 5528   3.713   6.201   0.384  0.0861 -0.3514 -0.5362
 1383SOL     ow 5529   4.352   6.415   2.168  0.2933  0.8434  0.2600
 1383SOL     hw 5530   4.403   6.488   2.134  2.1126  0.5849  2.2748
 1383SOL     hw 5531   4.377   6.408   2.260 -1.0678 -1.2797  0.5458
 1383SOL     vw 5532   4.362   6.423   2.175  0.3536  0.5291  0.5636
 1384SOL     ow 5533   5.417   3.113   1.029 -0.1090  0.3624 -0.7758
 1384SOL     hw 5534   5.413   3.092   1.122 -2.4889  0.5617 -0.7871
 1384SOL     hw 5535   5.455   3.035   0.988 -0.7510 -0.4508  0.1446
 1384SOL     vw 5536   5.422   3.100   1.036 -0.5078  0.2815 -0.6559
 1385SOL     ow 5537   2.563   3.572   3.100 -0.0654 -0.3793 -0.2853
 1385SOL     hw 5538   2.633   3.618   3.053  2.2301 -2.5498  0.7836
 1385SOL     hw 5539   2.597   3.484   3.114 -2.4722 -1.1377  1.5474
 1385SOL     vw 5540   2.577   3.567   3.096 -0.0803 -0.7658  0.0976
 1386SOL     ow 5541   0.670   0.869   4.762 -0.4510 -0.8349  0.2374
 1386SOL     hw 5542   0.591   0.923   4.770 -0.0595 -0.5921  3.8965
 1386SOL     hw 5543   0.643   0.797   4.704 -2.5949  0.4662 -0.5089
 1386SOL     vw 5544   0.656   0.866   4.755 -0.6822 -0.6312  0.6218
 1387SOL     ow 5545   3.054   3.943   2.087 -0.5276  0.6114  0.1587
 1387SOL     hw 5546   3.050   3.971   2.179 -0.6981  1.8329 -0.2010
 1387SOL     hw 5547   2.980   3.883   2.077 -0.6013  0.5895  0.7769
 1387SOL     vw 5548   3.044   3.939   2.098 -0.5598  0.7695  0.1929
 1388SOL     ow 5549   2.493   5.748   6.975 -0.4056 -0.2475  0.4595
 1388SOL     hw 5550   2.543   5.685   7.026 -0.9326  0.1104  1.4602
 1388SOL     hw 5551   2.551   5.773   6.903  0.8313  0.1221  1.5561
 1388SOL     vw 5552   2.507   5.743   6.972 -0.3119 -0.1514  0.7365
 1389SOL     ow 5553   1.025   5.070   6.380 -0.4388 -0.1680 -0.4917
 1389SOL     hw 5554   0.952   5.008   6.373 -0.1919 -0.2237 -3.7200
 1389SOL     hw 5555   1.101   5.021   6.348  0.5724  0.6319  0.5906
 1389SOL     vw 5556   1.026   5.055   6.375 -0.2728 -0.0696 -0.7746
 1390SOL     ow 5557   3.184   3.857   5.969 -0.2975 -0.3618  0.7324
 1390SOL     hw 5558   3.147   3.834   6.054 -0.5750  0.0352  0.7185
 1390SOL     hw 5559   3.137   3.935   5.942  2.1881  1.6663  1.8648
 1390SOL     vw 5560   3.173   3.864   5.976 -0.0061 -0.0418  0.8800
 1391SOL     ow 5561   1.641   3.220   0.461 -0.1625  0.2090 -0.4267
 1391SOL     hw 5562   1.547   3.204   0.472 -0.2896 -0.7378 -2.3641
 1391SOL     hw 5563   1.678   3.133   0.445  1.1196  0.5332  0.6476
 1391SOL     vw 5564   1.633   3.206   0.460 -0.0101  0.1268 -0.5406
 1392SOL     ow 5565   2.754   1.793   4.233 -0.3723 -0.2087  0.0575
 1392SOL     hw 5566   2.845   1.822   4.227 -0.3917  0.0008  0.6658
 1392SOL     hw 5567   2.704   1.874   4.239 -0.4816 -0.3390  1.0923
 1392SOL     vw 5568   2.760   1.807   4.233 -0.3892 -0.1982  0.2737
 1393SOL     ow 5569   2.235   0.133   6.935  0.6317  0.4366 -0.4775
 1393SOL     hw 5570   2.301   0.147   7.002  0.6485 -0.9546 -0.1795
 1393SOL     hw 5571   2.189   0.053   6.962 -0.2495  0.6004 -1.4110
 1393SOL     vw 5572   2.237   0.124   6.947  0.5178  0.2746 -0.5612
 1394SOL     ow 5573   6.235   5.030   4.645  0.2195 -0.3985 -0.2887
 1394SOL     hw 5574   6.163   5.033   4.708 -0.5109  1.3438 -1.1458
 1394SOL     hw 5575   6.193   5.015   4.561  0.4354  3.3817 -1.2352
 1394SOL     vw 5576   6.220   5.029   4.642  0.1516  0.3300 -0.5269
 1395SOL     ow 5577   3.019   7.012   6.720 -0.5733  0.4169 -0.4139
 1395SOL     hw 5578   3.078   7.082   6.748  0.5634  0.1144 -1.9186
 1395SOL     hw 5579   3.055   6.933   6.759 -0.4375  0.3379 -0.6990
 1395SOL     vw 5580   3.032   7.011   6.729 -0.4053  0.3667 -0.6499
 1396SOL     ow 5581   2.865   3.034   1.807 -0.0196 -0.2590 -0.1910
 1396SOL     hw 5582   2.774   3.046   1.832 -0.0312 -0.8427  0.0547
 1396SOL     hw 5583   2.915   3.082   1.873 -0.0457 -1.8344  1.0178
 1396SOL     vw 5584   2.860   3.042   1.819 -0.0246 -0.5438  0.0009
 1397SOL     ow 5585   4.701   6.900   0.742 -0.0697 -0.0232  0.0016
 1397SOL     hw 5586   4.737   6.931   0.659 -2.2991  1.2702 -0.5460
 1397SOL     hw 5587   4.760   6.935   0.808  1.6143 -0.8845 -0.9804
 1397SOL     vw 5588   4.714   6.909   0.740 -0.1416  0.0339 -0.2002
 1398SOL     ow 5589   1.011   2.678   3.836  0.3534 -0.1685 -0.0821
 1398SOL     hw 5590   0.948   2.749   3.829 -1.9754 -1.8354  2.0667
 1398SOL     hw 5591   1.046   2.686   3.925 -0.4204 -1.9639  0.4402
 1398SOL     vw 5592   1.007   2.688   3.847 -0.0560 -0.6253  0.2702
 1399SOL     ow 5593   0.667   0.346   6.333  0.2160  0.3310  0.2663
 1399SOL     hw 5594   0.710   0.260   6.334  0.1198  0.2890  0.8213
 1399SOL     hw 5595   0.676   0.379   6.423 -1.0256  0.2646  0.4232
 1399SOL     vw 5596   0.674   0.339   6.345  0.0395  0.3167  0.3603
 1400SOL     ow 5597   6.104   0.656   3.390  0.3073 -0.1524  0.6771
 1400SOL     hw 5598   6.134   0.743   3.416 -1.0899  0.4939  0.2129
 1400SOL     hw 5599   6.073   0.667   3.300 -0.2707 -1.0381  0.7562
 1400SOL     vw 5600   6.104   0.669   3.381  0.0467 -0.1841  0.6262
 1401SOL     ow 5601   7.097   3.350   3.192 -0.6276 -0.0560  0.1314
 1401SOL     hw 5602   7.082   3.433   3.238 -0.1083  1.2658 -1.9439
 1401SOL     hw 5603   7.010   3.323   3.162 -0.4877  1.4562 -1.8616
 1401SOL     vw 5604   7.084   3.358   3.194 -0.5405  0.3178 -0.4054
 1402SOL     ow 5605   0.811   1.206   2.909 -0.3672  0.4860 -0.1521
 1402SOL     hw 5606   0.821   1.221   2.815  0.8236  1.5834  0.1271
 1402SOL     hw 5607   0.892   1.163   2.936  1.0658  3.6411  1.0071
 1402SOL     vw 5608   0.823   1.202   2.900 -0.0210  1.0471  0.0377
 1403SOL     ow 5609   0.828   4.784   2.250 -0.7928 -0.0018 -0.1932
 1403SOL     hw 5610   0.778   4.855   2.291 -1.3172 -0.1658 -0.5343
 1403SOL     hw 5611   0.913   4.823   2.230 -1.1830  0.6246 -0.6625
 1403SOL     vw 5612   0.833   4.798   2.253 -0.9135  0.0589 -0.3002
 1404SOL     ow 5613   5.301   3.200   6.290 -0.3441  0.1897  0.2543
 1404SOL     hw 5614   5.389   3.166   6.278  0.5643  2.4020  0.3481
 1404SOL     hw 5615   5.308   3.260   6.364 -1.6227  1.3994 -0.5598
 1404SOL     vw 5616   5.313   3.203   6.299 -0.3929  0.6412  0.1593
 1405SOL     ow 5617   5.068   0.215   4.838  0.0470 -0.3653  1.3108
 1405SOL     hw 5618   5.035   0.304   4.853  2.0262  0.6295  0.1781
 1405SOL     hw 5619   5.160   0.228   4.814 -0.0427 -2.5943 -0.5066
 1405SOL     vw 5620   5.076   0.229   4.836  0.2966 -0.5281  0.9215
 1406SOL     ow 5621   6.517   3.234   4.815 -0.0816 -0.3323 -0.0463
 1406SOL     hw 5622   6.424   3.248   4.829 -0.2404 -3.7352  4.6162
 1406SOL     hw 5623   6.557   3.250   4.901  3.5185 -0.2206 -1.5579
 1406SOL     vw 5624   6.510   3.238   4.828  0.3724 -0.7665  0.3693
 1407SOL     ow 5625   3.289   6.489   4.996  0.5745 -0.3505  0.3979
 1407SOL     hw 5626   3.291   6.404   5.040 -0.2102  0.5387  2.2177
 1407SOL     hw 5627   3.324   6.551   5.060 -0.0512  0.8984 -0.4303
 1407SOL     vw 5628   3.294   6.486   5.010  0.3883 -0.0687  0.5288
 1408SOL     ow 5629   3.335   5.026   0.283 -0.4066  0.3454 -0.3315
 1408SOL     hw 5630   3.301   4.964   0.218 -0.6811  1.6497 -1.4834
 1408SOL     hw 5631   3.256   5.065   0.321 -0.2892  2.1149 -1.7655
 1408SOL     vw 5632   3.320   5.023   0.280 -0.4274  0.7508 -0.6727
 1409SOL     ow 5633   0.117   1.153   4.388  0.1099  0.1319  0.1204
 1409SOL     hw 5634   0.112   1.057   4.381 -0.1523  0.1526 -0.0118
 1409SOL     hw 5635   0.175   1.169   4.462  1.4807 -0.1178 -0.8765
 1409SOL     vw 5636   0.124   1.142   4.397  0.2562  0.1016 -0.0284
 1410SOL     ow 5637   2.296   2.751   4.113 -0.4409 -0.7888  0.1898
 1410SOL     hw 5638   2.313   2.799   4.194  0.4056 -1.4038  0.3846
 1410SOL     hw 5639   2.379   2.753   4.066 -0.6706 -1.2440 -0.2402
 1410SOL     vw 5640   2.309   2.758   4.118 -0.3595 -0.9298  0.1585
 1411SOL     ow 5641   1.712   2.484   1.201 -0.2691  0.4137  0.7940
 1411SOL     hw 5642   1.705   2.576   1.177  2.6561  0.4315 -0.3464
 1411SOL     hw 5643   1.765   2.483   1.281  3.5504 -0.3183 -1.5099
 1411SOL     vw 5644   1.718   2.496   1.209  0.6207  0.3194  0.3396
 1412SOL     ow 5645   3.191   5.009   1.143 -0.2188 -0.5436  0.0091
 1412SOL     hw 5646   3.166   5.101   1.150  0.2296 -0.4399  0.2399
 1412SOL     hw 5647   3.251   5.005   1.069  0.0651 -0.5862  0.2413
 1412SOL     vw 5648   3.195   5.020   1.134 -0.1223 -0.5355  0.0702
 1413SOL     ow 5649   3.110   6.413   4.783 -0.2276  0.1867 -0.0584
 1413SOL     hw 5650   3.156   6.356   4.722  1.5665 -1.0274  2.2549
 1413SOL     hw 5651   3.040   6.359   4.819 -0.2232  0.3267  0.1681
 1413SOL     vw 5652   3.107   6.398   4.780  0.0097  0.0451  0.2766
 1414SOL     ow 5653   1.085   6.617   3.484  0.0551 -0.3398  0.1919
 1414SOL     hw 5654   1.168   6.635   3.529  0.6248 -1.5694 -0.3496
 1414SOL     hw 5655   1.020   6.664   3.536  1.1317  1.0442  0.3562
 1414SOL     vw 5656   1.087   6.626   3.497  0.2723 -0.3195  0.1422
 1415SOL     ow 5657   4.867   6.563   6.975  0.2366  0.2861 -0.1910
 1415SOL     hw 5658   4.779   6.595   6.954 -1.0028 -2.9807 -0.6214
 1415SOL     hw 5659   4.858   6.523   7.061  1.5788  0.7497  0.1827
 1415SOL     vw 5660   4.854   6.562   6.983  0.2501 -0.0837 -0.1984
 1416SOL     ow 5661   5.677   5.447   0.211  0.9293 -0.2232  0.9946
 1416SOL     hw 5662   5.611   5.468   0.145  0.0417 -2.0295  1.2585
 1416SOL     hw 5663   5.720   5.531   0.229  1.2231  0.3313 -1.8479
 1416SOL     vw 5664   5.674   5.461   0.205  0.8509 -0.3881  0.6544
 1417SOL     ow 5665   4.528   3.372   2.625 -0.0485 -0.2971  0.7708
 1417SOL     hw 5666   4.609   3.421   2.636  0.6748 -1.6627  1.8682
 1417SOL     hw 5667   4.528   3.345   2.533  0.3214  0.3895  0.5621
 1417SOL     vw 5668   4.538   3.375   2.614  0.0956 -0.3866  0.8880
 1418SOL     ow 5669   0.694   1.062   4.443 -0.0853  0.6156 -0.0207
 1418SOL     hw 5670   0.766   1.007   4.472 -0.8711  0.5426  1.9498
 1418SOL     hw 5671   0.631   1.001   4.405 -0.4321  0.2621  1.0776
 1418SOL     vw 5672   0.695   1.047   4.442 -0.2347  0.5593  0.3839
 1419SOL     ow 5673   5.642   4.299   3.857 -1.1689 -0.4341  0.5879
 1419SOL     hw 5674   5.646   4.393   3.841  4.8894 -0.0681  1.7316
 1419SOL     hw 5675   5.612   4.262   3.774 -2.9257  2.3803 -0.1537
 1419SOL     vw 5676   5.638   4.306   3.844 -0.6013 -0.0145  0.6410
 1420SOL     ow 5677   3.473   6.248   2.183 -0.0871  0.5582 -0.3220
 1420SOL     hw 5678   3.508   6.162   2.158 -0.2055  0.5763 -0.5484
 1420SOL     hw 5679   3.427   6.279   2.106  0.8577  1.3073 -0.6147
 1420SOL     vw 5680   3.472   6.241   2.170  0.0219  0.6592 -0.3905
 1421SOL     ow 5681   5.145   7.044   4.933 -0.4149 -0.2686  0.4724
 1421SOL     hw 5682   5.102   7.127   4.910 -0.1619 -0.2552  0.0381
 1421SOL     hw 5683   5.113   7.024   5.021 -0.8558  0.0429  0.3863
 1421SOL     vw 5684   5.135   7.052   4.941 -0.4396 -0.2257  0.4036
 1422SOL     ow 5685   0.455   5.604   2.285 -0.3713  0.0082  0.0100
 1422SOL     hw 5686   0.451   5.567   2.196 -2.2050  0.8302 -0.3047
 1422SOL     hw 5687   0.547   5.596   2.310  0.3963  0.5537 -2.3228
 1422SOL     vw 5688   0.467   5.598   2.276 -0.5119  0.1886 -0.3394
 1423SOL     ow 5689   6.632   3.693   0.055  0.2403  0.4061  0.3318
 1423SOL     hw 5690   6.643   3.755   0.128 -1.9322 -0.1295  1.1904
 1423SOL     hw 5691   6.596   3.747  -0.016  0.6869  0.5877  0.2387
 1423SOL     vw 5692   6.629   3.708   0.056  0.0126  0.3594  0.4325
 1424SOL     ow 5693   1.858   1.682   4.692 -0.0674  0.6769  0.1888
 1424SOL     hw 5694   1.952   1.694   4.706 -0.0511  2.5164 -1.0569
 1424SOL     hw 5695   1.817   1.755   4.738 -0.5769  1.8966 -2.0471
 1424SOL     vw 5696   1.865   1.693   4.700 -0.1324  1.0806 -0.2704
 1425SOL     ow 5697   3.531   0.175   4.757  0.2016  0.1872  0.0930
 1425SOL     hw 5698   3.436   0.163   4.762  0.3686 -0.9442  0.7565
 1425SOL     hw 5699   3.560   0.112   4.691  0.5811  0.0208  0.4190
 1425SOL     vw 5700   3.522   0.165   4.749  0.2737  0.0159  0.2236
 1426SOL     ow 5701   3.654   3.238   6.040 -0.8689 -0.1199 -0.0980
 1426SOL     hw 5702   3.726   3.174   6.040  0.9640  1.8207  1.1177
 1426SOL     hw 5703   3.625   3.241   5.949  1.6753  0.1262 -0.9855
 1426SOL     vw 5704   3.660   3.230   6.028 -0.2913  0.1687 -0.0546
 1427SOL     ow 5705   0.809   1.924   0.356 -0.0291  0.6113 -0.0651
 1427SOL     hw 5706   0.766   1.867   0.419 -0.9312  0.2158 -1.0230
 1427SOL     hw 5707   0.879   1.870   0.319  0.1544  0.6692  0.1906
 1427SOL     vw 5708   0.813   1.909   0.359 -0.1239  0.5667 -0.1577
 1428SOL     ow 5709   1.938   1.948   6.247 -0.1474  0.4165  0.6182
 1428SOL     hw 5710   1.857   1.905   6.272 -0.0006  0.9994  2.1607
 1428SOL     hw 5711   1.929   2.038   6.278  0.4916  0.8988 -0.5180
 1428SOL     vw 5712   1.926   1.954   6.254 -0.0437  0.5571  0.6721
 1429SOL     ow 5713   3.726   1.499   5.251 -0.4381  0.0965  0.3021
 1429SOL     hw 5714   3.660   1.567   5.269 -0.0979  0.9682 -1.4652
 1429SOL     hw 5715   3.763   1.525   5.166  3.0383  0.2959  1.7497
 1429SOL     vw 5716   3.722   1.512   5.242  0.0653  0.2378  0.2601
 1430SOL     ow 5717   6.415   2.436   2.858  0.2682  0.0362  0.2668
 1430SOL     hw 5718   6.435   2.515   2.807  0.6421  0.5521  1.1912
 1430SOL     hw 5719   6.325   2.449   2.888  0.2076 -0.0624  0.1345
 1430SOL     vw 5720   6.406   2.448   2.855  0.3092  0.0912  0.3713
 1431SOL     ow 5721   4.897   6.369   6.708 -0.2385  0.0871 -0.1800
 1431SOL     hw 5722   4.836   6.301   6.737  0.5083 -1.2962 -1.6855
 1431SOL     hw 5723   4.885   6.373   6.613 -0.1451  1.9819 -0.1439
 1431SOL     vw 5724   4.887   6.360   6.699 -0.1276  0.1545 -0.3738
 1432SOL     ow 5725   4.817   0.283   5.575  0.3784 -0.0269 -0.1833
 1432SOL     hw 5726   4.889   0.321   5.525 -0.9176  1.5125 -0.9901
 1432SOL     hw 5727   4.754   0.354   5.584 -0.0283 -0.6278  2.5949
 1432SOL     vw 5728   4.818   0.297   5.569  0.1538  0.0970  0.0765
 1433SOL     ow 5729   2.684   1.375   2.113 -0.1791 -0.1372 -0.9039
 1433SOL     hw 5730   2.593   1.397   2.135  0.1307  0.4853 -0.2252
 1433SOL     hw 5731   2.692   1.400   2.021 -0.6577 -0.0870 -0.9373
 1433SOL     vw 5732   2.673   1.381   2.104 -0.2012 -0.0485 -0.8187
 1434SOL     ow 5733   0.912   3.483   0.817  0.1050  0.1545  0.3005
 1434SOL     hw 5734   0.975   3.487   0.889  1.2717 -1.2862 -0.6194
 1434SOL     hw 5735   0.908   3.391   0.792 -0.5718  0.5682 -1.2495
 1434SOL     vw 5736   0.920   3.472   0.823  0.1696  0.0192 -0.0255
 1435SOL     ow 5737   2.197   2.132   2.508 -0.3436  0.3218  0.0794
 1435SOL     hw 5738   2.191   2.173   2.422 -2.3512 -2.0031 -0.9904
 1435SOL     hw 5739   2.291   2.128   2.526  0.0791  1.5012 -1.6746
 1435SOL     vw 5740   2.209   2.137   2.499 -0.5527  0.1706 -0.2931
 1436SOL     ow 5741   1.491   1.660   7.083 -0.3810 -0.1769  0.4903
 1436SOL     hw 5742   1.490   1.613   7.167 -0.8889  0.0176  0.6007
 1436SOL     hw 5743   1.444   1.741   7.102  1.2484  0.7876  0.5245
 1436SOL     vw 5744   1.485   1.664   7.097 -0.2331 -0.0240  0.5093
 1437SOL     ow 5745   4.116   4.014   3.996  0.1971  0.4346  0.1924
 1437SOL     hw 5746   4.089   4.105   3.981 -1.3073 -0.0736 -0.4755
 1437SOL     hw 5747   4.121   4.005   4.091  1.5039  1.5001  0.2501
 1437SOL     vw 5748   4.113   4.025   4.006  0.1712  0.5083  0.1118
 1438SOL     ow 5749   7.001   0.662   1.697  0.4905  0.3460  0.3473
 1438SOL     hw 5750   7.044   0.577   1.703  2.0611  0.9367 -1.5844
 1438SOL     hw 5751   6.920   0.645   1.649 -0.1314 -0.3232  1.5896
 1438SOL     vw 5752   6.996   0.649   1.691  0.6156  0.3356  0.2563
 1439SOL     ow 5753   6.025   2.956   4.201  0.0286 -0.7172 -0.6614
 1439SOL     hw 5754   6.097   2.976   4.141  1.1115 -1.2414  0.4239
 1439SOL     hw 5755   6.052   2.995   4.284 -1.1452 -0.5622 -0.3340
 1439SOL     vw 5756   6.038   2.964   4.204  0.0169 -0.7659 -0.4749
 1440SOL     ow 5757   6.491   0.994   5.673 -0.2773 -0.7409  0.5950
 1440SOL     hw 5758   6.534   1.064   5.723 -0.5709  0.0269 -0.2046
 1440SOL     hw 5759   6.443   0.944   5.739  1.8489 -1.6625  1.5222
 1440SOL     vw 5760   6.490   0.997   5.688 -0.0353 -0.7612  0.6120
 1441SOL     ow 5761   3.404   2.505   6.299  0.3681  0.4884  0.0189
 1441SOL     hw 5762   3.424   2.443   6.368  0.2380  0.3669 -0.0508
 1441SOL     hw 5763   3.310   2.492   6.282  1.0415 -2.0970 -2.6989
 1441SOL     vw 5764   3.394   2.495   6.306  0.4400  0.1312 -0.3488
 1442SOL     ow 5765   6.517   3.332   0.700  0.6852 -0.4687  0.1489
 1442SOL     hw 5766   6.589   3.351   0.760 -0.3320 -0.2795  1.3427
 1442SOL     hw 5767   6.534   3.388   0.624  1.9175 -0.6086  0.2964
 1442SOL     vw 5768   6.529   3.342   0.698  0.7136 -0.4623  0.3259
 1443SOL     ow 5769   2.698   6.176   1.906 -0.0160  0.5720 -0.0358
 1443SOL     hw 5770   2.703   6.198   1.999 -0.9811  1.3353 -0.1533
 1443SOL     hw 5771   2.674   6.258   1.863  2.2779  0.7167 -1.2032
 1443SOL     vw 5772   2.695   6.189   1.913  0.1593  0.6919 -0.2053
 1444SOL     ow 5773   2.319   2.509   6.966 -0.2111 -0.0870 -0.0555
 1444SOL     hw 5774   2.237   2.523   6.919 -0.3702 -0.6964  0.0264
 1444SOL     hw 5775   2.387   2.522   6.900 -0.4344 -0.9728 -0.4836
 1444SOL     vw 5776   2.317   2.512   6.951 -0.2615 -0.2844 -0.1011
 1445SOL     ow 5777   6.171   6.929   7.105 -0.0152  0.1844  0.3965
 1445SOL     hw 5778   6.155   6.889   7.190 -1.5651 -1.8412 -0.7658
 1445SOL     hw 5779   6.195   6.856   7.048 -0.5920  1.2515 -1.2897
 1445SOL     vw 5780   6.172   6.914   7.108 -0.2959  0.0579  0.0207
 1446SOL     ow 5781   3.071   3.831   6.259 -0.0333  0.1751 -0.0504
 1446SOL     hw 5782   3.084   3.762   6.325 -1.4695 -0.3579 -0.2843
 1446SOL     hw 5783   2.976   3.838   6.251  0.0878  1.9592 -0.2994
 1446SOL     vw 5784   3.060   3.823   6.267 -0.2067  0.3402 -0.1137
 1447SOL     ow 5785   1.559   1.599   3.925 -0.2537  0.4863 -0.3586
 1447SOL     hw 5786   1.650   1.623   3.909  0.0625 -0.0097  0.6319
 1447SOL     hw 5787   1.523   1.583   3.838  0.5258  0.9623 -0.7772
 1447SOL     vw 5788   1.566   1.600   3.911 -0.1091  0.4836 -0.2831
 1448SOL     ow 5789   4.517   6.666   6.417  0.7907 -0.1239 -0.0464
 1448SOL     hw 5790   4.484   6.739   6.468 -0.4095  0.7960 -2.0343
 1448SOL     hw 5791   4.498   6.589   6.471  0.2328  0.8491  1.1983
 1448SOL     vw 5792   4.510   6.665   6.431  0.5589  0.1259 -0.1445
 1449SOL     ow 5793   0.897   5.159   3.825 -0.1591 -0.1883 -0.3186
 1449SOL     hw 5794   0.950   5.108   3.887  1.0957 -1.9101 -2.6503
 1449SOL     hw 5795   0.811   5.118   3.829 -0.2505  0.0566  0.6140
 1449SOL     vw 5796   0.893   5.147   3.834 -0.0056 -0.3831 -0.5032
 1450SOL     ow 5797   3.248   4.634   0.543 -0.0480  0.3988  0.0837
 1450SOL     hw 5798   3.251   4.539   0.552  0.6037  0.1516 -2.2617
 1450SOL     hw 5799   3.157   4.657   0.562 -0.1821 -0.6499  0.8206
 1450SOL     vw 5800   3.237   4.624   0.547  0.0201  0.2279 -0.1285
 1451SOL     ow 5801   4.085   4.026   5.960  0.7962  0.2135  0.2766
 1451SOL     hw 5802   4.052   3.965   5.893  0.2002  0.5460  0.2599
 1451SOL     hw 5803   4.068   3.982   6.043  0.9273  0.0917  0.2398
 1451SOL     vw 5804   4.078   4.012   5.962  0.7346  0.2413  0.2692
 1452SOL     ow 5805   3.287   3.978   5.716  0.1285  0.2578 -0.6526
 1452SOL     hw 5806   3.358   4.021   5.668 -0.6519  0.8099 -1.3389
 1452SOL     hw 5807   3.207   4.006   5.671 -0.4039 -2.2086 -1.3901
 1452SOL     vw 5808   3.286   3.987   5.704 -0.0447  0.0051 -0.8404
 1453SOL     ow 5809   2.310   4.218   3.661 -0.2287  0.3544 -0.0441
 1453SOL     hw 5810   2.381   4.215   3.597 -0.2924 -0.7446 -0.0893
 1453SOL     hw 5811   2.349   4.258   3.738  0.2438  0.4168 -0.3096
 1453SOL     vw 5812   2.325   4.223   3.662 -0.1748  0.2174 -0.0851
 1454SOL     ow 5813   6.536   0.658   2.828  0.4603  0.6764  0.1207
 1454SOL     hw 5814   6.516   0.568   2.802  0.8001 -0.1707  2.5075
 1454SOL     hw 5815   6.461   0.709   2.796  0.2279 -0.4272 -1.2172
 1454SOL     vw 5816   6.523   0.653   2.820  0.4747  0.4191  0.2592
 1455SOL     ow 5817   6.690   6.848   2.201 -0.4214  0.5076  0.0479
 1455SOL     hw 5818   6.626   6.837   2.130  0.5630 -1.3676 -0.6284
 1455SOL     hw 5819   6.716   6.758   2.223 -0.1238  1.0958  2.2803
 1455SOL     vw 5820   6.685   6.835   2.194 -0.2525  0.3378  0.2532
 1456SOL     ow 5821   5.715   5.016   3.570 -0.5586  0.2435  0.6530
 1456SOL     hw 5822   5.626   4.998   3.600 -0.2895  0.1637  1.4094
 1456SOL     hw 5823   5.702   5.060   3.486 -1.3005 -0.1511  0.5432
 1456SOL     vw 5824   5.701   5.019   3.563 -0.6208  0.1807  0.7383
 1457SOL     ow 5825   4.592   1.407   5.339  0.8965  0.1290  0.0795
 1457SOL     hw 5826   4.570   1.378   5.251 -0.5774  1.3570  0.0079
 1457SOL     hw 5827   4.548   1.491   5.349  1.7539  0.4420  1.6854
 1457SOL     vw 5828   4.584   1.414   5.329  0.8152  0.3323  0.2818
 1458SOL     ow 5829   1.930   2.358   3.971 -0.2334  0.3147  0.2021
 1458SOL     hw 5830   1.859   2.347   4.034 -0.7185  2.1886  0.0401
 1458SOL     hw 5831   2.008   2.368   4.026 -0.3801  0.1545  0.4433
 1458SOL     vw 5832   1.931   2.358   3.987 -0.3168  0.5410  0.2126
 1459SOL     ow 5833   2.669   6.171   1.300 -0.8474  0.0934  0.0907
 1459SOL     hw 5834   2.706   6.259   1.292 -1.4994  0.3272 -0.4611
 1459SOL     hw 5835   2.597   6.170   1.238 -1.9339 -0.2630  1.3161
 1459SOL     vw 5836   2.665   6.183   1.291 -1.0767  0.0770  0.1796
 1460SOL     ow 5837   6.464   6.889   2.415  0.3278  0.0588 -0.0026
 1460SOL     hw 5838   6.423   6.943   2.347 -0.2050 -0.4201 -0.0741
 1460SOL     hw 5839   6.413   6.908   2.494 -1.8874 -2.5457 -0.6437
 1460SOL     vw 5840   6.452   6.899   2.416 -0.0350 -0.3481 -0.0964
 1461SOL     ow 5841   6.119   6.353   2.805 -0.7177  0.2144 -0.4966
 1461SOL     hw 5842   6.080   6.270   2.833  0.7880  0.2440  2.0036
 1461SOL     hw 5843   6.212   6.334   2.795 -0.3101  1.6222  0.3534
 1461SOL     vw 5844   6.126   6.340   2.808 -0.4654  0.4036 -0.0546
 1462SOL     ow 5845   1.827   6.634   5.616  0.0075  0.1489  0.3065
 1462SOL     hw 5846   1.731   6.632   5.623  0.0014  0.7868  0.4824
 1462SOL     hw 5847   1.857   6.605   5.702 -0.0528  2.4589  1.1731
 1462SOL     vw 5848   1.818   6.630   5.629 -0.0013  0.5379  0.4442
 1463SOL     ow 5849   2.515   3.476   0.054 -0.4746  0.2057  0.7966
 1463SOL     hw 5850   2.486   3.385   0.057  3.6680 -1.3440  0.5821
 1463SOL     hw 5851   2.508   3.507   0.144 -0.9035 -0.6971  1.0853
 1463SOL     vw 5852   2.510   3.468   0.066  0.0154 -0.1179  0.8064
 1464SOL     ow 5853   5.532   4.262   4.180  0.1840  0.2391  0.1711
 1464SOL     hw 5854   5.496   4.270   4.268 -0.9902 -0.3433 -0.2273
 1464SOL     hw 5855   5.604   4.200   4.190 -0.6499 -0.7042  0.5526
 1464SOL     vw 5856   5.537   4.255   4.193 -0.0811  0.0379  0.1690
 1465SOL     ow 5857   1.527   1.755   6.807  0.6674  0.1663  0.4605
 1465SOL     hw 5858   1.561   1.843   6.823  0.9467  0.3605 -1.0584
 1465SOL     hw 5859   1.553   1.735   6.718 -0.3958 -1.0081  0.3847
 1465SOL     vw 5860   1.535   1.764   6.798  0.5640  0.0369  0.2503
 1466SOL     ow 5861   1.745   3.692   4.429 -0.6164  0.4775  0.0500
 1466SOL     hw 5862   1.705   3.647   4.504  0.5046 -1.0848 -0.2682
 1466SOL     hw 5863   1.733   3.785   4.449 -0.7356  0.0909  1.9589
 1466SOL     vw 5864   1.738   3.699   4.442 -0.4842  0.2203  0.2599
 1467SOL     ow 5865   3.864   2.265   1.871  1.0306  0.1272  0.1577
 1467SOL     hw 5866   3.897   2.259   1.782  0.3904  2.4658 -0.3031
 1467SOL     hw 5867   3.898   2.186   1.914  0.3804 -1.6920 -2.4114
 1467SOL     vw 5868   3.873   2.253   1.865  0.8605  0.1956 -0.2421
 1468SOL     ow 5869   1.505   3.639   2.626 -0.3783 -0.3527  0.2058
 1468SOL     hw 5870   1.510   3.550   2.590  2.9007  0.2041 -1.0564
 1468SOL     hw 5871   1.495   3.626   2.720  2.1553 -2.2358  0.3362
 1468SOL     vw 5872   1.504   3.626   2.634  0.3887 -0.5276  0.0565
 1469SOL     ow 5873   0.390   1.741   1.502 -0.0295  1.1893 -0.3250
 1469SOL     hw 5874   0.467   1.710   1.454 -1.5672 -0.5060 -1.8664
 1469SOL     hw 5875   0.410   1.723   1.594  0.9054 -0.5170 -0.8103
 1469SOL     vw 5876   0.402   1.734   1.508 -0.1090  0.7405 -0.5925
 1470SOL     ow 5877   3.327   5.117   3.848 -0.0118  0.1450  0.1357
 1470SOL     hw 5878   3.242   5.073   3.840  0.5325 -0.6339 -2.5639
 1470SOL     hw 5879   3.308   5.210   3.837 -0.6071  0.0934  0.6741
 1470SOL     vw 5880   3.314   5.123   3.846 -0.0186  0.0355 -0.1494
 1471SOL     ow 5881   4.525   2.421   5.391  0.0130  0.5697  0.8281
 1471SOL     hw 5882   4.507   2.477   5.315  2.9164  3.8038  2.2676
 1471SOL     hw 5883   4.619   2.407   5.388 -0.3325 -2.7929  1.6838
 1471SOL     vw 5884   4.535   2.427   5.380  0.3507  0.5528  1.1306
 1472SOL     ow 5885   5.861   7.064   0.907 -0.6794 -0.1259  0.4417
 1472SOL     hw 5886   5.893   6.974   0.900  1.2008  0.5514 -0.4394
 1472SOL     hw 5887   5.827   7.084   0.820 -0.5185  0.2043  0.4535
 1472SOL     vw 5888   5.861   7.054   0.895 -0.4098  0.0067  0.3270
 1473SOL     ow 5889   4.091   1.568   1.624  0.6106  0.2043  0.9747
 1473SOL     hw 5890   4.017   1.624   1.599  0.3434 -0.9928 -1.1215
 1473SOL     hw 5891   4.168   1.622   1.607  0.2890  0.6804  1.0000
 1473SOL     vw 5892   4.091   1.582   1.618  0.5329  0.1092  0.7015
 1474SOL     ow 5893   0.771   5.103   5.146 -0.3237  0.1115  0.3637
 1474SOL     hw 5894   0.816   5.173   5.099 -0.3426 -0.0839  0.0569
 1474SOL     hw 5895   0.833   5.078   5.215  0.1628 -0.3370 -0.2166
 1474SOL     vw 5896   0.785   5.109   5.149 -0.2620  0.0265  0.2468
 1475SOL     ow 5897   1.444   2.355   1.186  0.3174 -0.6048 -0.5134
 1475SOL     hw 5898   1.361   2.314   1.211  0.2426  0.4118  1.0755
 1475SOL     hw 5899   1.421   2.446   1.166  1.1070 -0.1066  0.6833
 1475SOL     vw 5900   1.430   2.362   1.187  0.4117 -0.4050 -0.1459
 1476SOL     ow 5901   1.788   2.501   3.369  0.0207  0.0710 -0.1313
 1476SOL     hw 5902   1.764   2.582   3.324 -0.5455 -0.4907 -0.8641
 1476SOL     hw 5903   1.755   2.432   3.313 -0.8340 -0.6588  1.2111
 1476SOL     vw 5904   1.780   2.503   3.356 -0.1668 -0.0995 -0.0509
 1477SOL     ow 5905   4.439   6.595   5.227 -0.1006 -0.0114  0.2012
 1477SOL     hw 5906   4.390   6.649   5.289 -0.9875 -1.1108  0.4938
 1477SOL     hw 5907   4.421   6.635   5.142  0.7930  1.2657  0.5920
 1477SOL     vw 5908   4.430   6.607   5.224 -0.0994  0.0122  0.2913
 1478SOL     ow 5909   2.162   1.581   1.546 -0.5743 -0.2319 -0.2299
 1478SOL     hw 5910   2.206   1.570   1.461  2.0201  0.0978  0.9787
 1478SOL     hw 5911   2.194   1.664   1.580 -0.0815 -1.1967  1.8519
 1478SOL     vw 5912   2.172   1.590   1.539 -0.1669 -0.3157  0.2042
 1479SOL     ow 5913   5.227   5.130   0.990  0.0412  0.1378 -0.1208
 1479SOL     hw 5914   5.170   5.173   0.925 -0.8727 -0.6523  0.1329
 1479SOL     hw 5915   5.234   5.039   0.959  0.4100 -0.0009  0.3573
 1479SOL     vw 5916   5.220   5.123   0.977 -0.0310  0.0155 -0.0243
 1480SOL     ow 5917   4.258   5.922   2.096  0.7681  0.1528 -0.2843
 1480SOL     hw 5918   4.179   5.889   2.053  0.0529  0.1617  0.9880
 1480SOL     hw 5919   4.327   5.910   2.031 -0.0658 -0.9250 -1.0083
 1480SOL     vw 5920   4.257   5.916   2.082  0.5636  0.0119 -0.2120
 1481SOL     ow 5921   0.431   3.690   6.838  0.1828 -0.2273 -0.4725
 1481SOL     hw 5922   0.481   3.706   6.918  1.4348 -1.6484 -0.9247
 1481SOL     hw 5923   0.361   3.756   6.840  1.4286  1.1417  0.7200
 1481SOL     vw 5924   0.429   3.701   6.849  0.5123 -0.2341 -0.3748
 1482SOL     ow 5925   4.784   3.926   2.314  0.7232 -0.5055 -0.2158
 1482SOL     hw 5926   4.761   3.834   2.299 -0.3884 -0.4797  1.0696
 1482SOL     hw 5927   4.740   3.948   2.397 -0.2499  1.5940 -1.2082
 1482SOL     vw 5928   4.775   3.916   2.323  0.4482 -0.2249 -0.1773
 1483SOL     ow 5929   2.950   1.681   2.427  0.2292 -0.8055  0.2203
 1483SOL     hw 5930   2.872   1.701   2.375  1.5198 -1.9895 -2.3936
 1483SOL     hw 5931   2.919   1.621   2.495 -1.4468  0.3358  0.5188
 1483SOL     vw 5932   2.935   1.676   2.429  0.1783 -0.8112 -0.0852
 1484SOL     ow 5933   6.015   4.834   3.080  0.0579 -0.0283 -0.3166
 1484SOL     hw 5934   6.081   4.903   3.086  1.4676 -1.4190  1.3523
 1484SOL     hw 5935   5.989   4.833   2.988 -0.1836  2.8203 -0.3684
 1484SOL     vw 5936   6.020   4.843   3.069  0.2120  0.1643 -0.1032
 1485SOL     ow 5937   3.948   1.511   2.627 -0.0035 -0.2726  0.2262
 1485SOL     hw 5938   3.938   1.598   2.666 -0.8775  0.7898 -2.1785
 1485SOL     hw 5939   4.042   1.501   2.613  0.0724  0.4554  0.1800
 1485SOL     vw 5940   3.959   1.521   2.631 -0.1088 -0.0365 -0.0973
 1486SOL     ow 5941   6.670   2.281   2.901 -0.6650  0.3932 -0.1565
 1486SOL     hw 5942   6.719   2.206   2.933 -0.1637  1.0156  0.5617
 1486SOL     hw 5943   6.704   2.295   2.812 -1.2220 -0.6076 -0.5492
 1486SOL     vw 5944   6.681   2.273   2.893 -0.6723  0.3432 -0.1136
 1487SOL     ow 5945   1.620   1.270   4.010  0.6123  0.0346 -0.7083
 1487SOL     hw 5946   1.613   1.366   4.005  1.9720  0.1782 -0.3581
 1487SOL     hw 5947   1.701   1.250   3.965  0.7790 -0.8718 -0.0298
 1487SOL     vw 5948   1.630   1.280   4.004  0.8137 -0.0660 -0.5722
 1488SOL     ow 5949   1.217   2.720   3.066  0.0552 -0.1788  0.4408
 1488SOL     hw 5950   1.262   2.761   3.141 -0.7740 -1.9888  1.9932
 1488SOL     hw 5951   1.128   2.755   3.070  0.1851  0.2406 -0.1488
 1488SOL     vw 5952   1.212   2.730   3.076 -0.0371 -0.3623  0.5680
 1489SOL     ow 5953   3.707   3.850   0.559 -0.6240  0.4355 -0.8893
 1489SOL     hw 5954   3.665   3.790   0.621  1.2168 -1.0570 -1.0097
 1489SOL     hw 5955   3.679   3.937   0.588 -2.4689 -0.3847 -0.0257
 1489SOL     vw 5956   3.698   3.853   0.571 -0.6245  0.1303 -0.7913
 1490SOL     ow 5957   2.732   0.429   1.522 -0.0307  0.3400  0.2204
 1490SOL     hw 5958   2.669   0.360   1.539 -0.2812  0.9852  2.0861
 1490SOL     hw 5959   2.760   0.459   1.608  1.2281  1.5278 -0.5484
 1490SOL     vw 5960   2.728   0.424   1.536  0.1024  0.5819  0.3651
 1491SOL     ow 5961   2.493   3.410   4.318  0.3291 -0.0786  0.5867
 1491SOL     hw 5962   2.565   3.465   4.351 -0.0479  1.4106 -0.9204
 1491SOL     hw 5963   2.537   3.342   4.267  0.7205  0.3186  0.3836
 1491SOL     vw 5964   2.508   3.408   4.315  0.3310  0.1701  0.3612
 1492SOL     ow 5965   4.285   6.553   1.028  0.9667  0.2942  0.0572
 1492SOL     hw 5966   4.353   6.538   1.093  1.9048 -2.6801 -1.4242
 1492SOL     hw 5967   4.315   6.504   0.951 -1.1172  1.8918 -1.8993
 1492SOL     vw 5968   4.298   6.545   1.026  0.8156  0.1125 -0.3964
 1493SOL     ow 5969   4.786   1.863   2.643 -1.1938 -0.6837  0.9119
 1493SOL     hw 5970   4.695   1.888   2.630 -1.0838 -0.3463  0.7581
 1493SOL     hw 5971   4.815   1.914   2.719 -0.9170 -0.1814  0.4868
 1493SOL     vw 5972   4.778   1.873   2.651 -1.1427 -0.5729  0.8355
 1494SOL     ow 5973   5.258   6.254   3.185  0.7178 -0.1382 -0.2353
 1494SOL     hw 5974   5.320   6.181   3.182  0.2173 -0.6889  1.6502
 1494SOL     hw 5975   5.269   6.291   3.272  0.5120  1.6866 -0.9434
 1494SOL     vw 5976   5.268   6.249   3.196  0.6247  0.0300 -0.0800
 1495SOL     ow 5977   3.938   6.185   4.728  0.2468  0.0456 -0.2622
 1495SOL     hw 5978   3.969   6.143   4.808  0.9291  1.4230  0.2372
 1495SOL     hw 5979   4.014   6.232   4.694 -0.2787  0.2342 -1.2101
 1495SOL     vw 5980   3.952   6.186   4.734  0.2673  0.2520 -0.3214
 1496SOL     ow 5981   6.914   1.860   0.668  0.5196 -0.2447  0.1462
 1496SOL     hw 5982   6.864   1.802   0.610  0.9195 -0.8948  0.4395
 1496SOL     hw 5983   7.003   1.826   0.664  1.3224  1.8824 -1.6350
 1496SOL     vw 5984   6.919   1.848   0.660  0.6781 -0.0498 -0.0501
 1497SOL     ow 5985   0.251   0.681   3.689  0.0577 -0.2688  0.1792
 1497SOL     hw 5986   0.291   0.759   3.727  0.6613 -1.0230  1.1551
 1497SOL     hw 5987   0.300   0.665   3.609  1.1091 -0.6416  0.8823
 1497SOL     vw 5988   0.262   0.689   3.684  0.2760 -0.4175  0.4007
 1498SOL     ow 5989   4.434   6.231   5.503  0.0109 -0.0894 -0.1660
 1498SOL     hw 5990   4.481   6.163   5.552  3.6218  2.1431 -0.1748
 1498SOL     hw 5991   4.399   6.289   5.571 -1.2083 -0.7603 -0.1975
 1498SOL     vw 5992   4.435   6.230   5.519  0.3264  0.1163 -0.1714
 1499SOL     ow 5993   3.769   2.186   5.598 -0.3418  0.3354  0.0407
 1499SOL     hw 5994   3.689   2.195   5.546  0.9536  3.4763 -1.7314
 1499SOL     hw 5995   3.812   2.272   5.591  3.1607 -1.1580  0.9060
 1499SOL     vw 5996   3.764   2.199   5.590  0.2911  0.5527 -0.0792
 1500SOL     ow 5997   6.149   6.202   3.859 -0.4837 -0.3308 -0.4455
 1500SOL     hw 5998   6.139   6.173   3.949  1.2567  0.1214 -0.0588
 1500SOL     hw 5999   6.114   6.291   3.858 -0.5315 -0.3460 -0.2080
 1500SOL     vw 6000   6.143   6.210   3.871 -0.2604 -0.2728 -0.3633
 1501SOL     ow 6001   0.643   4.543   4.484 -0.3991 -0.2379 -0.3967
 1501SOL     hw 6002   0.617   4.573   4.397 -0.1270 -0.1529 -0.4530
 1501SOL     hw 6003   0.680   4.456   4.469 -0.4840 -0.2815 -0.3476
 1501SOL     vw 6004   0.645   4.536   4.471 -0.3744 -0.2325 -0.3977
 1502SOL     ow 6005   5.574   6.262   5.771  0.4277  0.9118 -0.1926
 1502SOL     hw 6006   5.607   6.329   5.711  1.1674  1.1254  0.4256
 1502SOL     hw 6007   5.481   6.282   5.781  0.4569  1.3174 -0.6886
 1502SOL     vw 6008   5.566   6.274   5.765  0.5293  0.9937 -0.1764
 1503SOL     ow 6009   3.009   0.178   2.109  0.0264  0.1208  0.1665
 1503SOL     hw 6010   3.080   0.195   2.048 -2.1168 -0.1343 -2.6010
 1503SOL     hw 6011   2.963   0.262   2.116 -2.6749 -0.9203 -2.7743
 1503SOL     vw 6012   3.012   0.191   2.102 -0.6129 -0.0502 -0.5867
 1504SOL     ow 6013   5.044   4.929   2.430  0.6322 -0.5440  0.1170
 1504SOL     hw 6014   4.974   4.949   2.492  0.1685 -2.0602  0.1315
 1504SOL     hw 6015   5.069   5.014   2.393 -1.9825 -0.0490 -0.6996
 1504SOL     vw 6016   5.038   4.943   2.433  0.2260 -0.6788  0.0112
 1505SOL     ow 6017   5.610   1.983   5.483  0.2232 -0.7290  0.5713
 1505SOL     hw 6018   5.521   2.020   5.485  0.7320  0.6272 -0.4706
 1505SOL     hw 6019   5.664   2.053   5.448  1.3300 -2.3139 -1.0466
 1505SOL     vw 6020   5.605   1.997   5.479  0.4363 -0.7591  0.2205
 1506SOL     ow 6021   1.012   5.815   2.404  0.3540 -0.4860  0.3661
 1506SOL     hw 6022   0.961   5.860   2.472 -3.2405 -0.1201 -2.2450
 1506SOL     hw 6023   0.976   5.726   2.402  1.2803 -0.8656 -0.2456
 1506SOL     vw 6024   1.000   5.809   2.412  0.0020 -0.4878 -0.0591
 1507SOL     ow 6025   6.063   0.813   6.841  0.4979 -0.2955  0.5997
 1507SOL     hw 6026   6.028   0.895   6.875  1.3477  0.4526 -0.2766
 1507SOL     hw 6027   5.989   0.752   6.845 -0.2314  0.5877  0.9789
 1507SOL     vw 6028   6.048   0.816   6.846  0.5136 -0.0803  0.5341
 1508SOL     ow 6029   5.205   0.867   0.099  0.5689 -0.0857 -0.1336
 1508SOL     hw 6030   5.281   0.920   0.124 -0.0379  1.4424 -1.3234
 1508SOL     hw 6031   5.133   0.905   0.150  0.6175 -1.7613  1.2694
 1508SOL     vw 6032   5.205   0.879   0.109  0.4950 -0.1052 -0.1055
 1509SOL     ow 6033   4.293   1.331   2.745  0.5053 -0.0796 -0.3043
 1509SOL     hw 6034   4.266   1.369   2.661  0.6196  0.4344 -0.1131
 1509SOL     hw 6035   4.349   1.257   2.721  2.1608  1.2280 -0.6971
 1509SOL     vw 6036   4.297   1.327   2.731  0.7391  0.1608 -0.3309
 1510SOL     ow 6037   5.414   4.416   3.954  0.0936  0.1612  0.4991
 1510SOL     hw 6038   5.366   4.412   3.872  0.9663  1.0863 -0.0753
 1510SOL     hw 6039   5.410   4.508   3.980  2.5857  0.5364 -0.2211
 1510SOL     vw 6040   5.407   4.427   3.947  0.5376  0.3331  0.3283
 1511SOL     ow 6041   0.745   3.592   5.828 -0.0392  0.4429 -0.1809
 1511SOL     hw 6042   0.679   3.571   5.761  0.9724 -1.1056 -0.7574
 1511SOL     hw 6043   0.785   3.673   5.797 -1.8064  1.5446  0.3077
 1511SOL     vw 6044   0.741   3.600   5.815 -0.1388  0.3837 -0.1924
 1512SOL     ow 6045   4.939   0.070   3.390 -0.3849  1.1714  0.5194
 1512SOL     hw 6046   4.984  -0.013   3.374 -2.7295 -0.4690  1.7829
 1512SOL     hw 6047   4.898   0.092   3.307  0.5043  1.2645  0.0932
 1512SOL     vw 6048   4.940   0.062   3.377 -0.5767  0.9673  0.6299
 1513SOL     ow 6049   2.897   2.462   1.596  0.1447  0.1477  0.4629
 1513SOL     hw 6050   2.969   2.417   1.640 -0.3850 -1.7592 -0.4825
 1513SOL     hw 6051   2.933   2.489   1.512 -0.2249 -0.8532 -0.0324
 1513SOL     vw 6052   2.911   2.460   1.591  0.0260 -0.2359  0.2728
 1514SOL     ow 6053   2.856   7.024   2.017 -0.1042 -0.1689 -0.4970
 1514SOL     hw 6054   2.878   6.999   1.928 -2.7592 -0.1529 -1.2370
 1514SOL     hw 6055   2.824   6.943   2.057  1.6104 -0.3211  0.7003
 1514SOL     vw 6056   2.855   7.010   2.011 -0.2283 -0.1869 -0.4367
 1515SOL     ow 6057   6.812   4.632   0.738  0.4324  0.1362  0.1416
 1515SOL     hw 6058   6.859   4.549   0.728  1.3156  0.6633 -0.2119
 1515SOL     hw 6059   6.748   4.633   0.667  2.7283  1.2534 -2.0814
 1515SOL     vw 6060   6.810   4.621   0.727  0.8519  0.3531 -0.1983
 1516SOL     ow 6061   1.889   0.703   0.812 -0.4986  0.0106  0.0622
 1516SOL     hw 6062   1.863   0.794   0.824 -3.0879 -0.4592 -1.2867
 1516SOL     hw 6063   1.893   0.692   0.717 -1.7515 -1.6398  0.1633
 1516SOL     vw 6064   1.886   0.713   0.801 -1.0056 -0.2691 -0.1024
 1517SOL     ow 6065   4.957   6.170   6.119 -0.5441  0.4234 -0.1070
 1517SOL     hw 6066   4.975   6.078   6.138 -2.5989  0.0847  0.4290
 1517SOL     hw 6067   4.980   6.217   6.199 -1.0993  0.1335  0.2264
 1517SOL     vw 6068   4.962   6.164   6.132 -0.8886  0.3407  0.0076
 1518SOL     ow 6069   2.352   1.295   0.584  0.3354  0.2637 -0.5259
 1518SOL     hw 6070   2.312   1.373   0.623  0.5782  0.2709 -0.2841
 1518SOL     hw 6071   2.278   1.246   0.548  0.2277  0.8443 -1.1213
 1518SOL     vw 6072   2.337   1.299   0.585  0.3532  0.3413 -0.5726
 1519SOL     ow 6073   3.134   4.707   1.092  0.5356  0.0356 -0.3548
 1519SOL     hw 6074   3.224   4.689   1.117  0.4112 -1.0333 -0.6035
 1519SOL     hw 6075   3.084   4.635   1.129 -0.3234  0.9681  0.3425
 1519SOL     vw 6076   3.139   4.695   1.100  0.4059  0.0176 -0.2955
 1520SOL     ow 6077   5.629   4.556   3.752 -0.4392 -0.0926  0.2691
 1520SOL     hw 6078   5.560   4.621   3.764  1.4645  2.3873 -1.1188
 1520SOL     hw 6079   5.626   4.536   3.658  2.4824  2.4372 -0.5380
 1520SOL     vw 6080   5.620   4.562   3.741  0.1972  0.5682 -0.0205
 1521SOL     ow 6081   1.705   1.388   1.492  0.6400 -0.1672 -0.3642
 1521SOL     hw 6082   1.652   1.326   1.440  1.0501 -1.5717  0.8374
 1521SOL     hw 6083   1.641   1.431   1.548  0.6661 -1.6504  0.8760
 1521SOL     vw 6084   1.689   1.385   1.492  0.6976 -0.5481 -0.0421
 1522SOL     ow 6085   2.616   6.793   2.173  0.2668 -0.0186 -0.7880
 1522SOL     hw 6086   2.634   6.700   2.161 -1.0061 -0.5793  1.1722
 1522SOL     hw 6087   2.549   6.812   2.107  1.7427  0.0064 -2.3676
 1522SOL     vw 6088   2.609   6.783   2.162  0.2936 -0.0892 -0.7377
 1523SOL     ow 6089   0.600   1.644   1.375 -0.2460  0.2337 -0.0282
 1523SOL     hw 6090   0.695   1.635   1.383 -0.5330 -1.7627  1.7424
 1523SOL     hw 6091   0.575   1.575   1.314 -0.6568  0.2148  0.1621
 1523SOL     vw 6092   0.610   1.634   1.368 -0.3380 -0.0322  0.2305
 1524SOL     ow 6093   4.667   5.042   4.094  0.1559  0.2067 -0.8277
 1524SOL     hw 6094   4.612   5.107   4.137  1.1541  0.2670  0.4161
 1524SOL     hw 6095   4.695   5.084   4.012  2.4886  2.2780  0.8810
 1524SOL     vw 6096   4.664   5.056   4.089  0.5951  0.4880 -0.4382
 1525SOL     ow 6097   3.471   0.206   1.556  0.4834 -0.5057  0.4478
 1525SOL     hw 6098   3.377   0.221   1.544  1.0439  3.0405 -0.7415
 1525SOL     hw 6099   3.487   0.225   1.648  0.2530  0.7373  0.2501
 1525SOL     vw 6100   3.461   0.211   1.566  0.5271  0.1262  0.2648
 1526SOL     ow 6101   0.414   0.924   4.751 -0.0496  0.6014 -0.2084
 1526SOL     hw 6102   0.336   0.943   4.804  1.2651  0.8229  1.7494
 1526SOL     hw 6103   0.391   0.845   4.702 -1.5749  0.7959  0.1289
 1526SOL     vw 6104   0.401   0.916   4.751 -0.0774  0.6562  0.0942
 1527SOL     ow 6105   5.675   4.734   3.428 -0.0530  0.2487  0.4797
 1527SOL     hw 6106   5.592   4.729   3.378  0.9738 -1.4881 -1.2027
 1527SOL     hw 6107   5.731   4.670   3.386  2.1867  1.3837  1.5973
 1527SOL     vw 6108   5.671   4.725   3.416  0.3779  0.1693  0.4052
 1528SOL     ow 6109   0.806   5.938   5.652  0.0874 -0.1614 -0.4207
 1528SOL     hw 6110   0.718   5.916   5.622 -0.1757 -0.7590  0.7231
 1528SOL     hw 6111   0.859   5.938   5.573 -0.8241 -0.3738 -1.0496
 1528SOL     vw 6112   0.801   5.935   5.638 -0.0676 -0.2685 -0.3529
 1529SOL     ow 6113   0.267   0.892   0.933 -0.0267  0.2786 -0.2620
 1529SOL     hw 6114   0.254   0.986   0.948 -2.2680 -0.0039 -0.0701
 1529SOL     hw 6115   0.179   0.855   0.938  0.8636 -1.9100  0.0865
 1529SOL     vw 6116   0.253   0.900   0.935 -0.2050 -0.0474 -0.1907
 1530SOL     ow 6117   2.650   0.135   2.474 -0.8383  0.5007 -0.0872
 1530SOL     hw 6118   2.724   0.110   2.529 -1.7118  0.0538  0.9071
 1530SOL     hw 6119   2.685   0.206   2.419  0.3324  0.2719  0.3288
 1530SOL     vw 6120   2.665   0.141   2.474 -0.7992  0.4116  0.0988
 1531SOL     ow 6121   6.276   6.920   2.622  0.7694  0.1446  0.5163
 1531SOL     hw 6122   6.235   6.855   2.680  0.3764  0.6861  0.8588
 1531SOL     hw 6123   6.347   6.957   2.675 -2.3323  3.9381  2.5585
 1531SOL     vw 6124   6.280   6.917   2.637  0.3080  0.7167  0.8310
 1532SOL     ow 6125   1.151   4.533   4.288  0.1058 -0.4972 -0.1795
 1532SOL     hw 6126   1.152   4.589   4.210 -0.7362 -0.4189 -0.1394
 1532SOL     hw 6127   1.072   4.481   4.279 -0.5684  0.2608  1.1356
 1532SOL     vw 6128   1.141   4.534   4.276 -0.0942 -0.3867 -0.0007
 1533SOL     ow 6129   2.651   5.095   5.511 -0.8261  0.6453  0.1236
 1533SOL     hw 6130   2.721   5.157   5.493 -2.1934  2.2336  0.0750
 1533SOL     hw 6131   2.593   5.141   5.572 -0.3268 -1.7126  2.6122
 1533SOL     vw 6132   2.653   5.109   5.517 -0.9407  0.5438  0.4456
 1534SOL     ow 6133   2.093   6.662   6.234  0.5199  0.0829  0.1028
 1534SOL     hw 6134   2.039   6.737   6.257  1.7142  1.4006 -1.2391
 1534SOL     hw 6135   2.179   6.698   6.215  1.5249 -1.8010  0.7840
 1534SOL     vw 6136   2.097   6.676   6.234  0.8101  0.0079  0.0155
 1535SOL     ow 6137   5.333   1.267   0.332 -0.4476 -0.5379  0.1041
 1535SOL     hw 6138   5.270   1.245   0.263  1.2671 -3.4727 -0.7172
 1535SOL     hw 6139   5.342   1.362   0.326 -3.1811 -0.2350 -1.1076
 1535SOL     vw 6140   5.326   1.277   0.322 -0.5820 -0.8851 -0.1641
 1536SOL     ow 6141   7.100   4.939   1.041  0.4208  0.2820  0.2903
 1536SOL     hw 6142   7.083   4.862   1.096  0.6397  1.2695  1.7708
 1536SOL     hw 6143   7.030   4.937   0.976  0.2263 -0.9825  0.5063
 1536SOL     vw 6144   7.089   4.928   1.040  0.4239  0.2453  0.5141
 1537SOL     ow 6145   2.063   3.212   4.637 -0.4360 -0.5944 -0.4395
 1537SOL     hw 6146   2.082   3.146   4.703  0.1836  1.5022  1.6110
 1537SOL     hw 6147   1.970   3.232   4.648 -0.1466  0.3724  0.4872
 1537SOL     vw 6148   2.053   3.206   4.647 -0.3161 -0.1903 -0.0470
 1538SOL     ow 6149   3.783   4.901   5.006 -0.4489 -0.5746  0.5308
 1538SOL     hw 6150   3.783   4.997   5.014 -0.7412 -0.6940  2.4092
 1538SOL     hw 6151   3.726   4.883   4.931  2.6301  0.8284 -2.4273
 1538SOL     vw 6152   3.776   4.912   4.997 -0.0813 -0.4053  0.3884
 1539SOL     ow 6153   3.921   1.201   2.548 -0.1705  0.0062 -0.2608
 1539SOL     hw 6154   3.983   1.129   2.558 -0.1362  0.2082  1.2143
 1539SOL     hw 6155   3.922   1.221   2.454 -1.4404 -3.0228 -1.0567
 1539SOL     vw 6156   3.929   1.194   2.537 -0.3334 -0.3668 -0.1712
 1540SOL     ow 6157   6.578   5.137   2.285  0.1292  1.1295  0.0713
 1540SOL     hw 6158   6.495   5.138   2.239 -0.0974 -1.6390  0.2437
 1540SOL     hw 6159   6.605   5.229   2.290 -2.3074  1.9653 -1.0275
 1540SOL     vw 6160   6.571   5.150   2.280 -0.2217  0.8748 -0.0509
 1541SOL     ow 6161   3.001   1.888   3.440 -0.2138 -0.4692 -0.0379
 1541SOL     hw 6162   3.036   1.961   3.389 -0.2066 -0.8296 -0.5536
 1541SOL     hw 6163   2.906   1.896   3.431 -0.2412 -0.0122  0.6283
 1541SOL     vw 6164   2.993   1.899   3.432 -0.2164 -0.4565 -0.0181
 1542SOL     ow 6165   2.967   2.345   6.954 -0.1387  0.4795 -0.1806
 1542SOL     hw 6166   2.992   2.263   6.912  0.3529  0.0945  0.8265
 1542SOL     hw 6167   2.882   2.367   6.916 -0.3636 -0.5932 -0.3270
 1542SOL     vw 6168   2.959   2.337   6.944 -0.1036  0.2872 -0.0672
 1543SOL     ow 6169   5.533   2.363   6.032 -0.6315  0.1572  0.3963
 1543SOL     hw 6170   5.493   2.302   5.971  0.5773 -0.4628  0.1949
 1543SOL     hw 6171   5.459   2.413   6.067 -1.2791  1.6569 -2.7170
 1543SOL     vw 6172   5.518   2.362   6.028 -0.5572  0.2733 -0.0410
 1544SOL     ow 6173   1.688   5.602   4.961  0.2523 -0.6377 -0.0988
 1544SOL     hw 6174   1.700   5.663   4.889  1.5888 -2.4285 -1.4989
 1544SOL     hw 6175   1.609   5.553   4.939 -1.3772  1.1244  1.5060
 1544SOL     vw 6176   1.679   5.604   4.949  0.2137 -0.6413 -0.0718
 1545SOL     ow 6177   0.260   5.951   3.828  0.7142 -0.9874  0.2997
 1545SOL     hw 6178   0.173   5.944   3.790  0.8299 -0.3976 -0.0903
 1545SOL     hw 6179   0.250   6.013   3.900  0.9455 -0.3930 -0.1742
 1545SOL     vw 6180   0.247   5.958   3.832  0.7600 -0.8311  0.1857
 1546SOL     ow 6181   2.482   3.489   6.102 -0.0167  0.4120 -0.0520
 1546SOL     hw 6182   2.399   3.473   6.057  1.2538 -1.9476 -1.7902
 1546SOL     hw 6183   2.509   3.576   6.075 -0.9980  0.4202 -1.0424
 1546SOL     vw 6184   2.475   3.498   6.093  0.0213  0.1018 -0.4120
 1547SOL     ow 6185   0.301   5.270   6.373 -0.0172 -0.3559 -0.1768
 1547SOL     hw 6186   0.262   5.268   6.460 -0.3434  1.3499 -0.2386
 1547SOL     hw 6187   0.237   5.226   6.317  0.9344 -2.9782  0.6378
 1547SOL     vw 6188   0.287   5.264   6.377  0.0653 -0.4768 -0.0772
 1548SOL     ow 6189   4.968   5.977   6.513 -0.1960 -0.4741  0.0011
 1548SOL     hw 6190   4.907   6.050   6.499  0.0161  0.0296  1.5060
 1548SOL     hw 6191   5.043   5.999   6.458  0.1216  0.8011  0.8789
 1548SOL     vw 6192   4.970   5.990   6.504 -0.1264 -0.2394  0.3154
 1549SOL     ow 6193   4.713   2.949   4.942  0.2551  0.1861  0.2099
 1549SOL     hw 6194   4.698   2.938   4.848  0.9675  0.1421  0.0944
 1549SOL     hw 6195   4.648   2.893   4.984  0.5873 -0.5729 -0.2753
 1549SOL     vw 6196   4.703   2.940   4.935  0.3932  0.0802  0.1304
 1550SOL     ow 6197   6.840   4.936   4.657 -0.2810  0.8318  0.3102
 1550SOL     hw 6198   6.912   4.993   4.686  1.5899 -0.6299 -1.1272
 1550SOL     hw 6199   6.842   4.862   4.718 -1.9113  1.6705  1.4433
 1550SOL     vw 6200   6.850   4.934   4.669 -0.2496  0.7498  0.2701
 1551SOL     ow 6201   3.384   2.068   5.551  0.4570  0.3621 -0.1205
 1551SOL     hw 6202   3.385   2.001   5.483  2.9307 -0.6704  0.7958
 1551SOL     hw 6203   3.435   2.140   5.514 -0.7691  1.0741 -0.4663
 1551SOL     vw 6204   3.391   2.069   5.537  0.6216  0.3200 -0.0451
 1552SOL     ow 6205   3.669   1.871   2.259  0.4027  0.1037  0.6952
 1552SOL     hw 6206   3.588   1.918   2.278 -1.2529 -2.0034 -0.6948
 1552SOL     hw 6207   3.642   1.795   2.207  3.1979 -1.0843  0.7630
 1552SOL     vw 6208   3.655   1.867   2.255  0.5531 -0.3310  0.5206
 1553SOL     ow 6209   3.222   1.631   0.440 -0.0683 -0.0665  0.1751
 1553SOL     hw 6210   3.176   1.665   0.518  1.1483  0.5407  0.6494
 1553SOL     hw 6211   3.249   1.710   0.393  1.3879 -0.3790  0.4472
 1553SOL     vw 6212   3.219   1.646   0.444  0.2842 -0.0277  0.2736
 1554SOL     ow 6213   3.456   6.222   3.868  0.7967 -0.9864 -0.1986
 1554SOL     hw 6214   3.478   6.314   3.853  3.1933 -1.4668  0.0308
 1554SOL     hw 6215   3.389   6.225   3.935 -0.5360  0.6388 -1.4850
 1554SOL     vw 6216   3.450   6.235   3.875  0.9370 -0.8352 -0.3381
 1555SOL     ow 6217   0.731   4.017   1.365 -0.3918 -0.1081  0.2251
 1555SOL     hw 6218   0.654   4.036   1.419 -0.0012  1.5235  0.2611
 1555SOL     hw 6219   0.742   4.096   1.312  2.7167  0.7769  1.9716
 1555SOL     vw 6220   0.722   4.030   1.365  0.0699  0.2241  0.4603
 1556SOL     ow 6221   0.672   6.879   6.593 -0.1987  0.8701  0.4154
 1556SOL     hw 6222   0.619   6.938   6.539  0.3750  4.2237  3.1283
 1556SOL     hw 6223   0.762   6.891   6.561  0.1147  2.7169  1.7814
 1556SOL     vw 6224   0.677   6.888   6.582 -0.0817  1.5562  0.9537
 1557SOL     ow 6225   6.550   5.218   1.441 -0.3543  0.9144  0.2534
 1557SOL     hw 6226   6.602   5.186   1.367 -1.6134  1.0987 -0.7592
 1557SOL     hw 6227   6.509   5.140   1.477  0.0030  0.8637  0.5498
 1557SOL     vw 6228   6.551   5.203   1.436 -0.4733  0.9320  0.1589
 1558SOL     ow 6229   6.234   4.523   1.154  0.3515  0.1115 -0.1848
 1558SOL     hw 6230   6.204   4.433   1.164  1.6218 -0.6197 -2.3273
 1558SOL     hw 6231   6.158   4.570   1.120 -0.8495  0.3308  2.5523
 1558SOL     vw 6232   6.220   4.517   1.151  0.3607  0.0443 -0.1064
 1559SOL     ow 6233   4.609   6.496   5.459 -0.0333  0.5197 -0.2807
 1559SOL     hw 6234   4.558   6.552   5.400 -0.2239  1.7874  1.0193
 1559SOL     hw 6235   4.658   6.558   5.513  1.0355 -0.6392  0.1141
 1559SOL     vw 6236   4.609   6.512   5.458  0.0823  0.5341 -0.0570
 1560SOL     ow 6237   1.109   4.332   5.033 -0.5988  0.6319  0.1315
 1560SOL     hw 6238   1.080   4.372   5.115 -0.1825  0.6315  0.2823
 1560SOL     hw 6239   1.192   4.290   5.055  1.7633  4.1355 -1.1835
 1560SOL     vw 6240   1.116   4.332   5.047 -0.2322  1.0941 -0.0219
 1561SOL     ow 6241   7.057   3.319   1.088 -0.0509  0.2545  0.0275
 1561SOL     hw 6242   7.062   3.412   1.067 -4.2392  1.3199  2.5055
 1561SOL     hw 6243   7.045   3.317   1.183 -0.4836 -2.7721 -0.0056
 1561SOL     vw 6244   7.056   3.331   1.097 -0.6604 -0.0042  0.3500
 1562SOL     ow 6245   5.379   5.383   0.353  0.6753 -0.0719  0.1084
 1562SOL     hw 6246   5.317   5.371   0.281 -0.2094  0.4306  0.7659
 1562SOL     hw 6247   5.324   5.408   0.428  1.8588  2.3716  0.2247
 1562SOL     vw 6248   5.363   5.385   0.354  0.7148  0.3166  0.2105
 1563SOL     ow 6249   1.571   0.354   0.120 -0.2107  0.2144  0.3353
 1563SOL     hw 6250   1.606   0.408   0.050 -3.8233  1.6428 -0.5972
 1563SOL     hw 6251   1.596   0.399   0.200 -0.6409  1.6677 -0.3180
 1563SOL     vw 6252   1.579   0.367   0.121 -0.7441  0.5946  0.1261
 1564SOL     ow 6253   4.554   1.960   2.535  0.2282  0.3980  0.0393
 1564SOL     hw 6254   4.537   2.052   2.553  0.8580  0.5431 -0.0829
 1564SOL     hw 6255   4.467   1.919   2.533 -0.3062  1.4393 -2.4703
 1564SOL     vw 6256   4.540   1.967   2.537  0.2408  0.5544 -0.3079
 1565SOL     ow 6257   1.157   6.255   6.369  0.0221 -0.3139  0.3343
 1565SOL     hw 6258   1.152   6.350   6.374 -1.8121 -0.3759  0.4359
 1565SOL     hw 6259   1.221   6.237   6.300  1.7154  0.9336  1.4984
 1565SOL     vw 6260   1.165   6.265   6.361  0.0035 -0.1574  0.5012
 1566SOL     ow 6261   5.217   6.335   1.560  0.3360 -0.3866 -0.2898
 1566SOL     hw 6262   5.196   6.386   1.481  1.1119  1.1744  0.4593
 1566SOL     hw 6263   5.154   6.364   1.625  1.2480  0.2188  0.3591
 1566SOL     vw 6264   5.206   6.346   1.558  0.5589 -0.1011 -0.1053
 1567SOL     ow 6265   6.117   1.082   4.748  0.0155 -0.4816 -0.3561
 1567SOL     hw 6266   6.179   1.116   4.684  0.1967  2.1903  1.0970
 1567SOL     hw 6267   6.173   1.054   4.821 -0.2783 -2.0740 -0.7134
 1567SOL     vw 6268   6.133   1.083   4.750  0.0007 -0.3392 -0.2115
 1568SOL     ow 6269   0.721   0.543   3.142  0.8200 -0.7315 -0.7183
 1568SOL     hw 6270   0.655   0.602   3.177 -0.1387 -1.7784 -0.6885
 1568SOL     hw 6271   0.804   0.580   3.171  0.2097  0.1420 -0.0175
 1568SOL     vw 6272   0.723   0.556   3.150  0.6130 -0.7544 -0.6218
 1569SOL     ow 6273   4.739   2.336   3.252 -0.1685  0.4689 -0.0087
 1569SOL     hw 6274   4.685   2.256   3.249 -0.2604  0.4832  0.9969
 1569SOL     hw 6275   4.682   2.404   3.217 -0.2018  0.1587 -0.5732
 1569SOL     vw 6276   4.724   2.334   3.247 -0.1850  0.4299  0.0495
 1570SOL     ow 6277   6.492   5.636   5.824 -0.3449  0.2006  0.0406
 1570SOL     hw 6278   6.574   5.651   5.871  0.6063  1.3539 -1.8372
 1570SOL     hw 6279   6.424   5.649   5.889  0.8512  2.8032  0.8955
 1570SOL     vw 6280   6.494   5.639   5.839 -0.0615  0.6964 -0.0944
 1571SOL     ow 6281   0.130   4.237   3.497  0.5373 -0.1400 -0.3830
 1571SOL     hw 6282   0.149   4.292   3.421  2.0015 -0.5159 -0.3139
 1571SOL     hw 6283   0.050   4.190   3.472  1.3682 -0.7980 -2.0148
 1571SOL     vw 6284   0.122   4.238   3.483  0.8401 -0.2763 -0.5891
 1572SOL     ow 6285   5.273   0.586   2.535 -0.0583  0.6538 -0.4395
 1572SOL     hw 6286   5.219   0.510   2.511 -0.6021  0.6175  0.7935
 1572SOL     hw 6287   5.321   0.557   2.612  0.7943  1.1145 -0.7864
 1572SOL     vw 6288   5.272   0.572   2.542 -0.0176  0.7098 -0.3226
 1573SOL     ow 6289   2.118   6.658   0.901 -0.0788 -0.5038 -0.2295
 1573SOL     hw 6290   2.114   6.752   0.889  0.8075 -0.4836 -0.3868
 1573SOL     hw 6291   2.209   6.640   0.923 -0.3154 -1.2820  0.1696
 1573SOL     vw 6292   2.129   6.668   0.903  0.0070 -0.6037 -0.1975
 1574SOL     ow 6293   7.099   4.607   5.501 -0.0049 -0.7918 -0.1534
 1574SOL     hw 6294   7.190   4.615   5.530 -0.2857  0.4862  0.4832
 1574SOL     hw 6295   7.065   4.697   5.504 -0.4600 -0.7573 -3.2536
 1574SOL     vw 6296   7.106   4.620   5.505 -0.1023 -0.6187 -0.4785
 1575SOL     ow 6297   3.956   1.788   1.098  0.5413 -0.0135  0.2701
 1575SOL     hw 6298   3.996   1.830   1.174 -1.9485  1.9699  0.6249
 1575SOL     hw 6299   3.891   1.728   1.136  0.5844 -0.4328 -0.3076
 1575SOL     vw 6300   3.953   1.786   1.113  0.2185  0.1928  0.2407
 1576SOL     ow 6301   5.313   5.735   1.866 -0.1233 -0.0424 -0.3420
 1576SOL     hw 6302   5.343   5.647   1.891 -0.1181 -0.2837 -1.1758
 1576SOL     hw 6303   5.265   5.721   1.785  0.1151  0.7664 -0.6239
 1576SOL     vw 6304   5.311   5.721   1.859 -0.0911  0.0322 -0.4892
 1577SOL     ow 6305   1.875   5.133   6.045  0.1856  0.3583  0.5659
 1577SOL     hw 6306   1.821   5.181   6.108  2.1336  1.8553  1.1726
 1577SOL     hw 6307   1.830   5.143   5.962 -1.0950  0.5144  1.2530
 1577SOL     vw 6308   1.862   5.141   6.043  0.2736  0.5765  0.7367
 1578SOL     ow 6309   0.335   1.429   5.882  0.7250  0.5758  0.0610
 1578SOL     hw 6310   0.316   1.444   5.974  0.6148  2.7430 -0.2610
 1578SOL     hw 6311   0.264   1.372   5.851  0.3744  0.4220  1.1311
 1578SOL     vw 6312   0.323   1.423   5.890  0.6642  0.8414  0.1595
 1579SOL     ow 6313   2.637   5.970   0.704 -0.8627  0.4373 -0.0709
 1579SOL     hw 6314   2.644   6.060   0.737  1.8423  1.2343 -2.3917
 1579SOL     hw 6315   2.546   5.945   0.721 -1.5423  3.3770  1.2081
 1579SOL     vw 6316   2.626   5.979   0.710 -0.5953  0.9305 -0.2083
 1580SOL     ow 6317   5.683   5.002   6.853  0.1374 -0.1770  0.6821
 1580SOL     hw 6318   5.779   4.999   6.860  0.4184  0.6022 -1.8718
 1580SOL     hw 6319   5.653   4.925   6.902  2.2049 -1.4421  0.1024
 1580SOL     vw 6320   5.692   4.991   6.860  0.4475 -0.2410  0.2687
 1581SOL     ow 6321   5.801   6.919   1.150  0.3530 -0.2683  0.5152
 1581SOL     hw 6322   5.799   6.837   1.200  0.9425 -1.1617 -0.8473
 1581SOL     hw 6323   5.778   6.892   1.060  3.2999  0.5351 -0.5886
 1581SOL     vw 6324   5.798   6.904   1.144  0.8199 -0.2801  0.1898
 1582SOL     ow 6325   5.477   1.401   0.647 -0.4544 -0.0514 -0.2121
 1582SOL     hw 6326   5.548   1.339   0.662  0.4318  1.1775  0.9168
 1582SOL     hw 6327   5.402   1.347   0.623 -0.1430 -1.7004  2.2527
 1582SOL     vw 6328   5.477   1.386   0.645 -0.2964 -0.1068  0.2620
 1583SOL     ow 6329   0.749   6.944   3.915 -0.3566  0.5586 -0.2754
 1583SOL     hw 6330   0.775   6.915   3.828 -0.0434 -1.5998  0.4816
 1583SOL     hw 6331   0.819   6.914   3.973 -1.8376 -0.5105  1.0589
 1583SOL     vw 6332   0.762   6.937   3.911 -0.5106  0.1328  0.0005
 1584SOL     ow 6333   3.006   6.217   5.643 -0.7295 -0.4776 -0.0709
 1584SOL     hw 6334   3.064   6.173   5.705  1.8924  0.7748 -1.5219
 1584SOL     hw 6335   3.038   6.192   5.557 -0.8111  2.1235 -0.9427
 1584SOL     vw 6336   3.018   6.208   5.640 -0.3943  0.0308 -0.3772
 1585SOL     ow 6337   1.350   6.005   6.530 -0.2807  0.2382 -0.4216
 1585SOL     hw 6338   1.422   5.957   6.490  0.3288  2.5619 -2.3586
 1585SOL     hw 6339   1.381   6.025   6.618  1.4703  1.1323 -1.1923
 1585SOL     vw 6340   1.363   6.001   6.536  0.0307  0.6626 -0.7789
 1586SOL     ow 6341   0.258   1.903   1.272  0.4024 -0.1834  0.1750
 1586SOL     hw 6342   0.220   1.815   1.280  0.5472 -0.2661 -0.0398
 1586SOL     hw 6343   0.188   1.955   1.232  0.8579 -0.5819 -1.1891
 1586SOL     vw 6344   0.243   1.898   1.268  0.4816 -0.2469 -0.0333
 1587SOL     ow 6345   1.484   0.341   5.798  0.3715  0.7044 -0.1329
 1587SOL     hw 6346   1.478   0.351   5.703 -0.1901 -0.5918 -0.2465
 1587SOL     hw 6347   1.577   0.321   5.814  0.2150 -0.4668 -0.5694
 1587SOL     vw 6348   1.496   0.340   5.787  0.2768  0.3789 -0.2055
 1588SOL     ow 6349   6.406   3.820   0.251 -0.6384  0.1583 -0.1499
 1588SOL     hw 6350   6.349   3.759   0.204 -1.3104 -0.0674  0.9388
 1588SOL     hw 6351   6.355   3.849   0.326  0.2476  0.8748  0.1983
 1588SOL     vw 6352   6.392   3.816   0.254 -0.6101  0.2230  0.0397
 1589SOL     ow 6353   2.615   3.300   3.743  0.3817 -0.1555  0.1575
 1589SOL     hw 6354   2.657   3.272   3.662 -2.1120 -2.7826 -0.3937
 1589SOL     hw 6355   2.626   3.227   3.803  2.1620  1.7241  2.3165
 1589SOL     vw 6356   2.622   3.287   3.741  0.2875 -0.2542  0.3698
 1590SOL     ow 6357   1.765   2.457   4.731 -0.8853 -0.6210  0.1630
 1590SOL     hw 6358   1.762   2.371   4.772 -1.1021  0.0418  1.6150
 1590SOL     hw 6359   1.765   2.439   4.637  1.2952 -2.2632  0.3958
 1590SOL     vw 6360   1.764   2.443   4.724 -0.6261 -0.7503  0.3853
 1591SOL     ow 6361   2.996   1.659   3.609 -0.0370  0.1934 -0.2999
 1591SOL     hw 6362   3.018   1.616   3.692 -3.9927  0.4910  1.1372
 1591SOL     hw 6363   3.009   1.591   3.543  1.9817 -0.4447  0.6768
 1591SOL     vw 6364   3.000   1.644   3.612 -0.2925  0.1485  0.0186
 1592SOL     ow 6365   2.645   3.083   2.634 -0.0340  0.5502 -0.1879
 1592SOL     hw 6366   2.563   3.130   2.624 -0.8018 -0.1797  1.9447
 1592SOL     hw 6367   2.695   3.135   2.697  1.2075  1.0313 -1.5317
 1592SOL     vw 6368   2.641   3.096   2.641  0.0286  0.5175 -0.0838
 1593SOL     ow 6369   4.313   0.904   3.430  0.4129  0.8668 -0.2999
 1593SOL     hw 6370   4.382   0.915   3.495  3.0718 -4.4881 -1.6518
 1593SOL     hw 6371   4.250   0.844   3.471 -0.5731  1.3710 -1.0187
 1593SOL     vw 6372   4.314   0.898   3.444  0.6335  0.2268 -0.5729
 1594SOL     ow 6373   5.909   0.357   3.295  0.6440 -0.1395 -0.5340
 1594SOL     hw 6374   5.921   0.441   3.251 -1.2614  0.4837  0.0725
 1594SOL     hw 6375   5.844   0.374   3.362 -0.3638 -2.2892 -0.8943
 1594SOL     vw 6376   5.902   0.371   3.298  0.2599 -0.3409 -0.5015
 1595SOL     ow 6377   6.668   5.131   3.342  0.0783 -0.0487 -0.2815
 1595SOL     hw 6378   6.587   5.086   3.317  1.1160 -1.1387 -1.8337
 1595SOL     hw 6379   6.684   5.192   3.271  0.7224  0.0250 -0.0770
 1595SOL     vw 6380   6.659   5.133   3.329  0.2999 -0.1829 -0.4593
 1596SOL     ow 6381   5.563   7.039   1.147 -0.0615 -0.0865  0.1094
 1596SOL     hw 6382   5.507   6.965   1.122  2.0550 -1.4989 -0.6747
 1596SOL     hw 6383   5.652   7.004   1.145  0.9343  2.2384  0.7143
 1596SOL     vw 6384   5.567   7.025   1.143  0.3490  0.0336  0.0858
 1597SOL     ow 6385   4.740   2.907   1.074  1.0831  0.4642  0.3635
 1597SOL     hw 6386   4.823   2.938   1.038  1.3658 -0.6815 -0.0146
 1597SOL     hw 6387   4.677   2.919   1.004  1.2828 -0.1959  0.0638
 1597SOL     vw 6388   4.743   2.912   1.060  1.1470  0.2259  0.2741
 1598SOL     ow 6389   2.280   4.266   2.692  0.4149 -0.4227 -0.2499
 1598SOL     hw 6390   2.347   4.217   2.644  0.4411 -1.0881  0.4574
 1598SOL     hw 6391   2.329   4.319   2.755  0.3129 -0.3439 -0.2364
 1598SOL     vw 6392   2.296   4.267   2.694  0.4050 -0.5000 -0.1546
 1599SOL     ow 6393   6.421   0.622   3.358 -0.7640 -0.3465 -0.6097
 1599SOL     hw 6394   6.326   0.633   3.358 -0.5890  1.7560  1.1771
 1599SOL     hw 6395   6.454   0.699   3.403  1.6963 -1.8803  0.4112
 1599SOL     vw 6396   6.413   0.633   3.364 -0.4165 -0.2714 -0.2391
 1600SOL     ow 6397   3.200   3.510   0.221 -0.4669 -0.1296  0.0122
 1600SOL     hw 6398   3.267   3.495   0.288 -0.4739 -0.4576 -0.0521
 1600SOL     hw 6399   3.184   3.424   0.183 -2.4774 -0.5123  1.5128
 1600SOL     vw 6400   3.206   3.497   0.225 -0.7333 -0.2235  0.2017
 1601SOL     ow 6401   0.826   4.219   7.010 -0.4982 -0.2639  0.1251
 1601SOL     hw 6402   0.762   4.285   7.035 -0.4758 -0.3641  0.4450
 1601SOL     hw 6403   0.910   4.263   7.015 -0.5869  0.0775 -0.9817
 1601SOL     vw 6404   0.829   4.233   7.014 -0.5070 -0.2317  0.0212
 1602SOL     ow 6405   6.761   2.244   4.576  0.2969  0.4362  0.1924
 1602SOL     hw 6406   6.752   2.337   4.556 -1.1415 -0.2872 -3.1833
 1602SOL     hw 6407   6.806   2.208   4.500 -3.1285 -2.2589 -0.7702
 1602SOL     vw 6408   6.766   2.252   4.563 -0.3448 -0.0149 -0.3798
 1603SOL     ow 6409   6.772   0.463   0.261  0.0338  0.3939 -0.0908
 1603SOL     hw 6410   6.694   0.435   0.309 -1.3390  3.1669 -0.4858
 1603SOL     hw 6411   6.748   0.453   0.169  0.4392  0.5473 -0.2126
 1603SOL     vw 6412   6.758   0.458   0.255 -0.0937  0.7800 -0.1590
 1604SOL     ow 6413   0.869   6.874   6.404  0.3592  0.1910  0.3176
 1604SOL     hw 6414   0.815   6.874   6.325  0.5125 -0.3428  0.2017
 1604SOL     hw 6415   0.958   6.886   6.371  0.3545  0.6494  0.4699
 1604SOL     vw 6416   0.874   6.875   6.389  0.3788  0.1814  0.3223
 1605SOL     ow 6417   3.702   1.759   2.845  0.5003 -0.0203 -0.9739
 1605SOL     hw 6418   3.787   1.759   2.889  0.8952  0.9266 -1.7075
 1605SOL     hw 6419   3.641   1.726   2.911  1.4796 -1.0531 -0.5549
 1605SOL     vw 6420   3.705   1.755   2.860  0.6815 -0.0317 -1.0155
 1606SOL     ow 6421   4.256   5.437   5.869  0.0212  0.8624  0.1004
 1606SOL     hw 6422   4.307   5.503   5.821  1.7966 -1.2546 -1.1299
 1606SOL     hw 6423   4.316   5.405   5.937  0.4679 -1.6873 -1.3681
 1606SOL     vw 6424   4.271   5.442   5.872  0.3142  0.2468 -0.2556
 1607SOL     ow 6425   6.720   4.414   2.035 -0.8043  0.4634 -0.3891
 1607SOL     hw 6426   6.770   4.477   1.984 -1.5021  1.9653  0.7031
 1607SOL     hw 6427   6.768   4.407   2.117 -0.4406 -0.8813 -0.6913
 1607SOL     vw 6428   6.733   4.421   2.039 -0.8483  0.4842 -0.2849
 1608SOL     ow 6429   1.366   3.647   4.565  0.4000  0.1223 -0.6094
 1608SOL     hw 6430   1.397   3.660   4.655  0.0448  0.1652 -0.4911
 1608SOL     hw 6431   1.434   3.595   4.523 -0.1278 -1.2145  0.1255
 1608SOL     vw 6432   1.379   3.642   4.571  0.2835 -0.0484 -0.4969
 1609SOL     ow 6433   5.428   2.654   0.370  0.3874  0.5692  0.0787
 1609SOL     hw 6434   5.436   2.749   0.383  0.1595  0.6201 -0.1334
 1609SOL     hw 6435   5.483   2.615   0.438  0.1800  0.8481  0.4101
 1609SOL     vw 6436   5.436   2.661   0.380  0.3297  0.6125  0.0945
 1610SOL     ow 6437   5.189   1.134   5.440 -0.0356  0.4189 -0.4491
 1610SOL     hw 6438   5.145   1.150   5.356 -0.7530  1.1705  0.0450
 1610SOL     hw 6439   5.119   1.144   5.505  0.8211  1.4521  0.3558
 1610SOL     vw 6440   5.174   1.138   5.438 -0.0174  0.6544 -0.2773
 1611SOL     ow 6441   2.168   5.188   0.643  0.2106 -0.3611 -0.5281
 1611SOL     hw 6442   2.137   5.184   0.553  0.2613  1.7668 -0.6795
 1611SOL     hw 6443   2.190   5.280   0.657 -0.4887 -0.4943  1.8939
 1611SOL     vw 6444   2.167   5.199   0.633  0.1252 -0.0980 -0.2285
 1612SOL     ow 6445   5.828   0.179   5.657  0.2176  0.2512  0.0502
 1612SOL     hw 6446   5.769   0.242   5.699 -1.8046 -0.7103 -1.2217
 1612SOL     hw 6447   5.911   0.190   5.704  0.4276  4.7633 -0.9365
 1612SOL     vw 6448   5.831   0.189   5.669 -0.0215  0.7197 -0.2480
 1613SOL     ow 6449   1.653   2.691   5.522 -0.2166  0.0509 -0.0730
 1613SOL     hw 6450   1.614   2.771   5.557 -3.9857 -0.4928 -2.4761
 1613SOL     hw 6451   1.727   2.722   5.469  0.8364  1.4684  2.0504
 1613SOL     vw 6452   1.658   2.706   5.520 -0.5750  0.1662 -0.1099
 1614SOL     ow 6453   3.413   5.526   1.222 -0.1107  0.3229 -0.5045
 1614SOL     hw 6454   3.396   5.598   1.282 -0.3844 -0.7710  0.7693
 1614SOL     hw 6455   3.388   5.447   1.270  2.8904 -0.9167 -0.7329
 1614SOL     vw 6456   3.408   5.525   1.236  0.2491  0.0153 -0.3666
 1615SOL     ow 6457   3.595   3.509   6.258  0.6384  0.0201  0.6692
 1615SOL     hw 6458   3.622   3.508   6.350 -0.1708  1.1359  0.9265
 1615SOL     hw 6459   3.643   3.582   6.219 -0.8240  1.0717  0.7797
 1615SOL     vw 6460   3.605   3.518   6.265  0.3387  0.3060  0.7176
 1616SOL     ow 6461   1.851   6.653   2.621 -1.0524  0.6955  0.0821
 1616SOL     hw 6462   1.812   6.567   2.610 -0.2547 -0.0757  2.6175
 1616SOL     hw 6463   1.908   6.663   2.544 -1.5715 -0.7842 -0.5393
 1616SOL     vw 6464   1.853   6.643   2.609 -1.0156  0.3986  0.3346
 1617SOL     ow 6465   1.532   0.924   4.224 -0.2360 -0.0773 -0.5545
 1617SOL     hw 6466   1.461   0.961   4.277 -0.5290 -0.3350 -0.7661
 1617SOL     hw 6467   1.511   0.832   4.215  0.0970 -0.1448 -0.6701
 1617SOL     vw 6468   1.520   0.917   4.230 -0.2308 -0.1202 -0.5977
 1618SOL     ow 6469   4.207   7.100   0.997 -0.5634 -0.1686 -0.6096
 1618SOL     hw 6470   4.278   7.091   0.933 -0.0703  2.5021 -0.5622
 1618SOL     hw 6471   4.229   7.180   1.045 -2.1208 -0.8650  1.3861
 1618SOL     vw 6472   4.220   7.109   0.995 -0.7041  0.0919 -0.3400
 1619SOL     ow 6473   4.865   2.272   1.924 -1.0696  0.0086 -0.1599
 1619SOL     hw 6474   4.932   2.274   1.992  0.7307 -1.1560 -1.7686
 1619SOL     hw 6475   4.793   2.222   1.963  0.5052 -1.9214  0.4614
 1619SOL     vw 6476   4.864   2.265   1.938 -0.6244 -0.3996 -0.2902
 1620SOL     ow 6477   1.178   2.900   3.714 -0.1467  0.2736  0.5140
 1620SOL     hw 6478   1.150   2.973   3.660  1.5458 -0.6216 -1.7040
 1620SOL     hw 6479   1.265   2.925   3.745 -0.1747 -0.1956  0.9902
 1620SOL     vw 6480   1.185   2.913   3.711  0.0729  0.0936  0.2842
 1621poe    c31 6481   3.842   0.258   1.634  0.1224  0.0495 -0.3145
 1621poe     o2 6482   3.774   0.201   1.524 -0.1379  0.4497 -0.3653
 1621poe    c23 6483   3.797   0.280   1.409  0.1867  0.6192 -0.1845
 1621poe    c23 6484   3.762   0.188   1.291  0.1654  0.5426 -0.1188
 1621poe     o2 6485   3.638   0.123   1.312  0.5977 -0.0719  0.5595
 1621poe    c23 6486   3.609   0.027   1.213 -0.2851 -0.3192  1.0499
 1621poe    c23 6487   3.471  -0.034   1.240 -0.5237 -0.3318 -0.1339
 1621poe     o2 6488   3.488  -0.115   1.354  0.1180  0.1666  0.1239
 1621poe    c23 6489   3.365  -0.165   1.401  0.1731  0.4607  0.5880
 1621poe    c23 6490   3.368  -0.241   1.535 -0.5141  0.1049  0.4059
 1621poe     o2 6491   3.391  -0.151   1.641 -0.1107  0.2273  0.2182
 1621poe    c31 6492   3.367  -0.203   1.770  0.5732 -0.4892  0.0696
 1622poe    c31 6493   2.041   5.574   5.125 -0.2049  0.3671 -0.1733
 1622poe     o2 6494   1.944   5.672   5.091 -0.4154  0.2939  0.2134
 1622poe    c23 6495   1.984   5.789   5.159  0.3770  0.2428 -0.1551
 1622poe    c23 6496   1.886   5.902   5.123  0.3182  0.1257 -0.3659
 1622poe     o2 6497   1.758   5.854   5.160  0.1600  0.2350 -0.7673
 1622poe    c23 6498   1.653   5.947   5.144  0.1221  0.3778  0.2752
 1622poe    c23 6499   1.547   5.904   5.248  0.1996 -0.2450  0.1006
 1622poe     o2 6500   1.505   5.771   5.228 -0.4127 -0.0561  0.1365
 1622poe    c23 6501   1.459   5.715   5.349  0.1288 -0.3814  0.1937
 1622poe    c23 6502   1.379   5.585   5.327 -0.2275 -0.0269 -0.6189
 1622poe     o2 6503   1.472   5.481   5.345 -0.0453  0.2406 -0.0185
 1622poe    c31 6504   1.401   5.360   5.364  0.5826 -0.2867 -0.9332
 1623poe    c31 6505   3.362   2.814   3.998 -0.3921 -0.5257  0.1757
 1623poe     o2 6506   3.242   2.751   4.036 -0.0635 -1.0415  0.3746
 1623poe    c23 6507   3.199   2.813   4.155 -0.0206  0.7076 -0.4826
 1623poe    c23 6508   3.072   2.752   4.217  0.6047  0.0392  0.1636
 1623poe     o2 6509   3.010   2.694   4.105 -0.6965  0.4446  0.6545
 1623poe    c23 6510   2.942   2.576   4.142 -0.2771 -0.0609 -0.1749
 1623poe    c23 6511   2.865   2.526   4.018 -0.0924 -1.1744  0.1474
 1623poe     o2 6512   2.945   2.555   3.905 -0.0684  0.1013  0.4783
 1623poe    c23 6513   2.891   2.518   3.780  0.3396  0.3249  0.2329
 1623poe    c23 6514   2.974   2.404   3.720  0.0994  0.4554 -0.3493
 1623poe     o2 6515   3.096   2.450   3.666  0.6023  0.1356  0.5032
 1623poe    c31 6516   3.153   2.372   3.564 -0.3623 -0.5002  0.4400
 1624poe    c31 6517   4.692   0.827   2.347  0.1962 -0.2537 -0.2945
 1624poe     o2 6518   4.822   0.834   2.292  0.2079  0.5096 -0.1932
 1624poe    c23 6519   4.914   0.904   2.373  0.0640  0.0825  0.3448
 1624poe    c23 6520   5.059   0.907   2.321 -0.0281 -0.2924  0.0571
 1624poe     o2 6521   5.129   0.785   2.321 -0.0260 -0.2934 -0.3143
 1624poe    c23 6522   5.195   0.767   2.198  0.1583 -0.5267 -0.1843
 1624poe    c23 6523   5.281   0.640   2.189  0.2689 -0.4905  0.3151
 1624poe     o2 6524   5.400   0.652   2.263  0.0704  0.3998  0.4965
 1624poe    c23 6525   5.474   0.533   2.268  0.0195  0.3578  0.2695
 1624poe    c23 6526   5.611   0.549   2.337  0.3972  0.3089 -0.4517
 1624poe     o2 6527   5.593   0.631   2.450  0.5820  0.2396 -0.3717
 1624poe    c31 6528   5.717   0.660   2.510  0.4537  0.2141 -0.0910
 1625poe    c31 6529   5.756   1.040   2.560  0.1839  0.0885  0.3902
 1625poe     o2 6530   5.680   1.003   2.672  0.1422  0.2646  0.4213
 1625poe    c23 6531   5.564   1.079   2.698  0.4300  0.9182 -0.1757
 1625poe    c23 6532   5.514   1.078   2.844  0.4422  0.0408 -0.1706
 1625poe     o2 6533   5.473   0.956   2.902 -0.4250  0.1871 -0.4553
 1625poe    c23 6534   5.415   0.967   3.029 -0.1702 -0.6511 -0.2606
 1625poe    c23 6535   5.267   0.924   3.018 -0.1278 -0.8934  0.0848
 1625poe     o2 6536   5.254   0.785   2.999  0.0190 -0.8994  0.0226
 1625poe    c23 6537   5.127   0.735   3.036 -0.1884 -0.4081 -0.0186
 1625poe    c23 6538   5.074   0.652   2.918 -0.2589 -0.0915 -0.2107
 1625poe     o2 6539   4.995   0.732   2.834  0.1986  0.6053  0.0133
 1625poe    c31 6540   4.856   0.708   2.847  0.4358 -0.6992  0.2560
 1626poe    c31 6541   3.221   6.707   2.615  0.3154 -0.5284 -0.0571
 1626poe     o2 6542   3.307   6.736   2.507 -0.3463  0.0609 -0.4314
 1626poe    c23 6543   3.265   6.838   2.420 -0.9150 -0.2962 -0.5750
 1626poe    c23 6544   3.376   6.869   2.318 -0.6293 -0.6833 -0.3802
 1626poe     o2 6545   3.436   6.751   2.269 -0.2491 -0.5673 -0.1997
 1626poe    c23 6546   3.512   6.767   2.151 -0.5158 -0.4822 -0.3608
 1626poe    c23 6547   3.601   6.641   2.143  0.5671  0.2617 -0.1253
 1626poe     o2 6548   3.610   6.575   2.267 -0.0265 -0.3022 -0.3814
 1626poe    c23 6549   3.728   6.498   2.267  0.4032  0.3060  1.2683
 1626poe    c23 6550   3.720   6.358   2.330 -1.0046 -0.3935 -0.3557
 1626poe     o2 6551   3.671   6.353   2.463  0.3193 -0.0127  0.1656
 1626poe    c31 6552   3.648   6.220   2.501  0.1314 -0.1877 -0.5365
 1627poe    c31 6553   0.178   2.906   5.832  0.0867  0.2429 -0.1693
 1627poe     o2 6554   0.047   2.936   5.873  0.0562 -0.0821 -0.0247
 1627poe    c23 6555   0.041   2.860   5.991 -0.2951 -0.3787 -0.2303
 1627poe    c23 6556  -0.106   2.846   6.037 -0.1723 -0.0081  0.2935
 1627poe     o2 6557  -0.178   2.964   6.011  0.0404  0.1210  0.2880
 1627poe    c23 6558  -0.289   2.973   6.098 -0.5645 -0.3456 -0.4286
 1627poe    c23 6559  -0.370   3.101   6.070 -0.0517  0.1780  0.4345
 1627poe     o2 6560  -0.424   3.095   5.939  0.1092 -0.1592  0.3809
 1627poe    c23 6561  -0.475   3.224   5.912  0.4841 -0.0601  0.1236
 1627poe    c23 6562  -0.556   3.217   5.781  0.2154  0.2276  0.2720
 1627poe     o2 6563  -0.492   3.123   5.697 -0.5789 -0.1848  0.1235
 1627poe    c31 6564  -0.568   3.094   5.582 -0.1600 -0.7494 -0.0141
 1628poe    c31 6565   4.554   3.690   2.394  0.2030 -0.3678 -0.2422
 1628poe     o2 6566   4.643   3.697   2.285  0.1746  0.1643 -0.2340
 1628poe    c23 6567   4.721   3.580   2.283 -0.1757 -0.0762  0.0968
 1628poe    c23 6568   4.874   3.599   2.289 -0.1685 -0.1495  0.1453
 1628poe     o2 6569   4.924   3.686   2.190  0.0109 -0.2514  0.1481
 1628poe    c23 6570   5.063   3.705   2.179  0.0477 -0.5316  0.0994
 1628poe    c23 6571   5.107   3.810   2.074  0.1067 -0.1327  0.5199
 1628poe     o2 6572   5.070   3.936   2.125  0.4230 -0.0217  0.4785
 1628poe    c23 6573   5.089   4.045   2.039  0.4651  0.2336  0.8077
 1628poe    c23 6574   4.963   4.133   2.040 -0.2064 -0.7023  0.0660
 1628poe     o2 6575   4.931   4.163   2.174  0.2770 -0.6730  0.1772
 1628poe    c31 6576   4.929   4.297   2.217  0.4142 -0.4257 -0.5637
 1629poe    c31 6577   1.927   3.945   6.807 -0.5808 -0.0874  0.0807
 1629poe     o2 6578   1.808   3.875   6.835 -0.6092 -0.0339  0.0952
 1629poe    c23 6579   1.832   3.737   6.856 -0.1035 -0.0197 -0.3626
 1629poe    c23 6580   1.705   3.654   6.884 -0.1156 -0.0164 -0.4076
 1629poe     o2 6581   1.599   3.683   6.796 -0.6653 -0.0953  0.2195
 1629poe    c23 6582   1.531   3.802   6.825  0.3013  0.5425 -0.0719
 1629poe    c23 6583   1.419   3.816   6.720  0.0808 -0.6639 -0.0042
 1629poe     o2 6584   1.485   3.762   6.607  0.1330 -0.0144 -0.2870
 1629poe    c23 6585   1.425   3.787   6.482  0.1393  0.3150 -0.2246
 1629poe    c23 6586   1.507   3.710   6.377  0.1034 -0.0933  0.0441
 1629poe     o2 6587   1.532   3.580   6.425  0.0714 -0.0177  0.2662
 1629poe    c31 6588   1.520   3.488   6.319 -0.1232 -0.2867  0.5228
 1630poe    c31 6589   0.583   2.036   1.353  0.4404  0.2758 -0.9212
 1630poe     o2 6590   0.483   1.988   1.440  0.7615  0.3930 -0.4816
 1630poe    c23 6591   0.489   2.075   1.550  0.1105 -0.2250  0.0509
 1630poe    c23 6592   0.352   2.135   1.589  0.2274 -0.2632  0.5302
 1630poe     o2 6593   0.265   2.028   1.561 -0.1122  0.2891 -0.5998
 1630poe    c23 6594   0.137   2.048   1.617  0.2478  0.6238  0.1174
 1630poe    c23 6595   0.062   1.914   1.624  0.6949  0.3809  0.2551
 1630poe     o2 6596   0.108   1.841   1.512  0.1778  0.6377 -0.1280
 1630poe    c23 6597   0.033   1.726   1.482  0.5184  0.4262 -0.1753
 1630poe    c23 6598   0.111   1.610   1.416  0.4320 -0.0363  0.5307
 1630poe     o2 6599   0.169   1.643   1.292 -0.2939 -0.1877  0.1463
 1630poe    c31 6600   0.244   1.540   1.233 -0.4356 -0.1946 -0.0232
 1631poe    c31 6601   2.997   0.741   1.922  0.4580  0.3411 -0.4209
 1631poe     o2 6602   2.893   0.788   1.840 -0.4013  0.1293  0.5225
 1631poe    c23 6603   2.952   0.881   1.752 -0.1793 -0.0609  0.4709
 1631poe    c23 6604   2.848   0.940   1.655  0.2667 -0.2404 -0.1256
 1631poe     o2 6605   2.894   1.029   1.555 -0.4197  0.0514 -0.1846
 1631poe    c23 6606   2.796   1.049   1.455 -0.3548  0.3477 -0.1898
 1631poe    c23 6607   2.846   1.135   1.338  0.3103 -0.0175 -0.1773
 1631poe     o2 6608   2.866   1.270   1.373 -0.2126 -0.1474  0.6407
 1631poe    c23 6609   2.984   1.327   1.322 -0.2647 -0.0317  0.6491
 1631poe    c23 6610   3.037   1.418   1.435  0.4997  0.4752 -0.1041
 1631poe     o2 6611   2.963   1.536   1.451 -0.2633 -0.0167  0.0628
 1631poe    c31 6612   3.046   1.632   1.513 -0.5135  0.2299  0.0163
 1632poe    c31 6613   2.836   0.255   3.687  0.4843  0.4591  0.2057
 1632poe     o2 6614   2.731   0.348   3.680  0.2390  0.1810  0.1428
 1632poe    c23 6615   2.607   0.305   3.629  0.2446 -0.1226  0.3805
 1632poe    c23 6616   2.505   0.421   3.623  0.3570 -0.0054  0.7204
 1632poe     o2 6617   2.496   0.499   3.506 -0.2185 -0.1075  0.6911
 1632poe    c23 6618   2.391   0.591   3.522  0.0359  0.3377 -0.1275
 1632poe    c23 6619   2.445   0.711   3.442  0.3965  0.2669  0.0086
 1632poe     o2 6620   2.566   0.762   3.492  0.2248  0.2334  0.4656
 1632poe    c23 6621   2.562   0.851   3.601  0.3117  0.6423  0.1377
 1632poe    c23 6622   2.681   0.948   3.586  0.6362  0.3104  0.5347
 1632poe     o2 6623   2.795   0.867   3.568 -0.1390 -0.5794 -0.5179
 1632poe    c31 6624   2.916   0.934   3.595 -0.7037  0.4075 -0.3842
 1633poe    c31 6625   2.514   0.650   6.184  0.3843 -0.0970  0.6265
 1633poe     o2 6626   2.547   0.687   6.051  0.6394 -0.2267  0.6543
 1633poe    c23 6627   2.479   0.617   5.950  0.0394  0.7735  0.3544
 1633poe    c23 6628   2.524   0.669   5.813 -0.2183 -0.0797 -0.0637
 1633poe     o2 6629   2.665   0.674   5.808 -0.2372  0.4706 -0.0720
 1633poe    c23 6630   2.704   0.733   5.686  0.6223  0.2776  0.1034
 1633poe    c23 6631   2.854   0.766   5.698  0.5891  0.3957  0.1919
 1633poe     o2 6632   2.933   0.658   5.743  0.3324  0.1469  0.0498
 1633poe    c23 6633   3.073   0.675   5.742  0.4035 -0.4446 -0.8698
 1633poe    c23 6634   3.116   0.536   5.792  0.4174  0.0643  0.5814
 1633poe     o2 6635   3.042   0.503   5.907  0.1691 -0.0925  0.3777
 1633poe    c31 6636   3.086   0.390   5.980  0.4647 -0.1338  0.1362
 1634poe    c31 6637   2.467   5.176   0.271 -0.0091 -0.1832 -0.0304
 1634poe     o2 6638   2.435   5.173   0.408 -0.2458  0.0236 -0.0807
 1634poe    c23 6639   2.496   5.284   0.469 -0.1877 -0.1822  0.2437
 1634poe    c23 6640   2.568   5.261   0.603  0.3086 -0.2155 -0.0262
 1634poe     o2 6641   2.473   5.226   0.701  0.0776  0.2619 -0.0766
 1634poe    c23 6642   2.532   5.186   0.823  0.0910 -0.3963 -0.2969
 1634poe    c23 6643   2.423   5.139   0.921  0.0158 -0.1149 -0.2436
 1634poe     o2 6644   2.343   5.044   0.853  0.0599 -0.4110  0.1163
 1634poe    c23 6645   2.265   4.967   0.942  0.2564 -0.6273  0.1034
 1634poe    c23 6646   2.117   4.959   0.902  0.1635  0.4204  0.1951
 1634poe     o2 6647   2.114   4.939   0.763  0.1642  0.3914  0.1991
 1634poe    c31 6648   1.977   4.929   0.730  0.2958 -0.7593 -0.0577
 1635poe    c31 6649   2.193   3.662   5.555 -0.4594 -0.3271  0.3666
 1635poe     o2 6650   2.323   3.699   5.594 -0.5916  0.0976  0.4149
 1635poe    c23 6651   2.317   3.818   5.670 -0.3051  0.6631 -0.4391
 1635poe    c23 6652   2.457   3.860   5.721 -0.3587 -0.1197  0.3744
 1635poe     o2 6653   2.479   3.841   5.859 -0.5998 -0.0352  0.4248
 1635poe    c23 6654   2.600   3.775   5.886 -0.8101 -0.5383  0.1493
 1635poe    c23 6655   2.635   3.798   6.035  0.4704  0.0823 -0.2336
 1635poe     o2 6656   2.568   3.717   6.129  0.5295  0.5505  0.2119
 1635poe    c23 6657   2.530   3.795   6.241 -0.2627  0.9013 -0.2956
 1635poe    c23 6658   2.446   3.713   6.340  0.0162 -0.0567 -0.8360
 1635poe     o2 6659   2.531   3.608   6.381  0.0704  0.0288 -0.7281
 1635poe    c31 6660   2.529   3.597   6.522  0.1208 -0.1434 -0.7406
 1636poe    c31 6661   5.452   0.209   6.165  0.0257  0.0075  0.4476
 1636poe     o2 6662   5.592   0.213   6.148 -0.0226  0.0733  0.0578
 1636poe    c23 6663   5.622   0.321   6.063 -0.0822  0.4667  0.5337
 1636poe    c23 6664   5.767   0.371   6.049 -0.0546  0.0945 -0.5663
 1636poe     o2 6665   5.846   0.273   5.985  0.0764 -0.6770  0.7558
 1636poe    c23 6666   5.981   0.312   5.974 -0.2602  0.3140  0.0434
 1636poe    c23 6667   6.084   0.214   5.915 -0.3411  0.2763 -0.0357
 1636poe     o2 6668   6.062   0.175   5.782 -0.4177 -0.3647  0.1613
 1636poe    c23 6669   6.185   0.136   5.723 -0.2543  0.2745  0.0732
 1636poe    c23 6670   6.162   0.070   5.586 -0.4010 -0.2772  0.3580
 1636poe     o2 6671   6.096   0.149   5.490  0.1831 -0.0808  0.1082
 1636poe    c31 6672   6.180   0.237   5.419 -0.1580  0.3604  0.2461
 1637poe    c31 6673   5.544   3.642   1.616 -0.0023  0.2809 -0.5837
 1637poe     o2 6674   5.616   3.645   1.495  0.7811  0.2510 -0.1238
 1637poe    c23 6675   5.676   3.518   1.478  0.8879  0.1963  0.6391
 1637poe    c23 6676   5.780   3.532   1.366  0.3386 -0.2570  0.0675
 1637poe     o2 6677   5.724   3.529   1.236  0.1638  0.0249  0.1341
 1637poe    c23 6678   5.753   3.410   1.166 -0.2081  0.1359 -0.2100
 1637poe    c23 6679   5.741   3.443   1.016  0.0637  0.6431 -0.1219
 1637poe     o2 6680   5.604   3.457   0.983 -0.1736 -0.5532  0.2986
 1637poe    c23 6681   5.570   3.515   0.859  0.1795  0.5302  0.6900
 1637poe    c23 6682   5.421   3.503   0.821  0.3582 -0.5931  0.2938
 1637poe     o2 6683   5.368   3.513   0.951  0.1690 -0.2204  0.1906
 1637poe    c31 6684   5.230   3.538   0.935  0.2269 -0.1231 -0.1610
 1638poe    c31 6685   6.988   6.301   1.856  0.7289 -0.1992 -0.0372
 1638poe     o2 6686   6.961   6.411   1.773  0.5969 -0.0145  0.2493
 1638poe    c23 6687   6.860   6.367   1.684 -0.1780  0.0368  1.0932
 1638poe    c23 6688   6.777   6.488   1.637 -0.1895 -0.3285  0.1684
 1638poe     o2 6689   6.850   6.579   1.557 -0.3916 -0.0547  0.2944
 1638poe    c23 6690   6.833   6.712   1.600 -0.1747 -0.1516  0.6873
 1638poe    c23 6691   6.929   6.805   1.523 -0.3959 -0.5151 -0.0306
 1638poe     o2 6692   7.060   6.756   1.531 -0.1466  0.0845 -0.3690
 1638poe    c23 6693   7.154   6.860   1.548 -0.2881  0.0802  0.4718
 1638poe    c23 6694   7.196   6.884   1.694  0.0666  0.3582  0.3251
 1638poe     o2 6695   7.313   6.817   1.738 -0.1631 -0.1243  0.2102
 1638poe    c31 6696   7.366   6.881   1.852  0.8358  0.1034 -0.3749
 1639poe    c31 6697   1.538   5.331   2.330  0.0601  0.4183  0.1223
 1639poe     o2 6698   1.470   5.390   2.222 -0.2354 -0.4567 -0.1838
 1639poe    c23 6699   1.555   5.414   2.113  0.1537  0.3726  0.2905
 1639poe    c23 6700   1.480   5.482   1.997  0.2842 -0.2794 -0.1821
 1639poe     o2 6701   1.384   5.408   1.924 -0.0162 -0.3122  0.2459
 1639poe    c23 6702   1.280   5.496   1.885  0.2873  0.1012  0.3559
 1639poe    c23 6703   1.163   5.412   1.830  0.3361  0.2711 -0.0048
 1639poe     o2 6704   1.097   5.328   1.921 -0.1466  0.7106  0.0544
 1639poe    c23 6705   0.987   5.279   1.848  0.1828  0.0756 -0.0246
 1639poe    c23 6706   0.921   5.149   1.896  0.0978  0.0872 -0.1095
 1639poe     o2 6707   0.867   5.163   2.025 -0.0541 -0.0955 -0.1514
 1639poe    c31 6708   0.730   5.195   2.032  0.0096  0.1946 -0.1947
 1640poe    c31 6709   3.747   2.495   0.192  0.6605 -0.3124  0.1980
 1640poe     o2 6710   3.721   2.630   0.224  0.7797 -0.2472  0.0171
 1640poe    c23 6711   3.837   2.707   0.244  0.7914 -0.3237  0.2440
 1640poe    c23 6712   3.787   2.853   0.241 -0.2542 -0.6805 -0.0929
 1640poe     o2 6713   3.718   2.870   0.119 -0.1356 -0.4409 -0.1270
 1640poe    c23 6714   3.689   3.005   0.094 -0.1643 -0.3911  0.1707
 1640poe    c23 6715   3.603   3.025  -0.032  0.4008  0.3917 -0.1008
 1640poe     o2 6716   3.511   2.918  -0.034  1.1751 -0.2719 -0.7129
 1640poe    c23 6717   3.416   2.922  -0.139  0.2252  0.1723  0.1488
 1640poe    c23 6718   3.304   2.821  -0.111  0.3763  0.0118  0.1808
 1640poe     o2 6719   3.317   2.697  -0.176 -0.0511 -0.2544  0.5997
 1640poe    c31 6720   3.197   2.622  -0.175 -0.2266  0.0051 -0.2022
 1641poe    c31 6721   2.533   5.849   1.408  0.1467  0.3786 -0.1245
 1641poe     o2 6722   2.659   5.912   1.415  0.5235 -0.3803 -0.0369
 1641poe    c23 6723   2.768   5.824   1.436  0.5858 -0.2666  0.1175
 1641poe    c23 6724   2.891   5.897   1.381  0.1397  0.0824 -0.4320
 1641poe     o2 6725   2.886   6.017   1.455  0.0261 -0.1765 -0.0166
 1641poe    c23 6726   3.003   6.092   1.434 -0.0671  0.1825  0.7248
 1641poe    c23 6727   2.991   6.221   1.518  0.0019 -0.2091  1.3398
 1641poe     o2 6728   2.866   6.283   1.498  0.3985  0.1546 -0.1632
 1641poe    c23 6729   2.862   6.379   1.600  0.1148  0.4388 -0.4410
 1641poe    c23 6730   2.723   6.439   1.629 -0.3023 -0.5898 -0.2680
 1641poe     o2 6731   2.638   6.378   1.724  0.0141 -0.3484  0.1780
 1641poe    c31 6732   2.529   6.459   1.758  0.1268 -0.2406  0.2791
 1642poe    c31 6733   6.304   1.282   0.613  0.1841  0.4861 -0.7329
 1642poe     o2 6734   6.370   1.388   0.548  0.3577  0.8799  0.0763
 1642poe    c23 6735   6.366   1.373   0.408 -0.1048 -0.8075  0.2552
 1642poe    c23 6736   6.446   1.479   0.330 -0.2580 -0.2965  0.7885
 1642poe     o2 6737   6.384   1.606   0.329 -0.1112 -0.2230 -0.2098
 1642poe    c23 6738   6.283   1.619   0.232 -0.1095  0.0294 -0.1796
 1642poe    c23 6739   6.207   1.752   0.236 -0.1871 -0.0182 -0.0839
 1642poe     o2 6740   6.114   1.771   0.132 -0.4011 -0.3784  0.0389
 1642poe    c23 6741   6.045   1.893   0.153  0.1951  0.0109 -0.2272
 1642poe    c23 6742   5.926   1.940   0.067 -0.4399 -0.3923  0.4214
 1642poe     o2 6743   5.803   1.875   0.090 -0.4447 -0.3224  0.5945
 1642poe    c31 6744   5.699   1.946   0.028 -0.2073 -0.4764  0.0054
 1643poe    c31 6745   5.586   0.884   4.797 -0.0150 -0.2050 -0.1656
 1643poe     o2 6746   5.701   0.911   4.720 -0.2686  0.0326 -0.4638
 1643poe    c23 6747   5.695   0.862   4.588 -0.3110  0.3871 -0.5967
 1643poe    c23 6748   5.838   0.879   4.531 -0.2611  0.2349 -0.5172
 1643poe     o2 6749   5.871   1.016   4.528 -0.2683  0.2744  0.6562
 1643poe    c23 6750   5.831   1.100   4.423 -0.0835 -0.1823  0.2137
 1643poe    c23 6751   5.910   1.231   4.439 -0.2096 -0.0868  0.0635
 1643poe     o2 6752   5.920   1.275   4.573 -0.0261 -0.3276  0.1293
 1643poe    c23 6753   5.973   1.405   4.583 -0.0126 -0.3406  0.2289
 1643poe    c23 6754   5.967   1.446   4.731  0.6179  0.7492 -0.0309
 1643poe     o2 6755   6.014   1.340   4.812 -0.2050  0.3124 -0.1172
 1643poe    c31 6756   6.033   1.385   4.944  0.3180 -0.3334  0.0346
 1644poe    c31 6757   2.018   3.760   3.255  0.2399  0.0228  0.4207
 1644poe     o2 6758   2.110   3.865   3.231  0.2222 -0.0720 -0.0720
 1644poe    c23 6759   2.070   3.933   3.114  0.1084 -0.3745 -0.2128
 1644poe    c23 6760   2.188   4.029   3.088  0.0718 -0.2521  0.0717
 1644poe     o2 6761   2.308   3.969   3.043  0.0404 -0.1849 -0.0998
 1644poe    c23 6762   2.385   4.073   2.985 -0.1943 -0.0017 -0.0874
 1644poe    c23 6763   2.528   4.021   2.961 -0.0550  0.3554 -0.0275
 1644poe     o2 6764   2.600   4.004   3.081 -0.4635  0.0745  0.1820
 1644poe    c23 6765   2.725   3.943   3.059 -0.5743 -0.1761  0.2489
 1644poe    c23 6766   2.798   3.896   3.187  0.0030 -0.1024 -0.0477
 1644poe     o2 6767   2.858   3.997   3.265 -0.2292 -0.0860  0.1131
 1644poe    c31 6768   2.943   3.948   3.366  0.7110 -0.4855 -0.8448
 1645poe    c31 6769   1.280   2.876   0.412 -1.2534  0.2627  0.2279
 1645poe     o2 6770   1.268   2.735   0.413  0.7718  0.0619 -0.2604
 1645poe    c23 6771   1.325   2.695   0.291  0.4797 -0.0040 -0.3744
 1645poe    c23 6772   1.379   2.551   0.302 -0.2274 -0.2471 -0.0292
 1645poe     o2 6773   1.283   2.448   0.307 -0.0950 -0.3705 -0.0169
 1645poe    c23 6774   1.228   2.405   0.184 -0.6834  0.4565 -0.0529
 1645poe    c23 6775   1.106   2.330   0.239 -0.1769 -0.1714  0.2287
 1645poe     o2 6776   1.143   2.243   0.343  0.6570 -0.4957 -0.3337
 1645poe    c23 6777   1.046   2.145   0.373  0.5875 -0.2119  0.3903
 1645poe    c23 6778   1.078   2.082   0.510  0.3206 -0.6710  0.2453
 1645poe     o2 6779   1.108   2.185   0.602 -0.1240  0.1134 -0.4783
 1645poe    c31 6780   1.002   2.202   0.694 -0.2164  0.0734 -0.5769
 1646poe    c31 6781   6.708   4.698   5.706  0.3713 -0.5062 -0.2678
 1646poe     o2 6782   6.599   4.762   5.767  0.3246 -0.4518 -0.4056
 1646poe    c23 6783   6.524   4.664   5.836  0.3784 -0.1101  0.1428
 1646poe    c23 6784   6.445   4.743   5.942 -0.0973  0.6201 -0.7400
 1646poe     o2 6785   6.384   4.846   5.868 -0.7530  0.3133 -0.6341
 1646poe    c23 6786   6.337   4.947   5.955 -0.1511 -0.0710  0.1572
 1646poe    c23 6787   6.281   5.076   5.891  0.4887  0.4535  0.6452
 1646poe     o2 6788   6.364   5.113   5.784 -0.1291 -0.3642 -0.1308
 1646poe    c23 6789   6.326   5.235   5.725  0.3129 -0.0718  0.1831
 1646poe    c23 6790   6.423   5.284   5.615  0.4899 -0.5828  0.1114
 1646poe     o2 6791   6.439   5.204   5.500 -0.9257  0.2305 -0.6810
 1646poe    c31 6792   6.488   5.283   5.394  0.0701 -0.3503 -0.6679
 1647poe    c31 6793   0.056   3.999   0.922  0.2867 -0.1685  0.0731
 1647poe     o2 6794  -0.000   3.953   0.801  0.8488  0.1555 -0.3158
 1647poe    c23 6795   0.094   3.939   0.697  0.2619  0.5307 -0.9065
 1647poe    c23 6796   0.019   3.857   0.591 -0.0825  0.1089 -0.3452
 1647poe     o2 6797  -0.073   3.930   0.513 -1.1406 -0.1266  0.6678
 1647poe    c23 6798  -0.150   3.851   0.425  0.4174 -1.2123  0.2373
 1647poe    c23 6799  -0.300   3.833   0.457  0.2305  0.5110  0.4560
 1647poe     o2 6800  -0.318   3.753   0.572  0.2530 -0.2456 -0.0627
 1647poe    c23 6801  -0.451   3.748   0.620  0.1655 -0.6004 -0.3344
 1647poe    c23 6802  -0.468   3.682   0.758  0.5123 -0.1425 -0.0703
 1647poe     o2 6803  -0.436   3.772   0.861  0.6357 -0.2811  0.0118
 1647poe    c31 6804  -0.499   3.745   0.985 -0.2904  0.2249 -0.3404
 1648poe    c31 6805   0.454   3.081   4.025 -0.5408 -0.2442  0.0281
 1648poe     o2 6806   0.450   3.076   3.884 -0.5784 -0.3797  0.0344
 1648poe    c23 6807   0.326   3.116   3.831 -0.5536 -0.1082  0.1825
 1648poe    c23 6808   0.272   3.022   3.722 -0.0179  0.2642 -0.4061
 1648poe     o2 6809   0.229   2.901   3.780  0.3165  0.1909 -0.3085
 1648poe    c23 6810   0.145   2.818   3.703 -0.2177  0.0546  0.4097
 1648poe    c23 6811   0.045   2.726   3.776  0.0473 -0.0439  0.6500
 1648poe     o2 6812   0.117   2.607   3.800  0.2473 -0.1611 -0.4930
 1648poe    c23 6813   0.030   2.497   3.786  0.2401 -0.2352  0.1237
 1648poe    c23 6814  -0.015   2.442   3.923  0.6499  0.0695  0.3831
 1648poe     o2 6815  -0.096   2.532   3.994  0.2283  0.3639 -0.4586
 1648poe    c31 6816  -0.221   2.473   4.023 -0.0225  0.5364 -1.1644
 1649poe    c31 6817   3.945   5.873   0.186 -0.1411  0.4192  0.0519
 1649poe     o2 6818   4.072   5.860   0.127 -0.1392 -0.1477  0.1730
 1649poe    c23 6819   4.111   5.986   0.075 -0.1271 -0.2223  0.0031
 1649poe    c23 6820   4.259   5.958   0.045 -0.1436 -0.3380  0.0287
 1649poe     o2 6821   4.256   5.854  -0.050  0.0402 -0.1299 -0.2081
 1649poe    c23 6822   4.387   5.809  -0.076 -0.0040 -0.1270 -0.4312
 1649poe    c23 6823   4.388   5.725  -0.205  0.4601 -0.4460 -0.2227
 1649poe     o2 6824   4.296   5.618  -0.204 -0.3234  0.2154  0.0938
 1649poe    c23 6825   4.271   5.589  -0.340 -0.0350 -0.2645  0.1380
 1649poe    c23 6826   4.186   5.461  -0.356 -0.2403 -0.1223  0.0816
 1649poe     o2 6827   4.060   5.487  -0.300  0.1486  0.1990  0.8291
 1649poe    c31 6828   3.960   5.401  -0.352  0.4923 -0.0629  0.6021
 1650poe    c31 6829   1.792   6.660   2.083  0.2444 -0.6608  0.3104
 1650poe     o2 6830   1.695   6.756   2.115  0.3667 -0.2875 -0.4253
 1650poe    c23 6831   1.734   6.887   2.078  0.1043  0.0792  0.5722
 1650poe    c23 6832   1.623   6.987   2.115 -0.0292  0.0528  0.2422
 1650poe     o2 6833   1.570   6.953   2.241  0.0870 -0.1148  0.2467
 1650poe    c23 6834   1.465   7.044   2.262  0.0816  0.0462 -0.4760
 1650poe    c23 6835   1.412   7.047   2.407 -0.0039 -0.0060 -0.5060
 1650poe     o2 6836   1.338   6.932   2.440 -0.0156  0.0197 -0.4442
 1650poe    c23 6837   1.307   6.905   2.575  0.0032 -0.5286 -0.5465
 1650poe    c23 6838   1.218   6.780   2.585 -0.1422 -0.3484  0.5111
 1650poe     o2 6839   1.098   6.784   2.512  0.0685  0.0607  0.1811
 1650poe    c31 6840   1.021   6.668   2.537  0.2037  0.0467  0.5407
 1651poe    c31 6841   2.195   1.580   6.513  0.0713  0.5426 -0.3727
 1651poe     o2 6842   2.192   1.566   6.373 -0.2474 -0.0756 -0.3094
 1651poe    c23 6843   2.230   1.431   6.358 -0.5569 -0.1831 -0.1272
 1651poe    c23 6844   2.305   1.404   6.226 -0.8812  0.2531 -0.4043
 1651poe     o2 6845   2.396   1.504   6.186 -0.1664 -0.3608 -0.3276
 1651poe    c23 6846   2.419   1.523   6.049  0.2723  0.0149 -0.2055
 1651poe    c23 6847   2.510   1.639   6.005 -0.2085  0.3862 -0.2241
 1651poe     o2 6848   2.481   1.763   6.067 -0.3169  0.0948  0.3123
 1651poe    c23 6849   2.541   1.865   5.992 -0.9309  0.4911  0.3560
 1651poe    c23 6850   2.531   2.011   6.040  0.0199  0.4531  0.6842
 1651poe     o2 6851   2.397   2.053   6.053 -0.3464 -0.6385  0.5178
 1651poe    c31 6852   2.415   2.178   6.116  0.4093 -0.4120 -0.1228
 1652poe    c31 6853   0.861   0.334   3.847  0.2233 -0.2081 -0.1192
 1652poe     o2 6854   0.740   0.377   3.905  0.1790 -0.5669  0.0604
 1652poe    c23 6855   0.647   0.449   3.827  0.3335  0.0227  0.4103
 1652poe    c23 6856   0.512   0.462   3.899 -0.0181 -0.1336 -0.2162
 1652poe     o2 6857   0.475   0.346   3.970  0.7854 -0.2608  0.0007
 1652poe    c23 6858   0.377   0.367   4.069  0.1509 -0.4111 -0.5898
 1652poe    c23 6859   0.334   0.247   4.156  0.6206  0.6407  1.1425
 1652poe     o2 6860   0.455   0.196   4.209  0.6613 -0.4069  0.0927
 1652poe    c23 6861   0.432   0.116   4.323 -0.1115 -0.1984  0.0913
 1652poe    c23 6862   0.519  -0.011   4.315 -0.0147 -0.1122 -0.2732
 1652poe     o2 6863   0.652   0.017   4.278 -0.1356  0.0176 -0.6125
 1652poe    c31 6864   0.730  -0.100   4.267 -0.2609 -0.0438 -0.8614
 1653poe    c31 6865   5.385   2.050   4.238 -0.8660  0.0078 -0.1432
 1653poe     o2 6866   5.463   1.944   4.288 -0.2693  0.2131 -0.6355
 1653poe    c23 6867   5.593   1.943   4.232  0.2428  0.4326  0.5375
 1653poe    c23 6868   5.653   1.810   4.280 -0.2933  0.2488  0.7015
 1653poe     o2 6869   5.556   1.713   4.245 -0.2243  0.4045  0.0686
 1653poe    c23 6870   5.579   1.590   4.310 -0.1509  0.3505 -0.0591
 1653poe    c23 6871   5.473   1.491   4.260 -0.0608  0.1236  0.1948
 1653poe     o2 6872   5.346   1.552   4.261  0.0974  0.4623  0.0487
 1653poe    c23 6873   5.253   1.452   4.297 -0.0694  0.8826  0.8309
 1653poe    c23 6874   5.129   1.458   4.206  0.1875  0.4944  0.4490
 1653poe     o2 6875   5.031   1.559   4.199 -0.0121  0.2901  0.2445
 1653poe    c31 6876   4.920   1.563   4.285  0.1667  0.6690  0.4620
 1654poe    c31 6877   1.928   2.790   5.755  0.0445 -0.2311 -0.3052
 1654poe     o2 6878   1.846   2.688   5.806  0.2023 -0.4815 -0.5462
 1654poe    c23 6879   1.723   2.736   5.858  0.2820 -0.4336 -0.4008
 1654poe    c23 6880   1.624   2.622   5.887  0.1468 -0.1999  0.0638
 1654poe     o2 6881   1.575   2.565   5.768  0.1957 -0.3411  0.1118
 1654poe    c23 6882   1.472   2.475   5.804 -0.2683  0.0885 -0.1190
 1654poe    c23 6883   1.420   2.397   5.683 -0.0211  0.1537 -0.2673
 1654poe     o2 6884   1.530   2.387   5.594  0.1676 -0.2160  0.0035
 1654poe    c23 6885   1.496   2.319   5.476 -0.5082  0.3015 -0.1060
 1654poe    c23 6886   1.618   2.311   5.383 -0.2607 -0.0889  0.2485
 1654poe     o2 6887   1.658   2.445   5.367  0.2346 -0.2803 -0.1393
 1654poe    c31 6888   1.777   2.472   5.296 -0.0619  0.2792 -0.4280
 1655poe    c31 6889   2.474   2.882   4.740  0.2179  0.2292  0.4511
 1655poe     o2 6890   2.487   2.778   4.834  0.2668 -0.1737  0.0001
 1655poe    c23 6891   2.458   2.655   4.771  0.4926 -0.0198 -0.4055
 1655poe    c23 6892   2.566   2.550   4.803 -0.5236 -0.9997 -0.1241
 1655poe     o2 6893   2.578   2.510   4.938 -0.0564  0.1524  0.1949
 1655poe    c23 6894   2.700   2.448   4.971  0.3596  0.8029 -0.1113
 1655poe    c23 6895   2.688   2.403   5.118  0.0398  0.5300 -0.2216
 1655poe     o2 6896   2.620   2.509   5.182  0.3259  0.6581 -0.1298
 1655poe    c23 6897   2.663   2.513   5.317  0.3546  0.1075 -0.1186
 1655poe    c23 6898   2.578   2.617   5.392  0.2357 -0.2243  0.2059
 1655poe     o2 6899   2.582   2.736   5.317  0.3300  0.0766  0.6843
 1655poe    c31 6900   2.497   2.823   5.387 -0.3781  0.0925 -0.1820
 1656poe    c31 6901   6.404   2.243   1.547  0.2358  0.2035  0.3798
 1656poe     o2 6902   6.507   2.167   1.605  0.0565 -0.0763  0.3374
 1656poe    c23 6903   6.616   2.180   1.516 -0.1734  0.2797  0.1050
 1656poe    c23 6904   6.618   2.061   1.418 -0.3344  0.5944 -0.2803
 1656poe     o2 6905   6.576   1.945   1.486  0.0120  0.3369 -0.5062
 1656poe    c23 6906   6.567   1.829   1.406 -0.5170  0.1528 -0.1843
 1656poe    c23 6907   6.583   1.701   1.490  0.2390  0.5261  0.2496
 1656poe     o2 6908   6.488   1.714   1.593 -0.4362  0.3514 -0.3488
 1656poe    c23 6909   6.466   1.588   1.653  0.2924  0.6529  0.5675
 1656poe    c23 6910   6.369   1.615   1.769  0.1818  0.0700  0.6148
 1656poe     o2 6911   6.251   1.687   1.739  0.2677  0.1688  0.5118
 1656poe    c31 6912   6.179   1.622   1.636  1.0520 -0.5141  0.3785
 1657poe    c31 6913   6.925   4.180   6.352  0.1814  0.7036 -0.1460
 1657poe     o2 6914   6.899   4.259   6.238 -0.8336  0.4779 -0.0824
 1657poe    c23 6915   6.992   4.230   6.136  0.0596  0.3891  0.7406
 1657poe    c23 6916   6.980   4.300   6.000  0.0941 -0.1321  0.4666
 1657poe     o2 6917   6.992   4.441   5.999 -0.2228 -0.1025 -0.5589
 1657poe    c23 6918   6.959   4.504   5.877 -0.0288  0.1452 -0.4817
 1657poe    c23 6919   7.004   4.648   5.910  0.1437  0.0406 -0.2541
 1657poe     o2 6920   6.937   4.699   6.024  0.0623 -0.0403 -0.2662
 1657poe    c23 6921   6.924   4.839   6.026  0.4447 -0.0065 -0.0081
 1657poe    c23 6922   6.811   4.896   6.114  0.3615 -0.0699 -0.0743
 1657poe     o2 6923   6.806   4.807   6.223 -0.1731 -0.0185 -0.0546
 1657poe    c31 6924   6.712   4.870   6.308 -0.1069  0.3240 -0.2358
 1658poe    c31 6925   0.182   3.291   1.299 -0.2969  0.6093 -0.7287
 1658poe     o2 6926   0.051   3.319   1.342  0.0355  0.8966  0.1273
 1658poe    c23 6927   0.027   3.449   1.389 -0.0197  0.8459  0.2425
 1658poe    c23 6928  -0.120   3.470   1.430 -0.0892 -0.0298  0.4531
 1658poe     o2 6929  -0.193   3.450   1.311 -0.0427  0.1715  0.3891
 1658poe    c23 6930  -0.267   3.557   1.258 -0.0228 -0.0431 -0.0773
 1658poe    c23 6931  -0.182   3.645   1.165 -0.2698  0.1366 -0.1331
 1658poe     o2 6932  -0.121   3.580   1.056  0.0047 -0.0011  0.1028
 1658poe    c23 6933  -0.081   3.654   0.943  0.4559 -0.2408  0.1048
 1658poe    c23 6934  -0.056   3.567   0.818  0.1697  0.2363 -0.2896
 1658poe     o2 6935  -0.173   3.531   0.749 -0.0807  0.5843 -0.0480
 1658poe    c31 6936  -0.144   3.488   0.618 -0.2064 -0.1548  0.1610
 1659poe    c31 6937   4.556   2.888   6.759  0.4426 -0.1389 -0.0845
 1659poe     o2 6938   4.449   2.832   6.831  0.4136 -0.1160 -0.1104
 1659poe    c23 6939   4.387   2.726   6.761 -0.0945  0.0875  0.0221
 1659poe    c23 6940   4.263   2.682   6.840  0.2085  0.2072  0.5695
 1659poe     o2 6941   4.280   2.706   6.978  0.0798  0.1649  0.5928
 1659poe    c23 6942   4.159   2.705   7.051 -0.2030 -0.6842  0.1258
 1659poe    c23 6943   4.171   2.747   7.198 -0.1831  0.0918 -0.0911
 1659poe     o2 6944   4.216   2.881   7.201 -0.1632  0.0895 -0.2931
 1659poe    c23 6945   4.216   2.929   7.334 -0.3636  0.6011 -0.4762
 1659poe    c23 6946   4.226   3.082   7.329  0.6029  0.5488 -0.2787
 1659poe     o2 6947   4.328   3.124   7.242  0.3706  0.0833 -0.7748
 1659poe    c31 6948   4.307   3.262   7.224  0.3193  0.1962  0.1083
 1660poe    c31 6949   5.392   2.878   5.710 -0.0098 -0.1984 -0.0166
 1660poe     o2 6950   5.415   2.871   5.571 -0.0268 -0.3047 -0.0139
 1660poe    c23 6951   5.302   2.820   5.503 -0.3112  0.0939  0.1540
 1660poe    c23 6952   5.358   2.744   5.381  0.1019 -0.2701  0.5631
 1660poe     o2 6953   5.446   2.837   5.322 -0.5709 -0.2721 -0.4769
 1660poe    c23 6954   5.539   2.783   5.231  0.7084  0.2742  0.4704
 1660poe    c23 6955   5.634   2.889   5.171  0.1529  0.3668 -0.2544
 1660poe     o2 6956   5.684   2.962   5.280 -0.4244  0.2953  0.0661
 1660poe    c23 6957   5.804   3.029   5.249 -0.1437 -0.3061 -0.1579
 1660poe    c23 6958   5.829   3.143   5.350  0.3256 -0.1952 -0.3921
 1660poe     o2 6959   5.838   3.110   5.487 -0.0564  0.6631 -0.1484
 1660poe    c31 6960   5.918   3.204   5.555  0.3706  0.1862  0.0231
 1661poe    c31 6961   5.505   4.819   4.729  0.5207  0.4612 -0.0142
 1661poe     o2 6962   5.510   4.742   4.848 -0.1844  0.0560 -0.2448
 1661poe    c23 6963   5.589   4.628   4.823 -0.2401  0.0325 -0.3130
 1661poe    c23 6964   5.559   4.520   4.928 -0.1803 -0.0445 -0.3754
 1661poe     o2 6965   5.536   4.587   5.050  0.4128 -0.3085 -0.1143
 1661poe    c23 6966   5.534   4.495   5.156 -0.6205 -0.3780 -0.1899
 1661poe    c23 6967   5.479   4.574   5.277 -0.4395 -0.3883 -0.1008
 1661poe     o2 6968   5.362   4.634   5.228  0.2453  0.7877 -0.3395
 1661poe    c23 6969   5.289   4.705   5.325  0.1351  0.3275 -0.0820
 1661poe    c23 6970   5.141   4.720   5.286  0.1056 -0.5170 -0.3001
 1661poe     o2 6971   5.115   4.808   5.179 -0.2550 -0.8568 -0.4952
 1661poe    c31 6972   4.976   4.833   5.182 -0.1388 -0.1890 -0.5730
 1662poe    c31 6973   4.648   6.380   2.894  0.2280  0.3882  0.3767
 1662poe     o2 6974   4.761   6.390   2.811 -0.3154 -0.3274 -0.4727
 1662poe    c23 6975   4.744   6.301   2.704  0.0163 -0.2164 -0.6186
 1662poe    c23 6976   4.869   6.304   2.613  0.2405  0.2233 -0.3006
 1662poe     o2 6977   4.903   6.418   2.538 -0.2168  0.4963 -0.0941
 1662poe    c23 6978   5.036   6.414   2.491 -0.0449  0.0982  0.4152
 1662poe    c23 6979   5.072   6.543   2.415  0.1332 -0.2547 -0.1041
 1662poe     o2 6980   5.084   6.646   2.511  0.1087 -0.2655 -0.0895
 1662poe    c23 6981   5.089   6.768   2.441  0.1382  0.1065  0.5527
 1662poe    c23 6982   5.053   6.883   2.537 -0.2074  0.7903 -0.3793
 1662poe     o2 6983   4.947   6.845   2.623 -0.4949  0.7606 -0.7460
 1662poe    c31 6984   4.907   6.955   2.701  0.2250  0.4152  0.1232
 1663poe    c31 6985   3.237   2.820   5.514  0.2140  0.0099 -0.0137
 1663poe     o2 6986   3.113   2.879   5.544  0.4836  0.8248 -0.4514
 1663poe    c23 6987   3.120   3.020   5.549 -0.1382  0.8328  0.7564
 1663poe    c23 6988   2.978   3.077   5.537 -0.6068 -0.5110 -0.4276
 1663poe     o2 6989   2.899   2.997   5.622 -0.0806  0.2050  0.7605
 1663poe    c23 6990   2.764   3.037   5.623 -0.1640 -0.0066 -0.4545
 1663poe    c23 6991   2.678   2.936   5.701 -0.2147  0.1590 -0.2973
 1663poe     o2 6992   2.743   2.812   5.687 -0.0822  0.1216  0.5409
 1663poe    c23 6993   2.656   2.723   5.753 -0.1201 -0.3451 -0.1291
 1663poe    c23 6994   2.726   2.593   5.799  0.2585 -0.0995 -0.0080
 1663poe     o2 6995   2.771   2.538   5.677 -0.0846 -0.0557 -0.1565
 1663poe    c31 6996   2.818   2.410   5.711 -0.1030 -0.2080 -0.6901
 1664poe    c31 6997   2.756   2.627   2.048 -0.1860  0.4547 -0.0637
 1664poe     o2 6998   2.855   2.645   1.949 -0.3593 -0.0909 -0.3416
 1664poe    c23 6999   2.980   2.674   2.006 -0.3464 -0.5113 -0.1570
 1664poe    c23 7000   3.094   2.693   1.904  0.3785  0.6745  0.8410
 1664poe     o2 7001   3.088   2.806   1.819  0.3182  0.2666  0.2978
 1664poe    c23 7002   3.214   2.819   1.758  0.0960 -0.2911 -0.3018
 1664poe    c23 7003   3.200   2.920   1.643 -0.3318 -0.3293 -0.2850
 1664poe     o2 7004   3.070   2.930   1.589 -0.2912 -0.0101 -0.3245
 1664poe    c23 7005   3.054   3.034   1.495  0.1953  0.5210  0.1748
 1664poe    c23 7006   2.919   3.012   1.426  0.4564 -0.4449 -0.0368
 1664poe     o2 7007   2.825   2.955   1.514  0.1967  0.1389  0.0683
 1664poe    c31 7008   2.697   3.007   1.487  0.0619  0.1141  0.6319
 1665poe    c31 7009   2.471   1.592   1.922 -0.0160  0.0395 -0.3088
 1665poe     o2 7010   2.593   1.523   1.911 -0.0782 -0.1184 -0.0159
 1665poe    c23 7011   2.631   1.510   1.776  0.3469  0.2626  0.0639
 1665poe    c23 7012   2.779   1.471   1.766  0.3636  0.1819  0.6284
 1665poe     o2 7013   2.804   1.346   1.827 -0.3159 -0.4176 -0.3011
 1665poe    c23 7014   2.942   1.320   1.813 -0.1768  0.3348 -0.3666
 1665poe    c23 7015   3.001   1.212   1.905 -0.1348  0.1952 -0.5562
 1665poe     o2 7016   2.986   1.261   2.037  0.3804 -0.0504 -0.4034
 1665poe    c23 7017   3.047   1.176   2.132 -0.2651  0.2003  0.2436
 1665poe    c23 7018   2.944   1.101   2.219 -0.0879 -0.3020  0.0267
 1665poe     o2 7019   2.848   1.185   2.278  0.3146 -0.0464  0.3310
 1665poe    c31 7020   2.758   1.113   2.360 -0.1716 -0.4454 -0.5426
 1666poe    c31 7021   0.484   1.386   1.558  0.3586 -0.2830  0.3690
 1666poe     o2 7022   0.424   1.321   1.667 -0.9929  0.3740  0.0345
 1666poe    c23 7023   0.498   1.323   1.788  0.0134 -0.1284 -0.5619
 1666poe    c23 7024   0.466   1.203   1.878  0.3064  0.3644  0.2091
 1666poe     o2 7025   0.331   1.205   1.921  0.0797 -0.1412 -0.4532
 1666poe    c23 7026   0.292   1.107   2.014 -0.2452  0.3541 -0.0620
 1666poe    c23 7027   0.150   1.127   2.068 -0.3212 -0.4655  0.0501
 1666poe     o2 7028   0.061   1.140   1.959  0.4056  0.5645 -0.4306
 1666poe    c23 7029  -0.068   1.183   1.997  0.1893 -0.2667 -0.2108
 1666poe    c23 7030  -0.141   1.234   1.872  0.2709 -0.1257 -0.2007
 1666poe     o2 7031  -0.056   1.313   1.791  0.3035 -0.2484 -0.2880
 1666poe    c31 7032  -0.093   1.337   1.657 -0.6917  0.5359  0.1123
 1667poe    c31 7033   4.214   0.100   5.009 -0.2541 -0.2643 -0.1481
 1667poe     o2 7034   4.326   0.014   5.007  0.0179  0.0915 -0.3791
 1667poe    c23 7035   4.301  -0.117   5.051 -0.1719  0.1207 -0.3987
 1667poe    c23 7036   4.437  -0.189   5.058 -0.2475 -0.0130 -0.3037
 1667poe     o2 7037   4.492  -0.170   4.930  0.4720 -0.0086  0.0001
 1667poe    c23 7038   4.620  -0.226   4.916  0.3145 -0.3618 -0.0398
 1667poe    c23 7039   4.684  -0.132   4.812 -0.6751  0.0598 -0.2851
 1667poe     o2 7040   4.658  -0.005   4.867  0.4105  0.3445 -0.4044
 1667poe    c23 7041   4.723   0.104   4.805  0.4325  0.3244 -0.4159
 1667poe    c23 7042   4.665   0.224   4.882 -0.2380 -0.3021  0.0711
 1667poe     o2 7043   4.534   0.192   4.923 -0.2058 -0.4043  0.0935
 1667poe    c31 7044   4.508   0.290   5.021  0.5392 -0.1396  0.0364
 1668poe    c31 7045   2.261   0.310   6.372  0.2970 -0.2591  0.0414
 1668poe     o2 7046   2.151   0.320   6.460  0.4501  0.2359  0.1816
 1668poe    c23 7047   2.019   0.324   6.410  0.3691  0.1178  0.3842
 1668poe    c23 7048   1.914   0.318   6.522 -0.3908  0.4745 -0.3053
 1668poe     o2 7049   1.932   0.425   6.612  0.0554  0.3469 -0.2434
 1668poe    c23 7050   1.817   0.455   6.687  0.2141 -0.2285  0.2335
 1668poe    c23 7051   1.833   0.596   6.748 -0.3259 -0.1411  0.1801
 1668poe     o2 7052   1.940   0.603   6.840 -0.0635 -0.1591 -0.1238
 1668poe    c23 7053   1.938   0.723   6.913 -0.1202 -0.4005  0.2726
 1668poe    c23 7054   2.043   0.718   7.026 -0.3391 -0.3064  0.4826
 1668poe     o2 7055   2.157   0.667   6.960  0.1059  0.7857  0.3847
 1668poe    c31 7056   2.277   0.699   7.026  0.4427  0.0029  0.1637
 1669poe    c31 7057   5.399   3.217   4.257  0.5813 -0.0157 -0.3764
 1669poe     o2 7058   5.495   3.263   4.163  0.3981  0.5902 -0.2701
 1669poe    c23 7059   5.621   3.212   4.201 -0.1429 -0.0084  0.7787
 1669poe    c23 7060   5.739   3.268   4.119 -0.6091  0.1323  0.1938
 1669poe     o2 7061   5.713   3.243   3.983  0.6576 -0.4108  0.0427
 1669poe    c23 7062   5.818   3.300   3.908  0.6191 -0.2370  0.1212
 1669poe    c23 7063   5.750   3.349   3.779  0.1839  0.2711  0.5394
 1669poe     o2 7064   5.702   3.241   3.701  0.5038  0.5736 -0.0855
 1669poe    c23 7065   5.627   3.294   3.594 -0.1025 -0.2935 -0.0995
 1669poe    c23 7066   5.547   3.187   3.518 -0.0607 -0.1427 -0.3579
 1669poe     o2 7067   5.466   3.140   3.624  0.1812 -0.1380 -0.1709
 1669poe    c31 7068   5.380   3.043   3.570 -0.2520  0.3654 -0.3931
 1670poe    c31 7069   6.110   3.924   6.488 -0.0313  0.3770 -0.1951
 1670poe     o2 7070   6.155   3.823   6.575  0.0643 -0.0786 -0.7610
 1670poe    c23 7071   6.049   3.746   6.627  0.0461 -0.0465 -0.7496
 1670poe    c23 7072   6.117   3.615   6.670 -0.1900  0.0126 -0.1879
 1670poe     o2 7073   6.243   3.635   6.731 -0.3803 -0.0501  0.2293
 1670poe    c23 7074   6.315   3.514   6.718  0.0945  0.2342  0.1893
 1670poe    c23 7075   6.459   3.551   6.679  0.2197 -0.5640 -0.1264
 1670poe     o2 7076   6.449   3.653   6.582  0.2350  0.0102  0.4696
 1670poe    c23 7077   6.570   3.691   6.521  0.0368  0.2094  0.2036
 1670poe    c23 7078   6.547   3.800   6.413 -0.2322 -0.3527 -0.3121
 1670poe     o2 7079   6.457   3.897   6.461 -0.0866 -0.3572 -0.0277
 1670poe    c31 7080   6.457   4.016   6.386 -1.3305 -0.7357 -0.6610
 1671poe    c31 7081   3.985   5.368   3.627  0.1151 -0.4778 -0.2636
 1671poe     o2 7082   3.983   5.326   3.762 -0.6483 -0.6993 -0.3414
 1671poe    c23 7083   4.056   5.206   3.775  1.1028  0.3415 -0.2030
 1671poe    c23 7084   4.086   5.198   3.926 -0.5008  0.3991  0.1395
 1671poe     o2 7085   3.966   5.191   4.001 -0.4893 -0.2151  0.1078
 1671poe    c23 7086   3.994   5.162   4.136 -0.1214  0.6198  0.2198
 1671poe    c23 7087   3.849   5.145   4.185  0.0216  0.0360  0.4458
 1671poe     o2 7088   3.777   5.256   4.139  0.1939 -0.0819 -0.1131
 1671poe    c23 7089   3.708   5.322   4.243  0.4396  0.0189 -0.0137
 1671poe    c23 7090   3.605   5.432   4.211 -0.1928 -0.4272  0.4706
 1671poe     o2 7091   3.488   5.388   4.144 -0.1693 -0.3006  0.3466
 1671poe    c31 7092   3.382   5.448   4.215 -0.6050 -0.6788  0.0196
 1672poe    c31 7093   5.712   2.221   3.231  0.0865  0.6316 -0.2220
 1672poe     o2 7094   5.677   2.180   3.361  0.4052  0.3464 -0.2263
 1672poe    c23 7095   5.596   2.282   3.414 -0.2553 -0.1204 -0.3281
 1672poe    c23 7096   5.536   2.249   3.552  0.1479  0.2009 -0.0745
 1672poe     o2 7097   5.644   2.241   3.643  0.2581 -0.0944 -0.2300
 1672poe    c23 7098   5.601   2.188   3.766 -0.0616  0.6298 -0.0218
 1672poe    c23 7099   5.711   2.216   3.870  0.0217  0.1187  0.0304
 1672poe     o2 7100   5.838   2.226   3.810 -0.2139  0.3448 -0.4308
 1672poe    c23 7101   5.937   2.251   3.907 -0.0933  0.0245 -0.4729
 1672poe    c23 7102   6.081   2.217   3.861  0.1144 -0.0793  0.2429
 1672poe     o2 7103   6.122   2.289   3.747 -0.2181 -0.0369  0.1473
 1672poe    c31 7104   6.262   2.270   3.745 -0.2974 -0.7036  0.5336
 1673poe    c31 7105   2.979   3.104   6.443  0.2458  0.3071  0.1697
 1673poe     o2 7106   3.073   3.005   6.480 -0.2054 -0.3082 -0.3120
 1673poe    c23 7107   3.033   2.873   6.452 -0.4769 -0.2427 -0.2423
 1673poe    c23 7108   3.106   2.769   6.539  0.1929  0.4434  0.0207
 1673poe     o2 7109   3.241   2.809   6.530  0.3966 -0.3396 -0.4411
 1673poe    c23 7110   3.310   2.722   6.617 -0.1643 -0.4106 -0.0705
 1673poe    c23 7111   3.463   2.738   6.611 -0.2127  0.0144 -0.1847
 1673poe     o2 7112   3.489   2.877   6.608 -0.4701  0.0569 -0.5514
 1673poe    c23 7113   3.622   2.909   6.644 -0.3924 -0.1968 -0.6063
 1673poe    c23 7114   3.625   3.061   6.623  0.5876  0.0044  0.8435
 1673poe     o2 7115   3.536   3.135   6.704 -0.4820  0.4306 -0.6693
 1673poe    c31 7116   3.545   3.275   6.693 -0.2423  0.4325 -0.4635
 1674poe    c31 7117   3.546   0.756   4.071  0.2009  0.1667  0.1148
 1674poe     o2 7118   3.431   0.815   4.130  0.1170  0.0706  0.0475
 1674poe    c23 7119   3.317   0.844   4.052  0.0097 -0.1451  0.1227
 1674poe    c23 7120   3.205   0.902   4.140  0.0603  0.1130  0.0205
 1674poe     o2 7121   3.249   1.011   4.218  0.1189 -0.0557  0.2257
 1674poe    c23 7122   3.135   1.076   4.268  0.1481  0.3229 -0.1952
 1674poe    c23 7123   3.188   1.218   4.291 -0.0362  0.3561  0.0252
 1674poe     o2 7124   3.287   1.222   4.392  0.0045  0.0318 -0.0022
 1674poe    c23 7125   3.352   1.347   4.399 -0.1155  0.0873  0.1169
 1674poe    c23 7126   3.450   1.347   4.518  0.4896  0.2514 -0.3773
 1674poe     o2 7127   3.504   1.216   4.523  0.3446  0.2071  0.0949
 1674poe    c31 7128   3.593   1.190   4.628 -0.2706 -0.5173  0.4480
 1675poe    c31 7129   6.916   0.617   2.403  0.0314  0.2528 -0.0271
 1675poe     o2 7130   7.036   0.645   2.335  0.2328 -0.4213  0.0379
 1675poe    c23 7131   7.147   0.645   2.422  0.4938 -0.1970 -0.2909
 1675poe    c23 7132   7.222   0.512   2.440  1.2305  0.3036  0.3952
 1675poe     o2 7133   7.295   0.506   2.320  0.2000 -0.0323 -0.2237
 1675poe    c23 7134   7.387   0.400   2.331  0.3382  0.1658  0.5836
 1675poe    c23 7135   7.421   0.326   2.200 -0.5687  0.5186  0.1412
 1675poe     o2 7136   7.310   0.264   2.140 -0.2234  0.1358 -0.1061
 1675poe    c23 7137   7.331   0.232   2.004  0.2446  0.6978 -0.1677
 1675poe    c23 7138   7.205   0.163   1.949  0.0218  0.4255  0.6836
 1675poe     o2 7139   7.090   0.226   2.002 -0.2558  0.2322  0.3174
 1675poe    c31 7140   6.974   0.180   1.937  0.1951  0.0609 -0.3820
 1676poe    c31 7141   1.104   6.731   6.755 -0.2503 -0.0219 -0.0396
 1676poe     o2 7142   0.975   6.676   6.739 -0.1003 -0.5530  0.5200
 1676poe    c23 7143   0.952   6.619   6.612 -0.3685  0.5494  0.0567
 1676poe    c23 7144   0.834   6.520   6.627  0.0320  0.0200 -0.2714
 1676poe     o2 7145   0.709   6.582   6.643 -0.0333 -0.2125  0.1203
 1676poe    c23 7146   0.604   6.497   6.604  0.1549 -0.5524  0.3534
 1676poe    c23 7147   0.477   6.535   6.682 -0.0934 -0.3257 -0.1537
 1676poe     o2 7148   0.469   6.675   6.686  0.3432 -0.2961 -0.2764
 1676poe    c23 7149   0.364   6.724   6.767  0.1084  0.2531 -0.9009
 1676poe    c23 7150   0.341   6.876   6.758 -0.1592  0.2640 -0.1019
 1676poe     o2 7151   0.422   6.925   6.862 -0.0336 -0.3324  0.0853
 1676poe    c31 7152   0.372   7.049   6.908  0.5296  0.1112 -0.4881
 1677poe    c31 7153   3.127   0.401   4.918 -0.8096  0.0275  0.4908
 1677poe     o2 7154   3.241   0.323   4.945 -0.5944  0.2482  0.2261
 1677poe    c23 7155   3.262   0.360   5.079  0.1640 -0.4774  0.3178
 1677poe    c23 7156   3.397   0.307   5.129  0.3086 -0.0126  0.4293
 1677poe     o2 7157   3.505   0.351   5.049  0.2010  0.3832  0.5001
 1677poe    c23 7158   3.576   0.457   5.107 -0.1871  0.7372  0.3340
 1677poe    c23 7159   3.675   0.509   5.001 -0.4790  0.6268  0.0087
 1677poe     o2 7160   3.747   0.392   4.969 -0.5386  0.6508 -0.2172
 1677poe    c23 7161   3.856   0.418   4.882  0.1830  0.1551  0.5211
 1677poe    c23 7162   3.928   0.283   4.867 -0.4988 -0.2119  0.5194
 1677poe     o2 7163   3.835   0.189   4.817 -0.2027 -0.3675  0.2597
 1677poe    c31 7164   3.887   0.114   4.709 -0.8710 -0.6423  0.1258
 1678poe    c31 7165   0.762   0.573   5.211  0.2065  0.3039 -0.7666
 1678poe     o2 7166   0.703   0.690   5.158  0.7872  1.1189  0.3494
 1678poe    c23 7167   0.649   0.765   5.264  0.5768  1.3589  0.0758
 1678poe    c23 7168   0.585   0.883   5.188 -0.5297  0.5603 -0.2415
 1678poe     o2 7169   0.661   0.948   5.089 -0.5782  0.3592 -0.4131
 1678poe    c23 7170   0.591   1.062   5.044 -0.6384  0.5781  0.2172
 1678poe    c23 7171   0.664   1.142   4.935  0.5964 -0.0929  0.5358
 1678poe     o2 7172   0.793   1.091   4.906  0.2125 -0.6934 -0.1823
 1678poe    c23 7173   0.855   1.170   4.807 -0.6291  0.4419  0.1683
 1678poe    c23 7174   0.970   1.092   4.742 -0.2553  0.5432  0.7032
 1678poe     o2 7175   0.942   0.954   4.737  0.6244  0.3748  0.1243
 1678poe    c31 7176   1.039   0.875   4.671 -0.1748 -0.1478 -0.4448
 1679poe    c31 7177   4.849   0.908   1.168  0.4014  0.0785 -0.1972
 1679poe     o2 7178   4.871   0.806   1.073  1.0865 -0.2229  0.2775
 1679poe    c23 7179   4.762   0.717   1.078  0.6048  0.3423  0.0409
 1679poe    c23 7180   4.733   0.635   0.951 -0.3250  0.1630  0.3612
 1679poe     o2 7181   4.823   0.531   0.917 -0.3707  0.1181  0.3773
 1679poe    c23 7182   4.795   0.505   0.782  0.1784  0.2129  0.2431
 1679poe    c23 7183   4.883   0.385   0.742  0.1882  0.2822  0.0558
 1679poe     o2 7184   5.014   0.421   0.779  0.4019 -0.2660 -0.1452
 1679poe    c23 7185   5.105   0.315   0.760 -0.0227 -0.5036 -0.8696
 1679poe    c23 7186   5.250   0.365   0.762 -0.0244 -0.5343  0.2222
 1679poe     o2 7187   5.274   0.447   0.875 -0.1168 -0.0034 -0.1401
 1679poe    c31 7188   5.414   0.463   0.874 -0.1367  0.1695 -0.1988
 1680poe    c31 7189   0.463   0.350   3.476 -0.4554 -0.5477  0.0207
 1680poe     o2 7190   0.441   0.237   3.395  0.0295 -0.1995 -0.6064
 1680poe    c23 7191   0.557   0.185   3.333  0.5059  0.2572 -0.1057
 1680poe    c23 7192   0.530   0.055   3.254  0.0148  0.3031 -0.0174
 1680poe     o2 7193   0.446   0.074   3.142 -0.0816  0.2071  0.0383
 1680poe    c23 7194   0.436  -0.045   3.068 -0.0751  0.4773 -0.4003
 1680poe    c23 7195   0.291  -0.056   3.018 -0.3505  0.0845  0.4588
 1680poe     o2 7196   0.187  -0.078   3.110 -0.3119  0.3559  0.5676
 1680poe    c23 7197   0.066  -0.089   3.037 -0.1477  0.6009  0.2547
 1680poe    c23 7198  -0.047  -0.145   3.125  0.0200  0.1145  0.1605
 1680poe     o2 7199  -0.033  -0.071   3.244  0.2856  0.3075  0.0099
 1680poe    c31 7200  -0.108  -0.140   3.342  1.0875 -0.5700  0.0133
 1681poe    c31 7201   2.533   4.744   2.356 -0.3616  0.0291 -0.2297
 1681poe     o2 7202   2.559   4.742   2.218 -0.5035 -0.1811 -0.2531
 1681poe    c23 7203   2.526   4.612   2.174  0.3267 -0.5552  0.2256
 1681poe    c23 7204   2.580   4.596   2.031  0.1572  0.6848  0.0195
 1681poe     o2 7205   2.537   4.682   1.927 -0.4008  0.0469 -0.2844
 1681poe    c23 7206   2.635   4.692   1.826 -0.0505  0.3958  0.0906
 1681poe    c23 7207   2.596   4.795   1.718  0.2113  0.0219 -0.3639
 1681poe     o2 7208   2.605   4.926   1.769  0.2298 -0.0259 -0.2421
 1681poe    c23 7209   2.661   5.019   1.679 -0.3153  0.1976 -0.3572
 1681poe    c23 7210   2.691   5.150   1.753  0.2809  0.0282 -0.2951
 1681poe     o2 7211   2.772   5.127   1.866  0.1648  0.0643 -0.2051
 1681poe    c31 7212   2.901   5.175   1.837  0.2482  0.1374  0.2696
 1682poe    c31 7213   3.418   4.539   1.226  0.0671  0.1306 -1.1553
 1682poe     o2 7214   3.336   4.649   1.257  0.1740 -0.2930  0.7299
 1682poe    c23 7215   3.361   4.697   1.387  0.5102 -0.4858  0.7359
 1682poe    c23 7216   3.312   4.842   1.407 -0.2554 -0.5990 -0.2507
 1682poe     o2 7217   3.178   4.878   1.382  0.0992  0.5109 -0.6255
 1682poe    c23 7218   3.088   4.843   1.484  0.6521  0.6760 -0.0787
 1682poe    c23 7219   2.948   4.885   1.435  0.4030  0.3208  0.3160
 1682poe     o2 7220   2.941   4.858   1.297 -0.0009 -0.4968  0.4925
 1682poe    c23 7221   2.831   4.919   1.233  0.6902  0.0761 -0.1546
 1682poe    c23 7222   2.824   4.875   1.085  0.3952 -0.2214 -0.0521
 1682poe     o2 7223   2.942   4.916   1.020  0.1518  0.1081 -0.2914
 1682poe    c31 7224   2.930   4.890   0.882 -0.0949  0.2299 -0.2922
 1683poe    c31 7225   0.257   5.809   2.662 -0.4116  0.5516  0.0882
 1683poe     o2 7226   0.325   5.803   2.538  0.4302  0.1690  0.5642
 1683poe    c23 7227   0.403   5.920   2.534 -0.1824  0.5524 -0.2787
 1683poe    c23 7228   0.457   5.945   2.392  0.0172 -0.0466 -0.3111
 1683poe     o2 7229   0.355   5.987   2.304  0.5377  0.2076 -0.8016
 1683poe    c23 7230   0.386   5.922   2.184 -0.2266 -1.0701 -0.3183
 1683poe    c23 7231   0.282   5.950   2.074  0.0594  0.3437 -0.2397
 1683poe     o2 7232   0.158   5.887   2.100  0.4251 -0.3447 -0.1515
 1683poe    c23 7233   0.061   5.912   2.002  0.1259 -0.0855  0.2061
 1683poe    c23 7234  -0.052   5.807   2.003 -0.0175  0.0686  0.2848
 1683poe     o2 7235  -0.131   5.802   2.120 -0.4213  0.6529  0.0428
 1683poe    c31 7236  -0.231   5.705   2.102  0.4244 -0.3161  0.4366
 1684poe    c31 7237   2.444   6.567   1.027 -0.5316 -0.3506  0.5194
 1684poe     o2 7238   2.361   6.571   0.914 -0.0714 -0.0830  0.1872
 1684poe    c23 7239   2.410   6.490   0.810 -0.3988 -0.0656  0.0180
 1684poe    c23 7240   2.403   6.552   0.669  0.3745 -0.3905 -0.1676
 1684poe     o2 7241   2.273   6.594   0.633  0.3093 -0.3095  0.1598
 1684poe    c23 7242   2.250   6.599   0.494  0.4945  0.0904  0.1398
 1684poe    c23 7243   2.140   6.704   0.471  0.0457 -0.2968  0.4908
 1684poe     o2 7244   2.036   6.667   0.559 -0.2174  0.0914  0.3476
 1684poe    c23 7245   1.905   6.714   0.536 -0.4695 -0.7295  0.0987
 1684poe    c23 7246   1.817   6.650   0.645 -0.8266  0.3726  0.4693
 1684poe     o2 7247   1.886   6.663   0.767 -0.2870  0.8111  0.1192
 1684poe    c31 7248   1.788   6.658   0.868 -0.6850 -0.9126 -0.3156
 1685poe    c31 7249   3.349   6.655   4.649  0.0454 -0.2263 -0.4101
 1685poe     o2 7250   3.273   6.665   4.767 -0.0942 -0.1275 -0.5079
 1685poe    c23 7251   3.254   6.802   4.796 -0.4531 -0.2372 -0.2086
 1685poe    c23 7252   3.122   6.814   4.873  0.0224  0.0392  0.5818
 1685poe     o2 7253   3.113   6.701   4.957  0.0867  0.2051  0.8119
 1685poe    c23 7254   2.989   6.733   5.016 -0.5126 -0.0652 -0.2604
 1685poe    c23 7255   2.954   6.629   5.124  0.1686 -0.3072 -0.2625
 1685poe     o2 7256   2.967   6.496   5.081 -0.0164 -0.3907 -0.0630
 1685poe    c23 7257   2.915   6.398   5.169  0.4816 -0.1520  0.5015
 1685poe    c23 7258   2.973   6.265   5.117  0.5426  0.0599  0.0172
 1685poe     o2 7259   2.925   6.240   4.987 -0.7302 -0.2468  0.5293
 1685poe    c31 7260   2.957   6.109   4.946 -0.0660  0.2395 -0.5525
 1686poe    c31 7261   5.516   5.541   5.216  0.2675  0.0644  0.2814
 1686poe     o2 7262   5.593   5.656   5.243 -0.3499  0.4511  0.4245
 1686poe    c23 7263   5.657   5.627   5.365  0.4934 -0.3677 -0.1924
 1686poe    c23 7264   5.760   5.737   5.400  0.2074  0.0305 -0.5820
 1686poe     o2 7265   5.809   5.759   5.270  0.1144 -0.1572 -0.6492
 1686poe    c23 7266   5.931   5.830   5.263 -0.1201  0.3166  0.0508
 1686poe    c23 7267   5.978   5.819   5.117 -0.5054  0.0428 -0.0551
 1686poe     o2 7268   5.867   5.856   5.037 -0.6940 -0.2147  0.0873
 1686poe    c23 7269   5.911   5.908   4.914 -0.4365 -0.4562  0.0763
 1686poe    c23 7270   5.798   5.979   4.837 -0.0526  0.1846  0.0996
 1686poe     o2 7271   5.684   5.897   4.819 -0.0008  0.1382 -0.0176
 1686poe    c31 7272   5.600   5.949   4.719  0.2439 -0.0499 -0.3235
 1687poe    c31 7273   2.440   1.149   2.883 -0.0987 -0.2635 -0.4557
 1687poe     o2 7274   2.367   1.233   2.970  0.1026  0.0843 -0.6242
 1687poe    c23 7275   2.312   1.347   2.908 -0.5080  0.3096  0.3206
 1687poe    c23 7276   2.189   1.386   2.993 -0.2855  0.8702  0.3888
 1687poe     o2 7277   2.233   1.409   3.125 -0.0488  0.1594  0.4428
 1687poe    c23 7278   2.191   1.534   3.175  0.5591  0.6186 -0.1696
 1687poe    c23 7279   2.295   1.607   3.263  1.0216  0.2253 -0.3889
 1687poe     o2 7280   2.310   1.534   3.383  0.0147 -0.3043 -0.5654
 1687poe    c23 7281   2.411   1.586   3.467 -0.3467 -0.0772 -0.2747
 1687poe    c23 7282   2.414   1.506   3.598  0.1991  0.0837 -0.1855
 1687poe     o2 7283   2.463   1.379   3.561  0.4016  0.0955  0.0428
 1687poe    c31 7284   2.465   1.287   3.668 -0.5166  0.2334  0.1883
 1688poe    c31 7285   0.418   3.270   4.938  0.4762 -0.5747  0.3544
 1688poe     o2 7286   0.330   3.268   5.048 -0.2815 -0.1534 -0.2268
 1688poe    c23 7287   0.249   3.383   5.041 -0.1229 -0.0296 -0.0380
 1688poe    c23 7288   0.223   3.434   5.184 -0.1494 -0.0354 -0.0413
 1688poe     o2 7289   0.119   3.527   5.204 -0.0402  0.1476 -0.3137
 1688poe    c23 7290   0.124   3.579   5.335  0.2407  0.1523 -0.3265
 1688poe    c23 7291  -0.007   3.556   5.412  0.6431  0.4598  0.4638
 1688poe     o2 7292  -0.111   3.635   5.359  0.7172  0.7261  0.7147
 1688poe    c23 7293  -0.152   3.743   5.440 -0.2362  0.8528  0.0760
 1688poe    c23 7294  -0.282   3.806   5.385 -0.2488  0.1028 -0.7628
 1688poe     o2 7295  -0.248   3.834   5.251  0.3926  0.3858 -0.5459
 1688poe    c31 7296  -0.344   3.917   5.189 -0.0910  0.0269 -0.2883
 1689poe    c31 7297   5.824   3.816   1.090  0.1592  0.0216 -1.1798
 1689poe     o2 7298   5.716   3.904   1.111  0.7401  0.3694  0.4502
 1689poe    c23 7299   5.740   4.025   1.043 -0.5257 -0.1592 -0.9659
 1689poe    c23 7300   5.614   4.111   1.066 -0.3163 -0.0917 -0.0545
 1689poe     o2 7301   5.581   4.114   1.203 -0.3750  0.0168 -0.0709
 1689poe    c23 7302   5.486   4.216   1.228 -0.4175  0.2113 -0.9859
 1689poe    c23 7303   5.377   4.177   1.329  0.5549 -0.2471 -0.0883
 1689poe     o2 7304   5.439   4.091   1.422  0.0200 -0.6582 -0.1119
 1689poe    c23 7305   5.347   4.057   1.523  0.5273 -0.4834  0.4105
 1689poe    c23 7306   5.290   3.914   1.519 -0.2415 -0.1840  0.4779
 1689poe     o2 7307   5.220   3.908   1.397  0.0869 -0.4926  0.3029
 1689poe    c31 7308   5.167   3.780   1.368 -0.2465 -0.2242 -0.2967
 1690poe    c31 7309   1.404   6.236   6.125  0.8590 -0.7542 -0.4493
 1690poe     o2 7310   1.293   6.170   6.183  0.5408 -0.1227 -0.3333
 1690poe    c23 7311   1.282   6.034   6.150  0.4506 -0.3823  0.7494
 1690poe    c23 7312   1.155   5.966   6.207  0.0292 -0.4530 -0.2561
 1690poe     o2 7313   1.146   5.975   6.347 -0.2436  0.3025 -0.3172
 1690poe    c23 7314   1.012   5.933   6.365  0.1753 -1.1481 -0.4387
 1690poe    c23 7315   0.993   5.939   6.518  0.0350  0.0939 -0.4920
 1690poe     o2 7316   1.045   6.059   6.571 -0.1515 -0.0766  0.0799
 1690poe    c23 7317   1.033   6.047   6.711  0.5602 -0.0230  0.1485
 1690poe    c23 7318   1.116   6.163   6.770  0.3622  0.1782  0.0326
 1690poe     o2 7319   1.253   6.164   6.737  0.3106 -0.1671 -0.1967
 1690poe    c31 7320   1.287   6.295   6.777 -0.7679  0.1524 -0.3127
 1691poe    c31 7321   2.627   1.756   2.321  0.2483  0.5141 -0.3315
 1691poe     o2 7322   2.760   1.736   2.278  0.3052 -0.6101  0.3177
 1691poe    c23 7323   2.748   1.786   2.147  0.1699 -0.0296  0.5493
 1691poe    c23 7324   2.889   1.808   2.088  0.1124  0.0407  0.4382
 1691poe     o2 7325   2.957   1.687   2.068 -0.1327 -0.0349  0.0451
 1691poe    c23 7326   3.086   1.725   2.026 -0.1316  0.0387  0.1156
 1691poe    c23 7327   3.170   1.605   1.977  0.9005  0.8023 -0.0437
 1691poe     o2 7328   3.236   1.529   2.076  0.0786  0.1539  0.0218
 1691poe    c23 7329   3.373   1.534   2.044 -0.1311 -0.3939 -1.0228
 1691poe    c23 7330   3.468   1.445   2.127 -0.2008  0.4933  0.0294
 1691poe     o2 7331   3.501   1.493   2.255 -0.2033  0.0025  0.2152
 1691poe    c31 7332   3.609   1.414   2.299  0.0044  0.2071  0.0771
 1692poe    c31 7333   3.548   4.508   2.887  0.3841  0.2055  0.0318
 1692poe     o2 7334   3.492   4.430   2.990 -0.3479 -0.1421 -0.6187
 1692poe    c23 7335   3.370   4.475   3.043  0.0383 -0.2099  0.3358
 1692poe    c23 7336   3.329   4.400   3.172  0.1739 -0.2175  0.3751
 1692poe     o2 7337   3.449   4.391   3.246  0.2054  0.0804  0.3658
 1692poe    c23 7338   3.434   4.315   3.364  0.3411 -0.4168  0.0670
 1692poe    c23 7339   3.555   4.347   3.454  0.1890  0.5941 -0.0748
 1692poe     o2 7340   3.674   4.320   3.383  0.1829 -0.0797  0.1665
 1692poe    c23 7341   3.780   4.350   3.471  0.4426 -0.2918 -0.0733
 1692poe    c23 7342   3.915   4.322   3.403  0.5113  0.0467 -0.0753
 1692poe     o2 7343   3.954   4.420   3.308 -0.0429  0.0419 -0.3102
 1692poe    c31 7344   4.094   4.420   3.289 -0.1296 -0.0128 -0.9659
 1693poe    c31 7345   5.267   3.148   3.129 -0.7618  0.2635 -0.5963
 1693poe     o2 7346   5.365   3.086   3.049 -0.4675 -0.3078  0.1874
 1693poe    c23 7347   5.479   3.062   3.128 -0.6730 -0.4464  0.4435
 1693poe    c23 7348   5.519   2.914   3.113  0.8156 -0.0019 -0.1699
 1693poe     o2 7349   5.585   2.890   2.990 -0.1842  0.4984 -0.8146
 1693poe    c23 7350   5.584   2.751   2.967 -0.2408  0.3608 -0.0211
 1693poe    c23 7351   5.492   2.689   2.859 -0.4106 -0.1134  0.3921
 1693poe     o2 7352   5.491   2.777   2.749  0.0018 -0.0083  0.4687
 1693poe    c23 7353   5.451   2.681   2.654 -0.0945  0.2914  0.2047
 1693poe    c23 7354   5.395   2.752   2.529  0.4932  0.1463 -0.1459
 1693poe     o2 7355   5.500   2.827   2.473  0.3057  0.1794 -0.4585
 1693poe    c31 7356   5.465   2.911   2.366  0.5255  0.7180 -0.1123
 1694poe    c31 7357   3.414   0.147   3.669 -0.2774  0.7110 -0.7332
 1694poe     o2 7358   3.396   0.015   3.623  0.4480  0.3623 -0.0332
 1694poe    c23 7359   3.518  -0.049   3.653  0.4665  0.3248 -0.1872
 1694poe    c23 7360   3.503  -0.202   3.647  0.2437  0.3544 -0.4129
 1694poe     o2 7361   3.418  -0.218   3.536 -0.5047 -0.6843  0.2902
 1694poe    c23 7362   3.405  -0.349   3.485 -0.4528 -0.4245 -0.3997
 1694poe    c23 7363   3.322  -0.348   3.355 -0.7388 -0.4702 -0.2196
 1694poe     o2 7364   3.212  -0.270   3.394 -0.1414  0.4841 -0.4046
 1694poe    c23 7365   3.128  -0.281   3.280  0.0593 -0.1558 -0.4908
 1694poe    c23 7366   3.069  -0.143   3.246  0.4475  0.1175 -0.0769
 1694poe     o2 7367   3.149  -0.030   3.224  0.2698  0.2623  0.0163
 1694poe    c31 7368   3.083   0.063   3.141  0.8352  0.4361 -0.2477
 1695poe    c31 7369   4.811   2.333   0.302 -0.2323  0.5689  0.5674
 1695poe     o2 7370   4.875   2.267   0.409 -0.4037 -0.1701  0.2158
 1695poe    c23 7371   4.853   2.129   0.391 -0.2388 -0.1141 -0.4313
 1695poe    c23 7372   4.923   2.061   0.510  0.1623  0.5301 -0.2963
 1695poe     o2 7373   4.878   2.113   0.633  0.5628 -0.0767  0.1147
 1695poe    c23 7374   4.904   2.015   0.731  0.1317  0.2222  0.5365
 1695poe    c23 7375   4.831   2.053   0.861  0.0261  0.4415  0.4142
 1695poe     o2 7376   4.807   2.192   0.855  0.3631  0.4663 -0.4948
 1695poe    c23 7377   4.764   2.244   0.979  0.7946  0.5877 -0.3953
 1695poe    c23 7378   4.872   2.267   1.086  0.4276  0.2757  0.0437
 1695poe     o2 7379   4.832   2.365   1.180  0.1862 -0.0428  0.2728
 1695poe    c31 7380   4.840   2.497   1.134 -0.5456 -0.0401  0.1369
 1696poe    c31 7381   6.489   1.005   1.269  0.0390  0.3263  0.1490
 1696poe     o2 7382   6.437   1.011   1.138 -0.4272 -0.2948  0.2986
 1696poe    c23 7383   6.551   0.971   1.066 -0.4813 -0.2860  0.2094
 1696poe    c23 7384   6.528   0.994   0.915 -0.2496 -0.0354  0.2090
 1696poe     o2 7385   6.401   0.944   0.878 -0.2656  0.3074 -0.2001
 1696poe    c23 7386   6.410   0.926   0.738  0.4517  0.9239 -0.2399
 1696poe    c23 7387   6.267   0.936   0.682  0.0150 -0.4177  0.5824
 1696poe     o2 7388   6.181   0.843   0.744  0.2113 -0.9190  0.1132
 1696poe    c23 7389   6.050   0.824   0.696  0.2203 -0.7677  0.0272
 1696poe    c23 7390   5.995   0.732   0.806 -0.3354 -0.4701  0.0010
 1696poe     o2 7391   6.003   0.781   0.938 -0.0290 -0.4983 -0.0060
 1696poe    c31 7392   5.880   0.841   0.973  0.0349 -0.3833  0.0231
 1697poe    c31 7393   1.574   2.108   6.777  0.1469  0.0681 -0.1463
 1697poe     o2 7394   1.644   2.018   6.861 -0.0542 -0.1423 -0.2054
 1697poe    c23 7395   1.746   2.086   6.930 -0.0121 -0.4770  0.0595
 1697poe    c23 7396   1.800   1.977   7.024  0.1275 -0.0546  0.4733
 1697poe     o2 7397   1.832   1.860   6.952 -0.5050 -0.0190  0.1284
 1697poe    c23 7398   1.889   1.759   7.033 -0.1276 -0.1716 -0.3232
 1697poe    c23 7399   1.886   1.621   6.965 -0.2051 -0.2563 -0.1466
 1697poe     o2 7400   1.758   1.573   6.931 -0.3682  0.3378 -0.3808
 1697poe    c23 7401   1.781   1.473   6.834  0.2968 -0.1317  0.2517
 1697poe    c23 7402   1.659   1.378   6.838  0.2800 -0.1119  0.2141
 1697poe     o2 7403   1.548   1.454   6.880  0.1271 -0.2258  0.0142
 1697poe    c31 7404   1.422   1.391   6.887 -0.2873  0.5876 -0.0114
 1698poe    c31 7405   2.582   6.373   6.712  0.4096 -0.0325 -0.0227
 1698poe     o2 7406   2.625   6.483   6.790  0.1311 -0.1183  0.2535
 1698poe    c23 7407   2.761   6.519   6.778  0.0553  0.1172  0.0986
 1698poe    c23 7408   2.810   6.642   6.857 -0.0030  0.0908  0.1764
 1698poe     o2 7409   2.698   6.727   6.875 -0.3982 -0.3531 -0.1409
 1698poe    c23 7410   2.736   6.852   6.928 -0.1696 -0.4343 -0.1069
 1698poe    c23 7411   2.628   6.960   6.907  0.1578 -0.1300 -0.2360
 1698poe     o2 7412   2.617   6.995   6.771 -0.1676  0.3650 -0.0882
 1698poe    c23 7413   2.512   7.086   6.748 -0.5349  0.0452  0.2908
 1698poe    c23 7414   2.434   7.061   6.617  0.0898  0.1936 -0.1180
 1698poe     o2 7415   2.379   6.934   6.594 -0.0573  0.2942 -0.3199
 1698poe    c31 7416   2.292   6.938   6.482  0.4755  0.2679 -0.7403
 1699poe    c31 7417   0.667   1.479   5.689  0.4559  0.7978 -0.2134
 1699poe     o2 7418   0.583   1.368   5.712  1.1350  0.2053 -0.5945
 1699poe    c23 7419   0.545   1.289   5.602 -0.0664  0.0184 -0.0583
 1699poe    c23 7420   0.503   1.150   5.654  0.1769 -0.1566 -0.3210
 1699poe     o2 7421   0.451   1.178   5.782  0.1708 -0.3230 -0.2874
 1699poe    c23 7422   0.428   1.057   5.852 -0.1496 -0.1878 -0.1608
 1699poe    c23 7423   0.325   1.091   5.962  0.0282 -0.1140 -0.0177
 1699poe     o2 7424   0.368   1.201   6.039 -0.6674  0.7060 -0.7749
 1699poe    c23 7425   0.271   1.221   6.139  0.1241 -0.0353  0.1707
 1699poe    c23 7426   0.307   1.341   6.228  0.1170 -0.3322  0.5796
 1699poe     o2 7427   0.329   1.457   6.150 -0.1945 -0.5733  0.1270
 1699poe    c31 7428   0.410   1.555   6.211 -0.3273 -0.3101 -0.1177
 1700poe    c31 7429   4.586   3.143   1.705 -0.1343  0.3757  0.0200
 1700poe     o2 7430   4.593   3.024   1.781 -0.3097  0.2943 -0.0893
 1700poe    c23 7431   4.518   2.913   1.738 -0.2453  0.0578  0.4044
 1700poe    c23 7432   4.530   2.795   1.837 -0.1411 -0.2707  0.0053
 1700poe     o2 7433   4.669   2.773   1.840 -0.1614 -0.3211  0.5625
 1700poe    c23 7434   4.679   2.710   1.966 -0.0105 -0.6886  0.3650
 1700poe    c23 7435   4.827   2.673   1.991  0.3997  0.3871 -0.4138
 1700poe     o2 7436   4.901   2.790   1.960  0.2713  0.6143  0.1180
 1700poe    c23 7437   5.037   2.758   1.979  0.1821  0.0380 -0.1761
 1700poe    c23 7438   5.145   2.867   1.975  0.3093 -0.0668  0.3394
 1700poe     o2 7439   5.164   2.933   1.851 -0.6557  0.1838  0.3142
 1700poe    c31 7440   5.278   3.015   1.856 -0.8539  0.4789 -0.0441
 1701poe    c31 7441   1.079   7.035   2.334 -0.2237 -0.1018 -0.3541
 1701poe     o2 7442   0.979   6.946   2.288 -0.0817 -0.2022 -0.4709
 1701poe    c23 7443   0.851   6.995   2.323  0.1953 -0.2755  0.6994
 1701poe    c23 7444   0.746   6.890   2.363 -0.2812 -0.2283 -0.3889
 1701poe     o2 7445   0.721   6.809   2.251 -0.1293 -0.5336 -0.2019
 1701poe    c23 7446   0.611   6.726   2.280  0.1543 -0.6317  0.6178
 1701poe    c23 7447   0.611   6.608   2.181  0.1666 -0.2369  0.1443
 1701poe     o2 7448   0.730   6.533   2.193  0.3503  0.1460  0.7773
 1701poe    c23 7449   0.704   6.396   2.215  0.5136  0.0877  0.6017
 1701poe    c23 7450   0.827   6.315   2.260  0.0274 -1.1711 -0.2667
 1701poe     o2 7451   0.861   6.339   2.395  0.0355 -0.3519 -0.4095
 1701poe    c31 7452   0.990   6.283   2.402  0.3612  0.4844  0.4138
 1702poe    c31 7453   1.870   6.704   1.640  0.1676  0.5575  0.1731
 1702poe     o2 7454   1.792   6.819   1.613 -0.3918  0.0649 -0.3257
 1702poe    c23 7455   1.859   6.936   1.653 -0.4767 -0.0440  0.1427
 1702poe    c23 7456   1.917   7.027   1.543 -0.2655 -0.9228 -0.4846
 1702poe     o2 7457   1.822   7.065   1.446 -0.1490  0.3821 -0.1093
 1702poe    c23 7458   1.894   7.092   1.327  0.3151 -0.3314 -0.0027
 1702poe    c23 7459   1.782   7.118   1.224  0.2976  0.0256  0.1029
 1702poe     o2 7460   1.707   7.003   1.192 -0.1072  0.4165 -0.3572
 1702poe    c23 7461   1.610   7.034   1.094 -0.1307 -0.5118 -0.6339
 1702poe    c23 7462   1.493   6.935   1.081 -0.5739 -0.0357 -0.2850
 1702poe     o2 7463   1.534   6.803   1.056  0.0427  0.0585  0.2009
 1702poe    c31 7464   1.440   6.700   1.081  0.2434 -0.1658  0.0381
 1703poe    c31 7465   2.608   2.099   4.952  0.1065  0.7150  0.2126
 1703poe     o2 7466   2.511   1.997   4.963  1.0064 -0.1247  0.4918
 1703poe    c23 7467   2.566   1.874   4.923 -0.1059 -0.2737 -0.6472
 1703poe    c23 7468   2.460   1.762   4.917  0.3731 -0.7973  0.4101
 1703poe     o2 7469   2.405   1.744   5.046  0.1769 -0.9161  0.3094
 1703poe    c23 7470   2.283   1.674   5.028  0.0131 -0.4573 -0.3980
 1703poe    c23 7471   2.158   1.748   5.078  0.5049  0.0152  0.1500
 1703poe     o2 7472   2.175   1.764   5.218 -0.1105  0.9489  0.1246
 1703poe    c23 7473   2.073   1.835   5.285 -0.3140  0.6918  0.0929
 1703poe    c23 7474   2.124   1.855   5.429  0.0179 -0.5260  0.1529
 1703poe     o2 7475   2.264   1.860   5.416  0.0129  0.3918  0.4168
 1703poe    c31 7476   2.323   1.898   5.539 -0.7952  0.1446  0.8881
 1704poe    c31 7477   6.668   6.547   2.032 -0.2708  0.3333  0.0788
 1704poe     o2 7478   6.704   6.594   2.160  0.1544  0.1560  0.0224
 1704poe    c23 7479   6.714   6.483   2.247 -0.1747 -0.1924 -0.3835
 1704poe    c23 7480   6.684   6.520   2.393  1.0601 -0.8366  0.0437
 1704poe     o2 7481   6.753   6.636   2.434 -0.2825 -0.1196  0.3266
 1704poe    c23 7482   6.752   6.664   2.572 -0.1673 -0.4714  0.3998
 1704poe    c23 7483   6.823   6.799   2.594 -0.7677 -0.1531  0.4193
 1704poe     o2 7484   6.756   6.904   2.528  0.0992  0.2278  0.1263
 1704poe    c23 7485   6.803   7.029   2.575 -0.0520  0.1741  0.4249
 1704poe    c23 7486   6.695   7.126   2.524 -0.0840  0.0579  0.2729
 1704poe     o2 7487   6.685   7.120   2.383 -0.0358  0.0068  0.2714
 1704poe    c31 7488   6.648   7.245   2.331 -0.6959 -0.5610 -0.6651
 1705poe    c31 7489   0.321   0.558   1.243 -0.3528 -0.3861 -0.0545
 1705poe     o2 7490   0.395   0.646   1.161 -0.1191  0.1374  0.7110
 1705poe    c23 7491   0.382   0.782   1.197 -0.7456  0.3382 -0.2397
 1705poe    c23 7492   0.512   0.856   1.159 -0.3067 -0.0683  0.4594
 1705poe     o2 7493   0.534   0.862   1.020 -0.4501 -0.0857  0.4361
 1705poe    c23 7494   0.673   0.868   0.997 -0.5133  0.4951  0.1844
 1705poe    c23 7495   0.668   0.922   0.853  0.7866  0.0401 -0.0414
 1705poe     o2 7496   0.573   0.856   0.773  0.2487  0.2342  0.4299
 1705poe    c23 7497   0.563   0.918   0.647 -0.2169 -0.3397  0.1786
 1705poe    c23 7498   0.455   0.843   0.566  0.1786 -0.4904 -0.2148
 1705poe     o2 7499   0.363   0.831   0.672  0.2928 -0.8168 -0.1531
 1705poe    c31 7500   0.235   0.794   0.625 -0.0091 -0.0930  0.0803
 1706poe    c31 7501   0.309   3.468   2.277  0.2380  0.1763 -0.0536
 1706poe     o2 7502   0.189   3.411   2.231  0.2382 -0.2405  0.4504
 1706poe    c23 7503   0.208   3.277   2.189  0.4035 -0.0169 -0.1899
 1706poe    c23 7504   0.129   3.216   2.072 -0.1554  0.2043  0.0701
 1706poe     o2 7505   0.145   3.290   1.952 -0.3472 -0.6761 -0.5044
 1706poe    c23 7506   0.252   3.244   1.873 -0.2756 -0.8839 -0.2882
 1706poe    c23 7507   0.278   3.349   1.763  0.0101 -0.3000  0.3237
 1706poe     o2 7508   0.293   3.475   1.824  0.0767 -0.3516  0.4140
 1706poe    c23 7509   0.376   3.553   1.742  0.3527 -0.4380  0.6089
 1706poe    c23 7510   0.380   3.693   1.806  0.2974 -0.3062  0.3254
 1706poe     o2 7511   0.256   3.720   1.868  0.1402 -0.4461  0.0706
 1706poe    c31 7512   0.257   3.847   1.928  0.1019 -0.6646  0.5335
 1707poe    c31 7513   0.858   6.289   6.129  0.3488 -0.4877 -0.1579
 1707poe     o2 7514   0.872   6.257   5.992  0.0928  0.2618 -0.3631
 1707poe    c23 7515   1.001   6.295   5.948  0.2522 -0.0014 -0.1237
 1707poe    c23 7516   1.058   6.230   5.821  0.6123  0.2582 -0.0971
 1707poe     o2 7517   1.117   6.105   5.850  0.4540  0.1715 -0.1407
 1707poe    c23 7518   1.140   6.029   5.734  0.4272  0.0052 -0.0365
 1707poe    c23 7519   1.154   5.885   5.786 -0.0014 -0.1744 -0.4105
 1707poe     o2 7520   1.026   5.836   5.820 -0.1103  0.2641 -0.1916
 1707poe    c23 7521   1.025   5.710   5.883 -0.3895  0.1196 -0.4838
 1707poe    c23 7522   0.889   5.639   5.888 -0.2102 -0.1975 -0.0827
 1707poe     o2 7523   0.798   5.740   5.926 -0.0093 -0.0968  0.1333
 1707poe    c31 7524   0.668   5.687   5.933 -0.2134  0.3512 -0.1862
 1708poe    c31 7525   5.023   6.904   3.262 -0.7498 -0.5527  0.8685
 1708poe     o2 7526   5.108   6.993   3.331 -0.2514 -0.6702  0.4095
 1708poe    c23 7527   5.237   6.936   3.318 -0.0315 -0.0507 -0.2304
 1708poe    c23 7528   5.326   7.029   3.402 -0.5341 -0.1855  0.4668
 1708poe     o2 7529   5.300   7.010   3.539 -1.1843 -0.4279  0.3099
 1708poe    c23 7530   5.410   7.062   3.610 -0.5594 -0.8967 -0.3070
 1708poe    c23 7531   5.381   7.086   3.759  0.6891  0.5634 -0.2795
 1708poe     o2 7532   5.296   7.192   3.798 -0.1672 -0.2785  0.1797
 1708poe    c23 7533   5.366   7.313   3.820 -0.2167 -0.3166  0.5456
 1708poe    c23 7534   5.290   7.411   3.911 -0.2161  0.4139 -0.2378
 1708poe     o2 7535   5.284   7.386   4.049 -0.1852 -0.0901 -0.3267
 1708poe    c31 7536   5.239   7.259   4.089  1.1640 -0.6610 -0.5503
 1709poe    c31 7537   0.339   5.723   6.906  0.2139 -0.4596 -0.1094
 1709poe     o2 7538   0.356   5.708   7.045  0.1771 -0.3126 -0.0892
 1709poe    c23 7539   0.471   5.632   7.076 -0.0885 -0.5356  0.3514
 1709poe    c23 7540   0.536   5.672   7.210 -0.4302  0.3927  0.2468
 1709poe     o2 7541   0.477   5.606   7.319 -0.0699 -0.4679 -0.0686
 1709poe    c23 7542   0.530   5.628   7.448 -0.0846  0.6190 -0.2345
 1709poe    c23 7543   0.466   5.521   7.538  0.2251  0.5362 -0.1096
 1709poe     o2 7544   0.494   5.389   7.496  0.1898  0.3080  0.5627
 1709poe    c23 7545   0.494   5.281   7.585  0.0686 -0.3575 -0.2331
 1709poe    c23 7546   0.524   5.145   7.519  0.0810 -0.4317 -0.0773
 1709poe     o2 7547   0.451   5.131   7.399 -0.1302 -0.1798  0.0205
 1709poe    c31 7548   0.483   5.017   7.323 -0.0819  0.0127 -0.2481
 1710poe    c31 7549   3.677   1.551   1.200  0.4335 -0.2596 -0.4603
 1710poe     o2 7550   3.731   1.682   1.197 -0.0958  0.0095  0.9045
 1710poe    c23 7551   3.624   1.764   1.238 -0.2594  0.6339 -0.7045
 1710poe    c23 7552   3.676   1.856   1.351  0.2598  0.0481 -0.4567
 1710poe     o2 7553   3.747   1.966   1.298  0.2568  0.1135 -0.3248
 1710poe    c23 7554   3.790   2.060   1.395 -0.2975  0.0668 -0.0302
 1710poe    c23 7555   3.769   2.207   1.354  0.0099  0.1439  0.0934
 1710poe     o2 7556   3.867   2.239   1.258  0.2868  0.1471  0.3731
 1710poe    c23 7557   3.822   2.353   1.188 -0.0095 -0.3919 -0.3365
 1710poe    c23 7558   3.924   2.410   1.087 -0.2290  0.3718 -0.1382
 1710poe     o2 7559   3.964   2.292   1.021 -0.1745  0.5104 -0.3514
 1710poe    c31 7560   4.025   2.325   0.898  0.8144  1.2585  0.3253
 1711poe    c31 7561   4.045   4.943   6.155  0.6517 -0.1426  0.6466
 1711poe     o2 7562   4.063   4.967   6.017  0.2537 -0.3896  0.5487
 1711poe    c23 7563   3.934   4.965   5.962  0.2389 -0.1417  0.5751
 1711poe    c23 7564   3.934   4.909   5.818  0.1292  0.4452  0.3415
 1711poe     o2 7565   4.018   4.972   5.725  0.0115 -0.4549 -0.3835
 1711poe    c23 7566   4.017   4.908   5.599 -0.2202 -0.0026 -0.6125
 1711poe    c23 7567   4.069   4.999   5.485  0.0658  0.3841 -0.1776
 1711poe     o2 7568   3.983   5.106   5.451  0.1798  0.7150  0.5564
 1711poe    c23 7569   4.035   5.173   5.339 -0.4088 -0.2418 -0.3044
 1711poe    c23 7570   3.951   5.300   5.320 -0.5728 -0.2438  0.3938
 1711poe     o2 7571   3.996   5.392   5.418  0.0809 -0.1412  0.0082
 1711poe    c31 7572   3.942   5.521   5.400  0.3541 -0.0184  0.0725
 1712poe    c31 7573   1.602   4.445   2.709  0.2583  0.1485  0.0845
 1712poe     o2 7574   1.552   4.572   2.746 -0.0174  0.1391 -0.2495
 1712poe    c23 7575   1.662   4.659   2.737 -0.0845  0.1999 -0.4771
 1712poe    c23 7576   1.615   4.793   2.797  0.2955  0.1353 -0.0284
 1712poe     o2 7577   1.489   4.804   2.734  0.0266 -0.3030  0.4241
 1712poe    c23 7578   1.425   4.930   2.739  0.0286 -0.2680 -0.3403
 1712poe    c23 7579   1.273   4.912   2.729 -0.0434  0.0517  0.1517
 1712poe     o2 7580   1.231   4.807   2.814  0.3708 -0.2107  0.0329
 1712poe    c23 7581   1.092   4.807   2.836  0.3485 -0.0687 -0.1053
 1712poe    c23 7582   1.026   4.674   2.796 -0.6354  0.5087 -0.4572
 1712poe     o2 7583   1.054   4.633   2.664  0.1826  0.0553 -0.1540
 1712poe    c31 7584   0.943   4.659   2.581  0.4482 -0.1228 -0.5644
 1713poe    c31 7585   4.358   6.871   5.450 -0.5118  0.0202 -0.0719
 1713poe     o2 7586   4.316   6.745   5.402  0.1419 -0.2847  0.1508
 1713poe    c23 7587   4.214   6.719   5.495  0.1022 -0.5630  0.0276
 1713poe    c23 7588   4.093   6.634   5.452 -0.0772 -0.4814  0.3642
 1713poe     o2 7589   4.109   6.498   5.415  0.1830 -0.3075 -0.1708
 1713poe    c23 7590   4.022   6.454   5.314  0.0311  0.2756 -0.2997
 1713poe    c23 7591   4.024   6.497   5.166  0.0015  0.3698 -0.2730
 1713poe     o2 7592   4.153   6.481   5.111  0.2062  0.4709  0.1684
 1713poe    c23 7593   4.154   6.509   4.972  0.2419  0.3213  0.1382
 1713poe    c23 7594   4.290   6.479   4.906  0.1315 -0.2100  0.1547
 1713poe     o2 7595   4.401   6.549   4.956  0.4285 -0.3410 -0.3164
 1713poe    c31 7596   4.507   6.493   4.881 -0.0215 -0.3898 -0.9242
 1714poe    c31 7597   5.928   6.680   6.980 -0.0004 -0.4312  0.5274
 1714poe     o2 7598   5.890   6.575   7.065  0.1979 -0.3181  0.7577
 1714poe    c23 7599   5.967   6.458   7.050 -0.0834 -0.3283 -0.7853
 1714poe    c23 7600   5.924   6.346   7.146  0.0627  0.2201 -0.0596
 1714poe     o2 7601   5.784   6.344   7.125  0.0110  0.3600  0.2658
 1714poe    c23 7602   5.695   6.242   7.163 -0.2171  0.4537 -0.0110
 1714poe    c23 7603   5.549   6.256   7.115 -0.2701 -0.2400 -0.0614
 1714poe     o2 7604   5.487   6.369   7.172  0.0648 -0.0257 -0.1218
 1714poe    c23 7605   5.392   6.344   7.273 -0.2104  0.0745 -0.3539
 1714poe    c23 7606   5.452   6.350   7.415 -0.2114 -0.4525 -0.3288
 1714poe     o2 7607   5.513   6.475   7.439 -0.9278 -0.1864  0.1291
 1714poe    c31 7608   5.545   6.482   7.577 -0.8832 -0.3662  0.1285
 1715poe    c31 7609   1.961   3.053   2.063  0.0513  0.4258 -0.0456
 1715poe     o2 7610   1.949   3.133   1.947 -0.0942  0.2406 -0.1596
 1715poe    c23 7611   1.977   3.266   1.984 -0.0157  0.2123 -0.1156
 1715poe    c23 7612   2.029   3.335   1.857 -0.2593  0.4222 -0.1020
 1715poe     o2 7613   1.947   3.292   1.751  0.3931 -0.7853 -0.1319
 1715poe    c23 7614   1.963   3.347   1.622 -0.2057 -0.1994  0.0382
 1715poe    c23 7615   1.838   3.295   1.549  0.3459  0.0354 -1.0906
 1715poe     o2 7616   1.845   3.154   1.559 -0.0071  0.0563 -0.5037
 1715poe    c23 7617   1.720   3.090   1.555  0.1487 -0.2386 -0.6620
 1715poe    c23 7618   1.622   3.113   1.671  0.5441  0.4917 -0.4671
 1715poe     o2 7619   1.697   3.105   1.790  0.0886  0.1314 -0.1991
 1715poe    c31 7620   1.615   3.094   1.905  0.0651 -0.0370 -0.2325
 1716poe    c31 7621   1.408   6.790   5.078  0.3610  0.3813 -0.3880
 1716poe     o2 7622   1.486   6.677   5.047 -0.3785 -0.2932  0.1785
 1716poe    c23 7623   1.568   6.696   4.934 -0.2319 -0.8520  0.1838
 1716poe    c23 7624   1.625   6.557   4.903  0.1385 -0.5354 -0.5703
 1716poe     o2 7625   1.648   6.498   5.028 -0.5437  0.0179 -0.1743
 1716poe    c23 7626   1.751   6.402   5.015 -0.3091  0.2863 -0.3103
 1716poe    c23 7627   1.800   6.357   5.154 -0.1318 -0.0851 -0.4924
 1716poe     o2 7628   1.690   6.321   5.235  0.1799 -0.5550 -0.2730
 1716poe    c23 7629   1.729   6.324   5.371 -0.0826  0.5675 -0.2143
 1716poe    c23 7630   1.601   6.278   5.442  0.3792 -0.2314  0.1109
 1716poe     o2 7631   1.502   6.359   5.383 -0.3637 -0.3667  1.1448
 1716poe    c31 7632   1.385   6.340   5.460 -0.6976 -1.1107  0.4718
 1717poe    c31 7633   4.047   5.056   4.814  0.3579  0.3248 -0.1535
 1717poe     o2 7634   4.080   4.931   4.870 -0.3112  0.1865 -0.0597
 1717poe    c23 7635   4.178   4.872   4.789 -0.3565  0.0193  0.0060
 1717poe    c23 7636   4.137   4.794   4.662 -0.3599  0.0406 -0.0058
 1717poe     o2 7637   4.020   4.720   4.686 -0.3649  0.1379  0.2759
 1717poe    c23 7638   3.997   4.616   4.594  0.4178  0.0363  0.1915
 1717poe    c23 7639   3.871   4.535   4.631 -0.0630  0.4172 -0.5966
 1717poe     o2 7640   3.886   4.475   4.757 -0.1952  0.2536 -0.6584
 1717poe    c23 7641   3.769   4.406   4.795  0.3975 -0.2735  0.2539
 1717poe    c23 7642   3.780   4.339   4.933 -0.1901 -0.0021  0.4357
 1717poe     o2 7643   3.815   4.438   5.027  0.6598 -0.0708  0.2048
 1717poe    c31 7644   3.826   4.370   5.150  0.3902  0.1157  0.3359
 1718poe    c31 7645   3.223   2.414   0.284 -0.2091 -0.6223  0.1765
 1718poe     o2 7646   3.182   2.535   0.343  0.2490 -0.0078 -0.7342
 1718poe    c23 7647   3.081   2.594   0.264 -0.5431 -0.4950 -0.1127
 1718poe    c23 7648   2.987   2.678   0.351 -0.4615 -0.1780 -0.3266
 1718poe     o2 7649   3.079   2.744   0.435 -0.5288 -0.0579 -0.3466
 1718poe    c23 7650   3.004   2.823   0.525  0.1802 -0.1130  0.3022
 1718poe    c23 7651   3.112   2.909   0.593 -0.2445  0.2751  0.4841
 1718poe     o2 7652   3.210   2.815   0.629 -0.4596 -0.0321  0.2686
 1718poe    c23 7653   3.314   2.875   0.704 -0.2230  0.2123 -0.2506
 1718poe    c23 7654   3.421   2.937   0.612 -0.1123 -0.5817 -0.6681
 1718poe     o2 7655   3.520   2.841   0.583  0.2243 -0.4735  0.1028
 1718poe    c31 7656   3.649   2.872   0.631 -0.0510  0.1015  0.4811
 1719poe    c31 7657   6.608   3.288   1.158  0.7690  0.1172  0.1160
 1719poe     o2 7658   6.623   3.152   1.121 -0.1394  0.0607 -0.0642
 1719poe    c23 7659   6.596   3.053   1.218  0.7742 -0.2475 -0.1160
 1719poe    c23 7660   6.611   2.907   1.170 -0.8143 -0.5054  0.1207
 1719poe     o2 7661   6.748   2.876   1.166 -0.6148  0.3566  0.0558
 1719poe    c23 7662   6.786   2.755   1.104  0.4372  0.5343  0.3258
 1719poe    c23 7663   6.935   2.716   1.102  0.4104  0.4432  0.1061
 1719poe     o2 7664   7.000   2.714   1.227  0.4519  0.2234  0.0811
 1719poe    c23 7665   7.114   2.634   1.208  0.2485 -0.0398 -0.0382
 1719poe    c23 7666   7.209   2.671   1.324  0.2361 -0.1351  0.0024
 1719poe     o2 7667   7.269   2.798   1.317  0.3151 -0.1479  0.4578
 1719poe    c31 7668   7.293   2.862   1.441  0.4968 -0.7596  0.7446
 1720poe    c31 7669   4.310   1.977   5.142  0.1390  0.2092  0.1790
 1720poe     o2 7670   4.316   2.110   5.188  0.5527  0.5210 -0.7448
 1720poe    c23 7671   4.217   2.179   5.116 -0.4784  0.2211  0.3668
 1720poe    c23 7672   4.231   2.327   5.155  0.5282  0.2281 -0.0050
 1720poe     o2 7673   4.218   2.344   5.295  0.1674  0.4925 -0.0696
 1720poe    c23 7674   4.162   2.466   5.339 -0.5525  0.0825  0.1712
 1720poe    c23 7675   4.160   2.440   5.491 -0.2443  0.2266  0.2004
 1720poe     o2 7676   4.284   2.420   5.557 -0.2827 -0.1255  0.1659
 1720poe    c23 7677   4.269   2.384   5.692  0.1012 -0.2924  0.1631
 1720poe    c23 7678   4.413   2.371   5.747 -0.0671 -0.0839  0.6636
 1720poe     o2 7679   4.479   2.284   5.657 -0.3773 -0.0111  0.3613
 1720poe    c31 7680   4.594   2.233   5.721 -0.3916 -0.5685 -0.0524
 1721poe    c31 7681   5.827   4.061   6.221  0.0965 -0.5097  0.2708
 1721poe     o2 7682   5.757   3.939   6.229 -0.0350 -0.4870 -0.5040
 1721poe    c23 7683   5.709   3.923   6.361  0.2260 -0.0991 -0.3614
 1721poe    c23 7684   5.640   3.786   6.368  0.4276 -0.1866 -0.0804
 1721poe     o2 7685   5.541   3.793   6.267  0.2259 -0.0795  0.1232
 1721poe    c23 7686   5.457   3.680   6.256  0.8888 -0.5462 -0.2880
 1721poe    c23 7687   5.401   3.675   6.113  0.1221 -0.3367 -0.0043
 1721poe     o2 7688   5.498   3.694   6.012  0.1685 -0.0823  0.0854
 1721poe    c23 7689   5.474   3.660   5.877  0.6860  0.3479 -0.1197
 1721poe    c23 7690   5.384   3.761   5.804 -0.1575  0.1585  0.6397
 1721poe     o2 7691   5.441   3.888   5.823 -0.0616  0.1048  0.7086
 1721poe    c31 7692   5.392   3.980   5.727  1.0637 -0.4670 -0.4488
 1722poe    c31 7693   3.629   3.585   1.482 -0.1166 -0.5482  0.1084
 1722poe     o2 7694   3.628   3.712   1.422  0.3664 -0.3868  0.4417
 1722poe    c23 7695   3.580   3.806   1.516 -0.0181  0.0238 -0.1590
 1722poe    c23 7696   3.608   3.949   1.465  0.2778  0.0722  0.1363
 1722poe     o2 7697   3.548   3.930   1.339 -0.8089 -0.3134  0.7033
 1722poe    c23 7698   3.582   4.040   1.258 -0.2484 -0.9193  0.1030
 1722poe    c23 7699   3.527   4.023   1.115  0.3346 -0.1461 -0.2198
 1722poe     o2 7700   3.568   3.896   1.069 -0.3335 -0.5929  0.3989
 1722poe    c23 7701   3.533   3.852   0.939 -0.0505 -0.3174  0.2265
 1722poe    c23 7702   3.384   3.824   0.912  0.1140 -0.3456 -0.6636
 1722poe     o2 7703   3.331   3.731   1.004 -0.0974  0.4891  0.0771
 1722poe    c31 7704   3.195   3.713   0.973 -0.1662  0.2350  0.5205
 1723poe    c31 7705   0.164   0.208   5.781  0.3261  0.1511  0.1603
 1723poe     o2 7706   0.132   0.295   5.887 -0.6069  0.2152 -0.1627
 1723poe    c23 7707   0.185   0.254   6.011 -0.6775  0.0931 -0.1727
 1723poe    c23 7708   0.084   0.261   6.127 -0.7728 -0.5588 -0.2171
 1723poe     o2 7709   0.020   0.386   6.137  0.0604 -0.1456  0.0334
 1723poe    c23 7710  -0.068   0.385   6.247  0.0414 -0.0029  0.0194
 1723poe    c23 7711  -0.167   0.502   6.264 -0.2057 -0.1712 -0.2663
 1723poe     o2 7712  -0.224   0.537   6.140 -0.4080 -0.0420 -0.1377
 1723poe    c23 7713  -0.324   0.637   6.145  0.0050  0.3513  0.3971
 1723poe    c23 7714  -0.383   0.654   6.004 -0.1180  0.1884  0.4292
 1723poe     o2 7715  -0.285   0.626   5.907  0.0692  0.2332  0.6066
 1723poe    c31 7716  -0.316   0.687   5.784  0.5873 -0.5101  0.1035
 1724poe    c31 7717   4.399   5.820   5.223  0.2888  0.3880 -0.5536
 1724poe     o2 7718   4.505   5.869   5.303 -0.2197  0.3275  0.1694
 1724poe    c23 7719   4.622   5.862   5.225 -0.1709 -0.3110  0.2973
 1724poe    c23 7720   4.755   5.848   5.302 -0.4191  0.0664  0.7968
 1724poe     o2 7721   4.814   5.959   5.364  0.5285 -0.0598  0.1337
 1724poe    c23 7722   4.954   5.946   5.376  0.4953 -0.2602  0.2989
 1724poe    c23 7723   5.028   6.041   5.280 -0.4811  0.0338 -0.1764
 1724poe     o2 7724   5.004   6.165   5.342 -0.1227  0.1248 -0.2172
 1724poe    c23 7725   5.076   6.270   5.281  0.4770 -0.0238  0.2198
 1724poe    c23 7726   5.043   6.398   5.361  0.0671 -0.1643  0.2771
 1724poe     o2 7727   4.916   6.445   5.321 -0.0552 -0.6462  0.0781
 1724poe    c31 7728   4.895   6.579   5.361 -0.1266 -0.8606  0.7814
 1725poe    c31 7729   2.108   0.422   2.685 -0.0498 -0.4212  0.1283
 1725poe     o2 7730   2.236   0.371   2.716  0.0774 -0.0873  0.1599
 1725poe    c23 7731   2.241   0.230   2.718 -0.7426 -0.1201  0.3422
 1725poe    c23 7732   2.366   0.171   2.786 -0.3031  0.6763  0.2405
 1725poe     o2 7733   2.475   0.256   2.760  0.2903 -0.1840 -0.1310
 1725poe    c23 7734   2.597   0.202   2.807  0.1712 -0.6728 -0.3848
 1725poe    c23 7735   2.710   0.304   2.789 -0.3164  0.0306  0.4743
 1725poe     o2 7736   2.672   0.419   2.861 -0.7089 -0.0057  0.3278
 1725poe    c23 7737   2.756   0.532   2.867 -0.5216 -0.1222 -0.0585
 1725poe    c23 7738   2.789   0.604   2.735  0.2698  0.0412  0.2235
 1725poe     o2 7739   2.681   0.669   2.672  0.4890 -0.1571 -0.3690
 1725poe    c31 7740   2.724   0.772   2.586  0.6966 -0.5275 -0.7124
 1726poe    c31 7741   7.031   6.005   3.980  0.4552  0.1217 -0.3920
 1726poe     o2 7742   7.092   5.927   3.879  0.3059 -0.1583 -0.2670
 1726poe    c23 7743   7.010   5.935   3.765  0.0939  0.0551 -0.1014
 1726poe    c23 7744   7.085   5.865   3.650 -0.7257 -0.2051 -0.4849
 1726poe     o2 7745   7.194   5.947   3.611 -0.7708  0.1150  0.0524
 1726poe    c23 7746   7.251   5.875   3.504 -0.2758  0.1933  0.2610
 1726poe    c23 7747   7.365   5.950   3.433 -0.2652 -0.3878 -0.3480
 1726poe     o2 7748   7.475   5.955   3.520 -0.3797  0.5558 -0.2461
 1726poe    c23 7749   7.588   6.020   3.465  0.2978 -0.8503 -0.5703
 1726poe    c23 7750   7.707   5.966   3.546  0.0877 -0.3779  0.0672
 1726poe     o2 7751   7.679   5.960   3.684  0.0221 -0.3340  0.0557
 1726poe    c31 7752   7.796   5.930   3.755 -0.0253  0.2685  0.3941
 1727poe    c31 7753   4.617   3.280   4.089  0.2763 -0.3890  0.0634
 1727poe     o2 7754   4.708   3.321   4.188  0.2371  0.2577 -0.1637
 1727poe    c23 7755   4.651   3.415   4.277 -0.2200  0.4141 -0.6184
 1727poe    c23 7756   4.741   3.472   4.388 -0.2605 -0.0904 -0.3218
 1727poe     o2 7757   4.867   3.519   4.347 -0.1925  0.1798  0.1820
 1727poe    c23 7758   4.944   3.571   4.453 -0.0415  0.5966 -0.1262
 1727poe    c23 7759   5.070   3.648   4.411  0.3470  0.1818  0.2688
 1727poe     o2 7760   5.144   3.583   4.310 -0.3937 -0.5443  0.1839
 1727poe    c23 7761   5.249   3.660   4.257  0.1468 -0.7101  0.9867
 1727poe    c23 7762   5.307   3.569   4.147 -0.5851  0.3856 -0.3362
 1727poe     o2 7763   5.204   3.535   4.057 -0.0564 -0.6257 -0.5601
 1727poe    c31 7764   5.249   3.526   3.923 -0.0610  0.1122 -0.6133
 1728poe    c31 7765   4.669   1.716   3.921 -0.0335  0.0396  0.0612
 1728poe     o2 7766   4.703   1.601   3.847  0.5956 -0.1663  0.6583
 1728poe    c23 7767   4.647   1.484   3.901  0.0500 -0.1521  0.1335
 1728poe    c23 7768   4.689   1.345   3.848 -0.0160 -0.0438 -0.2098
 1728poe     o2 7769   4.824   1.317   3.878 -0.0938 -0.2903 -0.0790
 1728poe    c23 7770   4.868   1.197   3.820  0.2393 -0.0705 -0.2901
 1728poe    c23 7771   5.016   1.169   3.852  0.3225  0.4377 -0.2332
 1728poe     o2 7772   5.085   1.279   3.797 -0.2304  0.8567 -0.0940
 1728poe    c23 7773   5.201   1.227   3.737 -0.0948  0.8475  0.1726
 1728poe    c23 7774   5.286   1.335   3.666 -0.0423  0.4965 -0.3002
 1728poe     o2 7775   5.208   1.421   3.585 -0.5294  0.6251  0.3025
 1728poe    c31 7776   5.163   1.368   3.463 -0.0258  0.0328  0.3686
 1729poe    c31 7777   1.418   5.466   0.201 -0.2603 -0.1108 -0.1350
 1729poe     o2 7778   1.498   5.377   0.276  0.5530  0.5930 -0.1468
 1729poe    c23 7779   1.607   5.324   0.204  0.5003  0.2629  0.0168
 1729poe    c23 7780   1.691   5.226   0.289  0.3308 -0.1435 -0.2838
 1729poe     o2 7781   1.698   5.275   0.420  0.1937  0.1931 -0.4018
 1729poe    c23 7782   1.712   5.163   0.504 -0.4676  0.5459  0.1912
 1729poe    c23 7783   1.744   5.200   0.650  0.0575  0.8142  0.0069
 1729poe     o2 7784   1.640   5.280   0.702 -0.3906  0.1998  0.0550
 1729poe    c23 7785   1.680   5.356   0.814  0.1980  0.4880 -0.3452
 1729poe    c23 7786   1.562   5.425   0.885  0.1763 -0.1880  0.2880
 1729poe     o2 7787   1.484   5.514   0.810  0.1097 -0.4059  0.0974
 1729poe    c31 7788   1.435   5.623   0.886  0.1736  0.1280 -0.6142
 1730poe    c31 7789   0.181   7.088   0.473  0.1232  0.2806  0.1591
 1730poe     o2 7790   0.232   7.016   0.363 -0.3978 -0.4262  0.3683
 1730poe    c23 7791   0.164   6.893   0.352 -0.7974 -0.2174  0.4709
 1730poe    c23 7792   0.222   6.832   0.224  0.3103  0.4374  0.6466
 1730poe     o2 7793   0.361   6.841   0.244  0.4922 -1.1161  0.2611
 1730poe    c23 7794   0.436   6.790   0.136  0.2935  0.1030 -0.4790
 1730poe    c23 7795   0.589   6.799   0.147  0.2819  0.3129 -0.4998
 1730poe     o2 7796   0.643   6.925   0.181  0.0922  0.1659  0.3804
 1730poe    c23 7797   0.781   6.919   0.211  0.2249  0.1032 -0.2317
 1730poe    c23 7798   0.821   6.880   0.354  0.5654  0.5969 -0.1923
 1730poe     o2 7799   0.767   6.971   0.447 -0.3684 -0.1237 -0.0166
 1730poe    c31 7800   0.864   7.012   0.541 -0.5073 -0.0021  0.0750
 1731poe    c31 7801   4.661   4.808   4.672  0.1618 -0.7634 -0.0696
 1731poe     o2 7802   4.614   4.726   4.567 -0.0604 -0.6089 -0.0935
 1731poe    c23 7803   4.490   4.777   4.524  0.1621  0.1354  0.1397
 1731poe    c23 7804   4.423   4.723   4.396  0.4254 -0.0123  0.0623
 1731poe     o2 7805   4.380   4.596   4.438  0.5323 -0.0300  0.1194
 1731poe    c23 7806   4.356   4.514   4.325  0.4297 -0.3963  0.4034
 1731poe    c23 7807   4.204   4.498   4.304  0.3963  0.0566  0.2804
 1731poe     o2 7808   4.130   4.617   4.289  0.0148 -0.1680  0.3760
 1731poe    c23 7809   4.134   4.683   4.165 -0.7550  0.0287  0.4514
 1731poe    c23 7810   4.019   4.782   4.141 -0.0499  0.5802 -0.7583
 1731poe     o2 7811   3.903   4.738   4.073 -0.1268  0.1632 -0.3638
 1731poe    c31 7812   3.920   4.718   3.934  0.0479  0.2523 -0.3565
 1732poe    c31 7813   2.856   6.536   5.549  0.1793 -0.1150  0.3118
 1732poe     o2 7814   2.885   6.480   5.675  0.3891  0.3235  0.4632
 1732poe    c23 7815   2.789   6.483   5.778 -0.4074 -0.8893 -0.2133
 1732poe    c23 7816   2.872   6.464   5.907 -0.8979 -0.5796  0.1503
 1732poe     o2 7817   2.971   6.364   5.894 -0.2237  0.1901 -0.7772
 1732poe    c23 7818   3.015   6.304   6.014 -0.6488 -0.0873 -0.7606
 1732poe    c23 7819   3.049   6.163   5.964 -0.0354 -0.0608 -0.4196
 1732poe     o2 7820   3.136   6.151   5.853 -0.2576  0.1240 -0.6123
 1732poe    c23 7821   3.264   6.132   5.907 -0.4663 -0.4518 -0.3147
 1732poe    c23 7822   3.366   6.127   5.792 -0.5022  0.4028 -0.3870
 1732poe     o2 7823   3.405   6.257   5.751  0.4334  0.0951 -0.4924
 1732poe    c31 7824   3.517   6.249   5.665  0.4532 -0.2092 -0.4398
 1733poe    c31 7825   1.169   4.719   2.308 -0.0235  0.6655 -0.0607
 1733poe     o2 7826   1.115   4.714   2.178  0.2977  0.2522 -0.1820
 1733poe    c23 7827   1.107   4.577   2.147 -0.0231  0.2162  0.0546
 1733poe    c23 7828   1.022   4.565   2.019 -0.5801 -0.0512  0.4468
 1733poe     o2 7829   0.881   4.580   2.020 -0.5062  0.8374 -0.3423
 1733poe    c23 7830   0.825   4.592   1.892 -0.0580 -0.5295 -0.6857
 1733poe    c23 7831   0.675   4.611   1.919  0.1120  0.1963 -0.2290
 1733poe     o2 7832   0.636   4.677   2.038  0.4946  0.2131 -0.1110
 1733poe    c23 7833   0.499   4.663   2.067  0.4639  0.5143 -0.1025
 1733poe    c23 7834   0.459   4.692   2.213  0.3050  0.5770 -0.1592
 1733poe     o2 7835   0.505   4.604   2.312  0.1694  0.2841 -0.3572
 1733poe    c31 7836   0.430   4.628   2.430 -0.2562 -0.3368 -0.4907
 1734poe    c31 7837   1.717   4.230   1.871 -0.1209 -0.8350  0.0641
 1734poe     o2 7838   1.686   4.304   1.755  0.4568  0.0372  0.4539
 1734poe    c23 7839   1.787   4.398   1.728  0.3687 -0.0745 -0.2682
 1734poe    c23 7840   1.739   4.503   1.626 -0.0526  0.1200  0.1278
 1734poe     o2 7841   1.657   4.605   1.680 -0.4200  0.1100 -0.4067
 1734poe    c23 7842   1.625   4.681   1.565  0.1763  0.8900 -0.0645
 1734poe    c23 7843   1.509   4.778   1.594 -0.6011 -0.1052  0.2239
 1734poe     o2 7844   1.551   4.883   1.678  0.6907 -0.1563 -0.3330
 1734poe    c23 7845   1.485   5.005   1.650 -0.3498 -0.4363  0.8072
 1734poe    c23 7846   1.553   5.095   1.755 -0.0821  0.3639 -0.0388
 1734poe     o2 7847   1.538   5.035   1.882  0.3135 -0.1475 -0.2285
 1734poe    c31 7848   1.648   5.082   1.956  0.1978 -0.5395  0.1960
 1735poe    c31 7849   3.443   6.313   6.279 -0.3683 -0.0624 -0.1937
 1735poe     o2 7850   3.532   6.315   6.169 -0.3870  0.3790 -0.2004
 1735poe    c23 7851   3.618   6.204   6.159 -0.0555  0.6506 -0.3966
 1735poe    c23 7852   3.681   6.159   6.026  0.1567 -0.1152 -0.0423
 1735poe     o2 7853   3.777   6.250   5.977  0.4926 -0.4909 -0.0882
 1735poe    c23 7854   3.843   6.189   5.869 -0.0445 -0.4371 -0.4514
 1735poe    c23 7855   3.931   6.285   5.787 -0.3999 -0.1374 -0.4861
 1735poe     o2 7856   4.057   6.318   5.841 -0.4046 -0.3708 -0.3355
 1735poe    c23 7857   4.153   6.360   5.747 -0.3913  0.2902 -0.0303
 1735poe    c23 7858   4.289   6.363   5.820 -0.0396 -0.3290 -0.6538
 1735poe     o2 7859   4.391   6.368   5.722  0.1110 -0.0321 -0.4823
 1735poe    c31 7860   4.512   6.353   5.793  0.2896  0.2199 -0.7275
 1736poe    c31 7861   5.796   6.327   5.065  0.2288  0.0955  0.2827
 1736poe     o2 7862   5.910   6.385   5.006  0.3277 -0.2464  0.1362
 1736poe    c23 7863   5.894   6.398   4.866  0.1852  0.4335  0.2115
 1736poe    c23 7864   6.034   6.420   4.807  0.3441 -0.1107  0.3753
 1736poe     o2 7865   6.117   6.500   4.888  0.3887  0.1425  0.0822
 1736poe    c23 7866   6.248   6.499   4.836  0.3104 -0.2136 -0.1130
 1736poe    c23 7867   6.346   6.573   4.929  0.3491 -0.0151 -0.3085
 1736poe     o2 7868   6.357   6.500   5.050  0.1728 -0.0446 -0.3090
 1736poe    c23 7869   6.407   6.581   5.155  0.1665  0.2852 -0.5561
 1736poe    c23 7870   6.430   6.489   5.277  0.2035  0.9502 -0.0580
 1736poe     o2 7871   6.318   6.407   5.303  0.2911  0.7298 -0.3651
 1736poe    c31 7872   6.282   6.393   5.439  0.0451 -0.3248 -0.5317
 1737poe    c31 7873   3.263   2.138   4.670 -0.1739 -0.5979  0.3618
 1737poe     o2 7874   3.183   2.249   4.636  0.4176 -0.3704 -0.3165
 1737poe    c23 7875   3.056   2.206   4.593 -0.0077  0.2879  0.2614
 1737poe    c23 7876   2.982   2.326   4.530 -0.3912 -0.0871 -0.0084
 1737poe     o2 7877   3.009   2.434   4.617 -0.1870 -0.1730  0.0360
 1737poe    c23 7878   2.904   2.527   4.619  0.2508  0.3508 -0.9287
 1737poe    c23 7879   2.944   2.661   4.685  0.7058 -0.1713 -0.1391
 1737poe     o2 7880   2.957   2.634   4.823 -0.3189  0.0015 -0.0020
 1737poe    c23 7881   2.980   2.759   4.882  0.1897  0.0463 -0.2887
 1737poe    c23 7882   2.967   2.742   5.035  0.9047  1.0578 -0.1026
 1737poe     o2 7883   3.061   2.641   5.063  0.1270  0.2877 -0.2206
 1737poe    c31 7884   3.039   2.595   5.195  0.0079 -0.2258 -0.4195
 1738poe    c31 7885   0.053   6.402   5.898  0.0947 -0.1732 -0.2127
 1738poe     o2 7886   0.147   6.507   5.910  0.0575 -0.2134  0.4525
 1738poe    c23 7887   0.108   6.625   5.844  0.2530 -0.3134  0.1554
 1738poe    c23 7888   0.216   6.733   5.866  0.2753 -0.3549  0.2540
 1738poe     o2 7889   0.339   6.686   5.814  0.4410  0.1897  0.1460
 1738poe    c23 7890   0.447   6.758   5.868  0.6543  0.1732 -0.2562
 1738poe    c23 7891   0.572   6.750   5.778  0.0731 -0.2717 -1.0296
 1738poe     o2 7892   0.599   6.614   5.754 -0.3867 -0.5301 -0.1248
 1738poe    c23 7893   0.701   6.592   5.659 -0.1841 -0.0168 -0.0280
 1738poe    c23 7894   0.711   6.440   5.637  0.3735 -0.0192  0.1962
 1738poe     o2 7895   0.575   6.401   5.643  0.3551 -0.1247 -0.7534
 1738poe    c31 7896   0.567   6.261   5.640 -0.0383 -0.1226  0.1371
 1739poe    c31 7897   7.003   3.209   0.350 -1.1416  0.1444  0.3112
 1739poe     o2 7898   7.039   3.335   0.299  0.2577 -0.4359 -0.1949
 1739poe    c23 7899   7.169   3.327   0.246  0.3996 -0.2341  0.1189
 1739poe    c23 7900   7.193   3.448   0.154 -0.3232  0.1148  0.3839
 1739poe     o2 7901   7.116   3.453   0.036  0.7417  0.2392 -0.3202
 1739poe    c23 7902   7.192   3.426  -0.080  0.3224 -0.4007 -0.4506
 1739poe    c23 7903   7.237   3.556  -0.150  0.2017 -0.2087 -0.1767
 1739poe     o2 7904   7.131   3.608  -0.227  0.2252  0.0455 -0.0377
 1739poe    c23 7905   7.159   3.702  -0.328 -0.3247  0.0898 -0.1514
 1739poe    c23 7906   7.210   3.843  -0.292  0.0366  0.0750 -0.5948
 1739poe     o2 7907   7.349   3.858  -0.272 -0.0997 -0.0027  0.4594
 1739poe    c31 7908   7.369   3.985  -0.215  0.5515  0.0110  0.2069
 1740poe    c31 7909   6.342   0.888   7.048  0.5858 -0.8776 -0.4513
 1740poe     o2 7910   6.363   0.848   6.914 -0.1431 -0.1754 -0.7856
 1740poe    c23 7911   6.453   0.933   6.848  0.0593  0.2400  0.0122
 1740poe    c23 7912   6.477   0.877   6.706 -0.4761  0.0406  0.0023
 1740poe     o2 7913   6.350   0.834   6.662 -0.2969  0.3599 -0.8309
 1740poe    c23 7914   6.332   0.779   6.533  0.2502  0.3907 -0.9208
 1740poe    c23 7915   6.187   0.736   6.509  0.2528  0.0938 -0.4158
 1740poe     o2 7916   6.143   0.648   6.610 -0.3217  0.4227 -0.3751
 1740poe    c23 7917   6.034   0.563   6.581  0.1371 -0.2011 -0.2708
 1740poe    c23 7918   6.032   0.442   6.677  0.7284  0.0339  0.0480
 1740poe     o2 7919   5.970   0.342   6.598  0.5620  0.1263  0.0609
 1740poe    c31 7920   5.904   0.245   6.677 -0.1718  0.6107  0.0507
 1741poe    c31 7921   0.630   5.808   1.792 -0.3377 -0.3185 -0.3502
 1741poe     o2 7922   0.630   5.689   1.718  0.1121 -0.6917  0.2399
 1741poe    c23 7923   0.553   5.596   1.790 -0.1694 -0.3217  0.4167
 1741poe    c23 7924   0.550   5.471   1.700 -0.0643  0.1561 -0.2601
 1741poe     o2 7925   0.680   5.419   1.680 -0.2514 -0.4252 -0.0123
 1741poe    c23 7926   0.687   5.353   1.556 -0.1806 -0.8638  0.2227
 1741poe    c23 7927   0.826   5.313   1.503  0.3569  0.5720  0.4912
 1741poe     o2 7928   0.893   5.417   1.436  0.1895 -0.3817 -1.2198
 1741poe    c23 7929   1.032   5.428   1.453 -0.0209  0.0055  0.3906
 1741poe    c23 7930   1.090   5.550   1.378 -0.1823  0.0205  0.2903
 1741poe     o2 7931   1.109   5.524   1.241 -0.1691  0.1557  0.2659
 1741poe    c31 7932   1.193   5.624   1.189 -0.9952  0.1581 -1.1144
 1742poe    c31 7933   6.951   4.670   5.166 -0.4836  0.2944 -0.1803
 1742poe     o2 7934   6.975   4.545   5.227 -0.0382  0.3562 -0.2299
 1742poe    c23 7935   6.842   4.504   5.247 -0.1333  0.3803 -0.8044
 1742poe    c23 7936   6.851   4.360   5.300  0.3643  0.4648 -0.6520
 1742poe     o2 7937   6.960   4.353   5.389 -0.3365  0.1344  0.2054
 1742poe    c23 7938   6.986   4.225   5.441  0.2638  0.0331 -0.3209
 1742poe    c23 7939   7.068   4.239   5.571 -0.7494 -0.3006  0.3755
 1742poe     o2 7940   7.193   4.294   5.536 -0.4959 -0.7373  0.5869
 1742poe    c23 7941   7.273   4.338   5.645  0.1710  0.0430 -0.1950
 1742poe    c23 7942   7.385   4.436   5.608  0.3568 -0.5267 -1.1932
 1742poe     o2 7943   7.342   4.563   5.562  0.0748 -0.1486  0.0600
 1742poe    c31 7944   7.458   4.623   5.508 -0.2668 -0.0734 -0.6007
 1743poe    c31 7945   3.880   6.237   1.600  0.3820  0.5742  0.0105
 1743poe     o2 7946   3.817   6.165   1.496 -0.1426  0.0357  0.6916
 1743poe    c23 7947   3.700   6.229   1.450  0.2371  0.0090 -0.3432
 1743poe    c23 7948   3.623   6.144   1.347  0.2153 -0.1337 -0.2092
 1743poe     o2 7949   3.688   6.128   1.223  0.0935  0.3705 -0.3394
 1743poe    c23 7950   3.613   6.038   1.145 -0.0701  0.3343 -0.1403
 1743poe    c23 7951   3.701   5.997   1.025 -0.0008 -0.4324  0.1669
 1743poe     o2 7952   3.831   5.976   1.076  0.3538  0.4723 -0.3332
 1743poe    c23 7953   3.909   5.907   0.981 -0.0800 -0.1990 -0.2060
 1743poe    c23 7954   4.056   5.915   1.024  0.0292  0.1877 -0.6498
 1743poe     o2 7955   4.093   6.049   1.048 -0.4056  0.3086 -0.6483
 1743poe    c31 7956   4.232   6.069   1.058 -0.3123 -0.4930 -0.3290
 1744poe    c31 7957   3.076   1.073   2.579 -0.3743 -0.4590 -0.1858
 1744poe     o2 7958   3.104   1.013   2.455  0.1559  0.1066 -0.3429
 1744poe    c23 7959   3.193   0.909   2.491 -0.3863 -0.2835 -0.1108
 1744poe    c23 7960   3.239   0.838   2.362  0.1680  0.2578 -0.2193
 1744poe     o2 7961   3.355   0.763   2.387  0.1599  0.4938  0.5537
 1744poe    c23 7962   3.324   0.625   2.384 -0.7650  0.6912  0.6772
 1744poe    c23 7963   3.419   0.562   2.487  0.1018  0.2680 -0.3602
 1744poe     o2 7964   3.552   0.610   2.480  0.2897 -0.2072 -0.1385
 1744poe    c23 7965   3.652   0.538   2.548  0.0661 -0.1263  0.2766
 1744poe    c23 7966   3.779   0.622   2.575  0.2734 -0.3154 -0.1097
 1744poe     o2 7967   3.844   0.652   2.453 -0.2599 -0.0446 -0.3325
 1744poe    c31 7968   3.947   0.747   2.470 -0.6311  0.3801 -0.4000
 1745poe    c31 7969   5.998   6.027   6.809 -0.1194 -0.2202  0.0563
 1745poe     o2 7970   6.084   6.089   6.715  0.1942 -0.4334  0.2021
 1745poe    c23 7971   6.063   6.034   6.587  0.4954  0.2029 -0.1224
 1745poe    c23 7972   6.138   6.114   6.479 -0.3697  0.2386 -0.7109
 1745poe     o2 7973   6.087   6.242   6.447 -0.5158  0.4892  0.4580
 1745poe    c23 7974   5.994   6.245   6.341  0.0803 -0.0361 -0.0868
 1745poe    c23 7975   5.928   6.383   6.350  0.1536  0.0062 -0.1859
 1745poe     o2 7976   6.034   6.467   6.390  0.0572 -0.0384  0.1711
 1745poe    c23 7977   6.031   6.602   6.349 -0.5080  0.0253  0.4176
 1745poe    c23 7978   6.140   6.674   6.431  0.0050 -0.7448  0.4206
 1745poe     o2 7979   6.264   6.609   6.446  0.2810 -0.4134 -0.4113
 1745poe    c31 7980   6.346   6.640   6.557  0.3016 -0.0100 -0.5373
 1746poe    c31 7981   2.024   2.432   0.891  0.2419  0.5548  0.0832
 1746poe     o2 7982   2.129   2.409   0.982  0.2585 -0.2789 -0.1366
 1746poe    c23 7983   2.123   2.277   1.030 -0.1874 -0.2902 -0.2215
 1746poe    c23 7984   2.238   2.255   1.130 -0.3309 -0.4083 -0.0809
 1746poe     o2 7985   2.359   2.309   1.081 -0.3248 -0.1232  0.2469
 1746poe    c23 7986   2.439   2.338   1.194  0.1469 -0.0681 -0.0997
 1746poe    c23 7987   2.587   2.340   1.149  0.2233 -0.2486  0.1460
 1746poe     o2 7988   2.599   2.439   1.050  0.0209  0.2009  0.5675
 1746poe    c23 7989   2.719   2.419   0.979 -0.3671 -0.2368  0.0268
 1746poe    c23 7990   2.758   2.523   0.872  0.2315 -0.2446  0.2307
 1746poe     o2 7991   2.667   2.548   0.767  0.5584 -0.0143 -0.0022
 1746poe    c31 7992   2.711   2.639   0.670  0.4240 -0.5057 -0.5309
 1747poe    c31 7993   0.953   3.220   5.569  0.5204 -0.4465  0.4131
 1747poe     o2 7994   0.946   3.261   5.704  0.3738  0.0827  0.2466
 1747poe    c23 7995   1.069   3.295   5.762  0.2389  0.3269  0.3900
 1747poe    c23 7996   1.058   3.302   5.915 -0.1639 -0.1853  0.3852
 1747poe     o2 7997   0.981   3.409   5.965 -0.1680  0.0680 -0.1596
 1747poe    c23 7998   0.992   3.404   6.106 -0.7084  0.1265 -0.1135
 1747poe    c23 7999   0.885   3.493   6.171 -0.3726  0.1848  0.3625
 1747poe     o2 8000   0.765   3.434   6.124 -0.0932 -0.5113  0.5224
 1747poe    c23 8001   0.661   3.508   6.183  0.0799  0.1284  0.0372
 1747poe    c23 8002   0.527   3.462   6.123  0.0221  0.3442  0.0005
 1747poe     o2 8003   0.554   3.440   5.987  0.0815 -0.0528  0.0755
 1747poe    c31 8004   0.437   3.402   5.919 -0.6350  0.3554  1.0715
 1748poe    c31 8005   3.622   6.623   6.292 -0.4354 -0.6909 -0.1133
 1748poe     o2 8006   3.668   6.612   6.159 -0.0986  0.0659 -0.0650
 1748poe    c23 8007   3.558   6.624   6.070 -0.0834  0.0778 -0.0825
 1748poe    c23 8008   3.595   6.593   5.924 -0.4036  0.4295 -0.2396
 1748poe     o2 8009   3.701   6.681   5.897  0.2220 -0.0244  0.6663
 1748poe    c23 8010   3.744   6.671   5.763 -0.5528  0.0573  0.4044
 1748poe    c23 8011   3.868   6.759   5.738 -0.3459 -0.1977  0.5256
 1748poe     o2 8012   3.851   6.897   5.713 -0.2452 -0.3372 -0.3471
 1748poe    c23 8013   3.972   6.969   5.704 -0.3799 -0.0743 -0.0950
 1748poe    c23 8014   3.946   7.106   5.639  0.8242  0.2957  0.1963
 1748poe     o2 8015   3.875   7.194   5.724  0.0909 -0.2554  0.1599
 1748poe    c31 8016   3.834   7.311   5.657  0.0475 -0.0734  0.5065
 1749poe    c31 8017   2.258   2.709   0.630  0.5757 -0.0926 -0.0270
 1749poe     o2 8018   2.358   2.765   0.711 -0.0829  0.0378  0.7143
 1749poe    c23 8019   2.303   2.864   0.796 -0.3464 -0.1435  0.7555
 1749poe    c23 8020   2.411   2.917   0.892 -0.2563  0.3268  0.3969
 1749poe     o2 8021   2.462   2.828   0.988 -0.4768  0.2479  0.4416
 1749poe    c23 8022   2.546   2.886   1.085  0.3510 -0.2116  0.0119
 1749poe    c23 8023   2.688   2.910   1.029  0.1716 -0.0159 -0.3634
 1749poe     o2 8024   2.775   2.799   1.021 -0.2797 -0.3857 -0.1882
 1749poe    c23 8025   2.880   2.849   0.941 -0.3827  0.0002 -0.0847
 1749poe    c23 8026   3.010   2.770   0.963 -0.5601 -0.2542  0.0704
 1749poe     o2 8027   3.030   2.658   0.879  0.2279  0.0198 -0.1231
 1749poe    c31 8028   3.137   2.581   0.929  0.1183 -0.2409 -0.2906
 1750poe    c31 8029   4.262   6.151   3.224 -0.0313 -0.0523 -0.2531
 1750poe     o2 8030   4.306   6.022   3.263 -0.9307 -0.2158  0.2350
 1750poe    c23 8031   4.237   5.936   3.175  0.3873 -0.4926 -0.5434
 1750poe    c23 8032   4.269   5.802   3.245 -0.3910 -0.6784 -0.5346
 1750poe     o2 8033   4.405   5.802   3.284 -0.5182 -0.0766 -0.0748
 1750poe    c23 8034   4.458   5.677   3.322 -0.0446  0.3229  0.5927
 1750poe    c23 8035   4.611   5.694   3.333  0.1363 -0.6681 -0.2268
 1750poe     o2 8036   4.637   5.813   3.405  0.2938 -0.3115 -0.8697
 1750poe    c23 8037   4.773   5.799   3.439 -0.0319 -0.5138  0.3708
 1750poe    c23 8038   4.843   5.920   3.502  0.4536 -0.6389  0.0807
 1750poe     o2 8039   4.864   6.033   3.421  0.1757 -0.5107  0.1866
 1750poe    c31 8040   4.998   6.075   3.424  0.1977 -0.5891  0.3205
 1751poe    c31 8041   4.666   2.191   2.167  0.1775  1.0037 -0.1289
 1751poe     o2 8042   4.662   2.157   2.030  0.2798 -0.2249  0.1648
 1751poe    c23 8043   4.533   2.155   1.973  0.5305  0.4821 -0.4239
 1751poe    c23 8044   4.508   2.028   1.891  0.3651  0.2343  0.0083
 1751poe     o2 8045   4.573   2.023   1.766 -0.1995  0.2371 -0.2882
 1751poe    c23 8046   4.522   1.927   1.676 -0.4869  0.2393 -0.1272
 1751poe    c23 8047   4.535   1.973   1.529  0.1279 -0.3794 -0.2713
 1751poe     o2 8048   4.672   1.976   1.497  0.0945 -0.5813 -0.4336
 1751poe    c23 8049   4.699   1.880   1.398 -0.1077 -1.0582 -0.0268
 1751poe    c23 8050   4.853   1.873   1.392 -0.0297  0.1073  0.5207
 1751poe     o2 8051   4.914   1.998   1.419  0.0585  0.2963 -0.4992
 1751poe    c31 8052   5.054   1.988   1.432  0.0517  0.5469 -0.2185
 1752poe    c31 8053   6.463   3.045   6.422  0.5731  0.1418  0.9309
 1752poe     o2 8054   6.374   2.979   6.510 -0.0562 -0.1964  0.0603
 1752poe    c23 8055   6.394   3.026   6.641 -0.1168  0.1229 -0.0423
 1752poe    c23 8056   6.283   2.975   6.735 -0.0797  0.0010 -0.0631
 1752poe     o2 8057   6.150   2.983   6.689 -0.2338 -0.2280  0.3339
 1752poe    c23 8058   6.076   2.876   6.744 -0.6661  0.0348  0.2670
 1752poe    c23 8059   5.940   2.946   6.765 -0.5985  0.2667 -0.0484
 1752poe     o2 8060   5.909   3.023   6.651 -0.7131  0.3085  0.0118
 1752poe    c23 8061   5.771   3.051   6.659 -1.0134 -0.9708 -0.4172
 1752poe    c23 8062   5.719   3.123   6.533  0.2556 -0.1658 -0.4914
 1752poe     o2 8063   5.789   3.242   6.504  0.3182  0.1016  0.7328
 1752poe    c31 8064   5.718   3.319   6.410  0.2344 -0.1628  0.5818
 1753poe    c31 8065   5.529   4.057   0.432  0.1743 -0.0838 -0.6684
 1753poe     o2 8066   5.612   4.170   0.453 -0.3647  0.1594  0.1784
 1753poe    c23 8067   5.651   4.222   0.328 -0.4396  0.1511  0.1512
 1753poe    c23 8068   5.654   4.375   0.316  0.1892  0.1515  0.2691
 1753poe     o2 8069   5.727   4.439   0.419 -0.1392  0.2268  0.4534
 1753poe    c23 8070   5.717   4.579   0.405 -0.2478  0.1799  0.0499
 1753poe    c23 8071   5.724   4.650   0.541  0.7396  0.4550 -0.1348
 1753poe     o2 8072   5.837   4.593   0.604  0.2680 -0.2945  0.0521
 1753poe    c23 8073   5.861   4.650   0.731 -0.7735  0.4251 -0.0627
 1753poe    c23 8074   5.943   4.550   0.815 -0.8370  0.4394  0.0164
 1753poe     o2 8075   5.871   4.431   0.793 -0.1800  0.0366  0.0129
 1753poe    c31 8076   5.921   4.342   0.891  0.3126  0.2993 -0.0004
 1754poe    c31 8077   0.313   2.577   0.863 -1.2337 -0.3520  0.4189
 1754poe     o2 8078   0.356   2.602   0.995 -0.0444 -0.0592 -0.0080
 1754poe    c23 8079   0.380   2.475   1.052 -0.4152 -0.2280 -0.2215
 1754poe    c23 8080   0.364   2.445   1.202  0.7758  0.1060 -0.0167
 1754poe     o2 8081   0.444   2.523   1.289 -0.1052  0.8158  0.1700
 1754poe    c23 8082   0.414   2.497   1.424 -0.3961 -0.2525 -0.0874
 1754poe    c23 8083   0.537   2.556   1.495 -0.0516 -0.2408 -0.6885
 1754poe     o2 8084   0.511   2.695   1.487  0.1858 -0.1406  0.2283
 1754poe    c23 8085   0.631   2.765   1.513  0.1467 -0.0185  0.0732
 1754poe    c23 8086   0.587   2.913   1.518  0.2905  0.0305 -0.1149
 1754poe     o2 8087   0.559   2.972   1.393 -0.0315  0.3906  0.1269
 1754poe    c31 8088   0.519   3.103   1.428 -0.1743  0.2910  0.3431
 1755poe    c31 8089   3.897   3.330   1.644 -0.0336 -0.3212  0.1730
 1755poe     o2 8090   3.947   3.207   1.596 -0.1270 -0.2220 -0.1827
 1755poe    c23 8091   4.028   3.155   1.699 -0.3500 -0.1053  0.0544
 1755poe    c23 8092   4.053   3.005   1.672  0.2475  0.0495 -0.2722
 1755poe     o2 8093   4.059   2.995   1.532 -0.1188  0.5255 -0.3248
 1755poe    c23 8094   4.093   2.863   1.497  0.4081  0.6502 -0.2879
 1755poe    c23 8095   4.095   2.845   1.344  0.1921  0.5375 -0.2770
 1755poe     o2 8096   3.971   2.892   1.296 -0.0750  0.2288  0.1010
 1755poe    c23 8097   3.935   2.859   1.164 -0.2158  0.1134  0.1678
 1755poe    c23 8098   4.033   2.908   1.056  0.1924  0.2305  0.5850
 1755poe     o2 8099   4.020   3.048   1.057  0.1716  0.2382 -0.0705
 1755poe    c31 8100   4.092   3.109   0.952  0.3058 -0.1316 -0.1925
 1756poe    c31 8101   3.631   4.986   5.309  0.7418  0.0563 -0.1712
 1756poe     o2 8102   3.590   5.116   5.273 -0.4024 -0.2380  0.0280
 1756poe    c23 8103   3.471   5.101   5.199 -0.7005  0.0131  0.4570
 1756poe    c23 8104   3.441   5.230   5.121 -0.1504 -0.0166  0.1944
 1756poe     o2 8105   3.434   5.335   5.216 -0.3000  0.2743 -0.1338
 1756poe    c23 8106   3.453   5.459   5.152  0.3787  0.3132  0.1357
 1756poe    c23 8107   3.419   5.577   5.245  0.1107  0.5664 -0.2846
 1756poe     o2 8108   3.520   5.581   5.343  0.0433 -0.1248 -0.1815
 1756poe    c23 8109   3.528   5.702   5.414  0.8627  0.0186 -0.5046
 1756poe    c23 8110   3.612   5.689   5.542  0.2566 -0.4029 -0.1464
 1756poe     o2 8111   3.557   5.578   5.609 -0.5382 -0.1114 -0.3004
 1756poe    c31 8112   3.608   5.563   5.739 -0.8373 -0.2324 -0.1966
 1757poe    c31 8113   4.210   2.865   5.710  0.0988  0.4120  0.1660
 1757poe     o2 8114   4.184   2.990   5.770  0.3786  0.2834  0.5581
 1757poe    c23 8115   4.185   3.100   5.682  0.3053 -0.2970 -0.1790
 1757poe    c23 8116   4.100   3.207   5.752  0.0300 -0.4696 -0.2479
 1757poe     o2 8117   4.113   3.189   5.892 -0.3824 -0.3188 -0.1887
 1757poe    c23 8118   4.041   3.277   5.975 -0.0013 -0.2890  0.1123
 1757poe    c23 8119   4.094   3.298   6.118 -0.0763  0.2473  0.0636
 1757poe     o2 8120   4.115   3.176   6.184 -0.2623  0.2921  0.2045
 1757poe    c23 8121   4.168   3.195   6.313  0.4007 -0.1031 -0.0046
 1757poe    c23 8122   4.209   3.058   6.370  0.0373 -0.3964 -0.4429
 1757poe     o2 8123   4.313   3.000   6.294  0.1681 -0.3584 -0.2937
 1757poe    c31 8124   4.346   2.878   6.358 -0.0309 -0.2355  0.0465
 1758poe    c31 8125   1.055   1.367   1.582  0.2777  0.3292 -0.0915
 1758poe     o2 8126   1.030   1.449   1.469  0.2883 -0.0847 -0.3956
 1758poe    c23 8127   1.060   1.384   1.348  0.3846 -0.5293 -0.1375
 1758poe    c23 8128   1.024   1.483   1.236  0.1723  0.0581  0.4464
 1758poe     o2 8129   1.074   1.611   1.268 -0.1636  0.3750 -0.2623
 1758poe    c23 8130   1.172   1.651   1.174  0.1539 -0.2106 -0.1915
 1758poe    c23 8131   1.239   1.780   1.224  0.4885 -0.3585 -0.2578
 1758poe     o2 8132   1.263   1.766   1.362  0.4490 -0.0351 -0.2163
 1758poe    c23 8133   1.322   1.887   1.403 -0.5621  0.2564  0.4156
 1758poe    c23 8134   1.347   1.902   1.554  0.4148  0.6713  0.2185
 1758poe     o2 8135   1.223   1.902   1.621  0.1972  1.0698 -0.1815
 1758poe    c31 8136   1.202   1.994   1.726  0.1248 -0.0947  0.8475
 1759poe    c31 8137   3.949   5.720   3.045 -0.5958 -0.1266  0.9146
 1759poe     o2 8138   3.891   5.840   2.999  0.8779  0.1891 -0.2185
 1759poe    c23 8139   3.772   5.802   2.934  0.4911 -0.0124  0.5913
 1759poe    c23 8140   3.672   5.919   2.939  0.4881 -0.0007  0.2974
 1759poe     o2 8141   3.743   6.034   2.902  0.2890  0.1103  0.2561
 1759poe    c23 8142   3.668   6.151   2.924 -0.0941 -0.0967  0.0584
 1759poe    c23 8143   3.746   6.274   2.874 -0.0904 -0.1230 -0.0019
 1759poe     o2 8144   3.848   6.292   2.969 -0.0475 -0.0141 -0.0682
 1759poe    c23 8145   3.926   6.409   2.964 -0.2766  0.1456  0.0690
 1759poe    c23 8146   4.026   6.429   2.848 -0.1602 -0.4256  0.0676
 1759poe     o2 8147   4.131   6.335   2.853  0.1044 -0.1878 -0.8020
 1759poe    c31 8148   4.253   6.391   2.811  0.0515  0.1998 -0.4484
 1760poe    c31 8149   4.927   6.456   4.987 -0.6194  0.3640  0.7198
 1760poe     o2 8150   4.886   6.532   4.876  0.5387 -0.5059 -0.3459
 1760poe    c23 8151   4.977   6.639   4.865  0.0231  0.0209  0.4133
 1760poe    c23 8152   4.955   6.725   4.739 -0.5562 -0.2255  0.3429
 1760poe     o2 8153   4.992   6.638   4.635 -0.7724 -0.0223  0.0936
 1760poe    c23 8154   4.991   6.692   4.504  0.2216  0.3976  0.2465
 1760poe    c23 8155   4.973   6.569   4.414 -0.4944  0.0739  0.8218
 1760poe     o2 8156   4.850   6.502   4.394 -0.3825 -0.0557  0.5653
 1760poe    c23 8157   4.864   6.391   4.309  0.2059  0.1503  0.3889
 1760poe    c23 8158   4.722   6.355   4.262  0.2190  0.5956  0.0026
 1760poe     o2 8159   4.656   6.351   4.386  0.2023  0.5329 -0.0082
 1760poe    c31 8160   4.538   6.275   4.375  0.4905  0.0428  0.2571
 1761poe    c31 8161   2.655   1.439   6.533 -0.0026  1.1715  0.3038
 1761poe     o2 8162   2.726   1.520   6.441  0.5802 -0.1136 -0.4058
 1761poe    c23 8163   2.669   1.649   6.447 -0.0129 -0.3690 -0.3824
 1761poe    c23 8164   2.730   1.745   6.343 -0.1011  0.0526 -0.0444
 1761poe     o2 8165   2.870   1.752   6.359 -0.0871 -0.1615 -0.0765
 1761poe    c23 8166   2.911   1.876   6.307  0.1654  0.1282  0.8034
 1761poe    c23 8167   3.062   1.863   6.278 -0.0088 -0.0891 -0.0143
 1761poe     o2 8168   3.144   1.830   6.387  0.0253 -0.4743 -0.1545
 1761poe    c23 8169   3.279   1.798   6.363  0.1937 -0.1250  0.2944
 1761poe    c23 8170   3.355   1.800   6.496 -0.1923  0.2359  0.5098
 1761poe     o2 8171   3.286   1.707   6.577 -0.2037 -0.0396  0.1853
 1761poe    c31 8172   3.373   1.647   6.671 -0.4543 -0.4853  0.1326
 1762poe    c31 8173   1.245   6.789   1.497 -0.3755 -0.1187  0.4818
 1762poe     o2 8174   1.119   6.845   1.466 -0.0321  0.3888 -0.0244
 1762poe    c23 8175   1.065   6.911   1.578  0.1451  0.4615  0.0183
 1762poe    c23 8176   0.918   6.943   1.544  0.0809  0.2500  0.0989
 1762poe     o2 8177   0.903   7.077   1.503  0.1140  0.2476  0.0778
 1762poe    c23 8178   0.941   7.102   1.370  0.8123 -0.6431  0.0983
 1762poe    c23 8179   0.977   7.246   1.328 -0.5361 -0.4274 -0.3731
 1762poe     o2 8180   0.867   7.334   1.337 -0.2930 -0.1477 -0.1230
 1762poe    c23 8181   0.875   7.414   1.221  0.2354 -0.0787 -0.0421
 1762poe    c23 8182   0.779   7.535   1.216  0.3927  0.0456 -0.0653
 1762poe     o2 8183   0.803   7.625   1.322 -0.4172 -0.3763  0.4869
 1762poe    c31 8184   0.712   7.733   1.313  0.4216  0.2526 -0.7317
 1763poe    c31 8185   6.467   4.508   6.944 -0.1944  1.4141  0.4915
 1763poe     o2 8186   6.581   4.570   7.000  0.5244  0.4047  0.1794
 1763poe    c23 8187   6.687   4.478   7.003  0.3755  0.2312  0.1631
 1763poe    c23 8188   6.814   4.540   7.064  0.1033  0.0734  0.9149
 1763poe     o2 8189   6.864   4.648   6.987 -0.0271  0.0495  0.7973
 1763poe    c23 8190   6.992   4.685   7.033  0.3523  0.1973 -0.3289
 1763poe    c23 8191   7.028   4.830   6.998 -0.1441  0.4110  0.0306
 1763poe     o2 8192   6.980   4.852   6.867 -0.5839 -0.1420  0.0944
 1763poe    c23 8193   7.014   4.977   6.811 -0.0985 -0.4241 -0.2639
 1763poe    c23 8194   6.949   4.974   6.672 -0.1639 -0.1015 -0.2416
 1763poe     o2 8195   6.815   4.949   6.709 -0.0872  0.5013  0.4620
 1763poe    c31 8196   6.723   5.026   6.636 -0.3408 -0.3269 -0.1128
 1764poe    c31 8197   1.175   3.619   5.569 -0.0020  0.0071 -0.2421
 1764poe     o2 8198   1.047   3.676   5.586 -0.0288 -0.2013  0.2740
 1764poe    c23 8199   0.998   3.705   5.457 -0.2176 -0.2206  0.3421
 1764poe    c23 8200   0.846   3.725   5.439 -0.1405  0.0145 -0.0788
 1764poe     o2 8201   0.804   3.846   5.498 -0.2902 -0.1026  0.0572
 1764poe    c23 8202   0.672   3.880   5.463 -0.3367 -0.4277 -0.0882
 1764poe    c23 8203   0.601   3.985   5.551 -0.1784 -0.0707 -0.3812
 1764poe     o2 8204   0.610   3.964   5.690 -0.0390 -0.4427 -0.4454
 1764poe    c23 8205   0.521   3.866   5.739 -0.0173 -0.5168 -0.5529
 1764poe    c23 8206   0.556   3.840   5.887 -0.2518 -0.0981 -0.4225
 1764poe     o2 8207   0.550   3.965   5.952 -0.6272 -0.2326 -0.1902
 1764poe    c31 8208   0.535   3.965   6.092  0.1882  0.8962 -0.0896
 1765poe    c31 8209   5.511   5.213   2.758 -0.1709  0.1264  0.9127
 1765poe     o2 8210   5.383   5.267   2.784  0.1334  1.1481  0.3485
 1765poe    c23 8211   5.302   5.236   2.672  0.3618 -0.2692  0.5570
 1765poe    c23 8212   5.157   5.191   2.695  0.0055  0.4536 -0.2456
 1765poe     o2 8213   5.182   5.056   2.727 -0.3568  0.4443  0.0102
 1765poe    c23 8214   5.081   4.981   2.791 -0.3026  0.3545 -0.0102
 1765poe    c23 8215   5.149   4.866   2.868 -0.5791  0.2254  0.0432
 1765poe     o2 8216   5.234   4.888   2.979 -0.2549 -0.0603 -0.1444
 1765poe    c23 8217   5.166   4.900   3.102 -0.0504 -0.8347  0.0465
 1765poe    c23 8218   5.252   4.906   3.229 -0.1494 -0.3693  0.0915
 1765poe     o2 8219   5.321   5.026   3.259  0.1979 -0.4711 -0.3041
 1765poe    c31 8220   5.381   4.998   3.383  0.5397  0.0668 -0.3461
 1766poe    c31 8221   2.159   5.853   2.486 -0.1280  0.5961 -0.2857
 1766poe     o2 8222   2.291   5.802   2.496 -0.2984  0.2247  0.1067
 1766poe    c23 8223   2.336   5.748   2.374  0.4817  0.1253  0.4341
 1766poe    c23 8224   2.489   5.741   2.383  0.5569  0.2141 -0.6496
 1766poe     o2 8225   2.538   5.678   2.500  0.0907 -0.0473 -0.5941
 1766poe    c23 8226   2.677   5.683   2.523 -0.0576  0.0445  0.3290
 1766poe    c23 8227   2.711   5.659   2.671  0.0068 -0.0333  0.3018
 1766poe     o2 8228   2.630   5.739   2.754  0.4549  0.2733  0.4466
 1766poe    c23 8229   2.660   5.877   2.754  0.1637  0.3376  0.5775
 1766poe    c23 8230   2.531   5.932   2.818  0.1371  0.2968  0.5586
 1766poe     o2 8231   2.425   5.873   2.746  0.3766  0.2925  0.2030
 1766poe    c31 8232   2.304   5.919   2.803  0.0840 -0.0328 -0.1523
 1767poe    c31 8233   6.850   2.474   1.606 -0.1740  0.4326  0.2945
 1767poe     o2 8234   6.847   2.468   1.747  0.4040  0.4641  0.3094
 1767poe    c23 8235   6.931   2.362   1.787  0.1175  0.1634  0.1165
 1767poe    c23 8236   6.937   2.383   1.939 -0.0366 -0.1087  0.1607
 1767poe     o2 8237   6.810   2.416   1.991 -0.3041 -0.3599 -0.3318
 1767poe    c23 8238   6.810   2.407   2.131 -0.2722  0.2280 -0.2926
 1767poe    c23 8239   6.664   2.392   2.177 -0.2067  0.0470 -0.1428
 1767poe     o2 8240   6.591   2.484   2.099  0.0292  0.5169  0.1870
 1767poe    c23 8241   6.472   2.541   2.150 -0.0237  0.2167  0.3994
 1767poe    c23 8242   6.441   2.674   2.080  0.1644  0.1466  0.1817
 1767poe     o2 8243   6.325   2.746   2.117  0.0906  0.0329  0.1723
 1767poe    c31 8244   6.216   2.750   2.028  0.2762  0.6263 -0.0334
 1768poe    c31 8245   3.579   4.664   5.075  0.7670 -0.1887  0.5914
 1768poe     o2 8246   3.455   4.668   5.142  0.5289  0.1579  0.1426
 1768poe    c23 8247   3.482   4.655   5.280 -0.1049  0.0995  0.2645
 1768poe    c23 8248   3.366   4.632   5.378  0.2150  0.2026  0.6683
 1768poe     o2 8249   3.319   4.499   5.374  0.4144  0.1521 -0.1878
 1768poe    c23 8250   3.185   4.492   5.418  0.3321  1.0835 -0.2684
 1768poe    c23 8251   3.085   4.391   5.359  1.1379  0.2246 -0.1970
 1768poe     o2 8252   3.047   4.428   5.228 -0.4240  0.3830  0.2756
 1768poe    c23 8253   2.908   4.438   5.207 -0.4809 -0.4389  0.1987
 1768poe    c23 8254   2.884   4.496   5.066 -0.1175 -0.2630  0.2057
 1768poe     o2 8255   2.965   4.420   4.979 -0.5133 -0.4558 -0.0009
 1768poe    c31 8256   2.940   4.426   4.841 -0.0127  0.0963 -0.0731
 1769poe    c31 8257   0.499   4.824   5.203 -0.4864 -0.2903  0.1658
 1769poe     o2 8258   0.561   4.936   5.262  0.0192 -0.4171 -0.1217
 1769poe    c23 8259   0.483   4.972   5.374  0.0115  0.0576 -0.2742
 1769poe    c23 8260   0.543   5.084   5.460 -0.2946  0.1116 -0.1284
 1769poe     o2 8261   0.564   5.194   5.374  0.0197  0.0578 -0.1243
 1769poe    c23 8262   0.654   5.270   5.451  0.0106  0.1855 -0.2397
 1769poe    c23 8263   0.668   5.409   5.388 -0.7690  0.3426 -0.0795
 1769poe     o2 8264   0.682   5.381   5.250  0.1089  0.4615 -0.0240
 1769poe    c23 8265   0.734   5.483   5.168 -0.2881  0.4309 -0.3194
 1769poe    c23 8266   0.764   5.429   5.027  0.6076  0.2448 -0.0639
 1769poe     o2 8267   0.851   5.318   5.026  0.1845 -0.0954  0.4722
 1769poe    c31 8268   0.922   5.312   4.904 -0.2793 -0.0674  0.2015
 1770poe    c31 8269   6.443   0.445   1.399  0.0322  0.4662 -0.1129
 1770poe     o2 8270   6.565   0.500   1.352  0.1843  0.2383  0.0127
 1770poe    c23 8271   6.543   0.549   1.222  0.3584  0.0061 -0.1043
 1770poe    c23 8272   6.683   0.597   1.179  0.5051 -0.1163  0.2401
 1770poe     o2 8273   6.787   0.519   1.236  0.8340  0.2550  0.1502
 1770poe    c23 8274   6.913   0.580   1.219  0.8062  0.3144  0.1529
 1770poe    c23 8275   7.013   0.469   1.257  0.6392  0.2026  0.2705
 1770poe     o2 8276   6.988   0.445   1.393  0.0828  0.0171  0.1353
 1770poe    c23 8277   7.077   0.346   1.440  0.3312  0.0902 -0.1844
 1770poe    c23 8278   7.074   0.327   1.593 -0.3630  0.2504 -0.1764
 1770poe     o2 8279   7.116   0.437   1.670  0.1707  0.3639 -0.6210
 1770poe    c31 8280   7.256   0.448   1.676  0.1375  0.5008  0.0059
 1771poe    c31 8281   6.555   2.626   0.364 -0.5743  0.3931 -0.1076
 1771poe     o2 8282   6.420   2.663   0.343 -0.7786 -0.1278  0.2591
 1771poe    c23 8283   6.411   2.804   0.339  0.2830 -0.0483  0.3686
 1771poe    c23 8284   6.260   2.827   0.354  0.2460  0.2977 -0.4608
 1771poe     o2 8285   6.183   2.772   0.249  0.0764 -0.0664 -0.1505
 1771poe    c23 8286   6.046   2.762   0.281  0.0145  0.0531 -0.3721
 1771poe    c23 8287   5.975   2.725   0.150 -0.3890 -0.1948 -0.0860
 1771poe     o2 8288   6.045   2.628   0.075 -0.6269 -0.5618  0.1573
 1771poe    c23 8289   5.996   2.597  -0.054 -0.8983 -0.4981  0.2447
 1771poe    c23 8290   6.081   2.519  -0.157 -0.8808  0.2792 -0.3371
 1771poe     o2 8291   6.193   2.591  -0.202 -0.4119 -0.0327  0.3296
 1771poe    c31 8292   6.295   2.512  -0.260 -0.2272 -0.0065  0.6155
 1772poe    c31 8293   2.288   0.434   1.059  0.6788  0.0842 -0.0197
 1772poe     o2 8294   2.258   0.472   0.926  0.4059  0.3332  0.1114
 1772poe    c23 8295   2.265   0.361   0.840 -0.2964  0.3401  0.0412
 1772poe    c23 8296   2.207   0.388   0.700 -0.6376  0.0066  0.1149
 1772poe     o2 8297   2.264   0.509   0.655 -0.1994 -0.2890 -0.1337
 1772poe    c23 8298   2.226   0.558   0.528 -0.7305  0.3692  0.2788
 1772poe    c23 8299   2.315   0.681   0.505 -0.1185  0.0174  0.7486
 1772poe     o2 8300   2.312   0.750   0.628  0.0917  0.5494  0.4591
 1772poe    c23 8301   2.386   0.867   0.600  0.4192  0.1703 -0.3011
 1772poe    c23 8302   2.395   0.963   0.720  0.5825  0.3467 -0.4539
 1772poe     o2 8303   2.487   0.906   0.811 -0.2989 -0.2258  0.0930
 1772poe    c31 8304   2.516   0.993   0.918  0.1089 -0.4339  0.1544
 1773poe    c31 8305   6.274   3.033   4.456  0.0251  0.0347  0.2893
 1773poe     o2 8306   6.137   3.060   4.439 -0.0458 -0.5202 -0.0316
 1773poe    c23 8307   6.087   3.121   4.556 -0.3606 -0.6593 -0.0899
 1773poe    c23 8308   5.949   3.180   4.522 -0.1383  0.0655  0.2427
 1773poe     o2 8309   5.844   3.086   4.526 -0.2310  0.1449 -0.3011
 1773poe    c23 8310   5.780   3.078   4.652  0.3055 -0.2941 -0.0504
 1773poe    c23 8311   5.636   3.029   4.629  0.0963  0.2301  0.1189
 1773poe     o2 8312   5.648   2.912   4.552  0.5640  0.1950  0.2395
 1773poe    c23 8313   5.534   2.829   4.563  0.5563  0.1571 -0.1130
 1773poe    c23 8314   5.511   2.728   4.448  0.5484  0.1922 -0.1417
 1773poe     o2 8315   5.639   2.682   4.411  0.4955 -0.1112  0.0448
 1773poe    c31 8316   5.624   2.550   4.365  0.6558 -0.1851  0.2070
 1774poe    c31 8317   0.671   5.436   3.814  0.3184 -0.2097  0.1418
 1774poe     o2 8318   0.779   5.445   3.904  0.0604  0.4798  0.3915
 1774poe    c23 8319   0.754   5.466   4.041 -0.0949 -0.1779  0.4690
 1774poe    c23 8320   0.894   5.461   4.104  0.1876  0.3582 -0.1143
 1774poe     o2 8321   0.974   5.361   4.045  0.0854  0.3595 -0.2557
 1774poe    c23 8322   1.108   5.388   4.079  0.2966 -0.2983 -0.5522
 1774poe    c23 8323   1.195   5.297   3.989  0.5038 -0.0265 -0.6275
 1774poe     o2 8324   1.153   5.304   3.855  0.2022  0.5697 -0.5090
 1774poe    c23 8325   1.258   5.263   3.770 -0.0153  0.1696 -0.5870
 1774poe    c23 8326   1.203   5.214   3.635 -0.0735 -0.2573 -0.4085
 1774poe     o2 8327   1.156   5.314   3.549  0.1607  0.2946  0.1012
 1774poe    c31 8328   1.129   5.246   3.428 -0.1917  1.0586 -0.2629
 1775poe    c31 8329   5.189   0.156   0.381 -0.2216 -0.1983  0.2775
 1775poe     o2 8330   5.208   0.270   0.300  0.0525 -0.6538 -0.3153
 1775poe    c23 8331   5.341   0.296   0.261 -0.0421  0.1528 -0.1325
 1775poe    c23 8332   5.430   0.362   0.367 -0.4826  0.3667  0.1098
 1775poe     o2 8333   5.368   0.482   0.407  0.4015  0.9544 -0.2588
 1775poe    c23 8334   5.463   0.561   0.475  0.3956  0.3193  0.5044
 1775poe    c23 8335   5.427   0.711   0.480 -0.6241  0.1168 -0.3350
 1775poe     o2 8336   5.448   0.777   0.357  0.1008  0.2104 -0.1696
 1775poe    c23 8337   5.447   0.918   0.362 -0.0938  0.2385 -0.8907
 1775poe    c23 8338   5.518   0.979   0.240  0.9162 -0.2612 -0.5615
 1775poe     o2 8339   5.428   0.957   0.134 -0.0533  0.8874  0.0008
 1775poe    c31 8340   5.516   0.967   0.024  0.4266  0.6487  0.3603
 1776poe    c31 8341   4.685   1.788   6.810 -0.3373  0.0124  0.4319
 1776poe     o2 8342   4.728   1.774   6.677  0.3266 -0.1644  0.6609
 1776poe    c23 8343   4.862   1.809   6.650  0.3208 -0.3303  0.4123
 1776poe    c23 8344   4.893   1.781   6.502 -0.1140 -0.1183  0.2805
 1776poe     o2 8345   4.816   1.852   6.407  0.3266  0.3709  0.2852
 1776poe    c23 8346   4.905   1.954   6.368 -0.7472  1.0883 -0.3231
 1776poe    c23 8347   4.898   1.958   6.214 -0.2012  0.0620 -0.3809
 1776poe     o2 8348   4.764   1.922   6.189 -0.1226 -0.2691 -0.3388
 1776poe    c23 8349   4.739   1.892   6.054 -0.0193  0.2905 -0.4878
 1776poe    c23 8350   4.587   1.869   6.044  0.0322 -0.5033  0.4702
 1776poe     o2 8351   4.538   1.826   6.170 -0.5625  0.3483  0.5354
 1776poe    c31 8352   4.411   1.766   6.155  0.0718 -0.7224 -0.7653
 1777poe    c31 8353   2.590   6.157   4.727  0.3491  0.2605 -0.0719
 1777poe     o2 8354   2.714   6.128   4.665  0.6683  0.6878  0.3555
 1777poe    c23 8355   2.725   6.120   4.525 -0.2247  0.0470  0.3074
 1777poe    c23 8356   2.793   6.244   4.463  0.6135 -0.2325  0.6526
 1777poe     o2 8357   2.739   6.374   4.474  0.1853 -0.3053 -0.5204
 1777poe    c23 8358   2.629   6.397   4.388 -0.2508 -0.4224  0.0004
 1777poe    c23 8359   2.573   6.535   4.425 -0.0170 -0.2832 -0.1676
 1777poe     o2 8360   2.659   6.629   4.364  0.0374 -0.1847  0.0603
 1777poe    c23 8361   2.620   6.764   4.374  0.0363 -0.2005  0.2729
 1777poe    c23 8362   2.743   6.842   4.323  0.1619 -0.4531  0.1895
 1777poe     o2 8363   2.859   6.788   4.384  0.0355 -0.3787  0.5001
 1777poe    c31 8364   2.967   6.851   4.318 -0.2281  0.0147  0.4407
 1778poe    c31 8365   4.720   3.288   0.952 -0.3869  0.4965 -0.1376
 1778poe     o2 8366   4.676   3.270   0.819  0.2339 -0.0183 -0.2810
 1778poe    c23 8367   4.747   3.357   0.734 -0.2147  0.4445 -0.1893
 1778poe    c23 8368   4.660   3.368   0.607 -0.1288  0.5599 -0.2388
 1778poe     o2 8369   4.533   3.416   0.644 -0.3667 -0.5446  0.4247
 1778poe    c23 8370   4.458   3.431   0.526  0.1490  0.2317  0.1927
 1778poe    c23 8371   4.319   3.497   0.538  0.2153  0.3106  0.5244
 1778poe     o2 8372   4.223   3.401   0.575  0.3221 -0.1317 -0.3353
 1778poe    c23 8373   4.090   3.449   0.572  0.2790 -0.2727 -0.8626
 1778poe    c23 8374   3.977   3.346   0.587 -0.0155  0.1808  0.0959
 1778poe     o2 8375   3.984   3.266   0.703  0.0400  0.1113  0.0443
 1778poe    c31 8376   3.867   3.188   0.716 -0.4829  0.7968 -0.5294
 1779poe    c31 8377   0.850   6.148   0.174  0.0780 -0.3809  0.6544
 1779poe     o2 8378   0.948   6.179   0.271  0.2965  0.6734  0.1105
 1779poe    c23 8379   1.063   6.219   0.200  0.3950  0.3253  0.0706
 1779poe    c23 8380   1.163   6.286   0.295  0.2371 -0.1792  0.5976
 1779poe     o2 8381   1.104   6.403   0.347  0.2015 -0.1401  0.4672
 1779poe    c23 8382   1.157   6.416   0.477  0.5304 -0.0791  0.3278
 1779poe    c23 8383   1.087   6.535   0.545 -0.0322  0.1548 -0.6364
 1779poe     o2 8384   0.960   6.502   0.597  0.4008  0.2101  0.4849
 1779poe    c23 8385   0.906   6.601   0.682 -0.1340  0.2071  0.1515
 1779poe    c23 8386   0.753   6.605   0.671 -0.1097  0.0112 -0.2890
 1779poe     o2 8387   0.705   6.569   0.543 -0.2710 -0.7918 -0.0084
 1779poe    c31 8388   0.566   6.568   0.517 -0.2890 -0.3269  0.0709
 1780poe    c31 8389   5.888   1.220   2.870  0.0700 -0.2622 -0.1996
 1780poe     o2 8390   5.946   1.341   2.914 -0.3283  0.0006 -0.3901
 1780poe    c23 8391   6.054   1.385   2.835 -0.0902  0.2094  0.0501
 1780poe    c23 8392   6.061   1.538   2.852  0.8916  0.2806 -0.8422
 1780poe     o2 8393   5.938   1.607   2.840  0.5402 -0.1179  0.2963
 1780poe    c23 8394   5.956   1.746   2.826 -0.3400 -0.0081  0.1661
 1780poe    c23 8395   5.815   1.805   2.814 -0.3080 -0.0904 -0.6297
 1780poe     o2 8396   5.732   1.800   2.928  0.0720  0.2036 -0.3379
 1780poe    c23 8397   5.598   1.828   2.894 -0.0274 -0.1963 -0.2797
 1780poe    c23 8398   5.497   1.782   3.001  0.5931 -0.7221  0.0863
 1780poe     o2 8399   5.492   1.641   3.004 -0.3322 -0.6995 -0.0604
 1780poe    c31 8400   5.398   1.604   3.102 -0.0882  0.1289  0.4918
 1781poe    c31 8401   7.098   5.693   3.184 -0.5278  0.4920  0.5022
 1781poe     o2 8402   7.024   5.573   3.180  0.0481  0.1352  0.5642
 1781poe    c23 8403   6.908   5.593   3.103  0.2485 -0.8162 -0.0093
 1781poe    c23 8404   6.831   5.460   3.104 -0.1824 -0.5698 -0.0916
 1781poe     o2 8405   6.924   5.362   3.064 -0.3075 -0.7135 -0.0334
 1781poe    c23 8406   6.859   5.250   3.009  0.1763 -0.8901 -0.2477
 1781poe    c23 8407   6.953   5.170   2.916  0.4948 -0.4374 -0.3166
 1781poe     o2 8408   7.087   5.191   2.956  0.2138  0.2585  0.2755
 1781poe    c23 8409   7.173   5.099   2.894  0.1492  0.5998 -0.3257
 1781poe    c23 8410   7.310   5.102   2.965  0.0840  0.4701 -0.1930
 1781poe     o2 8411   7.359   5.233   2.985 -0.0438  0.4190  0.4541
 1781poe    c31 8412   7.495   5.220   3.021  0.2577  0.6143 -0.5865
 1782poe    c31 8413   5.550   3.921   2.785  0.2365 -0.4428 -0.0750
 1782poe     o2 8414   5.557   3.794   2.848 -0.8324 -0.4718  0.0044
 1782poe    c23 8415   5.682   3.738   2.816 -0.7325 -0.0441 -0.3696
 1782poe    c23 8416   5.711   3.605   2.888 -0.4528  0.0637 -0.2817
 1782poe     o2 8417   5.657   3.490   2.826 -0.5765 -0.0835  0.0944
 1782poe    c23 8418   5.644   3.386   2.919  0.4936  0.4392  0.8550
 1782poe    c23 8419   5.756   3.280   2.914  0.8313  0.8426 -0.2846
 1782poe     o2 8420   5.878   3.330   2.962  0.4267  0.7127  0.9139
 1782poe    c23 8421   5.996   3.253   2.950  0.0509  0.3709 -0.9126
 1782poe    c23 8422   6.109   3.324   3.027 -0.4603  0.3624 -0.1353
 1782poe     o2 8423   6.159   3.437   2.958  0.0404  0.0561 -0.2816
 1782poe    c31 8424   6.237   3.501   3.056  0.0387 -0.6000  0.1551
 1783poe    c31 8425   4.694   3.986   5.172  0.3561 -0.0169 -0.1520
 1783poe     o2 8426   4.555   3.976   5.150  0.3382 -0.1847  0.0335
 1783poe    c23 8427   4.501   3.885   5.058  0.0725  0.1829 -0.1749
 1783poe    c23 8428   4.458   3.757   5.132  0.2110  0.2820  0.0756
 1783poe     o2 8429   4.365   3.786   5.234  0.0780 -0.1367  0.0763
 1783poe    c23 8430   4.275   3.681   5.263 -0.2812  0.0303 -0.4097
 1783poe    c23 8431   4.195   3.740   5.380  0.5280 -0.0016  0.1695
 1783poe     o2 8432   4.274   3.805   5.478  0.3633  0.8517 -0.2549
 1783poe    c23 8433   4.191   3.840   5.587 -0.1035  0.0610 -0.3488
 1783poe    c23 8434   4.256   3.877   5.721 -0.5867  0.1148 -0.1307
 1783poe     o2 8435   4.366   3.958   5.688 -0.4076 -0.1441 -0.1642
 1783poe    c31 8436   4.436   3.997   5.804 -0.5974 -0.4900  0.0666
 1784poe    c31 8437   5.012   1.557   6.961 -0.2080 -0.2004 -0.6463
 1784poe     o2 8438   5.020   1.428   7.016  0.6114 -0.1227 -0.5797
 1784poe    c23 8439   5.158   1.399   7.029  0.6361  0.2810  0.1379
 1784poe    c23 8440   5.189   1.257   7.080 -0.7735 -0.0377  0.1566
 1784poe     o2 8441   5.164   1.222   7.214  0.4720 -0.3888  0.3096
 1784poe    c23 8442   5.031   1.196   7.252  0.3273  0.0898  0.1328
 1784poe    c23 8443   5.019   1.126   7.389 -0.4432 -0.3628 -0.1580
 1784poe     o2 8444   5.059   0.992   7.379  0.0100 -0.2075 -0.5026
 1784poe    c23 8445   5.071   0.947   7.513  0.4476 -0.2675 -0.5590
 1784poe    c23 8446   5.065   0.797   7.546 -0.3289 -0.0663  0.2468
 1784poe     o2 8447   4.934   0.747   7.565 -0.2330 -0.1935  0.5746
 1784poe    c31 8448   4.926   0.607   7.548 -0.1384 -0.2317  0.8385
 1785poe    c31 8449   5.286   6.185   4.490  0.3495 -0.7058 -0.5482
 1785poe     o2 8450   5.193   6.080   4.483 -0.7741  0.2041  0.3287
 1785poe    c23 8451   5.134   6.079   4.355 -0.2401  0.1488  0.0807
 1785poe    c23 8452   5.013   5.984   4.365  0.1681 -0.3358  0.4334
 1785poe     o2 8453   5.057   5.856   4.406  0.1875 -0.3688  0.3089
 1785poe    c23 8454   4.947   5.786   4.459 -0.0928  0.1197  0.3791
 1785poe    c23 8455   4.994   5.669   4.548 -0.0526  0.0161  0.2223
 1785poe     o2 8456   5.017   5.698   4.684 -0.4687  0.1314  0.2704
 1785poe    c23 8457   5.000   5.579   4.756 -0.4151  0.0876  0.2107
 1785poe    c23 8458   5.034   5.594   4.906  0.6057 -0.0664  0.0053
 1785poe     o2 8459   5.116   5.708   4.915 -0.1017  0.4326  0.2535
 1785poe    c31 8460   5.183   5.689   5.038 -0.2447 -0.2205  0.2322
 1786poe    c31 8461   6.670   1.034   4.664 -0.1876  0.2472 -0.0778
 1786poe     o2 8462   6.643   1.116   4.552 -0.5170  0.4415  0.1391
 1786poe    c23 8463   6.628   1.031   4.440  0.0990  0.0850  0.3231
 1786poe    c23 8464   6.678   1.090   4.306 -0.2266  0.1054  0.2103
 1786poe     o2 8465   6.818   1.102   4.301 -0.2079 -0.1562  0.0713
 1786poe    c23 8466   6.866   1.178   4.192 -0.1053 -0.0908  0.1611
 1786poe    c23 8467   6.816   1.318   4.153  0.1123 -0.0596 -0.0087
 1786poe     o2 8468   6.843   1.426   4.240 -0.1955 -0.1667  0.2216
 1786poe    c23 8469   6.836   1.543   4.161 -0.0450 -0.1292  0.2643
 1786poe    c23 8470   6.817   1.666   4.250 -0.4004  0.0090 -0.0006
 1786poe     o2 8471   6.937   1.712   4.308 -0.4885 -0.2749  0.4134
 1786poe    c31 8472   6.905   1.821   4.393 -0.6974 -0.3238  0.3985
 1787poe    c31 8473   2.789   2.732   2.554 -0.7852 -0.0766  0.2265
 1787poe     o2 8474   2.798   2.850   2.478  0.0837 -0.6255 -0.5307
 1787poe    c23 8475   2.921   2.894   2.424  0.1056  0.2693  0.2274
 1787poe    c23 8476   2.895   2.988   2.306 -0.3141  0.3094  0.3494
 1787poe     o2 8477   2.810   3.086   2.361 -0.3377  0.2618  0.3969
 1787poe    c23 8478   2.784   3.185   2.264 -0.5927 -0.3501 -0.1732
 1787poe    c23 8479   2.692   3.297   2.317  0.1105 -0.1252  0.6113
 1787poe     o2 8480   2.585   3.227   2.376 -0.4783  0.3850  0.1597
 1787poe    c23 8481   2.492   3.325   2.416 -0.0773  0.8663 -0.0744
 1787poe    c23 8482   2.374   3.268   2.497  0.3002  0.2657  0.0582
 1787poe     o2 8483   2.417   3.204   2.615  0.3433  0.2492  0.0339
 1787poe    c31 8484   2.306   3.189   2.702  0.5356  0.2745  0.2856
 1788poe    c31 8485   5.692   2.353   5.667 -0.1052  0.4657 -0.3348
 1788poe     o2 8486   5.746   2.396   5.790  0.5057 -0.6099 -0.2150
 1788poe    c23 8487   5.879   2.444   5.785  0.1460  0.4319 -0.0297
 1788poe    c23 8488   5.935   2.428   5.927  0.4215 -0.4671 -0.2373
 1788poe     o2 8489   5.835   2.448   6.024  0.6116  0.2087 -0.1778
 1788poe    c23 8490   5.898   2.456   6.150 -0.1688  0.1861  0.2221
 1788poe    c23 8491   5.796   2.445   6.265  0.0467 -0.3254  0.3640
 1788poe     o2 8492   5.706   2.553   6.263  0.2520 -0.1527  0.4280
 1788poe    c23 8493   5.583   2.518   6.322 -0.2806  0.3764 -0.3482
 1788poe    c23 8494   5.451   2.576   6.268 -0.6755 -0.2899 -0.1089
 1788poe     o2 8495   5.373   2.524   6.162 -0.1890 -0.0292 -0.5997
 1788poe    c31 8496   5.307   2.639   6.115 -0.5692  0.1481  0.3382
 1789poe    c31 8497   2.327   2.501   0.198 -0.5194 -0.4926  0.1283
 1789poe     o2 8498   2.319   2.379   0.127 -0.7747 -0.5015  0.1715
 1789poe    c23 8499   2.412   2.282   0.170  0.6211  0.5704 -0.3590
 1789poe    c23 8500   2.377   2.151   0.097 -0.0969  0.2635  0.5126
 1789poe     o2 8501   2.347   2.181  -0.038 -0.0974 -0.2567  0.3960
 1789poe    c23 8502   2.330   2.063  -0.114  0.0060  0.0505 -0.1033
 1789poe    c23 8503   2.275   2.106  -0.252  0.0830  0.8524  0.1102
 1789poe     o2 8504   2.153   2.176  -0.249 -0.1320  0.4677  0.4708
 1789poe    c23 8505   2.133   2.228  -0.378  0.4035 -0.0014  0.1958
 1789poe    c23 8506   1.996   2.299  -0.383 -0.0632 -0.8453  0.7760
 1789poe     o2 8507   1.982   2.415  -0.304 -0.5805 -0.2539 -0.1754
 1789poe    c31 8508   1.868   2.487  -0.346 -0.9028 -0.1248  0.8870
 1790poe    c31 8509   1.766   7.066   0.513 -0.1773  0.0986 -0.0499
 1790poe     o2 8510   1.817   7.099   0.386 -0.1496  0.0916 -0.0407
 1790poe    c23 8511   1.868   7.230   0.394  0.0838  0.0443 -0.6800
 1790poe    c23 8512   1.931   7.279   0.262  0.4608 -0.5132 -0.7098
 1790poe     o2 8513   1.841   7.278   0.153  0.3168  0.5971 -0.6190
 1790poe    c23 8514   1.909   7.233   0.038  0.5039  0.1343 -0.3306
 1790poe    c23 8515   1.814   7.235  -0.083 -0.2795  0.3750  0.2836
 1790poe     o2 8516   1.690   7.174  -0.052 -0.2316  0.5789  0.8885
 1790poe    c23 8517   1.605   7.150  -0.161  0.5053  0.2028  0.3902
 1790poe    c23 8518   1.479   7.084  -0.101  0.0940  0.1625 -0.4878
 1790poe     o2 8519   1.447   7.169   0.007  0.1614  0.5384 -0.7597
 1790poe    c31 8520   1.325   7.237  -0.011 -0.2874 -0.1546 -0.3929
 1791poe    c31 8521   4.885   3.943   0.079 -0.3997  0.0935 -0.2355
 1791poe     o2 8522   4.881   3.984  -0.055 -0.0445  0.2652 -0.1936
 1791poe    c23 8523   5.011   4.002  -0.107  0.0598  0.1021  0.0124
 1791poe    c23 8524   5.008   4.074  -0.243  0.0511  0.0361 -0.0231
 1791poe     o2 8525   4.949   3.991  -0.340  0.1743  0.0114 -0.0768
 1791poe    c23 8526   4.988   4.021  -0.472 -0.0083  0.0082 -0.1308
 1791poe    c23 8527   4.861   4.018  -0.559 -0.3252  0.2253  0.3180
 1791poe     o2 8528   4.806   3.894  -0.520  0.2158 -0.0353  0.2509
 1791poe    c23 8529   4.705   3.839  -0.601  0.1615 -0.2986  0.4951
 1791poe    c23 8530   4.677   3.694  -0.560  0.2064 -0.4327  0.0538
 1791poe     o2 8531   4.690   3.682  -0.420 -0.3922  0.0930  0.1592
 1791poe    c31 8532   4.678   3.547  -0.380  0.1948 -0.2483 -0.7743
 1792poe    c31 8533   2.406   4.617   0.491  0.1283  0.0557 -0.0286
 1792poe     o2 8534   2.457   4.555   0.607 -0.0266 -0.2950 -0.1462
 1792poe    c23 8535   2.425   4.636   0.719  0.1622  0.2876 -0.5125
 1792poe    c23 8536   2.492   4.579   0.845  0.0311  0.3775 -0.4015
 1792poe     o2 8537   2.627   4.560   0.808  0.0579  0.2290 -0.2306
 1792poe    c23 8538   2.708   4.556   0.923 -0.0183  0.1590 -0.1791
 1792poe    c23 8539   2.848   4.521   0.870 -0.0603  0.0225 -0.2008
 1792poe     o2 8540   2.846   4.402   0.795  0.0990 -0.2509  0.2296
 1792poe    c23 8541   2.975   4.345   0.783  0.1630 -0.1493  0.4285
 1792poe    c23 8542   2.946   4.194   0.776  0.1061 -0.1001 -0.5709
 1792poe     o2 8543   2.818   4.180   0.718 -0.2064  0.1265  0.0580
 1792poe    c31 8544   2.805   4.056   0.652  0.8892 -0.1403  0.3165
 1793poe    c31 8545   3.711   0.462   3.185  0.0911 -0.2700  0.1822
 1793poe     o2 8546   3.629   0.576   3.172  0.5057  0.0584  0.4511
 1793poe    c23 8547   3.602   0.611   3.306 -0.1798 -0.1793  0.3774
 1793poe    c23 8548   3.532   0.747   3.291  0.5424  0.1450 -0.0854
 1793poe     o2 8549   3.448   0.760   3.178 -0.0745  0.0039  0.3523
 1793poe    c23 8550   3.386   0.884   3.159  0.2852  0.1185 -0.0806
 1793poe    c23 8551   3.326   0.855   3.020  0.4525 -0.3822 -0.0492
 1793poe     o2 8552   3.417   0.780   2.943  0.3535 -0.0619 -0.4863
 1793poe    c23 8553   3.361   0.740   2.820  0.0327 -0.0704 -0.3370
 1793poe    c23 8554   3.330   0.591   2.845  0.5044 -0.0595  0.3463
 1793poe     o2 8555   3.438   0.540   2.920  0.7725 -0.3325 -0.2169
 1793poe    c31 8556   3.434   0.399   2.919  0.2160 -0.3198 -0.5785
 1794poe    c31 8557   4.506   6.611   6.916 -0.2451  0.6145  0.1609
 1794poe     o2 8558   4.637   6.662   6.909 -0.0037 -0.0685 -0.3820
 1794poe    c23 8559   4.646   6.760   6.808 -0.1434 -0.1210 -0.4448
 1794poe    c23 8560   4.753   6.736   6.700  0.5843 -0.1711  0.2793
 1794poe     o2 8561   4.880   6.693   6.744  0.4696  0.0735  0.8618
 1794poe    c23 8562   4.967   6.724   6.638  0.1488 -0.1455  0.5299
 1794poe    c23 8563   5.111   6.727   6.694  0.1336  0.2513  0.5510
 1794poe     o2 8564   5.116   6.599   6.755  0.0485 -0.0092  0.0209
 1794poe    c23 8565   5.207   6.599   6.863 -0.0264 -0.1595  0.0834
 1794poe    c23 8566   5.217   6.456   6.919  0.4332 -0.1142  0.1176
 1794poe     o2 8567   5.085   6.407   6.912  0.2936  0.2624  0.1056
 1794poe    c31 8568   5.058   6.302   7.002 -0.3787  0.4184  0.0903
 1795poe    c31 8569   4.530   3.292   5.052  0.0997  0.2089  0.2337
 1795poe     o2 8570   4.667   3.323   5.051  0.1599 -0.0683 -0.3128
 1795poe    c23 8571   4.681   3.447   4.984 -0.4898  0.4367  0.4734
 1795poe    c23 8572   4.831   3.478   4.965 -0.4064 -0.1537  0.1511
 1795poe     o2 8573   4.897   3.433   5.082  0.1685 -0.6346 -0.3531
 1795poe    c23 8574   5.037   3.433   5.066  0.2455  0.3713  0.2390
 1795poe    c23 8575   5.099   3.317   5.147 -0.4560  0.2797  0.6463
 1795poe     o2 8576   5.041   3.194   5.109 -0.2213  0.4011 -0.1185
 1795poe    c23 8577   5.125   3.089   5.153 -0.8210 -0.1801 -0.3476
 1795poe    c23 8578   5.066   2.948   5.132 -0.3060 -0.3424 -0.7080
 1795poe     o2 8579   4.960   2.948   5.224  0.2763  0.4975 -0.0195
 1795poe    c31 8580   4.950   2.811   5.258 -0.3386  0.5583  0.0444
 1796poe    c31 8581   3.519   4.990   2.891 -0.0044  0.6399 -0.0325
 1796poe     o2 8582   3.384   4.965   2.922  0.0769 -0.2169 -0.3593
 1796poe    c23 8583   3.292   4.988   2.818 -0.1161 -0.1028 -0.1642
 1796poe    c23 8584   3.161   4.928   2.873 -0.2402  0.2193 -0.0988
 1796poe     o2 8585   3.127   4.991   2.994  0.1065 -0.6175  0.4443
 1796poe    c23 8586   3.019   4.927   3.060 -0.0680 -0.4656  0.3056
 1796poe    c23 8587   3.023   5.022   3.181  0.0378  0.0272 -0.0762
 1796poe     o2 8588   3.147   5.012   3.248  0.1832  0.5800 -0.2648
 1796poe    c23 8589   3.156   5.064   3.379  0.1403  0.0097 -0.0348
 1796poe    c23 8590   3.292   5.118   3.427  0.0090  0.0566  0.2810
 1796poe     o2 8591   3.325   5.240   3.366 -0.1023  0.1140  0.3338
 1796poe    c31 8592   3.420   5.320   3.434 -0.2126  0.1024  0.4997
 1797poe    c31 8593   3.187   3.360   2.553 -0.3893  0.0220 -0.0363
 1797poe     o2 8594   3.310   3.305   2.511 -0.3412 -0.0388  0.1797
 1797poe    c23 8595   3.381   3.318   2.632 -0.5002 -0.5273  0.3270
 1797poe    c23 8596   3.524   3.275   2.591 -0.3113 -0.1403  0.5826
 1797poe     o2 8597   3.529   3.153   2.521  0.1275  0.2586 -0.0916
 1797poe    c23 8598   3.658   3.102   2.498 -0.0659 -0.1027 -0.3864
 1797poe    c23 8599   3.639   2.993   2.391  0.7854 -0.0697 -0.5785
 1797poe     o2 8600   3.547   3.035   2.294  0.0582 -0.2544  0.0210
 1797poe    c23 8601   3.515   2.916   2.224 -0.2831 -0.2294  0.1318
 1797poe    c23 8602   3.605   2.874   2.106 -0.3576 -0.1592  0.0490
 1797poe     o2 8603   3.741   2.861   2.141 -0.4388  0.4359  0.6039
 1797poe    c31 8604   3.829   2.956   2.085  0.2600 -0.1423  0.7022
 1798poe    c31 8605   3.931   5.649   4.377 -0.2287 -0.2050 -0.0655
 1798poe     o2 8606   3.914   5.770   4.308 -0.6771 -0.3318 -0.1812
 1798poe    c23 8607   3.904   5.879   4.398 -0.1667 -0.3807 -0.0582
 1798poe    c23 8608   4.045   5.921   4.442 -0.1812 -0.1046 -0.2760
 1798poe     o2 8609   4.137   5.975   4.350 -0.2965 -0.0619 -0.3663
 1798poe    c23 8610   4.260   6.003   4.413 -0.1803  0.0732 -0.6495
 1798poe    c23 8611   4.362   5.888   4.402  0.1422  0.2293  0.5804
 1798poe     o2 8612   4.411   5.854   4.274  0.6660  0.6623  0.6596
 1798poe    c23 8613   4.517   5.761   4.284  0.0289 -0.1460  0.0028
 1798poe    c23 8614   4.496   5.663   4.167  0.5349 -0.1537 -0.0858
 1798poe     o2 8615   4.426   5.723   4.060 -0.3479 -0.8491  0.0905
 1798poe    c31 8616   4.464   5.656   3.941  0.1354 -0.0675 -0.2032
 1799poe    c31 8617   2.174   1.168   0.118 -0.0038  0.2622  0.1132
 1799poe     o2 8618   2.298   1.164   0.186  0.0978  0.4289 -0.0582
 1799poe    c23 8619   2.350   1.037   0.217 -0.5446  0.1154 -0.2430
 1799poe    c23 8620   2.495   1.050   0.268 -0.5976  0.0926 -0.0868
 1799poe     o2 8621   2.515   1.117   0.391 -0.4900 -0.4438  0.1920
 1799poe    c23 8622   2.647   1.104   0.438 -0.2171  0.2687 -0.3483
 1799poe    c23 8623   2.682   1.212   0.542 -0.7310  0.1743 -0.0738
 1799poe     o2 8624   2.643   1.331   0.477  0.3128  0.2043 -0.6647
 1799poe    c23 8625   2.678   1.437   0.565 -0.0595  0.3049 -0.6366
 1799poe    c23 8626   2.610   1.564   0.511 -0.0742  0.4425 -0.2901
 1799poe     o2 8627   2.476   1.527   0.487  0.1820 -0.5836 -0.1599
 1799poe    c31 8628   2.408   1.644   0.448  0.6429 -0.3130 -0.1569
 1800poe    c31 8629   1.307   2.755   1.544 -0.0590 -0.2812  0.0110
 1800poe     o2 8630   1.226   2.792   1.435  0.3472  0.6931  0.0384
 1800poe    c23 8631   1.090   2.788   1.469  0.3690 -0.0730  0.0552
 1800poe    c23 8632   1.012   2.818   1.339 -0.1366  0.4153  0.4636
 1800poe     o2 8633   1.028   2.952   1.298 -0.5009  0.5136  0.6381
 1800poe    c23 8634   0.954   2.986   1.183  0.6216  0.1716 -0.2138
 1800poe    c23 8635   1.034   2.966   1.054  0.1609  0.4187 -0.5414
 1800poe     o2 8636   1.161   3.028   1.060  0.0154  0.6644  0.0688
 1800poe    c23 8637   1.218   3.045   0.932  0.2076 -0.5906 -0.0245
 1800poe    c23 8638   1.366   3.071   0.967  0.1307 -0.0092 -0.1275
 1800poe     o2 8639   1.360   3.147   1.086  0.0551 -0.1434 -0.0456
 1800poe    c31 8640   1.490   3.198   1.107  0.0797 -0.1642 -0.1469
 1801poe    c31 8641   2.248   2.538   3.735  0.0846  0.1946  0.3091
 1801poe     o2 8642   2.217   2.416   3.672 -0.0322  0.2041  0.3491
 1801poe    c23 8643   2.170   2.316   3.761  0.0142 -0.0002  0.1449
 1801poe    c23 8644   2.066   2.232   3.685 -0.0268  0.1460  0.0371
 1801poe     o2 8645   2.132   2.203   3.564  0.0809  0.6225 -0.0186
 1801poe    c23 8646   2.057   2.103   3.498  0.3814  0.5101 -0.1913
 1801poe    c23 8647   2.130   2.033   3.383  0.3999  0.1815  0.0186
 1801poe     o2 8648   2.155   2.105   3.264 -0.0386 -0.3081 -0.3714
 1801poe    c23 8649   2.274   2.066   3.200  0.6413  0.2812  0.5181
 1801poe    c23 8650   2.326   2.157   3.088  0.5723 -0.1236  0.1524
 1801poe     o2 8651   2.359   2.285   3.139  0.8649 -0.2615  0.3076
 1801poe    c31 8652   2.451   2.345   3.052  0.4357 -0.1698 -0.0847
 1802poe    c31 8653   3.696   6.444   0.898  0.2608  0.2697 -0.2538
 1802poe     o2 8654   3.718   6.515   1.018  0.7529  0.4761 -0.4621
 1802poe    c23 8655   3.588   6.520   1.073  0.7068 -0.0683 -0.5113
 1802poe    c23 8656   3.581   6.617   1.193 -0.1188  0.0740 -0.6717
 1802poe     o2 8657   3.703   6.611   1.262 -0.4723  0.0624 -0.0396
 1802poe    c23 8658   3.703   6.694   1.376 -0.1908 -0.8703  0.6479
 1802poe    c23 8659   3.834   6.661   1.451  0.4115 -0.2773 -0.1212
 1802poe     o2 8660   3.949   6.698   1.380 -0.0422  0.5544 -0.4400
 1802poe    c23 8661   4.069   6.667   1.447 -0.1768 -0.3106 -0.5788
 1802poe    c23 8662   4.170   6.784   1.439 -0.3367 -0.1385 -0.1464
 1802poe     o2 8663   4.199   6.833   1.310 -0.1661  0.2570  0.0429
 1802poe    c31 8664   4.268   6.956   1.317  0.6311 -0.1890  0.1655
 1803poe    c31 8665   3.275   1.958   0.285 -0.1716  0.3727 -0.2172
 1803poe     o2 8666   3.245   1.820   0.271 -0.8921  0.5057 -0.0315
 1803poe    c23 8667   3.263   1.790   0.134 -0.3410  0.0906  0.1299
 1803poe    c23 8668   3.212   1.649   0.101 -0.1023 -0.0970  0.5567
 1803poe     o2 8669   3.262   1.548   0.186  0.2112 -0.0076  0.4797
 1803poe    c23 8670   3.384   1.499   0.134 -0.3468 -0.1444 -0.7239
 1803poe    c23 8671   3.458   1.417   0.240 -0.5061  0.3705 -0.2078
 1803poe     o2 8672   3.432   1.278   0.242 -0.4377  0.3632  0.2666
 1803poe    c23 8673   3.511   1.208   0.336 -0.3490 -0.0207 -0.0931
 1803poe    c23 8674   3.648   1.170   0.278 -0.1997 -0.1218  0.3228
 1803poe     o2 8675   3.642   1.059   0.190 -0.3880  0.4272 -0.3677
 1803poe    c31 8676   3.632   1.089   0.053 -0.1640  0.3160 -0.4088
 1804poe    c31 8677   6.203   0.955   2.270 -0.1770 -0.0505 -0.2656
 1804poe     o2 8678   6.112   1.004   2.173 -0.0745 -0.0093 -0.3418
 1804poe    c23 8679   6.182   1.006   2.051 -0.2253  0.0807 -0.4266
 1804poe    c23 8680   6.080   1.024   1.937  0.1220  0.0796 -0.7405
 1804poe     o2 8681   6.022   1.151   1.952  0.0732  0.0311 -0.5102
 1804poe    c23 8682   5.898   1.143   1.885  0.0460 -0.0256 -0.4541
 1804poe    c23 8683   5.840   1.283   1.856 -0.0273  0.0603  0.1061
 1804poe     o2 8684   5.832   1.345   1.982  0.4062 -0.2889  0.3083
 1804poe    c23 8685   5.762   1.467   1.994 -0.0078 -0.4034 -0.8332
 1804poe    c23 8686   5.834   1.588   1.932 -0.1126 -0.0249 -0.2263
 1804poe     o2 8687   5.960   1.627   1.980 -0.3887 -0.0476  0.5221
 1804poe    c31 8688   6.000   1.760   1.954  0.0440 -0.2256  0.2726
 1805poe    c31 8689   7.052   3.925   2.691  0.2565  0.2282  0.0809
 1805poe     o2 8690   6.916   3.948   2.720  0.1425  0.1446 -0.3728
 1805poe    c23 8691   6.827   3.847   2.677  0.0066  0.0204  0.1865
 1805poe    c23 8692   6.695   3.926   2.665  0.3165  0.4751 -0.3032
 1805poe     o2 8693   6.691   4.015   2.774 -0.5091 -0.3208  0.3352
 1805poe    c23 8694   6.586   4.107   2.755 -0.4480 -0.3827 -0.3545
 1805poe    c23 8695   6.567   4.144   2.904  0.0853 -0.2974 -0.3083
 1805poe     o2 8696   6.694   4.183   2.952  0.0507 -0.4576 -0.0852
 1805poe    c23 8697   6.704   4.232   3.084 -0.1065 -0.2308 -0.1560
 1805poe    c23 8698   6.630   4.360   3.126  0.1115 -0.1484 -0.0240
 1805poe     o2 8699   6.493   4.351   3.161  0.1225  0.1477  0.0972
 1805poe    c31 8700   6.459   4.476   3.218 -0.2239  0.1161 -0.0429
 1806poe    c31 8701   1.688   6.192   5.821  0.2878 -0.4885  0.3117
 1806poe     o2 8702   1.786   6.287   5.855  0.2545 -0.5039  0.4495
 1806poe    c23 8703   1.894   6.306   5.767 -0.0717  0.2140  0.1938
 1806poe    c23 8704   1.996   6.405   5.828 -0.0097  0.2479  0.0351
 1806poe     o2 8705   1.942   6.535   5.836  0.0495  0.2623  0.1842
 1806poe    c23 8706   2.033   6.632   5.883  0.1946  0.0671  0.3074
 1806poe    c23 8707   1.964   6.768   5.900  0.2007  0.0477  0.4984
 1806poe     o2 8708   1.944   6.829   5.774 -0.1033 -0.5269  0.2668
 1806poe    c23 8709   1.880   6.950   5.804  0.4082 -0.1421 -0.1654
 1806poe    c23 8710   1.911   7.043   5.685 -0.3928 -0.0370 -0.3022
 1806poe     o2 8711   1.880   6.969   5.569  0.8831 -0.2335 -0.5308
 1806poe    c31 8712   1.870   7.076   5.477  0.1757 -0.1213 -0.3274
 1807poe    c31 8713   0.026   4.305   1.905 -0.1038 -0.4375 -0.3210
 1807poe     o2 8714   0.166   4.310   1.893 -0.1155  0.4137 -0.1082
 1807poe    c23 8715   0.221   4.210   1.975  0.0519  0.5751 -0.0211
 1807poe    c23 8716   0.374   4.226   1.961  0.1429 -0.2555 -0.0587
 1807poe     o2 8717   0.385   4.262   1.825 -0.1238 -0.6680 -0.1926
 1807poe    c23 8718   0.520   4.271   1.785 -0.0924  0.5034  0.1372
 1807poe    c23 8719   0.511   4.347   1.652  0.0210  0.1250 -0.0866
 1807poe     o2 8720   0.450   4.473   1.668 -0.6075 -0.2732  0.6433
 1807poe    c23 8721   0.438   4.553   1.553 -0.5474 -0.6179  0.3932
 1807poe    c23 8722   0.449   4.702   1.592  0.0411 -0.3449 -0.7810
 1807poe     o2 8723   0.360   4.733   1.697  0.4953 -0.3316 -0.4002
 1807poe    c31 8724   0.354   4.868   1.736 -0.0613 -0.4977  0.1136
 1808poe    c31 8725   4.338   1.867   6.653  0.2852 -0.0083 -0.1219
 1808poe     o2 8726   4.316   1.982   6.575 -0.3766  0.2447  0.4210
 1808poe    c23 8727   4.225   1.949   6.472 -0.0041  0.1959  0.1038
 1808poe    c23 8728   4.155   2.073   6.413  0.1015  0.4291  0.4654
 1808poe     o2 8729   4.084   2.140   6.515 -0.7452 -0.4134  0.4351
 1808poe    c23 8730   4.017   2.252   6.462 -0.0663 -0.1147  0.1964
 1808poe    c23 8731   3.909   2.294   6.563  0.3271  1.1824  0.0874
 1808poe     o2 8732   3.978   2.299   6.686  0.6786  0.1400 -0.0606
 1808poe    c23 8733   3.920   2.393   6.773 -0.2390 -0.5503  0.0879
 1808poe    c23 8734   3.991   2.385   6.909  0.8321 -0.3783 -0.4487
 1808poe     o2 8735   3.988   2.255   6.964 -0.1268 -0.0020  0.4416
 1808poe    c31 8736   3.963   2.244   7.102 -0.2116  0.3165  0.4520
 1809poe    c31 8737   2.224   6.733   1.467 -0.9545  0.7251  0.3025
 1809poe     o2 8738   2.130   6.631   1.442  0.1178 -0.1229 -0.3288
 1809poe    c23 8739   2.101   6.599   1.307  0.0529 -0.3915 -0.2515
 1809poe    c23 8740   1.994   6.489   1.296 -0.1968 -0.1624 -0.1384
 1809poe     o2 8741   1.862   6.521   1.332  0.0289  0.1937  0.3946
 1809poe    c23 8742   1.764   6.434   1.279  0.5383 -0.1984  0.0842
 1809poe    c23 8743   1.624   6.479   1.325  0.7286 -0.1019  0.5769
 1809poe     o2 8744   1.628   6.549   1.447 -0.0719  0.5233  0.2540
 1809poe    c23 8745   1.523   6.501   1.527  0.2729 -0.4091  0.1599
 1809poe    c23 8746   1.518   6.576   1.662  0.2367  0.4122 -0.2907
 1809poe     o2 8747   1.533   6.714   1.642  0.6352  0.3833 -0.1915
 1809poe    c31 8748   1.511   6.792   1.758  0.3064 -0.3321  0.2284
 1810poe    c31 8749   3.462   2.543   1.384 -0.2035  0.3412 -0.3401
 1810poe     o2 8750   3.575   2.528   1.467 -0.3129  0.4534 -0.1688
 1810poe    c23 8751   3.640   2.653   1.472 -0.3277  0.4391  0.4520
 1810poe    c23 8752   3.761   2.660   1.566 -0.1736  0.0297  0.2880
 1810poe     o2 8753   3.719   2.632   1.698  0.3278 -0.7549  0.2835
 1810poe    c23 8754   3.829   2.633   1.786  0.5968 -0.2848 -0.0522
 1810poe    c23 8755   3.792   2.625   1.936 -0.2533 -0.3070 -0.2574
 1810poe     o2 8756   3.725   2.502   1.953  0.1452 -0.5936 -0.6935
 1810poe    c23 8757   3.684   2.492   2.088  0.1376  0.3784 -0.6159
 1810poe    c23 8758   3.649   2.351   2.139 -0.3218  0.5412 -0.4790
 1810poe     o2 8759   3.620   2.283   2.018 -0.6388  0.3738 -0.3103
 1810poe    c31 8760   3.579   2.149   2.036 -0.6004  0.3823 -0.1507
 1811poe    c31 8761   1.857   1.476   0.921 -0.3792  0.0688 -0.1108
 1811poe     o2 8762   1.742   1.525   0.857 -0.1897  0.1383 -0.4002
 1811poe    c23 8763   1.661   1.415   0.822 -0.0473 -0.2229  0.4020
 1811poe    c23 8764   1.589   1.434   0.688  0.0616 -0.1414  0.3551
 1811poe     o2 8765   1.487   1.531   0.699 -0.0648 -0.2358  0.0517
 1811poe    c23 8766   1.435   1.541   0.569 -0.1242 -0.0754  0.0883
 1811poe    c23 8767   1.492   1.662   0.493 -0.1823 -0.2227 -0.1904
 1811poe     o2 8768   1.511   1.776   0.574 -0.4028 -0.2922 -0.0397
 1811poe    c23 8769   1.413   1.874   0.551  0.2489  0.2893 -0.3616
 1811poe    c23 8770   1.448   1.990   0.646  0.8166  0.1367 -0.3761
 1811poe     o2 8771   1.415   1.963   0.781  0.0730  0.1094 -0.5553
 1811poe    c31 8772   1.286   2.007   0.815  0.2571 -0.3112  0.7326
 1812poe    c31 8773   5.833   5.449   2.674  0.8631 -0.4144 -0.4026
 1812poe     o2 8774   5.833   5.585   2.637  0.1201 -0.1559  0.4796
 1812poe    c23 8775   5.927   5.654   2.716  0.3760  0.1214 -0.0650
 1812poe    c23 8776   5.962   5.798   2.670  0.1865  0.1595 -0.0869
 1812poe     o2 8777   6.057   5.811   2.567  0.3626 -0.3044  0.0114
 1812poe    c23 8778   6.066   5.945   2.525  0.1383 -0.1795  0.3518
 1812poe    c23 8779   6.168   5.943   2.410 -0.2962 -0.5797 -0.0318
 1812poe     o2 8780   6.298   5.916   2.457 -0.0310  0.4873 -0.1244
 1812poe    c23 8781   6.405   5.957   2.374  0.1688  0.2435  0.0089
 1812poe    c23 8782   6.528   5.890   2.438  0.4014  0.1460 -0.5428
 1812poe     o2 8783   6.503   5.754   2.465 -0.1690  0.3298 -0.1309
 1812poe    c31 8784   6.622   5.681   2.444 -0.2055  0.4782 -0.9177
 1813poe    c31 8785   3.381   3.621   6.011  0.2935 -0.9395 -0.2993
 1813poe     o2 8786   3.426   3.680   5.891  0.0171  0.0561  0.0811
 1813poe    c23 8787   3.551   3.630   5.851 -0.0302 -0.0227  0.0319
 1813poe    c23 8788   3.606   3.715   5.736  0.0961 -0.2137 -0.0502
 1813poe     o2 8789   3.585   3.854   5.750  0.4457 -0.1772  0.1241
 1813poe    c23 8790   3.672   3.929   5.669  0.4613 -0.5240 -0.1790
 1813poe    c23 8791   3.654   4.079   5.698  0.3158 -0.6251  0.2543
 1813poe     o2 8792   3.530   4.132   5.658  0.6153  0.0146  0.1689
 1813poe    c23 8793   3.505   4.268   5.687  0.1269 -0.0433  0.0225
 1813poe    c23 8794   3.437   4.300   5.821 -0.4226 -0.2510 -0.2027
 1813poe     o2 8795   3.493   4.231   5.930  0.0675 -0.0179 -0.3068
 1813poe    c31 8796   3.492   4.325   6.035 -0.1872 -0.1736 -0.1693
 1814poe    c31 8797   5.232   6.779   6.072 -0.2279 -0.2388 -0.0067
 1814poe     o2 8798   5.345   6.788   5.988 -0.1093  0.3035  0.2066
 1814poe    c23 8799   5.446   6.875   6.032  0.0775  0.2444 -0.0993
 1814poe    c23 8800   5.569   6.903   5.944  0.2715  0.4071  0.2185
 1814poe     o2 8801   5.653   6.990   6.016  0.1641  0.3671  0.3922
 1814poe    c23 8802   5.750   7.049   5.932 -0.0123 -0.0148 -0.0844
 1814poe    c23 8803   5.892   6.992   5.922 -0.1828 -0.5452  0.4640
 1814poe     o2 8804   5.965   7.031   6.036  0.1489  0.0767  0.0488
 1814poe    c23 8805   6.089   6.963   6.048  0.0339 -0.2000 -0.3134
 1814poe    c23 8806   6.170   7.035   6.158 -0.1855 -0.3020 -0.0851
 1814poe     o2 8807   6.110   7.031   6.286 -0.3934 -0.0944 -0.1732
 1814poe    c31 8808   6.185   7.096   6.386  0.0895 -0.7543 -0.0972
 1815poe    c31 8809   0.823   2.747   5.788 -0.4887 -0.5976 -0.0065
 1815poe     o2 8810   0.757   2.663   5.879 -0.4011 -0.0396  0.5828
 1815poe    c23 8811   0.617   2.658   5.863 -0.2949  0.1120 -0.4193
 1815poe    c23 8812   0.553   2.572   5.973 -0.2010  0.4221 -0.1204
 1815poe     o2 8813   0.612   2.618   6.092 -0.3102 -0.5270  0.3136
 1815poe    c23 8814   0.530   2.557   6.189 -0.0463 -0.7633  0.3911
 1815poe    c23 8815   0.567   2.591   6.334 -0.2000 -0.3670  0.3390
 1815poe     o2 8816   0.694   2.539   6.367 -0.1151 -0.1966  0.2807
 1815poe    c23 8817   0.720   2.547   6.505  0.0610 -0.1447  0.2438
 1815poe    c23 8818   0.859   2.485   6.532  0.0320 -0.3460 -0.0753
 1815poe     o2 8819   0.965   2.575   6.509 -0.0636 -0.2150 -0.0041
 1815poe    c31 8820   1.087   2.510   6.482 -0.0921 -0.2062 -0.1522
 1816poe    c31 8821   5.494   0.241   5.702  0.0503  0.0785 -0.0521
 1816poe     o2 8822   5.599   0.331   5.727  0.4692 -0.4426  0.0937
 1816poe    c23 8823   5.566   0.465   5.699  0.1910 -0.5188  0.0510
 1816poe    c23 8824   5.684   0.561   5.676 -0.0897 -0.2624 -0.3483
 1816poe     o2 8825   5.786   0.499   5.602 -0.0403  0.0052 -0.5077
 1816poe    c23 8826   5.907   0.571   5.590 -0.0896  0.1469 -0.1545
 1816poe    c23 8827   5.947   0.640   5.459  0.1453  0.3392  0.0173
 1816poe     o2 8828   5.975   0.555   5.349  0.2124  0.3340  0.0383
 1816poe    c23 8829   6.024   0.610   5.230  0.1689 -0.2745 -0.2665
 1816poe    c23 8830   6.067   0.511   5.120 -0.0467 -0.2202 -0.4009
 1816poe     o2 8831   5.961   0.436   5.064 -0.2278 -0.1658 -0.1355
 1816poe    c31 8832   5.936   0.457   4.927 -0.2324  0.3429 -0.0571
 1817poe    c31 8833   1.821   5.666   1.605 -0.0799 -0.3381  0.7313
 1817poe     o2 8834   1.935   5.642   1.527 -0.3496 -0.6332  0.4270
 1817poe    c23 8835   2.052   5.697   1.582 -0.0398 -0.1755 -0.6491
 1817poe    c23 8836   2.180   5.644   1.515  0.2859 -0.3480  0.0903
 1817poe     o2 8837   2.165   5.652   1.375 -0.3512  0.3876  0.1913
 1817poe    c23 8838   2.266   5.578   1.310 -0.7307 -0.1973  0.2591
 1817poe    c23 8839   2.238   5.546   1.161  0.0700  0.2484  0.0066
 1817poe     o2 8840   2.103   5.506   1.150  0.2156 -0.1824 -0.2289
 1817poe    c23 8841   2.058   5.516   1.017  0.1026 -0.4283 -0.2083
 1817poe    c23 8842   2.030   5.653   0.952  0.3054 -0.4557 -0.3515
 1817poe     o2 8843   1.913   5.706   1.009  0.1926 -0.6158 -0.4355
 1817poe    c31 8844   1.872   5.820   0.938  0.0356  0.0730  0.7412
 1818poe    c31 8845   0.660   4.153   3.593 -0.4018 -0.2667 -0.3013
 1818poe     o2 8846   0.777   4.174   3.518 -0.5292  0.2267 -0.3666
 1818poe    c23 8847   0.788   4.060   3.436 -0.4679  0.0210 -0.0735
 1818poe    c23 8848   0.898   4.068   3.329 -0.2414  0.5074  0.1907
 1818poe     o2 8849   1.031   4.056   3.375 -0.1695 -0.6953 -0.2820
 1818poe    c23 8850   1.124   4.041   3.270  0.3145  0.9163 -0.1191
 1818poe    c23 8851   1.265   4.046   3.331  0.2202 -0.6708  0.2797
 1818poe     o2 8852   1.255   3.986   3.458 -0.2760  0.3967  0.7557
 1818poe    c23 8853   1.385   3.974   3.511  0.0529 -0.0809 -0.1283
 1818poe    c23 8854   1.386   3.899   3.646 -0.0043  0.1378 -0.0045
 1818poe     o2 8855   1.273   3.942   3.717 -0.4667 -0.2535 -0.4939
 1818poe    c31 8856   1.329   4.027   3.815 -0.0790 -0.6313 -0.3869
 1819poe    c31 8857   4.840   6.540   0.932 -0.6454  0.3027  0.2962
 1819poe     o2 8858   4.747   6.590   0.840  0.0033  0.7708 -0.1114
 1819poe    c23 8859   4.653   6.487   0.819  0.9471 -0.1150 -0.0703
 1819poe    c23 8860   4.583   6.515   0.685  0.2538 -0.1439  0.2795
 1819poe     o2 8861   4.496   6.624   0.705  0.1227 -0.1100 -0.4238
 1819poe    c23 8862   4.423   6.654   0.588  0.2001  0.6164 -0.2914
 1819poe    c23 8863   4.346   6.787   0.602 -0.8372 -0.0170  0.1083
 1819poe     o2 8864   4.427   6.897   0.633 -0.7125 -0.0008 -0.2730
 1819poe    c23 8865   4.364   7.022   0.612 -0.4990  0.2132  0.3426
 1819poe    c23 8866   4.434   7.134   0.691  0.1687 -0.1045  0.2042
 1819poe     o2 8867   4.402   7.118   0.827  0.3042  0.0527  0.2548
 1819poe    c31 8868   4.481   7.192   0.917  0.1539  0.3465  0.1466
 1820poe    c31 8869   5.910   2.302   4.858  0.2691  0.0695  0.9506
 1820poe     o2 8870   5.928   2.434   4.811  0.0912 -0.0179  0.6313
 1820poe    c23 8871   5.840   2.513   4.888  0.3432  0.6781  0.2155
 1820poe    c23 8872   5.790   2.644   4.824  0.3002  0.3343 -0.4577
 1820poe     o2 8873   5.883   2.750   4.822  0.3965  0.2549 -0.2920
 1820poe    c23 8874   5.925   2.803   4.945  0.3823 -0.4957  0.0358
 1820poe    c23 8875   6.053   2.889   4.941 -0.0843  0.1866 -0.3366
 1820poe     o2 8876   6.164   2.837   4.872 -0.0566  0.3103 -0.3859
 1820poe    c23 8877   6.286   2.901   4.901  0.2850 -0.3628 -0.3019
 1820poe    c23 8878   6.396   2.799   4.865 -0.1756 -1.2427  0.7403
 1820poe     o2 8879   6.351   2.752   4.740 -0.0820  0.3503  0.0804
 1820poe    c31 8880   6.448   2.702   4.649 -0.3208  0.1084 -0.0419
 1821poe    c31 8881   6.395   6.562   2.711 -0.0832 -0.1615 -0.2344
 1821poe     o2 8882   6.270   6.544   2.649 -0.1110 -0.6909 -0.0278
 1821poe    c23 8883   6.279   6.487   2.520 -0.0869 -0.2786 -0.2088
 1821poe    c23 8884   6.147   6.528   2.453 -0.0156 -0.1359 -0.2615
 1821poe     o2 8885   6.038   6.486   2.532  0.0140 -0.4540 -0.3903
 1821poe    c23 8886   5.913   6.492   2.466  0.1004  0.5297 -0.4786
 1821poe    c23 8887   5.812   6.500   2.583  0.0848 -0.3144 -0.4321
 1821poe     o2 8888   5.846   6.412   2.688  0.1839  0.2180 -0.0145
 1821poe    c23 8889   5.809   6.277   2.669  0.5851  0.1155 -0.0851
 1821poe    c23 8890   5.799   6.181   2.790 -0.1157 -0.3116 -0.4773
 1821poe     o2 8891   5.931   6.172   2.838 -0.1705 -0.2338 -0.3091
 1821poe    c31 8892   5.949   6.073   2.936 -0.1312 -0.1397 -0.2217
 1822poe    c31 8893   1.089   7.007   4.793  0.0378 -0.1304 -0.4208
 1822poe     o2 8894   0.948   7.002   4.785 -0.0233 -0.3145  0.6096
 1822poe    c23 8895   0.899   6.926   4.893  0.0663  0.2862  1.0745
 1822poe    c23 8896   0.746   6.915   4.882  0.1821 -0.3256 -0.0408
 1822poe     o2 8897   0.674   7.034   4.908  0.2444 -0.2025 -0.4274
 1822poe    c23 8898   0.538   7.035   4.873  0.1401  0.2397 -0.0090
 1822poe    c23 8899   0.494   7.183   4.866 -0.2314  0.1187 -0.2770
 1822poe     o2 8900   0.560   7.256   4.765  0.5076  0.2497  0.2880
 1822poe    c23 8901   0.534   7.394   4.779 -1.0321  0.0160 -0.0494
 1822poe    c23 8902   0.594   7.446   4.648  0.1097 -0.6437  0.1899
 1822poe     o2 8903   0.734   7.458   4.647  0.0584  0.0221 -0.6795
 1822poe    c31 8904   0.770   7.593   4.665  0.1951 -0.0227 -0.6166
 1823poe    c31 8905   0.977   4.117   5.551  0.3207 -0.3383  0.5769
 1823poe     o2 8906   1.043   4.226   5.612 -0.0623 -0.1920  0.7281
 1823poe    c23 8907   0.954   4.307   5.686 -0.3223  0.4386 -0.2571
 1823poe    c23 8908   0.991   4.457   5.673 -0.6018  0.5883  0.6394
 1823poe     o2 8909   1.130   4.451   5.693 -0.6078  0.2643  0.6003
 1823poe    c23 8910   1.196   4.573   5.664 -0.1251 -0.1207  0.0526
 1823poe    c23 8911   1.326   4.584   5.746 -0.0596 -0.4708 -0.0025
 1823poe     o2 8912   1.388   4.460   5.719 -0.1236 -0.4190 -0.3941
 1823poe    c23 8913   1.518   4.474   5.772  0.1050 -0.3548 -0.9681
 1823poe    c23 8914   1.576   4.332   5.758  0.2314 -0.4438  0.3391
 1823poe     o2 8915   1.591   4.289   5.625 -0.3138 -0.2126  0.2015
 1823poe    c31 8916   1.666   4.170   5.621  0.2758  0.1774 -0.5231
 1824poe    c31 8917   1.302   6.027   2.309 -0.0825  0.5066 -0.2066
 1824poe     o2 8918   1.220   5.937   2.237 -0.1027  0.1699  0.2359
 1824poe    c23 8919   1.241   5.949   2.098 -0.3818 -0.0873  0.1703
 1824poe    c23 8920   1.126   5.869   2.033 -0.5789  0.1207  0.2593
 1824poe     o2 8921   1.107   5.757   2.116 -0.4936 -0.3419 -0.3480
 1824poe    c23 8922   0.996   5.677   2.082 -0.8128  0.0669 -0.2712
 1824poe    c23 8923   1.012   5.532   2.134 -0.1753  0.2791  0.1428
 1824poe     o2 8924   1.059   5.524   2.267  0.2979  0.2297 -0.0276
 1824poe    c23 8925   1.063   5.395   2.325  0.3997  0.0555 -0.4141
 1824poe    c23 8926   1.096   5.407   2.475 -0.0079  0.5099 -0.3580
 1824poe     o2 8927   1.233   5.428   2.502  0.0177 -0.1473  0.0312
 1824poe    c31 8928   1.269   5.416   2.638  0.2194 -0.2282 -0.0287
 1825poe    c31 8929   2.166   0.001   6.117  0.5851 -0.0768  0.0113
 1825poe     o2 8930   2.079  -0.104   6.150  0.4067  0.1447  0.2542
 1825poe    c23 8931   1.964  -0.057   6.216  0.3342 -0.0362  0.2596
 1825poe    c23 8932   1.859  -0.157   6.267  0.4703 -0.5053 -0.3714
 1825poe     o2 8933   1.911  -0.248   6.361  0.0271  0.0205  0.3908
 1825poe    c23 8934   1.820  -0.333   6.427 -0.0078  0.1024  0.4497
 1825poe    c23 8935   1.898  -0.409   6.535 -0.5160 -0.6195  0.3211
 1825poe     o2 8936   2.011  -0.477   6.484 -0.1560  0.3301 -0.1875
 1825poe    c23 8937   2.123  -0.458   6.567  0.2127 -0.0919 -0.5855
 1825poe    c23 8938   2.148  -0.570   6.670  0.5686  0.2219 -0.3299
 1825poe     o2 8939   2.154  -0.697   6.611 -0.5961  0.1027 -0.2263
 1825poe    c31 8940   2.143  -0.811   6.693  0.2666  0.3488  0.2454
 1826poe    c31 8941   1.329   1.376   1.939  0.6812 -0.0457 -0.5123
 1826poe     o2 8942   1.344   1.488   2.024  0.5650 -0.0271 -0.5160
 1826poe    c23 8943   1.284   1.595   1.955 -0.3456 -0.1802  0.0269
 1826poe    c23 8944   1.228   1.683   2.068 -0.5148  0.4164 -0.5159
 1826poe     o2 8945   1.321   1.688   2.174 -0.8227  0.5438 -0.2492
 1826poe    c23 8946   1.284   1.753   2.294 -0.0316  0.2858  0.1392
 1826poe    c23 8947   1.414   1.740   2.376  0.2506  0.6464 -0.2458
 1826poe     o2 8948   1.459   1.607   2.384  0.7024  0.8121 -0.0418
 1826poe    c23 8949   1.550   1.583   2.490 -0.1765  0.7266  0.7069
 1826poe    c23 8950   1.553   1.446   2.561 -0.3882 -0.1301 -0.8782
 1826poe     o2 8951   1.537   1.339   2.471 -0.1272 -0.5232 -0.4626
 1826poe    c31 8952   1.542   1.219   2.545  0.1064 -0.1924  0.0665
 1827poe    c31 8953   0.440   4.285   4.601 -0.3045  0.2011  0.0327
 1827poe     o2 8954   0.482   4.401   4.669 -0.2949  0.0525  0.2844
 1827poe    c23 8955   0.553   4.368   4.786 -0.3235  0.0276  0.2944
 1827poe    c23 8956   0.562   4.504   4.859  0.4650  0.2330 -0.1744
 1827poe     o2 8957   0.590   4.610   4.772 -0.3183  0.2297 -0.4371
 1827poe    c23 8958   0.619   4.727   4.845 -0.2819 -0.1341  0.1383
 1827poe    c23 8959   0.684   4.832   4.752 -0.8471  0.2578  0.1823
 1827poe     o2 8960   0.615   4.836   4.629 -0.1910 -0.1117 -0.1990
 1827poe    c23 8961   0.677   4.880   4.510  0.2608 -0.3023 -0.0391
 1827poe    c23 8962   0.686   5.033   4.495  0.5425 -0.3004  0.1468
 1827poe     o2 8963   0.794   5.097   4.560  0.7806 -0.2480 -0.2934
 1827poe    c31 8964   0.784   5.236   4.542 -0.2286 -0.3301 -0.4180
 1828poe    c31 8965   4.028   5.421   6.187 -0.2589 -0.1641  0.0715
 1828poe     o2 8966   3.919   5.506   6.215  0.0511  0.2783 -0.0550
 1828poe    c23 8967   3.804   5.452   6.154  0.2490  0.3974 -0.5319
 1828poe    c23 8968   3.700   5.420   6.263 -0.2549  0.6253 -0.9390
 1828poe     o2 8969   3.685   5.540   6.336  0.3514 -0.0014  0.2535
 1828poe    c23 8970   3.602   5.522   6.448 -0.0421  0.6630  0.0777
 1828poe    c23 8971   3.632   5.641   6.541  0.2979  0.9893 -0.4525
 1828poe     o2 8972   3.772   5.640   6.556  0.2935  0.1279 -0.4457
 1828poe    c23 8973   3.827   5.764   6.592 -0.0504  0.0043  0.5321
 1828poe    c23 8974   3.973   5.755   6.543 -0.2292  0.2144 -0.0465
 1828poe     o2 8975   3.970   5.710   6.409 -0.2612  0.1320 -0.0187
 1828poe    c31 8976   4.100   5.733   6.359 -0.0437  0.3532  0.6379
 1829poe    c31 8977   2.934   2.022   3.777  0.2585 -0.2065 -0.0037
 1829poe     o2 8978   3.047   1.952   3.730  0.2395 -0.2185 -0.0315
 1829poe    c23 8979   3.169   2.004   3.775 -0.0079  0.0501  0.3365
 1829poe    c23 8980   3.279   1.904   3.733  0.1043  0.4711 -0.3886
 1829poe     o2 8981   3.252   1.863   3.601 -0.0722 -0.3500 -0.1017
 1829poe    c23 8982   3.368   1.801   3.549  0.1208 -0.1796  0.1247
 1829poe    c23 8983   3.333   1.709   3.431 -0.0534 -0.1539  0.1558
 1829poe     o2 8984   3.256   1.592   3.449 -0.2781 -0.0351 -0.0278
 1829poe    c23 8985   3.192   1.536   3.337 -0.2546  0.1840 -0.1510
 1829poe    c23 8986   3.096   1.421   3.373 -0.3987  0.2318 -0.3769
 1829poe     o2 8987   2.981   1.475   3.433 -0.0004  0.6101  0.0485
 1829poe    c31 8988   2.879   1.384   3.465  0.4761  0.1610  0.3060
 1830poe    c31 8989   1.766   4.851   6.786  0.2578  0.5573  0.0774
 1830poe     o2 8990   1.728   4.980   6.827 -0.6665  0.1836  0.4447
 1830poe    c23 8991   1.848   5.045   6.865 -0.7758  0.3235  0.5574
 1830poe    c23 8992   1.850   5.199   6.868  0.1475  0.3448 -0.3804
 1830poe     o2 8993   1.812   5.271   6.982  0.4396  0.2168 -0.2006
 1830poe    c23 8994   1.883   5.392   6.966  0.3479  0.2295 -0.5011
 1830poe    c23 8995   1.815   5.508   7.041 -0.3490 -0.1654 -0.5080
 1830poe     o2 8996   1.703   5.565   6.977 -0.2465  0.5341 -0.0740
 1830poe    c23 8997   1.644   5.660   7.063 -0.5405 -0.0381  0.3603
 1830poe    c23 8998   1.517   5.713   6.994 -0.5026  0.1305  0.4198
 1830poe     o2 8999   1.426   5.605   6.997 -0.1126 -0.2227 -0.4680
 1830poe    c31 9000   1.303   5.664   6.962 -0.1528  0.2636  0.4660
 1831poe    c31 9001   2.477   1.749   3.915 -0.0806 -0.3927  0.7357
 1831poe     o2 9002   2.582   1.674   3.972 -0.0845 -0.7633  0.2618
 1831poe    c23 9003   2.671   1.633   3.871 -0.4612 -0.3654 -0.2343
 1831poe    c23 9004   2.809   1.651   3.938 -0.5783 -0.2565 -0.0206
 1831poe     o2 9005   2.810   1.579   4.059 -0.4962  0.2615  0.2865
 1831poe    c23 9006   2.934   1.561   4.125 -0.3426  0.2504 -0.0051
 1831poe    c23 9007   2.921   1.486   4.258  0.0244  0.7666  0.3262
 1831poe     o2 9008   2.802   1.526   4.322 -0.4641  0.3028 -0.2779
 1831poe    c23 9009   2.792   1.476   4.454 -0.1611 -0.1508 -0.4244
 1831poe    c23 9010   2.664   1.513   4.531 -0.1545 -0.6627 -0.1639
 1831poe     o2 9011   2.555   1.448   4.471 -0.3522 -0.0774 -0.4510
 1831poe    c31 9012   2.494   1.361   4.565 -0.2619 -0.0428 -0.3602
 1832poe    c31 9013   0.363   1.469   5.310 -0.1742 -0.0201  0.0535
 1832poe     o2 9014   0.380   1.589   5.382 -0.1322  0.1571 -0.2501
 1832poe    c23 9015   0.299   1.594   5.498  0.0435 -0.3381 -0.1001
 1832poe    c23 9016   0.355   1.662   5.624 -0.1239 -0.5807  0.1036
 1832poe     o2 9017   0.256   1.698   5.719 -0.0136  0.2336 -0.0811
 1832poe    c23 9018   0.310   1.782   5.818 -0.2635 -0.1712  0.4026
 1832poe    c23 9019   0.243   1.778   5.957  0.3737 -0.6373  0.7022
 1832poe     o2 9020   0.108   1.817   5.962  0.4401 -0.3314  0.2352
 1832poe    c23 9021   0.061   1.810   6.095  0.0168 -0.3037  0.0874
 1832poe    c23 9022  -0.061   1.900   6.123  0.0678 -0.0700 -0.4299
 1832poe     o2 9023  -0.159   1.869   6.026 -0.0678 -0.0752 -0.2898
 1832poe    c31 9024  -0.244   1.979   5.999 -0.4236 -0.1659  0.4163
 1833poe    c31 9025   4.032   5.185   6.458 -0.0712  0.0373 -0.1151
 1833poe     o2 9026   4.120   5.168   6.566  0.4485  0.3140 -0.4882
 1833poe    c23 9027   4.116   5.040   6.624 -0.2711  0.3101 -0.5257
 1833poe    c23 9028   4.146   5.055   6.775 -0.2029  0.4687 -0.5549
 1833poe     o2 9029   4.275   5.100   6.810 -0.0917 -0.2246 -0.0594
 1833poe    c23 9030   4.306   5.040   6.934 -0.1008  1.0068  0.5485
 1833poe    c23 9031   4.449   5.083   6.971  0.2065  0.3836  0.0953
 1833poe     o2 9032   4.525   5.070   6.853  0.2646 -0.3741  0.2147
 1833poe    c23 9033   4.647   5.136   6.877 -0.4120  1.2635 -0.6608
 1833poe    c23 9034   4.744   5.092   6.765  0.3976 -0.2583  0.5929
 1833poe     o2 9035   4.684   5.123   6.642  0.1994 -0.5364  0.6191
 1833poe    c31 9036   4.772   5.182   6.548 -0.2593 -0.1979  0.3952
 1834poe    c31 9037   6.236   5.666   5.491 -0.0325  0.4811  0.1825
 1834poe     o2 9038   6.310   5.733   5.591  0.8273  0.3328 -0.3374
 1834poe    c23 9039   6.264   5.867   5.589 -0.0479  0.0664  0.7988
 1834poe    c23 9040   6.357   5.948   5.681  0.0233  1.3091 -0.3489
 1834poe     o2 9041   6.491   5.906   5.667 -0.2653  0.2628 -0.0640
 1834poe    c23 9042   6.585   5.974   5.747 -0.1231 -0.1238  0.0996
 1834poe    c23 9043   6.728   5.952   5.696 -0.2913  0.0867 -0.4660
 1834poe     o2 9044   6.772   5.818   5.705 -0.4175  0.0596 -0.2646
 1834poe    c23 9045   6.901   5.801   5.652 -0.3363  0.2484 -0.1267
 1834poe    c23 9046   6.932   5.657   5.608 -0.1859  0.3888 -0.4890
 1834poe     o2 9047   6.832   5.607   5.522 -0.2051 -0.6865  0.1334
 1834poe    c31 9048   6.848   5.479   5.466 -0.0883 -0.5471 -0.1544
 1835poe    c31 9049   5.705   4.414   6.844 -0.1996  0.4655  0.2122
 1835poe     o2 9050   5.681   4.463   6.715 -0.6113  0.3283  0.2349
 1835poe    c23 9051   5.777   4.561   6.680 -0.1778 -0.0401  0.3906
 1835poe    c23 9052   5.741   4.600   6.536  0.0934 -0.0310  0.3253
 1835poe     o2 9053   5.602   4.584   6.517 -0.0333  1.0927  0.2700
 1835poe    c23 9054   5.553   4.638   6.397  0.0673 -0.2204 -0.3767
 1835poe    c23 9055   5.405   4.605   6.372 -0.1341 -0.0699  0.5821
 1835poe     o2 9056   5.390   4.465   6.368 -0.0555 -0.0594 -0.7244
 1835poe    c23 9057   5.259   4.416   6.358 -0.1593  0.1522 -0.4172
 1835poe    c23 9058   5.258   4.267   6.319 -0.7862  0.0845 -0.1556
 1835poe     o2 9059   5.315   4.185   6.418 -0.3462 -0.0050 -0.4832
 1835poe    c31 9060   5.306   4.050   6.377 -1.0910 -0.2141  0.3373
 1836poe    c31 9061   2.153   5.514   6.646 -0.6903 -0.2304 -0.0382
 1836poe     o2 9062   2.160   5.524   6.787 -0.4762 -0.8815 -0.0031
 1836poe    c23 9063   2.270   5.457   6.845  0.2516  0.4750  0.2193
 1836poe    c23 9064   2.260   5.444   6.999  0.2448 -0.4091  0.1519
 1836poe     o2 9065   2.298   5.559   7.072  0.1937 -0.3302  0.0558
 1836poe    c23 9066   2.301   5.537   7.211  0.0082  0.0658  0.1236
 1836poe    c23 9067   2.349   5.667   7.278  0.4696 -0.2060  0.3239
 1836poe     o2 9068   2.300   5.776   7.204  0.2843 -0.1754  0.4913
 1836poe    c23 9069   2.361   5.895   7.249  0.2130  0.3154 -0.6750
 1836poe    c23 9070   2.300   6.003   7.157 -0.3076  0.1827 -0.4882
 1836poe     o2 9071   2.285   5.946   7.029 -0.2441  0.1071 -0.4624
 1836poe    c31 9072   2.240   6.054   6.949 -0.5397  0.0649 -0.3521
 1837poe    c31 9073   2.068   0.191   2.374  0.3105  0.2169  0.2410
 1837poe     o2 9074   2.115   0.079   2.445 -0.2854 -0.3087 -0.1889
 1837poe    c23 9075   2.105  -0.026   2.351 -0.4514  0.0265 -0.5468
 1837poe    c23 9076   2.131  -0.165   2.412 -0.0088  0.1968 -0.3483
 1837poe     o2 9077   2.259  -0.210   2.449 -0.2493 -0.1873  0.0235
 1837poe    c23 9078   2.250  -0.346   2.484 -0.8942 -0.2259 -0.2839
 1837poe    c23 9079   2.382  -0.416   2.521 -0.5155  0.3830 -0.4812
 1837poe     o2 9080   2.460  -0.346   2.615  0.0245 -0.5502 -0.2184
 1837poe    c23 9081   2.561  -0.425   2.674  0.1586 -0.2474 -0.0400
 1837poe    c23 9082   2.696  -0.351   2.663  0.1875 -0.3051 -0.0743
 1837poe     o2 9083   2.748  -0.302   2.542 -0.1642 -0.2335 -0.1967
 1837poe    c31 9084   2.817  -0.401   2.468  0.2297 -0.4619  0.4690
 1838poe    c31 9085   1.929   0.382   3.620  0.3177 -0.3752  0.2990
 1838poe     o2 9086   1.952   0.243   3.626 -0.2011 -0.4713  0.0516
 1838poe    c23 9087   2.079   0.195   3.589  0.2553  0.4774  0.3647
 1838poe    c23 9088   2.171   0.154   3.706  0.8248 -0.4431 -0.3857
 1838poe     o2 9089   2.129   0.052   3.794 -0.3020  0.1596 -0.2079
 1838poe    c23 9090   2.113  -0.074   3.734 -0.3789  0.1555 -0.1795
 1838poe    c23 9091   2.056  -0.183   3.826  0.1449  0.3415  0.3683
 1838poe     o2 9092   1.936  -0.138   3.885 -0.1498 -0.0264  0.0578
 1838poe    c23 9093   1.903  -0.222   3.994  0.2511 -0.6037 -0.2616
 1838poe    c23 9094   1.749  -0.207   3.998  0.3538  0.3006  0.5388
 1838poe     o2 9095   1.712  -0.071   3.998 -0.2489  0.1370 -0.0264
 1838poe    c31 9096   1.571  -0.063   4.007 -0.2411  0.5775 -0.2606
 1839poe    c31 9097   6.758   6.389   6.690 -0.4527 -0.2031 -0.0474
 1839poe     o2 9098   6.882   6.384   6.624 -0.4489  0.0492 -0.0615
 1839poe    c23 9099   6.896   6.296   6.514 -0.0717  0.3948 -0.2961
 1839poe    c23 9100   7.036   6.309   6.452  0.2278  0.0846  0.3014
 1839poe     o2 9101   7.051   6.447   6.423  0.2524  0.0567  0.1771
 1839poe    c23 9102   7.182   6.483   6.384  0.0599  0.1946 -0.3456
 1839poe    c23 9103   7.199   6.630   6.342 -0.2277  0.0943 -0.8182
 1839poe     o2 9104   7.111   6.715   6.411 -0.7206 -0.5254 -0.6679
 1839poe    c23 9105   7.125   6.851   6.377 -0.4727 -0.1981  0.6920
 1839poe    c23 9106   6.990   6.923   6.387 -0.1900  0.5382 -0.5290
 1839poe     o2 9107   6.920   6.868   6.497  0.5190  0.3058 -0.1920
 1839poe    c31 9108   6.837   6.954   6.570  0.2266  0.8993 -1.2026
 1840poe    c31 9109   6.505   5.491   2.114 -0.7108  0.1122  0.0813
 1840poe     o2 9110   6.514   5.363   2.057  0.1641  0.1153  0.1974
 1840poe    c23 9111   6.388   5.312   2.020 -0.2282  0.5921  0.8487
 1840poe    c23 9112   6.409   5.176   1.949 -0.1379  0.6267  0.8088
 1840poe     o2 9113   6.432   5.073   2.041 -0.3256  0.3926  0.5947
 1840poe    c23 9114   6.477   4.954   1.980 -0.2344  0.6315  0.1953
 1840poe    c23 9115   6.511   4.837   2.074  0.0717 -0.2062 -0.9425
 1840poe     o2 9116   6.632   4.853   2.144 -0.1385 -0.5487 -0.4968
 1840poe    c23 9117   6.681   4.739   2.211  0.2187 -0.0163  0.1725
 1840poe    c23 9118   6.692   4.778   2.359 -0.0913 -0.0529  0.2067
 1840poe     o2 9119   6.740   4.910   2.367 -0.0437 -0.0679  0.1784
 1840poe    c31 9120   6.744   4.946   2.503 -0.4978 -0.1707  0.2211
 1841poe    c31 9121   5.593   4.392   1.651 -0.3192 -0.1327  0.5156
 1841poe     o2 9122   5.549   4.525   1.667 -0.2579 -0.0525  0.0105
 1841poe    c23 9123   5.420   4.529   1.722 -0.4105  0.2642 -0.3642
 1841poe    c23 9124   5.382   4.676   1.747 -0.1074  0.4124 -0.7618
 1841poe     o2 9125   5.467   4.741   1.839  0.0446 -0.4527 -0.2808
 1841poe    c23 9126   5.455   4.881   1.846  0.4108 -0.4312 -0.0743
 1841poe    c23 9127   5.559   4.934   1.946 -0.0492  0.7687 -0.2139
 1841poe     o2 9128   5.697   4.928   1.915 -0.0058  0.0769  0.0999
 1841poe    c23 9129   5.768   4.827   1.983  0.0847 -0.0240 -0.1426
 1841poe    c23 9130   5.910   4.812   1.926 -0.0342  0.0290 -0.4535
 1841poe     o2 9131   5.958   4.945   1.923  0.2151 -0.0399  0.2108
 1841poe    c31 9132   6.098   4.938   1.913  0.2449  0.2389  0.4217
 1842poe    c31 9133   1.234   1.087   4.364 -0.3081  0.4294 -0.2567
 1842poe     o2 9134   1.355   1.022   4.394 -0.4502  0.1504 -0.2939
 1842poe    c23 9135   1.391   1.052   4.527 -0.4481 -0.1473 -0.2259
 1842poe    c23 9136   1.506   0.952   4.552 -0.3136  0.0570 -0.0296
 1842poe     o2 9137   1.621   1.000   4.486 -0.4409 -0.0337 -0.3180
 1842poe    c23 9138   1.725   0.925   4.545 -0.4351 -0.1102 -0.4255
 1842poe    c23 9139   1.855   1.006   4.559 -0.1057 -0.6386 -0.3951
 1842poe     o2 9140   1.883   1.044   4.426  0.1520  0.0117 -0.1621
 1842poe    c23 9141   2.004   1.115   4.430  0.3159 -0.2768  0.0724
 1842poe    c23 9142   2.066   1.176   4.302  0.1505 -0.2140  0.0229
 1842poe     o2 9143   2.003   1.297   4.267  0.1020 -0.2649 -0.0640
 1842poe    c31 9144   2.068   1.348   4.152 -0.0127 -0.1987 -0.1005
 1843poe    c31 9145   5.669   4.816   2.967 -0.8298  0.2132  0.1746
 1843poe     o2 9146   5.564   4.766   2.888 -0.0770  0.1633 -0.8227
 1843poe    c23 9147   5.510   4.648   2.942  0.8061  0.1698  0.1012
 1843poe    c23 9148   5.580   4.523   2.885  0.0460 -0.2572  0.0840
 1843poe     o2 9149   5.529   4.492   2.757  0.3933  0.0035 -0.1197
 1843poe    c23 9150   5.575   4.370   2.706  0.2596 -0.2969  0.4722
 1843poe    c23 9151   5.678   4.389   2.593  0.0804 -0.3609  0.2985
 1843poe     o2 9152   5.635   4.464   2.481  0.3116 -0.4649  0.1383
 1843poe    c23 9153   5.578   4.386   2.379  0.2096  0.3494 -0.4356
 1843poe    c23 9154   5.509   4.464   2.265 -0.2126  0.1086 -0.3450
 1843poe     o2 9155   5.606   4.539   2.195 -0.0987  0.4483  0.1717
 1843poe    c31 9156   5.560   4.552   2.063 -0.1290 -0.1568  0.1168
 1844poe    c31 9157   1.399   4.092   4.658 -0.6916 -0.2856  0.2444
 1844poe     o2 9158   1.300   4.192   4.662 -0.3952  0.0250 -0.1041
 1844poe    c23 9159   1.192   4.155   4.744  0.1740 -0.4581  0.4357
 1844poe    c23 9160   1.063   4.235   4.718  0.5198  0.0513  0.2891
 1844poe     o2 9161   1.069   4.375   4.737 -0.1124  0.1175  0.0276
 1844poe    c23 9162   0.955   4.437   4.681  0.2500 -0.0012 -0.8737
 1844poe    c23 9163   0.983   4.588   4.694 -0.5351  0.0478  0.4907
 1844poe     o2 9164   1.020   4.608   4.829 -0.1413  0.0242  0.3878
 1844poe    c23 9165   1.048   4.739   4.874 -0.0532  0.1640 -0.0654
 1844poe    c23 9166   1.099   4.733   5.019 -0.1682  0.0232 -0.0314
 1844poe     o2 9167   1.183   4.620   5.009 -0.3687 -0.1269 -0.0353
 1844poe    c31 9168   1.249   4.619   5.134  0.0314 -0.4935 -0.2483
 1845poe    c31 9169   2.362   2.437   2.125  0.0506  0.0103  0.1709
 1845poe     o2 9170   2.228   2.446   2.167  0.2491 -0.0231  0.8346
 1845poe    c23 9171   2.188   2.579   2.193  0.2101  0.1232  0.0503
 1845poe    c23 9172   2.041   2.569   2.237  0.3051 -0.5059  0.2298
 1845poe     o2 9173   1.953   2.511   2.143 -0.3499  0.5228  0.1970
 1845poe    c23 9174   1.823   2.527   2.194 -0.5101 -0.0790 -0.0167
 1845poe    c23 9175   1.718   2.548   2.084 -0.2137  0.2970 -0.2292
 1845poe     o2 9176   1.746   2.440   1.998 -0.1462  0.2827 -0.1887
 1845poe    c23 9177   1.629   2.392   1.936 -0.1603  0.2242 -0.1164
 1845poe    c23 9178   1.667   2.253   1.881 -0.0872  0.0862  0.2801
 1845poe     o2 9179   1.797   2.272   1.832 -0.0970 -0.3971  0.0639
 1845poe    c31 9180   1.830   2.193   1.720 -0.4674  0.0059 -0.3323
 1846poe    c31 9181   2.326   5.877   3.290  0.7376  0.1716 -0.0559
 1846poe     o2 9182   2.262   5.779   3.369  0.0250  0.1141 -0.6883
 1846poe    c23 9183   2.218   5.670   3.291 -0.7885  0.4868 -0.7638
 1846poe    c23 9184   2.134   5.580   3.383  0.9966 -0.9703 -0.5030
 1846poe     o2 9185   2.214   5.568   3.499 -0.4314  0.3381  0.6661
 1846poe    c23 9186   2.170   5.458   3.575 -0.1823  0.2015  0.6167
 1846poe    c23 9187   2.234   5.468   3.714  0.4105 -0.2242  0.3764
 1846poe     o2 9188   2.208   5.591   3.778 -0.4485 -0.1649 -0.0743
 1846poe    c23 9189   2.136   5.584   3.899 -0.5844 -0.5894 -0.1800
 1846poe    c23 9190   2.072   5.723   3.914  0.1012 -0.2620 -0.2708
 1846poe     o2 9191   2.172   5.823   3.909 -0.0602 -0.0598  0.3974
 1846poe    c31 9192   2.108   5.944   3.943  0.6728  0.4089  0.1448
 1847poe    c31 9193   0.624   4.561   2.790  0.1217 -0.0066  0.7648
 1847poe     o2 9194   0.658   4.432   2.746  0.0210  0.4039 -0.5808
 1847poe    c23 9195   0.552   4.351   2.793 -0.0763  0.6569 -0.3643
 1847poe    c23 9196   0.552   4.207   2.739 -0.4276  0.6233 -0.2754
 1847poe     o2 9197   0.668   4.144   2.787 -0.5872  0.2971 -0.3150
 1847poe    c23 9198   0.681   4.004   2.775  0.4424  0.3762 -0.2275
 1847poe    c23 9199   0.778   3.967   2.888  0.6205 -0.2063 -0.5658
 1847poe     o2 9200   0.882   4.062   2.885  0.3797  0.0691 -0.1997
 1847poe    c23 9201   0.989   4.003   2.955  0.3891 -0.3929 -0.6042
 1847poe    c23 9202   1.117   4.083   2.924  0.1239  0.1175 -0.3857
 1847poe     o2 9203   1.088   4.218   2.953 -0.0009 -0.0820  0.4468
 1847poe    c31 9204   1.201   4.300   2.936  0.0861 -0.3906 -0.5068
 1848poe    c31 9205   1.766   0.159   4.333  0.1718  0.2332  0.0297
 1848poe     o2 9206   1.788   0.249   4.440  0.0395 -0.0934  0.3350
 1848poe    c23 9207   1.738   0.380   4.418 -0.9117 -0.4890  0.0983
 1848poe    c23 9208   1.770   0.477   4.532  0.4679 -0.4810 -0.2796
 1848poe     o2 9209   1.904   0.460   4.573  0.2732 -1.0486  0.1350
 1848poe    c23 9210   1.916   0.494   4.709  0.1639  0.0624 -0.1270
 1848poe    c23 9211   2.069   0.507   4.709  0.1599  0.1102 -0.0857
 1848poe     o2 9212   2.109   0.397   4.630  0.0084 -0.3542  0.4782
 1848poe    c23 9213   2.244   0.358   4.626  0.0284 -0.2317 -0.2290
 1848poe    c23 9214   2.309   0.321   4.761  0.5330  0.0804 -0.3828
 1848poe     o2 9215   2.351   0.437   4.829  0.0661 -0.0471  0.1234
 1848poe    c31 9216   2.412   0.406   4.952  0.2153 -0.6255 -0.0933
 1849poe    c31 9217   5.920   3.580   3.277  0.4133  0.1715 -0.8494
 1849poe     o2 9218   5.935   3.659   3.392 -0.3341 -0.1082 -0.5507
 1849poe    c23 9219   5.890   3.580   3.500  0.3153 -0.5069 -0.5635
 1849poe    c23 9220   5.943   3.621   3.639  0.1029 -0.3574 -0.5253
 1849poe     o2 9221   6.084   3.627   3.633  0.1314 -0.2759  0.1759
 1849poe    c23 9222   6.135   3.692   3.747 -0.0654  0.1251  0.0373
 1849poe    c23 9223   6.284   3.731   3.745 -0.1694  0.5974  0.8075
 1849poe     o2 9224   6.321   3.818   3.640 -0.3307 -0.5001 -0.1895
 1849poe    c23 9225   6.459   3.845   3.628 -0.4450  0.1963  0.0490
 1849poe    c23 9226   6.476   3.952   3.518 -0.4579  0.2775  0.1255
 1849poe     o2 9227   6.397   3.908   3.410 -0.7378 -0.2147  0.5230
 1849poe    c31 9228   6.398   4.001   3.304  0.0872 -0.8040 -0.0029
 1850poe    c31 9229   4.927   6.246   3.053  0.1626 -0.0906 -0.0151
 1850poe     o2 9230   5.054   6.217   2.999  0.0674 -0.3193 -0.1150
 1850poe    c23 9231   5.053   6.118   2.898  0.1883 -0.3446 -0.0909
 1850poe    c23 9232   5.187   6.093   2.827  0.1415 -0.1056 -0.2659
 1850poe     o2 9233   5.232   6.211   2.764 -0.3091  0.0861 -0.2299
 1850poe    c23 9234   5.345   6.181   2.685 -0.1484  0.4813 -0.1521
 1850poe    c23 9235   5.371   6.300   2.592  0.0820  0.0833 -0.6020
 1850poe     o2 9236   5.412   6.409   2.671  0.3878  0.1767 -0.8902
 1850poe    c23 9237   5.434   6.527   2.597  0.1403  0.4072 -0.5967
 1850poe    c23 9238   5.451   6.659   2.675 -0.3530  0.0589  0.1111
 1850poe     o2 9239   5.334   6.683   2.750 -0.3729  0.4445 -0.0419
 1850poe    c31 9240   5.354   6.743   2.876  0.0718  0.3214 -0.0517
 1851poe    c31 9241   6.606   4.822   3.416  0.6314 -0.2177  0.2582
 1851poe     o2 9242   6.573   4.851   3.550  0.6744  0.3187  0.1542
 1851poe    c23 9243   6.433   4.841   3.569  0.7979 -0.1073  0.8949
 1851poe    c23 9244   6.412   4.881   3.716  0.0988  0.2384  0.7054
 1851poe     o2 9245   6.510   4.824   3.799  0.6068 -0.0676 -0.0883
 1851poe    c23 9246   6.466   4.811   3.933  0.6526  0.3395 -0.0337
 1851poe    c23 9247   6.539   4.699   4.010 -0.3144 -0.0590  0.3223
 1851poe     o2 9248   6.480   4.574   3.983  0.2448 -0.1914 -0.3151
 1851poe    c23 9249   6.478   4.489   4.096 -0.1814 -0.0267 -0.2001
 1851poe    c23 9250   6.438   4.350   4.045 -0.0549 -0.1181 -0.0505
 1851poe     o2 9251   6.314   4.293   4.079 -0.1259 -0.1124 -0.2924
 1851poe    c31 9252   6.320   4.160   4.034  0.3792 -0.0355 -0.4558
 1852poe    c31 9253   2.265   4.337   4.470 -0.0467 -0.0150  0.4513
 1852poe     o2 9254   2.389   4.399   4.445 -0.2946  0.5673  0.6534
 1852poe    c23 9255   2.363   4.526   4.389  0.0043  0.3958  0.1222
 1852poe    c23 9256   2.492   4.550   4.309  0.0550 -0.0582  0.0621
 1852poe     o2 9257   2.608   4.523   4.385  0.2078  0.5604  0.0590
 1852poe    c23 9258   2.716   4.585   4.320  0.4766  0.3187  0.2720
 1852poe    c23 9259   2.855   4.533   4.359  0.5763  0.0127 -0.4629
 1852poe     o2 9260   2.873   4.394   4.344  0.3106 -0.2129  1.1092
 1852poe    c23 9261   3.006   4.365   4.304  0.0276 -0.0846  0.0472
 1852poe    c23 9262   3.054   4.219   4.312  0.8463  0.1262 -0.9106
 1852poe     o2 9263   2.973   4.127   4.243 -0.4227  0.2017  0.4400
 1852poe    c31 9264   3.010   4.099   4.110 -0.0679  0.7575  0.4221
 1853poe    c31 9265   2.910   2.394   2.845  0.6252  0.0898  0.1314
 1853poe     o2 9266   2.910   2.526   2.897  0.1704  0.3362 -0.4732
 1853poe    c23 9267   3.032   2.596   2.884  0.3706  0.0492 -0.1859
 1853poe    c23 9268   2.993   2.741   2.922  1.2080  0.1063  0.4825
 1853poe     o2 9269   2.933   2.732   3.049  0.1793 -0.0104  0.0022
 1853poe    c23 9270   2.908   2.859   3.103 -0.2064 -0.0885  0.0063
 1853poe    c23 9271   2.822   2.826   3.226 -0.0245 -0.3216  0.0712
 1853poe     o2 9272   2.720   2.736   3.191 -0.3244 -0.1326  0.4440
 1853poe    c23 9273   2.618   2.740   3.288 -0.0775 -0.3189  0.7132
 1853poe    c23 9274   2.482   2.672   3.265 -0.2063  0.2067 -0.1508
 1853poe     o2 9275   2.413   2.730   3.157 -0.4813  0.8949  0.3876
 1853poe    c31 9276   2.298   2.649   3.146  0.3665 -0.3374  0.3679
 1854poe    c31 9277   6.445   6.004   3.947 -0.3927  0.3159  0.2254
 1854poe     o2 9278   6.394   6.079   3.839 -0.2490  0.0387 -0.0372
 1854poe    c23 9279   6.494   6.116   3.747  0.1411 -0.4604  0.1800
 1854poe    c23 9280   6.439   6.213   3.641  0.3750 -0.7022 -0.1686
 1854poe     o2 9281   6.316   6.162   3.595  0.3195 -0.0941 -0.7052
 1854poe    c23 9282   6.256   6.231   3.487 -0.0873  0.1269 -0.3421
 1854poe    c23 9283   6.140   6.142   3.440  0.2461 -0.3845 -0.2103
 1854poe     o2 9284   6.078   6.074   3.547  0.2779 -0.8925 -0.5123
 1854poe    c23 9285   5.947   6.046   3.503 -0.0237  0.0930 -0.2656
 1854poe    c23 9286   5.861   5.989   3.618  0.2945 -0.0867 -0.1178
 1854poe     o2 9287   5.939   5.886   3.675  0.1177 -0.2564 -0.1833
 1854poe    c31 9288   5.874   5.805   3.770 -0.4206  0.3931  0.0080
 1855poe    c31 9289   4.488   5.362   0.748 -0.1217  0.6318 -0.4766
 1855poe     o2 9290   4.419   5.315   0.635 -0.1085 -0.1064 -0.1797
 1855poe    c23 9291   4.498   5.325   0.519  0.0003  0.0338 -0.0927
 1855poe    c23 9292   4.419   5.255   0.406  0.3069  0.0712 -0.3326
 1855poe     o2 9293   4.299   5.329   0.399 -0.0132 -0.3713  0.3298
 1855poe    c23 9294   4.204   5.270   0.313 -0.1215  0.6712 -0.2891
 1855poe    c23 9295   4.072   5.334   0.358 -0.2665 -0.2386  0.6135
 1855poe     o2 9296   4.057   5.331   0.498  0.0334  0.2944  0.6551
 1855poe    c23 9297   3.935   5.381   0.548 -0.4344  0.2936 -0.4567
 1855poe    c23 9298   3.916   5.531   0.519 -0.4153  0.4034  0.0831
 1855poe     o2 9299   4.000   5.630   0.573  0.0094  0.2415 -0.2815
 1855poe    c31 9300   3.942   5.749   0.524  0.0590  0.2055 -0.4289
 1856poe    c31 9301   6.226   1.613   2.367 -0.4342  0.8744  0.0157
 1856poe     o2 9302   6.257   1.495   2.295 -0.3660  0.3910  0.8178
 1856poe    c23 9303   6.373   1.424   2.329 -0.3418  0.0663  0.0760
 1856poe    c23 9304   6.496   1.458   2.244 -0.3927  0.3434  0.1139
 1856poe     o2 9305   6.511   1.419   2.109 -0.1534  0.1577  0.1926
 1856poe    c23 9306   6.498   1.286   2.066  0.8382  0.0703  0.1574
 1856poe    c23 9307   6.546   1.278   1.920 -0.6147 -0.0978 -0.3217
 1856poe     o2 9308   6.499   1.157   1.865 -0.4167 -0.3246  0.0039
 1856poe    c23 9309   6.534   1.142   1.729 -0.2488 -0.1475  0.0277
 1856poe    c23 9310   6.476   1.008   1.681 -0.6090 -0.1816  0.5421
 1856poe     o2 9311   6.574   0.911   1.651 -0.6670 -0.1471  0.2368
 1856poe    c31 9312   6.552   0.791   1.722  0.4399 -0.0616  0.7485
 1857poe    c31 9313   0.483   5.766   5.175 -0.2848  0.3677 -0.1433
 1857poe     o2 9314   0.419   5.678   5.085  0.2526 -0.3085  0.1264
 1857poe    c23 9315   0.455   5.705   4.951 -0.1086 -0.1584  0.0593
 1857poe    c23 9316   0.414   5.605   4.841  0.0026  0.0248 -0.1499
 1857poe     o2 9317   0.277   5.620   4.810 -0.0111  0.3963  0.0877
 1857poe    c23 9318   0.265   5.581   4.675  0.2963  0.7106 -0.0325
 1857poe    c23 9319   0.113   5.582   4.649  0.2977 -0.1793 -0.0824
 1857poe     o2 9320   0.065   5.484   4.739  0.5234  0.2106  0.4712
 1857poe    c23 9321  -0.075   5.479   4.722  0.5540 -0.0492  0.2915
 1857poe    c23 9322  -0.151   5.390   4.823 -0.2199  0.3584  0.0796
 1857poe     o2 9323  -0.122   5.433   4.954  0.5553  0.4035 -0.0996
 1857poe    c31 9324  -0.224   5.388   5.041  0.3922 -0.2042 -0.5949
 1858poe    c31 9325   1.641   4.752   0.024 -0.3392 -0.1118 -0.5415
 1858poe     o2 9326   1.538   4.826   0.085 -0.0394 -0.1797  0.0559
 1858poe    c23 9327   1.519   4.958   0.039  0.5387 -0.0238  0.2594
 1858poe    c23 9328   1.373   4.996   0.008  0.6668  0.4261  0.1976
 1858poe     o2 9329   1.297   4.973   0.124  0.9149 -0.4004  0.2044
 1858poe    c23 9330   1.251   5.089   0.191  0.6480 -0.3040 -0.1458
 1858poe    c23 9331   1.214   5.082   0.340  0.1870  0.1252 -0.2358
 1858poe     o2 9332   1.213   5.205   0.407 -0.4153 -0.0261  0.0378
 1858poe    c23 9333   1.112   5.298   0.376  0.0867  0.2811 -0.7038
 1858poe    c23 9334   1.078   5.402   0.484 -0.0197  0.3866 -0.8379
 1858poe     o2 9335   1.183   5.487   0.525  0.3902 -0.2675 -0.5090
 1858poe    c31 9336   1.144   5.595   0.606  0.9421  0.0454 -0.6534
 1859poe    c31 9337   1.095   2.808   2.074 -0.6230 -0.1065 -0.0373
 1859poe     o2 9338   0.965   2.763   2.047 -0.4049 -0.7483 -0.0266
 1859poe    c23 9339   0.941   2.774   1.908 -0.1383  0.2575  0.0009
 1859poe    c23 9340   0.790   2.802   1.904 -0.2096 -0.0537  0.4632
 1859poe     o2 9341   0.727   2.681   1.943  0.0414 -0.3074  0.0915
 1859poe    c23 9342   0.589   2.685   1.915  0.0411 -0.2587  0.0993
 1859poe    c23 9343   0.536   2.604   2.035  0.2144 -0.3848  0.0898
 1859poe     o2 9344   0.589   2.473   2.025  0.0525 -0.4213 -0.3499
 1859poe    c23 9345   0.554   2.394   2.137 -0.2744  0.2478  0.0275
 1859poe    c23 9346   0.619   2.259   2.102 -0.0244  0.2386  0.5269
 1859poe     o2 9347   0.744   2.280   2.040  0.0757  0.1524  0.6990
 1859poe    c31 9348   0.821   2.162   2.041  0.3479  0.3274  0.6500
 1860poe    c31 9349   3.285   6.331   3.620  0.7483  0.1225 -0.2549
 1860poe     o2 9350   3.352   6.207   3.615  0.3840 -0.1186  0.6448
 1860poe    c23 9351   3.278   6.119   3.533 -0.1174  0.2608  0.6819
 1860poe    c23 9352   3.374   6.006   3.491  0.3073  0.5986  0.7287
 1860poe     o2 9353   3.406   5.961   3.620  0.6355  0.6996  0.6838
 1860poe    c23 9354   3.456   5.829   3.624  0.2512  0.5391  0.3142
 1860poe    c23 9355   3.465   5.803   3.776 -0.0669  0.3185  0.2957
 1860poe     o2 9356   3.511   5.918   3.844 -0.0215  0.1869  0.4893
 1860poe    c23 9357   3.497   5.904   3.983 -0.1388 -0.2445  0.4378
 1860poe    c23 9358   3.587   5.991   4.073 -0.1531 -0.1002  0.3126
 1860poe     o2 9359   3.721   5.960   4.043 -0.2699  0.1604 -0.5015
 1860poe    c31 9360   3.776   6.048   3.947  0.2562 -0.1682 -0.5064
 1861poe    c31 9361   3.834   4.561   5.850 -0.3811 -0.7907 -0.6749
 1861poe     o2 9362   3.905   4.458   5.915  0.5038  0.1295 -0.1417
 1861poe    c23 9363   3.826   4.377   6.000  0.3237 -0.2572 -0.6767
 1861poe    c23 9364   3.882   4.266   6.091  0.0314  0.2039  0.0695
 1861poe     o2 9365   3.930   4.317   6.213  0.0175  0.1824  0.0848
 1861poe    c23 9366   4.014   4.235   6.290  0.2973  0.2643 -0.1348
 1861poe    c23 9367   4.105   4.317   6.383 -0.2446  0.7612 -0.0368
 1861poe     o2 9368   4.189   4.408   6.315  0.4617  0.1422 -0.0061
 1861poe    c23 9369   4.258   4.487   6.409 -0.2481  0.2826  0.4067
 1861poe    c23 9370   4.389   4.545   6.352 -0.4768  0.5952  0.2010
 1861poe     o2 9371   4.362   4.624   6.238 -0.5813  0.8027  0.3689
 1861poe    c31 9372   4.474   4.700   6.199 -0.1607  0.1666  0.3269
 1862poe    c31 9373   0.075   1.038   0.382  0.2780 -0.4206  0.3159
 1862poe     o2 9374   0.096   1.146   0.470 -0.0575 -0.0855 -0.0133
 1862poe    c23 9375   0.015   1.133   0.584 -0.2359  0.0960 -0.1187
 1862poe    c23 9376   0.042   1.244   0.687  0.9142 -0.1772 -0.1155
 1862poe     o2 9377   0.008   1.367   0.627  0.7771 -0.0180  0.2908
 1862poe    c23 9378   0.048   1.474   0.711  0.0437  0.5866 -0.1158
 1862poe    c23 9379   0.120   1.595   0.650  0.5173  0.1301 -0.4762
 1862poe     o2 9380   0.050   1.632   0.534 -0.7294  0.2910  0.3042
 1862poe    c23 9381   0.112   1.729   0.453  0.3534 -0.5342  0.1164
 1862poe    c23 9382   0.009   1.757   0.342  0.5823 -0.4784 -0.0840
 1862poe     o2 9383  -0.033   1.632   0.294  0.0006 -0.3824  0.1615
 1862poe    c31 9384  -0.087   1.656   0.166  0.3159 -0.2089  0.0593
 1863poe    c31 9385   1.523   6.247   3.375 -0.2279  0.1607 -0.2561
 1863poe     o2 9386   1.439   6.357   3.350 -0.5518  0.0756  0.4517
 1863poe    c23 9387   1.494   6.480   3.393  0.3045 -0.3035  0.4594
 1863poe    c23 9388   1.452   6.582   3.286 -0.2579 -0.2283  0.7432
 1863poe     o2 9389   1.314   6.592   3.258 -0.0195 -0.5179 -0.6384
 1863poe    c23 9390   1.294   6.680   3.150  0.6878 -0.1775 -0.5023
 1863poe    c23 9391   1.185   6.616   3.062 -0.1865  0.2088  0.2804
 1863poe     o2 9392   1.088   6.558   3.147 -0.2465  0.4317  0.3640
 1863poe    c23 9393   1.002   6.491   3.058 -0.1279  0.2295  0.4023
 1863poe    c23 9394   0.878   6.436   3.130 -0.2619 -0.3660 -0.2717
 1863poe     o2 9395   0.910   6.329   3.215 -0.1397  0.1932  0.3997
 1863poe    c31 9396   0.820   6.220   3.204 -0.0371  0.1801 -0.3586
 1864poe    c31 9397   6.849   6.756   0.182 -0.2248  0.0653 -0.5609
 1864poe     o2 9398   6.781   6.761   0.306  0.2815  0.3185 -0.2916
 1864poe    c23 9399   6.788   6.638   0.374 -0.4361  0.2295 -0.3681
 1864poe    c23 9400   6.730   6.654   0.516  0.9281  0.2818  0.2077
 1864poe     o2 9401   6.743   6.781   0.574  0.1472  0.3197  0.3168
 1864poe    c23 9402   6.745   6.806   0.713  0.3957  0.1968  0.3351
 1864poe    c23 9403   6.741   6.956   0.746 -0.1124  0.1514  0.4882
 1864poe     o2 9404   6.860   7.019   0.705  0.1367 -0.0691  0.8649
 1864poe    c23 9405   6.856   7.152   0.751  0.3095  0.2847 -0.1056
 1864poe    c23 9406   6.966   7.237   0.684  0.3547  0.1611 -0.1880
 1864poe     o2 9407   6.928   7.243   0.548 -0.2680 -0.3697 -0.0446
 1864poe    c31 9408   6.927   7.378   0.508 -0.6375 -0.2208  0.4553
 1865poe    c31 9409   3.311   4.774   6.156  0.0344 -0.1458  0.2448
 1865poe     o2 9410   3.382   4.712   6.261  0.0842 -0.1787  0.1919
 1865poe    c23 9411   3.520   4.717   6.235  0.0619 -0.3873  0.0324
 1865poe    c23 9412   3.587   4.642   6.352  0.3409  0.1368  0.2139
 1865poe     o2 9413   3.582   4.507   6.310 -0.0170  0.1524  0.2034
 1865poe    c23 9414   3.601   4.425   6.423  0.6089 -0.1295 -0.1013
 1865poe    c23 9415   3.585   4.279   6.377 -0.1379 -0.1100  0.0810
 1865poe     o2 9416   3.448   4.269   6.344 -0.0858 -0.0942 -0.1453
 1865poe    c23 9417   3.436   4.131   6.318 -0.0412 -0.1629  0.1930
 1865poe    c23 9418   3.311   4.088   6.397 -0.1782 -0.4966 -0.2039
 1865poe     o2 9419   3.213   4.188   6.379  0.2416 -0.1057 -0.3520
 1865poe    c31 9420   3.107   4.144   6.461  0.5563  0.6100  0.4569
 1866poe    c31 9421   4.497   4.101   0.777  0.3872 -0.0681  0.1984
 1866poe     o2 9422   4.400   4.202   0.763  0.1135 -0.4052 -0.3762
 1866poe    c23 9423   4.390   4.250   0.630 -0.1705  0.3790 -0.0806
 1866poe    c23 9424   4.296   4.368   0.603  0.1632  0.7292  0.2808
 1866poe     o2 9425   4.163   4.359   0.646 -0.0548  0.4501 -0.4382
 1866poe    c23 9426   4.091   4.474   0.609 -0.1403  0.6912  0.4495
 1866poe    c23 9427   3.953   4.468   0.677 -0.2156  0.2199  0.2592
 1866poe     o2 9428   3.962   4.449   0.817  0.3304 -0.4613  0.1365
 1866poe    c23 9429   3.845   4.472   0.892  0.4476  0.1150  0.1477
 1866poe    c23 9430   3.881   4.420   1.032  0.5392  0.0287  0.0918
 1866poe     o2 9431   3.967   4.309   1.019  0.3619 -0.0764 -0.1953
 1866poe    c31 9432   3.987   4.233   1.136 -0.1545  0.1770  0.0573
 1867poe    c31 9433   6.896   4.541   2.554 -0.6429  0.8621  0.8251
 1867poe     o2 9434   6.776   4.491   2.608 -0.9165  0.0123 -0.5052
 1867poe    c23 9435   6.724   4.562   2.719  0.0321  0.0084 -0.0526
 1867poe    c23 9436   6.606   4.481   2.777  0.0284 -0.0145 -0.0919
 1867poe     o2 9437   6.479   4.518   2.728  0.0251  0.0883 -0.0054
 1867poe    c23 9438   6.436   4.450   2.612  0.5345  0.8968 -0.6743
 1867poe    c23 9439   6.290   4.484   2.577  0.0399 -0.1651  0.2824
 1867poe     o2 9440   6.201   4.449   2.680 -0.1937 -0.3837  0.0060
 1867poe    c23 9441   6.077   4.511   2.652  0.0409  0.2220  0.2863
 1867poe    c23 9442   5.967   4.472   2.753 -0.4790  0.2943 -0.2449
 1867poe     o2 9443   6.025   4.499   2.879  0.1102 -0.8458 -0.2577
 1867poe    c31 9444   5.922   4.478   2.972  0.1624 -0.2520 -0.0613
 1868poe    c31 9445   6.036   0.600   2.291 -0.5648 -0.1528 -0.1900
 1868poe     o2 9446   6.064   0.477   2.228  0.3484 -0.2264  0.3320
 1868poe    c23 9447   6.019   0.364   2.300  0.6273 -0.4107  0.2197
 1868poe    c23 9448   5.940   0.254   2.227  0.0525 -0.3683  0.7689
 1868poe     o2 9449   5.836   0.308   2.147  0.6625 -0.1501  0.1090
 1868poe    c23 9450   5.736   0.233   2.083  0.6758  0.3608 -0.5184
 1868poe    c23 9451   5.626   0.329   2.034 -0.1398 -0.2451  0.1048
 1868poe     o2 9452   5.672   0.422   1.939 -0.0704 -0.0163  0.3615
 1868poe    c23 9453   5.564   0.486   1.873  0.1138  0.3560  0.4170
 1868poe    c23 9454   5.598   0.541   1.734  0.3826  0.4090  0.5029
 1868poe     o2 9455   5.623   0.449   1.630  0.6136  0.6399  0.3523
 1868poe    c31 9456   5.762   0.429   1.615  0.5955  0.6586  0.1559
 1869poe    c31 9457   1.584   2.396   3.673 -0.1299 -0.4317  0.8075
 1869poe     o2 9458   1.502   2.477   3.754  0.1602  0.8455 -0.1413
 1869poe    c23 9459   1.576   2.537   3.858  0.1090  0.0787  0.3555
 1869poe    c23 9460   1.475   2.612   3.947 -0.0145  0.4603 -0.0989
 1869poe     o2 9461   1.402   2.721   3.895 -0.1027  0.5386  0.1903
 1869poe    c23 9462   1.450   2.835   3.963  0.6403  0.1127  0.3909
 1869poe    c23 9463   1.517   2.925   3.858  0.0430  0.5981  0.4181
 1869poe     o2 9464   1.419   2.994   3.784  0.1313  0.0794 -0.1933
 1869poe    c23 9465   1.479   3.078   3.687 -0.0403 -0.0999 -0.4553
 1869poe    c23 9466   1.383   3.185   3.632 -0.0667  0.1615  0.0940
 1869poe     o2 9467   1.267   3.127   3.576  0.1788 -0.4438  0.1972
 1869poe    c31 9468   1.183   3.228   3.523 -0.2113 -0.4972  0.7134
 1870poe    c31 9469   6.184   0.730   4.135 -0.3608 -0.0044 -0.0397
 1870poe     o2 9470   6.168   0.804   4.016 -0.2236  0.7555  0.4031
 1870poe    c23 9471   6.237   0.926   4.032  0.0889  0.6421 -0.0589
 1870poe    c23 9472   6.210   1.025   3.918 -0.5139 -0.3773 -0.8169
 1870poe     o2 9473   6.078   1.069   3.939 -0.1352  0.2927  0.2309
 1870poe    c23 9474   6.062   1.201   3.892  0.3156  0.3692  0.2899
 1870poe    c23 9475   5.916   1.248   3.903  0.1002 -0.1147 -0.4029
 1870poe     o2 9476   5.837   1.176   3.811 -0.2647  0.0669 -0.2332
 1870poe    c23 9477   5.700   1.212   3.819 -0.3887 -0.4333 -0.0589
 1870poe    c23 9478   5.632   1.256   3.688 -0.3409  0.3283  0.1647
 1870poe     o2 9479   5.662   1.167   3.583 -0.3487  0.1525  0.3094
 1870poe    c31 9480   5.601   1.207   3.462  0.7919 -0.0245 -0.3381
 1871poe    c31 9481   6.922   0.835   6.854 -0.3703 -0.1933  0.0486
 1871poe     o2 9482   6.947   0.696   6.847 -0.3604 -0.1464 -0.9197
 1871poe    c23 9483   6.834   0.614   6.822 -0.3041 -0.4411 -0.2100
 1871poe    c23 9484   6.879   0.470   6.853  0.0069 -0.3767 -0.3581
 1871poe     o2 9485   7.005   0.442   6.795  0.3309  0.0737  0.1056
 1871poe    c23 9486   7.003   0.319   6.726 -0.0465 -0.2627  0.7082
 1871poe    c23 9487   7.147   0.287   6.683 -0.0568  0.4335  0.1420
 1871poe     o2 9488   7.199   0.392   6.605  0.2455  0.3827  0.2708
 1871poe    c23 9489   7.318   0.345   6.546 -0.2552 -0.0386 -0.4200
 1871poe    c23 9490   7.363   0.436   6.430 -0.2179  0.2012 -0.2165
 1871poe     o2 9491   7.408   0.560   6.481 -0.4181  0.0367  0.3690
 1871poe    c31 9492   7.396   0.647   6.371  0.8481 -0.5039 -0.2196
 1872poe    c31 9493   6.275   3.571   0.034  0.7476  0.1128  0.4143
 1872poe     o2 9494   6.229   3.675   0.117  0.0296  0.5682 -0.5396
 1872poe    c23 9495   6.093   3.655   0.152  0.3167  0.2633  0.4373
 1872poe    c23 9496   6.013   3.777   0.201 -0.5267 -0.0096 -0.2360
 1872poe     o2 9497   6.016   3.881   0.106 -0.3634 -0.3208 -0.5716
 1872poe    c23 9498   5.919   3.975   0.145  0.1957 -0.0126  0.0980
 1872poe    c23 9499   5.949   4.089   0.046 -0.0372  0.0011  0.0447
 1872poe     o2 9500   6.086   4.118   0.059 -0.1173  0.1730  0.4910
 1872poe    c23 9501   6.124   4.238   0.123  0.2002  0.1866  0.2760
 1872poe    c23 9502   6.091   4.358   0.032  0.4373  0.4082  0.4795
 1872poe     o2 9503   6.168   4.340  -0.085 -0.0340 -0.0408  0.2377
 1872poe    c31 9504   6.109   4.419  -0.186  0.5145  0.3194  0.1967
 1873poe    c31 9505   4.026   6.434   7.028 -0.2771 -0.8116 -0.2014
 1873poe     o2 9506   3.999   6.402   7.162 -0.0534 -0.0252  0.0343
 1873poe    c23 9507   4.074   6.491   7.242  0.4017 -0.2141 -0.1792
 1873poe    c23 9508   4.009   6.503   7.381  0.6316  0.9730 -0.1725
 1873poe     o2 9509   3.882   6.557   7.351  0.4817  0.5332 -0.3246
 1873poe    c23 9510   3.796   6.548   7.462 -0.0178  0.0764 -0.7457
 1873poe    c23 9511   3.649   6.565   7.420 -0.1793  0.2991 -0.1047
 1873poe     o2 9512   3.609   6.455   7.340  0.1289  0.1726 -0.0851
 1873poe    c23 9513   3.475   6.466   7.297  0.2155 -0.0157 -0.4012
 1873poe    c23 9514   3.458   6.362   7.185  0.4230 -0.0141 -0.4341
 1873poe     o2 9515   3.492   6.241   7.249  0.2489  0.3113  0.2750
 1873poe    c31 9516   3.479   6.121   7.177  0.9043  0.3787  0.0358
 1874poe    c31 9517   6.264   2.288   4.884 -0.6821  0.3004 -0.1621
 1874poe     o2 9518   6.329   2.407   4.925 -0.4277  0.1769 -0.2030
 1874poe    c23 9519   6.385   2.403   5.054 -0.5432 -0.1226 -0.1621
 1874poe    c23 9520   6.514   2.487   5.060 -0.3809 -0.3871  0.0744
 1874poe     o2 9521   6.605   2.444   4.962 -0.1444  0.0479  0.1027
 1874poe    c23 9522   6.699   2.549   4.954  0.1158 -0.1732  0.2295
 1874poe    c23 9523   6.813   2.561   4.851  0.0883 -0.3147  0.1818
 1874poe     o2 9524   6.771   2.602   4.723 -0.6771  0.2712  0.6100
 1874poe    c23 9525   6.883   2.627   4.640 -0.9082  0.4444  0.3475
 1874poe    c23 9526   6.834   2.612   4.495 -0.2154  0.2569  0.1302
 1874poe     o2 9527   6.788   2.481   4.472  0.3488  0.0424  0.2068
 1874poe    c31 9528   6.733   2.459   4.344  0.4116  1.2576 -0.0406
 1875poe    c31 9529   3.770   4.321   2.228 -0.0558  0.1477 -0.7697
 1875poe     o2 9530   3.884   4.403   2.222 -0.0485  0.2572  0.6366
 1875poe    c23 9531   3.956   4.397   2.101 -0.4957 -0.0046  0.3811
 1875poe    c23 9532   4.090   4.473   2.098 -0.7092  0.3641  0.1828
 1875poe     o2 9533   4.184   4.442   2.198 -0.3333 -0.1937 -0.3394
 1875poe    c23 9534   4.299   4.519   2.168 -0.2845  0.3075  1.0563
 1875poe    c23 9535   4.410   4.432   2.228 -0.0576 -0.1318  0.0258
 1875poe     o2 9536   4.383   4.384   2.358 -0.4206 -0.2713 -0.1011
 1875poe    c23 9537   4.489   4.311   2.414  0.0709  0.4568 -0.0794
 1875poe    c23 9538   4.474   4.283   2.565 -0.5528  0.5797 -0.1175
 1875poe     o2 9539   4.463   4.402   2.641 -0.2316  0.3663  0.2677
 1875poe    c31 9540   4.478   4.385   2.780 -0.4339  0.5328  0.3105
 1876poe    c31 9541   3.227   1.608   2.610 -0.1387  0.3000  0.6405
 1876poe     o2 9542   3.208   1.725   2.535 -0.0844  0.1230  0.3476
 1876poe    c23 9543   3.284   1.714   2.417  0.0296  0.2886  0.4050
 1876poe    c23 9544   3.304   1.830   2.318 -0.1078 -0.0987 -0.0821
 1876poe     o2 9545   3.400   1.932   2.338  0.4956 -0.7753  0.4976
 1876poe    c23 9546   3.399   1.997   2.463  0.3265 -0.1668  0.1809
 1876poe    c23 9547   3.489   2.122   2.470  0.4863 -0.2824  0.2098
 1876poe     o2 9548   3.625   2.101   2.443  0.3997 -0.2978 -0.2123
 1876poe    c23 9549   3.706   2.077   2.556 -0.2043 -0.2879  0.2283
 1876poe    c23 9550   3.857   2.064   2.525 -0.2199 -0.1936  0.1110
 1876poe     o2 9551   3.896   1.936   2.481  0.1092 -0.0319 -0.0656
 1876poe    c31 9552   4.033   1.938   2.445  0.3220  0.1364  0.7352
 1877poe    c31 9553   2.404   5.274   6.449 -0.4974 -0.4314 -0.2631
 1877poe     o2 9554   2.463   5.182   6.539 -0.0275 -0.1610 -0.2933
 1877poe    c23 9555   2.533   5.251   6.640 -0.2769 -0.1260 -0.1447
 1877poe    c23 9556   2.678   5.289   6.608 -0.2778 -0.2410 -0.2880
 1877poe     o2 9557   2.759   5.174   6.608  0.1251  0.0375  0.2785
 1877poe    c23 9558   2.898   5.189   6.592  0.1340 -0.1466  0.1834
 1877poe    c23 9559   2.985   5.065   6.563  0.1940  0.1243 -0.8175
 1877poe     o2 9560   2.931   5.016   6.441 -0.6849 -0.3057 -0.2676
 1877poe    c23 9561   3.015   4.915   6.390 -0.5572 -0.6695  0.6462
 1877poe    c23 9562   2.941   4.824   6.290 -0.3656  0.1853 -0.2900
 1877poe     o2 9563   2.856   4.723   6.341  0.2700 -0.0800  0.2617
 1877poe    c31 9564   2.912   4.593   6.334  0.4970  0.0073  0.4365
 1878poe    c31 9565   5.364   0.381   1.281 -0.1571 -0.3481  0.3205
 1878poe     o2 9566   5.479   0.412   1.205 -0.3005 -0.2248  0.1569
 1878poe    c23 9567   5.537   0.520   1.274  0.0895 -0.2650 -0.1044
 1878poe    c23 9568   5.683   0.545   1.231 -0.1128 -0.1440 -0.7213
 1878poe     o2 9569   5.757   0.428   1.258 -0.5463 -0.1631  0.4461
 1878poe    c23 9570   5.894   0.462   1.263 -0.4857 -0.3212 -0.0559
 1878poe    c23 9571   5.967   0.507   1.136 -0.1823  0.6184  0.4472
 1878poe     o2 9572   5.998   0.408   1.041 -0.6512  0.4485  0.4701
 1878poe    c23 9573   6.128   0.355   1.059 -0.5980  0.2534 -0.4383
 1878poe    c23 9574   6.182   0.266   0.945  0.3635  0.2463  0.0163
 1878poe     o2 9575   6.118   0.141   0.930  0.7092  0.1123 -0.3292
 1878poe    c31 9576   6.167   0.054   0.830  0.1365 -0.8332  0.2060
 1879poe    c31 9577   4.334   2.379   3.495  0.0882 -0.2967 -0.3863
 1879poe     o2 9578   4.420   2.270   3.519 -0.4146 -0.6235 -0.0688
 1879poe    c23 9579   4.441   2.243   3.656  0.1820 -0.6271 -0.1594
 1879poe    c23 9580   4.460   2.091   3.664  0.1007 -0.6154  0.3024
 1879poe     o2 9581   4.570   2.052   3.584  0.2356  0.4083 -0.0187
 1879poe    c23 9582   4.569   1.919   3.539 -0.3954  0.6323 -0.6738
 1879poe    c23 9583   4.480   1.866   3.425 -0.5467 -0.2900 -0.1367
 1879poe     o2 9584   4.514   1.918   3.298  0.1293 -0.2596  0.0519
 1879poe    c23 9585   4.428   1.875   3.195  0.3284  0.1007 -0.2688
 1879poe    c23 9586   4.449   1.732   3.140  0.5723 -0.0917  0.3072
 1879poe     o2 9587   4.436   1.631   3.237  0.1935 -0.9174 -0.5845
 1879poe    c31 9588   4.445   1.499   3.188 -0.5875 -1.2297  0.0881
 1880poe    c31 9589   5.999   5.839   1.062 -0.6636  0.1750  0.3666
 1880poe     o2 9590   5.931   5.749   0.978 -0.0007  0.1584 -0.1623
 1880poe    c23 9591   5.794   5.783   0.972 -0.2042 -0.6172 -0.0655
 1880poe    c23 9592   5.704   5.687   0.892 -0.5459 -0.0787 -0.3312
 1880poe     o2 9593   5.695   5.563   0.959 -0.4365 -0.1103 -0.3756
 1880poe    c23 9594   5.793   5.464   0.934 -0.4140 -0.0668 -0.4599
 1880poe    c23 9595   5.785   5.360   1.047 -0.3317 -0.0824 -0.4689
 1880poe     o2 9596   5.677   5.271   1.061  0.1676 -0.5652  0.3632
 1880poe    c23 9597   5.683   5.193   1.179 -0.1714 -0.0379  0.7304
 1880poe    c23 9598   5.582   5.077   1.172 -0.0554 -0.0960 -0.0404
 1880poe     o2 9599   5.444   5.104   1.188  0.0053  0.0856  0.1808
 1880poe    c31 9600   5.396   5.023   1.293 -0.6001  0.0659 -0.1048
 1881poe    c31 9601   1.605   2.624   2.567 -0.1466  0.1148 -0.3322
 1881poe     o2 9602   1.560   2.743   2.628 -0.1661 -0.2550  0.3757
 1881poe    c23 9603   1.590   2.850   2.542  0.1707 -0.0065  0.8014
 1881poe    c23 9604   1.563   2.981   2.619 -0.0506  0.6617 -0.3856
 1881poe     o2 9605   1.666   2.981   2.716 -0.1447 -0.4902 -0.2645
 1881poe    c23 9606   1.683   3.091   2.803 -0.7258 -0.7154  0.1378
 1881poe    c23 9607   1.781   3.048   2.913 -0.0948  1.1039  0.3304
 1881poe     o2 9608   1.735   2.924   2.963  0.2172  0.6306 -0.5373
 1881poe    c23 9609   1.828   2.870   3.054 -1.0611  0.0225  0.4471
 1881poe    c23 9610   1.856   2.719   3.039 -0.1822  0.1397  0.8222
 1881poe     o2 9611   1.763   2.639   3.110 -0.2378 -0.3432  0.2125
 1881poe    c31 9612   1.705   2.549   3.018 -0.1352  0.0474 -0.2424
 1882poe    c31 9613   5.729   4.744   5.506  0.3373  0.1941 -0.1451
 1882poe     o2 9614   5.804   4.676   5.408 -0.0440  0.0033 -0.3058
 1882poe    c23 9615   5.940   4.712   5.404  0.1007 -0.4757  0.1492
 1882poe    c23 9616   5.989   4.636   5.279  0.5830 -0.2529  0.1993
 1882poe     o2 9617   5.942   4.504   5.284  0.4416 -0.2138 -0.0858
 1882poe    c23 9618   5.915   4.467   5.150 -0.1691 -0.0543 -0.0113
 1882poe    c23 9619   5.923   4.314   5.143  0.3222 -0.0132 -0.3620
 1882poe     o2 9620   5.854   4.274   5.259 -0.1551  0.2557 -0.5541
 1882poe    c23 9621   5.788   4.153   5.230  0.1182 -0.2077  0.6745
 1882poe    c23 9622   5.686   4.116   5.339 -0.0401  0.0200  0.6054
 1882poe     o2 9623   5.578   4.206   5.342 -0.4185 -0.4135  0.0383
 1882poe    c31 9624   5.498   4.186   5.457 -0.3648  0.3566  0.2169
 1883poe    c31 9625   5.537   5.784   0.615 -0.2442 -0.0622  0.3775
 1883poe     o2 9626   5.487   5.658   0.652 -0.2969 -0.1601 -0.0225
 1883poe    c23 9627   5.346   5.649   0.662 -0.3321  0.1910 -0.1996
 1883poe    c23 9628   5.309   5.513   0.723  0.7767  0.1757  0.4659
 1883poe     o2 9629   5.334   5.404   0.637 -0.2977  0.1642  0.1625
 1883poe    c23 9630   5.356   5.296   0.725  0.3384  0.2997  0.1774
 1883poe    c23 9631   5.396   5.168   0.649 -0.0976  0.0980  0.2858
 1883poe     o2 9632   5.535   5.152   0.668 -0.1142 -0.1093  0.2362
 1883poe    c23 9633   5.581   5.021   0.694  0.4295  0.1256  0.4704
 1883poe    c23 9634   5.733   5.004   0.705  0.4959  0.4690  0.1121
 1883poe     o2 9635   5.789   5.011   0.576  0.1101 -0.2481 -0.0975
 1883poe    c31 9636   5.924   4.970   0.574  0.1646 -0.0387 -0.8423
 1884poe    c31 9637   5.638   7.038   2.935  0.4140  0.5819  0.5169
 1884poe     o2 9638   5.758   7.105   2.900  0.4383  0.2159 -0.1263
 1884poe    c23 9639   5.859   7.009   2.878  0.3423  0.0457  0.1624
 1884poe    c23 9640   5.971   7.060   2.786  0.1064 -0.1378 -0.2271
 1884poe     o2 9641   6.018   7.184   2.833  0.0794 -0.1310 -0.2193
 1884poe    c23 9642   6.118   7.240   2.751 -0.2445 -0.1846 -0.6561
 1884poe    c23 9643   6.137   7.386   2.796  0.1037 -0.4735  0.1624
 1884poe     o2 9644   6.138   7.394   2.936 -0.6106 -0.5503  0.1778
 1884poe    c23 9645   6.261   7.440   2.989 -0.8387  0.5047 -0.1985
 1884poe    c23 9646   6.286   7.393   3.133 -0.0994  0.1591 -0.4309
 1884poe     o2 9647   6.174   7.415   3.217  0.3042  0.5089  0.0197
 1884poe    c31 9648   6.223   7.417   3.349 -0.6212 -0.2837  0.3875
 1885poe    c31 9649   1.431   2.748   3.324 -0.1027  0.1477  0.4412
 1885poe     o2 9650   1.369   2.832   3.230 -0.6680  0.0272  0.7011
 1885poe    c23 9651   1.439   2.953   3.212 -0.0448 -0.4496 -0.1740
 1885poe    c23 9652   1.354   3.046   3.123 -0.1063 -0.3002  0.0397
 1885poe     o2 9653   1.328   2.987   2.997 -0.7107  0.1746 -0.0654
 1885poe    c23 9654   1.240   3.062   2.917 -0.4614  0.6628  0.1088
 1885poe    c23 9655   1.242   2.985   2.783  0.5278 -0.0588  0.5253
 1885poe     o2 9656   1.197   2.852   2.801 -0.7988  0.3252  0.1360
 1885poe    c23 9657   1.184   2.781   2.680 -0.1049  0.1959  0.1363
 1885poe    c23 9658   1.158   2.633   2.713  0.5442  0.0549  0.0270
 1885poe     o2 9659   1.260   2.609   2.809  0.2902  0.2925  0.3584
 1885poe    c31 9660   1.298   2.474   2.815  0.4335  0.3458  0.6702
 1886poe    c31 9661   4.957   1.968   5.254 -0.5088 -0.0332 -0.6841
 1886poe     o2 9662   4.961   1.827   5.249 -0.9164 -0.0599 -0.2995
 1886poe    c23 9663   4.888   1.789   5.363 -0.0515  0.5072  0.4619
 1886poe    c23 9664   4.918   1.641   5.394 -0.2969  0.3368 -0.0991
 1886poe     o2 9665   5.049   1.628   5.445 -0.2960  0.5867 -0.0364
 1886poe    c23 9666   5.091   1.497   5.475  0.5507  0.7948 -0.2944
 1886poe    c23 9667   5.245   1.484   5.475  0.4635 -0.4138  0.2572
 1886poe     o2 9668   5.280   1.479   5.338  0.3423  0.5118  0.1811
 1886poe    c23 9669   5.407   1.418   5.325  0.0060 -0.0954 -0.3061
 1886poe    c23 9670   5.447   1.376   5.182 -0.4384  0.3401 -0.5645
 1886poe     o2 9671   5.487   1.486   5.104  0.0149  0.0894 -0.6898
 1886poe    c31 9672   5.577   1.439   5.007  0.2790 -0.4961 -0.1678
 1887poe    c31 9673   0.961   1.500   3.732 -0.1446 -0.5449 -0.0308
 1887poe     o2 9674   0.901   1.374   3.713  0.0079 -0.4948 -0.8874
 1887poe    c23 9675   0.766   1.373   3.752  0.2166 -0.5218 -0.1466
 1887poe    c23 9676   0.707   1.237   3.711  0.2318 -0.4462 -0.4221
 1887poe     o2 9677   0.802   1.134   3.731  0.3057 -0.3916 -0.4900
 1887poe    c23 9678   0.753   1.002   3.716 -0.7996 -0.0668  0.0904
 1887poe    c23 9679   0.834   0.905   3.804 -0.0845  0.2688 -0.1892
 1887poe     o2 9680   0.971   0.936   3.789  0.0404 -0.0568  0.2496
 1887poe    c23 9681   1.042   0.857   3.880  0.3927  0.5412  0.5028
 1887poe    c23 9682   1.185   0.907   3.908  0.5308  0.4248  0.0090
 1887poe     o2 9683   1.199   1.041   3.950  0.2970  0.3896  0.2007
 1887poe    c31 9684   1.338   1.064   3.952  0.3040  0.3213  0.4290
 1888poe    c31 9685   2.298   2.483   6.496  0.6066  0.0957 -0.1806
 1888poe     o2 9686   2.272   2.608   6.436  0.1857 -0.1838 -0.5880
 1888poe    c23 9687   2.322   2.625   6.305  0.2454 -0.4449 -0.5996
 1888poe    c23 9688   2.290   2.768   6.259  0.0152 -0.4902 -0.5832
 1888poe     o2 9689   2.161   2.812   6.294  0.3351 -0.3887  0.5059
 1888poe    c23 9690   2.116   2.925   6.222  0.5022  0.1181  1.1888
 1888poe    c23 9691   1.995   2.997   6.286  0.2231  0.1430  0.6432
 1888poe     o2 9692   1.911   2.904   6.350 -0.5580  0.1238 -0.3959
 1888poe    c23 9693   1.781   2.957   6.357 -0.5413  0.1473 -0.2765
 1888poe    c23 9694   1.695   2.871   6.452 -0.2267  0.1566  0.0219
 1888poe     o2 9695   1.762   2.860   6.575 -0.2279  0.1911  0.0252
 1888poe    c31 9696   1.680   2.793   6.669 -0.5626  0.1277 -0.3114
 1889poe    c31 9697   3.760   6.280   1.973 -0.0356 -0.1404 -0.3749
 1889poe     o2 9698   3.884   6.229   2.016 -0.0945 -0.2344 -0.3160
 1889poe    c23 9699   3.879   6.102   2.077  0.8247 -0.1951 -0.1371
 1889poe    c23 9700   3.911   5.999   1.967 -0.1362 -0.0875 -0.5280
 1889poe     o2 9701   4.043   6.006   1.918 -0.0735  0.2495 -0.3113
 1889poe    c23 9702   4.052   5.921   1.806 -0.1933  0.5366 -0.5394
 1889poe    c23 9703   4.172   5.942   1.712  0.1486  0.2464 -0.1689
 1889poe     o2 9704   4.172   6.064   1.642 -0.4535  0.3240 -0.0346
 1889poe    c23 9705   4.287   6.073   1.562 -0.7263  0.8199 -0.3821
 1889poe    c23 9706   4.352   6.211   1.581 -0.3464  0.5672  0.1925
 1889poe     o2 9707   4.384   6.238   1.716 -0.2388  0.2516  0.2294
 1889poe    c31 9708   4.446   6.364   1.720  0.5941 -0.1673  0.8100
 1890poe    c31 9709   5.081   1.009   1.678  0.0105  0.4317  0.0544
 1890poe     o2 9710   4.956   1.010   1.743  0.1755 -0.1298  0.3851
 1890poe    c23 9711   4.858   0.973   1.649  0.3274  0.1316  0.1224
 1890poe    c23 9712   4.718   1.024   1.687  0.0721 -0.3587 -0.1430
 1890poe     o2 9713   4.713   1.021   1.828  0.5659  0.5693 -0.0974
 1890poe    c23 9714   4.603   1.093   1.879  0.5484  0.8175 -0.4780
 1890poe    c23 9715   4.598   1.084   2.033  0.3828 -0.3767 -0.5403
 1890poe     o2 9716   4.717   1.144   2.078  0.2340 -0.6562  0.2276
 1890poe    c23 9717   4.694   1.207   2.203 -0.2752 -0.1330 -0.1253
 1890poe    c23 9718   4.813   1.297   2.238 -0.1769 -0.1255 -0.4716
 1890poe     o2 9719   4.942   1.239   2.236 -0.1175 -0.0215  0.1304
 1890poe    c31 9720   5.037   1.336   2.274  0.0483 -0.3124  0.4612
 1891poe    c31 9721   6.815   2.359   3.536  0.3154 -0.2582 -0.0285
 1891poe     o2 9722   6.722   2.464   3.523  0.2696 -0.3155 -0.1628
 1891poe    c23 9723   6.621   2.452   3.621 -0.2646  0.0683 -0.6615
 1891poe    c23 9724   6.525   2.572   3.612 -0.0167  0.3790  0.5955
 1891poe     o2 9725   6.450   2.565   3.492  0.0910 -0.0943  0.5524
 1891poe    c23 9726   6.382   2.688   3.478 -0.2771 -0.3654 -0.0876
 1891poe    c23 9727   6.346   2.736   3.337  0.3883  0.0961 -0.1051
 1891poe     o2 9728   6.457   2.762   3.254  0.6645  0.2829  0.3187
 1891poe    c23 9729   6.414   2.748   3.120  0.5056  0.1973  0.3777
 1891poe    c23 9730   6.522   2.796   3.021  0.4038  0.0035  0.1726
 1891poe     o2 9731   6.643   2.752   3.079  0.3258 -0.3012  0.1016
 1891poe    c31 9732   6.748   2.783   2.990 -0.0339 -0.5084 -0.4075
 1892poe    c31 9733   4.091   3.453   4.973  0.1424  0.1674 -0.0820
 1892poe     o2 9734   4.013   3.385   4.878  0.1228  0.2132 -0.0992
 1892poe    c23 9735   4.023   3.245   4.894  0.5701  0.2214 -0.2985
 1892poe    c23 9736   3.929   3.173   4.795 -0.1752  0.0747  0.5064
 1892poe     o2 9737   3.932   3.246   4.675 -0.0696 -0.2545  0.3055
 1892poe    c23 9738   3.842   3.200   4.576 -0.1379  0.3202  0.0941
 1892poe    c23 9739   3.865   3.279   4.446 -0.2444 -0.0151 -0.1281
 1892poe     o2 9740   3.876   3.415   4.482  1.2206  0.0042 -0.5725
 1892poe    c23 9741   3.753   3.474   4.445  1.0968 -0.3701 -0.7658
 1892poe    c23 9742   3.758   3.627   4.440 -0.8667 -0.2695 -0.3626
 1892poe     o2 9743   3.771   3.701   4.560 -0.4960 -0.1038 -0.5055
 1892poe    c31 9744   3.788   3.839   4.534 -0.2658 -0.0772 -0.2203
 1893poe    c31 9745   0.121   3.719   3.004  0.3717 -0.6568  0.2922
 1893poe     o2 9746   0.066   3.612   2.931  0.0866 -0.5228  0.3062
 1893poe    c23 9747  -0.074   3.621   2.928  0.1223 -0.0937 -0.1171
 1893poe    c23 9748  -0.133   3.492   2.868 -0.2480  0.2880 -0.5859
 1893poe     o2 9749  -0.040   3.439   2.777  0.0817  0.0754 -0.1298
 1893poe    c23 9750  -0.082   3.325   2.704  0.3666 -0.4810  0.5604
 1893poe    c23 9751   0.036   3.260   2.631 -0.2180 -0.5457 -0.3351
 1893poe     o2 9752   0.130   3.217   2.727 -0.0764 -0.0897 -0.2683
 1893poe    c23 9753   0.214   3.105   2.708 -0.0400 -0.1418  0.1897
 1893poe    c23 9754   0.252   3.025   2.833 -0.3423 -0.2734  0.1979
 1893poe     o2 9755   0.292   3.095   2.949 -0.4706 -0.3755  0.3052
 1893poe    c31 9756   0.313   3.010   3.059  0.4731 -0.2542  0.2298
 1894poe    c31 9757   3.935   6.087   6.273  0.2566  0.3613 -0.4722
 1894poe     o2 9758   4.034   6.188   6.275  0.2081  0.4054 -0.0012
 1894poe    c23 9759   4.141   6.145   6.193 -0.1329 -0.4944  0.0088
 1894poe    c23 9760   4.243   6.260   6.193 -0.0289 -0.5868 -0.0654
 1894poe     o2 9761   4.175   6.382   6.174  0.0642 -0.5551 -0.1950
 1894poe    c23 9762   4.267   6.488   6.188 -0.2588 -0.2761 -0.1770
 1894poe    c23 9763   4.168   6.604   6.215  0.3322  0.1405  0.2250
 1894poe     o2 9764   4.052   6.576   6.290  0.4223 -0.2905  0.2092
 1894poe    c23 9765   4.078   6.600   6.427  0.0670  0.2804  0.1793
 1894poe    c23 9766   3.959   6.532   6.497  0.2918 -0.1318  0.1606
 1894poe     o2 9767   3.919   6.409   6.439  0.0439  0.1494 -0.2711
 1894poe    c31 9768   3.788   6.379   6.481 -0.0201  0.2406 -0.4041
 1895poe    c31 9769   2.540   5.843   4.136  0.2940 -0.1112  0.5711
 1895poe     o2 9770   2.629   5.864   4.029 -0.1499  0.1068  0.2408
 1895poe    c23 9771   2.602   5.758   3.940 -0.1541  0.5057 -0.2404
 1895poe    c23 9772   2.707   5.763   3.828 -0.4322 -0.5874 -0.5657
 1895poe     o2 9773   2.705   5.897   3.783  0.4578 -0.3567  0.0392
 1895poe    c23 9774   2.749   5.901   3.649 -0.0642  0.1621 -0.1196
 1895poe    c23 9775   2.820   6.037   3.637  0.3751 -0.0897 -0.4211
 1895poe     o2 9776   2.911   6.035   3.745 -0.5289  0.0330  0.3622
 1895poe    c23 9777   2.919   6.146   3.832  0.4224  0.5914 -0.4116
 1895poe    c23 9778   2.958   6.110   3.977  0.2996  0.5537 -0.3880
 1895poe     o2 9779   2.853   6.035   4.033  0.7327  0.3847  0.2109
 1895poe    c31 9780   2.870   5.996   4.167 -0.1148 -0.6300  0.0381
 1896poe    c31 9781   5.178   5.164   6.326  0.8004 -0.4842  0.0649
 1896poe     o2 9782   5.255   5.101   6.227  0.4358  0.4021 -0.8036
 1896poe    c23 9783   5.321   4.983   6.268 -0.2155  0.1790 -0.3902
 1896poe    c23 9784   5.425   4.990   6.381 -0.3733  0.0926 -0.2389
 1896poe     o2 9785   5.546   5.054   6.350  0.0667 -0.3375  0.5446
 1896poe    c23 9786   5.644   5.012   6.442  0.5848 -0.5356 -0.0899
 1896poe    c23 9787   5.772   5.097   6.448 -0.0177  0.3465  0.3527
 1896poe     o2 9788   5.710   5.217   6.489  0.1267  0.2883  0.7393
 1896poe    c23 9789   5.809   5.317   6.491  0.1069  0.3541 -0.7484
 1896poe    c23 9790   5.741   5.455   6.505 -0.9010 -0.1760 -0.3260
 1896poe     o2 9791   5.696   5.468   6.638  1.2223  0.2404  0.3865
 1896poe    c31 9792   5.655   5.599   6.669 -0.0239  0.0276 -0.3164
 1897poe    c31 9793   6.871   5.002   4.290 -0.1471  0.3258 -0.0042
 1897poe     o2 9794   6.939   4.879   4.292 -0.2566  0.2645  0.0255
 1897poe    c23 9795   7.070   4.917   4.255 -0.3353  0.1004 -0.4309
 1897poe    c23 9796   7.147   4.795   4.202  0.1970  0.0164  0.5117
 1897poe     o2 9797   7.131   4.682   4.285 -0.0389 -0.2146  0.1552
 1897poe    c23 9798   7.212   4.573   4.248  0.0105 -0.2476  0.3557
 1897poe    c23 9799   7.196   4.460   4.352  0.0788 -0.1558  0.4674
 1897poe     o2 9800   7.193   4.505   4.485 -0.1753 -0.2390  0.4902
 1897poe    c23 9801   7.166   4.388   4.558  0.0003 -0.3389  0.3956
 1897poe    c23 9802   7.203   4.422   4.704 -0.4561 -0.0948  0.4565
 1897poe     o2 9803   7.121   4.522   4.759 -0.7523  0.0208 -0.1876
 1897poe    c31 9804   7.148   4.522   4.898 -0.0727  0.0044 -0.3138
 1898poe    c31 9805   3.008   5.903   2.502 -0.1150  0.2816  0.2770
 1898poe     o2 9806   3.016   5.827   2.384  0.4873  0.1519  0.3969
 1898poe    c23 9807   2.904   5.802   2.301  0.3669 -0.1005  0.6334
 1898poe    c23 9808   2.872   5.923   2.212 -0.0587 -0.4796  0.2697
 1898poe     o2 9809   2.978   5.945   2.122 -0.0308 -0.9409  0.1905
 1898poe    c23 9810   2.956   6.051   2.031  0.6714 -0.3338  0.7183
 1898poe    c23 9811   3.076   6.045   1.934  0.0465 -0.6969 -0.0391
 1898poe     o2 9812   3.198   6.014   1.996  0.1655  0.0776  0.1254
 1898poe    c23 9813   3.301   6.021   1.900 -0.0248 -0.2442 -0.1027
 1898poe    c23 9814   3.438   5.963   1.941 -0.0195 -0.1712 -0.0162
 1898poe     o2 9815   3.506   6.010   2.055  0.3776 -0.2690 -0.2129
 1898poe    c31 9816   3.580   5.903   2.110 -0.5859 -0.6997  0.2642
 1899poe    c31 9817   1.755   5.552   3.195  0.0489 -0.3082  0.3364
 1899poe     o2 9818   1.619   5.572   3.222  0.0539  0.0185  0.1174
 1899poe    c23 9819   1.578   5.499   3.335  0.4821  0.0570  0.2992
 1899poe    c23 9820   1.433   5.540   3.368  0.3855 -0.0177 -0.0265
 1899poe     o2 9821   1.366   5.557   3.245  0.1956  0.5365  0.1503
 1899poe    c23 9822   1.236   5.611   3.253  0.0822  0.2408  0.3200
 1899poe    c23 9823   1.169   5.605   3.114  0.5875 -0.1239  0.0888
 1899poe     o2 9824   1.245   5.690   3.032 -0.0733  0.2630 -0.1293
 1899poe    c23 9825   1.181   5.721   2.910 -0.5999 -0.0355  0.0694
 1899poe    c23 9826   1.275   5.798   2.816 -0.3358 -0.1264  0.2566
 1899poe     o2 9827   1.391   5.724   2.783 -0.1605  0.1677  0.2029
 1899poe    c31 9828   1.474   5.768   2.679  0.5430 -0.5800  0.4373
 1900poe    c31 9829   5.953   5.401   0.582  0.0167 -0.0165 -0.7261
 1900poe     o2 9830   5.979   5.537   0.611  0.1673 -0.2278  0.1446
 1900poe    c23 9831   5.969   5.621   0.498  0.3377 -0.2810  0.0894
 1900poe    c23 9832   5.944   5.766   0.544 -0.2103 -0.5290  0.5908
 1900poe     o2 9833   6.043   5.808   0.635  0.1967 -0.1479 -0.0284
 1900poe    c23 9834   6.036   5.947   0.660 -0.2223 -0.1498 -0.1294
 1900poe    c23 9835   6.186   5.977   0.681 -0.3651  0.5535 -0.0750
 1900poe     o2 9836   6.253   5.873   0.748 -0.3866  0.6765  0.1388
 1900poe    c23 9837   6.386   5.903   0.784 -0.2595 -0.3197  0.5367
 1900poe    c23 9838   6.428   5.794   0.884  0.5295 -0.6702 -0.1680
 1900poe     o2 9839   6.364   5.674   0.849 -0.3461 -0.1339 -0.4210
 1900poe    c31 9840   6.421   5.566   0.920  0.3431  0.4478 -0.0750
 1901poe    c31 9841   0.507   1.064   0.305  0.9388 -0.3947 -0.2125
 1901poe     o2 9842   0.557   1.143   0.410  0.2124 -0.1581 -0.0366
 1901poe    c23 9843   0.529   1.279   0.388 -0.1212 -0.2233 -0.0168
 1901poe    c23 9844   0.627   1.369   0.466  0.0396  0.1657 -0.6632
 1901poe     o2 9845   0.762   1.346   0.433  0.0190 -0.2027 -0.4875
 1901poe    c23 9846   0.849   1.451   0.471 -0.2184 -0.2743  0.2851
 1901poe    c23 9847   0.994   1.399   0.470 -0.0243  0.2590  0.7133
 1901poe     o2 9848   1.016   1.287   0.553 -0.3803 -0.5188 -0.2237
 1901poe    c23 9849   1.134   1.224   0.509  0.2914  0.6469 -0.1533
 1901poe    c23 9850   1.178   1.116   0.609 -0.3404  0.7415  0.2327
 1901poe     o2 9851   1.071   1.028   0.636  0.2358 -0.2847 -0.7352
 1901poe    c31 9852   1.113   0.911   0.701  0.5068  0.1494 -0.1202
 1902poe    c31 9853   2.786   5.766   0.385 -0.0819  0.2025  0.6224
 1902poe     o2 9854   2.865   5.716   0.491  0.5285  0.3889  0.2599
 1902poe    c23 9855   2.798   5.602   0.540  0.0455  0.6186  0.1434
 1902poe    c23 9856   2.822   5.575   0.690  0.0427 -0.0606  0.0255
 1902poe     o2 9857   2.757   5.671   0.770  0.0151  0.0054 -0.0753
 1902poe    c23 9858   2.791   5.662   0.907  0.5046 -0.1146 -0.2027
 1902poe    c23 9859   2.728   5.775   0.991 -0.0867 -0.2034 -0.5175
 1902poe     o2 9860   2.783   5.893   0.937 -0.1081 -0.2014 -0.5344
 1902poe    c23 9861   2.767   6.003   1.024  0.2367 -0.4215 -0.1891
 1902poe    c23 9862   2.800   6.136   0.955  0.3491 -0.2805  0.1403
 1902poe     o2 9863   2.717   6.168   0.846 -0.1368  0.4149  0.7064
 1902poe    c31 9864   2.712   6.306   0.814 -0.3004  0.2780  0.1281
 1903poe    c31 9865   1.803   5.367   1.781 -0.3539  0.2870 -0.1184
 1903poe     o2 9866   1.910   5.276   1.769 -0.4941  0.1779 -0.5791
 1903poe    c23 9867   2.023   5.331   1.832  0.0257 -0.2877 -1.0980
 1903poe    c23 9868   2.108   5.231   1.913 -0.4675 -0.3205 -0.6124
 1903poe     o2 9869   2.148   5.114   1.844  0.1308 -0.5017  0.0319
 1903poe    c23 9870   2.197   5.031   1.947 -0.3086 -0.5117  0.2402
 1903poe    c23 9871   2.254   4.906   1.876  0.1328 -0.1900  0.0197
 1903poe     o2 9872   2.157   4.877   1.778 -0.0266  0.0757  0.0966
 1903poe    c23 9873   2.175   4.744   1.733 -0.6325  0.0095  0.0346
 1903poe    c23 9874   2.124   4.723   1.590  0.4340 -0.5439 -0.2754
 1903poe     o2 9875   2.153   4.841   1.517  0.0181 -0.1528  0.1876
 1903poe    c31 9876   2.063   4.847   1.408  0.0345 -0.6465  0.1414
 1904poe    c31 9877   1.575   2.766   4.878  0.0538  0.5102 -0.5268
 1904poe     o2 9878   1.690   2.750   4.799  0.5355 -0.1067  0.2939
 1904poe    c23 9879   1.722   2.882   4.761  0.0162  0.1087  0.5889
 1904poe    c23 9880   1.812   2.881   4.635  0.1486 -0.7276  0.6862
 1904poe     o2 9881   1.884   2.760   4.621  0.6782 -0.4104  0.6712
 1904poe    c23 9882   2.015   2.786   4.577  0.5152  0.4665  0.6791
 1904poe    c23 9883   2.081   2.650   4.549  0.0503  0.2492  0.6338
 1904poe     o2 9884   2.065   2.583   4.673 -0.2034  0.2956  0.6262
 1904poe    c23 9885   2.135   2.461   4.682 -0.6335 -0.0187 -0.1789
 1904poe    c23 9886   2.095   2.374   4.803  0.6616 -0.2472  0.0947
 1904poe     o2 9887   2.144   2.421   4.927  0.1051 -0.1395  0.2748
 1904poe    c31 9888   2.146   2.322   5.028  0.3575 -0.3148  0.0992
 1905poe    c31 9889   4.455   3.171   3.443 -0.3304 -0.0548 -0.3071
 1905poe     o2 9890   4.410   3.290   3.503  0.4121  0.3708 -0.5751
 1905poe    c23 9891   4.532   3.353   3.534  0.1384  0.8423 -0.4462
 1905poe    c23 9892   4.524   3.460   3.645  0.2733  0.0577  0.3272
 1905poe     o2 9893   4.454   3.572   3.595  0.6301 -0.0937 -0.5223
 1905poe    c23 9894   4.458   3.677   3.689  0.7333 -0.2460 -0.3547
 1905poe    c23 9895   4.370   3.786   3.624  0.6038 -0.0059  0.2169
 1905poe     o2 9896   4.231   3.768   3.619  0.5959  0.1479 -0.1828
 1905poe    c23 9897   4.170   3.884   3.566  0.3571  0.0593 -0.1041
 1905poe    c23 9898   4.020   3.878   3.532  0.1951  0.3919  0.5319
 1905poe     o2 9899   3.930   3.853   3.638 -0.5145  0.6741 -0.0004
 1905poe    c31 9900   3.798   3.854   3.587 -0.6438  0.3836  0.3285
 1906poe    c31 9901   2.330   1.240   1.586 -0.0818  0.0339 -0.0589
 1906poe     o2 9902   2.374   1.136   1.670  0.0915  0.3161  0.1998
 1906poe    c23 9903   2.508   1.137   1.714  0.2807  0.4965 -0.3715
 1906poe    c23 9904   2.523   1.022   1.816  0.4089  0.5774 -0.2989
 1906poe     o2 9905   2.445   1.049   1.931 -0.0892  0.1062 -0.5218
 1906poe    c23 9906   2.479   0.952   2.027 -0.2819  0.3096 -0.2488
 1906poe    c23 9907   2.412   0.961   2.166  0.0771 -0.0469 -0.0496
 1906poe     o2 9908   2.272   0.946   2.159  0.0919 -0.1436 -0.1666
 1906poe    c23 9909   2.215   0.905   2.282 -0.2238  0.3816 -0.1296
 1906poe    c23 9910   2.061   0.904   2.277 -0.2429  0.0798  0.4623
 1906poe     o2 9911   2.006   0.790   2.214  0.1974  0.2432 -0.2332
 1906poe    c31 9912   1.866   0.805   2.212  0.1324 -0.1658  0.6509
 1907poe    c31 9913   0.092   1.173   3.221 -0.0689  0.3378 -0.6706
 1907poe     o2 9914  -0.039   1.216   3.252  0.1934  0.4843  0.2563
 1907poe    c23 9915  -0.101   1.129   3.344 -0.4282  0.3733 -0.2574
 1907poe    c23 9916  -0.253   1.130   3.324 -0.5068 -0.1389  0.2982
 1907poe     o2 9917  -0.295   1.082   3.198  0.1714  0.6628 -0.2423
 1907poe    c23 9918  -0.436   1.082   3.196  0.1659  0.2877 -0.0364
 1907poe    c23 9919  -0.507   1.010   3.080  0.4039  0.0017 -0.0060
 1907poe     o2 9920  -0.457   1.041   2.952 -0.4313  0.3380 -0.2577
 1907poe    c23 9921  -0.545   0.973   2.865 -0.2309  0.0021 -0.2024
 1907poe    c23 9922  -0.490   0.962   2.722 -0.1921  0.0481 -0.1912
 1907poe     o2 9923  -0.371   0.886   2.711  0.1192  0.4512  0.3599
 1907poe    c31 9924  -0.295   0.941   2.606  0.5318  0.1665  0.5065
 1908poe    c31 9925   2.426   5.441   4.059 -0.5847 -0.0547 -0.5418
 1908poe     o2 9926   2.370   5.313   4.080 -0.5236 -0.0814 -0.5397
 1908poe    c23 9927   2.460   5.216   4.032 -0.0113  0.3402 -0.4353
 1908poe    c23 9928   2.461   5.086   4.115 -0.4577  0.8108  0.3210
 1908poe     o2 9929   2.333   5.029   4.134 -0.0597 -0.4807 -0.7533
 1908poe    c23 9930   2.344   4.888   4.140 -0.2259 -0.4582  0.0909
 1908poe    c23 9931   2.204   4.824   4.145 -0.3510 -0.2072 -0.2068
 1908poe     o2 9932   2.142   4.811   4.271 -0.3606  0.4388 -0.1407
 1908poe    c23 9933   2.006   4.841   4.286 -0.3842  0.3553 -0.1899
 1908poe    c23 9934   1.989   4.824   4.438  0.8062  0.1793 -0.0675
 1908poe     o2 9935   2.035   4.916   4.534 -0.0547  0.2375  0.3018
 1908poe    c31 9936   2.019   4.888   4.671  0.1989  0.1630  0.3173
 1909poe    c31 9937   1.015   2.267   2.853  0.0221  0.3956 -0.3254
 1909poe     o2 9938   1.095   2.257   2.968 -0.2440  0.1447 -0.1623
 1909poe    c23 9939   1.077   2.383   3.030 -0.1588  0.0882 -0.0215
 1909poe    c23 9940   1.104   2.364   3.181 -0.0016 -0.3937 -0.1063
 1909poe     o2 9941   1.227   2.299   3.197  0.3919  0.4430  0.3217
 1909poe    c23 9942   1.280   2.340   3.321  0.6770  0.9302  0.0418
 1909poe    c23 9943   1.374   2.242   3.394  0.1180  0.2630 -0.1238
 1909poe     o2 9944   1.471   2.208   3.298 -0.2530  0.2902 -0.5107
 1909poe    c23 9945   1.581   2.136   3.349 -0.7074 -0.1427 -0.1332
 1909poe    c23 9946   1.706   2.143   3.258 -0.3945 -0.6254  0.2535
 1909poe     o2 9947   1.759   2.274   3.256 -0.2750 -0.6824 -0.4856
 1909poe    c31 9948   1.861   2.274   3.159 -0.2632  0.3182 -0.4882
 1910poe    c31 9949   2.980   3.404   0.518  0.0281  0.3753 -0.3993
 1910poe     o2 9950   2.969   3.523   0.443 -0.6863  0.3891 -0.2808
 1910poe    c23 9951   2.985   3.630   0.532 -0.5442  0.1394 -0.0049
 1910poe    c23 9952   2.978   3.771   0.470  0.1048  0.2507  0.1623
 1910poe     o2 9953   3.037   3.758   0.343  0.2490  0.2235  0.2315
 1910poe    c23 9954   3.045   3.891   0.295  0.5756  0.2583  0.3810
 1910poe    c23 9955   3.103   3.886   0.152  0.1043  0.1985  0.1910
 1910poe     o2 9956   3.050   3.774   0.084  0.0272  0.3458  0.0092
 1910poe    c23 9957   3.135   3.749  -0.026  0.1643  0.2567  0.1352
 1910poe    c23 9958   3.099   3.624  -0.108 -0.0441 -0.2800  1.0309
 1910poe     o2 9959   2.989   3.639  -0.195  0.7269 -0.1307  0.0569
 1910poe    c31 9960   2.998   3.733  -0.299 -0.6807 -0.0480 -0.0090
 1911poe    c31 9961   1.174   2.620   4.145  0.0841 -0.2234 -0.7104
 1911poe     o2 9962   1.107   2.719   4.071  0.5677  0.6214 -0.0350
 1911poe    c23 9963   1.074   2.829   4.153  1.1290  0.4610  0.4151
 1911poe    c23 9964   1.017   2.949   4.074  0.0436 -0.1446  0.2485
 1911poe     o2 9965   0.929   2.919   3.968  0.1899  0.4144 -0.0321
 1911poe    c23 9966   0.877   3.019   3.883 -0.0339  0.4381  0.1333
 1911poe    c23 9967   0.793   2.977   3.761 -0.2030  0.3238  0.2899
 1911poe     o2 9968   0.898   2.930   3.680 -0.0923  0.5934  0.2778
 1911poe    c23 9969   0.861   2.891   3.550  0.4846  0.3787  0.1732
 1911poe    c23 9970   0.976   2.835   3.464  0.6525 -0.0259  0.6566
 1911poe     o2 9971   1.008   2.708   3.516  0.2138 -0.3228  0.2121
 1911poe    c31 9972   1.013   2.620   3.405 -0.2771 -0.4176  0.2580
 1912poe    c31 9973   4.385   0.734   6.597  0.2359 -0.5026  0.2169
 1912poe     o2 9974   4.493   0.727   6.506 -0.0627  0.2906 -0.2152
 1912poe    c23 9975   4.578   0.836   6.532 -0.0252  0.2262 -0.0686
 1912poe    c23 9976   4.716   0.796   6.475  0.0167  0.2385  0.0237
 1912poe     o2 9977   4.683   0.725   6.357  0.0180 -0.6513  0.5440
 1912poe    c23 9978   4.799   0.682   6.290 -0.3702  0.3482 -0.8139
 1912poe    c23 9979   4.757   0.661   6.143  0.0185  1.3289 -1.0751
 1912poe     o2 9980   4.655   0.563   6.151  0.6923  0.6705 -0.3241
 1912poe    c23 9981   4.678   0.459   6.058 -0.1808  0.2296 -0.0489
 1912poe    c23 9982   4.571   0.348   6.066  0.1046 -0.0687 -0.3460
 1912poe     o2 9983   4.550   0.305   6.199 -0.4670  0.1090 -0.3764
 1912poe    c31 9984   4.475   0.187   6.180  0.3465 -0.5039  0.1699
 1913poe    c31 9985   4.101   1.061   0.807 -0.4251  0.1098  0.2849
 1913poe     o2 9986   4.116   1.193   0.758  0.1677 -0.0625 -0.0034
 1913poe    c23 9987   4.014   1.230   0.669  0.3435 -0.4151 -0.3530
 1913poe    c23 9988   4.046   1.372   0.620  0.1238 -0.3627 -0.3462
 1913poe     o2 9989   4.184   1.360   0.597  0.1772 -0.1595 -0.1418
 1913poe    c23 9990   4.238   1.440   0.494  0.6231  0.3317  0.4653
 1913poe    c23 9991   4.390   1.437   0.519  0.6097  0.4678  0.5628
 1913poe     o2 9992   4.424   1.302   0.544  0.4894  0.3293  0.0016
 1913poe    c23 9993   4.546   1.267   0.484  0.3470 -0.0289 -0.0789
 1913poe    c23 9994   4.615   1.142   0.543 -0.2291 -0.3487 -0.0726
 1913poe     o2 9995   4.631   1.161   0.682 -0.1338 -0.0838 -0.1183
 1913poe    c31 9996   4.727   1.064   0.714 -0.1681 -0.1502 -0.2142
 1914poe    c31 9997   1.778   3.954   6.015 -0.2679  0.8045 -0.1871
 1914poe     o2 9998   1.790   4.019   6.140  0.8127 -0.0886  0.1887
 1914poe    c23 9999   1.691   4.119   6.148  1.1842  0.3224 -0.2217
 1914poe    c2310000   1.709   4.215   6.267  0.2377 -0.0312  0.2189
 1914poe     o210001   1.828   4.283   6.235  0.3255 -0.2400  0.1010
 1914poe    c2310002   1.843   4.380   6.336  0.2711 -0.4180  0.2817
 1914poe    c2310003   1.979   4.444   6.300  0.1575 -0.1104  0.3971
 1914poe     o210004   2.089   4.357   6.308  0.1006 -0.1905  0.3069
 1914poe    c2310005   2.198   4.428   6.255 -0.5172  0.2022 -0.4478
 1914poe    c2310006   2.283   4.344   6.158 -0.0393 -0.1556  0.2699
 1914poe     o210007   2.369   4.246   6.210  0.0414 -0.1422  0.1619
 1914poe    c3110008   2.435   4.168   6.113 -0.7546 -0.1928 -0.3499
 1915poe    c3110009   3.638   5.223   1.815 -0.1921 -0.0288  0.6563
 1915poe     o210010   3.725   5.209   1.705 -0.0386  0.3855  0.7227
 1915poe    c2310011   3.828   5.305   1.712  0.0396  0.3436  0.1660
 1915poe    c2310012   3.925   5.262   1.600 -0.1523 -0.3714  0.2732
 1915poe     o210013   3.945   5.123   1.611  0.0841 -0.3846 -0.3102
 1915poe    c2310014   4.064   5.076   1.550  0.3714 -0.0658 -0.0019
 1915poe    c2310015   4.076   4.923   1.536 -0.1406 -0.0947 -0.1666
 1915poe     o210016   3.947   4.895   1.486 -0.0083  0.0926 -0.6223
 1915poe    c2310017   3.934   4.755   1.475 -0.0676  0.1161 -0.8562
 1915poe    c2310018   3.789   4.704   1.457 -0.1661  0.1579 -0.2243
 1915poe     o210019   3.716   4.737   1.572  0.2686  0.3810 -0.0072
 1915poe    c3110020   3.703   4.632   1.666  0.0492  0.5932  0.1998
 1916poe    c3110021   2.202   3.577   2.693  0.0589  0.2996 -0.7278
 1916poe     o210022   2.157   3.592   2.826  0.5944 -0.5504 -0.4449
 1916poe    c2310023   2.025   3.549   2.854  0.2812  0.0849 -0.9236
 1916poe    c2310024   2.019   3.402   2.898  0.1677  0.3344 -0.0962
 1916poe     o210025   2.066   3.375   3.029 -0.7721 -0.1911  0.1416
 1916poe    c2310026   2.022   3.253   3.084 -0.2449 -0.4108  0.0723
 1916poe    c2310027   1.957   3.270   3.222 -0.0597 -0.6313  0.1873
 1916poe     o210028   2.045   3.310   3.325  0.0435 -0.1335 -0.0943
 1916poe    c2310029   1.962   3.360   3.427 -0.1696 -1.1444  0.2306
 1916poe    c2310030   2.041   3.371   3.559  0.4027 -0.4987 -0.1583
 1916poe     o210031   2.140   3.469   3.579  0.0647 -0.1623 -0.1235
 1916poe    c3110032   2.086   3.599   3.574 -0.2459 -0.2976 -0.3842
 1917poe    c3110033   6.736   4.023   1.194 -0.0856  0.3565 -0.4388
 1917poe     o210034   6.673   4.088   1.085  0.3649  0.3422 -0.7081
 1917poe    c2310035   6.533   4.084   1.101  0.3871 -0.7774 -0.7701
 1917poe    c2310036   6.464   4.150   0.981 -0.3837 -0.3298 -0.0876
 1917poe     o210037   6.557   4.179   0.879 -0.0484  0.3548  0.4029
 1917poe    c2310038   6.498   4.262   0.781 -0.6002 -0.9400 -0.3861
 1917poe    c2310039   6.576   4.218   0.655  0.5005  0.0216 -0.0551
 1917poe     o210040   6.710   4.233   0.697  0.3610  0.2513  0.3119
 1917poe    c2310041   6.797   4.214   0.589 -0.0513 -0.1163  0.0404
 1917poe    c2310042   6.936   4.272   0.623 -0.4196  0.4802  0.5229
 1917poe     o210043   6.947   4.410   0.649  0.0714  0.6096 -0.3455
 1917poe    c3110044   7.078   4.448   0.683  0.1910 -0.2558  0.1853
 1918poe    c3110045   1.591   1.008   7.049  0.0232  0.0388 -0.2823
 1918poe     o210046   1.513   0.909   6.984  0.4799 -0.2617 -0.3801
 1918poe    c2310047   1.516   0.795   7.067  0.1562 -0.2363 -0.3303
 1918poe    c2310048   1.450   0.685   6.982  0.0353 -0.4740  0.0735
 1918poe     o210049   1.311   0.709   6.971  0.0910 -0.1929 -0.0254
 1918poe    c2310050   1.244   0.615   6.890  0.3046 -0.2924 -0.0871
 1918poe    c2310051   1.097   0.656   6.870  0.4248  0.2307  0.0925
 1918poe     o210052   1.102   0.790   6.828  0.2786  0.2388  0.1033
 1918poe    c2310053   0.976   0.850   6.808  0.3079  0.3356  0.2080
 1918poe    c2310054   0.989   1.002   6.782 -0.2449  0.3130 -0.2359
 1918poe     o210055   1.085   1.044   6.877  0.4475  0.0222 -0.7922
 1918poe    c3110056   1.078   1.184   6.876 -0.8602 -0.0195 -0.0692
 1919poe    c3110057   5.451   5.522   6.254  0.3982 -0.4544  0.2481
 1919poe     o210058   5.494   5.453   6.138 -0.2284 -0.3873 -0.0282
 1919poe    c2310059   5.548   5.526   6.031 -0.2153 -0.4709 -0.0771
 1919poe    c2310060   5.619   5.440   5.924 -0.0591  0.1080 -0.4448
 1919poe     o210061   5.532   5.369   5.838  0.3085 -0.4065 -0.3944
 1919poe    c2310062   5.600   5.301   5.734  0.1500 -0.8335 -0.2206
 1919poe    c2310063   5.497   5.232   5.643 -0.2136 -0.0089 -0.4494
 1919poe     o210064   5.392   5.181   5.723 -0.1693  0.5018 -0.0620
 1919poe    c2310065   5.282   5.150   5.641 -0.1717  1.2478 -0.3551
 1919poe    c2310066   5.141   5.182   5.694 -0.1103  0.2954  0.4230
 1919poe     o210067   5.123   5.138   5.827  0.4411 -0.0764  0.3735
 1919poe    c3110068   4.988   5.132   5.864  0.3508  0.3266  0.1110
 1920poe    c3110069   5.487   6.886   1.446  1.3617 -0.2335 -0.3435
 1920poe     o210070   5.479   6.787   1.347 -0.0757 -0.3221 -0.1696
 1920poe    c2310071   5.349   6.783   1.294 -0.1151  0.4994 -0.1410
 1920poe    c2310072   5.365   6.722   1.153 -0.3639  0.0276  0.0354
 1920poe     o210073   5.427   6.809   1.062  0.3806 -0.1158  0.3999
 1920poe    c2310074   5.428   6.759   0.930 -1.0365  0.6400  0.0773
 1920poe    c2310075   5.552   6.826   0.868 -0.5346  0.0810  0.4599
 1920poe     o210076   5.677   6.800   0.929 -0.0426  0.7692 -0.2357
 1920poe    c2310077   5.763   6.719   0.852  0.0526  0.2966  0.3612
 1920poe    c2310078   5.900   6.681   0.909 -0.0468 -0.6123  0.0071
 1920poe     o210079   5.968   6.803   0.922 -0.2906 -0.5151  0.3845
 1920poe    c3110080   6.073   6.787   1.015 -0.0648 -0.1802  0.1918
 1921poe    c3110081   6.588   6.288   0.433  0.1550 -0.2136 -0.0963
 1921poe     o210082   6.475   6.308   0.514  0.1018 -0.3974 -0.1251
 1921poe    c2310083   6.516   6.354   0.641  0.0575  0.0840 -0.2839
 1921poe    c2310084   6.394   6.342   0.735  0.2155 -0.1612 -0.1103
 1921poe     o210085   6.275   6.379   0.669  0.4800  0.1442 -0.4177
 1921poe    c2310086   6.161   6.385   0.751  0.4109  0.0760 -0.5094
 1921poe    c2310087   6.034   6.416   0.668 -0.1349  0.0292  0.2971
 1921poe     o210088   6.011   6.304   0.585 -0.0431  0.2409 -0.0127
 1921poe    c2310089   5.920   6.334   0.481  0.6641  0.3583 -0.6041
 1921poe    c2310090   5.902   6.205   0.398  0.0007 -0.1046  0.2457
 1921poe     o210091   6.006   6.189   0.305  0.1103 -0.0489  0.3577
 1921poe    c3110092   5.996   6.065   0.239 -0.4991  0.0877  0.1840
 1922poe    c3110093   4.644   7.068   5.611 -0.2087  0.2983 -0.3984
 1922poe     o210094   4.751   7.134   5.673  0.1278 -0.2931 -0.3432
 1922poe    c2310095   4.723   7.139   5.811 -0.5646  0.6555 -0.5042
 1922poe    c2310096   4.857   7.168   5.881 -0.6066 -0.0511 -0.1168
 1922poe     o210097   4.929   7.264   5.806 -0.4209 -0.0604  0.0485
 1922poe    c2310098   5.054   7.300   5.861 -0.3839 -0.0878 -0.0183
 1922poe    c2310099   5.129   7.395   5.766  0.0121 -0.0319  0.3460
 1922poe     o210100   5.137   7.351   5.632 -0.0237  0.2684  0.2460
 1922poe    c2310101   5.190   7.457   5.555  0.1553  0.2240  0.3079
 1922poe    c2310102   5.149   7.450   5.407  0.5569  0.0682  0.2016
 1922poe     o210103   5.016   7.498   5.398  0.2952 -0.7400 -0.3561
 1922poe    c3110104   4.956   7.463   5.275 -0.4297 -0.3925 -0.1046
 1923poe    c3110105   5.659   1.959   5.859 -0.8408  0.6170  0.0124
 1923poe     o210106   5.577   2.069   5.827 -0.7366  0.5810 -0.3842
 1923poe    c2310107   5.464   1.996   5.868 -0.1050 -0.2887 -0.1649
 1923poe    c2310108   5.344   2.086   5.905  0.2172 -0.1623  0.6042
 1923poe     o210109   5.335   2.168   6.019 -0.0701  0.5822  0.0599
 1923poe    c2310110   5.200   2.208   6.016 -0.1974  0.1280 -0.3919
 1923poe    c2310111   5.170   2.277   6.150 -0.2720 -0.0464 -0.3195
 1923poe     o210112   5.183   2.199   6.267  0.0893  0.3992 -0.0601
 1923poe    c2310113   5.181   2.280   6.382  0.0343  0.0413  0.1956
 1923poe    c2310114   5.253   2.193   6.486 -0.2550 -0.3648  0.0546
 1923poe     o210115   5.374   2.145   6.432 -0.1694 -0.0834  0.0010
 1923poe    c3110116   5.450   2.083   6.533 -1.1695 -0.0437  0.7943
 1924poe    c3110117   1.486   3.529   0.290 -0.6170 -0.3713 -0.4211
 1924poe     o210118   1.554   3.519   0.413 -0.3977  0.4287 -0.4682
 1924poe    c2310119   1.521   3.624   0.501  0.0657 -0.4761  0.8274
 1924poe    c2310120   1.514   3.560   0.641 -0.0037 -0.4849  0.8199
 1924poe     o210121   1.627   3.476   0.653 -0.2298 -0.9130  0.0379
 1924poe    c2310122   1.659   3.417   0.777  0.0170 -0.1056  0.3702
 1924poe    c2310123   1.809   3.386   0.791  0.0880  0.3909  0.7265
 1924poe     o210124   1.845   3.301   0.684 -0.1531  0.2088  0.7893
 1924poe    c2310125   1.980   3.263   0.692 -0.1613 -0.2081 -0.7929
 1924poe    c2310126   2.031   3.185   0.569  0.7294 -0.1937 -0.4471
 1924poe     o210127   1.994   3.250   0.449  0.2578 -0.1314 -0.2695
 1924poe    c3110128   1.973   3.147   0.356 -0.4114 -0.2628  0.0164
 1925poe    c3110129   4.793   4.903   0.444 -0.7007 -0.3245  0.1527
 1925poe     o210130   4.792   4.767   0.481  0.6235 -0.4561 -0.2509
 1925poe    c2310131   4.821   4.767   0.619  0.2074  0.1054 -0.1580
 1925poe    c2310132   4.769   4.627   0.656  0.3787 -0.0094 -0.3424
 1925poe     o210133   4.833   4.539   0.567  0.5498 -0.2148 -0.0197
 1925poe    c2310134   4.875   4.420   0.629 -0.2545 -0.3805  0.2257
 1925poe    c2310135   4.996   4.370   0.548 -0.4334 -0.3684 -0.0502
 1925poe     o210136   4.975   4.343   0.412  0.1927 -0.2131 -0.1815
 1925poe    c2310137   5.102   4.322   0.353  0.3341  0.2678 -0.0565
 1925poe    c2310138   5.081   4.278   0.207  0.3542  0.4888 -0.1253
 1925poe     o210139   5.045   4.390   0.128 -0.0300 -0.0948 -0.7945
 1925poe    c3110140   5.120   4.386   0.009 -0.0182  0.0339 -0.7915
 1926poe    c3110141   3.444   0.799   6.975 -0.4262  0.0794 -0.1460
 1926poe     o210142   3.428   0.802   7.115  0.0540  0.0122 -0.0876
 1926poe    c2310143   3.315   0.883   7.138 -0.1596 -0.4190  0.3924
 1926poe    c2310144   3.291   0.904   7.289 -0.0484  0.2174  0.3233
 1926poe     o210145   3.251   0.779   7.340 -1.0039  0.4283  0.1186
 1926poe    c2310146   3.271   0.793   7.479 -0.1775 -0.4331  0.0967
 1926poe    c2310147   3.410   0.764   7.540  0.1845 -0.4746 -0.7266
 1926poe     o210148   3.441   0.631   7.575  0.3961 -0.3083 -0.2773
 1926poe    c2310149   3.555   0.626   7.658  0.0811 -0.0045  0.1801
 1926poe    c2310150   3.550   0.599   7.810 -0.7352  0.8535  0.3198
 1926poe     o210151   3.668   0.612   7.886  0.3618 -0.6126 -1.0566
 1926poe    c3110152   3.726   0.740   7.881  0.0311 -0.4297 -0.2738
 1927poe    c3110153   0.277   1.468   4.450  0.1042  0.1116 -0.4218
 1927poe     o210154   0.348   1.466   4.329  0.1320  0.1547 -0.4060
 1927poe    c2310155   0.455   1.558   4.337  0.2210  0.0027  0.1394
 1927poe    c2310156   0.524   1.552   4.200  0.1204  1.0462  0.0351
 1927poe     o210157   0.442   1.552   4.085  0.1293 -0.0864  0.0176
 1927poe    c2310158   0.498   1.610   3.969 -0.1180 -0.3407 -0.2317
 1927poe    c2310159   0.429   1.576   3.836 -0.1311  0.0006 -0.3128
 1927poe     o210160   0.302   1.632   3.861 -0.0047  0.2198 -0.1661
 1927poe    c2310161   0.222   1.627   3.745 -0.6022 -0.4980  0.2688
 1927poe    c2310162   0.103   1.725   3.742 -0.0066  0.2386  0.4580
 1927poe     o210163   0.008   1.698   3.842 -0.3402  0.0832  0.1029
 1927poe    c3110164  -0.086   1.803   3.840 -0.2163  0.1886 -0.4916
 1928poe    c3110165   2.321   3.150   1.415  0.5478 -0.1535  0.2396
 1928poe     o210166   2.355   3.252   1.324 -0.2054 -0.2135 -0.1134
 1928poe    c2310167   2.250   3.342   1.298 -0.1185 -0.0933 -0.0516
 1928poe    c2310168   2.300   3.452   1.202  0.1055 -0.2569 -0.1233
 1928poe     o210169   2.425   3.481   1.260  0.0387 -0.0774 -0.0664
 1928poe    c2310170   2.498   3.560   1.170 -0.2748  0.4434  0.1344
 1928poe    c2310171   2.637   3.602   1.223 -0.2513 -0.0919  0.5041
 1928poe     o210172   2.725   3.492   1.220 -0.1124  0.0321 -0.0420
 1928poe    c2310173   2.862   3.519   1.239 -0.0495 -0.0613 -0.3618
 1928poe    c2310174   2.958   3.408   1.189  0.3290  0.0120  0.1956
 1928poe     o210175   2.930   3.353   1.063 -0.4508  0.3464  0.2181
 1928poe    c3110176   3.048   3.306   1.002 -0.5021  0.4548  0.0348
 1929poe    c3110177   1.210   4.598   3.692  0.1495  0.3744  0.4564
 1929poe     o210178   1.121   4.490   3.708  0.2072  0.2277 -0.2119
 1929poe    c2310179   1.049   4.485   3.829 -0.2796  0.3895 -0.4893
 1929poe    c2310180   1.107   4.395   3.939 -0.3657  0.4119 -0.4256
 1929poe     o210181   1.092   4.263   3.890  1.0338 -0.0336  0.2653
 1929poe    c2310182   1.022   4.175   3.975 -0.0633  0.3031 -0.2712
 1929poe    c2310183   1.005   4.030   3.928  0.2674  0.1720  0.0131
 1929poe     o210184   0.951   4.014   3.799  0.0248 -0.4093  0.1814
 1929poe    c2310185   0.903   3.883   3.783 -0.3504 -0.2746  0.1921
 1929poe    c2310186   0.991   3.793   3.694  0.1638  0.3381  0.0794
 1929poe     o210187   1.009   3.847   3.564  0.7070 -0.2907 -0.1126
 1929poe    c3110188   1.061   3.745   3.483 -0.1459 -0.3049 -0.6555
 1930poe    c3110189   2.499   4.483   6.585  0.0818 -0.8893 -0.0503
 1930poe     o210190   2.390   4.535   6.514 -0.3251 -0.6749  0.7163
 1930poe    c2310191   2.327   4.638   6.587  0.2605 -0.1469  0.4872
 1930poe    c2310192   2.264   4.625   6.727  0.5932 -0.0710  0.6431
 1930poe     o210193   2.141   4.559   6.708  0.3783  0.4522  0.1925
 1930poe    c2310194   2.073   4.525   6.827 -0.2185 -0.5222 -0.4084
 1930poe    c2310195   1.920   4.516   6.839 -0.2064 -0.0666  0.1418
 1930poe     o210196   1.877   4.412   6.753  0.5570 -0.1368 -0.1598
 1930poe    c2310197   1.774   4.330   6.802  0.1958  0.1301 -0.4651
 1930poe    c2310198   1.638   4.400   6.784  0.0090 -0.0515  0.2047
 1930poe     o210199   1.630   4.518   6.861  0.0012 -0.0663  0.2265
 1930poe    c3110200   1.507   4.579   6.830  0.0624 -0.0598  0.0008
 1931poe    c3110201   3.651   5.292   1.200  0.1427 -0.1004 -0.2697
 1931poe     o210202   3.637   5.391   1.101 -1.0342 -0.0011 -0.0234
 1931poe    c2310203   3.659   5.322   0.980  0.6104  0.2232  0.1252
 1931poe    c2310204   3.674   5.404   0.851  0.2283 -0.3915 -0.3155
 1931poe     o210205   3.553   5.469   0.821 -0.0041 -0.7985 -0.2721
 1931poe    c2310206   3.567   5.551   0.706 -0.4241 -0.2094  0.0923
 1931poe    c2310207   3.431   5.619   0.681 -0.5132 -0.4149  0.0150
 1931poe     o210208   3.401   5.692   0.798 -0.1783  0.0331 -0.1753
 1931poe    c2310209   3.266   5.667   0.830 -0.0890 -0.2870 -0.0443
 1931poe    c2310210   3.216   5.785   0.916  0.2638  0.2455 -0.5668
 1931poe     o210211   3.306   5.820   1.018  0.0057 -0.0811 -0.2291
 1931poe    c3110212   3.262   5.936   1.084  0.5685 -0.2439  0.4542
 1932poe    c3110213   1.778   5.914   3.096  0.0660 -0.1069 -0.0568
 1932poe     o210214   1.652   5.977   3.094 -0.1683 -0.5839 -0.8598
 1932poe    c2310215   1.619   6.044   2.974  0.5054  0.2185 -0.6072
 1932poe    c2310216   1.489   6.126   2.982  0.3802 -0.0284 -0.0298
 1932poe     o210217   1.384   6.041   3.020  0.0711  0.4593  0.2145
 1932poe    c2310218   1.275   6.121   3.061 -0.1036  0.5240 -0.3754
 1932poe    c2310219   1.157   6.044   3.122  0.4306 -0.2946 -0.3617
 1932poe     o210220   1.196   5.972   3.237 -0.2362 -0.1012 -0.0068
 1932poe    c2310221   1.101   5.958   3.340 -0.0803  0.5672  0.2277
 1932poe    c2310222   1.170   5.948   3.477  0.2232  0.1868  0.0460
 1932poe     o210223   1.178   6.077   3.534 -0.1731  0.1220  0.2506
 1932poe    c3110224   1.187   6.081   3.674  0.1297  0.0998  0.2322
 1933poe    c3110225   6.209   1.882   0.931 -0.0069  0.5979  0.1621
 1933poe     o210226   6.191   1.949   1.053  0.1348  0.4594  0.2593
 1933poe    c2310227   6.206   1.861   1.163  0.4697  0.1935  0.0021
 1933poe    c2310228   6.199   1.937   1.296  0.1650  0.0430  0.0720
 1933poe     o210229   6.074   1.999   1.319 -0.0951 -0.5278  0.2062
 1933poe    c2310230   6.066   2.081   1.433 -0.4078  0.0069 -0.1936
 1933poe    c2310231   5.918   2.116   1.457 -0.5601 -0.4975 -0.3917
 1933poe     o210232   5.875   2.181   1.340 -0.3729  0.4377  0.0524
 1933poe    c2310233   5.742   2.226   1.339 -0.3954  0.3834  0.5176
 1933poe    c2310234   5.705   2.262   1.194 -0.0902 -0.2839  0.2682
 1933poe     o210235   5.752   2.158   1.112  0.1082 -0.0808  0.1230
 1933poe    c3110236   5.708   2.186   0.981 -0.9889 -0.1598  0.4615
 1934poe    c3110237   2.407   3.755   1.537 -0.5451  0.3913  0.5473
 1934poe     o210238   2.449   3.889   1.527 -0.3478  0.2780 -0.2682
 1934poe    c2310239   2.541   3.901   1.421  0.0952 -0.0492  0.0791
 1934poe    c2310240   2.614   4.032   1.459 -0.3292  0.2178 -0.0186
 1934poe     o210241   2.522   4.131   1.498 -0.4971 -0.0824  0.3581
 1934poe    c2310242   2.589   4.250   1.532  0.0312 -0.2667 -0.0346
 1934poe    c2310243   2.482   4.346   1.585  0.1389 -0.1208 -0.0793
 1934poe     o210244   2.419   4.288   1.697 -0.1854 -0.1409 -0.2687
 1934poe    c2310245   2.314   4.369   1.744 -0.2044 -0.3264  0.0135
 1934poe    c2310246   2.235   4.306   1.861 -0.1278 -0.6252 -0.0950
 1934poe     o210247   2.163   4.197   1.808  0.0118 -0.6402 -0.2576
 1934poe    c3110248   2.085   4.143   1.913 -0.5045  0.1032 -0.2528
 1935poe    c3110249   3.386   6.895   5.679  0.4730 -0.0152  0.1156
 1935poe     o210250   3.442   6.984   5.772  0.3123  0.2006  0.0068
 1935poe    c2310251   3.350   7.091   5.782 -0.0576 -0.1720  0.6514
 1935poe    c2310252   3.412   7.230   5.809 -0.2759  0.0405  0.0613
 1935poe     o210253   3.488   7.248   5.926  0.2529  0.4198 -0.3359
 1935poe    c2310254   3.545   7.377   5.930  0.4975  0.3170 -0.4818
 1935poe    c2310255   3.644   7.385   6.047 -0.1074  0.1739  0.0473
 1935poe     o210256   3.725   7.270   6.042 -0.3544  0.0013  0.0105
 1935poe    c2310257   3.844   7.287   6.117 -0.2449  0.1390 -0.1938
 1935poe    c2310258   3.939   7.172   6.077 -0.0472  0.3355 -0.2865
 1935poe     o210259   3.848   7.065   6.071  0.2233  0.0657  0.2946
 1935poe    c3110260   3.917   6.942   6.062 -0.0321 -0.0594  0.0298
 1936poe    c3110261   4.265   6.582   3.689 -0.1457 -0.3880 -0.2030
 1936poe     o210262   4.325   6.699   3.739  0.2577 -0.6316 -0.1061
 1936poe    c2310263   4.465   6.706   3.726  0.2435 -0.5765 -0.2234
 1936poe    c2310264   4.529   6.841   3.763 -1.2502  0.0981 -0.0022
 1936poe     o210265   4.485   6.952   3.687  0.3904  0.4403 -0.4929
 1936poe    c2310266   4.516   7.068   3.760 -0.4555  0.4982 -0.2200
 1936poe    c2310267   4.415   7.172   3.709 -0.4483  0.7402  0.2461
 1936poe     o210268   4.437   7.188   3.570 -0.1430 -0.0531  0.1976
 1936poe    c2310269   4.335   7.271   3.521  0.4092  0.6230  0.1720
 1936poe    c2310270   4.380   7.301   3.377 -0.3344  0.2016 -0.1551
 1936poe     o210271   4.445   7.186   3.329  0.0829  0.2425  0.3058
 1936poe    c3110272   4.483   7.202   3.194  0.0376 -0.1913  0.2411
 1937poe    c3110273   2.812   0.366   0.715  0.8725 -0.8258 -0.1016
 1937poe     o210274   2.724   0.257   0.727 -0.1263 -0.0124  0.1120
 1937poe    c2310275   2.656   0.236   0.605 -0.2295 -0.3297  0.2243
 1937poe    c2310276   2.590   0.096   0.604  0.0964 -0.4830 -0.2354
 1937poe     o210277   2.690   0.001   0.631  0.2973 -0.2474 -0.1366
 1937poe    c2310278   2.656  -0.136   0.636 -0.6322  0.0003  0.6245
 1937poe    c2310279   2.782  -0.223   0.621 -0.4762  0.2550  0.4488
 1937poe     o210280   2.848  -0.253   0.742  0.3165  0.4336  0.0722
 1937poe    c2310281   2.973  -0.315   0.728  0.0618 -0.2203  0.6481
 1937poe    c2310282   3.048  -0.289   0.860  0.3237 -0.3168  0.5187
 1937poe     o210283   3.005  -0.169   0.919  0.1819  0.1764 -0.5776
 1937poe    c3110284   3.066  -0.144   1.043 -0.3496 -0.5252 -0.1687
 1938poe    c3110285   4.466   5.312   1.136 -0.1214 -0.2066  0.0275
 1938poe     o210286   4.567   5.261   1.221 -0.1315  0.2090  0.2889
 1938poe    c2310287   4.533   5.132   1.266  1.2834 -0.4276 -0.3970
 1938poe    c2310288   4.636   5.070   1.362  0.2469 -0.5136  0.6870
 1938poe     o210289   4.611   5.115   1.493 -0.2474 -0.0574  0.4404
 1938poe    c2310290   4.701   5.078   1.594  0.1718  0.2900  0.1970
 1938poe    c2310291   4.639   5.149   1.716 -0.2671  0.3289 -0.0508
 1938poe     o210292   4.649   5.287   1.690  1.0970  0.2365 -0.0658
 1938poe    c2310293   4.579   5.353   1.793  0.5601 -0.7731  0.2310
 1938poe    c2310294   4.581   5.503   1.756  0.3390 -0.9623 -0.5663
 1938poe     o210295   4.549   5.512   1.619  0.2908 -0.0873 -0.5027
 1938poe    c3110296   4.544   5.646   1.576  0.1775 -0.0801 -0.4661
 1939poe    c3110297   1.612   6.305   0.861 -0.4158 -0.3946  0.0745
 1939poe     o210298   1.670   6.253   0.743  0.7691  0.1178  0.4185
 1939poe    c2310299   1.768   6.162   0.787  0.5356 -0.4030 -0.1265
 1939poe    c2310300   1.837   6.098   0.665 -0.2721 -0.7220 -0.4210
 1939poe     o210301   1.929   6.180   0.597 -0.1045 -0.3033  0.2961
 1939poe    c2310302   2.017   6.093   0.531  0.3256 -0.1459  0.6572
 1939poe    c2310303   2.066   6.145   0.394 -0.5975 -0.4711  0.1957
 1939poe     o210304   1.963   6.168   0.300 -0.1174  0.4595 -0.1115
 1939poe    c2310305   2.014   6.235   0.187  0.1314  0.3943 -0.0384
 1939poe    c2310306   1.953   6.208   0.049 -1.0454 -0.3410  0.6166
 1939poe     o210307   1.830   6.272   0.022 -0.4645  0.6332  0.2504
 1939poe    c3110308   1.796   6.225  -0.107  0.1875 -0.5713  0.5056
 1940poe    c3110309   4.234   4.853   0.443  0.1352  0.2205  0.1871
 1940poe     o210310   4.300   4.886   0.323  0.0243 -0.4546 -0.0672
 1940poe    c2310311   4.420   4.815   0.305  0.0937 -0.3140 -0.1668
 1940poe    c2310312   4.472   4.845   0.163 -0.1326 -0.2621 -0.2389
 1940poe     o210313   4.578   4.758   0.130 -0.0526 -0.2016 -0.1403
 1940poe    c2310314   4.642   4.795   0.010  0.6292 -0.1103  0.2486
 1940poe    c2310315   4.794   4.772  -0.003  0.5915  0.0871 -0.5520
 1940poe     o210316   4.882   4.867   0.052  0.2758 -0.4181  0.8508
 1940poe    c2310317   5.013   4.835   0.011 -0.0959 -0.3258 -0.4581
 1940poe    c2310318   5.096   4.916   0.112 -0.4822 -0.2482 -0.1992
 1940poe     o210319   5.073   4.873   0.245  0.4278 -0.3711 -0.0698
 1940poe    c3110320   5.162   4.945   0.327 -0.3966  0.5401  0.0531
 1941poe    c3110321   6.885   5.542   6.818  0.2364  0.0657  1.6135
 1941poe     o210322   6.760   5.607   6.813  0.3064  0.1105  0.1254
 1941poe    c2310323   6.707   5.618   6.943 -0.1009 -0.4793  0.0183
 1941poe    c2310324   6.573   5.692   6.926  0.3414  0.5023  0.6532
 1941poe     o210325   6.597   5.793   6.830  0.0261  0.2265  0.2796
 1941poe    c2310326   6.490   5.884   6.823  0.2382  0.4694  0.1791
 1941poe    c2310327   6.520   5.988   6.714 -0.2696  0.1564 -0.2658
 1941poe     o210328   6.581   5.926   6.603  0.3828  0.1146  0.1111
 1941poe    c2310329   6.607   6.031   6.513  0.0434  0.2071  0.1220
 1941poe    c2310330   6.604   5.966   6.373  0.5020 -0.3165  0.3532
 1941poe     o210331   6.696   5.859   6.367  0.6475 -0.1599 -0.2035
 1941poe    c3110332   6.687   5.795   6.241 -0.2643  0.3650 -0.4154
 1942poe    c3110333   4.061   6.507   2.384 -0.0004  0.4851  0.6447
 1942poe     o210334   4.054   6.631   2.451  0.3386  0.7406  0.2072
 1942poe    c2310335   4.151   6.646   2.553  0.1351  0.1398  0.4957
 1942poe    c2310336   4.149   6.783   2.624  0.0724  0.2356  0.3136
 1942poe     o210337   4.188   6.892   2.544  0.3057 -0.0343  0.0596
 1942poe    c2310338   4.159   7.010   2.614  0.6438  0.1277 -0.0691
 1942poe    c2310339   4.218   7.126   2.532  0.1359  0.3744 -0.0937
 1942poe     o210340   4.167   7.116   2.401 -0.6217  0.2572  0.2038
 1942poe    c2310341   4.190   7.234   2.328  0.0876 -0.1975 -0.3240
 1942poe    c2310342   4.170   7.228   2.176  0.1297  0.4911 -0.3609
 1942poe     o210343   4.030   7.218   2.158  0.0182  0.0916  0.7094
 1942poe    c3110344   4.005   7.211   2.020  0.2554  0.4585  0.6489
 1943poe    c3110345   0.039   6.991   0.857  0.4215 -0.9073 -0.2732
 1943poe     o210346   0.049   6.892   0.957 -0.3023 -0.2891  0.4314
 1943poe    c2310347   0.170   6.916   1.024  0.0665 -0.4335 -0.1754
 1943poe    c2310348   0.212   6.800   1.116  0.0703  0.0976  0.5055
 1943poe     o210349   0.107   6.740   1.187 -0.4207 -0.1677 -0.4244
 1943poe    c2310350   0.146   6.613   1.234  0.3071  0.2729  0.1935
 1943poe    c2310351   0.017   6.563   1.302  0.2579  0.0762 -0.0427
 1943poe     o210352  -0.073   6.518   1.203 -0.2088  0.1479  0.3452
 1943poe    c2310353  -0.185   6.455   1.262  0.0035 -0.1073  0.4785
 1943poe    c2310354  -0.276   6.385   1.159  0.4104  0.1503 -0.0624
 1943poe     o210355  -0.266   6.465   1.043  0.1967  0.0865 -0.1250
 1943poe    c3110356  -0.373   6.438   0.956  0.0578  0.3129 -0.0239
 1944poe    c3110357   6.921   0.772   3.909 -0.4534 -0.8141 -0.2651
 1944poe     o210358   6.984   0.680   3.824  0.4822 -0.4357  0.0018
 1944poe    c2310359   6.960   0.699   3.686 -0.3529 -0.5942  0.1174
 1944poe    c2310360   7.009   0.590   3.589 -0.5115 -0.0790 -0.5485
 1944poe     o210361   6.929   0.476   3.569 -0.0018 -0.5538  0.0705
 1944poe    c2310362   6.977   0.414   3.451 -0.7034 -0.3895 -0.3076
 1944poe    c2310363   6.918   0.272   3.449  0.0577 -0.7041 -0.5156
 1944poe     o210364   6.782   0.265   3.413 -0.1357 -0.3737  0.1338
 1944poe    c2310365   6.741   0.137   3.454  0.3134 -0.4995  0.1993
 1944poe    c2310366   6.636   0.067   3.365  0.1685  0.1002 -0.1075
 1944poe     o210367   6.510   0.108   3.412  0.1710  0.2214 -0.2085
 1944poe    c3110368   6.418   0.003   3.390  0.2554 -0.0058  0.5054
 1945poe    c3110369   4.974   0.433   4.248 -0.6971 -0.0075  0.0566
 1945poe     o210370   4.970   0.574   4.251 -0.3860  0.0043 -0.0283
 1945poe    c2310371   4.865   0.619   4.168  0.1987  0.5421 -0.4850
 1945poe    c2310372   4.928   0.752   4.123  0.6120  0.5859  0.2067
 1945poe     o210373   4.999   0.807   4.232 -0.4271  0.4904  0.9472
 1945poe    c2310374   4.999   0.946   4.209 -0.1258  0.3007 -0.2837
 1945poe    c2310375   5.077   1.014   4.323 -0.1564 -0.0200 -0.0684
 1945poe     o210376   5.016   0.968   4.441  0.0549  0.1402  0.1023
 1945poe    c2310377   5.062   1.045   4.550  0.1841  0.1765  0.0220
 1945poe    c2310378   4.973   1.021   4.673 -0.0321  0.0163 -0.1661
 1945poe     o210379   4.985   0.884   4.706 -0.1606  0.0412 -0.0148
 1945poe    c3110380   4.989   0.871   4.847  0.6622  0.0334 -0.0301
 1946poe    c3110381   4.776   4.109   3.765 -0.0732  0.5457  0.3312
 1946poe     o210382   4.779   4.105   3.625  0.2722  0.0029  0.3538
 1946poe    c2310383   4.880   4.197   3.592  0.2359 -0.0296  0.1466
 1946poe    c2310384   4.888   4.185   3.439 -0.4280  0.4611  0.0696
 1946poe     o210385   4.866   4.056   3.385  0.7550  0.1958  0.1965
 1946poe    c2310386   4.816   4.059   3.253  0.0777 -0.2053  0.4374
 1946poe    c2310387   4.770   3.914   3.226  0.0092 -0.0918 -0.0779
 1946poe     o210388   4.671   3.878   3.320 -1.0357  0.7097 -0.8441
 1946poe    c2310389   4.564   3.795   3.280 -0.6454  0.1013 -0.6571
 1946poe    c2310390   4.451   3.862   3.199 -0.2855  0.4431 -0.8847
 1946poe     o210391   4.392   3.957   3.285  0.1167  0.0517 -0.1649
 1946poe    c3110392   4.325   4.050   3.203  0.0169  0.2481  0.1387
 1947poe    c3110393   1.426   4.371   1.373 -0.2190  0.0080 -0.1158
 1947poe     o210394   1.429   4.250   1.301  0.1788  0.0823 -0.2281
 1947poe    c2310395   1.311   4.251   1.223 -0.0250 -0.2343  0.0763
 1947poe    c2310396   1.283   4.108   1.173 -0.2289 -0.1794  0.0323
 1947poe     o210397   1.415   4.070   1.140 -0.1234 -0.2162  0.4988
 1947poe    c2310398   1.419   3.949   1.067  0.0038  0.1533 -0.1110
 1947poe    c2310399   1.554   3.931   0.995  0.1310  0.3614  0.0707
 1947poe     o210400   1.660   3.908   1.084  0.1943  0.2828 -0.0251
 1947poe    c2310401   1.783   3.916   1.015 -0.0006 -0.2701 -0.4466
 1947poe    c2310402   1.890   3.949   1.121 -0.2988 -0.4043 -0.1010
 1947poe     o210403   1.877   4.075   1.183 -0.3745 -0.7040  0.4981
 1947poe    c3110404   1.996   4.148   1.206 -0.6053 -0.1210 -0.1035
 1948poe    c3110405   6.633   3.137   1.949  0.4036 -0.4428 -0.4650
 1948poe     o210406   6.531   3.173   1.858 -0.2917 -0.3468  0.3395
 1948poe    c2310407   6.587   3.186   1.729  0.1164  0.7943  0.6166
 1948poe    c2310408   6.463   3.175   1.638  0.4174  0.2216  0.2667
 1948poe     o210409   6.360   3.257   1.689 -0.2550 -0.4237 -0.0438
 1948poe    c2310410   6.240   3.245   1.615 -0.3468 -0.5563  0.1250
 1948poe    c2310411   6.134   3.341   1.671 -0.1620 -0.5316  0.4338
 1948poe     o210412   6.136   3.332   1.812 -0.3534 -0.0041  0.4707
 1948poe    c2310413   6.044   3.420   1.873 -0.2914 -0.0228  0.5920
 1948poe    c2310414   6.064   3.573   1.874 -0.0654 -0.0497  0.2929
 1948poe     o210415   6.041   3.628   1.747  0.2292  0.0265  0.2703
 1948poe    c3110416   6.052   3.768   1.746  0.6999 -0.0072  0.6517
 1949poe    c3110417   5.235   4.121   2.996 -0.2237 -0.1944 -0.1512
 1949poe     o210418   5.274   3.986   3.002  0.2366 -0.0512  0.1417
 1949poe    c2310419   5.163   3.913   2.954  0.2038 -0.2912  0.5705
 1949poe    c2310420   5.208   3.768   2.928  0.4772  0.0194 -0.7395
 1949poe     o210421   5.286   3.752   3.044 -0.0192  0.0919 -0.3944
 1949poe    c2310422   5.317   3.614   3.051 -0.1444  0.0656 -0.3507
 1949poe    c2310423   5.426   3.611   3.160 -0.2886  0.0806 -0.2037
 1949poe     o210424   5.513   3.718   3.128  0.1219 -0.1427  0.1587
 1949poe    c2310425   5.590   3.750   3.242 -0.2471  0.0023  0.3674
 1949poe    c2310426   5.651   3.888   3.213 -0.8376  0.1917  0.0098
 1949poe     o210427   5.540   3.969   3.180 -0.4526  0.4467 -0.6862
 1949poe    c3110428   5.551   4.104   3.220 -0.3361  0.2016  0.1334
 1950poe    c3110429   6.129   5.768   4.081 -0.5392  0.4738 -0.1502
 1950poe     o210430   6.136   5.644   4.147  0.0463  0.3971 -0.3543
 1950poe    c2310431   6.196   5.539   4.074 -0.4263  0.0906 -0.3101
 1950poe    c2310432   6.229   5.411   4.153  0.0056  0.1438 -0.4030
 1950poe     o210433   6.130   5.345   4.227  0.1586  0.2444 -0.1071
 1950poe    c2310434   6.191   5.241   4.300  0.3877  0.1312 -0.4598
 1950poe    c2310435   6.221   5.302   4.438 -0.0241  0.3004 -0.4442
 1950poe     o210436   6.110   5.343   4.515  0.3631  0.1493  0.2075
 1950poe    c2310437   6.150   5.351   4.649 -0.2804 -0.5624  0.4509
 1950poe    c2310438   6.035   5.413   4.730  0.1231 -0.0232  0.6215
 1950poe     o210439   5.992   5.524   4.654  0.2060 -0.6366 -0.3276
 1950poe    c3110440   5.869   5.572   4.701  0.3109 -0.6056 -0.0848
 1951poe    c3110441   3.044   5.440   5.139 -0.1426 -0.1416  0.1695
 1951poe     o210442   3.088   5.496   5.017  0.4899  0.1071  0.5111
 1951poe    c2310443   3.078   5.637   5.013  0.5745  0.1233  0.8451
 1951poe    c2310444   3.121   5.689   4.875  0.1917 -0.5138  0.4809
 1951poe     o210445   3.075   5.597   4.778  0.6956 -0.2347 -0.0320
 1951poe    c2310446   3.119   5.622   4.647 -0.5712  0.1207 -0.4079
 1951poe    c2310447   3.073   5.514   4.547  0.4232 -0.2099 -0.5229
 1951poe     o210448   3.096   5.384   4.598  0.0627 -0.0669  0.0121
 1951poe    c2310449   3.049   5.294   4.501 -0.2726  0.2145 -0.0906
 1951poe    c2310450   3.086   5.147   4.530 -0.2484  0.3005  0.3245
 1951poe     o210451   3.038   5.099   4.654  0.1815  0.2784  0.4834
 1951poe    c3110452   3.028   4.959   4.646  0.2149  0.2783  0.4446
 1952poe    c3110453   5.488   1.250   5.600 -0.2041 -0.0661  0.5671
 1952poe     o210454   5.459   1.122   5.548  0.5704 -0.0824  0.1562
 1952poe    c2310455   5.464   1.030   5.655 -0.2463 -0.0627  0.2147
 1952poe    c2310456   5.436   0.890   5.598  0.1467  0.0136 -0.1742
 1952poe     o210457   5.325   0.897   5.512  0.3219 -0.1793 -0.4179
 1952poe    c2310458   5.275   0.773   5.466  0.1661  0.0240 -0.7937
 1952poe    c2310459   5.132   0.780   5.407  0.0131 -0.5834 -0.5030
 1952poe     o210460   5.128   0.883   5.311  0.1969 -0.6576 -0.5913
 1952poe    c2310461   4.997   0.909   5.266  0.0745  0.1147  0.2022
 1952poe    c2310462   4.989   1.030   5.171 -0.3040 -0.2372 -0.2191
 1952poe     o210463   5.044   1.149   5.223 -0.2514 -0.3701  0.0334
 1952poe    c3110464   5.085   1.236   5.119 -0.1075  0.1485  0.5203
 1953poe    c3110465   4.597   5.269   2.197 -0.8223 -0.0207 -0.8287
 1953poe     o210466   4.646   5.357   2.295 -0.1930 -0.5687 -0.6451
 1953poe    c2310467   4.724   5.272   2.377  0.0774  0.3346  0.0537
 1953poe    c2310468   4.762   5.346   2.506 -0.2809 -0.5517  0.6770
 1953poe     o210469   4.853   5.453   2.487 -0.1026 -0.8056  0.0886
 1953poe    c2310470   4.872   5.506   2.616 -0.4774  0.1898 -0.2568
 1953poe    c2310471   4.992   5.603   2.611 -0.3178 -0.0045 -0.2338
 1953poe     o210472   5.004   5.648   2.478 -0.3863 -0.2959 -0.3384
 1953poe    c2310473   5.093   5.758   2.468  0.4909 -0.9020  0.5796
 1953poe    c2310474   5.148   5.755   2.325  0.1088 -0.3345  0.4182
 1953poe     o210475   5.079   5.683   2.225  0.0121 -0.1356  0.3399
 1953poe    c3110476   5.121   5.715   2.095 -0.1270 -0.2942  0.2556
 1954poe    c3110477   5.461   2.775   4.047 -0.1582 -0.0135 -0.6688
 1954poe     o210478   5.597   2.747   4.025 -0.0364  0.1902 -0.2029
 1954poe    c2310479   5.616   2.621   3.963 -0.8226  0.2721 -0.6175
 1954poe    c2310480   5.717   2.631   3.847 -0.3360 -0.3123 -0.2503
 1954poe     o210481   5.855   2.632   3.876 -0.3247  0.3137 -0.3117
 1954poe    c2310482   5.928   2.681   3.765 -0.2276  0.3862 -0.2164
 1954poe    c2310483   6.076   2.720   3.781 -0.0594 -0.3188  0.0145
 1954poe     o210484   6.094   2.824   3.874  0.2617 -0.8089  0.5009
 1954poe    c2310485   6.231   2.840   3.903  0.2203 -0.1889  0.3656
 1954poe    c2310486   6.268   2.986   3.938 -0.2614 -0.0594  0.3350
 1954poe     o210487   6.213   3.026   4.061 -0.1346 -0.2501  0.4537
 1954poe    c3110488   6.248   3.161   4.085 -0.2096 -0.1561  0.0412
 1955poe    c3110489   4.322   3.877   2.067 -0.1786 -0.2371 -0.0007
 1955poe     o210490   4.431   3.837   1.986  0.5592  0.1101  0.8038
 1955poe    c2310491   4.534   3.933   1.992  0.6593  0.0129  0.6612
 1955poe    c2310492   4.665   3.876   1.937  0.3120 -0.0465 -0.1229
 1955poe     o210493   4.635   3.809   1.816 -0.0547  0.1216 -0.1230
 1955poe    c2310494   4.750   3.746   1.766 -0.2442 -0.3324  0.0123
 1955poe    c2310495   4.701   3.639   1.667 -0.5619 -0.1629 -0.0155
 1955poe     o210496   4.614   3.557   1.742  0.2081 -0.7890  0.2036
 1955poe    c2310497   4.497   3.509   1.681 -0.0875 -0.1721  0.2782
 1955poe    c2310498   4.385   3.478   1.782  0.0863 -0.5092  0.3695
 1955poe     o210499   4.344   3.603   1.834 -0.2033 -0.4421 -0.0172
 1955poe    c3110500   4.222   3.576   1.899  0.1594 -0.1640  0.7952
 1956poe    c3110501   7.104   5.774   7.026  0.4025  0.2285  0.0802
 1956poe     o210502   7.133   5.767   7.164 -0.3310 -0.0351  0.2261
 1956poe    c2310503   7.111   5.641   7.223 -0.4949 -0.1685 -0.1171
 1956poe    c2310504   7.120   5.664   7.375  0.4681 -0.3557 -0.1371
 1956poe     o210505   7.226   5.755   7.394  0.3595 -0.2283 -0.1402
 1956poe    c2310506   7.239   5.797   7.528 -0.6868  0.1448 -0.1454
 1956poe    c2310507   7.352   5.901   7.540 -0.2972 -0.3056  0.1334
 1956poe     o210508   7.307   6.017   7.473  0.1033 -0.1650  0.1011
 1956poe    c2310509   7.420   6.100   7.461 -0.0824  0.1702  0.6258
 1956poe    c2310510   7.371   6.241   7.424 -0.3918 -0.1076 -0.0470
 1956poe     o210511   7.293   6.228   7.307 -0.5232  0.2243  0.0024
 1956poe    c3110512   7.302   6.347   7.232 -0.0967  0.1862 -0.0093
 1957poe    c3110513   2.339   6.093   6.071 -0.4545 -0.3066 -0.1391
 1957poe     o210514   2.200   6.073   6.058 -0.5518  0.6083 -0.6040
 1957poe    c2310515   2.116   6.160   6.131 -0.2559  0.4777 -0.1019
 1957poe    c2310516   1.964   6.144   6.114 -0.2026 -0.4158  0.2244
 1957poe     o210517   1.922   6.010   6.130  0.3683 -0.7185 -0.7111
 1957poe    c2310518   1.787   6.005   6.090  0.1268  0.6588 -0.1248
 1957poe    c2310519   1.738   5.873   6.152  0.8413  0.9914  1.1820
 1957poe     o210520   1.841   5.782   6.125 -0.4692 -0.1388 -0.1850
 1957poe    c2310521   1.807   5.671   6.205  0.2689 -0.2048  0.0419
 1957poe    c2310522   1.899   5.555   6.163  0.2399 -0.3107  0.2646
 1957poe     o210523   2.034   5.597   6.168  0.1196  0.0339  0.6264
 1957poe    c3110524   2.126   5.490   6.160  0.1219  0.0809 -0.0042
 1958poe    c3110525   3.639   1.010   5.217  0.5763 -0.5810  0.2817
 1958poe     o210526   3.614   1.148   5.204  0.0450 -0.7685 -0.7610
 1958poe    c2310527   3.515   1.158   5.104  0.4441 -0.2721 -1.1105
 1958poe    c2310528   3.516   1.307   5.066  0.0612  0.0479  0.1174
 1958poe     o210529   3.641   1.357   5.023  0.1770 -0.1366  0.2388
 1958poe    c2310530   3.616   1.447   4.918 -0.0642  0.0622  0.4643
 1958poe    c2310531   3.752   1.513   4.887 -0.1480 -0.0745 -0.2141
 1958poe     o210532   3.822   1.565   4.998 -0.9314  0.7149 -0.0755
 1958poe    c2310533   3.935   1.645   4.970 -0.7615  0.5197  0.0496
 1958poe    c2310534   4.044   1.669   5.076 -0.6530 -0.6503  0.2222
 1958poe     o210535   4.090   1.560   5.152  0.0429 -0.0771  0.6455
 1958poe    c3110536   4.203   1.596   5.227 -0.2746  0.3666  0.9147
 1959poe    c3110537   1.065   3.945   0.006 -0.0432 -0.4762  0.6640
 1959poe     o210538   0.930   3.966   0.040 -0.2362 -0.3140 -0.1645
 1959poe    c2310539   0.927   4.005   0.176 -0.5675 -0.2613 -0.1868
 1959poe    c2310540   0.780   4.031   0.215 -0.2591  0.1112  0.7566
 1959poe     o210541   0.712   4.089   0.105  0.3810  0.2666  0.4358
 1959poe    c2310542   0.595   4.149   0.157  0.1387  0.0742  0.1139
 1959poe    c2310543   0.494   4.188   0.047 -0.1972 -0.2151  0.3201
 1959poe     o210544   0.539   4.279  -0.051  0.3809 -0.4273  0.3820
 1959poe    c2310545   0.431   4.327  -0.129  0.6879  0.2610  0.3765
 1959poe    c2310546   0.467   4.420  -0.246 -0.2335  0.1514 -0.0058
 1959poe     o210547   0.501   4.337  -0.354 -0.0746 -0.2693  0.3637
 1959poe    c3110548   0.491   4.416  -0.471 -0.5521 -0.0648  0.5387
 1960poe    c3110549   4.019   0.776   5.047  0.1193 -0.1544  0.2029
 1960poe     o210550   3.910   0.707   5.105 -0.3349  0.1886 -0.2394
 1960poe    c2310551   3.940   0.660   5.234 -0.6001  0.0000 -0.2455
 1960poe    c2310552   3.910   0.755   5.351 -0.3982  0.1787 -0.3392
 1960poe     o210553   3.996   0.867   5.354 -0.2502  0.0593 -0.1815
 1960poe    c2310554   3.999   0.924   5.483 -0.3431  0.0496 -0.1752
 1960poe    c2310555   4.124   1.014   5.487 -0.2437 -0.0882 -0.1879
 1960poe     o210556   4.113   1.128   5.406 -0.3159  0.0608  0.0308
 1960poe    c2310557   4.224   1.213   5.394  0.1267 -0.4647  0.3949
 1960poe    c2310558   4.345   1.145   5.326  0.3636 -0.0998  0.4472
 1960poe     o210559   4.425   1.068   5.412 -0.0732 -0.4641  0.5327
 1960poe    c3110560   4.522   1.002   5.334 -0.4065 -0.9096  0.4934
 1961poe    c3110561   1.681   5.934   3.844 -0.2856 -0.4965  0.2889
 1961poe     o210562   1.691   6.001   3.967 -0.7227 -0.0581  0.0880
 1961poe    c2310563   1.772   5.948   4.070 -0.3633  0.1154 -0.1007
 1961poe    c2310564   1.752   6.041   4.191  0.2636  0.1772 -0.0406
 1961poe     o210565   1.778   6.173   4.149  0.4458  0.1691  0.0456
 1961poe    c2310566   1.771   6.264   4.257 -0.0833 -0.0686  0.2152
 1961poe    c2310567   1.625   6.309   4.273 -0.3404 -0.7667 -0.1180
 1961poe     o210568   1.587   6.373   4.153  0.1683  0.0311  0.1382
 1961poe    c2310569   1.448   6.387   4.133  0.1524 -0.4853 -0.1429
 1961poe    c2310570   1.397   6.448   4.002  0.3342  0.0842  0.0489
 1961poe     o210571   1.417   6.370   3.887 -0.0196 -0.4076  0.3193
 1961poe    c3110572   1.374   6.445   3.775  0.8675  0.0624  0.2911
 1962poe    c3110573   4.896   3.263   6.591 -0.4321 -0.5388  0.4246
 1962poe     o210574   4.895   3.222   6.456  0.3380  0.3713  0.1313
 1962poe    c2310575   4.824   3.100   6.464  0.5649  0.1872 -0.5952
 1962poe    c2310576   4.781   3.043   6.328 -0.6158 -0.0836 -0.1149
 1962poe     o210577   4.887   3.070   6.240 -0.0690 -0.5003  0.4087
 1962poe    c2310578   4.864   3.001   6.119 -0.0548 -0.0436  0.1432
 1962poe    c2310579   4.988   3.008   6.028 -0.0298 -0.0315  0.1783
 1962poe     o210580   5.017   3.144   6.007  0.0766 -0.1561 -0.5054
 1962poe    c2310581   5.143   3.175   5.951  0.0796  0.9835  0.1095
 1962poe    c2310582   5.130   3.307   5.873  0.2212  0.9012 -0.0545
 1962poe     o210583   5.051   3.387   5.958 -0.0067  0.5745  0.0427
 1962poe    c3110584   5.041   3.520   5.913  0.0112  0.4331 -0.3882
 1963poe    c3110585   5.327   1.714   1.115  0.0500  0.3130 -0.0639
 1963poe     o210586   5.291   1.585   1.158 -0.0595  0.3639 -0.0028
 1963poe    c2310587   5.206   1.578   1.270  0.4943 -0.4720  0.3747
 1963poe    c2310588   5.162   1.436   1.308  0.2410 -0.4971 -0.0141
 1963poe     o210589   5.253   1.338   1.354 -0.4152 -0.9801  0.2822
 1963poe    c2310590   5.268   1.350   1.493 -0.3739 -0.8748  0.2691
 1963poe    c2310591   5.337   1.221   1.542  0.1689 -0.3939  0.7948
 1963poe     o210592   5.448   1.214   1.455 -0.3455  0.0453  0.0876
 1963poe    c2310593   5.511   1.089   1.474 -0.3250  0.0285 -0.0897
 1963poe    c2310594   5.631   1.073   1.379 -0.0799 -0.0561  0.2313
 1963poe     o210595   5.586   1.125   1.256  0.0495 -0.0344  0.1936
 1963poe    c3110596   5.690   1.122   1.160 -0.0700  0.0700  0.0601
 1964poe    c3110597   0.040   2.429   6.714  0.1499  0.3611 -0.7151
 1964poe     o210598  -0.025   2.304   6.705  0.0216  0.3700  0.0420
 1964poe    c2310599   0.080   2.212   6.683 -0.0295  0.2115  0.4460
 1964poe    c2310600   0.047   2.072   6.738 -0.2959 -0.0021 -0.2521
 1964poe     o210601  -0.071   2.020   6.681 -0.3411  0.0315 -0.1885
 1964poe    c2310602  -0.090   1.885   6.718  0.1929 -0.0465 -0.1905
 1964poe    c2310603  -0.197   1.839   6.617 -0.2014  0.0683  0.1721
 1964poe     o210604  -0.292   1.943   6.610 -0.5006 -0.2104  0.0478
 1964poe    c2310605  -0.410   1.896   6.549 -0.2212 -0.1957 -0.5099
 1964poe    c2310606  -0.489   1.995   6.462  0.0330  0.1652 -0.3318
 1964poe     o210607  -0.417   2.085   6.380  0.4569  0.7346  0.6484
 1964poe    c3110608  -0.509   2.162   6.305  0.0806 -0.7565 -0.4732
 1965poe    c3110609   2.373   3.384   4.710  0.2515  0.5845  0.3660
 1965poe     o210610   2.435   3.460   4.609  0.3968  0.1508  0.1246
 1965poe    c2310611   2.561   3.508   4.651  0.4647  0.0477  0.0387
 1965poe    c2310612   2.607   3.626   4.564  0.0117  0.5073  0.4153
 1965poe     o210613   2.630   3.587   4.430  0.5259  0.3152  0.5578
 1965poe    c2310614   2.716   3.675   4.361  0.0604  0.4322  0.1177
 1965poe    c2310615   2.719   3.661   4.208 -0.0288 -0.7404  0.2099
 1965poe     o210616   2.774   3.539   4.163  0.6084 -0.1884 -0.5490
 1965poe    c2310617   2.862   3.552   4.054  0.9983 -0.3456 -0.2548
 1965poe    c2310618   2.891   3.410   4.003 -0.1070 -0.4144 -0.7025
 1965poe     o210619   2.968   3.339   4.097 -0.2510 -0.1107 -0.3530
 1965poe    c3110620   2.999   3.205   4.064  0.3294  0.2220 -1.1873
 1966poe    c3110621   1.277   0.024   4.365  0.5116 -0.4150  0.2542
 1966poe     o210622   1.257   0.137   4.447  0.1491 -0.4300  0.1872
 1966poe    c2310623   1.377   0.192   4.497 -0.0931 -0.0007  0.3077
 1966poe    c2310624   1.367   0.303   4.603 -0.4708  0.2386  0.0242
 1966poe     o210625   1.294   0.268   4.718 -0.0065  0.6369  0.4437
 1966poe    c2310626   1.347   0.360   4.811  0.4845  0.3769  0.4249
 1966poe    c2310627   1.324   0.326   4.960  0.1835 -0.2898  0.2275
 1966poe     o210628   1.188   0.312   4.995  0.2736 -0.3434  0.5564
 1966poe    c2310629   1.169   0.291   5.133 -0.1472  0.1277  0.5744
 1966poe    c2310630   1.078   0.174   5.174 -0.0992  0.1058  0.6180
 1966poe     o210631   0.946   0.194   5.130  0.1454  0.1462 -0.0985
 1966poe    c3110632   0.862   0.085   5.161  0.1899  0.1824  0.1494
 1967poe    c3110633   0.610   3.249   2.449  0.2608 -0.1594  0.0800
 1967poe     o210634   0.729   3.300   2.504  0.0296  0.2050  0.2418
 1967poe    c2310635   0.767   3.209   2.604  0.0178 -0.0512  0.0129
 1967poe    c2310636   0.917   3.227   2.633  0.1219 -0.4576 -0.2731
 1967poe     o210637   0.915   3.368   2.641 -0.5189 -0.4902  0.2386
 1967poe    c2310638   1.022   3.425   2.712 -0.5276  0.3785 -0.4234
 1967poe    c2310639   1.085   3.525   2.614 -0.1428  0.3656 -0.1913
 1967poe     o210640   0.987   3.593   2.540  0.0683 -0.0852 -0.8899
 1967poe    c2310641   1.045   3.705   2.477  0.1709  0.3506 -0.0369
 1967poe    c2310642   0.962   3.754   2.356  0.6545 -0.0253 -0.5264
 1967poe     o210643   0.968   3.663   2.248  0.3810 -0.4096 -0.2230
 1967poe    c3110644   0.879   3.690   2.142 -0.6200 -0.0318  0.6944
 1968poe    c3110645   0.044   5.309   0.954 -0.1773 -0.2644 -0.4390
 1968poe     o210646   0.099   5.200   1.024  0.0235 -0.1010 -0.3424
 1968poe    c2310647   0.151   5.235   1.150  0.0441 -0.5184 -0.2356
 1968poe    c2310648   0.209   5.111   1.222 -0.0139 -0.4981 -0.1534
 1968poe     o210649   0.302   5.053   1.133 -0.4862 -0.7456 -0.4954
 1968poe    c2310650   0.324   4.917   1.159 -0.6363 -0.6780  0.0045
 1968poe    c2310651   0.391   4.837   1.045  0.0960 -0.1951  0.0883
 1968poe     o210652   0.303   4.822   0.936 -0.3310  0.6457  0.3100
 1968poe    c2310653   0.348   4.719   0.850 -0.3620  0.8233  0.0819
 1968poe    c2310654   0.265   4.669   0.731  0.7998 -0.3158 -0.2692
 1968poe     o210655   0.247   4.771   0.635 -0.0328 -0.2089 -0.0062
 1968poe    c3110656   0.167   4.720   0.530  0.2384 -0.4370 -0.1020
 1969poe    c3110657   2.867   0.583   4.787  0.3833 -0.5943 -0.6694
 1969poe     o210658   2.787   0.665   4.704  0.4140 -0.1855 -0.2968
 1969poe    c2310659   2.774   0.791   4.765  0.1697 -0.1106 -0.5021
 1969poe    c2310660   2.633   0.851   4.748  0.0332 -0.2178  0.2266
 1969poe     o210661   2.593   0.801   4.622 -0.0949  0.3119  0.0552
 1969poe    c2310662   2.486   0.872   4.563 -0.0329  0.0796 -0.3395
 1969poe    c2310663   2.428   0.785   4.450 -0.3391 -0.3970  0.1749
 1969poe     o210664   2.534   0.701   4.411  0.1495  0.0579  0.5143
 1969poe    c2310665   2.494   0.620   4.303  0.3696  0.0929  0.4045
 1969poe    c2310666   2.569   0.659   4.175 -0.0975 -0.0639  0.0800
 1969poe     o210667   2.709   0.654   4.192 -0.1014  0.0311  0.1375
 1969poe    c3110668   2.768   0.686   4.068  0.3820 -0.0840  0.3342
 1970poe    c3110669   6.658   3.457   0.347  0.0914  0.3338 -0.0195
 1970poe     o210670   6.565   3.465   0.452  0.2347 -0.2622  0.1592
 1970poe    c2310671   6.438   3.475   0.390  0.1440 -1.0876  0.2063
 1970poe    c2310672   6.332   3.539   0.482  0.6443 -0.0050  0.0471
 1970poe     o210673   6.288   3.436   0.568  0.0177 -0.2592 -0.5671
 1970poe    c2310674   6.151   3.457   0.593  0.1081 -0.2805 -0.0404
 1970poe    c2310675   6.086   3.328   0.647 -0.6118 -0.0065 -0.2364
 1970poe     o210676   6.165   3.277   0.752 -0.1512  0.2610 -0.4514
 1970poe    c2310677   6.075   3.211   0.838  0.5071 -0.5828 -0.3938
 1970poe    c2310678   6.142   3.157   0.965 -0.3641  0.5713  0.5785
 1970poe     o210679   6.219   3.039   0.957 -0.5592  0.5052 -0.4293
 1970poe    c3110680   6.144   2.924   0.924  0.1899  0.1084 -0.7767
 1971poe    c3110681   4.624   0.761   3.260 -0.5527  0.3010  0.3083
 1971poe     o210682   4.489   0.778   3.224 -0.4718  0.3618  0.0356
 1971poe    c2310683   4.430   0.650   3.222  0.4434 -0.0736  0.3965
 1971poe    c2310684   4.313   0.643   3.122  0.0887 -0.9085  0.8621
 1971poe     o210685   4.232   0.754   3.151 -0.0314 -0.7606 -0.0201
 1971poe    c2310686   4.095   0.727   3.133 -0.0397 -0.5278 -0.3324
 1971poe    c2310687   4.010   0.854   3.115  0.9895  0.1247 -0.6611
 1971poe     o210688   4.035   0.943   3.222  0.4678  0.1228 -0.5360
 1971poe    c2310689   3.975   1.070   3.209  0.4922  0.2748  0.7057
 1971poe    c2310690   3.847   1.089   3.292  0.1065 -0.1248  0.2068
 1971poe     o210691   3.863   1.099   3.432 -0.0420 -0.1863  0.2284
 1971poe    c3110692   3.857   0.972   3.494 -0.1642 -0.0247  0.5516
 1972poe    c3110693   1.283   0.040   5.517 -0.3163  0.1535  0.0893
 1972poe     o210694   1.164   0.116   5.520 -0.3132  0.1555  0.1836
 1972poe    c2310695   1.098   0.089   5.641 -0.6100 -0.2157 -0.0598
 1972poe    c2310696   0.966   0.162   5.670 -0.4443  0.1925 -0.3283
 1972poe     o210697   0.981   0.302   5.673  0.0057  0.1429 -0.1928
 1972poe    c2310698   0.919   0.360   5.561  0.0514  0.2225 -0.1768
 1972poe    c2310699   0.964   0.505   5.531 -0.1560  0.3010 -0.1153
 1972poe     o210700   0.942   0.593   5.638 -0.1526 -0.0531  0.1800
 1972poe    c2310701   0.944   0.727   5.594 -0.4172 -0.1306 -0.0770
 1972poe    c2310702   0.838   0.814   5.664  0.0177  0.1691  0.2181
 1972poe     o210703   0.882   0.843   5.795  0.1642 -0.2770  0.2691
 1972poe    c3110704   0.794   0.942   5.843 -0.0699 -0.7061  0.7348
 1973poe    c3110705   6.034   6.551   2.081 -0.4720  0.0976  0.0832
 1973poe     o210706   6.027   6.642   1.973 -0.1489  0.3932  0.3068
 1973poe    c2310707   6.030   6.562   1.857 -0.0215  0.6811  0.1098
 1973poe    c2310708   6.060   6.641   1.728 -0.1483  0.6389  0.0539
 1973poe     o210709   5.970   6.742   1.689 -0.3086  0.4048 -0.1860
 1973poe    c2310710   5.999   6.788   1.559 -0.5356 -0.1959 -0.4570
 1973poe    c2310711   5.891   6.897   1.538 -0.2546  0.2420  0.3326
 1973poe     o210712   5.887   6.997   1.638 -0.2510  0.3374  0.2371
 1973poe    c2310713   5.797   7.100   1.603 -0.7926  0.0288  0.6999
 1973poe    c2310714   5.754   7.160   1.738 -0.0448  0.5900  0.6952
 1973poe     o210715   5.701   7.059   1.822  0.3189  0.0286  0.2561
 1973poe    c3110716   5.574   7.107   1.858  0.2921 -0.0246  0.2321
 1974poe    c3110717   2.080   2.385   2.878  0.1111 -0.0631 -0.2877
 1974poe     o210718   1.985   2.317   2.799 -0.0760 -0.1624  0.0242
 1974poe    c2310719   1.954   2.399   2.689 -0.3803  0.2963  0.4463
 1974poe    c2310720   1.839   2.335   2.609 -0.1616  0.0833  0.3024
 1974poe     o210721   1.874   2.222   2.531  0.1054  0.5622 -0.2768
 1974poe    c2310722   1.787   2.164   2.438 -0.0786  0.0812  0.1916
 1974poe    c2310723   1.850   2.041   2.369  0.1554  0.3645 -0.1049
 1974poe     o210724   1.927   1.971   2.464  0.0563 -0.1185 -0.3753
 1974poe    c2310725   1.991   1.859   2.407 -0.5602 -0.7215  0.1001
 1974poe    c2310726   2.043   1.783   2.531 -0.0783 -0.3139  0.1507
 1974poe     o210727   2.121   1.874   2.605 -0.2342  0.4771 -0.6376
 1974poe    c3110728   2.212   1.803   2.685 -0.6893  0.2394 -0.3227
 1975poe    c3110729   0.405   2.804   4.216 -0.1379  0.2466 -0.1179
 1975poe     o210730   0.458   2.704   4.132 -0.3080  0.2114 -0.1841
 1975poe    c2310731   0.590   2.685   4.177 -0.1732  0.2992 -0.5418
 1975poe    c2310732   0.627   2.544   4.127 -0.6516 -0.0873  0.1766
 1975poe     o210733   0.613   2.543   3.987  0.0394  0.0635  0.1007
 1975poe    c2310734   0.616   2.415   3.929  0.0527  0.1693 -0.1350
 1975poe    c2310735   0.606   2.414   3.775  0.0634  0.2287 -0.1360
 1975poe     o210736   0.504   2.497   3.725 -0.0416  0.1764 -0.0089
 1975poe    c2310737   0.481   2.490   3.586 -0.5755 -0.2892  0.0955
 1975poe    c2310738   0.377   2.600   3.554 -0.2397  0.1575  0.5231
 1975poe     o210739   0.438   2.725   3.574 -0.2527  0.2691 -0.1203
 1975poe    c3110740   0.428   2.814   3.465  0.8062  0.1400 -0.3273
 1976poe    c3110741   2.362   4.658   5.953  0.1002 -0.0537  0.2856
 1976poe     o210742   2.486   4.635   6.017  0.4478  0.1977 -0.2816
 1976poe    c2310743   2.584   4.568   5.942  0.2283 -0.0756 -0.3275
 1976poe    c2310744   2.732   4.596   5.975 -0.0020  0.1521  0.5530
 1976poe     o210745   2.775   4.727   5.947 -0.4392  0.0220 -0.8276
 1976poe    c2310746   2.913   4.731   5.917 -0.4217 -0.4736 -0.8265
 1976poe    c2310747   2.953   4.868   5.857 -0.9520  0.2297  0.3971
 1976poe     o210748   2.959   4.973   5.951  0.4701  0.0313  0.5479
 1976poe    c2310749   2.992   5.094   5.886 -0.1762 -0.2899 -0.4025
 1976poe    c2310750   2.975   5.185   6.009  0.3957 -0.6006 -0.0848
 1976poe     o210751   2.842   5.181   6.057  0.3757  0.0538 -0.0686
 1976poe    c3110752   2.826   5.260   6.173 -0.3233 -0.5823  0.2762
 1977poe    c3110753   0.676   2.180   3.122  0.2868  0.9671  0.1882
 1977poe     o210754   0.554   2.204   3.188 -0.2965 -0.2105 -0.4447
 1977poe    c2310755   0.527   2.109   3.288  0.2348  0.0313 -0.0701
 1977poe    c2310756   0.413   2.141   3.387  0.3947  0.6045 -0.0673
 1977poe     o210757   0.290   2.147   3.317  0.3459 -0.3811 -0.0870
 1977poe    c2310758   0.182   2.190   3.397  0.3256 -0.0145 -0.3064
 1977poe    c2310759   0.068   2.132   3.311 -0.3591  0.4485  0.2773
 1977poe     o210760   0.072   2.196   3.186 -0.3396  0.4480  0.2776
 1977poe    c2310761  -0.028   2.149   3.097  0.1042  0.1750 -0.0813
 1977poe    c2310762  -0.116   2.257   3.033 -0.3735 -0.2989 -0.2314
 1977poe     o210763  -0.024   2.339   2.964 -0.4330  0.2691  0.3482
 1977poe    c3110764  -0.087   2.436   2.883  0.2107  0.0863 -0.3820
 1978poe    c3110765   1.648   1.022   5.285 -0.1872 -0.2439  0.7541
 1978poe     o210766   1.648   1.156   5.239  0.0366 -0.1286  1.0942
 1978poe    c2310767   1.697   1.250   5.332  0.7130 -0.1970  0.8166
 1978poe    c2310768   1.769   1.347   5.237  0.0772 -0.3592  0.1663
 1978poe     o210769   1.687   1.360   5.123  0.1052 -0.5605  0.1230
 1978poe    c2310770   1.746   1.448   5.030 -0.3356  0.0707  0.4328
 1978poe    c2310771   1.627   1.514   4.958 -0.3100  0.2547  0.5597
 1978poe     o210772   1.516   1.428   4.950 -0.1289  0.0825 -0.1385
 1978poe    c2310773   1.420   1.517   4.899 -0.0898 -0.0539 -0.4530
 1978poe    c2310774   1.275   1.465   4.903 -0.2328  0.3662 -0.1214
 1978poe     o210775   1.213   1.483   5.028 -0.2609  0.1718 -0.1064
 1978poe    c3110776   1.077   1.450   5.008 -0.0604 -0.1401 -0.9474
 1979poe    c3110777   0.164   1.432   6.925 -0.5404 -0.3266  0.1212
 1979poe     o210778   0.254   1.326   6.906  0.0421  0.2129 -0.1355
 1979poe    c2310779   0.316   1.323   6.779 -0.2075 -0.2592 -0.2477
 1979poe    c2310780   0.276   1.187   6.718 -0.6917 -0.3735  0.3209
 1979poe     o210781   0.287   1.093   6.822 -0.7027 -0.3748  0.3210
 1979poe    c2310782   0.341   0.977   6.762  0.0301  0.2474 -0.2399
 1979poe    c2310783   0.427   0.898   6.862 -0.0536  0.0939 -0.2887
 1979poe     o210784   0.531   0.981   6.907 -0.0222  0.0775 -0.3317
 1979poe    c2310785   0.593   0.920   7.018 -0.2399  0.3226 -0.0757
 1979poe    c2310786   0.709   1.012   7.062 -0.3425  0.7200 -0.6226
 1979poe     o210787   0.665   1.143   7.087 -0.3729  0.6501 -0.3114
 1979poe    c3110788   0.776   1.213   7.139  0.2120 -0.3317 -0.2044
 1980poe    c3110789   1.522   4.499   5.338 -0.0934  0.2722 -0.4699
 1980poe     o210790   1.660   4.484   5.311 -0.2132 -0.2795 -0.7814
 1980poe    c2310791   1.698   4.588   5.224  0.0640  0.5088  0.2566
 1980poe    c2310792   1.849   4.614   5.237  0.1712 -0.2232  0.5670
 1980poe     o210793   1.938   4.510   5.203  0.1063  0.1849 -0.9246
 1980poe    c2310794   2.075   4.541   5.203  0.1283  0.1643  0.8579
 1980poe    c2310795   2.162   4.420   5.165 -0.1493  0.1087  0.3995
 1980poe     o210796   2.153   4.325   5.269  0.3300  0.1547  0.4842
 1980poe    c2310797   2.214   4.205   5.228  0.3729  0.3102  0.0899
 1980poe    c2310798   2.206   4.119   5.356 -0.0535  0.3337  0.0816
 1980poe     o210799   2.073   4.142   5.397 -0.2115 -0.0759 -0.2026
 1980poe    c3110800   2.044   4.044   5.494  0.6569 -0.0668  0.0796
 1981poe    c3110801   2.241   6.317   2.792  0.0793  0.1782 -0.3049
 1981poe     o210802   2.115   6.350   2.845  0.3000  0.0749  0.2901
 1981poe    c2310803   2.118   6.305   2.978  0.7947 -0.4629  0.0985
 1981poe    c2310804   1.994   6.342   3.062  0.2080 -0.0722 -0.9274
 1981poe     o210805   1.977   6.482   3.054  0.1184 -0.0159  0.1670
 1981poe    c2310806   1.840   6.512   3.068  0.0230 -0.3736  0.0155
 1981poe    c2310807   1.828   6.657   3.119 -0.1863 -0.3436 -0.1158
 1981poe     o210808   1.904   6.736   3.031 -0.2515  0.0525  0.1755
 1981poe    c2310809   1.892   6.875   3.044  0.2288  0.1165 -0.0498
 1981poe    c2310810   1.971   6.942   2.929  0.5356  0.2490  0.2355
 1981poe     o210811   2.092   6.876   2.900  0.4434  0.2745 -0.2194
 1981poe    c3110812   2.187   6.965   2.848  0.3969  0.2396 -0.3658
 1982poe    c3110813   6.600   1.729   6.120  0.9646  0.4093  0.3113
 1982poe     o210814   6.533   1.640   6.207  0.8114  0.2417  0.0221
 1982poe    c2310815   6.623   1.560   6.280 -0.1794 -0.1043  0.8929
 1982poe    c2310816   6.594   1.410   6.291  0.6011 -0.3215  0.1170
 1982poe     o210817   6.471   1.398   6.360  0.3481 -0.1566 -0.3067
 1982poe    c2310818   6.406   1.273   6.347 -0.3980  0.2148 -0.1865
 1982poe    c2310819   6.271   1.292   6.418 -0.3685 -0.0139 -0.0681
 1982poe     o210820   6.175   1.366   6.345  0.0680  0.2968 -0.3346
 1982poe    c2310821   6.057   1.390   6.418 -0.0449  0.5480 -0.5992
 1982poe    c2310822   5.948   1.442   6.322 -0.4051 -0.2806 -0.6499
 1982poe     o210823   6.015   1.552   6.265 -0.1226  0.1164  0.4254
 1982poe    c3110824   5.932   1.629   6.181  0.3148 -0.2856 -0.3838
 1983poe    c3110825   0.269   1.980   4.609 -0.8037  0.4544  0.1352
 1983poe     o210826   0.344   2.076   4.679  0.0875 -0.1155 -0.0129
 1983poe    c2310827   0.315   2.087   4.817  0.1931 -0.5072  0.0414
 1983poe    c2310828   0.388   2.209   4.877 -0.2956  0.0123 -0.4034
 1983poe     o210829   0.352   2.335   4.826 -0.0308  0.4972  0.5817
 1983poe    c2310830   0.246   2.407   4.884 -0.1554  0.1907  0.7323
 1983poe    c2310831   0.213   2.535   4.805  0.7116  0.0254  0.0874
 1983poe     o210832   0.152   2.517   4.679  0.1580  0.4067  0.2994
 1983poe    c2310833   0.159   2.640   4.610 -0.3754  0.1681 -0.1847
 1983poe    c2310834   0.111   2.622   4.465  0.0512  0.1889 -0.3282
 1983poe     o210835   0.185   2.512   4.414 -0.1255 -0.3434  0.5445
 1983poe    c3110836   0.124   2.490   4.288  0.0319  0.0287  0.4000
 1984poe    c3110837   6.361   0.116   4.243  0.2669 -0.5559 -0.1649
 1984poe     o210838   6.278   0.111   4.129 -0.1880 -0.5315  0.1630
 1984poe    c2310839   6.203  -0.008   4.120  0.3311 -0.8262 -0.2846
 1984poe    c2310840   6.076  -0.033   4.203  0.1440  0.5391 -0.1402
 1984poe     o210841   5.969   0.057   4.185 -0.3812 -0.1281 -0.4148
 1984poe    c2310842   5.874   0.011   4.092 -0.3252  0.0749 -0.5719
 1984poe    c2310843   5.773   0.120   4.050 -0.4835 -0.1269 -0.7191
 1984poe     o210844   5.713   0.166   4.169 -0.0844 -0.1809 -0.4946
 1984poe    c2310845   5.610   0.260   4.148 -0.1467 -0.0071  0.5359
 1984poe    c2310846   5.584   0.314   4.289 -0.1368  0.6088  0.3047
 1984poe     o210847   5.706   0.360   4.343 -0.1995  0.6330  0.4279
 1984poe    c3110848   5.671   0.468   4.426 -0.6215  0.8121  0.0275
 1985poe    c3110849   0.427   0.625   4.990  0.4633  0.2277 -0.6066
 1985poe     o210850   0.320   0.534   4.984  0.3443  0.3111  0.1096
 1985poe    c2310851   0.265   0.557   4.856  0.7382 -0.1986 -0.1551
 1985poe    c2310852   0.123   0.497   4.861  0.7076 -0.1251 -0.1497
 1985poe     o210853   0.079   0.506   4.995  0.3900 -0.6805 -0.2148
 1985poe    c2310854  -0.057   0.468   4.999  0.2196 -0.0353  0.2994
 1985poe    c2310855  -0.089   0.469   5.150 -0.2127  0.1363  0.2049
 1985poe     o210856   0.008   0.392   5.216 -0.2999 -0.7282 -0.6526
 1985poe    c2310857  -0.036   0.351   5.343  0.6937  0.5066  0.1181
 1985poe    c2310858   0.059   0.250   5.411  0.5924  0.3680  0.0552
 1985poe     o210859   0.061   0.123   5.350  0.1142  0.6439 -0.5416
 1985poe    c3110860   0.180   0.049   5.351 -0.4776 -0.3128 -0.3203
 1986poe    c3110861   6.415   1.678   3.094 -0.3425 -0.2347 -0.4929
 1986poe     o210862   6.405   1.600   3.211 -0.5066 -0.2722 -0.5325
 1986poe    c2310863   6.294   1.633   3.292  0.0554  0.1022  0.0953
 1986poe    c2310864   6.312   1.543   3.415  0.0120 -0.4713 -0.3144
 1986poe     o210865   6.423   1.541   3.502  0.1056 -0.3299 -0.4321
 1986poe    c2310866   6.396   1.442   3.598 -0.0264  0.3083  0.1970
 1986poe    c2310867   6.487   1.471   3.719  0.1588  0.2931  0.0621
 1986poe     o210868   6.613   1.510   3.670 -0.1395  0.7166 -0.3814
 1986poe    c2310869   6.708   1.542   3.769  0.0235  0.8904 -0.5954
 1986poe    c2310870   6.850   1.536   3.708  0.3951  0.7202  0.2726
 1986poe     o210871   6.839   1.580   3.575 -0.3152 -0.3023 -0.0213
 1986poe    c3110872   6.960   1.559   3.506  0.1388  0.5147  0.5167
 1987poe    c3110873   5.082   3.165   3.843 -0.2892  0.0175 -0.3151
 1987poe     o210874   4.954   3.106   3.851  0.1005 -0.7785  0.1538
 1987poe    c2310875   4.895   3.087   3.724  0.0751 -0.5300  0.1274
 1987poe    c2310876   4.762   3.010   3.735 -0.1722 -0.0707  0.3701
 1987poe     o210877   4.797   2.898   3.812 -0.3015  0.0562  0.6157
 1987poe    c2310878   4.688   2.813   3.840 -0.1900 -0.4339 -0.3898
 1987poe    c2310879   4.739   2.691   3.919 -0.4990 -0.0977  0.3391
 1987poe     o210880   4.808   2.729   4.036 -0.2628  0.3138  0.0668
 1987poe    c2310881   4.864   2.619   4.104  0.6342  0.6903 -0.0446
 1987poe    c2310882   4.959   2.659   4.218  0.1969  0.1948  0.5039
 1987poe     o210883   5.082   2.695   4.158 -0.2838  0.5390 -0.2846
 1987poe    c3110884   5.186   2.695   4.253 -0.4934 -0.2421 -0.0429
 1988poe    c3110885   0.724   2.405   2.585 -0.4457  0.0141  1.0214
 1988poe     o210886   0.684   2.270   2.575 -0.0534 -0.0375  0.0866
 1988poe    c2310887   0.770   2.173   2.630  0.4667  0.4919  0.2181
 1988poe    c2310888   0.872   2.129   2.523 -0.1845  0.2388 -0.3063
 1988poe     o210889   0.808   2.048   2.427 -0.4531 -0.1743  0.2172
 1988poe    c2310890   0.896   1.982   2.339 -0.4493 -0.0159  0.1027
 1988poe    c2310891   0.920   1.832   2.366 -0.4878 -0.0494 -0.0492
 1988poe     o210892   0.810   1.744   2.355 -0.4331 -0.1020 -0.1835
 1988poe    c2310893   0.847   1.611   2.383 -0.1680 -0.0195 -0.1360
 1988poe    c2310894   0.729   1.524   2.337 -0.2913  0.3537 -0.5301
 1988poe     o210895   0.608   1.588   2.372 -0.5154 -0.5338  0.3695
 1988poe    c3110896   0.492   1.514   2.342 -0.6350 -0.0783 -0.3119
 1989poe    c3110897   6.634   3.058   4.374  0.5424  0.1121  0.3660
 1989poe     o210898   6.572   2.993   4.265 -0.1559  0.0667  0.7857
 1989poe    c2310899   6.606   2.857   4.246  0.0753  0.2207  0.0723
 1989poe    c2310900   6.565   2.785   4.117 -0.5554  0.1827  0.2898
 1989poe     o210901   6.612   2.847   3.999  0.3969 -0.4682  0.3073
 1989poe    c2310902   6.744   2.817   3.960  0.3054  0.0862 -0.4512
 1989poe    c2310903   6.754   2.866   3.814  0.5573 -0.4487 -0.6150
 1989poe     o210904   6.725   3.003   3.802 -0.6855 -0.6318  0.0891
 1989poe    c2310905   6.739   3.039   3.666 -0.7531 -0.6700  0.0718
 1989poe    c2310906   6.671   3.176   3.648  0.1589 -0.2264 -0.0851
 1989poe     o210907   6.655   3.260   3.760 -0.1526 -0.2573 -0.1057
 1989poe    c3110908   6.593   3.383   3.730  0.4834  0.0982  0.0262
 1990poe    c3110909   4.528   2.201   0.632  0.2511 -0.3538  0.4226
 1990poe     o210910   4.639   2.286   0.644 -0.2831  0.3002  0.8127
 1990poe    c2310911   4.581   2.413   0.666 -0.1659  0.5116 -0.0780
 1990poe    c2310912   4.707   2.500   0.651 -0.2839  0.6368 -0.3605
 1990poe     o210913   4.812   2.452   0.733 -0.1905  0.2142 -0.7288
 1990poe    c2310914   4.930   2.526   0.712 -0.0002  0.0828 -0.1324
 1990poe    c2310915   5.040   2.449   0.788 -0.5050 -0.0835  0.4419
 1990poe     o210916   5.034   2.317   0.741  0.0274  0.0213  0.0761
 1990poe    c2310917   5.159   2.252   0.752 -0.0558 -0.2137 -0.3158
 1990poe    c2310918   5.208   2.222   0.895  0.3217  0.3192 -0.3281
 1990poe     o210919   5.141   2.126   0.974  0.4069  0.6468  0.1455
 1990poe    c3110920   5.219   2.108   1.090  0.0016 -0.1373  0.3020
 1991poe    c3110921   4.197   3.314   2.486  0.5571 -0.4482  0.1521
 1991poe     o210922   4.240   3.401   2.588 -0.1512  0.0775  0.0035
 1991poe    c2310923   4.139   3.495   2.618 -0.3713  0.0326 -0.5936
 1991poe    c2310924   4.204   3.610   2.697 -0.4114 -0.2340 -0.1736
 1991poe     o210925   4.264   3.555   2.812 -0.4316  0.6236  0.2522
 1991poe    c2310926   4.380   3.628   2.847  0.2603 -0.1860 -0.3206
 1991poe    c2310927   4.449   3.556   2.965  0.4655  0.6339  0.0693
 1991poe     o210928   4.466   3.424   2.918 -0.1285  0.2213  0.9698
 1991poe    c2310929   4.551   3.351   3.004  0.2098 -0.1226  0.3539
 1991poe    c2310930   4.592   3.215   2.944 -0.4293 -0.0893 -0.1693
 1991poe     o210931   4.483   3.132   2.913 -0.7762  0.5000 -0.5435
 1991poe    c3110932   4.539   3.008   2.878  0.5293  0.6650  0.8826
 1992poe    c3110933   0.497   0.526   6.002 -0.3238 -0.9291  0.3157
 1992poe     o210934   0.629   0.507   6.049 -0.2564 -0.0436  0.4928
 1992poe    c2310935   0.692   0.420   5.958  0.4297  0.6187  0.3243
 1992poe    c2310936   0.845   0.440   5.963  0.5802 -0.3151 -0.2262
 1992poe     o210937   0.858   0.447   6.103 -0.1536 -0.3889 -0.1486
 1992poe    c2310938   0.960   0.540   6.136 -0.2853 -0.1911 -0.2959
 1992poe    c2310939   1.011   0.535   6.281  0.0169  0.2026 -0.3904
 1992poe     o210940   0.901   0.550   6.367  0.1628  0.2008 -0.2023
 1992poe    c2310941   0.930   0.529   6.504 -0.4954  0.1055 -0.0716
 1992poe    c2310942   0.813   0.526   6.603 -0.5324 -0.7041 -0.1383
 1992poe     o210943   0.717   0.427   6.573 -0.5285 -0.7071 -0.1417
 1992poe    c3110944   0.614   0.438   6.668 -0.2007 -0.4697  0.1873
 1993poe    c3110945   0.881   6.502   1.429 -0.6432  0.0495  0.1628
 1993poe     o210946   0.826   6.449   1.310 -0.0672 -0.0176 -0.0765
 1993poe    c2310947   0.687   6.437   1.326 -0.1496 -0.1132 -0.8227
 1993poe    c2310948   0.644   6.337   1.217 -0.6629 -0.2023 -0.5443
 1993poe     o210949   0.696   6.376   1.092  0.3218  0.5346  0.0832
 1993poe    c2310950   0.678   6.265   1.007  0.4629  0.5216  0.0699
 1993poe    c2310951   0.774   6.286   0.889 -0.1816  0.5540 -0.4495
 1993poe     o210952   0.904   6.296   0.943 -0.2149 -0.2575 -0.2092
 1993poe    c2310953   0.991   6.234   0.852  0.4128  0.2743  0.0241
 1993poe    c2310954   1.143   6.233   0.878  0.3910 -0.1000  0.1382
 1993poe     o210955   1.172   6.168   1.000 -0.0837 -0.2188  0.1899
 1993poe    c3110956   1.308   6.168   1.036 -0.0718  0.3989  0.1552
 1994poe    c3110957   3.899   0.905   0.453  0.2610  0.0419  0.3247
 1994poe     o210958   3.846   0.785   0.403  0.5534 -0.0668  0.2705
 1994poe    c2310959   3.914   0.676   0.461  0.3286 -0.5171 -0.2972
 1994poe    c2310960   3.851   0.550   0.399 -0.1004 -0.3332 -0.2350
 1994poe     o210961   3.842   0.543   0.259  0.0764 -0.3166 -0.2472
 1994poe    c2310962   3.765   0.438   0.204  0.1235 -0.5527  0.1367
 1994poe    c2310963   3.791   0.424   0.053 -0.8764  0.5673 -0.1605
 1994poe     o210964   3.809   0.555   0.005  0.0074  0.5961  0.2239
 1994poe    c2310965   3.870   0.552  -0.123 -0.2960  0.5862  0.0789
 1994poe    c2310966   3.832   0.660  -0.225 -0.4413  0.1654 -0.3195
 1994poe     o210967   3.851   0.787  -0.165  0.0022  0.0348 -0.1784
 1994poe    c3110968   3.810   0.878  -0.264  0.0973  0.2652 -0.0080
 1995poe    c3110969   6.799   4.266   1.499 -0.6368 -0.1215  0.5016
 1995poe     o210970   6.743   4.271   1.628 -0.3267  1.0329  0.5985
 1995poe    c2310971   6.759   4.145   1.690 -0.9721  0.4086 -0.4808
 1995poe    c2310972   6.706   4.141   1.835 -0.1054  0.1442 -0.1683
 1995poe     o210973   6.572   4.172   1.864 -0.2171 -0.3444 -0.1513
 1995poe    c2310974   6.485   4.070   1.821 -0.3562 -0.4277  0.3207
 1995poe    c2310975   6.340   4.120   1.809 -0.2842 -0.3307 -0.1542
 1995poe     o210976   6.307   4.174   1.935 -0.0373 -0.1400 -0.1688
 1995poe    c2310977   6.175   4.224   1.932  0.1414  0.3204 -0.4741
 1995poe    c2310978   6.139   4.273   2.074 -0.0400 -0.3227 -0.2954
 1995poe     o210979   6.215   4.380   2.123 -0.3356 -0.4375  0.4256
 1995poe    c3110980   6.153   4.474   2.208  0.1085  0.3358 -0.0911
 1996poe    c3110981   0.893   4.020   1.695  0.5427  0.3516  0.1624
 1996poe     o210982   1.024   3.997   1.741  0.6513 -0.4498 -0.5347
 1996poe    c2310983   1.092   4.118   1.763 -0.1798 -0.1652  0.6163
 1996poe    c2310984   1.232   4.114   1.698 -0.1754  0.2953  0.5933
 1996poe     o210985   1.289   3.990   1.734 -0.3331  0.0114 -0.1144
 1996poe    c2310986   1.417   3.983   1.674  0.0053  0.3936  0.5485
 1996poe    c2310987   1.491   3.881   1.762  0.1997 -0.0086 -0.0752
 1996poe     o210988   1.438   3.754   1.732 -0.0238  0.2420 -0.7594
 1996poe    c2310989   1.492   3.658   1.820 -0.5193  0.7381  0.0904
 1996poe    c2310990   1.388   3.558   1.874 -0.5237  0.0502 -1.1677
 1996poe     o210991   1.278   3.606   1.947  0.4245  0.0016  0.3423
 1996poe    c3110992   1.181   3.504   1.955  0.3883  0.0391  0.3857
 1997poe    c3110993   5.928   3.021   2.633 -0.2273  0.1103  0.4058
 1997poe     o210994   5.948   2.883   2.658 -0.0423  0.1277  0.3518
 1997poe    c2310995   6.084   2.852   2.682  0.0275  0.5574  0.5318
 1997poe    c2310996   6.099   2.699   2.698 -0.4044  0.4271 -0.2201
 1997poe     o210997   6.062   2.626   2.583  0.2190 -0.9108  0.4057
 1997poe    c2310998   6.164   2.625   2.486 -0.7697  0.1212 -0.6740
 1997poe    c2310999   6.138   2.513   2.383  0.2036 -0.3131 -0.4610
 1997poe     o211000   5.998   2.498   2.380  0.2110 -0.5813  0.3878
 1997poe    c2311001   5.964   2.390   2.295  0.1336 -0.1887 -0.0846
 1997poe    c2311002   5.819   2.346   2.324  0.0818  0.6205  0.9505
 1997poe     o211003   5.737   2.461   2.326 -0.1436  0.4654  0.5919
 1997poe    c3111004   5.599   2.437   2.343 -0.1291  0.4364  0.6728
 1998poe    c3111005   6.274   5.716   1.871  0.2223  0.4325 -0.4534
 1998poe     o211006   6.159   5.795   1.850 -0.0281  0.0705 -0.4444
 1998poe    c2311007   6.139   5.839   1.718 -0.5358 -0.2914 -0.4947
 1998poe    c2311008   6.006   5.916   1.705 -0.2891  0.2943  0.3781
 1998poe     o211009   5.892   5.834   1.713 -0.1355  0.1089  0.6767
 1998poe    c2311010   5.769   5.902   1.702 -0.0964  0.0731  0.0126
 1998poe    c2311011   5.646   5.809   1.706 -0.1217  0.0804 -0.4623
 1998poe     o211012   5.648   5.688   1.635  0.1117 -0.3314  0.2337
 1998poe    c2311013   5.647   5.706   1.495  0.4788  0.1106  0.2846
 1998poe    c2311014   5.656   5.571   1.421 -0.3573  0.1280  0.1460
 1998poe     o211015   5.560   5.471   1.449 -0.1495 -0.0933  0.0719
 1998poe    c3111016   5.428   5.515   1.424 -0.1454 -0.0422  0.1390
 1999poe    c3111017   2.359   3.539   3.974 -0.7260  0.2350  0.2418
 1999poe     o211018   2.440   3.556   3.860 -0.1398 -0.1222  0.6017
 1999poe    c2311019   2.525   3.668   3.876  0.1177 -0.2548  0.1593
 1999poe    c2311020   2.564   3.718   3.736 -0.4770 -0.1160  0.0439
 1999poe     o211021   2.610   3.615   3.651 -0.3406  0.0398 -0.0713
 1999poe    c2311022   2.706   3.644   3.552  0.0026  0.3104  0.3338
 1999poe    c2311023   2.789   3.517   3.525 -0.6032  0.0110 -0.1560
 1999poe     o211024   2.702   3.417   3.476 -0.1682 -0.5522  0.2113
 1999poe    c2311025   2.785   3.321   3.414  0.6480  0.1719  0.1580
 1999poe    c2311026   2.704   3.194   3.380  0.5223  0.2422  0.1916
 1999poe     o211027   2.665   3.122   3.495 -0.7778  0.3704 -0.1625
 1999poe    c3111028   2.580   3.012   3.467 -0.9559  0.3602  0.4104
 2000poe    c3111029   6.374   5.545   1.363 -0.9559 -0.2437  0.0504
 2000poe     o211030   6.481   5.519   1.452 -0.1903  0.2840 -0.6961
 2000poe    c2311031   6.459   5.612   1.556  0.1993  0.1772 -0.5179
 2000poe    c2311032   6.591   5.607   1.636 -0.0384 -0.5522 -0.1557
 2000poe     o211033   6.617   5.469   1.648  0.2163 -0.5106 -0.2231
 2000poe    c2311034   6.713   5.471   1.751 -0.5439  0.1635  0.4923
 2000poe    c2311035   6.787   5.335   1.756  0.0513  0.4603 -0.0893
 2000poe     o211036   6.833   5.300   1.628 -1.0831 -0.3081 -0.3001
 2000poe    c2311037   6.866   5.163   1.632  0.4853  0.0484 -0.3177
 2000poe    c2311038   7.006   5.133   1.687  0.5653  1.1681  0.1126
 2000poe     o211039   7.034   5.152   1.824  0.6837 -0.2522  0.3024
 2000poe    c3111040   7.163   5.138   1.878  0.7160  0.2587  0.3649
 2001poe    c3111041   5.195   4.927   4.511 -0.2166 -0.0177 -0.1938
 2001poe     o211042   5.195   4.816   4.598 -0.2923  0.0763 -0.0739
 2001poe    c2311043   5.080   4.780   4.671 -0.6435 -0.1942 -0.7536
 2001poe    c2311044   5.081   4.637   4.729 -0.4893  0.1238  0.0374
 2001poe     o211045   5.071   4.535   4.633 -0.9104  0.1598  0.0389
 2001poe    c2311046   5.118   4.405   4.661  0.2998  0.4615 -0.4927
 2001poe    c2311047   5.071   4.302   4.556 -0.2232  0.3066 -0.1162
 2001poe     o211048   4.933   4.285   4.538 -0.1808  0.2295 -0.3807
 2001poe    c2311049   4.909   4.160   4.479 -0.4078  0.3586 -0.5681
 2001poe    c2311050   4.772   4.097   4.509  0.0297 -0.1715  0.3663
 2001poe     o211051   4.664   4.179   4.469  0.3532  0.0039 -0.1501
 2001poe    c3111052   4.556   4.098   4.427  0.4892 -0.2213 -0.0717
 2002poe    c3111053   0.498   5.038   6.446 -0.0269  0.2733 -0.1719
 2002poe     o211054   0.597   5.038   6.546  0.1395 -0.5213 -0.3275
 2002poe    c2311055   0.563   5.123   6.654 -0.3122 -0.5997 -0.4071
 2002poe    c2311056   0.617   5.069   6.787 -0.1224  1.0775  0.2198
 2002poe     o211057   0.758   5.066   6.783 -0.1192  1.1096  0.3115
 2002poe    c2311058   0.792   5.007   6.906 -0.3191  0.0114 -0.1540
 2002poe    c2311059   0.935   4.951   6.895 -0.1913  0.4260 -0.6066
 2002poe     o211060   0.960   4.884   6.773  0.4864  0.0968 -0.2935
 2002poe    c2311061   1.075   4.804   6.789  0.1074 -0.4029 -0.0132
 2002poe    c2311062   1.104   4.733   6.656  0.2578 -0.5704  0.1087
 2002poe     o211063   0.986   4.683   6.598  0.1830  0.1681 -0.3960
 2002poe    c3111064   1.010   4.591   6.494 -0.4558 -0.1683 -0.2546
 2003poe    c3111065   4.106   4.023   4.939  0.1919  0.2030 -0.4147
 2003poe     o211066   4.233   4.082   4.952  0.1697  0.0911  0.3554
 2003poe    c2311067   4.287   4.099   4.823 -0.4768 -0.0282  0.0662
 2003poe    c2311068   4.409   4.192   4.817 -0.5037  0.0098  0.1082
 2003poe     o211069   4.394   4.328   4.782 -0.3542 -0.0239 -0.0880
 2003poe    c2311070   4.306   4.398   4.866 -0.2284 -0.0982  0.1043
 2003poe    c2311071   4.332   4.549   4.880 -0.2193 -0.0314 -0.6040
 2003poe     o211072   4.462   4.593   4.911 -0.5531  0.4659  0.1598
 2003poe    c2311073   4.508   4.543   5.034  0.0129 -0.4225 -0.3949
 2003poe    c2311074   4.658   4.567   5.061 -0.2160  0.2740  0.3124
 2003poe     o211075   4.747   4.500   4.974  0.1109  0.4863  0.4794
 2003poe    c3111076   4.875   4.497   5.031  0.1585  0.4258  0.3707
 2004poe    c3111077   3.828   4.054   0.235  0.2719 -0.3659  0.3695
 2004poe     o211078   3.762   3.938   0.190 -0.4252  0.1010  0.1625
 2004poe    c2311079   3.627   3.947   0.228 -0.3435 -0.1052  0.5080
 2004poe    c2311080   3.554   3.816   0.192 -0.4338  0.1088 -0.1032
 2004poe     o211081   3.609   3.769   0.070  0.2530 -0.3852  0.3853
 2004poe    c2311082   3.558   3.643   0.032  0.5125 -0.5568  0.6044
 2004poe    c2311083   3.590   3.629  -0.118  0.0143  0.0725  0.4316
 2004poe     o211084   3.731   3.639  -0.119  0.0205 -0.0814 -0.3232
 2004poe    c2311085   3.797   3.602  -0.238  0.4591 -0.0565 -0.0884
 2004poe    c2311086   3.775   3.701  -0.354 -0.9468  0.3372  0.4890
 2004poe     o211087   3.857   3.815  -0.340 -0.0124 -0.2232 -0.2449
 2004poe    c3111088   3.823   3.924  -0.422  0.5833  0.5695  0.5396
 2005poe    c3111089   5.009   6.491   1.323 -0.3832  0.5729  0.5549
 2005poe     o211090   5.145   6.454   1.330 -0.3298  0.6757  0.0695
 2005poe    c2311091   5.176   6.382   1.212 -0.2220 -0.0762  0.5479
 2005poe    c2311092   5.312   6.312   1.228 -0.0761  0.1130  0.1384
 2005poe     o211093   5.294   6.203   1.315 -0.2279  0.0857  0.0730
 2005poe    c2311094   5.408   6.120   1.314 -0.4372 -0.2041  0.0894
 2005poe    c2311095   5.479   6.122   1.451  0.3527  0.4557 -0.3242
 2005poe     o211096   5.390   6.093   1.556  0.6902 -0.0341 -0.1723
 2005poe    c2311097   5.443   6.157   1.671  0.1364 -0.1926  0.1726
 2005poe    c2311098   5.375   6.082   1.787 -0.4344  0.2729  0.1446
 2005poe     o211099   5.240   6.102   1.752 -0.4034 -0.0521 -0.1643
 2005poe    c3111100   5.164   6.075   1.868  0.0707  0.5901  0.3042
 2006poe    c3111101   6.660   5.731   4.643  0.4859  0.0959 -0.0587
 2006poe     o211102   6.778   5.806   4.662  0.8816 -0.5365 -0.0058
 2006poe    c2311103   6.808   5.883   4.549 -0.2858  0.2516  0.2083
 2006poe    c2311104   6.928   5.977   4.574 -0.3572  0.2521  0.5523
 2006poe     o211105   7.050   5.927   4.623 -0.0130  0.6558  0.1133
 2006poe    c2311106   7.118   6.028   4.693 -0.5139  0.4603  0.8876
 2006poe    c2311107   7.230   5.976   4.785 -0.3707  0.0639  0.4910
 2006poe     o211108   7.166   5.942   4.907 -0.4085  0.2478  0.5216
 2006poe    c2311109   7.256   5.932   5.015  0.2506  0.4744  0.0089
 2006poe    c2311110   7.169   5.883   5.133  0.3811  0.2480  0.0111
 2006poe     o211111   7.031   5.903   5.110  0.2487 -0.5179  0.1181
 2006poe    c3111112   6.972   5.864   5.232  0.4014 -0.5941  0.1690
 2007poe    c3111113   0.653   1.907   6.382  0.3039  0.1214  0.4769
 2007poe     o211114   0.750   1.835   6.454  0.2609 -0.4331 -0.0133
 2007poe    c2311115   0.718   1.831   6.592 -0.0409  0.1075 -0.0637
 2007poe    c2311116   0.843   1.798   6.676 -0.3277 -0.1295  0.2734
 2007poe     o211117   0.937   1.719   6.606 -0.1054  0.2156  0.1825
 2007poe    c2311118   1.063   1.745   6.664 -0.1106  0.7523 -0.0483
 2007poe    c2311119   1.153   1.621   6.659 -0.0763  0.7600  0.3514
 2007poe     o211120   1.186   1.568   6.532  0.3565  0.2680  0.6608
 2007poe    c2311121   1.269   1.455   6.547 -0.3271 -0.3763 -0.2650
 2007poe    c2311122   1.325   1.410   6.411  0.4468  0.6176 -0.2906
 2007poe     o211123   1.217   1.410   6.321 -0.0120  0.0288  0.2488
 2007poe    c3111124   1.257   1.392   6.187  0.1345  0.2646  0.2601
 2008poe    c3111125   3.547   1.351   6.180  0.0591  0.1587  0.7630
 2008poe     o211126   3.529   1.238   6.262 -0.9726 -0.1493  0.1304
 2008poe    c2311127   3.601   1.252   6.382 -0.1338 -0.3369 -0.3444
 2008poe    c2311128   3.615   1.111   6.443 -0.0543  0.1193  0.7022
 2008poe     o211129   3.490   1.051   6.469  0.0966 -0.1763  0.7372
 2008poe    c2311130   3.510   0.940   6.554  0.4182 -0.6987 -0.0121
 2008poe    c2311131   3.380   0.860   6.574 -0.3359  0.3878 -0.4856
 2008poe     o211132   3.329   0.820   6.449 -0.4137 -0.1496 -0.2846
 2008poe    c2311133   3.197   0.787   6.487 -0.2759 -0.3796 -0.0046
 2008poe    c2311134   3.138   0.708   6.368  0.0226 -0.2785 -0.2219
 2008poe     o211135   3.199   0.774   6.260  0.2226 -0.2101 -0.0681
 2008poe    c3111136   3.117   0.755   6.147  0.0288  0.3980 -0.0284
 2009poe    c3111137   1.672   0.941   2.921 -0.3050 -0.1388 -0.4256
 2009poe     o211138   1.723   1.009   3.034  0.1100 -0.5193 -0.3772
 2009poe    c2311139   1.618   1.071   3.106 -0.1469 -0.3838 -0.8670
 2009poe    c2311140   1.674   1.201   3.168 -0.2195 -0.7482 -0.0365
 2009poe     o211141   1.797   1.176   3.232 -0.2084 -0.1433  0.1783
 2009poe    c2311142   1.827   1.300   3.294  0.9499  0.0788 -0.7810
 2009poe    c2311143   1.941   1.293   3.397  0.0416  0.4628  0.2606
 2009poe     o211144   2.056   1.235   3.341 -0.5011 -0.4666  0.0984
 2009poe    c2311145   2.168   1.217   3.424 -0.0134  0.3696 -0.3707
 2009poe    c2311146   2.267   1.111   3.372 -0.5610 -0.3124 -0.0417
 2009poe     o211147   2.350   1.138   3.262 -0.2641 -0.1548  0.2185
 2009poe    c3111148   2.441   1.031   3.251  0.1695  0.2351 -0.0835
 2010poe    c3111149   4.980   3.176   2.809  0.1872  1.1478 -0.6742
 2010poe     o211150   5.000   3.118   2.683 -0.2419 -0.3329 -0.0855
 2010poe    c2311151   4.905   3.175   2.595 -0.0088 -0.1533 -0.2223
 2010poe    c2311152   4.918   3.125   2.450  0.0221 -0.2635 -0.1821
 2010poe     o211153   5.038   3.169   2.389 -0.1778  0.2555 -0.2064
 2010poe    c2311154   5.024   3.226   2.261 -0.0320  0.2288 -0.2336
 2010poe    c2311155   5.165   3.257   2.208  0.2732 -0.4393  0.1746
 2010poe     o211156   5.219   3.343   2.306  0.2759  0.2504 -0.4221
 2010poe    c2311157   5.351   3.391   2.297  0.4773 -0.2436 -0.1629
 2010poe    c2311158   5.341   3.530   2.362  0.4288 -0.6604  0.7427
 2010poe     o211159   5.328   3.530   2.502 -0.4187  0.2392  0.6774
 2010poe    c3111160   5.247   3.641   2.533  0.2673  0.8899  0.1838
 2011poe    c3111161   5.733   0.617   2.924  0.0208 -0.1258 -0.8068
 2011poe     o211162   5.647   0.522   2.866  0.1719 -0.4907 -0.4367
 2011poe    c2311163   5.684   0.394   2.914  0.0966 -0.4330 -0.2251
 2011poe    c2311164   5.698   0.293   2.799  0.2589 -0.6320 -0.0308
 2011poe     o211165   5.592   0.278   2.707  0.4845 -0.1081 -0.3814
 2011poe    c2311166   5.604   0.177   2.609 -0.1098 -1.1910  0.6321
 2011poe    c2311167   5.468   0.123   2.562 -0.2343 -0.4367  0.1120
 2011poe     o211168   5.400   0.228   2.498  0.2274 -0.2974 -0.1609
 2011poe    c2311169   5.285   0.172   2.438  0.1973  0.0537 -0.4374
 2011poe    c2311170   5.224   0.288   2.358 -0.1964  0.2376  0.1258
 2011poe     o211171   5.147   0.387   2.422  0.2423  0.6310  0.0454
 2011poe    c3111172   5.038   0.330   2.490  0.4439  0.2126  0.0206
 2012poe    c3111173   3.063   3.668   2.441 -0.1793 -0.0771 -0.7158
 2012poe     o211174   3.190   3.713   2.483  0.0179 -1.4227  0.1889
 2012poe    c2311175   3.293   3.688   2.390 -0.1329  0.6114 -0.5778
 2012poe    c2311176   3.418   3.777   2.406  0.2129  0.2461 -1.1692
 2012poe     o211177   3.373   3.910   2.394  0.1504  0.2292 -1.1255
 2012poe    c2311178   3.473   3.997   2.441 -0.2299  0.2003 -0.2458
 2012poe    c2311179   3.465   4.136   2.375 -0.1964  0.1808 -0.2918
 2012poe     o211180   3.340   4.195   2.405 -0.4503 -0.4029 -0.1835
 2012poe    c2311181   3.295   4.289   2.310  0.0599 -0.2749 -0.2985
 2012poe    c2311182   3.153   4.344   2.328  0.0064 -0.2732 -0.7090
 2012poe     o211183   3.053   4.247   2.308 -0.4188  0.1550 -0.6830
 2012poe    c3111184   2.931   4.314   2.284 -0.2786  0.3856 -0.7502
 2013poe    c3111185   0.099   4.935   6.246  0.1697 -0.1857 -0.8025
 2013poe     o211186   0.168   5.054   6.216 -0.3116  0.3674  0.2196
 2013poe    c2311187   0.157   5.097   6.082  0.3542 -0.2382 -0.0313
 2013poe    c2311188   0.208   5.241   6.064  0.2171 -0.2465 -0.5086
 2013poe     o211189   0.339   5.264   6.111 -0.2447  0.5475  0.4263
 2013poe    c2311190   0.436   5.218   6.021 -0.6167 -0.2167  0.4131
 2013poe    c2311191   0.566   5.189   6.100 -0.4931 -0.0088  0.2850
 2013poe     o211192   0.579   5.309   6.174  0.4415 -0.0808  0.2403
 2013poe    c2311193   0.685   5.297   6.267  0.3293 -0.2395  0.3490
 2013poe    c2311194   0.671   5.408   6.373 -0.7073  0.0168 -0.0343
 2013poe     o211195   0.533   5.437   6.374 -0.5915  0.5653 -0.0847
 2013poe    c3111196   0.513   5.512   6.492 -0.0779  0.1899  0.2479
 2014poe    c3111197   3.087   6.484   0.322 -0.3387 -0.1955  0.0672
 2014poe     o211198   3.118   6.365   0.252 -0.5323  0.0859 -0.5008
 2014poe    c2311199   3.083   6.249   0.323  0.3208  0.1634  0.0547
 2014poe    c2311200   3.161   6.120   0.292  0.1537  0.1698 -0.4002
 2014poe     o211201   3.109   6.056   0.178 -0.5281 -0.3165  0.1698
 2014poe    c2311202   3.166   5.929   0.155  0.0688 -0.0358  0.0899
 2014poe    c2311203   3.077   5.867   0.046  0.0065  0.2183 -0.0052
 2014poe     o211204   3.076   5.965  -0.055 -0.2946 -0.0469 -0.2628
 2014poe    c2311205   3.006   5.910  -0.164 -0.2553  0.1027 -0.3643
 2014poe    c2311206   3.053   5.995  -0.283 -0.5452  0.2100 -0.4016
 2014poe     o211207   3.069   6.126  -0.235  0.1069 -0.0842  0.1862
 2014poe    c3111208   3.119   6.221  -0.327  0.8065 -0.2505  0.3903
 2015poe    c3111209   2.340   5.460   3.048  0.5185 -0.3513  0.0865
 2015poe     o211210   2.371   5.323   3.056 -0.1984 -0.5513 -0.4808
 2015poe    c2311211   2.510   5.303   3.041 -0.0931  0.2650 -0.6245
 2015poe    c2311212   2.540   5.157   3.080 -0.2193  0.5026  0.4078
 2015poe     o211213   2.452   5.066   3.018 -0.1331  0.4119  0.4181
 2015poe    c2311214   2.457   4.936   3.073  0.6295  0.0796 -0.4176
 2015poe    c2311215   2.357   4.855   2.989  0.1133  0.0063  0.2611
 2015poe     o211216   2.243   4.937   2.989  0.0912 -0.0208 -0.2490
 2015poe    c2311217   2.125   4.880   2.936  0.3031 -0.6687 -0.0370
 2015poe    c2311218   2.020   4.873   3.049 -0.1539  0.2393 -0.3975
 2015poe     o211219   1.992   4.998   3.108 -0.4063  0.1722 -0.3770
 2015poe    c3111220   1.863   5.052   3.088 -0.2024  0.6772 -0.3332
 2016poe    c3111221   4.877   4.493   3.873  0.5031 -0.6982 -0.1350
 2016poe     o211222   4.841   4.590   3.968  0.5262 -0.1544 -0.6716
 2016poe    c2311223   4.707   4.633   3.961  0.5525  0.2324  0.8186
 2016poe    c2311224   4.665   4.717   3.839  0.0845  0.0062  0.8198
 2016poe     o211225   4.747   4.829   3.861 -0.4387  0.3595  0.9827
 2016poe    c2311226   4.729   4.919   3.754  0.7152 -0.2300  0.2718
 2016poe    c2311227   4.813   5.049   3.753  0.1814  0.1188 -0.1070
 2016poe     o211228   4.776   5.115   3.872  0.1220  0.1128 -0.1219
 2016poe    c2311229   4.870   5.219   3.890  0.7396 -0.3252 -0.8007
 2016poe    c2311230   4.985   5.172   3.981  0.0670 -0.0761  0.1954
 2016poe     o211231   4.923   5.118   4.095  0.1372 -0.1291  0.2086
 2016poe    c3111232   5.007   5.157   4.202 -0.1417  0.7157  0.1249
 2017poe    c3111233   4.612   2.259   4.943 -0.0127  0.6718 -0.4783
 2017poe     o211234   4.660   2.143   4.878 -0.3645  0.2463  0.0103
 2017poe    c2311235   4.716   2.050   4.967 -0.3433 -0.1160 -0.3771
 2017poe    c2311236   4.753   1.920   4.893 -0.3935 -0.4246  0.1368
 2017poe     o211237   4.874   1.948   4.827 -0.3912 -0.4275  0.1394
 2017poe    c2311238   4.941   1.837   4.772  0.0679 -0.3787  0.5948
 2017poe    c2311239   5.047   1.889   4.674 -0.0407 -0.4960  0.4140
 2017poe     o211240   5.145   1.970   4.736 -0.3588 -0.0795  0.3751
 2017poe    c2311241   5.227   2.042   4.647 -0.1602 -0.2108  0.4510
 2017poe    c2311242   5.372   2.056   4.694  0.1778 -0.6964 -0.4182
 2017poe     o211243   5.445   2.136   4.604  0.0411 -0.2357 -0.1269
 2017poe    c3111244   5.555   2.190   4.673 -0.0282 -0.2138 -0.0341
 2018poe    c3111245   1.100   1.905   2.725  0.5524  0.0100 -0.5177
 2018poe     o211246   0.964   1.933   2.748  0.5777 -0.3760  0.1074
 2018poe    c2311247   0.910   1.866   2.860  0.0475  0.2279  0.2234
 2018poe    c2311248   0.770   1.908   2.908 -0.3709 -0.2108 -0.5883
 2018poe     o211249   0.672   1.863   2.818 -0.2050 -0.4245 -0.6632
 2018poe    c2311250   0.547   1.865   2.883  0.2363 -0.5436  0.2063
 2018poe    c2311251   0.447   1.774   2.809  0.0407 -0.6237  0.5648
 2018poe     o211252   0.399   1.828   2.688  0.3263 -0.6450  0.4390
 2018poe    c2311253   0.308   1.738   2.628  0.4263 -0.3008 -0.2383
 2018poe    c2311254   0.222   1.824   2.533 -0.0738  0.3181  0.7560
 2018poe     o211255   0.300   1.919   2.464 -0.1440 -0.3742 -0.2974
 2018poe    c3111256   0.215   1.980   2.369  0.0714 -0.2055 -0.3810
 2019poe    c3111257   4.312   5.443   2.483  0.0142 -0.0511 -0.6372
 2019poe     o211258   4.353   5.570   2.527  0.4836 -0.2922 -0.3703
 2019poe    c2311259   4.389   5.568   2.664 -0.6416 -0.2911 -0.0671
 2019poe    c2311260   4.284   5.574   2.776 -0.7483  0.5329 -0.1991
 2019poe     o211261   4.204   5.459   2.792  0.0381 -0.0258 -0.2174
 2019poe    c2311262   4.264   5.360   2.873  0.4261 -0.1308 -0.6269
 2019poe    c2311263   4.170   5.238   2.874 -0.0736  0.2519  0.1912
 2019poe     o211264   4.047   5.243   2.942 -0.1265  0.0553  0.1095
 2019poe    c2311265   3.944   5.289   2.858  0.1628  0.3126 -0.1050
 2019poe    c2311266   3.807   5.295   2.929  0.1432  1.0933 -0.1960
 2019poe     o211267   3.796   5.416   3.000 -0.8012  0.5026  0.6905
 2019poe    c3111268   3.665   5.432   3.051 -0.7423  0.1732  0.9527
 2020poe    c3111269   6.152   4.277   4.841  0.1606 -1.1075  0.5420
 2020poe     o211270   6.148   4.198   4.725  0.5440 -0.5560  0.1498
 2020poe    c2311271   6.210   4.252   4.610 -0.2358  0.6391  0.2706
 2020poe    c2311272   6.278   4.138   4.531 -0.1223  0.4998  0.5678
 2020poe     o211273   6.173   4.049   4.500  0.2674  0.4147 -0.5551
 2020poe    c2311274   6.198   3.952   4.401  0.0716 -0.0851 -0.1216
 2020poe    c2311275   6.067   3.880   4.368 -0.2166  0.0275  0.7500
 2020poe     o211276   6.023   3.805   4.479 -0.2164 -0.3997  0.4657
 2020poe    c2311277   5.893   3.759   4.449 -0.1462 -0.0489 -0.4127
 2020poe    c2311278   5.869   3.692   4.586  0.1955  0.1322 -0.2626
 2020poe     o211279   5.898   3.784   4.689 -0.4833  0.1406 -0.0698
 2020poe    c3111280   5.843   3.733   4.808  0.5249  0.4075  0.5280
 2021poe    c3111281   1.306   3.211   4.465 -0.4110  0.0518 -0.7222
 2021poe     o211282   1.171   3.224   4.505 -0.1496  0.3471  0.0914
 2021poe    c2311283   1.148   3.128   4.606 -0.0852 -0.1100 -0.3220
 2021poe    c2311284   1.004   3.137   4.660  0.2614  0.8218  0.4777
 2021poe     o211285   0.979   3.259   4.727 -0.2734  1.1076 -0.2276
 2021poe    c2311286   0.853   3.268   4.790 -0.2892 -0.2081 -0.0450
 2021poe    c2311287   0.828   3.389   4.882 -0.0889 -0.4006  0.2651
 2021poe     o211288   0.821   3.520   4.831 -0.3991 -0.2731  0.6252
 2021poe    c2311289   0.811   3.615   4.934  0.2755  0.0738  0.3753
 2021poe    c2311290   0.782   3.759   4.886  0.0984 -0.3652 -0.8802
 2021poe     o211291   0.890   3.835   4.836  0.1700  0.3866  0.3704
 2021poe    c3111292   0.838   3.956   4.786  0.0824  0.2980  0.2446
 2022poe    c3111293   1.208   0.153   0.445  0.1975  0.0046  0.0714
 2022poe     o211294   1.082   0.204   0.407  0.2036 -0.0483 -0.0207
 2022poe    c2311295   1.086   0.248   0.273  0.1853  0.1675  0.0491
 2022poe    c2311296   0.938   0.276   0.238  0.1323  0.0441  0.1735
 2022poe     o211297   0.877   0.357   0.336  0.4294  0.6365 -0.1261
 2022poe    c2311298   0.736   0.352   0.341  0.4083  0.2829 -0.8738
 2022poe    c2311299   0.680   0.467   0.427 -0.2336 -0.5952 -0.0982
 2022poe     o211300   0.745   0.462   0.551 -0.3861  0.1399  0.0192
 2022poe    c2311301   0.673   0.552   0.632 -1.2717 -0.0674 -0.5297
 2022poe    c2311302   0.727   0.546   0.776  0.5538  0.6221 -1.1658
 2022poe     o211303   0.864   0.579   0.791  0.3947  0.9327 -0.3282
 2022poe    c3111304   0.926   0.553   0.914 -0.3937 -0.9322 -0.2881
 2023poe    c3111305   6.527   6.747   4.548 -0.0514  0.0768  0.2846
 2023poe     o211306   6.617   6.714   4.444 -0.5592 -0.3451 -0.0248
 2023poe    c2311307   6.749   6.692   4.488 -0.6183 -0.4319  0.1105
 2023poe    c2311308   6.837   6.818   4.494 -0.4511 -0.5702  0.5917
 2023poe     o211309   6.793   6.910   4.591 -0.0070 -0.1245  0.3726
 2023poe    c2311310   6.891   7.011   4.588 -0.1575 -0.0008 -0.6140
 2023poe    c2311311   6.819   7.144   4.617 -0.0349  0.0269 -0.4365
 2023poe     o211312   6.898   7.255   4.583  0.1666  0.1188  0.3104
 2023poe    c2311313   6.830   7.355   4.509 -0.0192 -0.1585  0.1053
 2023poe    c2311314   6.909   7.476   4.456  0.4150 -0.2795  0.4685
 2023poe     o211315   6.989   7.449   4.344 -0.3552 -1.2593  0.1348
 2023poe    c3111316   7.114   7.388   4.368  0.3233  0.2197  0.4887
 2024poe    c3111317   5.876   2.650   1.709 -0.7578  0.2054  0.5109
 2024poe     o211318   5.850   2.761   1.625  0.1384  0.0253 -0.0115
 2024poe    c2311319   5.884   2.882   1.688  0.4895  0.0894 -0.3198
 2024poe    c2311320   5.839   3.000   1.599 -0.1456  0.0349 -0.0773
 2024poe     o211321   5.871   2.956   1.469  0.5743 -0.5544  0.2878
 2024poe    c2311322   5.854   3.048   1.363  0.5230 -0.2788  0.5333
 2024poe    c2311323   5.810   2.966   1.241  0.4253  0.1389  0.2873
 2024poe     o211324   5.896   2.854   1.231  0.1374 -0.0705  0.1168
 2024poe    c2311325   5.858   2.783   1.115 -0.2526  0.1861  0.0853
 2024poe    c2311326   5.926   2.645   1.107 -0.2444  0.1457  0.7911
 2024poe     o211327   5.892   2.543   1.198 -0.3579 -0.6201 -0.0973
 2024poe    c3111328   6.009   2.466   1.214  0.1587  0.1312 -0.1881
 2025poe    c3111329   3.662   4.513   0.337  0.1640  0.2183 -0.0687
 2025poe     o211330   3.671   4.653   0.346 -0.1269  0.2895 -0.7707
 2025poe    c2311331   3.807   4.687   0.337 -0.0002 -0.1101 -0.4164
 2025poe    c2311332   3.820   4.835   0.296 -0.2305  0.0070 -0.0709
 2025poe     o211333   3.773   4.887   0.174  0.1416  0.6691  0.0641
 2025poe    c2311334   3.873   4.851   0.081  0.4223  0.6538  0.3745
 2025poe    c2311335   3.852   4.865  -0.071 -1.0548 -0.2799  0.4820
 2025poe     o211336   3.859   4.996  -0.121 -0.0005 -0.6825 -0.4605
 2025poe    c2311337   3.731   5.055  -0.116  0.4219  0.1947  0.3295
 2025poe    c2311338   3.743   5.207  -0.095  0.6647  0.2034  0.1344
 2025poe     o211339   3.804   5.239   0.028  0.3707 -0.2487  0.4016
 2025poe    c3111340   3.883   5.356   0.025  0.1843 -0.1388 -0.5838
 2026poe    c3111341   3.830   0.490   4.525 -0.3167  0.4353 -0.0299
 2026poe     o211342   3.886   0.555   4.413 -0.1693 -0.2793 -0.3755
 2026poe    c2311343   3.931   0.462   4.316  0.2706 -0.1978 -0.2524
 2026poe    c2311344   3.972   0.532   4.185 -0.1804  0.3938 -0.0833
 2026poe     o211345   4.078   0.624   4.200 -0.0470  0.2541 -0.1692
 2026poe    c2311346   4.134   0.661   4.076  0.2910  0.1954 -0.0338
 2026poe    c2311347   4.198   0.801   4.067  0.2266  0.2338  0.1040
 2026poe     o211348   4.289   0.839   4.168  0.4557 -0.5128  0.1863
 2026poe    c2311349   4.327   0.974   4.150  0.3063 -0.4501  0.3416
 2026poe    c2311350   4.475   0.979   4.190  0.3268  0.8497  0.1227
 2026poe     o211351   4.487   0.940   4.325  0.1679 -0.3684 -0.2096
 2026poe    c3111352   4.604   1.000   4.376 -0.0210 -0.3958  0.2594
 2027poe    c3111353   4.011   1.455   5.578 -0.7110  0.6361  0.0980
 2027poe     o211354   3.894   1.396   5.629 -0.4184  0.0745  0.1258
 2027poe    c2311355   3.841   1.475   5.733 -0.2619  0.9926 -0.4888
 2027poe    c2311356   3.758   1.392   5.831  0.6361 -0.3266 -0.8192
 2027poe     o211357   3.648   1.306   5.806  0.2220  0.0170 -0.2233
 2027poe    c2311358   3.681   1.171   5.781  0.0919 -0.0239 -0.1705
 2027poe    c2311359   3.557   1.094   5.730 -0.3864  0.3274  0.4535
 2027poe     o211360   3.537   1.126   5.594  0.4644  0.3716  0.3322
 2027poe    c2311361   3.463   1.015   5.547  0.9432  0.4948 -0.7335
 2027poe    c2311362   3.359   1.024   5.435 -0.4810 -0.2135  0.4990
 2027poe     o211363   3.242   1.096   5.469 -0.4458 -0.1735  0.5341
 2027poe    c3111364   3.136   1.067   5.381 -0.0958 -0.5535  0.2334
 2028poe    c3111365   0.426   5.474   1.032  0.0792 -0.0218 -0.5928
 2028poe     o211366   0.454   5.571   1.130  0.0389 -0.1628 -0.4405
 2028poe    c2311367   0.462   5.522   1.262  0.9444 -0.6070 -0.6546
 2028poe    c2311368   0.449   5.637   1.364  0.4281 -0.7254 -0.5826
 2028poe     o211369   0.567   5.715   1.368 -0.1410  0.1274 -0.1724
 2028poe    c2311370   0.570   5.843   1.428  0.0515  0.0776 -0.0756
 2028poe    c2311371   0.713   5.896   1.448  0.0866 -0.0578  0.0316
 2028poe     o211372   0.772   5.883   1.321 -0.1137 -1.1489  0.0375
 2028poe    c2311373   0.904   5.930   1.306 -0.5485  0.0107 -0.2274
 2028poe    c2311374   0.936   5.936   1.156 -0.7294 -0.5182 -0.2892
 2028poe     o211375   0.929   5.818   1.080 -0.6750 -0.5149 -0.2992
 2028poe    c3111376   0.957   5.835   0.943  0.1218 -0.2116 -0.1008
 2029poe    c3111377   3.385   3.559   4.279 -0.0647  0.2109  0.6046
 2029poe     o211378   3.312   3.625   4.381 -0.1242 -0.0523  0.7338
 2029poe    c2311379   3.347   3.759   4.401 -0.2642  0.0475  0.3310
 2029poe    c2311380   3.234   3.827   4.480 -0.6378  0.2118 -0.3367
 2029poe     o211381   3.210   3.735   4.585  0.1043  0.2007 -0.1736
 2029poe    c2311382   3.094   3.766   4.658  0.3388  0.4622  0.0932
 2029poe    c2311383   3.075   3.651   4.760 -0.2189  0.2301 -0.2660
 2029poe     o211384   3.074   3.530   4.688  0.1924  0.2611 -0.3287
 2029poe    c2311385   2.991   3.444   4.763  0.4663 -0.2309 -0.5826
 2029poe    c2311386   2.979   3.302   4.706 -0.0771 -0.5479  0.2938
 2029poe     o211387   2.944   3.311   4.569  0.1209 -0.3775  0.2539
 2029poe    c3111388   2.936   3.184   4.510  0.0301 -0.3646  0.2370
 2030poe    c3111389   0.339   2.925   0.470  0.0661  0.5192  0.1421
 2030poe     o211390   0.366   2.970   0.339  0.5766 -0.5684 -0.1417
 2030poe    c2311391   0.243   3.004   0.278  0.5427 -0.5552 -0.0659
 2030poe    c2311392   0.184   2.914   0.168  0.4587 -0.7959  0.1755
 2030poe     o211393   0.265   2.906   0.053  0.4140 -0.1071  0.0909
 2030poe    c2311394   0.194   2.851  -0.055  0.4270 -0.2701  0.1643
 2030poe    c2311395   0.281   2.768  -0.152  0.2017 -0.0948 -0.1894
 2030poe     o211396   0.362   2.680  -0.078  0.3385  0.6027  0.5030
 2030poe    c2311397   0.460   2.623  -0.162 -0.0652  0.0848  0.3735
 2030poe    c2311398   0.583   2.566  -0.089 -0.1225 -0.1687  0.2723
 2030poe     o211399   0.647   2.659  -0.005 -0.4152  0.1312  0.1671
 2030poe    c3111400   0.752   2.592   0.061 -0.1289  0.8166  0.4193
 2031poe    c3111401   3.113   1.263   0.159  0.3560 -0.1807 -0.2370
 2031poe     o211402   3.158   1.326   0.277  0.2606 -0.0131 -0.2902
 2031poe    c2311403   3.122   1.241   0.383 -0.6614  0.1891 -0.4352
 2031poe    c2311404   3.160   1.294   0.522 -0.2743  0.1824 -0.5370
 2031poe     o211405   3.105   1.419   0.556  0.9316  0.5325  0.1851
 2031poe    c2311406   3.099   1.454   0.693  0.5436 -0.1037  0.3395
 2031poe    c2311407   3.033   1.590   0.723  0.2163 -0.1961  0.0407
 2031poe     o211408   3.082   1.702   0.653 -0.2177 -0.1510 -0.1979
 2031poe    c2311409   3.013   1.813   0.705  0.4565 -0.1021  0.6101
 2031poe    c2311410   3.084   1.947   0.676 -0.1347  0.0833  0.0000
 2031poe     o211411   3.209   1.961   0.741 -0.3181  0.2941  0.3075
 2031poe    c3111412   3.240   2.094   0.777  0.4381  0.1950  0.0484
 2032poe    c3111413   2.163   3.840   4.260 -0.2806 -0.0042 -0.4182
 2032poe     o211414   2.027   3.879   4.268 -0.1965  0.2135 -0.0217
 2032poe    c2311415   2.010   3.973   4.371 -0.2948  0.3591 -0.1704
 2032poe    c2311416   1.873   4.040   4.391 -0.2441  0.2009  0.7449
 2032poe     o211417   1.765   3.952   4.413 -0.0098 -0.3200 -0.1560
 2032poe    c2311418   1.648   4.029   4.393  0.0506 -0.1968 -0.0405
 2032poe    c2311419   1.521   3.944   4.372 -0.1671  0.2910 -0.7069
 2032poe     o211420   1.536   3.844   4.274 -0.0566 -0.2592 -0.1312
 2032poe    c2311421   1.412   3.776   4.265 -0.3618  0.3088 -0.2665
 2032poe    c2311422   1.422   3.645   4.185  0.9650  0.3923 -0.2599
 2032poe     o211423   1.542   3.581   4.223  0.4999 -0.0343  0.5176
 2032poe    c3111424   1.526   3.445   4.190 -0.6970  0.4326 -0.9356
 2033poe    c3111425   5.075   4.556   5.653 -0.3548 -0.2684  0.2624
 2033poe     o211426   4.981   4.454   5.627  0.0912 -0.5764 -0.1504
 2033poe    c2311427   5.003   4.413   5.494 -0.0960  0.2912 -0.4563
 2033poe    c2311428   4.900   4.303   5.463 -0.1737  0.2765 -0.1370
 2033poe     o211429   4.786   4.347   5.535 -0.4308 -0.0421 -0.3453
 2033poe    c2311430   4.677   4.260   5.513 -0.4896  0.1594 -0.8679
 2033poe    c2311431   4.570   4.329   5.600 -0.1227 -0.7789  0.3506
 2033poe     o211432   4.624   4.338   5.730  0.2691 -0.2941  0.1571
 2033poe    c2311433   4.524   4.377   5.821 -0.2700 -0.4071 -0.3827
 2033poe    c2311434   4.576   4.339   5.961  0.2857  0.7131 -0.2711
 2033poe     o211435   4.679   4.424   6.007  0.5010  0.4709 -0.3040
 2033poe    c3111436   4.715   4.401   6.141  0.0378  0.1311 -0.2358
 2034poe    c3111437   4.493   4.132   6.278 -0.0589  0.7241 -0.3444
 2034poe     o211438   4.454   4.188   6.401 -0.2667 -0.0841 -0.0334
 2034poe    c2311439   4.562   4.248   6.468 -0.2207 -0.0513 -0.1360
 2034poe    c2311440   4.526   4.287   6.612 -0.2665  0.1967 -0.2150
 2034poe     o211441   4.476   4.190   6.702  0.7907 -0.3099 -0.1656
 2034poe    c2311442   4.504   4.218   6.837  0.1673 -0.3963 -0.0176
 2034poe    c2311443   4.495   4.079   6.904 -0.1694 -0.2821  0.1817
 2034poe     o211444   4.385   4.012   6.847 -0.2695  0.1464 -0.1329
 2034poe    c2311445   4.315   3.943   6.947  0.2459 -0.0972  0.0654
 2034poe    c2311446   4.226   3.839   6.877  0.0541 -0.0455  0.2277
 2034poe     o211447   4.179   3.892   6.755 -0.0833 -0.0554  0.2771
 2034poe    c3111448   4.142   3.787   6.669  0.4268  0.4342 -0.5586
 2035poe    c3111449   3.939   2.520   5.024 -0.5909  0.2189  0.3497
 2035poe     o211450   3.855   2.617   4.965  0.1064  0.4118 -0.3388
 2035poe    c2311451   3.738   2.545   4.933 -0.1969  0.7968 -0.1060
 2035poe    c2311452   3.642   2.627   4.845 -0.7834 -0.7366 -0.9271
 2035poe     o211453   3.580   2.724   4.926  0.2815 -0.2480 -0.6691
 2035poe    c2311454   3.439   2.713   4.920  0.2156 -0.3974  0.7552
 2035poe    c2311455   3.381   2.751   5.057 -0.0475  0.0230  0.5310
 2035poe     o211456   3.427   2.880   5.088 -0.3680  0.1518  0.4714
 2035poe    c2311457   3.420   2.912   5.225 -0.6645  0.0364  0.4840
 2035poe    c2311458   3.512   3.028   5.268  0.1188 -0.3891 -0.0163
 2035poe     o211459   3.630   2.976   5.210  0.1929 -0.4247  0.1624
 2035poe    c3111460   3.737   3.056   5.257 -0.0187  0.0424 -0.1379
 2036poe    c3111461   5.927   4.620   1.206 -0.5809  0.2817 -0.0542
 2036poe     o211462   6.024   4.665   1.115 -0.1323 -0.2692  0.1499
 2036poe    c2311463   6.033   4.806   1.118 -0.6445 -0.2152 -0.6781
 2036poe    c2311464   6.150   4.837   1.023  0.0924 -0.4674  0.1288
 2036poe     o211465   6.280   4.787   1.045  0.3388 -0.1321 -0.5457
 2036poe    c2311466   6.359   4.795   0.928  0.3028 -0.1111 -0.5691
 2036poe    c2311467   6.506   4.758   0.957  0.2245  0.6011  0.8446
 2036poe     o211468   6.505   4.645   1.041 -0.0907 -0.0100  0.0314
 2036poe    c2311469   6.625   4.616   1.108 -0.1400 -0.1804  0.0475
 2036poe    c2311470   6.604   4.491   1.195  0.1465 -0.2191  0.0613
 2036poe     o211471   6.495   4.524   1.277  0.2183 -0.1944  0.1466
 2036poe    c3111472   6.459   4.437   1.382 -0.8100  0.4344  0.3283
 2037poe    c3111473   6.954   3.702   4.314  0.1436 -0.0409  0.1011
 2037poe     o211474   7.047   3.794   4.262 -0.1036  0.0795 -0.1318
 2037poe    c2311475   7.071   3.780   4.124  0.7079  0.0153  0.0095
 2037poe    c2311476   7.164   3.893   4.075 -0.0665  0.6234 -0.0762
 2037poe     o211477   7.267   3.914   4.168  0.0689  0.2205 -0.1317
 2037poe    c2311478   7.361   4.013   4.133  0.1093  0.0082 -0.6315
 2037poe    c2311479   7.481   3.998   4.229  0.1942  0.0745 -0.7269
 2037poe     o211480   7.520   3.862   4.233  0.3658  0.1433 -0.0387
 2037poe    c2311481   7.613   3.825   4.333  0.0049 -0.7826 -0.0368
 2037poe    c2311482   7.642   3.675   4.350  0.5076 -0.7315 -0.4014
 2037poe     o211483   7.538   3.609   4.419 -0.2933  0.1198 -0.7644
 2037poe    c3111484   7.544   3.468   4.427  0.2275  0.1560 -0.4449
 2038poe    c3111485   1.345   2.077   6.116  0.5983 -0.5902  0.7676
 2038poe     o211486   1.409   2.008   6.011 -0.1261 -0.2492  0.0947
 2038poe    c2311487   1.546   2.022   6.044  0.0333 -0.6432 -0.3883
 2038poe    c2311488   1.636   2.102   5.949  0.0774 -0.0865  0.1118
 2038poe     o211489   1.644   2.019   5.834 -0.9430 -0.2292  0.1366
 2038poe    c2311490   1.719   2.078   5.731 -0.6092 -0.3631  0.3012
 2038poe    c2311491   1.704   2.004   5.596 -0.2955  0.5061 -0.2241
 2038poe     o211492   1.584   2.011   5.522 -0.4979 -0.0442  0.0430
 2038poe    c2311493   1.595   1.905   5.429  0.2663  0.1687 -0.1140
 2038poe    c2311494   1.461   1.874   5.361  0.5418 -1.1379 -0.0904
 2038poe     o211495   1.354   1.850   5.451 -0.3139  0.5365 -0.6093
 2038poe    c3111496   1.255   1.774   5.386 -0.0914  0.0037 -0.3342
 2039poe    c3111497   0.486   3.387   6.748 -0.6958  0.2306 -0.2722
 2039poe     o211498   0.495   3.475   6.638  0.6167  0.4312 -0.0262
 2039poe    c2311499   0.372   3.473   6.569  0.9802 -0.2133 -0.6695
 2039poe    c2311500   0.376   3.582   6.460 -0.4838  0.3496 -0.1871
 2039poe     o211501   0.418   3.699   6.526  0.0927 -0.0018  0.0809
 2039poe    c2311502   0.382   3.816   6.455  0.2723  0.1457  0.2337
 2039poe    c2311503   0.407   3.932   6.554 -0.2995  0.4586  0.0173
 2039poe     o211504   0.541   3.932   6.597 -0.2105 -0.5885 -0.2186
 2039poe    c2311505   0.578   4.059   6.647 -0.5550 -0.5856  0.0281
 2039poe    c2311506   0.730   4.082   6.641 -0.6803  0.2828  0.0624
 2039poe     o211507   0.799   3.976   6.703 -0.4437  0.2965 -0.1801
 2039poe    c3111508   0.936   4.012   6.707 -0.3232 -0.2476  0.7462
 2040poe    c3111509   5.778   1.571   6.965  0.0187  0.0798 -0.7406
 2040poe     o211510   5.848   1.660   6.882  0.6038  0.1011 -0.2329
 2040poe    c2311511   5.759   1.718   6.789  0.3965  0.3254  0.1022
 2040poe    c2311512   5.822   1.825   6.698 -0.0261  0.7803  0.3418
 2040poe     o211513   5.953   1.778   6.676 -0.2258  0.1894  0.3887
 2040poe    c2311514   6.029   1.847   6.579 -0.2781 -0.1128  0.1313
 2040poe    c2311515   6.145   1.752   6.547 -0.6330 -0.4509 -0.1608
 2040poe     o211516   6.215   1.719   6.665  0.1999 -0.8464 -0.7573
 2040poe    c2311517   6.339   1.662   6.631  0.6221 -0.0595 -0.5613
 2040poe    c2311518   6.411   1.606   6.755  0.0206  0.2129 -0.0876
 2040poe     o211519   6.345   1.497   6.814 -0.0539  0.2108 -0.1751
 2040poe    c3111520   6.390   1.478   6.946  0.4980  0.1470 -0.3728
 2041poe    c3111521   3.770   0.895   4.716 -0.2494  0.2793  0.0598
 2041poe     o211522   3.792   0.957   4.591  0.2102  0.3311  0.1624
 2041poe    c2311523   3.765   0.851   4.502 -0.5631  0.4551  0.2395
 2041poe    c2311524   3.804   0.875   4.355  0.9469  0.2901  0.5905
 2041poe     o211525   3.740   0.985   4.294  0.1978 -0.4959 -0.0711
 2041poe    c2311526   3.811   1.106   4.309  0.0274 -0.3738 -0.2382
 2041poe    c2311527   3.767   1.212   4.207 -0.8635 -0.4797  0.0259
 2041poe     o211528   3.788   1.337   4.270 -0.1350 -0.3076 -0.5405
 2041poe    c2311529   3.771   1.439   4.175  0.1164  0.2923  0.0565
 2041poe    c2311530   3.695   1.551   4.249 -0.5047 -0.1322  0.0712
 2041poe     o211531   3.783   1.652   4.294  0.1245 -0.5500 -0.2039
 2041poe    c3111532   3.708   1.743   4.371 -0.2596 -0.4917 -0.6417
 2042poe    c3111533   2.368   5.827   5.202  0.4792  0.6476  0.0378
 2042poe     o211534   2.419   5.704   5.250 -0.8675  0.2133  0.3977
 2042poe    c2311535   2.443   5.720   5.388 -1.6571  0.1819  0.5434
 2042poe    c2311536   2.489   5.582   5.438  0.1936  0.5967  0.0768
 2042poe     o211537   2.566   5.539   5.328  0.0795  0.2139  0.1439
 2042poe    c2311538   2.588   5.400   5.330  0.1278  0.2083 -0.5307
 2042poe    c2311539   2.692   5.365   5.222  0.2421 -0.3867 -0.2329
 2042poe     o211540   2.633   5.426   5.110 -0.0615  0.1625  0.2178
 2042poe    c2311541   2.678   5.368   4.989  0.0954 -0.2816  0.4889
 2042poe    c2311542   2.664   5.465   4.871 -0.2735  0.3227  1.0199
 2042poe     o211543   2.740   5.584   4.875  0.8806 -0.3097 -0.5674
 2042poe    c3111544   2.735   5.658   4.755  0.2826  0.3364 -0.1537
 2043poe    c3111545   0.388   4.839   6.998  0.3221  0.2856  0.0661
 2043poe     o211546   0.447   4.769   7.106 -0.1550 -0.1173  0.0704
 2043poe    c2311547   0.345   4.712   7.183  0.0794 -0.7163 -0.0599
 2043poe    c2311548   0.394   4.614   7.291 -0.0103 -0.2451  0.4104
 2043poe     o211549   0.500   4.667   7.367 -0.5593  0.3805  0.7498
 2043poe    c2311550   0.581   4.567   7.423 -0.3983  0.6271  0.9599
 2043poe    c2311551   0.513   4.493   7.540 -0.1663 -0.2066  0.5796
 2043poe     o211552   0.417   4.403   7.490 -0.0349 -0.2706  0.4426
 2043poe    c2311553   0.319   4.380   7.589 -0.3258  0.7637  0.4028
 2043poe    c2311554   0.246   4.259   7.529  0.0157  0.5981  0.3173
 2043poe     o211555   0.136   4.293   7.449 -0.1284 -0.0374  0.2381
 2043poe    c3111556   0.069   4.187   7.385  0.2855  0.0677 -0.3733
 2044poe    c3111557   3.978   2.760   4.709 -0.1971 -0.6338 -0.0546
 2044poe     o211558   3.999   2.851   4.604  0.3653 -0.2151  0.4176
 2044poe    c2311559   4.124   2.915   4.590  0.1564  0.1102  0.0215
 2044poe    c2311560   4.240   2.820   4.551 -0.0583 -0.1181 -0.0641
 2044poe     o211561   4.226   2.778   4.417  0.0411 -0.1309 -0.0701
 2044poe    c2311562   4.358   2.783   4.369  0.1887 -0.0608  0.3431
 2044poe    c2311563   4.353   2.723   4.227 -0.3988  0.3282  0.1966
 2044poe     o211564   4.325   2.587   4.247 -0.3507  0.2710 -0.1182
 2044poe    c2311565   4.277   2.526   4.129 -0.1052 -0.0812 -0.0374
 2044poe    c2311566   4.239   2.377   4.143 -0.1551 -0.1232 -0.5953
 2044poe     o211567   4.125   2.367   4.226  0.1801 -0.1049 -0.1295
 2044poe    c3111568   4.095   2.230   4.242  0.4104 -0.1809 -0.3574
 2045poe    c3111569   4.242   0.521   0.266  0.1685  0.6923 -0.1949
 2045poe     o211570   4.298   0.544   0.138  0.4826 -0.0461 -0.1928
 2045poe    c2311571   4.433   0.548   0.177  0.3008  0.4997  0.3953
 2045poe    c2311572   4.518   0.580   0.052 -0.1405 -0.3579 -0.1326
 2045poe     o211573   4.514   0.480  -0.046 -1.1415  0.0246 -0.4973
 2045poe    c2311574   4.603   0.503  -0.154 -0.3592  0.2695  0.1899
 2045poe    c2311575   4.568   0.409  -0.271 -0.4320  0.1196  0.3301
 2045poe     o211576   4.433   0.400  -0.311 -0.3254  0.3185 -0.0818
 2045poe    c2311577   4.402   0.334  -0.432  0.4058 -0.1311 -0.0315
 2045poe    c2311578   4.251   0.307  -0.447  0.3411  0.4967 -0.5228
 2045poe     o211579   4.193   0.331  -0.321  0.3337 -0.1641 -0.3968
 2045poe    c3111580   4.059   0.286  -0.322  0.2845 -0.0396  0.1930
 2046poe    c3111581   1.315   0.273   6.072 -0.3604 -0.0295 -0.2886
 2046poe     o211582   1.338   0.404   6.026 -0.6119 -0.0052 -0.3469
 2046poe    c2311583   1.365   0.487   6.138 -0.7132  0.7697 -0.8866
 2046poe    c2311584   1.472   0.587   6.089 -0.3030  0.5916 -0.3688
 2046poe     o211585   1.415   0.651   5.976 -0.4886  0.8671 -0.1208
 2046poe    c2311586   1.525   0.709   5.909  0.0318 -0.2791 -0.2867
 2046poe    c2311587   1.469   0.727   5.766  0.4417 -0.4623 -0.4711
 2046poe     o211588   1.413   0.604   5.727 -0.4327 -0.1977 -0.0722
 2046poe    c2311589   1.387   0.594   5.588 -0.2471 -0.6190 -0.0771
 2046poe    c2311590   1.494   0.521   5.505  0.0381  0.2509 -0.4782
 2046poe     o211591   1.516   0.387   5.541 -0.5438  0.3287  0.1804
 2046poe    c3111592   1.577   0.325   5.430 -0.2191  0.3902  0.3238
 2047poe    c3111593   6.060   0.364   4.079 -0.0279  0.1809 -0.1277
 2047poe     o211594   6.037   0.397   3.944  0.4329 -0.0973 -0.2750
 2047poe    c2311595   6.032   0.279   3.867 -0.5160 -0.3194  0.1222
 2047poe    c2311596   6.077   0.295   3.721  0.3021 -0.2133  0.3807
 2047poe     o211597   6.210   0.334   3.700  0.1528 -0.0222 -0.2473
 2047poe    c2311598   6.201   0.474   3.688  0.1805  0.0067  0.0545
 2047poe    c2311599   6.342   0.535   3.675  0.3766 -0.4504  0.0124
 2047poe     o211600   6.433   0.476   3.765  0.2449 -0.0941  0.3813
 2047poe    c2311601   6.563   0.518   3.732  0.0686 -0.0611 -0.2821
 2047poe    c2311602   6.666   0.428   3.802 -0.0542 -0.0311 -0.0633
 2047poe     o211603   6.623   0.298   3.768 -0.3363 -0.0237  0.2622
 2047poe    c3111604   6.703   0.205   3.837  0.2228 -0.3280 -0.7743
 2048poe    c3111605   1.277   2.762   4.545 -0.1896  0.1207 -0.3781
 2048poe     o211606   1.289   2.735   4.683  0.0807 -0.0632 -0.4369
 2048poe    c2311607   1.259   2.601   4.715  0.1575  0.0602  0.1660
 2048poe    c2311608   1.345   2.518   4.813  0.7196  0.1554 -0.2402
 2048poe     o211609   1.331   2.561   4.946 -0.1095 -0.4886 -0.1106
 2048poe    c2311610   1.381   2.468   5.039  0.1965  0.0459  0.2689
 2048poe    c2311611   1.421   2.540   5.169 -0.1072  0.0328  0.3708
 2048poe     o211612   1.328   2.641   5.201  0.0297  0.3460 -0.2074
 2048poe    c2311613   1.357   2.719   5.315  0.1005 -0.0506  0.0504
 2048poe    c2311614   1.248   2.825   5.339  0.2500  0.0992  0.0698
 2048poe     o211615   1.225   2.879   5.211  0.2106 -0.5839 -0.2161
 2048poe    c3111616   1.131   2.984   5.211 -0.1806 -0.9310  0.2942
 2049poe    c3111617   4.134   5.432   3.280 -0.1371  0.5165 -0.0660
 2049poe     o211618   4.260   5.368   3.271 -0.5916 -0.4378  0.1902
 2049poe    c2311619   4.301   5.309   3.392  0.1690 -0.3348 -0.0105
 2049poe    c2311620   4.425   5.226   3.357  0.3860  0.1865 -0.4945
 2049poe     o211621   4.387   5.113   3.281 -0.1101 -0.0979  0.1679
 2049poe    c2311622   4.497   5.026   3.269  0.0607  0.0767  0.4465
 2049poe    c2311623   4.488   4.947   3.137 -0.2854  0.5484  0.1855
 2049poe     o211624   4.369   4.874   3.117  0.4501 -0.5080 -0.4575
 2049poe    c2311625   4.391   4.791   3.005  0.0055 -0.5602 -0.5096
 2049poe    c2311626   4.258   4.717   2.980 -0.1553 -0.3383 -0.3089
 2049poe     o211627   4.149   4.803   3.009  0.0010 -0.2676  0.0802
 2049poe    c3111628   4.038   4.771   2.928 -0.1175  0.4100 -0.0294
 2050poe    c3111629   3.454   2.789   6.060  0.3724  0.4232 -0.4804
 2050poe     o211630   3.479   2.653   6.034 -0.5986  0.0980  0.2365
 2050poe    c2311631   3.396   2.621   5.926 -0.0511 -0.0450 -0.1453
 2050poe    c2311632   3.412   2.478   5.870  0.6342 -0.2197  0.4905
 2050poe     o211633   3.402   2.366   5.955  0.2893 -0.4770  0.1164
 2050poe    c2311634   3.452   2.257   5.882  0.1430 -0.3762 -0.1362
 2050poe    c2311635   3.393   2.121   5.926  0.1319 -0.1950  0.4206
 2050poe     o211636   3.292   2.060   5.848  0.2279  0.1027  0.0581
 2050poe    c2311637   3.271   1.937   5.913  0.3015  0.0731  0.0268
 2050poe    c2311638   3.168   1.877   5.815  0.3931 -0.7420  0.4195
 2050poe     o211639   3.184   1.922   5.683 -0.4696 -0.4306  0.4122
 2050poe    c3111640   3.165   1.820   5.587 -0.7156 -0.1824  0.1948
 2051poe    c3111641   4.334   1.029   1.345  0.4448  0.4040  0.7721
 2051poe     o211642   4.255   1.145   1.331 -0.1976 -0.1140  0.0698
 2051poe    c2311643   4.127   1.104   1.287 -0.2991 -0.0615  0.3198
 2051poe    c2311644   4.009   1.198   1.318 -0.9620 -0.6430 -0.4187
 2051poe     o211645   3.997   1.203   1.458  0.1427  0.2215 -0.3480
 2051poe    c2311646   3.865   1.237   1.492  0.0894 -0.1719 -0.1565
 2051poe    c2311647   3.847   1.236   1.645  0.0604 -0.2913 -0.1606
 2051poe     o211648   3.925   1.330   1.715 -0.6530  0.0954  0.1184
 2051poe    c2311649   3.858   1.361   1.835 -0.5163 -0.4881  0.3496
 2051poe    c2311650   3.967   1.377   1.943  0.0935 -0.7897 -0.2180
 2051poe     o211651   4.076   1.448   1.889  0.1309 -0.3236  0.4609
 2051poe    c3111652   4.167   1.453   1.997  0.4727 -0.0692  0.1656
 2052poe    c3111653   4.270   2.227   2.244 -0.4177 -0.3155  0.2230
 2052poe     o211654   4.326   2.315   2.339 -0.3916 -0.4539  0.3353
 2052poe    c2311655   4.293   2.450   2.321  0.0389 -0.2721  0.8625
 2052poe    c2311656   4.382   2.568   2.366  0.6246 -0.0744 -0.7185
 2052poe     o211657   4.422   2.554   2.501 -0.5994 -0.2237 -0.3541
 2052poe    c2311658   4.529   2.637   2.539 -0.6095 -0.5520  0.4025
 2052poe    c2311659   4.557   2.635   2.691 -0.0728 -0.2828  0.3103
 2052poe     o211660   4.585   2.501   2.728  0.3181 -0.2742  0.0531
 2052poe    c2311661   4.620   2.485   2.863 -0.1631 -0.1947  0.1913
 2052poe    c2311662   4.635   2.338   2.907  0.6079 -0.2579 -0.2501
 2052poe     o211663   4.535   2.274   2.830  0.0983  0.2575 -0.0254
 2052poe    c3111664   4.498   2.154   2.895 -0.6993  0.2017 -0.5701
 2053poe    c3111665   5.095   3.271   0.264  0.3463  0.2061  0.1388
 2053poe     o211666   5.138   3.405   0.258 -0.0182  0.3261  0.1571
 2053poe    c2311667   5.020   3.473   0.222 -0.3067 -0.1977  0.1082
 2053poe    c2311668   5.039   3.613   0.283  0.1508 -0.3880  0.4081
 2053poe     o211669   5.170   3.641   0.238  0.0202 -0.3574  0.0441
 2053poe    c2311670   5.231   3.756   0.291 -0.1697 -0.0135 -0.4791
 2053poe    c2311671   5.372   3.758   0.229  0.0001 -0.1015 -0.0992
 2053poe     o211672   5.445   3.639   0.251  0.0690 -0.0159  0.1345
 2053poe    c2311673   5.578   3.655   0.209  0.1269 -0.2083  0.2483
 2053poe    c2311674   5.662   3.526   0.215  0.1197 -0.2326 -0.1749
 2053poe     o211675   5.666   3.468   0.343  0.3654  0.3027  0.0631
 2053poe    c3111676   5.731   3.343   0.330 -0.4342 -0.2574  1.2091
 2054poe    c3111677   3.638   2.467   2.709 -0.1584 -0.0622 -0.2152
 2054poe     o211678   3.628   2.388   2.825  0.1921  0.2848  0.0510
 2054poe    c2311679   3.500   2.397   2.883  0.1138 -0.0133 -0.0738
 2054poe    c2311680   3.502   2.471   3.018 -0.1556  0.0187 -0.0871
 2054poe     o211681   3.576   2.387   3.104  0.0090  0.2414 -0.0099
 2054poe    c2311682   3.595   2.443   3.232  0.4966 -0.3333  0.1720
 2054poe    c2311683   3.678   2.344   3.317  0.1982 -0.4005  0.3874
 2054poe     o211684   3.779   2.305   3.227 -0.1713  0.1972 -0.3031
 2054poe    c2311685   3.881   2.256   3.311 -0.2304  0.5716 -0.0093
 2054poe    c2311686   3.974   2.171   3.223 -0.5401  0.3324 -0.1049
 2054poe     o211687   4.055   2.249   3.137  0.3903 -0.4927 -0.0026
 2054poe    c3111688   4.193   2.231   3.160  0.3595 -0.3905  0.2644
 2055poe    c3111689   0.623   3.250   3.461 -0.8313 -0.1969  0.6196
 2055poe     o211690   0.587   3.360   3.540 -0.6006  0.2810  0.0711
 2055poe    c2311691   0.605   3.315   3.673 -0.4211 -0.1687 -0.1048
 2055poe    c2311692   0.626   3.437   3.764 -0.3106 -0.1851 -0.1078
 2055poe     o211693   0.523   3.531   3.739  0.3959  0.3744 -1.0097
 2055poe    c2311694   0.519   3.637   3.832 -0.2306 -0.1892 -0.3784
 2055poe    c2311695   0.404   3.734   3.802 -0.2724 -0.2050 -0.2702
 2055poe     o211696   0.418   3.790   3.673 -0.5410 -0.8050 -0.5641
 2055poe    c2311697   0.293   3.836   3.628 -0.2892  0.4193 -0.0475
 2055poe    c2311698   0.314   3.928   3.506  0.3341  0.1194 -0.1681
 2055poe     o211699   0.355   3.857   3.392 -0.1422 -0.6212  0.1154
 2055poe    c3111700   0.290   3.890   3.271 -0.4203 -0.7157  0.2371
 2056poe    c3111701   5.621   0.246   5.174 -0.0036 -0.1235  0.0242
 2056poe     o211702   5.603   0.107   5.176 -0.4199 -0.0831 -0.6672
 2056poe    c2311703   5.490   0.080   5.256 -0.1652  0.6852 -0.0351
 2056poe    c2311704   5.497  -0.073   5.270  0.2963  0.6759 -0.3594
 2056poe     o211705   5.470  -0.136   5.147  0.3172  0.2042 -0.1246
 2056poe    c2311706   5.436  -0.273   5.156 -0.1547  0.3246 -0.0196
 2056poe    c2311707   5.438  -0.337   5.016  0.0477  0.0382  0.1137
 2056poe     o211708   5.357  -0.263   4.928  0.3841  0.2642 -0.0077
 2056poe    c2311709   5.383  -0.327   4.805 -0.0945 -0.1519  0.1039
 2056poe    c2311710   5.309  -0.248   4.695  0.0426  0.1509  0.2261
 2056poe     o211711   5.313  -0.107   4.698 -0.0899  0.1705 -0.4873
 2056poe    c3111712   5.250  -0.043   4.589  0.3436 -0.3553 -1.0582
 2057poe    c3111713   0.489   2.233   5.815 -0.3969  0.0106  0.4431
 2057poe     o211714   0.614   2.299   5.820 -0.1513 -0.4234  0.1098
 2057poe    c2311715   0.714   2.236   5.743  0.3018 -0.0300  0.3753
 2057poe    c2311716   0.829   2.332   5.707  0.1666  0.0337  0.1118
 2057poe     o211717   0.888   2.394   5.819 -0.2090 -0.4363  0.5723
 2057poe    c2311718   1.018   2.439   5.789 -0.1407 -0.9780  0.0254
 2057poe    c2311719   1.087   2.479   5.921  0.2299 -0.4551 -0.3237
 2057poe     o211720   1.032   2.598   5.974  0.5680 -0.2803 -0.3611
 2057poe    c2311721   1.099   2.622   6.095 -0.8647 -0.4604  0.4916
 2057poe    c2311722   1.017   2.740   6.153 -0.1108  0.1620  0.3130
 2057poe     o211723   0.879   2.716   6.160 -0.0982  0.0382  0.1587
 2057poe    c3111724   0.822   2.844   6.181 -0.3631 -0.0595  0.0499
 2058poe    c3111725   0.907   1.275   2.010 -0.1488  0.3237  0.3701
 2058poe     o211726   1.012   1.190   1.968 -0.7632 -0.1366 -0.2577
 2058poe    c2311727   1.036   1.107   2.079 -0.3439  0.3908  0.0514
 2058poe    c2311728   1.132   0.989   2.055 -0.0995  0.5491  0.2384
 2058poe     o211729   1.068   0.894   1.973  0.0326  0.2116  0.5216
 2058poe    c2311730   1.143   0.775   1.960  0.5706  0.6785 -0.9170
 2058poe    c2311731   1.077   0.688   1.851 -0.7844  0.0863  0.3304
 2058poe     o211732   1.111   0.742   1.725 -0.3925 -0.0606  0.3709
 2058poe    c2311733   1.033   0.666   1.636  0.2719 -0.6293  0.2702
 2058poe    c2311734   1.048   0.725   1.494 -0.1130 -0.6312  0.2279
 2058poe     o211735   1.021   0.863   1.503  0.8020 -0.3879 -0.5738
 2058poe    c3111736   0.966   0.928   1.391  0.2838 -0.0452 -0.1253
 2059poe    c3111737   5.258   2.759   6.627 -0.0668 -0.1691  0.5739
 2059poe     o211738   5.154   2.703   6.705 -0.2579  0.6060  0.8881
 2059poe    c2311739   5.033   2.774   6.692 -0.2038  0.3985 -1.1010
 2059poe    c2311740   4.938   2.753   6.812  0.2575  0.5925 -0.6961
 2059poe     o211741   4.893   2.620   6.824  0.4951  0.6307  0.8067
 2059poe    c2311742   4.795   2.618   6.925 -0.5354 -0.2903 -0.1838
 2059poe    c2311743   4.754   2.481   6.981 -0.0646 -0.2538  0.2492
 2059poe     o211744   4.874   2.428   7.033  0.2379  0.1208 -0.0636
 2059poe    c2311745   4.866   2.290   7.061  0.1893  0.0794 -0.2845
 2059poe    c2311746   4.995   2.207   7.050  0.2727  0.1158  0.3816
 2059poe     o211747   5.065   2.238   6.931  0.3611 -0.1977  0.3522
 2059poe    c3111748   5.171   2.152   6.896 -0.0176 -0.2097 -0.7806
 2060poe    c3111749   3.406   3.711   1.950 -0.1888  0.3484  1.2895
 2060poe     o211750   3.278   3.769   1.933 -0.1775  0.2020  0.7009
 2060poe    c2311751   3.190   3.690   1.856 -0.0263  0.1812  0.5467
 2060poe    c2311752   3.134   3.780   1.744 -0.2523 -0.1618  0.3844
 2060poe     o211753   3.131   3.915   1.784  0.9229 -0.0183  0.0250
 2060poe    c2311754   3.073   3.980   1.674 -0.2915 -0.3905  0.4339
 2060poe    c2311755   3.073   4.131   1.708 -0.2296 -0.3715  0.3493
 2060poe     o211756   3.207   4.166   1.734 -0.0527 -0.6451 -0.1672
 2060poe    c2311757   3.233   4.304   1.717 -0.1446 -0.5653  0.3049
 2060poe    c2311758   3.373   4.350   1.760 -0.1584  0.6669 -0.8916
 2060poe     o211759   3.397   4.314   1.894  0.0968  0.8692 -0.8812
 2060poe    c3111760   3.520   4.366   1.939  0.0187  0.5758 -0.3182
 2061poe    c3111761   2.080   4.321   0.142  0.1148 -0.3000 -0.8231
 2061poe     o211762   1.970   4.254   0.200  0.1711  0.0097 -0.3549
 2061poe    c2311763   1.890   4.214   0.091  0.2097 -0.4284 -0.2246
 2061poe    c2311764   1.778   4.141   0.167 -0.7596  0.0736 -1.1382
 2061poe     o211765   1.738   4.235   0.264 -0.2133 -0.9046  0.0623
 2061poe    c2311766   1.643   4.189   0.357 -0.7119 -0.0398 -0.0140
 2061poe    c2311767   1.685   4.239   0.496  0.0732 -0.3430 -0.1370
 2061poe     o211768   1.822   4.223   0.524  0.1853  0.4651 -0.2027
 2061poe    c2311769   1.826   4.252   0.662  0.4191 -0.0636 -0.0954
 2061poe    c2311770   1.969   4.254   0.718  0.3155  0.2522  0.1614
 2061poe     o211771   2.050   4.353   0.659 -0.0218 -0.1364 -0.9832
 2061poe    c3111772   2.191   4.344   0.666 -0.0442 -0.0819 -0.4608
 2062poe    c3111773   1.396   0.242   3.749 -0.0554 -0.4531  0.4972
 2062poe     o211774   1.359   0.224   3.614 -0.4941 -0.0284  0.5597
 2062poe    c2311775   1.219   0.207   3.604 -0.5612  0.5257  0.5034
 2062poe    c2311776   1.171   0.242   3.462 -0.2720  0.1600  0.3116
 2062poe     o211777   1.265   0.186   3.374  0.0338  0.5522  0.3801
 2062poe    c2311778   1.247   0.207   3.235  0.3360 -0.2417  0.2142
 2062poe    c2311779   1.380   0.170   3.166  0.3543  0.1683  0.0287
 2062poe     o211780   1.488   0.215   3.244  0.2894 -0.3112  0.4015
 2062poe    c2311781   1.602   0.220   3.160 -0.1395  0.4559 -0.1449
 2062poe    c2311782   1.726   0.284   3.224  0.0409  0.1211 -0.1591
 2062poe     o211783   1.696   0.409   3.282 -0.3427 -0.0551  0.0187
 2062poe    c3111784   1.813   0.487   3.276  0.3703 -1.0938  0.1962
 2063poe    c3111785   5.338   1.380   1.915 -0.1606 -0.1371  0.2553
 2063poe     o211786   5.265   1.481   1.981 -0.1929  0.1166 -0.1627
 2063poe    c2311787   5.209   1.573   1.891  0.0862  0.0769 -0.3795
 2063poe    c2311788   5.114   1.663   1.973  0.5680  0.0165  0.2498
 2063poe     o211789   5.189   1.701   2.086  0.1328  0.1992  0.4770
 2063poe    c2311790   5.129   1.816   2.142 -1.0965  0.0043 -0.3897
 2063poe    c2311791   5.146   1.955   2.078  0.3550  0.0485  0.0409
 2063poe     o211792   5.278   1.995   2.108  0.2782  0.1788  0.2096
 2063poe    c2311793   5.342   2.032   1.987 -0.1569  0.7743  0.1569
 2063poe    c2311794   5.445   2.146   2.004  0.5593  0.2290 -0.4888
 2063poe     o211795   5.551   2.125   2.094 -0.1625  0.5686  0.4586
 2063poe    c3111796   5.674   2.134   2.025  0.2041 -0.7630  0.9082
 2064poe    c3111797   4.211   3.525   3.416 -0.0576  0.0979  0.2742
 2064poe     o211798   4.097   3.460   3.468  0.0378 -0.1248  0.2060
 2064poe    c2311799   3.992   3.498   3.381  0.4984 -0.1889 -0.3833
 2064poe    c2311800   3.862   3.427   3.422  0.3939  0.0637 -0.2790
 2064poe     o211801   3.835   3.459   3.557 -0.2790  0.6074 -0.5382
 2064poe    c2311802   3.695   3.456   3.576 -0.2399 -0.4071 -0.3344
 2064poe    c2311803   3.647   3.327   3.644 -0.5549 -0.3020 -0.3564
 2064poe     o211804   3.685   3.318   3.779 -1.0283  0.0922 -0.1925
 2064poe    c2311805   3.631   3.215   3.859  0.5428  0.0144  0.8206
 2064poe    c2311806   3.478   3.205   3.875  0.4971  0.0238  0.3912
 2064poe     o211807   3.431   3.312   3.955  0.0123  0.0712  0.0441
 2064poe    c3111808   3.297   3.345   3.925  0.0379 -0.2766 -0.4767
 2065poe    c3111809   1.821   3.874   2.829  0.9860  0.0257 -0.0668
 2065poe     o211810   1.883   3.864   2.703  0.4058 -0.4248 -0.3228
 2065poe    c2311811   1.949   3.985   2.670  0.0074 -0.1237 -0.0260
 2065poe    c2311812   2.017   3.976   2.532 -0.1632 -0.5867 -0.0822
 2065poe     o211813   1.928   3.992   2.424  0.2440  0.7412 -0.2356
 2065poe    c2311814   1.981   3.991   2.293  0.4025  0.0129 -0.1693
 2065poe    c2311815   1.861   4.045   2.213  0.3058 -0.3245 -0.2551
 2065poe     o211816   1.759   3.948   2.221 -0.4137  0.4655  0.4000
 2065poe    c2311817   1.638   3.982   2.157 -0.2324  0.1652 -0.1115
 2065poe    c2311818   1.527   3.875   2.156 -0.4113  0.3446  0.2301
 2065poe     o211819   1.538   3.814   2.282  0.1614  0.1709  0.0962
 2065poe    c3111820   1.430   3.725   2.296 -0.0004  0.1590 -1.1439
 2066poe    c3111821   0.187   1.775   0.995  0.5763 -0.3214 -0.6166
 2066poe     o211822   0.078   1.685   0.995 -0.0305  0.3919  0.6373
 2066poe    c2311823  -0.046   1.745   1.023 -0.4672  0.0117 -0.4532
 2066poe    c2311824  -0.158   1.640   1.039 -0.3564  0.0304  0.5099
 2066poe     o211825  -0.194   1.566   0.924  0.3175  0.2221  0.1697
 2066poe    c2311826  -0.297   1.473   0.947  0.0297  0.3612 -0.5325
 2066poe    c2311827  -0.356   1.415   0.817 -0.8319 -0.4000  0.1853
 2066poe     o211828  -0.453   1.493   0.751 -0.1632  0.2685 -0.0161
 2066poe    c2311829  -0.572   1.516   0.823  0.0758  0.1604  0.4111
 2066poe    c2311830  -0.657   1.618   0.746 -0.0831 -0.2506  0.0396
 2066poe     o211831  -0.580   1.734   0.726 -0.0364 -0.3299 -0.2405
 2066poe    c3111832  -0.640   1.836   0.649  0.3001  0.0570  0.0050
 2067poe    c3111833   1.096   3.879   1.392 -0.3285 -0.0798  0.4680
 2067poe     o211834   0.968   3.831   1.358  0.1673 -0.4036 -1.0053
 2067poe    c2311835   0.962   3.693   1.387  0.3176 -0.1238  0.4218
 2067poe    c2311836   0.812   3.658   1.374  0.1728  0.5088  0.3297
 2067poe     o211837   0.776   3.734   1.261  0.2649 -0.2481 -0.2191
 2067poe    c2311838   0.671   3.667   1.195 -0.2296 -0.0161  0.3192
 2067poe    c2311839   0.614   3.754   1.081 -0.0126 -0.0924  0.1520
 2067poe     o211840   0.694   3.768   0.966  0.3839  0.0891  0.4447
 2067poe    c2311841   0.630   3.797   0.844  0.4722 -0.3949  0.2790
 2067poe    c2311842   0.708   3.875   0.736 -0.3254  0.1885  0.1166
 2067poe     o211843   0.820   3.807   0.684 -0.2350 -0.0170  0.5726
 2067poe    c3111844   0.841   3.877   0.563  0.5794 -0.3125  0.5360
 2068poe    c3111845   1.581   2.994   0.039 -0.1306  0.5679  0.6522
 2068poe     o211846   1.631   3.123   0.010 -0.2625  0.2242 -1.2133
 2068poe    c2311847   1.534   3.225   0.009 -0.0017  0.4894 -0.0279
 2068poe    c2311848   1.575   3.334  -0.091  0.1008  0.4659 -0.0109
 2068poe     o211849   1.592   3.303  -0.227 -0.0540 -0.2925  0.1378
 2068poe    c2311850   1.716   3.240  -0.251  0.2759  0.2781  0.3184
 2068poe    c2311851   1.734   3.201  -0.399 -0.1629  0.1594  0.2966
 2068poe     o211852   1.726   3.315  -0.481  0.1467  0.2081  0.3339
 2068poe    c2311853   1.853   3.365  -0.514  0.0583  0.2586  0.0643
 2068poe    c2311854   1.859   3.500  -0.588 -0.0075  0.4763  0.4528
 2068poe     o211855   1.772   3.603  -0.547 -0.2869  0.4507 -0.0725
 2068poe    c3111856   1.830   3.725  -0.585 -0.8275  0.7787  0.1391
 2069poe    c3111857   4.399   4.896   5.085 -0.2775 -0.0298 -0.3851
 2069poe     o211858   4.304   4.983   5.141 -0.0994 -0.0206 -0.0981
 2069poe    c2311859   4.309   5.101   5.065  0.4389 -0.1434 -0.2547
 2069poe    c2311860   4.355   5.222   5.149 -0.3390 -0.4601  0.6423
 2069poe     o211861   4.495   5.241   5.160 -0.2336 -0.4090 -0.6514
 2069poe    c2311862   4.570   5.251   5.041 -0.2571 -0.0863 -0.6391
 2069poe    c2311863   4.716   5.255   5.089 -0.4232  0.4610 -0.1681
 2069poe     o211864   4.728   5.318   5.214  0.6374 -0.1794  0.0637
 2069poe    c2311865   4.864   5.305   5.251  0.6304  0.1493  0.2104
 2069poe    c2311866   4.875   5.402   5.370  0.2776  0.0711  0.3094
 2069poe     o211867   4.754   5.423   5.439 -0.2430 -0.3985 -0.4521
 2069poe    c3111868   4.754   5.538   5.520 -1.0261 -0.7350  0.0475
 2070poe    c3111869   2.768   1.625   5.189 -0.3689 -0.7263 -0.5979
 2070poe     o211870   2.909   1.623   5.173 -0.2914  0.2340 -0.1352
 2070poe    c2311871   2.971   1.698   5.275 -0.4916 -0.0535  0.2018
 2070poe    c2311872   3.117   1.650   5.269 -0.2905  0.6221 -0.3709
 2070poe     o211873   3.116   1.515   5.230  0.2169  0.7257 -0.7636
 2070poe    c2311874   3.236   1.454   5.273 -0.2170  0.3435 -0.0664
 2070poe    c2311875   3.247   1.412   5.421 -0.0776  0.2431 -0.1063
 2070poe     o211876   3.236   1.511   5.521 -0.3330  0.2691 -0.1587
 2070poe    c2311877   3.271   1.462   5.649  0.0042  0.2376 -0.2600
 2070poe    c2311878   3.410   1.496   5.704 -0.1092 -0.1888  0.3039
 2070poe     o211879   3.452   1.629   5.728 -0.1563 -0.0871 -0.1763
 2070poe    c3111880   3.470   1.696   5.605  0.3542  0.5310  0.2310
 2071poe    c3111881   6.304   6.498   4.080  0.5123 -0.5835  0.1010
 2071poe     o211882   6.420   6.577   4.094  0.2531 -0.2464  0.3506
 2071poe    c2311883   6.475   6.609   3.969  0.2493 -0.3756  0.3164
 2071poe    c2311884   6.589   6.713   3.977 -0.2205  0.1676  0.0023
 2071poe     o211885   6.706   6.660   4.036 -0.2994 -0.4759 -0.4011
 2071poe    c2311886   6.818   6.743   4.058 -0.3125 -0.5305 -0.1309
 2071poe    c2311887   6.944   6.661   4.091 -0.3700 -0.3627  0.5289
 2071poe     o211888   6.899   6.582   4.199 -0.1460  0.1598  1.0065
 2071poe    c2311889   6.994   6.479   4.216 -0.3158 -0.2153 -0.2393
 2071poe    c2311890   6.931   6.388   4.323  0.4072 -0.0506  0.3308
 2071poe     o211891   6.800   6.349   4.287  0.3680  0.0351  0.3771
 2071poe    c3111892   6.730   6.275   4.384  0.2523 -0.1404  0.1621
 2072poe    c3111893   5.671   2.978   0.162  0.0802  0.2688 -0.3195
 2072poe     o211894   5.590   2.916   0.063 -0.2702  1.0320 -0.5219
 2072poe    c2311895   5.452   2.943   0.073 -0.4310  0.1248 -0.1664
 2072poe    c2311896   5.369   2.837  -0.002 -0.4415 -0.0439  0.0852
 2072poe     o211897   5.360   2.723   0.082 -0.7701 -0.0548  0.0363
 2072poe    c2311898   5.245   2.652   0.043 -0.7187 -0.1477  0.0561
 2072poe    c2311899   5.229   2.521   0.123  0.0114  0.0829  0.5889
 2072poe     o211900   5.352   2.452   0.137  0.1849  0.2258 -0.2054
 2072poe    c2311901   5.336   2.338   0.218  0.0618 -0.1854 -0.8010
 2072poe    c2311902   5.479   2.295   0.257 -0.2121  0.2202  0.6861
 2072poe     o211903   5.548   2.413   0.292  0.0417  0.3951 -0.3866
 2072poe    c3111904   5.683   2.393   0.325  0.0161  0.7979 -0.0211
 2073poe    c3111905   1.721   6.664   4.275  0.8002 -0.9254  0.4911
 2073poe     o211906   1.715   6.706   4.409 -0.3816  0.1138  0.1429
 2073poe    c2311907   1.741   6.843   4.433 -0.1876  0.0266  0.4469
 2073poe    c2311908   1.758   6.855   4.585 -0.6070  0.1303  0.4878
 2073poe     o211909   1.861   6.769   4.630 -0.2925  0.1976 -0.0921
 2073poe    c2311910   1.900   6.801   4.762  0.1676  0.4509 -0.2888
 2073poe    c2311911   2.028   6.729   4.807 -0.1187  0.1655  0.0780
 2073poe     o211912   2.005   6.590   4.801 -0.3835  0.2129 -0.0246
 2073poe    c2311913   2.115   6.513   4.845 -0.2411  0.2028 -0.3986
 2073poe    c2311914   2.078   6.367   4.812  0.0811  0.0335 -0.0086
 2073poe     o211915   2.029   6.370   4.680  0.4478 -0.4362 -0.1595
 2073poe    c3111916   2.014   6.241   4.624 -0.3699 -0.3363 -0.1808
 2074poe    c3111917   5.297   6.232   5.640 -0.4477  0.4424  0.4184
 2074poe     o211918   5.323   6.255   5.776  0.1898 -0.0027  0.3802
 2074poe    c2311919   5.250   6.169   5.861 -0.5206  0.1683 -0.0509
 2074poe    c2311920   5.296   6.022   5.864  0.3280  0.4315 -0.1141
 2074poe     o211921   5.428   6.019   5.914 -0.1006 -0.3352  0.9941
 2074poe    c2311922   5.508   5.912   5.871  0.3065  0.1596  0.4980
 2074poe    c2311923   5.641   5.904   5.948  0.4162  0.3516  0.3278
 2074poe     o211924   5.700   6.030   5.924  0.4734  0.1785 -0.4485
 2074poe    c2311925   5.833   6.032   5.970  0.6003 -0.2819 -0.7884
 2074poe    c2311926   5.881   6.170   5.921 -0.5579  0.0819 -0.9357
 2074poe     o211927   5.794   6.269   5.969 -0.1229 -0.2593  0.6426
 2074poe    c3111928   5.838   6.397   5.927 -0.3154 -0.7081 -1.0192
 2075poe    c3111929   3.338   5.544   1.955 -0.2369  0.0038 -0.3031
 2075poe     o211930   3.232   5.557   2.046  0.1084 -0.4941  0.1749
 2075poe    c2311931   3.135   5.458   2.022 -0.3859  0.2094 -0.7720
 2075poe    c2311932   3.018   5.454   2.123  0.1438  0.5076 -0.1425
 2075poe     o211933   3.050   5.388   2.243  0.1055  0.1811 -0.3120
 2075poe    c2311934   2.950   5.396   2.342  0.3044  0.4822 -0.1352
 2075poe    c2311935   3.000   5.303   2.454 -0.2486  0.0100 -0.2751
 2075poe     o211936   2.993   5.166   2.420  0.6452 -0.0169 -0.3926
 2075poe    c2311937   3.054   5.083   2.515  0.0881 -0.2263 -0.2105
 2075poe    c2311938   3.000   4.942   2.482  0.9242 -0.7222  0.4858
 2075poe     o211939   3.041   4.888   2.358 -0.5770  0.4718 -0.5753
 2075poe    c3111940   2.971   4.766   2.347  0.8402 -0.5213  0.9528
 2076poe    c3111941   0.815   6.623   1.859 -0.5544 -0.3092  0.1680
 2076poe     o211942   0.791   6.747   1.923  0.1353 -0.1292  0.0773
 2076poe    c2311943   0.677   6.815   1.876 -0.0331 -0.1993  0.3826
 2076poe    c2311944   0.652   6.964   1.907  0.4593 -0.1188  0.4132
 2076poe     o211945   0.546   6.974   1.999 -0.2468 -0.1246 -0.3796
 2076poe    c2311946   0.535   7.105   2.051 -0.4379 -0.1881 -0.2562
 2076poe    c2311947   0.425   7.081   2.156  0.1857 -0.7151  0.2792
 2076poe     o211948   0.296   7.052   2.109  0.1434 -0.4676  0.2450
 2076poe    c2311949   0.236   7.007   2.228 -0.3692  0.0251  0.1793
 2076poe    c2311950   0.095   6.944   2.217 -0.1224 -0.5926  0.5141
 2076poe     o211951   0.000   7.029   2.156  0.2564 -0.6230 -0.1305
 2076poe    c3111952  -0.105   6.962   2.090 -0.1732  0.0638 -0.1508
 2077poe    c3111953   6.591   2.400   5.626  0.4503 -0.9334  0.3491
 2077poe     o211954   6.613   2.464   5.750 -0.0302 -0.3525  0.1398
 2077poe    c2311955   6.659   2.373   5.846  0.2486  0.2062  0.5393
 2077poe    c2311956   6.709   2.458   5.965 -0.0264  0.6517  0.3342
 2077poe     o211957   6.615   2.563   5.965 -0.6800  0.0771  0.2349
 2077poe    c2311958   6.619   2.630   6.090 -0.2886  0.3934  0.0542
 2077poe    c2311959   6.497   2.720   6.116 -0.2323  0.4223  0.2142
 2077poe     o211960   6.500   2.827   6.024 -0.0569 -0.0841 -0.3726
 2077poe    c2311961   6.399   2.925   6.027  0.0991  0.0664  0.1372
 2077poe    c2311962   6.255   2.885   5.989  0.0208  0.5607 -0.0844
 2077poe     o211963   6.246   2.845   5.854  0.3455 -0.0446  0.0683
 2077poe    c3111964   6.111   2.841   5.812  0.0888 -0.4967  0.9223
 2078poe    c3111965   2.721   2.111   1.791 -0.2079 -0.1121  0.0291
 2078poe     o211966   2.708   2.235   1.724  0.1102 -0.2097 -0.2158
 2078poe    c2311967   2.608   2.300   1.799  0.4378  0.0946 -0.0402
 2078poe    c2311968   2.502   2.373   1.715  0.0977  0.2576  0.5249
 2078poe     o211969   2.578   2.436   1.614  0.0421 -0.0249  0.3079
 2078poe    c2311970   2.487   2.503   1.531  0.5648 -0.0495 -0.2989
 2078poe    c2311971   2.567   2.608   1.452  0.1289  0.3235 -0.2505
 2078poe     o211972   2.675   2.548   1.385 -0.3097 -0.7824  0.0142
 2078poe    c2311973   2.756   2.641   1.317 -0.6111 -0.5548 -0.0314
 2078poe    c2311974   2.894   2.584   1.284 -0.2600  0.2531  0.0116
 2078poe     o211975   2.971   2.584   1.402  0.0951 -0.1424 -0.2150
 2078poe    c3111976   3.098   2.538   1.360  0.0965 -0.5033  0.1802
 2079poe    c3111977   0.097   0.111   4.750  0.4611 -0.5769  0.3321
 2079poe     o211978   0.050   0.028   4.854 -0.5335 -0.0599  0.3123
 2079poe    c2311979   0.022   0.114   4.962  0.1071  0.1993  0.2759
 2079poe    c2311980  -0.055   0.041   5.073 -0.1169  0.6019  0.3883
 2079poe     o211981  -0.164  -0.031   5.019  0.1512  0.4454  0.0518
 2079poe    c2311982  -0.253  -0.070   5.121  0.4858  0.4705  0.3595
 2079poe    c2311983  -0.341  -0.187   5.072  0.6214  0.4027  0.2790
 2079poe     o211984  -0.253  -0.295   5.045 -0.0077 -0.0732  0.1215
 2079poe    c2311985  -0.329  -0.409   5.010 -0.2112 -0.0623  0.5262
 2079poe    c2311986  -0.267  -0.463   4.880  0.0414  0.2859  0.4999
 2079poe     o211987  -0.126  -0.455   4.891  0.1546  0.2710 -0.8131
 2079poe    c3111988  -0.074  -0.582   4.923 -0.0723  0.5127  0.5946
 2080poe    c3111989   2.647   0.706   0.328  0.0839  0.1599  0.2963
 2080poe     o211990   2.674   0.753   0.198  0.2675 -0.4232  0.1204
 2080poe    c2311991   2.811   0.784   0.194  0.2742 -0.4436  0.1946
 2080poe    c2311992   2.886   0.821   0.064  0.3909 -0.6188  0.2105
 2080poe     o211993   2.861   0.727  -0.038  0.0850 -0.1023 -0.2000
 2080poe    c2311994   2.960   0.724  -0.138 -0.1422  0.4999 -0.4459
 2080poe    c2311995   2.951   0.577  -0.184 -0.3595  0.4733 -0.3210
 2080poe     o211996   2.825   0.550  -0.242 -0.3729 -0.1347 -0.0247
 2080poe    c2311997   2.807   0.412  -0.261 -0.0371 -0.2366  0.3878
 2080poe    c2311998   2.671   0.400  -0.332  0.4359  0.1470 -0.6018
 2080poe     o211999   2.580   0.495  -0.282 -0.0450 -0.0643 -1.0676
 2080poe    c3112000   2.449   0.444  -0.296 -0.1208 -0.1375 -0.1736
 2081poe    c3112001   6.079   2.073   3.239  0.2595  0.4622 -0.2169
 2081poe     o212002   6.122   1.967   3.322 -0.4030  0.1771 -0.2305
 2081poe    c2312003   6.219   2.008   3.416 -0.0830 -0.1113 -0.4321
 2081poe    c2312004   6.223   1.921   3.543 -0.0796 -0.7435 -0.8603
 2081poe     o212005   6.102   1.916   3.614  0.0583  0.4594 -0.5238
 2081poe    c2312006   6.107   1.808   3.705 -0.1922  0.2514 -0.7526
 2081poe    c2312007   6.001   1.699   3.684 -0.0648 -0.0208 -0.0271
 2081poe     o212008   6.029   1.608   3.580 -0.0902  0.4542 -0.4573
 2081poe    c2312009   5.915   1.526   3.564  0.0710  0.0407  0.4522
 2081poe    c2312010   5.921   1.402   3.474  0.2216  0.3393  0.0480
 2081poe     o212011   5.936   1.432   3.337 -0.0420  0.5419  0.0636
 2081poe    c3112012   6.009   1.340   3.259  0.3001  0.8070  0.0728
 2082poe    c3112013   4.942   3.019   0.784 -0.9523 -0.7028 -0.0161
 2082poe     o212014   4.928   3.035   0.924  0.1750  0.3634 -0.0064
 2082poe    c2312015   5.051   3.056   0.989  0.0442  0.3700  0.2376
 2082poe    c2312016   5.036   3.054   1.143  0.4415  0.1215  0.2743
 2082poe     o212017   4.981   2.938   1.200 -0.3632  0.4198  0.1169
 2082poe    c2312018   5.047   2.885   1.313  0.2534 -0.3239 -0.5749
 2082poe    c2312019   4.967   2.760   1.356  0.2726  0.0266  0.5295
 2082poe     o212020   4.831   2.794   1.348  0.2444 -0.2190 -0.1629
 2082poe    c2312021   4.746   2.703   1.414 -0.2038  0.1006 -0.2923
 2082poe    c2312022   4.606   2.767   1.413 -0.4722 -0.4782 -0.4251
 2082poe     o212023   4.598   2.857   1.304  0.0024 -0.3092 -0.3210
 2082poe    c3112024   4.465   2.901   1.299  0.0012 -0.3169 -0.3720
 2083poe    c3112025   0.779   1.551   5.265 -0.0515  0.2535 -0.0507
 2083poe     o212026   0.759   1.690   5.252  0.0231  0.2421 -0.2917
 2083poe    c2312027   0.863   1.763   5.313  0.3019  0.0354 -0.5157
 2083poe    c2312028   0.814   1.903   5.357  0.1930 -0.0744 -0.2829
 2083poe     o212029   0.692   1.891   5.426  0.3191 -0.4480 -0.1229
 2083poe    c2312030   0.633   2.003   5.489  0.4155 -0.6003  0.2409
 2083poe    c2312031   0.485   2.011   5.532  0.2079 -0.3788 -0.5143
 2083poe     o212032   0.405   1.982   5.420 -0.4396 -0.0498 -0.1408
 2083poe    c2312033   0.276   2.025   5.457 -0.5467 -0.0315 -0.5228
 2083poe    c2312034   0.197   1.946   5.351 -0.7816  0.1213 -0.4635
 2083poe     o212035   0.255   1.951   5.222  0.0642  0.1400 -0.0902
 2083poe    c3112036   0.173   1.873   5.137 -0.2784  0.2740  0.1146
 2084poe    c3112037   2.008   6.191   2.416  0.5133  0.0809 -0.1627
 2084poe     o212038   2.032   6.220   2.281  0.6291 -0.7760 -0.3289
 2084poe    c2312039   2.168   6.220   2.243  0.7927 -0.7739  0.2608
 2084poe    c2312040   2.199   6.281   2.106 -0.2860  0.1789  0.4291
 2084poe     o212041   2.109   6.249   2.002  0.1900  0.3364 -0.0351
 2084poe    c2312042   2.133   6.310   1.877  0.7028  0.2103 -0.0002
 2084poe    c2312043   2.005   6.332   1.794  0.6648  0.0124  0.0062
 2084poe     o212044   1.950   6.202   1.801  0.3619  0.1314 -0.1368
 2084poe    c2312045   1.870   6.192   1.686  0.1783  0.2491 -0.0204
 2084poe    c2312046   1.743   6.112   1.719  0.4093 -0.1001  0.0346
 2084poe     o212047   1.774   6.019   1.819 -0.7259  0.0031  0.5010
 2084poe    c3112048   1.661   5.950   1.867 -0.5730 -0.3150  0.4139
 2085poe    c3112049   3.618   2.237   4.745  0.4631  0.4826 -0.4100
 2085poe     o212050   3.559   2.232   4.616 -0.3787 -0.3452 -0.0066
 2085poe    c2312051   3.624   2.128   4.546 -0.1156 -0.3219  0.1987
 2085poe    c2312052   3.602   2.126   4.394  0.8951 -0.3178  0.0494
 2085poe     o212053   3.634   2.246   4.326  0.4308 -0.3442 -0.2201
 2085poe    c2312054   3.562   2.242   4.205 -0.2369 -0.0243  0.1593
 2085poe    c2312055   3.572   2.383   4.145  0.6244 -0.1285  0.0497
 2085poe     o212056   3.553   2.490   4.235  0.5555 -0.0384 -0.0702
 2085poe    c2312057   3.585   2.612   4.173  0.2210  0.0016 -0.1660
 2085poe    c2312058   3.612   2.728   4.271  0.2186  0.1627 -0.3548
 2085poe     o212059   3.743   2.716   4.323  0.0039 -0.0389  0.1491
 2085poe    c3112060   3.751   2.835   4.399  0.4117  0.0189  0.0160
 2086poe    c3112061   2.221   1.699   4.620 -0.0487 -0.5057 -0.3961
 2086poe     o212062   2.104   1.776   4.606  0.2296  0.0184  0.1204
 2086poe    c2312063   2.119   1.884   4.516  0.2789  0.1552  0.2931
 2086poe    c2312064   1.983   1.956   4.516  0.2033  0.0170 -0.4881
 2086poe     o212065   1.875   1.876   4.472  0.1368 -0.4286  0.4653
 2086poe    c2312066   1.753   1.946   4.482  0.2159 -0.2510  0.2028
 2086poe    c2312067   1.640   1.865   4.415  0.0753  0.1251 -0.0210
 2086poe     o212068   1.673   1.735   4.459 -0.0292  0.0000 -0.3112
 2086poe    c2312069   1.598   1.633   4.398 -0.1612  0.2350 -0.5441
 2086poe    c2312070   1.608   1.497   4.470  0.1650  0.2063 -0.6433
 2086poe     o212071   1.745   1.474   4.497  0.0873  0.2356 -0.2129
 2086poe    c3112072   1.765   1.357   4.573 -0.2097  0.3306  0.0133
 2087poe    c3112073   6.522   5.635   2.975  0.2823 -0.3077  0.2825
 2087poe     o212074   6.512   5.600   2.839  0.4990  0.5331  0.0436
 2087poe    c2312075   6.557   5.468   2.823  0.1299  0.3518  0.4782
 2087poe    c2312076   6.551   5.431   2.674 -0.1774 -0.4223  0.6787
 2087poe     o212077   6.434   5.400   2.601  0.3790  0.4178 -0.5947
 2087poe    c2312078   6.420   5.260   2.596 -0.8591  0.4790  0.7293
 2087poe    c2312079   6.275   5.229   2.554 -0.3153 -0.4898 -0.4733
 2087poe     o212080   6.239   5.307   2.442 -0.0717  0.0154 -0.2034
 2087poe    c2312081   6.107   5.276   2.403 -0.1637  0.1447  0.0040
 2087poe    c2312082   6.053   5.360   2.286  0.1195  0.2539 -0.0488
 2087poe     o212083   6.059   5.500   2.301 -0.0646  0.2381  0.1797
 2087poe    c3112084   6.101   5.562   2.181 -0.5141  0.2792  0.0444
 2088poe    c3112085   1.137   1.989   4.304 -0.1853 -0.1971 -0.1417
 2088poe     o212086   1.084   2.105   4.363 -0.5186 -0.2650 -0.3035
 2088poe    c2312087   0.999   2.161   4.266  0.0912  0.4585 -0.4299
 2088poe    c2312088   0.930   2.291   4.312  0.2176  0.4558 -0.2341
 2088poe     o212089   0.838   2.242   4.407  0.2315  0.4254 -0.2360
 2088poe    c2312090   0.778   2.362   4.448  0.2777  0.2432  0.3784
 2088poe    c2312091   0.696   2.343   4.577 -0.3222  0.5176  0.0468
 2088poe     o212092   0.789   2.304   4.676 -0.2443  0.1626 -0.1632
 2088poe    c2312093   0.754   2.336   4.809  0.5380  1.1529 -0.1811
 2088poe    c2312094   0.878   2.282   4.883 -0.0358 -0.3446 -0.2627
 2088poe     o212095   0.921   2.158   4.832 -0.1618 -0.6052  0.2574
 2088poe    c3112096   0.995   2.103   4.938  0.2431 -0.4618  0.0564
 2089poe    c3112097   2.343   5.333   4.770  0.3776 -0.1572 -0.3471
 2089poe     o212098   2.293   5.305   4.899 -0.0505  0.2886 -0.4144
 2089poe    c2312099   2.332   5.178   4.945 -0.3381  0.0908 -0.7104
 2089poe    c2312100   2.273   5.144   5.083 -0.1289  0.2895 -0.5703
 2089poe     o212101   2.337   5.203   5.193  0.0780 -0.8003 -0.0962
 2089poe    c2312102   2.282   5.181   5.321  0.1659 -0.2345  0.0398
 2089poe    c2312103   2.271   5.038   5.377  0.0550 -0.4062 -0.4206
 2089poe     o212104   2.389   4.961   5.382  0.3601  0.0385 -0.6941
 2089poe    c2312105   2.358   4.824   5.394  0.5814  0.0510  0.0424
 2089poe    c2312106   2.485   4.745   5.356  0.6699  0.4413 -0.4888
 2089poe     o212107   2.597   4.812   5.408  0.5477  0.2405  0.0472
 2089poe    c3112108   2.684   4.720   5.470  0.6985 -0.0201 -0.5451
 2090poe    c3112109   4.104   3.836   0.992 -0.5521  0.4413  0.3853
 2090poe     o212110   4.063   3.846   0.857  0.2207 -0.0760  0.1062
 2090poe    c2312111   3.938   3.794   0.819 -0.1041  0.1883  0.7870
 2090poe    c2312112   3.888   3.649   0.835  0.0850 -0.0624 -0.7051
 2090poe     o212113   3.829   3.619   0.960  0.2707 -0.2345 -0.6582
 2090poe    c2312114   3.776   3.490   0.978  0.0538 -0.2313 -1.2397
 2090poe    c2312115   3.878   3.394   1.042  0.4609  0.7696 -0.3394
 2090poe     o212116   3.926   3.427   1.170  0.2121 -0.1692  0.0090
 2090poe    c2312117   4.038   3.513   1.174 -0.3525  0.5616  0.4253
 2090poe    c2312118   4.068   3.578   1.310 -0.2725  0.8496  0.2707
 2090poe     o212119   3.964   3.664   1.350 -0.7240  0.1103  0.7036
 2090poe    c3112120   3.995   3.719   1.476 -0.0961  0.3137  0.4614
 2091poe    c3112121   5.386   6.032   3.474 -0.4827  0.4299  0.1589
 2091poe     o212122   5.293   5.967   3.558 -0.3826 -0.1717 -0.1885
 2091poe    c2312123   5.268   6.048   3.671  0.2420  0.6310 -0.6096
 2091poe    c2312124   5.182   5.980   3.779  0.6838  0.2565 -0.4922
 2091poe     o212125   5.247   5.858   3.808  0.0187 -0.0715 -0.3695
 2091poe    c2312126   5.149   5.786   3.879 -0.1322  0.3538 -0.1440
 2091poe    c2312127   5.197   5.645   3.917 -0.6596  0.1669 -0.1616
 2091poe     o212128   5.235   5.569   3.805 -0.4542  0.3502 -0.2152
 2091poe    c2312129   5.258   5.432   3.827 -0.3639  0.4215  0.1380
 2091poe    c2312130   5.294   5.365   3.693 -0.3555  0.3352  0.1833
 2091poe     o212131   5.345   5.445   3.589 -0.6861  0.2045 -0.0836
 2091poe    c3112132   5.367   5.368   3.473 -0.2944 -0.0498  0.1617
 2092poe    c3112133   2.425   3.521   5.264  0.0995  0.1767 -1.3847
 2092poe     o212134   2.538   3.601   5.291 -0.1518 -0.0876  0.5689
 2092poe    c2312135   2.562   3.719   5.217 -0.0197 -0.3302  0.2242
 2092poe    c2312136   2.713   3.714   5.189 -0.0349 -0.3684  0.1486
 2092poe     o212137   2.775   3.689   5.313  0.3638  0.7491  0.1896
 2092poe    c2312138   2.914   3.673   5.303  0.2866  0.0490  0.1695
 2092poe    c2312139   2.955   3.675   5.451 -0.1434  0.0930  0.2880
 2092poe     o212140   2.888   3.564   5.506 -0.1176 -0.0470  0.0380
 2092poe    c2312141   2.929   3.549   5.640  0.1361  0.5298  0.0284
 2092poe    c2312142   2.853   3.436   5.713  0.0708  0.5426 -0.0208
 2092poe     o212143   2.723   3.477   5.749  0.0965  0.2398  0.4152
 2092poe    c3112144   2.666   3.388   5.842 -0.2897  0.0646  0.0104
 2093poe    c3112145   2.560   0.236   1.695 -0.3778  0.1114  0.3473
 2093poe     o212146   2.608   0.219   1.564 -0.7236  0.0609  0.2280
 2093poe    c2312147   2.571   0.100   1.497  0.0431  0.3363 -0.7033
 2093poe    c2312148   2.648   0.069   1.367  0.5329  0.1007 -0.3629
 2093poe     o212149   2.614   0.173   1.277  0.1326 -0.1008 -0.4476
 2093poe    c2312150   2.709   0.173   1.173 -0.4205 -0.4313 -0.9589
 2093poe    c2312151   2.743   0.315   1.123  0.1771 -0.2683 -0.1078
 2093poe     o212152   2.801   0.402   1.218 -0.2121  0.1877 -0.2868
 2093poe    c2312153   2.802   0.535   1.172  0.4059  0.1109 -0.5044
 2093poe    c2312154   2.921   0.605   1.240  0.0224  0.4047 -0.1296
 2093poe     o212155   2.923   0.565   1.376 -1.1695  0.5716 -0.0504
 2093poe    c3112156   2.957   0.690   1.433  0.3855 -0.0086  0.3504
 2094poe    c3112157   3.358   1.152   1.592  0.3869 -1.0504 -0.0521
 2094poe     o212158   3.346   1.098   1.463 -0.4831 -0.1351 -0.3734
 2094poe    c2312159   3.232   1.015   1.455 -0.6204 -0.0166  0.3086
 2094poe    c2312160   3.237   0.946   1.318  0.5090  0.5359  0.0539
 2094poe     o212161   3.349   0.862   1.302 -0.3556 -0.6076 -0.1608
 2094poe    c2312162   3.348   0.785   1.184 -0.2586 -0.0634 -0.5192
 2094poe    c2312163   3.462   0.681   1.183 -0.1044  0.0825  0.8529
 2094poe     o212164   3.582   0.754   1.185 -0.1489  0.1769  0.2172
 2094poe    c2312165   3.697   0.672   1.185 -0.2229  0.0736  0.0626
 2094poe    c2312166   3.828   0.752   1.194 -0.2883  0.2933 -0.8608
 2094poe     o212167   3.822   0.820   1.317  0.0511 -1.2971  0.0701
 2094poe    c3112168   3.945   0.802   1.383  0.0044 -0.4409  0.4023
 2095poe    c3112169   4.188   2.044   0.615 -0.0621 -0.0108  0.4983
 2095poe     o212170   4.054   2.002   0.617 -0.4356  1.1130 -0.2211
 2095poe    c2312171   4.043   1.928   0.497  0.1818 -0.3466  0.5968
 2095poe    c2312172   3.937   2.009   0.420  0.1962 -0.5106  0.4072
 2095poe     o212173   3.820   1.998   0.497  0.1935 -0.9469  0.3467
 2095poe    c2312174   3.720   1.952   0.409  0.0834 -0.2527  0.1001
 2095poe    c2312175   3.580   1.946   0.474 -0.0785  0.1835 -0.2029
 2095poe     o212176   3.591   1.862   0.587 -0.1522  0.1021 -0.2565
 2095poe    c2312177   3.465   1.809   0.623  0.0594 -0.0403  0.2728
 2095poe    c2312178   3.435   1.752   0.763 -0.3794 -0.1504  0.1343
 2095poe     o212179   3.455   1.845   0.868 -0.1129 -0.3426  0.2543
 2095poe    c3112180   3.362   1.830   0.972 -0.0474  0.0897  0.3782
 2096poe    c3112181   5.868   6.494   3.580  0.4033  0.6073 -0.0017
 2096poe     o212182   5.786   6.449   3.685 -0.0236  0.6618 -0.3076
 2096poe    c2312183   5.697   6.347   3.646  0.1689  0.4472 -0.1920
 2096poe    c2312184   5.616   6.296   3.766  0.0273 -0.0166 -0.4812
 2096poe     o212185   5.723   6.268   3.853 -0.1759 -0.6782 -0.4411
 2096poe    c2312186   5.686   6.204   3.973  0.1057 -0.1038 -0.0427
 2096poe    c2312187   5.813   6.205   4.059 -0.3212 -0.2067  0.5951
 2096poe     o212188   5.847   6.342   4.071  0.1261 -0.2592 -0.0077
 2096poe    c2312189   5.915   6.369   4.192  0.0909  0.3784 -0.1282
 2096poe    c2312190   5.920   6.518   4.230  0.0339  0.3609 -0.0509
 2096poe     o212191   5.988   6.585   4.125  0.1190  0.0666 -0.1858
 2096poe    c3112192   5.973   6.725   4.131  0.5543  0.0906  0.4653
 2097poe    c3112193   1.253   2.956   6.537 -0.1055 -0.1053  0.1339
 2097poe     o212194   1.195   2.867   6.630  0.2113 -0.2643  0.1809
 2097poe    c2312195   1.290   2.845   6.732 -0.1355  0.6768  0.7236
 2097poe    c2312196   1.222   2.777   6.853 -0.2753 -0.1703  0.1775
 2097poe     o212197   1.136   2.859   6.929 -0.1109  0.1565  0.0148
 2097poe    c2312198   1.084   2.793   7.042 -0.0227  0.0590 -0.0020
 2097poe    c2312199   1.038   2.889   7.153 -0.2273  0.1384 -0.1575
 2097poe     o212200   0.926   2.964   7.108  0.0353  0.6175 -0.0221
 2097poe    c2312201   0.846   3.016   7.211 -0.2595  0.8140 -0.3461
 2097poe    c2312202   0.699   3.030   7.170 -0.3403 -0.2317 -0.4444
 2097poe     o212203   0.601   3.068   7.264 -0.0145 -0.7832  0.1228
 2097poe    c3112204   0.573   3.201   7.228 -1.1838 -0.8852  0.6221
 2098poe    c3112205   6.066   4.675   4.707  0.1849 -0.0104  0.4151
 2098poe     o212206   6.191   4.664   4.641  0.0041  0.0204  0.0670
 2098poe    c2312207   6.172   4.666   4.501  0.0672  0.3498  0.0612
 2098poe    c2312208   6.310   4.697   4.439  0.1066 -0.2936 -0.1844
 2098poe     o212209   6.347   4.829   4.472  0.1080 -0.1962 -0.5726
 2098poe    c2312210   6.462   4.869   4.402  0.0568  0.0293 -0.5270
 2098poe    c2312211   6.499   5.010   4.453  0.3694 -0.2484  0.0217
 2098poe     o212212   6.516   5.008   4.593 -0.0909 -0.1043  0.0811
 2098poe    c2312213   6.559   5.136   4.632  0.3756 -0.2869  0.1659
 2098poe    c2312214   6.573   5.125   4.785  0.5173 -0.7418  0.1208
 2098poe     o212215   6.452   5.078   4.838  0.2518 -0.2400 -0.0336
 2098poe    c3112216   6.441   5.059   4.978 -0.2048  0.0209 -0.0316
 2099poe    c3112217   5.057   3.119   5.549  0.0792  0.0282  0.5831
 2099poe     o212218   5.078   3.254   5.586  0.9759  0.2154 -0.5537
 2099poe    c2312219   5.016   3.334   5.488  0.2286 -0.2319 -0.4562
 2099poe    c2312220   5.042   3.484   5.516 -0.0773 -0.2546 -0.0370
 2099poe     o212221   5.179   3.518   5.523 -0.0511 -0.2601 -0.4760
 2099poe    c2312222   5.199   3.638   5.452  0.2501 -0.2482 -0.3694
 2099poe    c2312223   5.342   3.696   5.442  0.2030 -0.1104 -0.2541
 2099poe     o212224   5.425   3.622   5.355 -0.1121 -0.0519 -0.6073
 2099poe    c2312225   5.553   3.619   5.412 -0.4375 -0.5272  0.1071
 2099poe    c2312226   5.671   3.557   5.335  0.1268 -0.0481  0.5781
 2099poe     o212227   5.701   3.624   5.214 -0.2982 -0.2074  0.3830
 2099poe    c3112228   5.821   3.580   5.155 -0.5252 -0.7264  0.3078
 2100poe    c3112229   2.110   0.632   5.226  0.1443 -0.1759 -0.4997
 2100poe     o212230   2.037   0.700   5.326 -0.0166  0.0830 -0.7891
 2100poe    c2312231   1.908   0.643   5.335  0.0782 -0.0962 -0.5594
 2100poe    c2312232   1.877   0.665   5.484  0.0853  0.3969 -0.6319
 2100poe     o212233   1.903   0.800   5.519  0.2403  0.1494  0.2302
 2100poe    c2312234   1.873   0.828   5.654 -0.0120 -0.2137  0.2535
 2100poe    c2312235   1.889   0.978   5.685  0.6056 -0.4503  1.1109
 2100poe     o212236   2.019   1.022   5.652 -0.1381  0.5563 -0.5939
 2100poe    c2312237   2.039   1.160   5.632 -0.1543  0.6246 -0.1541
 2100poe    c2312238   2.179   1.205   5.584 -0.0228  0.3349 -0.0402
 2100poe     o212239   2.201   1.150   5.456 -0.2880  0.1910 -0.0244
 2100poe    c3112240   2.312   1.217   5.401  0.0367 -0.1077  0.2603
 2101poe    c3112241   1.581   1.645   1.225  0.1441  0.0712  0.2017
 2101poe     o212242   1.703   1.715   1.208 -0.3126  0.8582  0.0970
 2101poe    c2312243   1.777   1.663   1.317 -0.5619 -0.3644 -0.2922
 2101poe    c2312244   1.927   1.696   1.315 -0.3242 -1.4199 -0.4285
 2101poe     o212245   1.996   1.705   1.192  0.9573 -0.4394  0.3283
 2101poe    c2312246   2.116   1.778   1.204  0.4557  0.5131 -0.2641
 2101poe    c2312247   2.180   1.810   1.068 -0.0587 -0.1583 -0.6759
 2101poe     o212248   2.097   1.881   0.979 -0.4077  0.1585 -0.1084
 2101poe    c2312249   2.175   1.909   0.865  0.1431 -0.0899  0.2052
 2101poe    c2312250   2.087   1.962   0.751  0.7408  0.4635 -0.0064
 2101poe     o212251   2.020   2.081   0.784 -0.4966 -0.2353  0.0930
 2101poe    c3112252   1.984   2.142   0.662  0.1033 -0.1055 -0.0257
 2102poe    c3112253   3.345   0.469   0.116 -0.2542 -0.8318 -0.2587
 2102poe     o212254   3.266   0.376   0.188 -0.2321 -0.4616  0.2518
 2102poe    c2312255   3.204   0.283   0.103  0.0989 -0.3155 -0.1533
 2102poe    c2312256   3.083   0.221   0.176 -0.4015  0.5403 -0.2390
 2102poe     o212257   3.143   0.168   0.292 -0.8164  0.7282  0.0613
 2102poe    c2312258   3.077   0.048   0.325  0.4370  0.0937  0.3279
 2102poe    c2312259   3.121  -0.013   0.460  0.7450  0.1472  0.2526
 2102poe     o212260   3.240  -0.087   0.456  0.3056 -0.5511 -0.0258
 2102poe    c2312261   3.229  -0.212   0.390 -1.1464 -0.4285 -0.0492
 2102poe    c2312262   3.350  -0.298   0.432 -0.8600  0.1686  0.3734
 2102poe     o212263   3.300  -0.364   0.546 -0.0155  0.0086  0.6541
 2102poe    c3112264   3.374  -0.482   0.572  0.5937  0.1441 -0.3834
 2103poe    c3112265   4.917   1.395   0.577 -0.1955 -0.0337  0.1231
 2103poe     o212266   4.885   1.400   0.440 -0.0759 -0.1655  0.0895
 2103poe    c2312267   4.870   1.531   0.388 -0.8114 -0.3504 -0.1784
 2103poe    c2312268   4.808   1.542   0.248  0.1391 -0.5482 -0.6271
 2103poe     o212269   4.669   1.513   0.243  0.1175 -0.4819 -0.3965
 2103poe    c2312270   4.609   1.607   0.157 -0.2914  0.0040  0.4092
 2103poe    c2312271   4.458   1.583   0.136 -0.1556  0.0462 -0.6905
 2103poe     o212272   4.425   1.499   0.028 -0.3654 -0.2630 -0.3894
 2103poe    c2312273   4.299   1.539  -0.022 -0.0859  0.7512 -0.2972
 2103poe    c2312274   4.251   1.473  -0.152 -0.0101 -0.0254  0.0668
 2103poe     o212275   4.312   1.509  -0.274 -0.2898  1.0928  0.2512
 2103poe    c3112276   4.241   1.473  -0.390  0.7128  0.4046 -0.1568
 2104poe    c3112277   6.885   2.159   2.609 -0.6608 -0.5567 -0.6104
 2104poe     o212278   6.770   2.232   2.647  0.0789  0.3066  0.0254
 2104poe    c2312279   6.672   2.198   2.551 -0.0984 -0.1190  0.3565
 2104poe    c2312280   6.541   2.275   2.579 -0.2597 -0.1539 -0.2821
 2104poe     o212281   6.469   2.232   2.692  0.2148  0.0431  0.1010
 2104poe    c2312282   6.405   2.109   2.667 -0.6443  0.4666  0.1756
 2104poe    c2312283   6.307   2.084   2.783 -0.1775 -0.3110  0.4080
 2104poe     o212284   6.393   2.098   2.894 -0.5835 -0.1874  0.7079
 2104poe    c2312285   6.353   2.037   3.015 -0.4661 -0.0654  0.8093
 2104poe    c2312286   6.451   2.100   3.116  0.4235  0.1067 -0.1447
 2104poe     o212287   6.450   2.239   3.097  0.0426  0.0983 -0.1903
 2104poe    c3112288   6.471   2.294   3.225  0.1537  0.3514 -0.3161
 2105poe    c3112289   0.231   2.244   7.085 -0.0457  0.5285 -0.5692
 2105poe     o212290   0.196   2.368   7.142 -0.5536  0.1453 -0.0441
 2105poe    c2312291   0.261   2.397   7.264 -1.1355  0.1458  0.2701
 2105poe    c2312292   0.207   2.526   7.328 -0.4955  0.6249 -0.1382
 2105poe     o212293   0.091   2.511   7.408 -0.3811 -0.4329 -0.1622
 2105poe    c2312294   0.128   2.486   7.542  0.1574  0.0220 -0.2207
 2105poe    c2312295   0.009   2.442   7.629 -0.3010  0.3113 -0.6924
 2105poe     o212296  -0.086   2.364   7.560 -0.4603  0.2648 -0.4196
 2105poe    c2312297  -0.199   2.339   7.641  0.1367  0.2153  0.4150
 2105poe    c2312298  -0.293   2.253   7.554  0.7236 -0.0254  0.0084
 2105poe     o212299  -0.294   2.313   7.427 -0.1591  0.0095  0.0222
 2105poe    c3112300  -0.386   2.239   7.349 -0.1939 -0.1573  0.2224
 2106poe    c3112301   2.904   6.828   6.047 -0.0570 -1.0066 -0.0957
 2106poe     o212302   3.030   6.796   6.102  0.2192 -0.2074 -0.2436
 2106poe    c2312303   3.117   6.907   6.109  0.4120 -0.3468 -0.4019
 2106poe    c2312304   3.208   6.905   6.233 -0.2798 -0.3076  0.1166
 2106poe     o212305   3.166   6.933   6.365 -0.0780 -0.1892  0.1567
 2106poe    c2312306   3.131   7.069   6.377  0.0908 -0.0789 -0.5224
 2106poe    c2312307   3.241   7.171   6.409 -0.2157  0.2126 -0.3944
 2106poe     o212308   3.311   7.203   6.291 -0.4433 -0.0252 -0.5951
 2106poe    c2312309   3.411   7.302   6.304 -0.1635 -0.4486  0.5325
 2106poe    c2312310   3.537   7.283   6.392  0.2896 -0.1785 -0.0545
 2106poe     o212311   3.624   7.183   6.345  0.0183 -0.2919 -0.3254
 2106poe    c3112312   3.725   7.167   6.442 -0.2335 -0.0494 -0.0220
 2107poe    c3112313   6.009   3.818   2.228 -0.2747 -0.2402 -0.0097
 2107poe     o212314   6.082   3.713   2.171  0.6559 -0.0073  0.7303
 2107poe    c2312315   6.210   3.762   2.136  0.4061  0.3451  0.2952
 2107poe    c2312316   6.315   3.652   2.114 -0.1167 -0.1396  0.1997
 2107poe     o212317   6.339   3.561   2.219  0.4845  0.2568  0.4115
 2107poe    c2312318   6.407   3.443   2.185 -0.7153 -0.2697 -0.2386
 2107poe    c2312319   6.401   3.341   2.300 -0.8034 -0.0955 -0.0883
 2107poe     o212320   6.417   3.410   2.422 -0.0949  0.1629 -0.3270
 2107poe    c2312321   6.415   3.330   2.538  0.0436  0.4565 -0.1199
 2107poe    c2312322   6.472   3.420   2.649 -0.1530  0.2081  0.1826
 2107poe     o212323   6.423   3.551   2.630 -0.7449 -0.0651 -0.2095
 2107poe    c3112324   6.433   3.643   2.737 -0.6434  0.0646 -0.3307
 2108poe    c3112325   2.192   0.379   1.965 -0.2288  0.3563  0.2343
 2108poe     o212326   2.066   0.437   1.938 -0.2625  0.0541 -0.2796
 2108poe    c2312327   2.078   0.506   1.816  0.7075  0.2342 -0.0950
 2108poe    c2312328   1.943   0.578   1.799  0.3926 -0.1829  0.6131
 2108poe     o212329   1.846   0.494   1.857 -0.0251  0.1716  0.4347
 2108poe    c2312330   1.726   0.569   1.852  0.0322  0.2526  0.2296
 2108poe    c2312331   1.619   0.506   1.944  0.1869 -0.4671 -0.0792
 2108poe     o212332   1.672   0.470   2.070 -0.2085  0.6820  0.4191
 2108poe    c2312333   1.573   0.459   2.170 -0.3868 -0.0001  0.1690
 2108poe    c2312334   1.647   0.406   2.295  0.5200 -0.0647 -0.3803
 2108poe     o212335   1.759   0.478   2.341  0.4803 -0.3744  0.2045
 2108poe    c3112336   1.805   0.424   2.463 -0.1092 -0.5940  0.3332
 2109poe    c3112337   5.444   6.597   1.751 -0.1496  0.1810  0.0882
 2109poe     o212338   5.309   6.598   1.789  0.0074  0.1550  0.6631
 2109poe    c2312339   5.285   6.503   1.890  0.2195 -1.4946 -0.7848
 2109poe    c2312340   5.136   6.467   1.904 -0.2905  0.8346  0.2488
 2109poe     o212341   5.076   6.403   1.794 -0.0378 -0.3651  0.7983
 2109poe    c2312342   4.935   6.404   1.796 -0.0551  0.0791 -0.1376
 2109poe    c2312343   4.875   6.357   1.663 -0.2481 -0.1673  0.0347
 2109poe     o212344   4.926   6.228   1.642  0.0706  0.0165 -0.3336
 2109poe    c2312345   4.891   6.178   1.514 -0.0126 -0.4593 -0.1263
 2109poe    c2312346   4.955   6.038   1.515 -0.1896 -0.5407 -0.1951
 2109poe     o212347   5.095   6.037   1.533 -0.2486 -0.3375  0.2846
 2109poe    c3112348   5.133   5.904   1.505  0.0808 -0.3275  0.6799
 2110poe    c3112349   4.553   0.367   2.585 -0.0023 -0.4096  0.5288
 2110poe     o212350   4.521   0.483   2.511  0.5607 -0.0790  0.7973
 2110poe    c2312351   4.420   0.563   2.569 -0.4251 -0.4823 -0.3225
 2110poe    c2312352   4.358   0.674   2.482 -0.1032  0.1833  0.2837
 2110poe     o212353   4.328   0.630   2.351 -0.2162  0.1454  0.3218
 2110poe    c2312354   4.219   0.541   2.348 -0.0701 -0.0160 -0.2357
 2110poe    c2312355   4.172   0.518   2.203 -0.1505  1.0271 -0.3834
 2110poe     o212356   4.284   0.519   2.118  0.4920  0.2995  0.4407
 2110poe    c2312357   4.268   0.538   1.980  0.1816  0.5163  0.5073
 2110poe    c2312358   4.404   0.531   1.909 -0.1167 -0.0268 -0.0206
 2110poe     o212359   4.498   0.601   1.988 -0.0735 -0.1927  0.0761
 2110poe    c3112360   4.616   0.637   1.919 -0.1641  0.1860  0.1213
 2111poe    c3112361   2.686   4.056   3.582 -0.5145  0.5706  0.5407
 2111poe     o212362   2.624   4.138   3.486 -0.4347  0.3841  0.3302
 2111poe    c2312363   2.642   4.276   3.509 -0.2707  0.3015  0.7091
 2111poe    c2312364   2.568   4.343   3.391  0.0991 -0.6224 -0.0650
 2111poe     o212365   2.428   4.329   3.402  0.0297  0.0327 -0.0463
 2111poe    c2312366   2.358   4.363   3.285 -0.1251  0.5449  0.1934
 2111poe    c2312367   2.212   4.386   3.328 -0.3122 -0.0071 -0.1415
 2111poe     o212368   2.147   4.273   3.382  0.6428 -0.5377 -0.0671
 2111poe    c2312369   2.019   4.322   3.418  0.9787 -0.1888  0.6835
 2111poe    c2312370   1.931   4.217   3.488 -0.4107  0.5415  0.0581
 2111poe     o212371   2.010   4.133   3.568 -0.2346  0.5728 -0.0838
 2111poe    c3112372   1.929   4.034   3.627  0.5936 -0.0283  0.0630
 2112poe    c3112373   4.611   4.375   1.060 -0.2749 -0.3386 -0.0465
 2112poe     o212374   4.743   4.409   1.098 -0.4530 -0.0668  0.3315
 2112poe    c2312375   4.799   4.281   1.116 -0.0928 -0.0168 -0.4058
 2112poe    c2312376   4.939   4.305   1.176  0.0021 -0.1051 -0.5924
 2112poe     o212377   4.929   4.436   1.228 -0.1854 -0.3562  0.0148
 2112poe    c2312378   5.049   4.477   1.289 -0.1363 -0.3071 -0.1130
 2112poe    c2312379   5.018   4.611   1.360 -0.0573 -0.1721 -0.3339
 2112poe     o212380   4.961   4.703   1.270 -0.1248  0.0093 -0.1050
 2112poe    c2312381   4.940   4.830   1.328 -0.4587 -0.1246  0.0704
 2112poe    c2312382   4.948   4.924   1.207  0.2591 -0.4334 -0.1287
 2112poe     o212383   4.846   4.906   1.111  0.0887 -0.1970  0.0051
 2112poe    c3112384   4.831   5.006   1.013 -0.2068 -0.4794 -0.2367
 2113poe    c3112385   1.564   0.870   2.412 -0.0714 -0.4559 -0.2448
 2113poe     o212386   1.439   0.822   2.458 -0.0191 -0.2405  0.1232
 2113poe    c2312387   1.362   0.750   2.365  0.2102 -0.4067  0.0621
 2113poe    c2312388   1.218   0.741   2.418  0.0487 -0.9203 -0.4507
 2113poe     o212389   1.233   0.701   2.552  0.2966 -0.1713 -0.2483
 2113poe    c2312390   1.104   0.668   2.596  0.4263  0.5429  0.6894
 2113poe    c2312391   1.131   0.590   2.726 -0.3603 -0.2893  0.3649
 2113poe     o212392   1.184   0.672   2.828  0.3629  0.2389 -0.4209
 2113poe    c2312393   1.086   0.744   2.900 -0.2248 -0.2288 -0.7400
 2113poe    c2312394   1.153   0.831   3.008 -0.7664 -0.5397 -0.1512
 2113poe     o212395   1.202   0.956   2.965 -0.2069 -0.4621  0.6871
 2113poe    c3112396   1.199   1.057   3.063 -0.8286 -0.4691  0.6764
 2114poe    c3112397   1.749   5.099   4.480 -0.6146  0.1756 -0.9623
 2114poe     o212398   1.731   5.239   4.480  0.2917  0.3069  0.0896
 2114poe    c2312399   1.699   5.279   4.348 -0.1376  0.2666  0.1810
 2114poe    c2312400   1.692   5.433   4.351  0.1718  0.2736  0.7820
 2114poe     o212401   1.594   5.468   4.446 -0.2209 -0.4674  0.6602
 2114poe    c2312402   1.594   5.609   4.457 -0.2442 -0.4401  0.3094
 2114poe    c2312403   1.476   5.657   4.543  0.1197  0.0111  0.5582
 2114poe     o212404   1.480   5.580   4.661  0.1790  0.1200  0.6280
 2114poe    c2312405   1.381   5.625   4.750 -0.4520 -0.0687  0.0305
 2114poe    c2312406   1.361   5.531   4.871 -0.6359 -0.6077 -0.4147
 2114poe     o212407   1.481   5.470   4.911 -0.2404 -0.0246 -0.7014
 2114poe    c3112408   1.480   5.370   5.011 -0.2370  0.6161 -0.0544
 2115poe    c3112409   4.635   0.272   1.910  0.1408  0.1891 -0.2951
 2115poe     o212410   4.633   0.156   1.830  0.2246  0.0754 -0.1332
 2115poe    c2312411   4.497   0.123   1.813  0.3535 -0.3896 -0.2623
 2115poe    c2312412   4.489   0.013   1.705  0.2835 -0.7819  0.1398
 2115poe     o212413   4.606  -0.063   1.722  0.8489  0.0576  0.0254
 2115poe    c2312414   4.610  -0.161   1.621 -0.2723 -0.3288  0.3485
 2115poe    c2312415   4.703  -0.275   1.665  0.0174 -0.3604 -0.3343
 2115poe     o212416   4.834  -0.223   1.680 -0.0230 -0.3822  0.0926
 2115poe    c2312417   4.931  -0.319   1.715  0.3957 -0.1205 -0.3555
 2115poe    c2312418   5.076  -0.271   1.737  0.3043  0.1617 -0.3611
 2115poe     o212419   5.103  -0.222   1.866  0.0664 -0.2265 -0.1649
 2115poe    c3112420   5.241  -0.196   1.875  0.0934 -0.2964 -0.3818
 2116poe    c3112421   0.274   6.537   3.388  0.1025  0.0408 -0.1660
 2116poe     o212422   0.235   6.631   3.290 -0.6227 -0.5320 -0.4329
 2116poe    c2312423   0.256   6.575   3.162 -0.3181 -0.3997 -0.4410
 2116poe    c2312424   0.201   6.657   3.045  0.1180  0.1356 -0.2742
 2116poe     o212425   0.060   6.660   3.054  0.0961 -0.4065 -0.4264
 2116poe    c2312426  -0.002   6.638   2.930  0.0024  0.5734 -0.5581
 2116poe    c2312427  -0.151   6.672   2.950 -0.1066 -0.3211  0.1845
 2116poe     o212428  -0.215   6.566   3.019 -0.0487 -0.5619 -0.1271
 2116poe    c2312429  -0.349   6.587   3.058  0.2649  0.0158  0.6646
 2116poe    c2312430  -0.399   6.469   3.144 -0.0875 -0.3564 -0.0483
 2116poe     o212431  -0.298   6.432   3.234 -0.0059  0.0724  0.0377
 2116poe    c3112432  -0.341   6.325   3.315 -0.1315 -0.1150 -0.2766
 2117poe    c3112433   0.653   5.923   4.609 -0.4573 -0.5618  0.6003
 2117poe     o212434   0.757   6.016   4.584 -0.2801 -0.7030  0.8069
 2117poe    c2312435   0.883   5.972   4.628  0.0307 -0.4853  0.1357
 2117poe    c2312436   0.977   6.089   4.592 -0.4833  0.0467  0.4888
 2117poe     o212437   0.961   6.122   4.455  0.0082  0.4321  0.5197
 2117poe    c2312438   1.062   6.213   4.420  0.1676  0.2597  0.5308
 2117poe    c2312439   1.054   6.247   4.270 -0.0265  0.2525  0.5391
 2117poe     o212440   0.928   6.297   4.231  0.0008 -0.3513 -0.3548
 2117poe    c2312441   0.915   6.307   4.091 -0.5020 -0.1583 -0.2955
 2117poe    c2312442   0.809   6.407   4.042 -0.3925  0.2320  0.2533
 2117poe     o212443   0.674   6.368   4.030 -0.3565  0.2135 -0.1222
 2117poe    c3112444   0.652   6.247   3.961 -0.1004 -0.1148  0.3666
 2118poe    c3112445   0.616   0.794   2.553  0.1971 -0.3556  0.2506
 2118poe     o212446   0.602   0.785   2.693 -0.0517 -0.3066  0.2292
 2118poe    c2312447   0.463   0.770   2.715 -0.1802  0.4868 -0.0183
 2118poe    c2312448   0.444   0.731   2.863  0.3986  0.0319 -0.0604
 2118poe     o212449   0.476   0.602   2.912  0.3148  0.0007 -0.0888
 2118poe    c2312450   0.408   0.496   2.849 -0.1401  0.0248  0.3518
 2118poe    c2312451   0.459   0.355   2.887  0.1380  0.0473  0.0711
 2118poe     o212452   0.600   0.354   2.876  0.1717 -0.0595  0.4915
 2118poe    c2312453   0.667   0.232   2.898  0.2003 -0.0160  0.6459
 2118poe    c2312454   0.814   0.270   2.872  0.1991 -0.5152 -0.1080
 2118poe     o212455   0.854   0.372   2.960 -0.1571 -0.2972 -0.1971
 2118poe    c3112456   0.991   0.364   2.991 -0.3711  0.3435  0.9624
 2119poe    c3112457   1.549   6.639   5.781 -0.5012  0.3796 -0.1909
 2119poe     o212458   1.594   6.627   5.647  0.4641 -0.4043  0.1882
 2119poe    c2312459   1.518   6.726   5.582  0.9913 -0.1605 -0.0603
 2119poe    c2312460   1.538   6.747   5.431 -0.8544  0.4446 -0.2415
 2119poe     o212461   1.678   6.753   5.422 -0.8012 -0.2134  0.0870
 2119poe    c2312462   1.726   6.772   5.290  0.1606 -0.8696  0.3334
 2119poe    c2312463   1.875   6.739   5.268  0.3024  0.1980 -0.3499
 2119poe     o212464   1.952   6.788   5.375 -0.4675  0.1295  0.2471
 2119poe    c2312465   2.087   6.770   5.336 -0.4617 -1.1711  0.7975
 2119poe    c2312466   2.172   6.828   5.450  0.3829  0.1565 -0.4619
 2119poe     o212467   2.138   6.782   5.579  0.4234  0.1444 -0.4554
 2119poe    c3112468   2.234   6.820   5.675  0.4906 -0.2875 -0.3496
 2120poe    c3112469   0.617   1.466   2.721 -0.2651  0.0429  0.4927
 2120poe     o212470   0.608   1.377   2.830 -0.7216 -0.5479 -0.0180
 2120poe    c2312471   0.481   1.316   2.841 -0.8732 -0.3598 -0.7028
 2120poe    c2312472   0.486   1.193   2.932 -0.3898  0.2903  0.1673
 2120poe     o212473   0.558   1.236   3.045  0.3395  0.2583 -0.2783
 2120poe    c2312474   0.585   1.119   3.119  0.0688 -0.0129 -0.6082
 2120poe    c2312475   0.681   1.151   3.235 -0.0813 -0.1520 -0.4446
 2120poe     o212476   0.773   1.240   3.175  0.0333  0.1764  0.2166
 2120poe    c2312477   0.873   1.283   3.264  0.1599 -0.1365  0.2269
 2120poe    c2312478   0.990   1.363   3.203 -0.0350  0.0223  0.0584
 2120poe     o212479   0.956   1.495   3.168 -0.5377 -0.0726  0.1944
 2120poe    c3112480   1.075   1.569   3.174 -0.4269 -0.1835 -0.6536
 2121poe    c3112481   6.506   2.727   5.459  0.2603 -0.5213  0.1464
 2121poe     o212482   6.616   2.809   5.493 -0.3305  0.1844  0.3946
 2121poe    c2312483   6.687   2.843   5.376  0.0664 -0.3772  0.4664
 2121poe    c2312484   6.837   2.825   5.408  0.1684 -0.5109 -0.0766
 2121poe     o212485   6.888   2.936   5.479  0.0955 -0.8485  0.5173
 2121poe    c2312486   7.029   2.921   5.481  0.2584  0.3732 -0.4665
 2121poe    c2312487   7.112   3.048   5.510  0.4389  0.1286  0.1047
 2121poe     o212488   7.090   3.098   5.640  0.1783  0.3813 -0.0367
 2121poe    c2312489   7.166   3.213   5.673  0.1629  0.4372 -0.1921
 2121poe    c2312490   7.102   3.290   5.790  0.0260  0.1459 -0.0745
 2121poe     o212491   7.070   3.198   5.893 -0.0924 -0.3442 -0.5410
 2121poe    c3112492   7.057   3.272   6.012 -0.2212 -0.9733 -0.1600
 2122poe    c3112493   6.255   5.166   0.362 -0.1663 -0.5468  0.7345
 2122poe     o212494   6.387   5.162   0.312 -0.2444  0.1669  0.4534
 2122poe    c2312495   6.468   5.060   0.365 -0.1530 -0.0926 -0.1868
 2122poe    c2312496   6.610   5.067   0.305 -0.2144  0.1940 -0.2967
 2122poe     o212497   6.588   5.103   0.170 -0.9503 -0.2539 -0.3023
 2122poe    c2312498   6.705   5.093   0.091 -0.5891  0.1616  0.1694
 2122poe    c2312499   6.651   5.114  -0.051 -0.0446  0.1528 -0.0417
 2122poe     o212500   6.597   5.244  -0.047 -0.2879  0.0350  0.5956
 2122poe    c2312501   6.484   5.255  -0.132 -0.0163 -0.4217  0.1682
 2122poe    c2312502   6.390   5.369  -0.087  0.1207 -0.4107  0.4324
 2122poe     o212503   6.359   5.348   0.048 -0.1477 -0.4099  0.3714
 2122poe    c3112504   6.272   5.446   0.102  0.0968 -0.1964  0.3834
 2123poe    c3112505   1.917   5.004   3.502  0.2331 -0.3660  0.0278
 2123poe     o212506   1.837   4.889   3.494  0.4307 -0.4875 -0.2181
 2123poe    c2312507   1.703   4.932   3.487  0.5078 -0.2066  0.0066
 2123poe    c2312508   1.613   4.812   3.526 -0.0896  0.1908 -0.1300
 2123poe     o212509   1.634   4.780   3.661  0.0078  0.1758 -0.1480
 2123poe    c2312510   1.515   4.810   3.731 -0.0772 -0.5261  0.0171
 2123poe    c2312511   1.544   4.829   3.880 -0.2414 -0.2190  0.0101
 2123poe     o212512   1.625   4.724   3.929  0.4246  0.2903  0.0220
 2123poe    c2312513   1.598   4.713   4.067 -0.2797 -0.3703 -0.1620
 2123poe    c2312514   1.696   4.610   4.125 -0.0736  0.1033  0.3387
 2123poe     o212515   1.831   4.646   4.111  0.0387 -0.4707 -0.0927
 2123poe    c3112516   1.926   4.549   4.147 -0.0171 -0.4678  0.0620
 2124poe    c3112517   6.337   4.879   1.667  0.0221 -0.1244  0.1799
 2124poe     o212518   6.447   4.915   1.585  0.2404 -0.4772  0.3141
 2124poe    c2312519   6.535   4.805   1.584  0.4494 -0.3037 -0.5721
 2124poe    c2312520   6.670   4.841   1.520  0.6929  0.4538  0.3610
 2124poe     o212521   6.636   4.912   1.403  0.2944  0.2397  0.3471
 2124poe    c2312522   6.753   4.912   1.326  0.0015 -0.6657 -0.1058
 2124poe    c2312523   6.728   4.990   1.195  0.9806 -0.0042  0.0868
 2124poe     o212524   6.678   5.120   1.216 -0.4943 -0.4737 -0.4035
 2124poe    c2312525   6.663   5.181   1.090 -0.0013  0.0048 -0.2342
 2124poe    c2312526   6.780   5.275   1.055 -0.4888  0.5732 -0.3410
 2124poe     o212527   6.773   5.400   1.119 -0.3376  0.4180 -0.0199
 2124poe    c3112528   6.822   5.499   1.033 -0.8490  0.5516 -0.1627
 2125poe    c3112529   6.262   1.067   4.403  0.3224  0.6237  0.0175
 2125poe     o212530   6.234   1.170   4.495 -0.2063  0.0716  0.4790
 2125poe    c2312531   6.343   1.260   4.501  0.1798 -0.3172 -0.5230
 2125poe    c2312532   6.361   1.315   4.643 -0.6248 -0.1613 -0.4731
 2125poe     o212533   6.385   1.226   4.750  0.5120  0.3502 -0.2891
 2125poe    c2312534   6.428   1.295   4.866 -0.4636 -0.0786  0.3400
 2125poe    c2312535   6.460   1.194   4.977 -0.0897 -0.1921  0.1313
 2125poe     o212536   6.336   1.130   5.001 -0.3404  0.5009  0.7258
 2125poe    c2312537   6.328   1.012   5.078  0.1875 -0.0846 -0.0908
 2125poe    c2312538   6.334   0.893   4.981 -0.7561 -0.4242  0.2554
 2125poe     o212539   6.222   0.881   4.897 -0.7229  0.1767  0.1226
 2125poe    c3112540   6.206   0.758   4.830 -0.4534  0.4447 -0.4424
 2126poe    c3112541   5.089   6.766   3.716 -0.2237  0.0712 -0.0214
 2126poe     o212542   5.065   6.869   3.810  0.2442 -0.0629  0.2466
 2126poe    c2312543   4.975   6.855   3.917  0.4316 -0.0893  0.4020
 2126poe    c2312544   4.984   6.977   4.011  0.6382  0.2128 -0.0062
 2126poe     o212545   4.926   7.083   3.939  0.0250 -0.0623  0.0768
 2126poe    c2312546   4.892   7.186   4.030  0.2948  0.1831 -0.0993
 2126poe    c2312547   4.815   7.294   3.951  0.2137  0.0570 -0.1936
 2126poe     o212548   4.871   7.328   3.826  0.9675  1.1565  0.4190
 2126poe    c2312549   4.782   7.421   3.768 -0.2937 -0.6202 -0.5965
 2126poe    c2312550   4.783   7.423   3.614 -0.0004 -0.2422 -0.5905
 2126poe     o212551   4.911   7.437   3.555  0.5867 -0.0862  0.6823
 2126poe    c3112552   4.933   7.572   3.519 -0.5078 -0.1260 -0.2244
 2127poe    c3112553   0.109   6.153   1.295  1.0758  0.6554  0.1189
 2127poe     o212554   0.121   6.146   1.155 -0.1222 -0.0636  0.0334
 2127poe    c2312555   0.207   6.049   1.098 -0.0938  0.2970 -0.5504
 2127poe    c2312556   0.158   5.903   1.101  0.2806  0.1682 -0.6407
 2127poe     o212557   0.040   5.871   1.030 -0.1817 -0.2027  0.2765
 2127poe    c2312558   0.042   5.731   1.028 -0.1230 -0.1978 -0.0543
 2127poe    c2312559  -0.010   5.700   0.886  0.2257 -0.3321 -0.1540
 2127poe     o212560  -0.123   5.784   0.881  0.5624  0.0942 -0.7241
 2127poe    c2312561  -0.164   5.777   0.746 -0.2858 -0.0066 -0.4677
 2127poe    c2312562  -0.288   5.867   0.752 -0.3914 -0.1918  0.1385
 2127poe     o212563  -0.251   5.987   0.817  0.2546 -0.2991 -0.0292
 2127poe    c3112564  -0.351   6.085   0.800  0.1961 -0.3442  0.0509
 2128poe    c3112565   0.636   6.147   5.156 -0.7331  0.5133  0.1307
 2128poe     o212566   0.626   6.218   5.034  0.2225 -0.1007 -0.3151
 2128poe    c2312567   0.498   6.273   5.018  0.1285 -0.1547  0.2298
 2128poe    c2312568   0.471   6.335   4.879  0.0025 -0.1632  0.2503
 2128poe     o212569   0.594   6.388   4.834  0.1078 -0.4814  0.1604
 2128poe    c2312570   0.572   6.495   4.745 -0.1115 -0.2200  0.5245
 2128poe    c2312571   0.683   6.518   4.640 -0.1128 -0.1883  0.5299
 2128poe     o212572   0.797   6.536   4.721  0.3384 -0.2605 -0.0866
 2128poe    c2312573   0.900   6.585   4.639  0.1470  0.0925 -0.1186
 2128poe    c2312574   1.020   6.603   4.734 -0.0556  0.1116  0.1338
 2128poe     o212575   1.017   6.496   4.825 -0.7547  0.3506  0.3953
 2128poe    c3112576   1.149   6.482   4.871 -0.5508  0.2465 -0.2130
 2129poe    c3112577   7.083   0.841   2.936 -0.0121 -0.4842 -0.1320
 2129poe     o212578   6.963   0.807   3.001 -0.1852 -0.1681 -0.2843
 2129poe    c2312579   6.984   0.809   3.141 -0.3198 -0.1534 -0.2640
 2129poe    c2312580   6.857   0.755   3.209  0.0370 -0.3715  0.2386
 2129poe     o212581   6.840   0.630   3.145 -0.3244 -0.1390 -0.1273
 2129poe    c2312582   6.762   0.539   3.219 -0.7255  0.5023  0.2520
 2129poe    c2312583   6.745   0.417   3.127  0.1583  0.1430  0.5495
 2129poe     o212584   6.681   0.446   3.005  0.1823 -0.5013  0.3796
 2129poe    c2312585   6.633   0.323   2.956 -0.0806 -0.4107  0.4069
 2129poe    c2312586   6.618   0.317   2.803 -0.4524  0.4293  0.4088
 2129poe     o212587   6.515   0.398   2.748 -0.1729  0.4161 -0.1417
 2129poe    c3112588   6.495   0.387   2.609  0.1372  0.2676 -0.1769
 2130poe    c3112589   3.940   1.975   4.075 -0.4934 -0.6392 -0.0561
 2130poe     o212590   3.997   1.882   3.986 -0.4960 -0.4896 -0.2143
 2130poe    c2312591   4.109   1.940   3.923 -0.3829 -0.1594  0.2863
 2130poe    c2312592   4.175   1.848   3.819 -0.2630 -0.2731  0.4627
 2130poe     o212593   4.100   1.821   3.703 -0.1571 -0.3510  0.4123
 2130poe    c2312594   4.154   1.716   3.625 -0.0486  0.1320 -0.1649
 2130poe    c2312595   4.046   1.650   3.537 -0.0876  0.8662 -0.6822
 2130poe     o212596   3.942   1.593   3.613  0.3518  0.2752 -0.5188
 2130poe    c2312597   3.887   1.490   3.534  0.3959 -0.4517  0.3794
 2130poe    c2312598   3.765   1.434   3.608 -0.1694  0.0626 -0.1510
 2130poe     o212599   3.694   1.526   3.688  0.3402  0.0220  0.3590
 2130poe    c3112600   3.561   1.483   3.706  0.1826  0.1674 -0.4257
 2131poe    c3112601   2.144   3.213   5.465  0.0958  0.2799  0.2277
 2131poe     o212602   2.024   3.280   5.433 -0.1327 -0.1845  0.1071
 2131poe    c2312603   1.984   3.256   5.300 -0.3128  0.4060  0.0500
 2131poe    c2312604   1.833   3.248   5.273 -0.2953 -0.0869  0.0893
 2131poe     o212605   1.756   3.353   5.327 -0.0817 -0.0361  0.2999
 2131poe    c2312606   1.790   3.482   5.281  0.2909 -0.0013  0.6722
 2131poe    c2312607   1.677   3.568   5.339  0.5804  0.9265 -0.1163
 2131poe     o212608   1.689   3.552   5.479 -0.0595 -0.0207 -0.1634
 2131poe    c2312609   1.621   3.647   5.559  0.3044 -0.0219  0.1495
 2131poe    c2312610   1.671   3.648   5.704  0.4543 -0.5825  0.1060
 2131poe     o212611   1.675   3.510   5.732  0.3093 -0.5509  0.2827
 2131poe    c3112612   1.676   3.484   5.871 -0.6071 -0.4042  0.3239
 2132poe    c3112613   3.629   6.902   4.873 -0.0570  0.0063 -0.2530
 2132poe     o212614   3.742   6.956   4.937  0.1277 -0.6245 -0.0390
 2132poe    c2312615   3.795   6.862   5.027  0.1947 -0.7491 -0.2071
 2132poe    c2312616   3.938   6.903   5.066  0.0828 -0.5223 -0.0339
 2132poe     o212617   3.952   7.039   5.102 -0.3126 -0.3714 -0.4386
 2132poe    c2312618   3.905   7.075   5.230  0.8887 -0.0786 -0.0632
 2132poe    c2312619   3.936   7.218   5.278 -0.0806  0.2585 -0.4029
 2132poe     o212620   4.072   7.241   5.311 -0.1764  0.4725 -0.1557
 2132poe    c2312621   4.100   7.370   5.360 -0.1918  0.1425  0.7406
 2132poe    c2312622   4.241   7.382   5.420  0.1568  0.3201 -0.0999
 2132poe     o212623   4.348   7.359   5.331  0.2483 -0.2700  0.1594
 2132poe    c3112624   4.472   7.347   5.398  0.4622  0.1506 -0.1546
 2133poe    c3112625   4.454   6.092   0.755  0.3178  0.0788 -0.7372
 2133poe     o212626   4.563   6.035   0.686  0.5505 -0.1518 -0.1899
 2133poe    c2312627   4.614   5.924   0.758 -0.2807 -0.8397 -0.6342
 2133poe    c2312628   4.728   5.860   0.677 -0.0517 -0.1371 -0.8777
 2133poe     o212629   4.830   5.953   0.647  0.0804  0.0149  0.0312
 2133poe    c2312630   4.913   5.894   0.549 -0.1029  0.4502 -0.3907
 2133poe    c2312631   5.053   5.957   0.558 -0.0167  0.2071  0.0069
 2133poe     o212632   5.025   6.095   0.571 -0.1255  0.2181 -0.3364
 2133poe    c2312633   5.134   6.183   0.572 -0.1410  0.2349 -0.0281
 2133poe    c2312634   5.224   6.213   0.694  0.4708 -0.3242 -0.3349
 2133poe     o212635   5.166   6.291   0.796 -0.0722 -0.4706 -0.5250
 2133poe    c3112636   5.181   6.430   0.779 -0.5892 -0.3285  0.1441
 2134poe    c3112637   1.206   2.528   1.065  0.7105  0.5544 -0.5190
 2134poe     o212638   1.336   2.563   1.108  0.8742 -0.7053  0.0431
 2134poe    c2312639   1.407   2.653   1.027 -0.3589  0.4773  0.2391
 2134poe    c2312640   1.470   2.588   0.902  0.3140  0.0767  0.7731
 2134poe     o212641   1.555   2.480   0.931  0.1593 -0.1873  0.2544
 2134poe    c2312642   1.616   2.443   0.809  0.1258  0.1118  0.1461
 2134poe    c2312643   1.661   2.296   0.823 -0.6341 -0.1057  0.3325
 2134poe     o212644   1.698   2.275   0.957  0.1902 -0.0527  0.1197
 2134poe    c2312645   1.729   2.139   0.981 -0.0837 -0.1561 -0.0975
 2134poe    c2312646   1.771   2.120   1.128  0.1044 -0.4785 -0.1920
 2134poe     o212647   1.684   2.191   1.214  0.0773 -0.4458 -0.2465
 2134poe    c3112648   1.708   2.149   1.346  0.1845 -0.1481 -0.1698
 2135poe    c3112649   6.827   3.360   5.540 -0.3783  0.5375 -0.0443
 2135poe     o212650   6.721   3.452   5.554 -0.4957  0.2798  0.7831
 2135poe    c2312651   6.604   3.420   5.483  0.1842 -0.3224 -0.0957
 2135poe    c2312652   6.485   3.515   5.506  0.7152  0.2229  0.4254
 2135poe     o212653   6.437   3.510   5.639  0.4023  0.3334  0.3189
 2135poe    c2312654   6.318   3.582   5.661 -0.1306 -0.4774  0.1076
 2135poe    c2312655   6.316   3.611   5.812  0.0407 -0.0523  0.0303
 2135poe     o212656   6.436   3.670   5.855 -0.1640  0.3058  0.1108
 2135poe    c2312657   6.435   3.676   5.996 -0.1103  1.5749  0.0738
 2135poe    c2312658   6.577   3.697   6.051  0.2643  0.1587 -0.2955
 2135poe     o212659   6.642   3.809   5.994  0.1867  0.1888 -0.3242
 2135poe    c3112660   6.752   3.852   6.070 -0.3572  0.4946  0.3059
 2136poe    c3112661   6.984   2.058   5.582 -0.2245  0.0776  0.3580
 2136poe     o212662   6.967   1.942   5.504  0.5725  0.4058 -0.3176
 2136poe    c2312663   6.903   1.969   5.381 -0.1330 -0.0468 -0.0562
 2136poe    c2312664   6.866   1.835   5.315  0.8371 -0.4581  0.2171
 2136poe     o212665   6.753   1.775   5.374  0.5141 -0.0688 -0.0031
 2136poe    c2312666   6.695   1.690   5.278  0.3073 -0.3399  0.3580
 2136poe    c2312667   6.546   1.660   5.306  0.2310  0.1050  0.4291
 2136poe     o212668   6.534   1.566   5.410 -0.1139 -0.4633 -0.1162
 2136poe    c2312669   6.426   1.568   5.500 -0.1945  0.7303 -0.2135
 2136poe    c2312670   6.436   1.688   5.596 -0.3842  0.3490  0.2930
 2136poe     o212671   6.540   1.679   5.690  0.1197 -0.0823 -0.2950
 2136poe    c3112672   6.517   1.585   5.792  0.8285 -0.0270 -0.0768
 2137poe    c3112673   3.435   3.239   3.298 -0.3155 -0.4293  0.3078
 2137poe     o212674   3.487   3.179   3.182 -0.2672  0.0622  0.0720
 2137poe    c2312675   3.381   3.111   3.119  0.0105 -0.1690 -0.1528
 2137poe    c2312676   3.438   2.995   3.036 -0.6587 -0.6629  0.0645
 2137poe     o212677   3.571   3.021   2.996 -0.5282 -0.1844  0.7983
 2137poe    c2312678   3.635   2.904   2.950  0.2407  0.4326  0.2882
 2137poe    c2312679   3.776   2.950   2.908  0.4824 -0.4269  0.1374
 2137poe     o212680   3.829   3.036   3.006  0.0031  0.0641 -0.0277
 2137poe    c2312681   3.967   3.055   2.983 -0.0874  0.3678 -0.3340
 2137poe    c2312682   4.021   3.159   3.083  0.1119  0.1012 -0.1625
 2137poe     o212683   4.008   3.132   3.220  0.3464 -0.9546 -0.3387
 2137poe    c3112684   4.101   3.039   3.272  0.2232 -0.9724 -0.1468
 2138poe    c3112685   5.902   0.048   0.012 -0.2385 -0.4085 -0.6015
 2138poe     o212686   6.029   0.050   0.074 -0.8403 -0.0942  0.6559
 2138poe    c2312687   6.059   0.154   0.165  0.2632  0.0540  0.1403
 2138poe    c2312688   6.201   0.125   0.217  0.0038 -0.5008  0.5481
 2138poe     o212689   6.281   0.112   0.102 -0.0889  0.8387  0.3240
 2138poe    c2312690   6.417   0.127   0.134  0.1812 -1.2611  0.2774
 2138poe    c2312691   6.511   0.029   0.060  0.7605 -0.4920 -0.0207
 2138poe     o212692   6.503   0.039  -0.080 -0.1528 -0.1869  0.0482
 2138poe    c2312693   6.568  -0.076  -0.129 -0.3263 -0.1985 -0.1610
 2138poe    c2312694   6.554  -0.083  -0.282  0.1025 -0.0420 -0.2083
 2138poe     o212695   6.419  -0.114  -0.306 -0.0383  0.4989 -0.1214
 2138poe    c3112696   6.391  -0.097  -0.443  0.9908 -0.4018 -0.4598
 2139poe    c3112697   5.998   5.074   5.648  0.0431  0.0969  0.1265
 2139poe     o212698   5.974   4.947   5.705 -0.1082 -0.1276 -0.4274
 2139poe    c2312699   6.088   4.864   5.700  0.0485  0.0760 -0.2551
 2139poe    c2312700   6.070   4.739   5.788  0.3971 -0.3733 -0.8146
 2139poe     o212701   6.085   4.757   5.927  0.2469 -0.2232 -0.8174
 2139poe    c2312702   6.039   4.650   6.007  0.2609  0.2030 -0.2338
 2139poe    c2312703   6.076   4.661   6.156 -0.3728 -0.3044 -0.0358
 2139poe     o212704   6.029   4.778   6.219  0.3336 -0.1360  0.1940
 2139poe    c2312705   6.089   4.812   6.342  0.3545 -0.2511  0.2167
 2139poe    c2312706   6.172   4.940   6.319 -0.2675  0.0669 -0.3140
 2139poe     o212707   6.098   5.058   6.294 -0.0311  0.1434 -0.6642
 2139poe    c3112708   6.172   5.172   6.330 -0.0456  0.0825 -0.4390
 2140poe    c3112709   0.846   4.011   6.276 -0.0558  0.6546 -0.0644
 2140poe     o212710   0.831   4.132   6.348  0.7387  0.4704  0.4260
 2140poe    c2312711   0.742   4.221   6.285  0.1996 -0.0235  0.4796
 2140poe    c2312712   0.761   4.372   6.307 -0.0309  0.0581  0.1306
 2140poe     o212713   0.823   4.424   6.192 -0.1042  0.1033  0.1114
 2140poe    c2312714   0.964   4.418   6.190 -0.1408 -0.6126 -0.8742
 2140poe    c2312715   0.998   4.502   6.064  0.1691 -0.2380 -0.5433
 2140poe     o212716   0.962   4.637   6.077  0.5012 -0.1864 -0.1166
 2140poe    c2312717   1.012   4.721   5.975  0.4102 -0.3184 -0.2718
 2140poe    c2312718   0.959   4.866   5.986  0.0717 -0.5062  0.6817
 2140poe     o212719   0.819   4.866   5.970  0.2479  0.4263 -1.0286
 2140poe    c3112720   0.772   4.896   5.840 -0.3394  0.4764 -0.8065
 2141poe    c3112721   1.847   0.313   0.777  0.2867 -0.0868  0.1742
 2141poe     o212722   1.838   0.395   0.892  0.1149  0.0004  0.0991
 2141poe    c2312723   1.834   0.324   1.013 -0.0702  0.0035  0.0951
 2141poe    c2312724   1.910   0.411   1.115 -0.0551 -0.5405  0.5607
 2141poe     o212725   1.859   0.543   1.107  0.2003 -0.4660  0.1019
 2141poe    c2312726   1.940   0.623   1.190 -0.4358  0.3165 -0.0182
 2141poe    c2312727   1.920   0.775   1.196  0.0299  0.3851 -0.1398
 2141poe     o212728   1.942   0.833   1.069  0.2620  0.4156 -0.0862
 2141poe    c2312729   1.880   0.960   1.069  0.6854  0.6280  0.4484
 2141poe    c2312730   1.908   1.026   0.933  0.0186  0.0018  0.0004
 2141poe     o212731   1.856   0.933   0.841 -0.2347  0.0834  0.0610
 2141poe    c3112732   1.786   1.001   0.740 -0.2958  0.3959  0.3119
 2142poe    c3112733   7.064   3.419   4.831 -0.7117 -0.1227  0.4425
 2142poe     o212734   6.955   3.507   4.849 -0.3710  0.2285  0.8370
 2142poe    c2312735   6.957   3.585   4.731 -0.1443  0.2112  0.8287
 2142poe    c2312736   6.896   3.725   4.751 -0.4745  0.1541  0.2374
 2142poe     o212737   6.756   3.726   4.730 -0.4291 -0.1476 -0.0833
 2142poe    c2312738   6.707   3.855   4.703 -0.0525  0.0242  0.0496
 2142poe    c2312739   6.555   3.842   4.684 -0.1035  0.1605  0.3632
 2142poe     o212740   6.468   3.826   4.795 -0.0222 -0.6214  0.3188
 2142poe    c2312741   6.432   3.944   4.864  0.6566 -0.6099  0.6624
 2142poe    c2312742   6.349   3.924   4.992 -0.2703  0.3819  0.2371
 2142poe     o212743   6.432   3.852   5.082 -0.0496  0.5790  0.1920
 2142poe    c3112744   6.375   3.840   5.210  0.1613 -0.1469  0.2201
 2143poe    c3112745   6.862   6.050   0.318 -0.1436 -0.1056 -0.0083
 2143poe     o212746   6.869   5.991   0.190 -0.3843  0.2954 -0.2086
 2143poe    c2312747   6.808   6.090   0.110 -0.8274  0.2954  0.1288
 2143poe    c2312748   6.775   6.064  -0.038  0.2269 -0.3774  0.0046
 2143poe     o212749   6.882   6.055  -0.128  0.5169 -0.2559  0.3376
 2143poe    c2312750   6.957   6.174  -0.143 -0.0944 -0.0148 -0.9105
 2143poe    c2312751   7.085   6.141  -0.222  0.6450 -0.0067  0.2559
 2143poe     o212752   7.071   6.074  -0.345  0.1299  0.3986  0.0881
 2143poe    c2312753   7.195   6.071  -0.413 -0.1674 -0.1124 -0.4479
 2143poe    c2312754   7.225   5.950  -0.503  0.3118 -0.2918 -0.0510
 2143poe     o212755   7.101   5.935  -0.569  0.3375  0.6232 -0.3254
 2143poe    c3112756   7.114   5.840  -0.672 -0.0178  0.0341  0.1635
 2144poe    c3112757   2.479   5.715   6.181  0.1303 -0.1936 -0.1638
 2144poe     o212758   2.583   5.739   6.089  0.1318 -0.2848 -0.1861
 2144poe    c2312759   2.671   5.630   6.082  0.0120 -0.3608 -0.5038
 2144poe    c2312760   2.741   5.611   5.945  0.2171 -0.5633 -0.3726
 2144poe     o212761   2.776   5.736   5.889  0.1962 -0.3835  0.0106
 2144poe    c2312762   2.856   5.725   5.774  0.2622  0.1519  0.0048
 2144poe    c2312763   2.881   5.861   5.705 -0.3030  0.1423 -0.2257
 2144poe     o212764   2.753   5.918   5.693 -0.4933 -0.1978  0.1464
 2144poe    c2312765   2.758   6.030   5.607 -0.1823 -0.2849  0.0497
 2144poe    c2312766   2.621   6.097   5.587 -0.1335 -0.2282 -0.0885
 2144poe     o212767   2.574   6.139   5.713  1.0506  0.4587  0.1389
 2144poe    c3112768   2.511   6.265   5.706 -0.4420 -0.2626  0.3251
 2145poe    c3112769   6.254   6.937   5.244  0.1357 -0.6019 -0.4790
 2145poe     o212770   6.325   6.900   5.360  0.2881  0.4797 -0.2179
 2145poe    c2312771   6.246   6.815   5.441  0.2857  0.2266 -0.4844
 2145poe    c2312772   6.328   6.784   5.568 -0.0429 -0.4588 -0.4410
 2145poe     o212773   6.450   6.723   5.534  0.1745 -0.0938 -0.3151
 2145poe    c2312774   6.534   6.681   5.640 -0.2946 -0.3967 -0.0610
 2145poe    c2312775   6.680   6.662   5.595 -0.0561  0.0264  0.5263
 2145poe     o212776   6.727   6.770   5.517  0.5765 -0.4419  0.2520
 2145poe    c2312777   6.866   6.761   5.500  0.5615  0.3821 -0.3887
 2145poe    c2312778   6.935   6.892   5.458  0.2624  0.6957  0.0849
 2145poe     o212779   6.845   6.997   5.484 -0.5283 -0.0245  0.3200
 2145poe    c3112780   6.904   7.125   5.493  0.2236 -0.3504  0.1552
 2146poe    c3112781   3.281   1.204   5.919 -0.6492  0.2427  0.9694
 2146poe     o212782   3.156   1.232   5.861 -0.3348  0.0487  0.1957
 2146poe    c2312783   3.121   1.126   5.775 -0.4293 -0.0972  0.4138
 2146poe    c2312784   2.970   1.093   5.774 -0.3585 -0.4536 -0.7119
 2146poe     o212785   2.934   1.062   5.907  0.4977 -0.7778 -0.5519
 2146poe    c2312786   2.796   1.038   5.904  0.2886  0.3395 -0.4137
 2146poe    c2312787   2.728   0.997   6.036  0.1841  0.6095 -0.3834
 2146poe     o212788   2.726   1.108   6.123  0.2081  0.3834 -0.0904
 2146poe    c2312789   2.650   1.083   6.239  0.5359  0.6683  0.1890
 2146poe    c2312790   2.729   1.015   6.352  0.6518 -0.0753 -0.3332
 2146poe     o212791   2.854   1.080   6.356  0.4071  0.3720  0.0543
 2146poe    c3112792   2.887   1.104   6.491  0.1874  0.2641  0.1272
 2147poe    c3112793   2.424   4.736   0.088 -0.5934 -0.2119  0.3112
 2147poe     o212794   2.475   4.746  -0.043 -0.0113  0.0599  0.5515
 2147poe    c2312795   2.438   4.862  -0.114  0.8330  0.1120  0.1906
 2147poe    c2312796   2.491   4.860  -0.259 -0.1392 -0.0175 -0.1667
 2147poe     o212797   2.622   4.810  -0.247 -0.5739 -1.2116 -0.2996
 2147poe    c2312798   2.690   4.835  -0.368 -0.6923 -0.2144 -0.1733
 2147poe    c2312799   2.837   4.790  -0.368 -0.5726  0.1766 -0.1770
 2147poe     o212800   2.856   4.654  -0.336 -0.1229  0.0482 -0.9544
 2147poe    c2312801   2.987   4.615  -0.371 -0.0195 -0.0269 -0.5023
 2147poe    c2312802   3.012   4.463  -0.368  0.1266  0.0089  0.1610
 2147poe     o212803   2.964   4.413  -0.245  0.1375 -0.4956 -0.0362
 2147poe    c3112804   2.946   4.275  -0.262 -0.0606 -0.4936  0.1583
 2148poe    c3112805   5.140   2.454   4.508  0.1546  0.5613 -0.3398
 2148poe     o212806   4.999   2.461   4.509  0.1383  0.2094 -0.0188
 2148poe    c2312807   4.957   2.537   4.620  0.1786  0.8755 -0.4497
 2148poe    c2312808   4.821   2.603   4.590 -0.2142  0.3950  0.2503
 2148poe     o212809   4.719   2.515   4.635  0.1569  0.1352  0.5924
 2148poe    c2312810   4.601   2.549   4.566 -0.1341 -0.3694  0.8377
 2148poe    c2312811   4.498   2.435   4.568 -0.4007 -0.1844 -0.8035
 2148poe     o212812   4.558   2.307   4.579  0.2424  0.1535 -0.3081
 2148poe    c2312813   4.469   2.223   4.510 -0.0671  0.4950 -0.3313
 2148poe    c2312814   4.520   2.078   4.518 -0.5630  0.3383  0.0255
 2148poe     o212815   4.661   2.073   4.515 -0.5666 -0.3196  0.5727
 2148poe    c3112816   4.704   1.944   4.477 -0.1510 -0.0407  0.0880
 2149poe    c3112817   5.090   0.248   6.814 -0.6451  0.0138 -0.2690
 2149poe     o212818   5.057   0.137   6.894  0.1100 -0.0022  0.0302
 2149poe    c2312819   4.940   0.090   6.831 -0.0434  0.1537  0.1990
 2149poe    c2312820   4.909  -0.050   6.887 -0.2824  0.3295  0.5101
 2149poe     o212821   4.943  -0.047   7.024 -0.5494  0.2368  0.5805
 2149poe    c2312822   4.933  -0.175   7.083 -0.1215  0.1271  0.4247
 2149poe    c2312823   4.963  -0.163   7.233  0.4192  0.0219  0.3237
 2149poe     o212824   5.102  -0.138   7.234  0.4035  0.1162  0.1611
 2149poe    c2312825   5.172  -0.194   7.343 -0.2071 -0.6083  0.1855
 2149poe    c2312826   5.314  -0.235   7.300 -0.0641  0.2796 -0.2134
 2149poe     o212827   5.393  -0.130   7.250  0.0918  0.3633  0.2034
 2149poe    c3112828   5.528  -0.162   7.277  0.0612  0.7043  0.7749
 2150poe    c3112829   3.591   3.778   3.914  0.0483 -0.1537 -0.1326
 2150poe     o212830   3.696   3.713   3.981  0.2025  0.0997 -0.1278
 2150poe    c2312831   3.685   3.577   3.945  0.2577  0.2235 -0.6115
 2150poe    c2312832   3.778   3.508   4.047 -0.5990  0.2256  0.1766
 2150poe     o212833   3.902   3.576   4.046 -0.2975 -0.3251  0.1521
 2150poe    c2312834   4.014   3.502   4.089  0.0057 -0.2719 -0.5446
 2150poe    c2312835   4.142   3.588   4.072 -0.1687  0.0390 -0.3007
 2150poe     o212836   4.122   3.720   4.117  0.0908 -0.0317  0.0226
 2150poe    c2312837   4.237   3.763   4.186  0.2754  0.6668 -0.7091
 2150poe    c2312838   4.218   3.870   4.296  0.2892 -0.3398  0.2903
 2150poe     o212839   4.154   3.984   4.242  0.2093 -0.2431  0.5917
 2150poe    c3112840   4.183   4.097   4.322  0.1537  0.2442 -0.0732
 2151poe    c3112841   5.264   1.972   5.525 -0.1975 -0.6100 -0.2059
 2151poe     o212842   5.364   2.061   5.481 -0.7114  0.2282  0.2991
 2151poe    c2312843   5.320   2.147   5.377  0.5128  0.2995 -0.1715
 2151poe    c2312844   5.441   2.229   5.328  0.1220  0.5527 -0.7136
 2151poe     o212845   5.536   2.148   5.262  0.2393 -0.1079  0.2506
 2151poe    c2312846   5.647   2.228   5.226 -0.0435  0.2151  0.0958
 2151poe    c2312847   5.781   2.152   5.217  0.1908  0.6440 -0.0754
 2151poe     o212848   5.810   2.082   5.336  0.2191  0.3827 -0.2371
 2151poe    c2312849   5.949   2.059   5.351  0.0516 -0.3981  0.1772
 2151poe    c2312850   5.966   1.973   5.477  0.3834 -0.1156  0.3279
 2151poe     o212851   5.896   1.850   5.482  0.2463 -0.0932 -0.7889
 2151poe    c3112852   5.928   1.790   5.605  0.4970  0.3335 -0.6425
 2152poe    c3112853   4.128   5.929   4.914 -0.5271  0.2736 -0.0322
 2152poe     o212854   4.051   6.046   4.929 -0.1937  0.3956  0.7568
 2152poe    c2312855   3.965   6.036   5.040 -0.4352 -0.1114  0.5264
 2152poe    c2312856   3.895   6.172   5.061  0.2792  0.2609  0.5143
 2152poe     o212857   3.804   6.190   4.955  0.5166 -0.3648  0.2019
 2152poe    c2312858   3.707   6.279   5.004 -0.3596 -0.7946 -0.7152
 2152poe    c2312859   3.698   6.396   4.905  0.6069 -0.4060 -0.3559
 2152poe     o212860   3.675   6.347   4.774  0.1350 -0.2233 -0.3437
 2152poe    c2312861   3.688   6.453   4.682 -0.7256  0.2165  0.0313
 2152poe    c2312862   3.635   6.388   4.553  0.3147 -0.1726 -0.2050
 2152poe     o212863   3.693   6.259   4.546  0.0260 -0.3077 -0.1297
 2152poe    c3112864   3.689   6.215   4.412  0.0265 -0.2428 -0.1515
 2153poe    c3112865   0.503   4.155   3.160 -0.0216  0.4927 -0.1824
 2153poe     o212866   0.585   4.269   3.148  0.2219  0.3082 -0.2799
 2153poe    c2312867   0.573   4.339   3.270 -0.4108  0.0575 -0.1937
 2153poe    c2312868   0.465   4.448   3.253 -0.5458  0.0649  0.7050
 2153poe     o212869   0.503   4.571   3.196  0.1778 -0.2754  0.4331
 2153poe    c2312870   0.391   4.654   3.177  0.1102 -0.3967  0.2967
 2153poe    c2312871   0.437   4.798   3.145 -0.3739 -0.2525  0.2278
 2153poe     o212872   0.540   4.837   3.233  0.0240 -0.2701 -0.2258
 2153poe    c2312873   0.503   4.860   3.367  0.2830 -0.1848 -0.1686
 2153poe    c2312874   0.611   4.944   3.438 -0.0638 -0.0243  0.1704
 2153poe     o212875   0.737   4.892   3.404  0.0052  0.2489  0.0082
 2153poe    c3112876   0.827   4.974   3.475  0.3778 -0.2932  0.1734
 2154poe    c3112877   4.043   6.739   3.219  0.1345 -0.4705  0.6070
 2154poe     o212878   3.913   6.792   3.233  0.3876  0.0986  0.8324
 2154poe    c2312879   3.902   6.889   3.335  0.1570  0.4907  0.4397
 2154poe    c2312880   3.753   6.925   3.328  0.0466 -0.0244  0.0285
 2154poe     o212881   3.712   6.956   3.197 -0.0795 -0.1149  0.0465
 2154poe    c2312882   3.572   6.968   3.188 -0.0073  0.4161 -0.4649
 2154poe    c2312883   3.534   7.005   3.044  0.2382  0.1118 -0.6079
 2154poe     o212884   3.568   6.905   2.950  0.3700 -0.0468 -0.3926
 2154poe    c2312885   3.551   6.973   2.828 -0.1387  0.4348 -0.0564
 2154poe    c2312886   3.593   6.879   2.714 -0.1103  0.7772 -0.3324
 2154poe     o212887   3.729   6.848   2.735 -0.2036  0.3669 -0.3085
 2154poe    c3112888   3.786   6.803   2.613  0.2850 -0.0045  0.0526
 2155poe    c3112889   5.031   6.452   6.326  0.0788 -0.1237 -0.3651
 2155poe     o212890   5.032   6.326   6.389  0.6251  0.1692  0.2308
 2155poe    c2312891   5.154   6.281   6.443  0.4390 -0.3169  0.2523
 2155poe    c2312892   5.224   6.164   6.372 -0.0062  0.0713 -0.8453
 2155poe     o212893   5.156   6.041   6.361 -0.0652  0.0417 -0.1610
 2155poe    c2312894   5.210   5.958   6.260 -0.1967  0.2313 -0.3867
 2155poe    c2312895   5.112   5.851   6.208 -0.3451  0.0121  0.3252
 2155poe     o212896   5.003   5.912   6.142 -0.0825  0.0560 -0.0738
 2155poe    c2312897   4.902   5.814   6.129  0.1253 -0.1291 -0.2902
 2155poe    c2312898   4.756   5.856   6.102  0.2055  0.2811 -0.0934
 2155poe     o212899   4.749   5.922   5.978 -0.5671  0.0588 -0.1726
 2155poe    c3112900   4.614   5.942   5.942 -0.6538  0.1624  0.2039
 2156poe    c3112901   6.105   1.074   5.645  0.4232 -0.2106  0.2805
 2156poe     o212902   6.232   1.124   5.608 -0.0210  0.8209  0.0944
 2156poe    c2312903   6.233   1.133   5.467  0.3504  0.0957  0.0402
 2156poe    c2312904   6.352   1.215   5.414  0.1661  0.2454 -0.1456
 2156poe     o212905   6.476   1.158   5.450  0.1300  0.1906 -0.1065
 2156poe    c2312906   6.587   1.231   5.402  0.0600 -0.0867 -0.7031
 2156poe    c2312907   6.711   1.159   5.459 -0.0138  0.3043 -0.0290
 2156poe     o212908   6.695   1.024   5.421  0.0331  0.2190  0.2564
 2156poe    c2312909   6.811   0.971   5.361 -0.1970  0.1138 -0.0956
 2156poe    c2312910   6.805   0.818   5.371 -0.0340  0.0966 -0.2576
 2156poe     o212911   6.682   0.766   5.324 -0.4134  0.9254 -0.1909
 2156poe    c3112912   6.698   0.718   5.193 -1.1732 -0.2992  0.1514
 2157poe    c3112913   2.308   0.157   5.480 -0.3444  0.7534  0.0667
 2157poe     o212914   2.444   0.167   5.446 -0.2251 -0.0622  0.2829
 2157poe    c2312915   2.482   0.302   5.439 -0.0343 -0.1385 -0.2449
 2157poe    c2312916   2.619   0.309   5.369 -0.1769  0.4636 -0.4722
 2157poe     o212917   2.627   0.188   5.297  0.2458 -0.0716  0.4482
 2157poe    c2312918   2.753   0.167   5.238 -0.1069 -0.2486 -0.2666
 2157poe    c2312919   2.756   0.054   5.134  0.7102 -0.5984  0.1242
 2157poe     o212920   2.675  -0.055   5.171 -0.6188  0.3209  0.0005
 2157poe    c2312921   2.677  -0.163   5.079  0.0856 -0.1301  0.5293
 2157poe    c2312922   2.566  -0.267   5.104  0.2406 -0.4770 -0.2074
 2157poe     o212923   2.442  -0.203   5.084  0.3967 -0.2135 -0.3435
 2157poe    c3112924   2.341  -0.302   5.083  0.5006 -0.3169 -0.6551
 2158poe    c3112925   1.954   1.108   3.932  0.0105 -0.0406  0.1231
 2158poe     o212926   1.866   1.216   3.910  0.1811  0.0194 -0.2802
 2158poe    c2312927   1.851   1.255   3.775  0.0649 -0.1579 -0.3183
 2158poe    c2312928   1.761   1.163   3.690 -0.1972 -0.4799  0.2962
 2158poe     o212929   1.832   1.056   3.632 -0.2871 -0.5992  0.4059
 2158poe    c2312930   1.741   0.968   3.572 -0.5466  0.0406 -0.1567
 2158poe    c2312931   1.815   0.835   3.546 -0.6250 -0.0365  0.0135
 2158poe     o212932   1.927   0.828   3.462 -0.2394 -0.5055  0.5601
 2158poe    c2312933   2.016   0.722   3.492  0.0400 -0.3368  0.3418
 2158poe    c2312934   2.081   0.736   3.631 -0.0768  0.0988  0.3538
 2158poe     o212935   2.186   0.830   3.648 -0.0199  0.1355 -0.1766
 2158poe    c3112936   2.190   0.892   3.774 -0.0505 -0.3101  0.0474
 2159poe    c3112937   4.200   0.157   4.314 -0.3497 -0.5228  0.9519
 2159poe     o212938   4.125   0.050   4.261  0.1511 -0.1057 -0.6554
 2159poe    c2312939   4.137  -0.073   4.330  0.3583 -0.0193 -0.5371
 2159poe    c2312940   3.995  -0.132   4.342  0.0325  0.8731  0.1262
 2159poe     o212941   3.970  -0.204   4.224  0.3630  0.1211  0.5069
 2159poe    c2312942   3.868  -0.299   4.248 -0.3136  0.9074  0.7885
 2159poe    c2312943   3.784  -0.313   4.120  0.1744 -0.2212  0.5791
 2159poe     o212944   3.861  -0.310   4.002 -0.6787 -0.1761  0.0146
 2159poe    c2312945   3.786  -0.257   3.895 -0.2211 -0.0436 -0.2423
 2159poe    c2312946   3.877  -0.255   3.771 -0.1119 -0.2885 -0.1665
 2159poe     o212947   3.991  -0.196   3.829 -0.3748  0.2293 -0.1724
 2159poe    c3112948   4.087  -0.179   3.727  0.7304  0.2729  0.8481
 2160poe    c3112949   5.648   0.522   6.482  0.4267  0.6686 -0.3388
 2160poe     o212950   5.700   0.639   6.421  0.0951  0.7814 -0.4105
 2160poe    c2312951   5.769   0.604   6.303  0.2892  0.0915 -0.1022
 2160poe    c2312952   5.864   0.722   6.273  0.1834  0.2033 -0.0020
 2160poe     o212953   5.796   0.836   6.319  0.2223  0.1550  0.1786
 2160poe    c2312954   5.873   0.953   6.338  0.0608  0.1912  0.6113
 2160poe    c2312955   5.769   1.066   6.332 -0.2312 -0.1172 -0.2841
 2160poe     o212956   5.676   1.020   6.428  0.3235 -0.3831  0.1328
 2160poe    c2312957   5.545   1.066   6.401  0.4082  0.0235  0.4171
 2160poe    c2312958   5.467   0.984   6.504 -0.1476  0.1719  0.1174
 2160poe     o212959   5.500   0.847   6.509  0.1711  0.2705  0.7740
 2160poe    c3112960   5.378   0.781   6.534  0.0399  0.6658  1.1835
 2161lim     li12961   3.927   6.014   2.993  0.4313 -0.1072 -0.0424
 2162lim     li12962   3.590   3.320   6.188 -0.4586  0.1940 -0.7181
 2163lim     li12963   2.064   6.700   2.948  0.0818  0.1792 -0.8198
 2164lim     li12964   1.761   4.683   3.738  0.8172  0.3726  0.0145
 2165lim     li12965   0.102   3.829   4.334  0.0624  0.2971 -0.2387
 2166lim     li12966   0.694   1.334   2.999 -0.6412  0.0254 -0.8208
 2167lim     li12967   3.285   5.005   3.074  0.7829 -0.3609  0.5839
 2168lim     li12968   6.318   5.756   2.531  0.3698  0.7652 -0.2491
 2169lim     li12969   7.001   5.943   4.950 -0.2663  0.0516  0.2408
 2170lim     li12970   5.328   1.815   5.111  0.8287 -1.0544  0.0970
 2171lim     li12971   1.930   4.232   0.384 -0.4079  0.6060 -0.2567
 2172lim     li12972   6.544   4.307   1.982 -0.5914 -0.1467  0.2104
 2173lim     li12973   1.626   2.333   1.121  0.0151 -0.1657  0.3762
 2174lim     li12974   2.072   1.869   6.114  0.1320 -0.2821  0.3365
 2175lim     li12975   7.043   6.178   2.372  0.3603  0.5971 -0.2577
 2176lim     li12976   6.495   1.994   1.635 -0.5404 -0.4341 -1.2684
 2177lim     li12977   1.026   0.086   6.464  0.2852  0.5086  0.0741
 2178lim     li12978   2.529   6.612   3.605 -0.8311  0.2681  0.6568
 2179lim     li12979   0.740   3.430   5.947 -0.2318 -0.4042  0.5910
 2180lim     li12980   3.547   2.545   6.152  0.0688  0.3690  1.1641
 2181lim     li12981   4.850   4.959   4.129 -0.4144 -0.4029 -0.0409
 2182lim     li12982   5.950   0.105   0.994  0.5299  0.0750 -0.1824
 2183lim     li12983   4.804   4.566   1.181 -1.3315 -0.1021 -0.0721
 2184lim     li12984   1.593   3.619   6.624 -0.0660  0.0464  0.5530
 2185lim     li12985   6.043   3.884   4.639  1.1866  1.5031 -0.0287
 2186lim     li12986   3.367   0.805   6.265 -0.2212 -1.2596 -0.8156
 2187lim     li12987   4.545   1.141   5.818 -0.1895 -0.3415 -0.3256
 2188lim     li12988   6.749   6.483   4.170  0.8380 -0.8532  1.1406
 2189lim     li12989   6.651   6.923   2.359 -0.4896 -1.2608 -0.1922
 2190lim     li12990   5.362   2.097   6.250 -0.4045  0.7387  0.1728
 2191lim     li12991   0.263   4.371   1.745 -0.9319 -1.4717 -1.0313
 2192lim     li12992   4.471   0.035   4.898 -0.4456  0.5458 -1.3443
 2193lim     li12993   0.399   7.038   0.305 -0.2464 -0.7999  0.5621
 2194lim     li12994   0.207   2.941   5.056 -0.4959  0.2498 -0.3227
 2195lim     li12995   2.695   0.642   6.953 -0.0652  0.7969 -0.3760
 2196lim     li12996   6.986   5.498   3.614 -0.7859 -0.2685 -0.9526
 2197lim     li12997   2.993   6.185   2.919  0.1637  1.6818  1.0097
 2198lim     li12998   6.219   2.675   0.109  0.0134  0.4215  1.0940
 2199lim     li12999   5.879   2.780   1.441  0.0652 -0.7616  0.0952
 2200lim     li13000   6.005   6.490   2.741 -0.7600  0.1613 -0.9382
 2201lim     li13001   0.753   1.210   4.338 -0.6498 -0.2123  0.0382
 2202lim     li13002   1.258   5.210   0.970  0.2310 -0.8461 -0.2131
 2203lim     li13003   3.503   0.943   1.362 -0.3627  0.6383  1.1511
 2204lim     li13004   0.500   1.321   5.867 -1.1953  1.0394  0.3707
 2205lim     li13005   5.708   5.774   5.118  0.2841  1.2623  0.7606
 2206lim     li13006   1.587   1.606   6.933  0.2138  0.3264 -0.9895
 2207lim     li13007   2.174   5.294   4.408  0.4919 -0.0113 -0.4751
 2208lim     li13008   5.573   3.121   3.770 -0.8234  0.0560  0.7300
 2209lim     li13009   2.311   5.710   3.531  0.1574  0.0278 -0.1484
 2210lim     li13010   2.252   5.021   0.697  0.0721 -1.5583  0.0951
 2211lim     li13011   4.962   5.863   6.673  0.6099 -0.7734  0.6647
 2212lim     li13012   6.946   4.721   4.400 -0.0701 -0.8170  0.0028
 2213lim     li13013   2.510   0.016   2.431 -0.4847  1.1160  0.4664
 2214lim     li13014   3.035   3.613   0.246  0.5422 -1.2880  1.4183
 2215lim     li13015   2.258   2.352   7.066 -0.7134  0.0470 -0.1992
 2216lim     li13016   5.485   4.245   4.000 -1.0863  0.4270  1.0966
 2217lim     li13017   5.562   5.379   0.338 -0.6708  0.4211 -0.3583
 2218lim     li13018   0.501   3.541   3.567  0.2354 -0.1687  0.0817
 2219lim     li13019   6.954   2.424   0.281 -0.8687 -0.2649  1.6721
 2220lim     li13020   2.386   3.625   3.124  0.0242 -0.7928 -0.3232
 2221lim     li13021   6.667   0.625   2.964  0.1309 -0.2258  0.5103
 2222lim     li13022   2.712   6.096   1.463  0.2607  0.4586  0.6366
 2223lim     li13023   2.570   4.983   5.390 -0.0523  1.0927  0.0498
 2224lim     li13024   6.177   1.495   6.225 -0.4076  0.6632  0.0718
 2225lim     li13025   3.440   6.610   2.378  0.4306 -0.6811  1.1736
 2226lim     li13026   3.712   2.285   3.075 -0.0321  1.1859  2.1476
 2227lim     li13027   4.239   5.335   0.579  0.2159  0.2860  0.4667
 2228lim     li13028   0.005   0.565   6.840  0.0730  0.2297 -0.0923
 2229lim     li13029   3.036   6.381   5.727  0.5627 -0.0588  0.0737
 2230lim     li13030   0.136   5.464   5.187  0.0876 -0.2112  1.5450
 2231lim     li13031   2.676   3.560   5.413  1.1460  0.7553 -1.2270
 2232lim     li13032   4.328   0.880   3.232  0.1216  0.0572 -0.4358
 2233lim     li13033   4.418   2.319   5.492 -0.2420  0.2303 -1.2912
 2234lim     li13034   5.827   6.430   3.923  0.0575 -0.5751  0.7893
 2235lim     li13035   2.065   0.840   5.465 -0.9928  0.9550 -0.1590
 2236lim     li13036   4.625   1.496   2.593  0.3467 -0.1042  0.0344
 2237lim     li13037   4.650   1.301   6.921  1.1473 -1.0469 -0.0816
 2238lim     li13038   5.471   0.092   1.156 -0.1992 -0.6824  0.5051
 2239lim     li13039   5.001   2.399   6.883  0.2160  0.4051  0.5783
 2240lim     li13040   3.139   4.019   2.737 -0.1146 -0.1771 -0.0199
 2241lim     li13041   0.125   5.030   0.967  0.8399  1.0069  0.8456
 2242lim     li13042   3.685   7.095   6.012 -0.8433  0.1938  0.1270
 2243lim     li13043   2.341   1.822   5.269  0.1459 -0.6426 -1.1426
 2244lim     li13044   4.058   1.287   4.584 -0.1133  0.5714 -0.5048
 2245lim     li13045   0.415   5.370   6.244  0.3081  0.0344  0.6789
 2246lim     li13046   4.465   5.956   3.344 -0.9729  0.7393  0.7936
 2247lim     li13047   1.358   1.872   5.910  0.7973  0.8263 -0.4120
 2248lim     li13048   2.780   4.832   3.894  0.1844 -0.5331 -0.8057
 2249lim     li13049   0.524   3.662   6.685 -0.4764 -0.2668 -0.0126
 2250lim     li13050   3.633   0.121   1.495 -0.7967 -0.0170 -0.6746
 2251lim     li13051   5.801   4.396   0.588 -0.9403 -0.1488  0.2312
 2252lim     li13052   2.981   1.461   5.133 -0.5932  0.1136  0.2729
 2253lim     li13053   1.831   4.938   6.117 -0.4685  1.1874 -1.1259
 2254lim     li13054   6.732   5.764   6.689  0.5662 -0.4050 -0.1410
 2255lim     li13055   4.557   6.324   5.381 -0.5665  0.2033 -0.6654
 2256lim     li13056   3.261   2.983   6.531  0.0079 -0.4548  0.1255
 2257lim     li13057   3.322   4.701   0.003  0.4177  0.1209 -0.5185
 2258lim     li13058   2.538   3.447   6.286  0.2167  0.2792  0.7378
 2259lim     li13059   5.316   5.616   3.649  0.6281  0.2062  0.0389
 2260lim     li13060   2.288   5.742   7.025 -0.3554  1.1532  0.5872
 2261lim     li13061   5.448   3.811   5.034  0.5694 -0.1558  0.6163
 2262lim     li13062   3.946   3.097   1.458  0.3279  1.4444 -0.3561
 2263lim     li13063   5.828   2.205   3.610 -0.2279 -0.1440 -0.1166
 2264lim     li13064   0.394   5.915   3.708  0.5104 -1.5905 -0.0321
 2265lim     li13065   5.786   4.840   3.552  0.8194 -0.5873  0.3233
 2266lim     li13066   1.702   5.309   5.713 -1.0186 -0.0825 -0.4464
 2267lim     li13067   4.756   0.029   1.769  0.4695  1.3809 -0.5363
 2268lim     li13068   1.134   4.469   4.889 -0.0768  0.6502 -0.6907
 2269lim     li13069   2.694   4.345   0.743  0.5106  0.6261 -0.4317
 2270lim     li13070   5.488   2.576   0.205 -0.6782  0.8122 -1.4132
 2271lim     li13071   1.388   0.749   2.616 -0.0604 -0.3061 -0.9855
 2272lim     li13072   2.951   2.818   5.638  0.6310 -0.9412 -0.1322
 2273lim     li13073   0.939   4.592   0.931 -0.2357 -0.6260  0.1528
 2274lim     li13074   5.608   6.168   5.937  1.6949  0.8996 -0.1012
 2275lim     li13075   6.179   0.015   7.085  1.2101  0.0816 -0.4527
 2276lim     li13076   6.312   6.372   0.490 -0.3236  0.2246  0.5246
 2277lim     li13077   3.387   3.167   2.404  0.5045 -0.1722  0.1046
 2278lim     li13078   4.443   3.747   1.822  0.6173 -1.2412  0.8572
 2279lim     li13079   6.655   4.801   3.695 -0.7948  1.4846  0.1660
 2280lim     li13080   6.337   3.306   0.760 -0.6094  0.5265 -0.8022
 2281lim     li13081   3.153   5.931   2.155 -0.2337  0.6618 -0.3890
 2282lim     li13082   1.880   3.107   1.769 -0.5145 -0.9808 -2.0879
 2283lim     li13083   6.842   0.642   0.308 -0.2894 -0.0305 -0.2420
 2284lim     li13084   2.968   7.095   2.153 -1.2155  0.8276  0.6975
 2285lim     li13085   5.641   3.856   6.140 -0.7235 -0.3259  0.5318
 2286lim     li13086   5.825   5.061   1.893 -0.7981 -0.1548 -0.1092
 2287lim     li13087   2.817   1.356   2.237 -0.0813 -0.9579  0.7022
 2288lim     li13088   3.573   2.776   0.086  1.0853 -0.3385 -0.2837
 2289lim     li13089   1.243   2.736   5.086 -0.6194 -0.3736  0.1059
 2290lim     li13090   6.904   4.649   6.196  0.0061  0.1028 -0.8919
 2291lim     li13091   2.307   0.626   0.786  0.7074 -0.9661  0.3327
 2292lim     li13092   4.549   6.794   0.778 -0.2879  0.5794 -0.6565
 2293lim     li13093   1.846   1.689   4.495  0.1578 -0.6709 -0.1929
 2294lim     li13094   0.297   1.895   1.453  0.3975  0.3407  0.1274
 2295lim     li13095   6.535   0.982   5.491  0.7113 -0.5504 -0.8575
 2296lim     li13096   1.097   0.928   1.653 -0.5450  0.7125 -0.0977
 2297lim     li13097   6.989   0.489   6.003 -0.0151 -0.1725  0.3463
 2298lim     li13098   5.809   0.212   4.336  0.1276 -0.2058 -0.0171
 2299lim     li13099   4.556   5.350   1.546 -0.2129 -1.8163  1.3066
 2300lim     li13100   2.588   4.939   6.202 -0.0957  0.8648 -0.4629
 2301lim     li13101   2.353   3.409   4.441  1.1313  0.0671 -0.0630
 2302lim     li13102   5.221   6.134   1.569  0.4318  0.3730  0.2973
 2303lim     li13103   3.397   4.386   3.865  0.4865 -0.5908  1.1689
 2304lim     li13104   4.912   2.344   3.319 -0.5824  1.2395  0.2807
 2305lim     li13105   0.852   0.225   4.640  1.3602 -1.7608  1.0632
 2306lim     li13106   1.872   1.060   3.113 -0.5386 -1.3129  0.5639
 2307lim     li13107   0.694   0.496   2.963 -0.0156  0.0338 -0.8521
 2308lim     li13108   4.886   1.027   1.905  0.6996 -0.0327  0.1774
 2309lim     li13109   1.355   4.787   0.183  0.8375  0.0780  0.1594
 2310lim     li13110   1.911   2.400   1.957  0.5725 -0.7918 -0.6205
 2311lim     li13111   4.305   5.850   4.130  0.2402  0.8209  0.0211
 2312lim     li13112   6.691   3.154   3.896 -0.2711  0.2821 -0.4857
 2313lim     li13113   0.267   1.176   6.975 -1.0329 -0.4059 -0.5213
 2314lim     li13114   4.986   3.305   6.093 -0.1638  0.2388 -0.5186
 2315lim     li13115   0.709   5.739   1.226  0.4265  1.0374 -0.1541
 2316lim     li13116   3.778   1.702   3.734 -0.0064 -0.0876 -0.6784
 2317lim     li13117   1.113   1.564   6.369 -0.9601 -0.6271  0.1812
 2318lim     li13118   3.629   2.919   5.023  1.1246 -0.6404 -0.3597
 2319lim     li13119   1.042   1.664   1.426  0.1596 -0.0314 -0.0373
 2320lim     li13120   4.190   3.037   5.943 -1.4231 -0.1999  0.7438
 2321lim     li13121   5.425   1.470   0.819 -0.1719 -0.8891  0.7817
 2322lim     li13122   5.181   6.336   3.028 -0.3804  0.7570  0.6224
 2323lim     li13123   1.577   1.233   5.082  0.6359 -0.0386 -1.1475
 2324lim     li13124   5.687   5.643   2.264 -0.3209  0.1360  0.3709
 2325lim     li13125   4.194   4.922   3.177 -0.8065 -0.9129 -0.5078
 2326lim     li13126   2.119   5.026   1.684 -1.0452 -0.5880 -0.5876
 2327lim     li13127   6.023   1.686   6.805 -0.8605  0.6965  0.9332
 2328lim     li13128   1.544   4.134   1.267  0.0712  0.1223 -0.1301
 2329lim     li13129   4.279   1.221   0.666  0.1071 -0.9863 -0.8292
 2330lim     li13130   5.925   0.146   5.412  0.0320 -0.4066  0.7891
 2331lim     li13131   1.957   0.302   4.528 -0.3648 -0.4918  0.2131
 2332lim     li13132   4.469   2.372   2.697  0.3022  0.6371 -0.9702
 2333lim     li13133   1.499   1.957   3.950 -0.3446 -0.7208  0.4755
 2334lim     li13134   1.456   5.657   3.119 -0.6051 -0.1495  0.4630
 2335lim     li13135   2.027   6.521   6.345  0.1025  0.8355 -0.8640
 2336lim     li13136   4.722   2.247   4.569  0.0540 -0.2750  0.1321
 2337lim     li13137   1.509   6.359   5.192  0.2277  0.2970 -0.0881
 2338lim     li13138   1.178   3.582   4.588  0.9835  0.1846  0.3446
 2339lim     li13139   3.311   4.366   6.388 -0.3317  0.0420  0.5602
 2340lim     li13140   1.157   3.865   1.761 -0.0868 -1.1767 -0.0016
 2341lim     li13141   3.517   5.448   5.471  1.0709 -0.6923 -0.9130
 2342lim     li13142   0.127   1.278   1.823  1.0779  1.3817  0.0540
 2343lim     li13143   0.161   3.566   1.887 -0.3580  0.7717 -0.3125
 2344lim     li13144   5.425   1.247   1.282  0.7409 -0.4367 -0.5362
 2345lim     li13145   2.568   4.365   4.486  0.0758 -0.4281  0.7002
 2346lim     li13146   4.430   0.627   2.179  0.9025  0.5555  0.0488
 2347lim     li13147   3.353   0.392   4.076 -0.3712  0.2875  0.4072
 2348lim     li13148   0.314   5.600   2.410 -0.8283  0.8878  1.4353
 2349lim     li13149   4.949   4.007   2.269  1.0746  0.4296  0.1748
 2350lim     li13150   1.639   2.522   5.601 -0.1110  0.2229 -0.1034
 2351lim     li13151   5.319   7.012   4.873 -1.1548 -0.8108  0.1118
 2352lim     li13152   3.470   6.098   3.722  0.7573 -0.4418 -0.7029
 2353lim     li13153   4.285   4.039   6.710  0.4746  0.3953 -0.7238
 2354lim     li13154   0.628   4.081   5.844  0.1436 -0.2815  1.3990
 2355lim     li13155   4.179   5.302   5.757 -0.7700  0.2639  0.0671
 2356lim     li13156   5.322   1.598   2.132 -0.4218  0.5932 -0.8819
 2357lim     li13157   1.933   6.799   5.571 -0.3096  0.0101  0.5929
 2358lim     li13158   0.754   4.638   2.164  0.3355  0.9369  0.2357
 2359lim     li13159   1.622   6.396   0.347  0.6217 -1.5652 -0.0876
 2360lim     li13160   1.030   5.229   6.485 -0.6034 -0.2383  0.3156
 2361lim     li13161   3.114   5.424   4.816 -0.4766  0.4368  0.0364
 2362lim     li13162   5.347   1.039   5.415 -0.8022 -0.8390  1.4530
 2363lim     li13163   5.076   0.509   0.913  0.3546 -1.6763 -0.6734
 2364lim     li13164   6.182   2.724   4.712  0.5443 -0.3687 -1.0052
 2365lim     li13165   7.007   3.028   5.843  1.9199  0.3822 -1.3566
 2366lim     li13166   6.174   6.411   6.492 -0.8183 -0.6414 -1.7628
 2367lim     li13167   3.407   5.180   0.204 -0.2994  0.0893  0.4045
 2368lim     li13168   0.189   0.477   5.142 -0.4199  0.4206  0.4048
 2369lim     li13169   6.665   6.941   5.531  0.6801  0.3288  0.0132
 2370lim     li13170   4.087   1.405   1.711 -0.3735  0.0287 -0.2556
 2371lim     li13171   7.104   4.474   5.367  0.4688  1.0823  0.5901
 2372lim     li13172   3.849   5.645   6.307  0.7627  0.3787  0.1991
 2373lim     li13173   4.322   5.732   2.456 -0.4663 -0.3909  1.0910
 2374lim     li13174   3.067   1.828   3.606 -1.6736 -0.9881  0.1518
 2375lim     li13175   6.718   0.443   1.426 -0.3306  0.7172 -0.2487
 2376lim     li13176   3.877   1.336   2.671  0.5022 -0.1401  0.2412
 2377lim     li13177   6.404   0.291   3.766  0.6047 -0.5091  0.4360
 2378lim     li13178   0.131   5.886   0.163 -0.5467  0.1330  0.0121
 2379lim     li13179   6.594   3.773   5.802  0.5355 -0.1368 -0.0552
 2380lim     li13180   3.842   2.015   5.587 -1.1036  0.3994 -0.2632
 2381lim     li13181   3.156   2.405   4.713  0.5594 -0.1352  0.9051
 2382lim     li13182   7.013   5.954   0.948  0.4966 -0.0560  0.2104
 2383lim     li13183   1.756   6.175   3.976  0.6388  0.5671  0.0144
 2384lim     li13184   5.463   3.503   1.099 -0.1462  0.3696  0.8993
 2385lim     li13185   3.789   3.810   0.050 -0.3509 -0.0828 -0.3550
 2386lim     li13186   3.967   4.828   4.987 -0.1036  0.0084  0.1608
 2387lim     li13187   3.582   4.373   3.147  0.0311 -0.8592  0.3916
 2388lim     li13188   1.431   1.529   2.210  0.0504  0.3540 -1.7762
 2389lim     li13189   4.969   6.518   6.810 -0.3406  0.5893  0.1227
 2390lim     li13190   4.719   4.751   2.138  0.2784  0.4361 -0.1770
 2391lim     li13191   3.952   3.430   4.713 -0.0355  0.9640 -0.7530
 2392lim     li13192   4.080   3.400   3.674 -0.7660  0.3925 -0.7710
 2393lim     li13193   1.741   3.640   4.241 -0.5071  0.3500 -0.5904
 2394lim     li13194   1.855   4.144   4.897  0.1013  0.8965 -0.8054
 2395lim     li13195   1.659   6.773   1.497 -0.1157  0.6067  0.2090
 2396lim     li13196   3.754   6.182   4.715  0.7165 -0.1011  0.5284
 2397lim     li13197   6.056   3.084   6.581  0.8207 -0.5542  1.1465
 2398lim     li13198   2.159   2.370   3.498  0.2966 -0.0211  0.1873
 2399lim     li13199   3.696   0.640   2.127 -0.3945 -0.3729 -0.8072
 2400lim     li13200   3.945   0.302   0.945  0.8575  0.4607 -1.0788
 2401lim     li13201   0.415   6.737   3.959 -0.5411 -0.7440 -0.8684
 2402lim     li13202   6.534   2.258   0.910 -0.3280  0.0206 -0.0165
 2403lim     li13203   6.971   6.610   6.482 -0.1798 -0.4492 -0.2931
 2404lim     li13204   5.902   2.086   1.187 -1.2005  0.0840  0.1211
 2405lim     li13205   3.259   0.303   0.349  1.6190 -0.4350 -0.9622
 2406lim     li13206   3.197   3.921   1.952 -0.8832 -0.2601  0.3457
 2407lim     li13207   1.757   5.677   5.119  0.2389 -0.7719 -0.5073
 2408lim     li13208   4.940   6.658   2.636 -1.0925  0.3712 -0.0995
 2409lim     li13209   0.833   3.894   1.256 -0.1427 -0.3504 -0.0894
 2410lim     li13210   2.583   3.533   6.986  0.5562 -0.3023 -0.0564
 2411lim     li13211   0.045   0.326   2.163 -0.3806 -0.0427  0.4792
 2412lim     li13212   1.237   3.099   1.217  0.3711  0.5718 -0.3311
 2413lim     li13213   2.665   5.881   5.973  0.3873 -0.2356  0.8094
 2414lim     li13214   1.685   1.007   4.294  0.7103  0.1360  0.4983
 2415lim     li13215   2.083   6.605   0.725 -0.3849  0.2428 -0.3348
 2416lim     li13216   6.727   4.157   0.893 -1.4596 -0.3609 -0.2572
 2417lim     li13217   0.430   2.784   1.024  1.2503  0.7054 -0.7628
 2418lim     li13218   0.903   2.164   4.655  0.5918 -0.3280 -0.4118
 2419lim     li13219   4.515   5.062   6.668 -0.1594  0.9001 -0.0614
 2420lim     li13220   4.814   4.606   0.399  0.6425 -0.1308 -0.3528
 2421lim     li13221   1.842   0.025   3.918  0.8701 -0.1154  0.2214
 2422lim     li13222   6.245   0.778   6.798 -0.3977 -0.4609  0.9539
 2423lim     li13223   1.842   2.625   4.770 -0.0434  0.0091  0.4325
 2424lim     li13224   2.717   0.691   3.466 -0.6488 -0.7187 -0.3852
 2425lim     li13225   6.391   4.932   4.688 -0.0237  0.0088 -0.8415
 2426lim     li13226   7.012   2.782   6.515 -0.2140  0.2723  0.8176
 2427lim     li13227   5.879   2.830   4.227 -0.3870 -0.0337 -0.9126
 2428lim     li13228   2.535   5.582   5.161 -0.3262 -0.3970 -0.8721
 2429lim     li13229   0.000   5.358   3.059 -0.1993 -0.7747  0.5653
 2430lim     li13230   4.124   6.938   2.380 -0.2714  0.3775  0.0522
 2431lim     li13231   4.258   1.478   1.128 -0.3733 -0.0680  0.2715
 2432lim     li13232   5.543   4.457   6.621  1.1060  0.9449  0.3206
 2433lim     li13233   2.464   1.344   0.445 -1.2780 -0.5771 -0.5563
 2434lim     li13234   3.093   4.846   1.201  1.0648 -0.4987 -0.1781
 2435lim     li13235   5.954   1.185   4.727 -0.4489  0.9674 -0.5768
 2436lim     li13236   0.535   2.951   0.275  0.0509  0.5833  1.2080
 2437lim     li13237   2.023   2.768   6.406 -0.1713 -0.1401 -0.1146
 2438lim     li13238   0.445   1.966   2.539  0.1193  0.9505 -0.0649
 2439lim     li13239   4.121   6.667   1.024  0.0582 -0.2018 -0.3315
 2440lim     li13240   0.847   5.889   5.837  0.0858  0.1607 -0.4194
 2441lim     li13241   2.040   1.500   1.657  0.1001 -0.8267  0.4353
 2442lim     li13242   1.937   6.093   1.930  0.1304  0.4346 -0.7005
 2443lim     li13243   2.074   4.211   6.422  0.2345  0.6285  1.4548
 2444lim     li13244   5.853   6.910   1.792 -0.3866 -0.2811 -0.2446
 2445lim     li13245   1.600   6.806   2.319  0.8087 -1.1365 -0.1960
 2446lim     li13246   0.826   6.456   0.489  1.0152 -0.7195 -0.2928
 2447lim     li13247   2.713   5.096   2.043 -0.2974  0.0544 -0.4209
 2448lim     li13248   2.404   4.065   1.618 -0.2520 -0.6430  0.0011
 2449lim     li13249   3.370   5.117   2.251 -0.4779  1.0144  0.0806
 2450lim     li13250   5.668   0.815   6.462 -0.7139  0.2650 -0.1933
 2451lim     li13251   5.912   2.561   2.503 -0.0868 -0.3992 -0.7820
 2452lim     li13252   2.228   4.429   2.596  0.8469  1.0281 -0.2389
 2453lim     li13253   4.969   5.569   2.321  1.4691 -1.1417  0.4620
 2454lim     li13254   1.710   1.167   6.002  0.0253 -0.5193  0.5318
 2455lim     li13255   0.431   5.305   0.250  1.0151  0.9079 -0.7664
 2456lim     li13256   6.377   3.585   2.446 -0.4509  1.2030  0.8718
 2457lim     li13257   5.231   0.752   2.468 -0.3094 -0.9570  0.2777
 2458lim     li13258   2.655   4.690   6.989  0.0761 -0.0834  0.3980
 2459lim     li13259   2.134   1.012   1.849 -0.3041 -0.4528  0.7276
 2460lim     li13260   3.213   2.629   0.503 -0.0843  0.0143 -0.1210
 2461lim     li13261   2.796   1.582   1.373 -0.3748 -0.2016  0.1383
 2462lim     li13262   6.977   6.575   1.052  0.9991  1.1946  0.2409
 2463lim     li13263   5.357   5.371   2.924 -1.0874  0.3964 -0.1212
 2464lim     li13264   5.706   6.497   7.098 -0.0364  0.1408  0.6576
 2465lim     li13265   2.425   0.411   2.708 -1.7795 -0.0071  0.2948
 2466lim     li13266   2.526   3.335   1.309  0.1640 -0.3865  0.1768
 2467lim     li13267   1.791   0.582   0.935  0.2592  0.5093 -0.1291
 2468lim     li13268   2.836   6.610   4.420 -0.9427 -0.2727 -1.0860
 2469lim     li13269   6.899   1.317   4.556  0.7075  0.8014  0.2931
 2470lim     li13270   4.315   0.389   6.917 -0.1858  0.5233 -0.5263
 2471lim     li13271   5.780   0.807   3.873  0.4466  0.3669  1.2487
 2472lim     li13272   5.079   0.065   7.053  0.4672  0.4538  0.2903
 2473lim     li13273   3.658   0.254   4.893 -0.4929 -0.2430 -0.0916
 2474lim     li13274   4.751   3.967   3.492 -0.4931 -0.2240 -0.0755
 2475lim     li13275   5.599   4.037   1.368 -0.4878  0.1336 -0.3757
 2476lim     li13276   1.105   2.722   3.682  0.5047  1.1377  0.0889
 2477lim     li13277   3.394   4.770   0.612 -0.7029 -0.8326 -0.3492
 2478lim     li13278   5.824   3.549   2.450 -0.2068  0.1731 -0.2650
 2479lim     li13279   4.820   4.420   5.700  0.1380 -1.6127 -0.1825
 2480lim     li13280   4.547   0.616   6.362  0.2312 -0.2365 -0.5108
 2481lim     li13281   2.685   1.637   4.157  0.1340  0.5460 -0.4900
 2482lim     li13282   4.123   5.742   7.107 -0.8316  0.1596  0.6113
 2483lim     li13283   0.849   2.884   6.755 -0.8945 -1.0992 -0.1966
 2484lim     li13284   0.203   6.636   1.700 -0.2080 -2.4201 -0.2729
 2485lim     li13285   6.984   6.425   3.157  0.3533 -0.0921 -0.7098
 2486lim     li13286   4.784   2.929   1.855  0.0654  1.0681 -0.7135
 2487lim     li13287   2.699   2.998   2.471  0.3453  0.6121 -0.5724
 2488lim     li13288   4.362   3.389   2.725  0.2162  0.3873  0.4773
 2489lim     li13289   3.813   5.045   1.694  0.5710  0.4846  0.4654
 2490lim     li13290   6.630   2.771   3.253 -0.4551  0.0741  0.1762
 2491lim     li13291   0.787   6.103   4.429 -0.2514 -0.2687 -0.1659
 2492lim     li13292   2.031   2.060   2.586  0.9714  0.2641  0.0361
 2493lim     li13293   1.214   4.301   5.661 -0.3628 -0.1471  0.2592
 2494lim     li13294   2.296   5.162   3.014 -0.2142 -0.8573  0.3593
 2495lim     li13295   0.917   1.140   0.596  0.0176 -1.3017  0.2032
 2496lim     li13296   2.787   6.936   6.492  0.8747 -0.5779  1.2081
 2497lim     li13297   6.506   4.930   5.762  0.5603 -0.3344  0.8614
 2498lim     li13298   5.259   0.690   0.074 -0.2191 -0.0729  0.4349
 2499lim     li13299   4.843   3.231   5.091  0.2120  0.2025 -1.1618
 2500lim     li13300   6.949   1.343   2.945 -0.4216  0.9121 -0.9403
 2501lim     li13301   6.289   0.951   1.033 -0.8221 -0.4724  0.4462
 2502lim     li13302   6.010   1.292   2.081 -0.1411 -0.1234 -0.1690
 2503lim     li13303   0.642   6.267   2.696 -0.5926 -0.5212  1.1718
 2504lim     li13304   1.349   0.493   5.868  0.5492  0.2832 -0.9389
 2505lim     li13305   4.482   7.052   3.473 -0.4245  0.8249  0.1706
 2506lim     li13306   2.809   2.609   3.051  0.2830 -0.4980 -0.2358
 2507lim     li13307   4.876   6.281   5.970  0.0399 -1.1570 -0.5297
 2508lim     li13308   6.245   6.092   3.739 -0.2535  0.6375 -0.6119
 2509lim     li13309   3.849   6.102   1.201  0.1628  0.5125 -0.0188
 2510lim     li13310   5.589   5.161   6.852  0.1961 -0.0438 -0.3023
 2511lim     li13311   4.905   0.107   5.631  0.1943  0.9428 -0.1845
 2512lim     li13312   5.974   5.454   4.477  0.2195  0.2229  0.3307
 2513lim     li13313   5.873   4.389   3.953  0.8640 -0.7899 -0.1192
 2514lim     li13314   4.088   4.454   5.951  0.2821  0.3678 -0.0386
 2515lim     li13315   6.699   5.009   2.220 -0.9271  0.2977 -0.8647
 2516lim     li13316   2.550   2.659   5.120  0.9723 -0.4090 -0.4289
 2517lim     li13317   1.441   5.235   6.839  0.1989 -0.3567 -0.4830
 2518lim     li13318   6.195   5.706   0.732 -1.1406 -0.8223  0.1386
 2519lim     li13319   5.382   5.278   5.867  0.5687 -0.2064  0.3329
 2520lim     li13320   4.712   6.472   4.518 -0.4185  0.1732 -0.4105
 2521lim     li13321   6.611   5.394   1.495  0.8012  0.6630  1.2262
 2522lim     li13322   7.002   3.151   1.027 -0.4434  0.8751  0.0692
 2523lim     li13323   1.556   5.379   0.464  0.4182  0.4951  0.6704
 2524lim     li13324   3.809   0.685   0.133 -0.1990  0.3480  0.7778
 2525lim     li13325   3.200   3.555   4.534 -2.0549 -0.3840  0.7031
 2526lim     li13326   4.408   2.831   6.996  0.2235 -0.1962  0.4513
 2527lim     li13327   6.772   6.896   0.429 -0.8004  1.5510 -0.1698
 2528lim     li13328   0.967   1.165   3.768 -0.7326 -0.0813 -0.4355
 2529lim     li13329   1.893   0.434   2.006  0.4029  0.6485 -0.3333
 2530lim     li13330   6.375   4.637   1.180 -0.0878 -0.4605  0.1805
 2531lim     li13331   0.872   3.650   0.692 -0.2119  0.3672  0.0105
 2532lim     li13332   6.243   3.827   3.463 -0.9151 -0.5226  1.0883
 2533lim     li13333   3.164   1.497   0.337 -0.6612 -0.5665 -0.1259
 2534lim     li13334   1.096   4.017   3.551  0.8123 -0.0719  0.4313
 2535lim     li13335   4.644   1.862   6.340  0.4996  1.2804  1.1866
 2536lim     li13336   0.731   4.847   3.223 -0.1831  0.6696  0.1252
 2537lim     li13337   5.149   3.022   2.648 -0.0494  0.5189 -0.2890
 2538lim     li13338   5.689   0.139   6.278 -0.4757 -0.0740 -1.8357
 2539lim     li13339   4.484   3.191   0.775  0.1804  0.5194  0.0422
 2540lim     li13340   5.036   0.191   3.509  1.2235  0.2262  0.0977
 2541lim     li13341   3.093   1.748   6.536 -0.3115 -0.3038 -0.2649
 2542lim     li13342   3.752   1.910   0.666 -0.5107 -0.9878 -0.3161
 2543lim     li13343   4.904   2.944   3.941  0.3130  1.1007 -0.8254
 2544lim     li13344   2.674   0.656   4.546  1.2657 -0.1306 -0.4960
 2545lim     li13345   6.726   2.509   1.859  0.2860  0.3585 -2.0641
 2546lim     li13346   4.572   5.326   5.323  1.0801 -0.0444  0.7738
 2547lim     li13347   2.002   5.600   1.312  0.4661  0.2030 -0.3032
 2548lim     li13348   6.578   2.620   5.807  0.3476  0.2010  0.0330
 2549lim     li13349   2.194   4.161   3.523  0.0431  1.2144  1.5659
 2550lim     li13350   5.330   5.232   1.097 -0.3137 -0.0210 -0.4290
 2551lim     li13351   4.750   2.914   1.253 -0.2405 -0.3830  0.1405
 2552lim     li13352   5.730   1.834   5.453  0.3806  0.1627 -0.2890
 2553lim     li13353   1.199   0.912   6.903  0.4461 -0.0783  0.1758
 2554lim     li13354   2.848   6.975   0.893  1.5831 -0.6813 -0.2315
 2555lim     li13355   4.121   2.149   6.691 -0.0858 -0.5377  0.0656
 2556lim     li13356   4.420   3.892   5.423  0.4847 -0.7407  0.4904
 2557lim     li13357   5.453   4.783   2.526 -0.6799 -0.2196 -0.4916
 2558lim     li13358   0.830   3.442   2.516  0.8520 -0.4585 -0.0965
 2559lim     li13359   4.812   2.269   0.693 -0.8659  0.6164  0.2256
 2560lim     li13360   3.736   1.308   5.279 -0.0299  0.0852 -0.3826
 2561lim     li13361   2.984   2.026   7.012  0.2581  0.1424 -0.0292
 2562lim     li13362   0.191   2.388   4.566 -0.0617  0.0055 -0.6427
 2563lim     li13363   5.454   4.747   5.011  2.5169 -0.4772 -0.8071
 2564lim     li13364   1.229   2.164   3.090  0.0486  1.4715 -1.0337
 2565lim     li13365   3.183   6.568   4.865  0.4167 -0.6101 -0.2879
 2566lim     li13366   2.840   0.542   5.864  0.6104 -0.0080  0.5548
 2567lim     li13367   5.947   4.304   5.418 -0.0831  0.0522 -0.4668
 2568lim     li13368   1.695   3.396   5.581  0.2434  0.0370 -0.8115
 2569lim     li13369   1.717   1.716   0.858 -0.9216  1.3510 -0.4443
 2570lim     li13370   3.398   1.081   4.410  0.1439 -1.6373  0.1789
 2571lim     li13371   0.421   0.795   0.869 -0.3622  0.1938  0.2367
 2572lim     li13372   2.136   2.841   4.064  0.7854 -0.6863  1.3603
 2573lim     li13373   3.029   6.128   7.055 -1.1089 -0.9289 -0.3671
 2574lim     li13374   6.925   3.689   5.191  0.1865  0.2249  0.1501
 2575lim     li13375   4.834   6.123   0.677  0.7906  0.4735  0.5193
 2576lim     li13376   0.793   4.040   7.076 -0.2484  1.3553  1.3137
 2577lim     li13377   3.099   2.684   3.952  0.2071 -0.3139 -0.9775
 2578lim     li13378   4.035   6.904   4.010  0.2211 -1.5189  0.0772
 2579lim     li13379   5.220   2.087   2.419 -0.0578  0.5752  0.0284
 2580lim     li13380   5.689   2.487   5.950 -0.2592  0.7390 -0.1770
 2581lim     li13381   6.168   3.957   0.003 -0.4291 -1.5319 -0.2377
 2582lim     li13382   4.225   6.273   2.120  0.0844 -1.0339  0.5179
 2583lim     li13383   2.020   4.327   5.383  0.8657  0.1602 -0.2551
 2584lim     li13384   0.717   0.485   6.218 -0.1749  0.6987 -0.5492
 2585lim     li13385   6.020   0.224   3.213 -1.8005 -0.5786  1.2573
 2586lim     li13386   0.853   4.791   6.663 -0.0239 -0.2489  0.2647
 2587lim     li13387   4.114   4.340   0.889 -0.7478 -0.4717  0.1646
 2588lim     li13388   5.903   5.338   3.835  1.3657 -0.7427 -0.0116
 2589lim     li13389   3.226   2.086   5.659 -0.2818 -0.3034  0.3614
 2590lim     li13390   6.777   3.562   7.080 -1.0925 -0.2107  0.3154
 2591lim     li13391   2.319   2.473   0.989  0.3931 -0.0607  0.2530
 2592lim     li13392   0.525   4.596   4.623  0.8814 -1.1528  0.8897
 2593lim     li13393   0.630   0.258   4.039 -0.8078 -0.5906  0.3108
 2594lim     li13394   3.802   6.830   3.091  0.3739 -1.1437 -0.0185
 2595lim     li13395   5.141   5.814   4.769  0.6053 -0.1831  0.1353
 2596lim     li13396   3.368   3.875   5.862  1.6036 -1.1541  0.6598
 2597lim     li13397   3.526   0.667   3.041  0.0934 -0.3360 -0.0619
 2598lim     li13398   0.460   6.494   5.728 -1.3220 -0.7163  0.7542
 2599lim     li13399   2.776   5.851   0.751 -0.4918  0.1679 -0.0068
 2600lim     li13400   1.397   4.662   2.768  0.9163 -0.6183  0.3601
 2601lim     li13401   3.652   6.278   0.207  0.8983 -0.8458 -0.7243
 2602lim     li13402   0.262   1.461   4.164 -0.0348 -0.4047  0.6733
 2603lim     li13403   3.756   6.849   0.028 -1.2414 -0.4185 -0.7462
 2604lim     li13404   4.830   3.848   6.758 -0.1903 -0.2602  0.0575
 2605lim     li13405   1.147   6.520   3.319 -0.1464 -0.0321  1.3254
 2606lim     li13406   0.722   2.036   0.211 -0.2926  0.5031 -0.2764
 2607lim     li13407   1.533   5.414   4.631  0.9701 -0.4624  0.2007
 2608lim     li13408   3.695   2.348   1.865  0.4572 -0.8069  0.0486
 2609lim     li13409   0.432   1.955   5.246 -0.0242 -0.0065  0.3560
 2610lim     li13410   0.760   2.469   1.997  0.1554 -0.6757 -0.5355
 2611lim     li13411   1.288   2.307   0.426  1.0545 -0.5619  0.4989
 2612lim     li13412   6.589   2.176   4.621  0.8162  0.6649 -0.2528
 2613lim     li13413   0.811   2.601   6.038  0.3734 -0.7222 -0.1582
 2614lim     li13414   3.863   2.595   4.333 -0.8246 -0.3978 -1.0882
 2615lim     li13415   7.034   6.817   5.007 -0.5213 -0.2642  0.2085
 2616lim     li13416   1.302   2.760   2.905  0.7687 -0.3150  0.4746
 2617lim     li13417   2.420   3.591   0.382 -0.8017  0.9030  0.3734
 2618lim     li13418   0.899   6.421   1.151  0.9326  1.0548 -1.2982
 2619lim     li13419   5.392   3.878   3.108 -0.2642 -0.3593 -0.1143
 2620lim     li13420   0.255   2.176   3.149  1.1341  0.2171  0.2749
 2621lim     li13421   6.450   5.201   0.118 -0.3983  0.0824  0.5104
 2622lim     li13422   0.143   7.065   3.274  0.1337  0.0968  0.4205
 2623lim     li13423   1.193   6.102   6.490  0.5841 -0.0321  0.0250
 2624lim     li13424   2.855   0.396   1.378 -0.4306  0.5421 -0.4116
 2625lim     li13425   6.376   3.276   1.861  1.9048  0.8039 -0.7278
 2626lim     li13426   2.703   5.993   3.929 -0.5849 -0.4895 -1.5821
 2627lim     li13427   0.265   4.503   3.624 -0.4776 -0.0702 -1.0144
 2628lim     li13428   0.843   6.454   4.884 -1.7899 -0.7239 -0.5458
 2629lim     li13429   3.284   7.022   3.511  0.0258  0.2034 -0.2128
 2630lim     li13430   3.056   1.807   2.525 -0.7960  1.3749 -1.4009
 2631lim     li13431   4.074   4.587   2.533  0.2273  0.6054 -0.7533
 2632lim     li13432   1.319   4.478   4.351 -0.2019  0.1165 -0.1845
 2633lim     li13433   2.011   5.808   6.159 -0.8018 -0.9380 -1.5619
 2634lim     li13434   3.794   1.807   2.394 -0.1681  0.2897  0.1847
 2635lim     li13435   7.052   0.526   3.904  0.0476  1.0798 -0.3421
 2636lim     li13436   1.435   0.188   3.435  0.4837 -1.0378  0.8086
 2637lim     li13437   3.576   5.559   1.126 -0.4098 -0.8282 -0.1411
 2638lim     li13438   4.752   4.381   4.576  0.2075  0.4782 -0.0092
 2639lim     li13439   1.604   0.143   0.094 -0.9136 -0.1240  0.3652
 2640lim     li13440   0.620   5.192   5.207  0.5162 -0.1580  0.5676
 2641lim     li13441   5.041   3.523   4.154  0.2270  0.7076  0.8155
 2642lim     li13442   2.529   0.046   5.337 -1.1018 -1.4248 -0.5245
 2643lim     li13443   3.952   2.151   1.135  0.1515 -0.7749  0.4500
 2644lim     li13444   6.895   2.116   6.638  1.3945 -0.3373 -0.7101
 2645lim     li13445   3.821   5.302   3.958 -1.1495 -0.0319  0.1866
 2646lim     li13446   3.683   3.125   3.096  0.8161  0.1743  0.2678
 2647lim     li13447   5.811   1.542   2.956 -1.1653 -0.9318 -0.9118
 2648lim     li13448   4.812   2.105   1.514  0.9258  1.3340  0.0185
 2649lim     li13449   4.021   6.375   6.273  0.2187  0.4734  0.0544
 2650lim     li13450   1.729   3.808   2.348  0.2455 -0.3426  1.7866
 2651lim     li13451   5.282   3.490   0.266  0.3691 -1.2395  1.1588
 2652lim     li13452   6.079   0.458   2.056 -0.7859  0.6033 -0.4225
 2653lim     li13453   1.971   6.524   4.636  0.3555 -0.6383 -0.6839
 2654lim     li13454   0.138   3.469   2.836  0.9343 -1.4196  0.4666
 2655lim     li13455   1.016   6.803   2.184  0.9105 -0.1480  0.9366
 2656lim     li13456   0.934   5.338   3.855 -0.2165 -0.4394 -0.2248
 2657lim     li13457   2.740   2.348   1.585  0.2035 -0.0706 -0.1481
 2658lim     li13458   5.029   1.720   3.812 -0.0590  0.7439 -0.0160
 2659lim     li13459   2.511   3.454   3.680 -1.1200 -0.5013  0.5044
 2660lim     li13460   7.088   1.505   0.436 -0.9156 -0.7218  1.5667
 2661lim     li13461   5.767   5.031   6.047  0.2310  0.9076  0.1628
 2662lim     li13462   0.640   6.736   6.706  0.5087  0.7679 -0.1079
 2663lim     li13463   6.846   4.078   2.856  0.4536  1.5662  1.5014
 2664lim     li13464   0.049   2.803   2.262 -0.2454 -0.1104  0.6542
 2665lim     li13465   7.041   0.797   1.821 -1.0571 -0.5634  0.2357
 2666lim     li13466   6.479   2.262   2.879  0.7801 -0.1086  0.0449
 2667lim     li13467   1.496   4.838   1.846 -1.1119  0.0053 -0.4335
 2668lim     li13468   0.814   4.222   2.849  1.5524 -1.0602 -1.2672
 2669lim     li13469   0.812   0.918   4.876 -0.1854 -0.3400  0.2497
 2670lim     li13470   2.918   2.895   1.677  0.2915  0.5941  0.5318
 2671lim     li13471   0.938   0.357   0.505 -0.2988  0.3353  0.2170
 2672lim     li13472   0.699   0.249   1.682 -0.5632  0.2276 -0.0304
 2673lim     li13473   3.595   3.775   1.255  1.9931  0.2535 -0.2485
 2674lim     li13474   2.099   0.529   6.850 -0.6339 -0.4729 -0.4624
 2675lim     li13475   4.366   0.833   4.385  0.9261 -0.5572  0.3795
 2676lim     li13476   5.045   0.695   4.362 -1.1431  0.9305  0.3280
 2677lim     li13477   6.610   1.592   3.524 -0.8666 -1.0023  0.9573
 2678lim     li13478   1.670   3.405   0.499 -0.8156  0.5804  0.5778
 2679lim     li13479   6.822   4.791   6.788  0.1802  1.0045 -0.3285
 2680lim     li13480   3.884   3.747   4.031  1.0968 -0.0103  1.0761
 2681lim     li13481   3.523   4.940   4.103  0.8397 -0.4372 -0.6028
 2682lim     li13482   5.521   2.960   5.437 -0.2871 -0.3301  0.0430
 2683lim     li13483   6.324   3.785   6.614  0.2184  0.2855  0.0182
 2684lim     li13484   3.049   1.359   6.209 -0.3729 -0.2007 -1.5157
 2685lim     li13485   2.366   1.281   3.144 -0.3503 -0.5905 -0.2896
 2686lim     li13486   2.545   6.642   6.838  1.3318 -0.3295  0.6614
 2687lim     li13487   6.485   5.734   5.651  0.4660  0.5934 -0.4338
 2688lim     li13488   3.123   4.364   5.082 -0.4401 -0.4510  0.0360
 2689lim     li13489   2.406   5.713   2.629 -0.5711  1.2863 -1.2625
 2690lim     li13490   6.081   6.444   5.057  0.8574 -0.7495 -0.5419
 2691lim     li13491   5.059   1.150   6.011 -0.6484  0.3054  0.5381
 2692lim     li13492   6.217   4.482   2.853 -0.1481 -0.3936  0.2256
 2693lim     li13493   5.378   1.749   4.273  0.4939  0.7514 -0.1698
 2694lim     li13494   1.167   5.775   2.276 -0.5558 -0.5707 -0.5846
 2695lim     li13495   5.666   1.497   0.323  0.0039 -0.2743 -0.5364
 2696lim     li13496   6.984   1.752   5.574 -0.3238  0.0977 -0.7570
 2697lim     li13497   6.617   3.334   4.686  1.0502 -0.6712  0.4940
 2698lim     li13498   5.497   0.592   2.840  0.6503 -0.0528  0.4733
 2699lim     li13499   4.009   4.020   2.370  0.2719 -1.0227  0.7715
 2700lim     li13500   0.468   2.654   3.961 -0.1164  0.2556 -0.4692
 2701ntf    cn113501   1.798   5.325   2.640 -0.1128  0.3098 -0.0886
 2701ntf    sn213502   1.843   5.406   2.797 -0.0075  0.2090 -0.0671
 2701ntf    nn313503   1.888   5.550   2.754 -0.2138  0.3220  0.0956
 2701ntf    sn213504   1.991   5.638   2.834  0.1806  0.1772 -0.2518
 2701ntf    cn113505   1.927   5.806   2.808 -0.3274  0.0521  0.1583
 2701ntf    fn413506   1.683   5.368   2.591 -0.2959  0.0111  0.0739
 2701ntf    fn413507   1.888   5.344   2.545 -0.1859  0.5953 -0.1049
 2701ntf    fn413508   1.782   5.195   2.654  0.6156  0.2282  0.0256
 2701ntf    on513509   1.719   5.410   2.871 -0.2596  0.3720 -0.4941
 2701ntf    on513510   1.949   5.323   2.850 -0.9231 -0.8496  0.1634
 2701ntf    on513511   2.123   5.639   2.775  0.3013 -0.0869  0.0132
 2701ntf    on513512   1.985   5.625   2.977 -0.1036 -0.2124 -0.2961
 2701ntf    fn413513   1.798   5.827   2.827 -0.3243  0.0375  0.1937
 2701ntf    fn413514   1.989   5.895   2.883 -0.2537 -0.0654  0.2364
 2701ntf    fn413515   1.960   5.836   2.683 -0.3564 -0.3375  0.0547
 2702ntf    cn113516   0.096   3.901   6.153 -0.0552  0.0859  0.4769
 2702ntf    sn213517   0.136   3.738   6.083 -0.0847  0.2373  0.1041
 2702ntf    nn313518   0.190   3.789   5.944 -0.2552 -0.5557 -0.2562
 2702ntf    sn213519   0.130   3.787   5.799  0.0332 -0.6158 -0.3757
 2702ntf    cn113520   0.128   3.966   5.771  0.3580 -0.5607 -0.0471
 2702ntf    fn413521  -0.018   3.893   6.219 -0.2949 -0.5220  0.0015
 2702ntf    fn413522   0.189   3.946   6.235  0.4720  0.2176 -0.1841
 2702ntf    fn413523   0.071   3.991   6.059  0.5484  0.1464  0.3707
 2702ntf    on513524   0.247   3.680   6.154 -0.2370  0.0017  0.1521
 2702ntf    on513525   0.014   3.661   6.081  0.0363  0.0473  0.1532
 2702ntf    on513526  -0.006   3.741   5.782 -0.3396  0.2098  0.3277
 2702ntf    on513527   0.220   3.738   5.698  0.4110 -0.5531 -0.0722
 2702ntf    fn413528   0.109   3.995   5.643  0.4680  0.5533  0.1773
 2702ntf    fn413529   0.028   4.031   5.827  0.3672 -0.3577 -0.2639
 2702ntf    fn413530   0.237   4.026   5.816 -0.1129  0.1974  0.0960
 2703ntf    cn113531   0.923   0.490   2.205 -0.2266  0.0295 -0.2255
 2703ntf    sn213532   0.872   0.316   2.218  0.2257 -0.0864  0.0169
 2703ntf    nn313533   0.834   0.309   2.370  0.2761 -0.0162  0.0329
 2703ntf    sn213534   0.727   0.381   2.458  0.0221 -0.0506 -0.2453
 2703ntf    cn113535   0.616   0.243   2.500  0.1626  0.0338  0.4155
 2703ntf    fn413536   0.834   0.584   2.231  0.4186  0.4680  0.4148
 2703ntf    fn413537   1.018   0.530   2.288 -0.4668 -0.1851  0.1505
 2703ntf    fn413538   0.975   0.515   2.086  0.2288  0.4087  0.0508
 2703ntf    on513539   0.756   0.307   2.133  0.0898 -0.6405  0.2563
 2703ntf    on513540   0.990   0.243   2.179  0.1775  0.2000 -0.6861
 2703ntf    on513541   0.638   0.479   2.401 -0.5108 -0.3374  0.0773
 2703ntf    on513542   0.787   0.412   2.586  0.0171 -0.7566 -0.0682
 2703ntf    fn413543   0.572   0.179   2.393 -0.1674  0.5346  0.2437
 2703ntf    fn413544   0.684   0.149   2.563 -0.3516 -0.4794  0.2092
 2703ntf    fn413545   0.513   0.275   2.578  0.1086  0.5356  0.1438
 2704ntf    cn113546   0.796   5.703   6.822  0.0782  0.0181  0.3946
 2704ntf    sn213547   0.840   5.527   6.823  0.0057 -0.0085 -0.2953
 2704ntf    nn313548   0.816   5.490   6.974  0.2442 -0.1175 -0.2846
 2704ntf    sn213549   0.914   5.432   7.082 -0.0277  0.0584  0.0542
 2704ntf    cn113550   0.992   5.586   7.141  0.6910 -0.2040 -0.2074
 2704ntf    fn413551   0.872   5.781   6.897 -0.0095  0.1543  0.3442
 2704ntf    fn413552   0.812   5.756   6.701  0.0418 -0.4182  0.1981
 2704ntf    fn413553   0.671   5.711   6.865 -0.1048  0.0346 -0.1289
 2704ntf    on513554   0.749   5.449   6.744 -0.0867 -0.0838 -0.1149
 2704ntf    on513555   0.976   5.523   6.774  0.1744 -0.2034  0.1862
 2704ntf    on513556   1.027   5.357   7.034  0.0524  0.1449  0.1062
 2704ntf    on513557   0.846   5.388   7.202 -0.1865  0.0013 -0.0563
 2704ntf    fn413558   1.077   5.578   7.242  0.2740 -0.2439  0.1444
 2704ntf    fn413559   1.053   5.644   7.039  0.0266 -0.5509 -0.8073
 2704ntf    fn413560   0.899   5.672   7.178  0.5039 -0.2673 -0.5197
 2705ntf    cn113561   4.884   2.640   2.414 -0.0258 -0.1640 -0.1872
 2705ntf    sn213562   4.922   2.465   2.444 -0.0086 -0.1703 -0.2436
 2705ntf    nn313563   4.960   2.427   2.297 -0.2700  0.2407 -0.4204
 2705ntf    sn213564   5.065   2.320   2.248 -0.3818 -0.1788  0.2486
 2705ntf    cn113565   5.222   2.408   2.269  0.1307 -0.8936 -0.5165
 2705ntf    fn413566   4.848   2.702   2.525 -0.0464  0.2835 -0.4396
 2705ntf    fn413567   4.993   2.701   2.370  0.2514 -0.7219 -0.2794
 2705ntf    fn413568   4.782   2.653   2.330  0.1182 -0.1429 -0.3593
 2705ntf    on513569   5.029   2.481   2.540 -0.2708  0.2184 -0.0130
 2705ntf    on513570   4.796   2.413   2.489  0.2073 -0.1887  0.3604
 2705ntf    on513571   5.061   2.300   2.106  0.4992  0.0405  0.1901
 2705ntf    on513572   5.082   2.207   2.336 -0.4936 -0.4026 -0.0157
 2705ntf    fn413573   5.221   2.518   2.196  0.1161 -0.3627  0.2607
 2705ntf    fn413574   5.247   2.450   2.393  0.3753 -0.5335 -0.6854
 2705ntf    fn413575   5.326   2.336   2.232  0.6432 -0.3633 -0.1367
 2706ntf    cn113576   0.964   2.265   1.221  0.3478  0.1033 -0.2533
 2706ntf    sn213577   1.073   2.185   1.343 -0.0319 -0.0485 -0.0103
 2706ntf    nn313578   1.042   2.268   1.473  0.7625  0.0339  0.1311
 2706ntf    sn213579   1.069   2.421   1.500 -0.3702  0.2098  0.2917
 2706ntf    cn113580   1.213   2.402   1.609  0.0055  0.1200 -0.2198
 2706ntf    fn413581   1.022   2.373   1.172  0.3061  0.2114 -0.0645
 2706ntf    fn413582   0.924   2.182   1.126 -0.0866 -0.2052  0.1942
 2706ntf    fn413583   0.852   2.300   1.282  0.4906 -0.4154  0.3198
 2706ntf    on513584   1.017   2.053   1.354  0.0622 -0.0847  0.0444
 2706ntf    on513585   1.211   2.191   1.301  0.2432  0.1949  0.9031
 2706ntf    on513586   0.967   2.489   1.576 -0.9160 -0.0250 -0.2251
 2706ntf    on513587   1.123   2.496   1.390  0.1997  0.2328  0.5864
 2706ntf    fn413588   1.240   2.513   1.677 -0.3887 -0.1196  0.3328
 2706ntf    fn413589   1.186   2.315   1.705 -0.5992  0.3904 -0.1448
 2706ntf    fn413590   1.323   2.361   1.547  0.1253 -0.1721  0.1856
 2707ntf    cn113591   4.264   2.982   5.265  0.1447  0.1715  0.0332
 2707ntf    sn213592   4.213   2.898   5.112 -0.2146  0.3482  0.0560
 2707ntf    nn313593   4.269   2.753   5.136 -0.2173  0.2855 -0.3159
 2707ntf    sn213594   4.412   2.697   5.105 -0.1024  0.2716  0.2239
 2707ntf    cn113595   4.378   2.618   4.944  0.0160 -0.3983  0.5245
 2707ntf    fn413596   4.193   2.945   5.371 -0.3855  0.3618 -0.2515
 2707ntf    fn413597   4.391   2.961   5.296  0.0423 -0.1858  0.2222
 2707ntf    fn413598   4.257   3.113   5.257 -0.3198  0.1713  0.3613
 2707ntf    on513599   4.069   2.902   5.106 -0.2077 -0.0017 -0.3886
 2707ntf    on513600   4.287   2.963   5.008 -0.1737 -0.0933 -0.1914
 2707ntf    on513601   4.449   2.585   5.188  0.6625 -0.2817 -0.8378
 2707ntf    on513602   4.520   2.789   5.079  0.4766 -0.6869 -0.8813
 2707ntf    fn413603   4.485   2.575   4.881 -0.0632  0.0461  0.0801
 2707ntf    fn413604   4.286   2.523   4.952 -0.3722 -0.1358 -0.6217
 2707ntf    fn413605   4.312   2.695   4.859  0.1476 -0.1231  0.6667
 2708ntf    cn113606   2.349   3.789   0.948 -0.4418 -0.3614  0.1054
 2708ntf    sn213607   2.387   3.860   0.786  0.0861  0.0214  0.3939
 2708ntf    nn313608   2.278   3.779   0.707  0.1672  0.3038 -0.0132
 2708ntf    sn213609   2.124   3.805   0.705  0.1166 -0.0063 -0.2784
 2708ntf    cn113610   2.058   3.653   0.780 -0.0768  0.1574 -0.1149
 2708ntf    fn413611   2.444   3.833   1.029 -0.1747 -0.0506 -0.3744
 2708ntf    fn413612   2.232   3.829   0.996 -0.0307  0.0475  0.7949
 2708ntf    fn413613   2.359   3.658   0.941 -0.2375 -0.3277 -0.2125
 2708ntf    on513614   2.367   4.003   0.798 -0.9118 -0.0736 -0.0291
 2708ntf    on513615   2.521   3.827   0.747 -0.2228  0.1003 -0.7868
 2708ntf    on513616   2.073   3.803   0.570  0.1526 -0.5422 -0.2875
 2708ntf    on513617   2.074   3.909   0.792  0.4739  0.3296 -0.4745
 2708ntf    fn413618   1.929   3.659   0.807 -0.1708  0.5083 -0.6186
 2708ntf    fn413619   2.072   3.549   0.700  0.3460 -0.0613  0.2377
 2708ntf    fn413620   2.129   3.625   0.888  0.1246 -0.1189 -0.3182
 2709ntf    cn113621   4.109   1.988   2.812 -0.0154 -0.0351  0.0049
 2709ntf    sn213622   4.138   1.809   2.826 -0.3866 -0.0978 -0.0404
 2709ntf    nn313623   4.141   1.790   2.981 -0.1563 -0.0759 -0.0429
 2709ntf    sn213624   4.027   1.778   3.088 -0.1171 -0.1225 -0.0061
 2709ntf    cn113625   4.053   1.605   3.139  0.0447 -0.0150  0.2774
 2709ntf    fn413626   4.120   2.026   2.686 -0.0231 -0.5030 -0.1375
 2709ntf    fn413627   3.987   2.014   2.854  0.1575  0.1911  0.3762
 2709ntf    fn413628   4.190   2.062   2.887 -0.0139 -0.2030  0.1720
 2709ntf    on513629   4.021   1.753   2.762 -0.4313  0.4577 -0.4579
 2709ntf    on513630   4.265   1.779   2.765 -0.0814  0.2162  0.4339
 2709ntf    on513631   3.897   1.767   3.026 -0.2913  0.5270  0.2351
 2709ntf    on513632   4.044   1.856   3.208 -0.2497  0.2165 -0.2059
 2709ntf    fn413633   3.956   1.553   3.212  0.1486 -0.4443  0.1079
 2709ntf    fn413634   4.060   1.526   3.034  0.2992  0.0476  0.2460
 2709ntf    fn413635   4.166   1.586   3.205  0.2090  0.1014  0.0295
 2710ntf    cn113636   0.020   2.873   0.634  0.3931 -0.1460  0.0055
 2710ntf    sn213637  -0.137   2.824   0.557  0.4125 -0.0325 -0.1066
 2710ntf    nn313638  -0.228   2.945   0.598  0.2994 -0.1431 -0.0336
 2710ntf    sn213639  -0.384   2.958   0.611  0.2824 -0.5048  0.1358
 2710ntf    cn113640  -0.432   3.027   0.450  0.4166 -0.0055  0.3071
 2710ntf    fn413641   0.055   2.997   0.605 -0.1256  0.0311  0.1315
 2710ntf    fn413642   0.004   2.861   0.765 -0.0417  0.7650  0.0422
 2710ntf    fn413643   0.115   2.786   0.601  0.4081 -0.1737  0.1203
 2710ntf    on513644  -0.101   2.820   0.417  0.7117 -0.0276 -0.0298
 2710ntf    on513645  -0.164   2.699   0.624 -0.1389 -0.1055 -0.4549
 2710ntf    on513646  -0.424   3.056   0.709  0.0964  0.2380 -0.6730
 2710ntf    on513647  -0.453   2.831   0.614 -0.9420  0.1271 -0.5399
 2710ntf    fn413648  -0.401   2.933   0.362  0.1238  0.0813  0.1081
 2710ntf    fn413649  -0.558   3.062   0.429  0.3066 -0.1371  0.7349
 2710ntf    fn413650  -0.365   3.137   0.423 -0.1833  0.2309 -0.2556
 2711ntf    cn113651   6.225   2.941   1.313  0.3486 -0.2669 -0.3110
 2711ntf    sn213652   6.217   2.772   1.380 -0.4014 -0.1824 -0.1737
 2711ntf    nn313653   6.321   2.781   1.498 -0.2351 -0.4090 -0.3044
 2711ntf    sn213654   6.424   2.671   1.543 -0.1704 -0.1861  0.0890
 2711ntf    cn113655   6.342   2.582   1.679  0.2996 -0.1091  0.4260
 2711ntf    fn413656   6.324   2.957   1.227  0.5385  0.0008 -0.0438
 2711ntf    fn413657   6.115   2.972   1.245  0.2087  0.3715  0.1922
 2711ntf    fn413658   6.230   3.033   1.408 -0.1040 -0.2413 -0.3077
 2711ntf    on513659   6.083   2.754   1.429 -0.4956 -0.2349 -0.4534
 2711ntf    on513660   6.263   2.693   1.269 -0.1629  0.2238 -0.3698
 2711ntf    on513661   6.532   2.738   1.612 -0.2525  0.3713 -0.3210
 2711ntf    on513662   6.457   2.573   1.443  0.2276 -0.0971  0.1295
 2711ntf    fn413663   6.217   2.549   1.654  0.4208  0.2072 -0.6495
 2711ntf    fn413664   6.418   2.478   1.710  0.0230 -0.3922  0.1571
 2711ntf    fn413665   6.338   2.647   1.794 -0.2672  0.1605  0.2567
 2712ntf    cn113666   5.770   4.372   4.468  0.0947  0.1236  0.0701
 2712ntf    sn213667   5.758   4.190   4.459  0.1398  0.1239 -0.0080
 2712ntf    nn313668   5.603   4.166   4.459  0.2996 -0.9303 -0.1426
 2712ntf    sn213669   5.503   4.098   4.560  0.0244 -0.2472  0.0449
 2712ntf    cn113670   5.373   4.043   4.445  0.1755  0.1079 -0.3011
 2712ntf    fn413671   5.705   4.425   4.571  0.0454  0.3816 -0.0941
 2712ntf    fn413672   5.892   4.418   4.486  0.1921 -0.1947  0.2316
 2712ntf    fn413673   5.717   4.421   4.358 -0.1478 -0.7122 -0.1970
 2712ntf    on513674   5.806   4.154   4.328  0.0590 -0.1220  0.0305
 2712ntf    on513675   5.832   4.147   4.576 -0.0414  0.4432  0.2252
 2712ntf    on513676   5.425   4.192   4.637  0.2394  0.2093 -0.2838
 2712ntf    on513677   5.551   3.975   4.616  0.0376 -0.2217  0.0901
 2712ntf    fn413678   5.344   4.131   4.351  0.1386  0.3263 -0.0866
 2712ntf    fn413679   5.414   3.940   4.374  0.1266  0.0965 -0.3123
 2712ntf    fn413680   5.263   4.005   4.509  0.1263  0.0277 -0.4333
 2713ntf    cn113681   5.657   1.579   3.871  0.6633  0.1977 -0.2274
 2713ntf    sn213682   5.563   1.706   3.782  0.1809  0.1893  0.2659
 2713ntf    nn313683   5.536   1.642   3.641  0.0713  0.6503  0.0728
 2713ntf    sn213684   5.583   1.697   3.502  0.1410 -0.2355 -0.2614
 2713ntf    cn113685   5.431   1.783   3.455  0.1506 -0.1664 -0.1674
 2713ntf    fn413686   5.726   1.625   3.973 -0.1807  0.1761  0.3638
 2713ntf    fn413687   5.586   1.483   3.928 -0.3296  1.0997  0.0917
 2713ntf    fn413688   5.730   1.511   3.783  0.2836 -0.0792 -0.3334
 2713ntf    on513689   5.436   1.717   3.849  0.1677 -0.6243  0.3838
 2713ntf    on513690   5.643   1.826   3.780  0.4318  0.0173 -0.6412
 2713ntf    on513691   5.603   1.603   3.394  0.0476 -0.1616 -0.3424
 2713ntf    on513692   5.685   1.799   3.510 -0.2456  0.0809  0.8950
 2713ntf    fn413693   5.394   1.873   3.545 -0.7787 -0.5112 -0.1923
 2713ntf    fn413694   5.442   1.847   3.340 -0.0636  0.2904  0.0615
 2713ntf    fn413695   5.332   1.697   3.435 -0.4784  0.2593  0.9952
 2714ntf    cn113696   0.379   0.232   1.398  0.0720 -0.0039 -0.0127
 2714ntf    sn213697   0.390   0.101   1.522  0.1499 -0.1297 -0.1522
 2714ntf    nn313698   0.365  -0.027   1.435 -0.4744 -0.3270  0.3082
 2714ntf    sn213699   0.431  -0.168   1.458 -0.3656 -0.3011  0.1552
 2714ntf    cn113700   0.578  -0.138   1.355 -0.2887  0.0667  0.3704
 2714ntf    fn413701   0.364   0.345   1.466  0.3931  0.0494 -0.0314
 2714ntf    fn413702   0.482   0.249   1.316  0.2879 -0.0623  0.2468
 2714ntf    fn413703   0.272   0.222   1.320 -0.2374 -0.6520  0.4899
 2714ntf    on513704   0.521   0.120   1.580  0.3609  0.0518 -0.6876
 2714ntf    on513705   0.276   0.125   1.607  0.0271  1.0455 -0.6429
 2714ntf    on513706   0.370  -0.280   1.393 -0.5517 -0.0023 -0.1859
 2714ntf    on513707   0.487  -0.186   1.590 -0.0982  0.1800  0.1097
 2714ntf    fn413708   0.544  -0.094   1.235  0.5761  0.0317  0.1044
 2714ntf    fn413709   0.645  -0.036   1.407  0.2015 -0.4836  0.8289
 2714ntf    fn413710   0.668  -0.234   1.344 -0.0869  0.3333 -0.3308
 2715ntf    cn113711   2.706   4.140   5.165 -0.1686  0.2818 -0.1679
 2715ntf    sn213712   2.612   4.127   5.011 -0.2052  0.0318 -0.1227
 2715ntf    nn313713   2.664   3.997   4.939 -0.5068  0.0445 -0.3703
 2715ntf    sn213714   2.798   3.996   4.857 -0.2116  0.0501  0.1071
 2715ntf    cn113715   2.740   4.041   4.691  0.4516 -0.6213 -0.3175
 2715ntf    fn413716   2.686   4.260   5.219  0.8814  0.3910 -0.0063
 2715ntf    fn413717   2.675   4.047   5.254 -0.0879  0.0624 -0.3694
 2715ntf    fn413718   2.837   4.136   5.151 -0.1743  0.0079 -0.1440
 2715ntf    on513719   2.477   4.110   5.060 -0.3627  0.7988 -0.2811
 2715ntf    on513720   2.639   4.250   4.941 -0.1186 -0.1308 -0.3783
 2715ntf    on513721   2.844   3.859   4.856  0.1066  0.1529  0.5924
 2715ntf    on513722   2.895   4.096   4.893 -0.5228  0.3559  0.0959
 2715ntf    fn413723   2.677   3.951   4.617 -0.3131 -0.3283 -0.0373
 2715ntf    fn413724   2.648   4.136   4.704  0.6756 -0.4635  0.1187
 2715ntf    fn413725   2.830   4.091   4.609  0.1925  0.0136 -0.2227
 2716ntf    cn113726   0.124   4.617   1.367 -0.4752  0.5844  0.1508
 2716ntf    sn213727  -0.035   4.602   1.279 -0.1848  0.3324 -0.3313
 2716ntf    nn313728  -0.004   4.478   1.188  0.2171  0.1337  0.0713
 2716ntf    sn213729  -0.013   4.325   1.225 -0.3225  0.1556  0.0387
 2716ntf    cn113730   0.124   4.256   1.128 -0.5211  0.0248 -0.1507
 2716ntf    fn413731   0.148   4.516   1.449 -0.0806  0.5641  0.0127
 2716ntf    fn413732   0.220   4.625   1.277 -0.6775  0.0907 -0.1159
 2716ntf    fn413733   0.139   4.726   1.441  0.2951  0.4090  0.2534
 2716ntf    on513734  -0.144   4.592   1.373 -0.2011  0.1264 -0.3714
 2716ntf    on513735  -0.033   4.721   1.198  0.8202  0.8035  0.3543
 2716ntf    on513736  -0.131   4.263   1.171 -0.7454  0.8025  0.1981
 2716ntf    on513737   0.027   4.286   1.357  0.3976 -0.1908 -0.2783
 2716ntf    fn413738   0.145   4.129   1.161 -0.5262  0.2284  0.6541
 2716ntf    fn413739   0.096   4.258   0.999  0.3698  0.6727 -0.3426
 2716ntf    fn413740   0.239   4.320   1.143 -0.2411 -0.4512 -0.2425
 2717ntf    cn113741   3.986   1.026   6.466 -0.3299 -0.0432 -0.4108
 2717ntf    sn213742   3.988   0.900   6.336  0.1171 -0.4023 -0.0589
 2717ntf    nn313743   3.972   0.764   6.414  0.2042 -0.2930  0.1494
 2717ntf    sn213744   3.878   0.643   6.379  0.0405 -0.1126 -0.0447
 2717ntf    cn113745   3.825   0.591   6.545 -0.2087 -0.1445 -0.1341
 2717ntf    fn413746   4.101   1.017   6.532 -0.6700 -0.1237  0.1747
 2717ntf    fn413747   3.973   1.151   6.424 -0.2706  0.1811  0.2213
 2717ntf    fn413748   3.886   0.998   6.547  0.0606  0.6643  0.3381
 2717ntf    on513749   3.876   0.940   6.254 -0.2353 -0.3626  0.4392
 2717ntf    on513750   4.114   0.911   6.267  0.2434 -1.1434  0.0457
 2717ntf    on513751   3.945   0.527   6.325  0.7752  0.2079  0.1538
 2717ntf    on513752   3.757   0.673   6.308 -0.5314 -0.0098  0.9576
 2717ntf    fn413753   3.776   0.468   6.543 -0.5968  0.0050  0.1330
 2717ntf    fn413754   3.923   0.596   6.633 -0.2814 -0.2246 -0.0488
 2717ntf    fn413755   3.723   0.665   6.587  0.4517  0.4663  0.4295
 2718ntf    cn113756   7.103   2.175   0.890  0.0043 -0.1068 -0.1426
 2718ntf    sn213757   6.997   2.271   1.003 -0.1678 -0.4880  0.0216
 2718ntf    nn313758   7.089   2.255   1.130  0.2259 -0.0371 -0.2040
 2718ntf    sn213759   7.074   2.183   1.269 -0.0384  0.4278  0.0147
 2718ntf    cn113760   7.193   2.275   1.370  0.3935 -0.5900  0.4462
 2718ntf    fn413761   7.049   2.178   0.769  0.2487 -0.2249 -0.2540
 2718ntf    fn413762   7.225   2.224   0.881 -0.3236  0.6789 -0.4130
 2718ntf    fn413763   7.113   2.050   0.931  0.4617 -0.1600 -0.4163
 2718ntf    on513764   7.001   2.406   0.954 -0.0546 -0.6431 -0.4024
 2718ntf    on513765   6.869   2.206   1.001 -0.4764  0.1256 -0.2802
 2718ntf    on513766   7.135   2.052   1.259 -0.0466  0.4241  0.0165
 2718ntf    on513767   6.952   2.207   1.342  0.0284  0.3884  0.1407
 2718ntf    fn413768   7.313   2.219   1.369  0.6204 -0.1039  0.0908
 2718ntf    fn413769   7.206   2.400   1.328 -0.6126 -0.5949  0.1003
 2718ntf    fn413770   7.141   2.288   1.491  0.0815 -0.6885  0.3231
 2719ntf    cn113771   1.655   3.095   4.303 -0.2267  0.0037 -0.2623
 2719ntf    sn213772   1.805   3.182   4.357 -0.1926 -0.1361 -0.1282
 2719ntf    nn313773   1.813   3.299   4.252  0.1748  0.1767  0.2460
 2719ntf    sn213774   1.936   3.364   4.180  0.1067  0.0315 -0.0023
 2719ntf    cn113775   1.925   3.305   4.008  0.1807  0.2550 -0.0842
 2719ntf    fn413776   1.557   3.175   4.265 -0.0475  0.3231 -0.0532
 2719ntf    fn413777   1.678   3.006   4.208  0.3278 -0.0245 -0.1061
 2719ntf    fn413778   1.597   3.027   4.401 -0.5518 -0.0440 -0.4862
 2719ntf    on513779   1.770   3.229   4.488 -0.1013  0.3480 -0.2748
 2719ntf    on513780   1.913   3.087   4.347  0.2115  0.2639  0.3909
 2719ntf    on513781   2.062   3.321   4.237 -0.0406  0.0477  0.3376
 2719ntf    on513782   1.917   3.507   4.174 -0.3668  0.0085  0.8805
 2719ntf    fn413783   1.824   3.364   3.945 -0.2012 -0.6032 -0.2801
 2719ntf    fn413784   2.034   3.341   3.942  0.1100  0.1763 -0.2448
 2719ntf    fn413785   1.907   3.175   3.999  0.3905  0.1971  0.3311
 2720ntf    cn113786   6.647   6.941   3.029  0.2681 -0.3172 -0.4058
 2720ntf    sn213787   6.500   7.006   2.944  0.2761 -0.2091 -0.3375
 2720ntf    nn313788   6.411   6.877   2.958  0.0151  0.0315  0.2555
 2720ntf    sn213789   6.271   6.847   3.023 -0.0566  0.1607  0.1629
 2720ntf    cn113790   6.319   6.752   3.171 -0.0212  0.2863  0.2317
 2720ntf    fn413791   6.620   6.928   3.157 -0.2504 -0.0467 -0.4850
 2720ntf    fn413792   6.666   6.816   2.991 -0.2194 -0.3343 -0.5931
 2720ntf    fn413793   6.755   7.017   3.014  0.1539 -0.0211  0.2224
 2720ntf    on513794   6.463   7.119   3.026 -0.1230 -0.4428 -0.1911
 2720ntf    on513795   6.541   7.034   2.809 -0.3901  0.1149 -0.4774
 2720ntf    on513796   6.192   6.757   2.943  0.5600  0.1963 -0.4950
 2720ntf    on513797   6.203   6.965   3.069 -0.2873  0.0802  0.0305
 2720ntf    fn413798   6.370   6.836   3.260  0.0182  0.4375  0.0679
 2720ntf    fn413799   6.219   6.686   3.227  0.0018  0.2003  0.1689
 2720ntf    fn413800   6.409   6.661   3.136  0.1055  0.4239  0.1947
 2721ntf    cn113801   6.158   3.275   5.983  0.3541  0.1970  0.2380
 2721ntf    sn213802   6.243   3.319   6.137  0.1822  0.3999  0.2758
 2721ntf    nn313803   6.198   3.469   6.146 -0.1230  0.3241  0.0327
 2721ntf    sn213804   6.122   3.534   6.267 -0.3417  0.1298 -0.0012
 2721ntf    cn113805   6.049   3.674   6.177 -0.3321  0.0493 -0.1346
 2721ntf    fn413806   6.208   3.352   5.887 -0.7338 -0.2008 -0.6688
 2721ntf    fn413807   6.156   3.148   5.948  0.2433  0.2263  0.1364
 2721ntf    fn413808   6.029   3.306   5.986  0.3307  0.1068  0.1547
 2721ntf    on513809   6.187   3.228   6.233  0.3840 -0.0605 -0.0392
 2721ntf    on513810   6.385   3.308   6.111  0.1222  0.3687 -0.0368
 2721ntf    on513811   6.209   3.599   6.361  0.3320  0.2150 -0.6740
 2721ntf    on513812   6.013   3.455   6.320 -0.2274 -0.2696 -0.3556
 2721ntf    fn413813   5.935   3.717   6.229 -0.2451  0.5055 -0.3247
 2721ntf    fn413814   6.135   3.774   6.185 -0.2212 -0.0696  0.2170
 2721ntf    fn413815   6.027   3.646   6.050  0.0911 -0.3514 -0.1230
 2722ntf    cn113816   2.622   3.962   2.527  0.1695 -0.1342 -0.3760
 2722ntf    sn213817   2.466   4.042   2.479  0.0313 -0.0318  0.2461
 2722ntf    nn313818   2.469   4.023   2.324  0.2200 -0.2059  0.2720
 2722ntf    sn213819   2.445   4.127   2.208  0.3519 -0.4041  0.0653
 2722ntf    cn113820   2.617   4.186   2.213  0.1957  0.0228  0.4698
 2722ntf    fn413821   2.630   3.831   2.510 -0.1502 -0.1896 -0.0941
 2722ntf    fn413822   2.721   4.014   2.456 -0.0914  0.4523 -0.3153
 2722ntf    fn413823   2.651   3.984   2.654 -0.1022 -0.3542 -0.2751
 2722ntf    on513824   2.378   3.947   2.542  0.2402 -0.5051 -0.1745
 2722ntf    on513825   2.468   4.178   2.529  0.4708  0.0923 -0.1080
 2722ntf    on513826   2.363   4.238   2.249  0.4293 -0.3755  0.1446
 2722ntf    on513827   2.426   4.080   2.073 -0.3498 -0.3642  0.1450
 2722ntf    fn413828   2.656   4.213   2.337  0.4777  0.1768  0.3476
 2722ntf    fn413829   2.707   4.104   2.161  0.3664  0.5061 -0.0008
 2722ntf    fn413830   2.630   4.299   2.146 -0.1163 -0.1540  0.1098
 2723ntf    cn113831   4.111   0.996   1.757  0.5798 -0.1881  0.1448
 2723ntf    sn213832   4.115   0.917   1.921  0.2080  0.0155  0.2510
 2723ntf    nn313833   4.021   1.002   2.014 -0.0151  0.1616 -0.1018
 2723ntf    sn213834   4.037   1.048   2.164  0.2872 -0.0914 -0.0545
 2723ntf    cn113835   3.878   0.984   2.225 -0.1530  0.4944 -0.5669
 2723ntf    fn413836   4.215   0.947   1.691  0.7280 -0.1764  0.3697
 2723ntf    fn413837   3.996   0.972   1.697  0.7068  0.0027 -0.1785
 2723ntf    fn413838   4.126   1.127   1.753  0.3691 -0.1755 -0.3312
 2723ntf    on513839   4.052   0.789   1.899  0.0085  0.1209  0.2058
 2723ntf    on513840   4.255   0.913   1.954  0.2329 -0.5205  0.0902
 2723ntf    on513841   4.031   1.190   2.185  0.1473 -0.1811  0.5057
 2723ntf    on513842   4.136   0.974   2.238  0.5897  0.2345 -0.1315
 2723ntf    fn413843   3.784   1.017   2.139 -0.6042  0.8524  0.0533
 2723ntf    fn413844   3.880   0.852   2.224  0.0961  0.4874  0.1182
 2723ntf    fn413845   3.839   1.027   2.344  0.4211  0.1987 -0.2641
 2724ntf    cn113846   5.044   0.547   1.649  0.0377 -0.5746 -0.1472
 2724ntf    sn213847   5.084   0.514   1.823 -0.1437  0.1051  0.0256
 2724ntf    nn313848   5.051   0.361   1.822  0.0372  0.0629  0.3304
 2724ntf    sn213849   5.144   0.240   1.782 -0.2053 -0.1247  0.3271
 2724ntf    cn113850   5.241   0.242   1.936  0.1437 -0.4002  0.1110
 2724ntf    fn413851   4.915   0.540   1.618 -0.1305  0.5016  0.2592
 2724ntf    fn413852   5.063   0.676   1.627  0.4994 -0.8200 -1.2137
 2724ntf    fn413853   5.108   0.487   1.550 -0.0298 -0.9074  0.0085
 2724ntf    on513854   5.222   0.550   1.843 -0.0621 -0.6488  0.9053
 2724ntf    on513855   4.985   0.583   1.903 -0.5883 -0.2158 -0.2432
 2724ntf    on513856   5.239   0.266   1.677 -0.1857 -0.4421  0.2685
 2724ntf    on513857   5.076   0.113   1.786 -0.1382 -0.1872 -0.4858
 2724ntf    fn413858   5.338   0.153   1.945  0.3264 -0.2848 -0.6248
 2724ntf    fn413859   5.291   0.360   1.968  0.0174 -0.2363 -0.2889
 2724ntf    fn413860   5.166   0.216   2.042 -0.1910 -0.3090 -0.1018
 2725ntf    cn113861   4.713   5.933   1.804  0.1670  0.2156 -0.2740
 2725ntf    sn213862   4.613   5.888   1.948  0.3254  0.0005 -0.2311
 2725ntf    nn313863   4.652   6.013   2.034 -0.0120  0.2307 -0.4108
 2725ntf    sn213864   4.681   6.027   2.187 -0.1231  0.2749 -0.3939
 2725ntf    cn113865   4.862   6.040   2.182 -0.1181  0.1781 -0.4633
 2725ntf    fn413866   4.838   5.972   1.821  0.3008 -0.0919 -0.5436
 2725ntf    fn413867   4.716   5.829   1.722 -0.0314  0.6142 -0.7946
 2725ntf    fn413868   4.661   6.031   1.731  0.1736  0.4524  0.0391
 2725ntf    on513869   4.477   5.888   1.900  0.3427 -0.7996 -0.3002
 2725ntf    on513870   4.678   5.766   1.990 -0.0619 -0.1129  0.0498
 2725ntf    on513871   4.646   5.910   2.264  0.3475  0.2781 -0.1710
 2725ntf    on513872   4.654   6.160   2.235 -0.5217  0.3206 -0.7370
 2725ntf    fn413873   4.906   6.122   2.088  0.0368 -0.1156 -0.6465
 2725ntf    fn413874   4.923   6.070   2.296  0.5424 -0.2957 -0.6853
 2725ntf    fn413875   4.916   5.924   2.149  0.2660  0.1242  0.3245
 2726ntf    cn113876   6.301   6.224   6.981 -0.2791  0.2347  0.0977
 2726ntf    sn213877   6.374   6.366   6.893  0.2105 -0.2233 -0.2464
 2726ntf    nn313878   6.498   6.396   6.984  0.0988 -0.1441 -0.1196
 2726ntf    sn213879   6.500   6.478   7.118 -0.1414 -0.3376  0.0035
 2726ntf    cn113880   6.580   6.629   7.056 -0.6224  0.1149  0.4829
 2726ntf    fn413881   6.379   6.118   6.962 -0.2352  0.3155 -0.1794
 2726ntf    fn413882   6.296   6.254   7.109  0.0363 -0.1193  0.1955
 2726ntf    fn413883   6.180   6.197   6.935 -0.1204  0.5762 -0.5336
 2726ntf    on513884   6.428   6.311   6.771  0.0701 -0.5403 -0.1669
 2726ntf    on513885   6.270   6.465   6.885  0.0132 -0.4426 -0.4175
 2726ntf    on513886   6.598   6.421   7.208  0.0608 -0.2856 -0.1845
 2726ntf    on513887   6.372   6.521   7.167 -0.2080 -0.1711 -0.3159
 2726ntf    fn413888   6.521   6.683   6.951 -0.0266  0.2199  0.2034
 2726ntf    fn413889   6.562   6.728   7.142 -0.4934  0.3925  0.1934
 2726ntf    fn413890   6.710   6.630   7.035 -0.7252 -0.4733 -0.2065
 2727ntf    cn113891   3.581   2.474   5.268 -0.2194  0.1834  0.2890
 2727ntf    sn213892   3.497   2.436   5.424  0.0009 -0.2413  0.3064
 2727ntf    nn313893   3.576   2.538   5.514 -0.1691  0.4477 -0.3129
 2727ntf    sn213894   3.720   2.535   5.575 -0.2662 -0.0894 -0.1004
 2727ntf    cn113895   3.782   2.700   5.532 -0.4530 -0.0503 -0.2187
 2727ntf    fn413896   3.706   2.434   5.256 -0.3117  0.1143 -0.5376
 2727ntf    fn413897   3.520   2.430   5.159 -0.4716 -0.2830  0.6185
 2727ntf    fn413898   3.589   2.606   5.264 -0.0968  0.1632 -0.2872
 2727ntf    on513899   3.358   2.466   5.396  0.0117  0.0036  0.5068
 2727ntf    on513900   3.522   2.301   5.468  0.1067 -0.1918  0.3975
 2727ntf    on513901   3.813   2.444   5.512 -0.0445 -0.1974  0.3718
 2727ntf    on513902   3.717   2.536   5.719 -0.5875 -0.4587 -0.1028
 2727ntf    fn413903   3.805   2.710   5.402 -0.1661 -0.5257 -0.2081
 2727ntf    fn413904   3.685   2.789   5.549 -0.0282  0.3533  0.1454
 2727ntf    fn413905   3.895   2.735   5.592 -0.5931 -0.0254  0.0349
 2728ntf    cn113906   3.302   0.789   5.032  0.2305 -0.1458  0.5154
 2728ntf    sn213907   3.311   0.813   4.852 -0.1982  0.3353  0.5548
 2728ntf    nn313908   3.379   0.676   4.815  0.5074  0.8390 -0.0535
 2728ntf    sn213909   3.447   0.633   4.680  0.1849 -0.1815  0.1036
 2728ntf    cn113910   3.321   0.515   4.623 -0.0960  0.0780  0.1836
 2728ntf    fn413911   3.239   0.885   5.098 -0.1205 -0.1564  0.1963
 2728ntf    fn413912   3.225   0.687   5.065  0.2674 -0.1558  0.5702
 2728ntf    fn413913   3.422   0.757   5.077  0.4276 -0.5482 -0.2765
 2728ntf    on513914   3.177   0.825   4.800 -0.1659 -0.3107  0.3158
 2728ntf    on513915   3.410   0.917   4.841  0.1914 -0.1141 -0.3374
 2728ntf    on513916   3.565   0.554   4.703 -0.1189 -0.5165  0.5367
 2728ntf    on513917   3.447   0.732   4.575 -0.1735 -0.0662  0.2069
 2728ntf    fn413918   3.325   0.404   4.694  0.3287 -0.1521 -0.1956
 2728ntf    fn413919   3.197   0.561   4.610 -0.0397  0.2614  0.2939
 2728ntf    fn413920   3.346   0.475   4.499 -0.0756  0.0063  0.2105
 2729ntf    cn113921   3.371   6.617   6.779  0.2950 -0.0593 -0.1874
 2729ntf    sn213922   3.225   6.685   6.864  0.5565 -0.0184  0.2302
 2729ntf    nn313923   3.289   6.804   6.943  0.1760  0.3309  0.0166
 2729ntf    sn213924   3.261   6.856   7.089 -0.1735  0.2570 -0.0252
 2729ntf    cn113925   3.314   7.029   7.075  0.2526  0.0815 -0.6109
 2729ntf    fn413926   3.463   6.584   6.868  0.0681 -0.1242  0.0257
 2729ntf    fn413927   3.339   6.513   6.703  0.0608  0.1758 -0.4124
 2729ntf    fn413928   3.425   6.705   6.697  0.6200 -0.2667 -0.1939
 2729ntf    on513929   3.144   6.733   6.755  0.0573  0.3292  0.7501
 2729ntf    on513930   3.178   6.570   6.938 -0.2502 -0.1849 -0.5219
 2729ntf    on513931   3.351   6.792   7.182 -0.7460 -0.9144 -0.2496
 2729ntf    on513932   3.120   6.863   7.120 -0.2123 -0.3921 -0.0275
 2729ntf    fn413933   3.256   7.095   6.976 -0.4605  0.4040  0.0130
 2729ntf    fn413934   3.275   7.092   7.184  0.4570 -0.0885 -0.4371
 2729ntf    fn413935   3.442   7.060   7.058  0.3466  0.1160  0.1253
 2730ntf    cn113936   0.964   2.987   0.616  0.2588 -0.2766  0.3335
 2730ntf    sn213937   0.958   3.165   0.577  0.0453 -0.3205  0.1670
 2730ntf    nn313938   1.087   3.171   0.489 -0.8061  0.5221 -1.0496
 2730ntf    sn213939   1.200   3.272   0.447  0.3804 -0.4192 -0.1867
 2730ntf    cn113940   1.164   3.255   0.270  0.0245  0.1359 -0.1706
 2730ntf    fn413941   0.878   2.957   0.712 -0.8953  0.4289 -0.4533
 2730ntf    fn413942   0.945   2.909   0.510 -0.3557  0.0616  0.1909
 2730ntf    fn413943   1.085   2.964   0.665  0.3526  0.4040  0.4374
 2730ntf    on513944   0.836   3.169   0.500  0.2551 -0.2187 -0.1612
 2730ntf    on513945   0.960   3.233   0.704  0.1990 -0.0467  0.0183
 2730ntf    on513946   1.336   3.225   0.462  0.3700 -0.2460  0.4890
 2730ntf    on513947   1.176   3.414   0.460 -0.7714 -0.6754  0.6277
 2730ntf    fn413948   1.035   3.277   0.248  0.0546  0.3532 -0.1314
 2730ntf    fn413949   1.230   3.339   0.191 -0.4686  0.3992 -0.3057
 2730ntf    fn413950   1.187   3.133   0.222  0.2269  0.0389  0.1673
 2731ntf    cn113951   2.325   4.141   4.052 -0.0212  0.0183  0.0749
 2731ntf    sn213952   2.503   4.112   4.076 -0.0801 -0.1428  0.3166
 2731ntf    nn313953   2.558   4.259   4.087 -0.5859  0.0585  0.1981
 2731ntf    sn213954   2.582   4.360   3.970 -0.3293 -0.1548  0.0648
 2731ntf    cn113955   2.763   4.354   3.956 -0.2942  0.2563  0.3249
 2731ntf    fn413956   2.264   4.162   4.167 -0.8830  0.2105 -0.4065
 2731ntf    fn413957   2.294   4.237   3.967 -0.2358  0.1855  0.3430
 2731ntf    fn413958   2.276   4.028   4.002  0.5117  0.0700 -0.5897
 2731ntf    on513959   2.506   4.052   4.208  0.4659 -0.1214  0.3179
 2731ntf    on513960   2.557   4.040   3.964  0.6706 -0.0005  0.5834
 2731ntf    on513961   2.570   4.501   3.996 -0.0250 -0.1217  0.0306
 2731ntf    on513962   2.544   4.328   3.835 -0.3734  0.1586  0.0027
 2731ntf    fn413963   2.794   4.409   3.840 -0.2883  0.7656  0.5668
 2731ntf    fn413964   2.818   4.421   4.056 -0.2257 -0.1104  0.5366
 2731ntf    fn413965   2.814   4.232   3.951  0.1853  0.4826 -0.4626
 2732ntf    cn113966   4.544   5.982   6.409 -0.5280  0.4376 -0.4011
 2732ntf    sn213967   4.595   6.156   6.403  0.0647  0.2959  0.2152
 2732ntf    nn313968   4.466   6.227   6.458 -0.2087  0.3050 -0.4259
 2732ntf    sn213969   4.438   6.273   6.605 -0.1263 -0.2330 -0.2383
 2732ntf    cn113970   4.258   6.253   6.621 -0.0760 -0.2721  0.3242
 2732ntf    fn413971   4.511   5.945   6.532  0.0055  0.2410 -0.3126
 2732ntf    fn413972   4.437   5.950   6.339 -0.2315 -0.5216 -0.4427
 2732ntf    fn413973   4.641   5.901   6.368 -0.6047  0.0797  0.0969
 2732ntf    on513974   4.711   6.157   6.487 -0.0655 -0.3180  0.4039
 2732ntf    on513975   4.607   6.182   6.261 -0.7167  0.5312  0.1823
 2732ntf    on513976   4.451   6.416   6.622 -0.1064 -0.3271  0.6107
 2732ntf    on513977   4.496   6.197   6.713 -0.2709  0.0359  0.0308
 2732ntf    fn413978   4.191   6.328   6.535  0.6337 -0.0311 -0.0324
 2732ntf    fn413979   4.223   6.127   6.601 -0.4619 -0.0225 -0.6651
 2732ntf    fn413980   4.207   6.294   6.736 -0.0154  0.2000  0.1870
 2733ntf    cn113981   0.052   7.068   4.136  0.1364 -0.1851  0.1106
 2733ntf    sn213982   0.037   7.141   3.970 -0.3927 -0.2969  0.1084
 2733ntf    nn313983   0.179   7.105   3.914 -0.3916 -0.2775  0.0992
 2733ntf    sn213984   0.259   7.170   3.796 -0.0043 -0.0370  0.4876
 2733ntf    cn113985   0.190   7.071   3.660  0.0777  0.1482  0.3104
 2733ntf    fn413986   0.178   7.080   4.174 -0.0065  0.2944  0.4522
 2733ntf    fn413987  -0.029   7.116   4.229  0.2082  0.1989 -0.0237
 2733ntf    fn413988   0.032   6.937   4.134  0.3279 -0.2142  0.0671
 2733ntf    on513989  -0.065   7.064   3.903 -0.5507 -0.1286  0.1529
 2733ntf    on513990   0.011   7.280   3.998 -0.0881 -0.2062 -0.0540
 2733ntf    on513991   0.396   7.125   3.791  0.2021  0.5992  0.2089
 2733ntf    on513992   0.231   7.309   3.769 -0.0902 -0.0691  0.4109
 2733ntf    fn413993   0.271   7.085   3.557 -0.6496 -0.1061 -0.3092
 2733ntf    fn413994   0.160   6.946   3.690 -0.2105  0.1961  0.2297
 2733ntf    fn413995   0.082   7.131   3.611  0.5981  0.6368 -0.2461
 2734ntf    cn113996   1.799   0.920   1.645  0.1413  0.1770 -0.0633
 2734ntf    sn213997   1.798   1.017   1.799  0.2053  0.2619 -0.1167
 2734ntf    nn313998   1.725   0.925   1.903  0.4218  0.3841  0.1475
 2734ntf    sn213999   1.575   0.934   1.950  0.2799  0.0291 -0.2233
 2734ntf    cn114000   1.579   1.087   2.049 -0.3126 -0.0275 -0.1070
 2734ntf    fn414001   1.686   0.933   1.579 -0.0792 -0.2557  0.2211
 2734ntf    fn414002   1.895   0.959   1.563  0.0994  0.1071 -0.1454
 2734ntf    fn414003   1.819   0.790   1.665 -0.7697 -0.0078 -0.2976
 2734ntf    on514004   1.939   1.022   1.829  0.2207 -0.4453 -0.0476
 2734ntf    on514005   1.743   1.149   1.780 -0.6399 -0.0438  0.1737
 2734ntf    on514006   1.529   0.840   2.049 -0.2076 -0.0456 -0.5197
 2734ntf    on514007   1.488   0.955   1.837 -0.5263 -0.6890  0.2512
 2734ntf    fn414008   1.648   1.079   2.162 -0.7737  0.0583  0.1843
 2734ntf    fn414009   1.615   1.195   1.983 -0.1619  0.1296  0.2266
 2734ntf    fn414010   1.457   1.103   2.097 -0.3125  0.3350 -0.2265
 2735ntf    cn114011   0.413   6.706   5.158 -0.0749 -0.2143 -0.2070
 2735ntf    sn214012   0.375   6.804   5.306  0.1622 -0.2227 -0.1416
 2735ntf    nn314013   0.445   6.942   5.281 -0.1903 -0.0512 -0.1743
 2735ntf    sn214014   0.551   7.025   5.361  0.1126 -0.2417 -0.3780
 2735ntf    cn114015   0.706   6.933   5.336  0.3846  0.1795 -0.2429
 2735ntf    fn414016   0.382   6.769   5.045  0.1369 -0.3735 -0.3548
 2735ntf    fn414017   0.543   6.683   5.155 -0.0397 -0.1923  0.8557
 2735ntf    fn414018   0.348   6.591   5.162 -0.0676 -0.2369 -0.6300
 2735ntf    on514019   0.234   6.827   5.291  0.2308 -0.0436 -0.5021
 2735ntf    on514020   0.432   6.724   5.412  1.0777 -0.3475 -0.7155
 2735ntf    on514021   0.534   7.019   5.504 -0.1322  0.3995 -0.3782
 2735ntf    on514022   0.574   7.151   5.295 -0.1375  0.0439  0.0779
 2735ntf    fn414023   0.724   6.822   5.405 -0.1902  0.3762  0.2367
 2735ntf    fn414024   0.707   6.899   5.208 -0.6069 -0.8510  0.0121
 2735ntf    fn414025   0.821   6.997   5.354  0.3183  0.2671 -0.1327
 2736ntf    cn114026   4.641   3.517   0.162 -0.3343 -0.1427  0.1486
 2736ntf    sn214027   4.540   3.667   0.142 -0.0786 -0.0285 -0.2879
 2736ntf    nn314028   4.627   3.755   0.239 -0.3783 -0.0663  0.0160
 2736ntf    sn214029   4.590   3.864   0.345 -0.1104 -0.2415  0.2930
 2736ntf    cn114030   4.655   3.776   0.490 -0.0477  0.0481  0.4427
 2736ntf    fn414031   4.764   3.544   0.122 -0.2564  0.1037  0.5477
 2736ntf    fn414032   4.658   3.488   0.290  0.4701  0.1983  0.1229
 2736ntf    fn414033   4.594   3.414   0.094 -0.5587 -0.2105  0.4042
 2736ntf    on514034   4.559   3.708   0.005  0.2434 -0.2368 -0.3075
 2736ntf    on514035   4.414   3.623   0.195  0.1032 -0.4829 -0.2265
 2736ntf    on514036   4.450   3.883   0.375 -0.3142 -0.3390 -0.5727
 2736ntf    on514037   4.684   3.973   0.338 -0.1117 -0.2652 -0.1126
 2736ntf    fn414038   4.679   3.859   0.590  0.2956  0.2362  0.2048
 2736ntf    fn414039   4.583   3.670   0.525 -0.2037 -0.1251 -0.3819
 2736ntf    fn414040   4.774   3.726   0.462 -0.5215 -0.5933 -0.4998
 2737ntf    cn114041   4.322   0.551   4.791  0.1943  0.4668 -0.5608
 2737ntf    sn214042   4.329   0.432   4.654  0.0760 -0.0448 -0.1263
 2737ntf    nn314043   4.481   0.439   4.614  0.1711  0.1810  0.2762
 2737ntf    sn214044   4.553   0.545   4.523 -0.1435  0.0828 -0.0905
 2737ntf    cn114045   4.571   0.425   4.389 -0.5815 -0.0877 -0.0005
 2737ntf    fn414046   4.230   0.508   4.875  0.4266  0.1106 -0.4841
 2737ntf    fn414047   4.443   0.545   4.845 -0.0793  0.4071  0.0552
 2737ntf    fn414048   4.276   0.672   4.763 -0.2670  0.3621 -0.2599
 2737ntf    on514049   4.296   0.308   4.720 -0.5579  0.3544  0.3155
 2737ntf    on514050   4.235   0.483   4.557  0.1572  0.8262  0.2462
 2737ntf    on514051   4.687   0.577   4.566 -0.0423  0.1940 -0.4902
 2737ntf    on514052   4.477   0.656   4.470  0.4304  0.2118 -0.6435
 2737ntf    fn414053   4.460   0.414   4.318 -0.3527 -0.0497 -0.3684
 2737ntf    fn414054   4.664   0.460   4.301 -0.1793  0.1936  0.5285
 2737ntf    fn414055   4.607   0.304   4.430  0.1589  0.1615  0.1075
 2738ntf    cn114056   5.008   3.395   1.345 -0.1696  0.2290  0.1151
 2738ntf    sn214057   5.059   3.276   1.472  0.0017 -0.0938 -0.2547
 2738ntf    nn314058   5.101   3.373   1.589  0.2251 -0.2612 -0.1963
 2738ntf    sn214059   5.036   3.386   1.731  0.5832 -0.1868 -0.0375
 2738ntf    cn114060   5.193   3.397   1.823  0.5000  0.0071  0.0810
 2738ntf    fn414061   4.942   3.334   1.249 -0.0212  0.8207 -0.3669
 2738ntf    fn414062   4.923   3.486   1.392  0.0792  0.4352  0.1683
 2738ntf    fn414063   5.110   3.462   1.292  0.5551 -0.5292  0.5331
 2738ntf    on514064   4.933   3.210   1.494 -0.1372  0.1279 -0.3855
 2738ntf    on514065   5.170   3.202   1.417 -0.0999 -0.3073 -0.1716
 2738ntf    on514066   4.972   3.271   1.789 -0.1940  0.1249 -0.2684
 2738ntf    on514067   4.993   3.523   1.746  0.4820 -0.2807  0.5578
 2738ntf    fn414068   5.266   3.288   1.810  0.2617 -0.1971  0.4407
 2738ntf    fn414069   5.268   3.500   1.787 -0.4526  0.6207 -0.2128
 2738ntf    fn414070   5.169   3.404   1.953 -0.7663 -0.0857 -0.1326
 2739ntf    cn114071   1.497   4.776   0.738  0.3170 -0.1759  0.1002
 2739ntf    sn214072   1.434   4.748   0.907 -0.1167  0.0375 -0.0247
 2739ntf    nn314073   1.537   4.649   0.971  0.0396  0.3802  0.2564
 2739ntf    sn214074   1.605   4.642   1.113  0.2405 -0.0957  0.1383
 2739ntf    cn114075   1.745   4.755   1.088 -0.0507  0.0772 -0.7332
 2739ntf    fn414076   1.421   4.862   0.672  0.1401 -0.2523  0.2017
 2739ntf    fn414077   1.620   4.820   0.756  0.1607  0.1115  0.4780
 2739ntf    fn414078   1.500   4.669   0.660  0.0723 -0.0059 -0.1428
 2739ntf    on514079   1.436   4.886   0.949  0.0056  0.0323 -0.0124
 2739ntf    on514080   1.304   4.689   0.888 -0.2815  0.1641  0.7117
 2739ntf    on514081   1.659   4.510   1.136  0.2794 -0.0569  0.2694
 2739ntf    on514082   1.529   4.706   1.218 -0.8600 -0.5560 -0.3598
 2739ntf    fn414083   1.702   4.870   1.036  0.0703  0.0153 -0.9728
 2739ntf    fn414084   1.803   4.799   1.198  0.1076 -0.1400 -0.7319
 2739ntf    fn414085   1.835   4.710   1.002 -0.3338 -0.3846 -0.7882
 2740ntf    cn114086   6.159   7.038   4.644 -0.5480 -0.1331  0.1452
 2740ntf    sn214087   6.042   7.139   4.740 -0.1693  0.0128  0.4560
 2740ntf    nn314088   5.935   7.032   4.780  0.3426 -0.7170 -0.0984
 2740ntf    sn214089   5.930   6.931   4.900 -0.2997 -0.5608  0.0099
 2740ntf    cn114090   5.809   6.808   4.842 -0.5759 -0.1933 -0.1936
 2740ntf    fn414091   6.255   7.115   4.595  0.0577 -0.6906  0.4429
 2740ntf    fn414092   6.214   6.940   4.713  0.3464  0.0091 -0.3473
 2740ntf    fn414093   6.091   6.976   4.549 -0.4769  0.2397 -0.1537
 2740ntf    on514094   6.134   7.186   4.840  0.0612  0.1411  0.1861
 2740ntf    on514095   5.991   7.225   4.636  0.6021 -0.5599 -0.4146
 2740ntf    on514096   5.881   6.988   5.023 -0.6260 -0.2712 -0.2530
 2740ntf    on514097   6.048   6.849   4.914 -0.4543 -0.7493  0.2459
 2740ntf    fn414098   5.719   6.780   4.935 -0.2448 -0.0153  0.1800
 2740ntf    fn414099   5.738   6.856   4.740  0.1350  0.0980 -0.5584
 2740ntf    fn414100   5.859   6.691   4.808  1.1546  0.4593  0.0154
 2741ntf    cn114101   4.816   1.462   0.996 -0.0613 -0.1053 -0.0595
 2741ntf    sn214102   4.799   1.638   1.038 -0.1867 -0.0659 -0.2705
 2741ntf    nn314103   4.748   1.679   0.895  0.0201  0.5713 -0.1639
 2741ntf    sn214104   4.605   1.699   0.834 -0.1052 -0.0819 -0.0836
 2741ntf    cn114105   4.661   1.701   0.662  0.4403 -0.0414  0.0923
 2741ntf    fn414106   4.880   1.388   1.085 -0.0639 -0.1449 -0.0902
 2741ntf    fn414107   4.705   1.396   0.969  0.0591 -0.3755  0.0977
 2741ntf    fn414108   4.889   1.444   0.887 -0.1287 -0.4308 -0.0522
 2741ntf    on514109   4.704   1.644   1.146 -0.0624 -0.3831 -0.1442
 2741ntf    on514110   4.935   1.675   1.070 -0.3400  0.0958  0.2088
 2741ntf    on514111   4.547   1.829   0.855  0.3055  0.1091 -0.1344
 2741ntf    on514112   4.519   1.583   0.839 -0.7127  0.3740  0.1101
 2741ntf    fn414113   4.555   1.714   0.584  0.3187  0.1108  0.2809
 2741ntf    fn414114   4.742   1.802   0.632  0.3758 -0.0686 -0.1783
 2741ntf    fn414115   4.717   1.584   0.638 -0.0448 -0.1191 -0.7077
 2742ntf    cn114116   3.373   4.230   0.313 -0.0377  0.3231  0.3503
 2742ntf    sn214117   3.293   4.227   0.476  0.1752  0.2071  0.4528
 2742ntf    nn314118   3.402   4.159   0.566 -0.0765 -0.2035  0.4480
 2742ntf    sn214119   3.506   4.232   0.659 -0.0251  0.2622  0.0251
 2742ntf    cn114120   3.406   4.284   0.801 -0.4847  0.4712 -0.3681
 2742ntf    fn414121   3.295   4.270   0.213  0.1689  0.0650  0.0835
 2742ntf    fn414122   3.478   4.309   0.317  0.3417 -0.1842  0.5416
 2742ntf    fn414123   3.414   4.109   0.280 -0.3192  0.2015  0.4415
 2742ntf    on514124   3.258   4.364   0.506 -0.1183  0.2197  0.0594
 2742ntf    on514125   3.176   4.149   0.444  0.4579  0.1547 -0.4928
 2742ntf    on514126   3.572   4.348   0.605  0.1493  0.0050 -0.3188
 2742ntf    on514127   3.597   4.142   0.724 -0.0884 -0.1408 -0.4351
 2742ntf    fn414128   3.304   4.360   0.766 -0.6064  0.2396 -0.5128
 2742ntf    fn414129   3.345   4.184   0.861  0.3027  0.0377 -0.2753
 2742ntf    fn414130   3.472   4.356   0.891 -0.0444  0.0035 -0.3076
 2743ntf    cn114131   3.439   1.871   5.072  0.5978  0.2299 -0.7266
 2743ntf    sn214132   3.509   1.875   5.240 -0.1364 -0.2751 -0.3999
 2743ntf    nn314133   3.620   1.982   5.206 -0.3982  0.1840  0.1653
 2743ntf    sn214134   3.770   1.984   5.252 -0.3576 -0.3769  0.0702
 2743ntf    cn114135   3.789   2.163   5.230 -0.1287 -0.4227 -0.1079
 2743ntf    fn414136   3.388   1.985   5.029  0.3397  0.5714  0.4322
 2743ntf    fn414137   3.530   1.827   4.987  1.0226 -0.2005 -0.0609
 2743ntf    fn414138   3.337   1.787   5.061  0.8112 -0.0773 -0.4071
 2743ntf    on514139   3.402   1.922   5.324  0.0269 -0.4882 -0.0704
 2743ntf    on514140   3.548   1.737   5.257 -0.0693 -0.1569  0.4474
 2743ntf    on514141   3.879   1.939   5.170 -0.1614  0.1082  0.0605
 2743ntf    on514142   3.791   1.974   5.394  0.5943  0.5131  0.0042
 2743ntf    fn414143   3.754   2.216   5.114 -0.7322  0.5224  0.4869
 2743ntf    fn414144   3.719   2.227   5.323  0.1824 -0.0114 -0.1523
 2743ntf    fn414145   3.912   2.196   5.264 -0.5350  1.0041  0.0754
 2744ntf    cn114146   2.468   0.929   1.290  0.4560  0.2352 -0.2075
 2744ntf    sn214147   2.499   0.750   1.288  0.0672  0.1666 -0.1811
 2744ntf    nn314148   2.353   0.706   1.325  0.2157 -0.1355  0.0489
 2744ntf    sn214149   2.270   0.689   1.457 -0.2616  0.0591 -0.2254
 2744ntf    cn114150   2.237   0.510   1.445 -0.2113  0.0396 -0.0724
 2744ntf    fn414151   2.364   0.969   1.219  0.2202  0.3249  0.1921
 2744ntf    fn414152   2.460   0.982   1.411  0.4029  0.0627 -0.1355
 2744ntf    fn414153   2.575   0.990   1.241  0.4514 -0.0774 -0.6136
 2744ntf    on514154   2.525   0.708   1.152  0.5742 -0.0409 -0.0243
 2744ntf    on514155   2.604   0.740   1.387 -0.1459 -0.0200  0.0265
 2744ntf    on514156   2.136   0.741   1.450 -0.1798  0.3247  0.1596
 2744ntf    on514157   2.346   0.695   1.579  0.0237 -0.1977 -0.3877
 2744ntf    fn414158   2.174   0.483   1.332 -0.2493  0.2055 -0.0908
 2744ntf    fn414159   2.352   0.446   1.441 -0.2317 -0.0341  0.4798
 2744ntf    fn414160   2.162   0.457   1.540 -0.2524  0.4496  0.1285
 2745ntf    cn114161   5.436   5.916   6.786 -0.4824  0.1569 -0.3112
 2745ntf    sn214162   5.541   6.048   6.719  0.4095 -0.3942 -0.0117
 2745ntf    nn314163   5.610   5.965   6.605  0.1744 -0.6505  0.0330
 2745ntf    sn214164   5.568   5.950   6.454  0.0488 -0.0870  0.0120
 2745ntf    cn114165   5.726   5.895   6.383  0.0574  0.1876 -0.1873
 2745ntf    fn414166   5.355   5.945   6.886  0.4898 -0.4784  0.6749
 2745ntf    fn414167   5.358   5.861   6.694  0.0251 -0.4721 -0.3750
 2745ntf    fn414168   5.516   5.821   6.832 -0.3999  0.1817 -0.4047
 2745ntf    on514169   5.452   6.150   6.670  0.1503  0.0521  1.3565
 2745ntf    on514170   5.637   6.078   6.822  0.3565  0.1445 -0.1186
 2745ntf    on514171   5.551   6.072   6.378 -0.7476 -0.1606  0.0639
 2745ntf    on514172   5.486   5.836   6.424 -0.0726 -0.0253  0.1077
 2745ntf    fn414173   5.727   5.933   6.256  0.2305  0.1326 -0.2025
 2745ntf    fn414174   5.832   5.942   6.446 -0.4229  0.3357  0.5252
 2745ntf    fn414175   5.733   5.762   6.385  0.5283  0.2105 -0.2001
 2746ntf    cn114176   5.054   1.389   4.751 -0.0318  0.4822 -0.1037
 2746ntf    sn214177   5.200   1.498   4.745  0.3056  0.0354 -0.1319
 2746ntf    nn314178   5.310   1.388   4.762  0.0602 -0.1869  0.0272
 2746ntf    sn214179   5.396   1.323   4.648 -0.0021 -0.2245  0.0010
 2746ntf    cn114180   5.489   1.197   4.741 -0.2176 -0.3054  0.1051
 2746ntf    fn414181   5.048   1.303   4.651 -0.5626 -0.0866  0.4049
 2746ntf    fn414182   5.054   1.322   4.865 -1.5355 -0.3547 -0.5658
 2746ntf    fn414183   4.940   1.455   4.747 -0.3290 -0.0001  0.2810
 2746ntf    on514184   5.186   1.569   4.620 -0.4078  0.2466  0.0585
 2746ntf    on514185   5.184   1.580   4.863 -0.2050 -0.2847  0.0259
 2746ntf    on514186   5.505   1.404   4.597  0.1717  0.0479  0.7844
 2746ntf    on514187   5.316   1.258   4.548  0.1309 -0.2208 -0.1075
 2746ntf    fn414188   5.525   1.230   4.864  0.1222 -0.3063  0.0064
 2746ntf    fn414189   5.411   1.091   4.759  0.2099 -0.5903  0.2852
 2746ntf    fn414190   5.601   1.161   4.682  0.2511  0.8356  0.2792
 2747ntf    cn114191   4.647   6.518   3.353 -0.3313  0.5122  0.1752
 2747ntf    sn214192   4.730   6.638   3.244  0.1155  0.0532  0.0068
 2747ntf    nn314193   4.644   6.637   3.113  0.0840  0.5301  0.0201
 2747ntf    sn214194   4.512   6.719   3.087 -0.2002 -0.0138 -0.2715
 2747ntf    cn114195   4.575   6.876   3.022  0.3120 -0.0055  0.2326
 2747ntf    fn414196   4.540   6.458   3.303 -0.2810  0.0133  0.6655
 2747ntf    fn414197   4.733   6.425   3.390 -0.3648  0.2600 -0.3691
 2747ntf    fn414198   4.592   6.577   3.458 -0.5251  0.0358  0.3430
 2747ntf    on514199   4.727   6.762   3.318  0.1018  0.1115 -0.0922
 2747ntf    on514200   4.856   6.573   3.216 -0.1149 -0.0850 -0.7210
 2747ntf    on514201   4.441   6.763   3.204 -0.0830  0.1703 -0.2702
 2747ntf    on514202   4.433   6.665   2.979 -0.3982 -0.1648 -0.0530
 2747ntf    fn414203   4.698   6.893   3.067 -0.1795  0.0100  1.5954
 2747ntf    fn414204   4.580   6.869   2.890  0.0990 -0.0673  0.2287
 2747ntf    fn414205   4.502   6.981   3.057 -0.1225 -0.3225  0.2835
 2748ntf    cn114206   2.478   6.673   5.989  0.4052  0.0672 -0.2773
 2748ntf    sn214207   2.485   6.753   6.152 -0.1303 -0.4213 -0.0109
 2748ntf    nn314208   2.578   6.652   6.229  0.4878  0.4288  0.3795
 2748ntf    sn214209   2.551   6.553   6.348  0.1037  0.0044 -0.0546
 2748ntf    cn114210   2.702   6.452   6.343 -0.1871 -0.4393  0.0918
 2748ntf    fn414211   2.418   6.747   5.897 -0.3745 -0.3310 -0.0996
 2748ntf    fn414212   2.602   6.653   5.947  0.5994 -0.1951  0.4078
 2748ntf    fn414213   2.415   6.556   5.992  0.3769  0.1045  0.6486
 2748ntf    on514214   2.545   6.881   6.127 -0.0688 -0.3414  0.5395
 2748ntf    on514215   2.347   6.750   6.194 -0.2007  0.5049 -0.1694
 2748ntf    on514216   2.446   6.456   6.328 -0.3036  0.3351  0.4399
 2748ntf    on514217   2.550   6.619   6.476 -0.7026 -0.2086  0.0534
 2748ntf    fn414218   2.804   6.534   6.330 -0.2937 -0.2735  0.2926
 2748ntf    fn414219   2.721   6.397   6.462 -0.2326  0.0035  0.3061
 2748ntf    fn414220   2.705   6.364   6.245 -0.6690 -0.2696 -0.0787
 2749ntf    cn114221   6.635   6.203   6.050  0.3238  0.0933  0.1657
 2749ntf    sn214222   6.589   6.369   6.110 -0.2294  0.0072 -0.0159
 2749ntf    nn314223   6.442   6.367   6.055 -0.3437  0.3215  0.2782
 2749ntf    sn214224   6.371   6.492   5.992 -0.3308  0.2381  0.0958
 2749ntf    cn114225   6.205   6.442   6.048 -0.2142 -0.0511  0.1835
 2749ntf    fn414226   6.758   6.174   6.088  0.4479  0.1060 -0.2229
 2749ntf    fn414227   6.569   6.100   6.102  0.1053  0.0249 -0.2450
 2749ntf    fn414228   6.616   6.185   5.921  0.3701 -0.2153  0.2016
 2749ntf    on514229   6.598   6.354   6.253  0.2143  0.5188  0.0123
 2749ntf    on514230   6.683   6.456   6.044 -0.7662  0.3017 -0.4085
 2749ntf    on514231   6.367   6.501   5.848  0.6740  0.4172  0.0770
 2749ntf    on514232   6.396   6.613   6.068  0.3492  0.2018 -0.0729
 2749ntf    fn414233   6.108   6.515   5.994  0.2200  0.1823 -0.2932
 2749ntf    fn414234   6.170   6.316   6.026 -0.2344 -0.0549  0.2393
 2749ntf    fn414235   6.193   6.454   6.179  0.7278  0.1460  0.2588
 2750ntf    cn114236   0.220   0.088   2.559 -0.1798  0.3086  0.5622
 2750ntf    sn214237   0.078  -0.012   2.615 -0.2342  0.0176 -0.0955
 2750ntf    nn314238   0.014   0.077   2.726 -0.4539 -0.3516  0.0746
 2750ntf    sn214239  -0.115   0.167   2.736 -0.2625 -0.0597 -0.0767
 2750ntf    cn114240  -0.057   0.292   2.854 -0.1758 -0.0520 -0.1274
 2750ntf    fn414241   0.310   0.016   2.495 -0.4593  0.6186 -0.1853
 2750ntf    fn414242   0.172   0.180   2.477 -0.6333 -0.3980  0.0259
 2750ntf    fn414243   0.290   0.148   2.654 -0.5777  0.6267  0.6603
 2750ntf    on514244   0.010  -0.022   2.488 -0.4593  0.6736 -0.0283
 2750ntf    on514245   0.144  -0.129   2.668  1.0327  0.5413 -0.4675
 2750ntf    on514246  -0.216   0.098   2.812  0.1103 -0.0556  0.4210
 2750ntf    on514247  -0.148   0.239   2.615  0.3676 -0.5365 -0.5437
 2750ntf    fn414248   0.035   0.374   2.805 -0.3361  0.1417 -0.1113
 2750ntf    fn414249  -0.156   0.373   2.887  0.2562  0.4386 -0.0206
 2750ntf    fn414250  -0.009   0.236   2.963  0.6378 -0.3898 -0.6545
 2751ntf    cn114251   1.847   2.248   0.315 -0.3563 -0.4036 -0.3408
 2751ntf    sn214252   1.803   2.419   0.360 -0.2115 -0.5052  0.1952
 2751ntf    nn314253   1.882   2.493   0.246 -0.2573 -0.3540  0.2614
 2751ntf    sn214254   1.815   2.594   0.148 -0.0786 -0.1212  0.3773
 2751ntf    cn114255   1.902   2.744   0.204 -0.0345 -0.0908  0.2284
 2751ntf    fn414256   1.851   2.220   0.186  0.8774 -0.0439 -0.3946
 2751ntf    fn414257   1.969   2.208   0.348 -0.2767 -0.2602 -0.4619
 2751ntf    fn414258   1.767   2.160   0.373 -0.0225 -0.5505 -0.0939
 2751ntf    on514259   1.660   2.432   0.354 -0.1993 -0.2822  0.3602
 2751ntf    on514260   1.861   2.434   0.491  0.3372  0.3034 -0.1346
 2751ntf    on514261   1.674   2.627   0.154 -0.0021  0.2749  0.1029
 2751ntf    on514262   1.865   2.572   0.015  0.0728  0.0612  0.4032
 2751ntf    fn414263   2.032   2.725   0.189 -0.0941 -0.0674 -0.3275
 2751ntf    fn414264   1.876   2.855   0.137  1.6078  0.0582 -0.1991
 2751ntf    fn414265   1.881   2.759   0.334 -0.0015  0.4769  0.1674
 2752ntf    cn114266   4.464   4.373   3.373 -0.1941  0.0991  0.1283
 2752ntf    sn214267   4.414   4.484   3.508  0.3977  0.1962  0.2687
 2752ntf    nn314268   4.297   4.396   3.565  0.5518 -0.6876 -0.7393
 2752ntf    sn214269   4.313   4.290   3.680 -0.0150 -0.0704 -0.0858
 2752ntf    cn114270   4.288   4.390   3.830  0.2925 -0.0646 -0.0379
 2752ntf    fn414271   4.526   4.265   3.416 -1.0953 -0.3122  0.4282
 2752ntf    fn414272   4.356   4.335   3.307 -0.0424 -0.3925  0.1578
 2752ntf    fn414273   4.543   4.426   3.281 -0.7357 -0.1060 -0.4636
 2752ntf    on514274   4.532   4.489   3.590 -0.0552 -0.0504  0.9417
 2752ntf    on514275   4.365   4.599   3.437 -0.0929 -0.1257  0.0807
 2752ntf    on514276   4.443   4.230   3.693  0.0733  0.2616  0.6033
 2752ntf    on514277   4.197   4.203   3.683 -0.1870  0.1561 -0.1545
 2752ntf    fn414278   4.342   4.333   3.937  0.2473 -0.3994 -0.1915
 2752ntf    fn414279   4.339   4.511   3.815  0.8130 -0.1266  1.1149
 2752ntf    fn414280   4.158   4.395   3.856  0.3218  0.8724 -0.0571
 2753ntf    cn114281   0.361   6.833   4.486  0.1981 -0.2301 -0.0639
 2753ntf    sn214282   0.246   6.716   4.563  0.2654 -0.2139  0.0600
 2753ntf    nn314283   0.304   6.574   4.532  0.5507 -0.1785  0.4205
 2753ntf    sn214284   0.259   6.483   4.412  0.0933  0.0761  0.3944
 2753ntf    cn114285   0.385   6.355   4.445  0.0446 -0.0008  0.2802
 2753ntf    fn414286   0.482   6.845   4.538  0.0406 -0.5018  0.3678
 2753ntf    fn414287   0.374   6.806   4.357 -0.5719 -0.2624 -0.1408
 2753ntf    fn414288   0.319   6.958   4.484  0.1095 -0.2588  0.0652
 2753ntf    on514289   0.253   6.732   4.706  0.5136  0.2403 -0.0033
 2753ntf    on514290   0.118   6.746   4.503  0.2404 -0.1188  0.1591
 2753ntf    on514291   0.287   6.529   4.278 -0.3679  0.2308  0.3500
 2753ntf    on514292   0.133   6.414   4.423 -0.3863  0.7773 -0.5892
 2753ntf    fn414293   0.391   6.256   4.358  0.2117 -0.2323  0.5547
 2753ntf    fn414294   0.510   6.397   4.432  0.1991 -0.4632  0.2434
 2753ntf    fn414295   0.370   6.305   4.566 -0.5350 -0.4756  0.0204
 2754ntf    cn114296   3.663   4.251   4.407 -0.3396  0.1455 -0.2627
 2754ntf    sn214297   3.558   4.243   4.259 -0.1098 -0.3953 -0.3997
 2754ntf    nn314298   3.656   4.278   4.140  0.2632 -0.1927 -0.0348
 2754ntf    sn214299   3.736   4.181   4.046  0.1545 -0.2688 -0.0495
 2754ntf    cn114300   3.810   4.299   3.929 -0.2269 -0.2228 -0.2449
 2754ntf    fn414301   3.738   4.359   4.422  0.2473 -0.3478  0.4569
 2754ntf    fn414302   3.595   4.252   4.520 -0.2600  0.6038 -0.2177
 2754ntf    fn414303   3.750   4.151   4.407 -0.3093  0.1725  0.5160
 2754ntf    on514304   3.515   4.105   4.260 -0.7141 -0.2096 -0.3849
 2754ntf    on514305   3.456   4.343   4.273  0.2012 -0.1130 -0.1413
 2754ntf    on514306   3.658   4.094   3.962 -0.2741 -0.1611  0.2329
 2754ntf    on514307   3.854   4.129   4.111  0.2558 -0.0834 -0.0836
 2754ntf    fn414308   3.855   4.239   3.820  0.4198  0.1980 -0.2117
 2754ntf    fn414309   3.722   4.388   3.884 -0.0861 -0.1235 -0.3234
 2754ntf    fn414310   3.908   4.367   3.986 -0.3000  0.0654 -0.4568
 2755ntf    cn114311   5.606   2.641   6.788  0.1047 -0.3371 -0.0937
 2755ntf    sn214312   5.568   2.479   6.862  0.4109 -0.1248  0.5450
 2755ntf    nn314313   5.695   2.402   6.810  0.3229  0.2931 -0.3150
 2755ntf    sn214314   5.720   2.249   6.792  0.0355  0.2222 -0.1258
 2755ntf    cn114315   5.891   2.236   6.851 -0.0518 -0.0739  0.0659
 2755ntf    fn414316   5.588   2.645   6.658 -0.3068 -0.5565 -0.0444
 2755ntf    fn414317   5.537   2.744   6.834  0.0616 -0.2221 -0.4170
 2755ntf    fn414318   5.731   2.675   6.816 -0.1759  0.3094  0.4147
 2755ntf    on514319   5.581   2.506   7.003 -0.3720  0.2933  0.5443
 2755ntf    on514320   5.439   2.439   6.811  0.0493  0.5642  0.9071
 2755ntf    on514321   5.738   2.207   6.655 -0.5845 -0.4882  0.0019
 2755ntf    on514322   5.637   2.157   6.867  0.1351  0.0474 -0.2296
 2755ntf    fn414323   5.969   2.298   6.764 -0.3392 -0.0135 -0.1478
 2755ntf    fn414324   5.910   2.293   6.969 -0.2209  0.5621 -0.2096
 2755ntf    fn414325   5.930   2.111   6.871  0.2588 -0.0464 -0.3428
 2756ntf    cn114326   0.800   3.351   1.529 -0.2544  0.0223  0.3524
 2756ntf    sn214327   0.937   3.326   1.646  0.1477  0.0540 -0.1097
 2756ntf    nn314328   0.861   3.270   1.771 -0.4709  0.3987 -0.3275
 2756ntf    sn214329   0.789   3.340   1.891 -0.2808  0.0113  0.0145
 2756ntf    cn114330   0.650   3.229   1.928 -0.1749 -0.3050 -0.5198
 2756ntf    fn414331   0.842   3.341   1.403  0.0486 -0.2532  0.4712
 2756ntf    fn414332   0.713   3.251   1.538  0.0889 -0.2905  0.2479
 2756ntf    fn414333   0.734   3.463   1.550 -0.0538  0.1963  0.0655
 2756ntf    on514334   1.016   3.224   1.580 -0.1255 -0.3214  0.1433
 2756ntf    on514335   0.996   3.457   1.661 -0.3919  0.2647  0.1709
 2756ntf    on514336   0.724   3.465   1.863  0.5757  0.3699 -0.4180
 2756ntf    on514337   0.852   3.328   2.020  0.1809  0.0353 -0.2045
 2756ntf    fn414338   0.582   3.208   1.817 -0.5354 -0.3315 -0.2962
 2756ntf    fn414339   0.693   3.113   1.975 -0.2458 -0.1019  0.0565
 2756ntf    fn414340   0.559   3.278   2.011  0.0141 -0.5367 -0.1757
 2757ntf    cn114341   2.977   0.702   0.729 -0.0725 -0.0453  0.0423
 2757ntf    sn214342   2.895   0.846   0.656 -0.0335 -0.0883 -0.0862
 2757ntf    nn314343   2.880   0.927   0.790  0.1289  0.6003 -0.4783
 2757ntf    sn214344   2.988   1.013   0.865 -0.1892  0.3842  0.2321
 2757ntf    cn114345   2.967   0.935   1.028 -0.0984 -0.3718 -0.1130
 2757ntf    fn414346   2.927   0.671   0.848  0.0620  0.7519  0.3097
 2757ntf    fn414347   2.962   0.593   0.655 -0.1251  0.1933 -0.2990
 2757ntf    fn414348   3.107   0.722   0.745 -0.0372 -0.2001 -0.0415
 2757ntf    on514349   2.988   0.889   0.554 -0.0875 -0.3400 -0.2403
 2757ntf    on514350   2.767   0.802   0.607 -0.3306  0.0164  0.5918
 2757ntf    on514351   2.947   1.149   0.890  0.0660  0.4571  0.2586
 2757ntf    on514352   3.126   0.985   0.835 -0.3393  0.0044 -0.1091
 2757ntf    fn414353   2.843   0.919   1.070 -0.3298  0.0441 -0.6282
 2757ntf    fn414354   3.020   0.815   1.039  0.0288 -0.3545 -0.5274
 2757ntf    fn414355   3.021   1.011   1.122 -0.4095 -0.5372  0.2026
 2758ntf    cn114356   6.000   2.625   3.151  0.2014 -0.1303 -0.2326
 2758ntf    sn214357   6.050   2.480   3.054  0.0945 -0.0801 -0.3620
 2758ntf    nn314358   5.944   2.471   2.939 -0.5763 -0.1021  0.2515
 2758ntf    sn214359   5.946   2.391   2.804  0.2796 -0.0797  0.2471
 2758ntf    cn114360   5.814   2.275   2.849  0.1747 -0.2523 -0.4868
 2758ntf    fn414361   6.079   2.653   3.254 -0.0792 -0.6090  0.1181
 2758ntf    fn414362   5.979   2.735   3.080  0.0853  0.0880  0.1304
 2758ntf    fn414363   5.885   2.606   3.213  0.0982 -0.4121 -0.5123
 2758ntf    on514364   6.181   2.517   3.005  0.1838  0.0368 -0.0353
 2758ntf    on514365   6.041   2.379   3.156  0.1123  0.1785 -0.1019
 2758ntf    on514366   6.061   2.308   2.780  0.0678 -0.4414  0.4765
 2758ntf    on514367   5.881   2.458   2.694  0.2384  0.1743  0.4262
 2758ntf    fn414368   5.828   2.192   2.951  0.1664  0.2720 -0.0564
 2758ntf    fn414369   5.708   2.351   2.872  0.3917  0.1193 -0.7146
 2758ntf    fn414370   5.777   2.204   2.743  0.5349 -0.5395 -0.4231
 2759ntf    cn114371   2.661   2.462   6.594  0.2607  0.1212  0.3413
 2759ntf    sn214372   2.604   2.340   6.716 -0.1395  0.1908  0.2241
 2759ntf    nn314373   2.550   2.227   6.621  0.1517  0.2880 -0.0590
 2759ntf    sn214374   2.608   2.087   6.582 -0.0626  0.1138  0.2421
 2759ntf    cn114375   2.470   1.999   6.503  0.1651  0.1210 -0.1685
 2759ntf    fn414376   2.584   2.457   6.486  0.2363 -0.3196  0.3754
 2759ntf    fn414377   2.665   2.586   6.638 -0.4449  0.1546  0.3119
 2759ntf    fn414378   2.784   2.423   6.561  0.3069  0.2417  0.3698
 2759ntf    on514379   2.717   2.303   6.798  0.4312  0.4988 -0.4151
 2759ntf    on514380   2.494   2.408   6.781 -0.1279  0.3952  0.0330
 2759ntf    on514381   2.634   2.000   6.694  0.0448 -0.5460 -0.2924
 2759ntf    on514382   2.711   2.081   6.482 -0.8360  0.3849 -0.5857
 2759ntf    fn414383   2.367   2.008   6.586  0.3625  0.3680  0.0549
 2759ntf    fn414384   2.434   2.053   6.388  0.2230 -0.2183 -0.3460
 2759ntf    fn414385   2.483   1.869   6.487 -0.3503  0.0147  0.2249
 2760ntf    cn114386   3.304   5.867   2.949 -0.1595 -0.0040  0.1926
 2760ntf    sn214387   3.263   5.721   2.851  0.2755  0.1422 -0.2113
 2760ntf    nn314388   3.308   5.778   2.712  0.2775  0.1133 -0.2230
 2760ntf    sn214389   3.335   5.697   2.580 -0.0109 -0.0783 -0.1653
 2760ntf    cn114390   3.515   5.680   2.600  0.0197 -0.0861 -0.4401
 2760ntf    fn414391   3.364   5.844   3.065  0.5961 -0.0976 -0.2106
 2760ntf    fn414392   3.381   5.951   2.881  0.2022 -0.4369  0.0664
 2760ntf    fn414393   3.197   5.936   2.985 -0.1816  0.1802 -0.2196
 2760ntf    on514394   3.351   5.621   2.908  0.4190 -0.0403 -0.7438
 2760ntf    on514395   3.120   5.705   2.864  0.3982 -0.3490  0.5700
 2760ntf    on514396   3.330   5.783   2.464 -0.3845 -0.2443 -0.2732
 2760ntf    on514397   3.282   5.564   2.571 -0.9597  0.2646  0.1707
 2760ntf    fn414398   3.545   5.588   2.691  0.1938  0.0627 -0.3462
 2760ntf    fn414399   3.570   5.638   2.488  0.5172  0.0036 -0.2341
 2760ntf    fn414400   3.575   5.794   2.633  0.3424 -0.4493  0.2614
 2761ntf    cn114401   2.342   3.300   0.700 -0.2476 -0.2193  0.5438
 2761ntf    sn214402   2.506   3.303   0.778 -0.0516  0.3730  0.1177
 2761ntf    nn314403   2.564   3.164   0.734  0.3158  0.5551  0.0312
 2761ntf    sn214404   2.648   3.132   0.605  0.1435  0.1847  0.0091
 2761ntf    cn114405   2.819   3.139   0.666 -0.0635  0.0810  0.5984
 2761ntf    fn414406   2.282   3.418   0.699 -0.2076 -0.1963 -0.3161
 2761ntf    fn414407   2.348   3.266   0.572 -0.1131  0.0101  0.4898
 2761ntf    fn414408   2.260   3.230   0.776 -0.3926 -0.1859  0.4199
 2761ntf    on514409   2.587   3.413   0.733  0.4290  0.1707  0.4778
 2761ntf    on514410   2.479   3.300   0.920  0.5244  0.0100  0.2234
 2761ntf    on514411   2.632   3.231   0.501 -0.6877 -0.0583 -0.1024
 2761ntf    on514412   2.640   2.992   0.574 -0.0358  0.1938  0.0168
 2761ntf    fn414413   2.845   3.240   0.748 -0.6859 -0.0200  0.9298
 2761ntf    fn414414   2.852   3.026   0.727  0.2277  0.1164  0.5093
 2761ntf    fn414415   2.898   3.143   0.560 -0.1594 -0.6105  0.4985
 2762ntf    cn114416   6.082   0.909   3.067 -0.0435 -0.7671 -0.2105
 2762ntf    sn214417   6.097   0.738   3.007 -0.1161 -0.7843 -0.1795
 2762ntf    nn314418   6.060   0.761   2.856  0.2261  0.0443 -0.1453
 2762ntf    sn214419   6.161   0.795   2.742  0.1703  0.0692 -0.1874
 2762ntf    cn114420   6.116   0.967   2.701 -0.0591  0.0725  0.0731
 2762ntf    fn414421   6.180   0.984   3.017 -0.4098  0.1897  0.4807
 2762ntf    fn414422   5.978   0.975   3.019  0.0806 -0.3629  0.0651
 2762ntf    fn414423   6.079   0.927   3.198 -0.0854  0.2841 -0.3431
 2762ntf    on514424   6.237   0.710   3.031 -0.1227 -0.1001  0.7282
 2762ntf    on514425   6.001   0.665   3.086 -0.3605 -0.0550  0.2071
 2762ntf    on514426   6.109   0.724   2.628 -0.1013 -0.2322  0.1235
 2762ntf    on514427   6.304   0.796   2.763  0.1604  0.2347 -0.1251
 2762ntf    fn414428   6.177   1.007   2.590  0.2743 -0.3332  0.1037
 2762ntf    fn414429   5.989   1.000   2.690  0.0131  0.3673  0.1062
 2762ntf    fn414430   6.172   1.051   2.786  0.5509 -0.1416 -0.1110
 2763ntf    cn114431   7.059   5.305   7.058 -0.1476 -0.4095 -0.2280
 2763ntf    sn214432   7.228   5.273   6.999  0.0218 -0.0653  0.0697
 2763ntf    nn314433   7.200   5.296   6.846  0.1431 -0.1281  0.0385
 2763ntf    sn214434   7.311   5.342   6.746 -0.0623  0.0141 -0.1243
 2763ntf    cn114435   7.229   5.499   6.705 -0.1141 -0.0111 -0.1175
 2763ntf    fn414436   6.978   5.214   7.005 -0.2610 -0.4192 -0.0424
 2763ntf    fn414437   7.043   5.297   7.189 -0.2750 -0.5910 -0.2540
 2763ntf    fn414438   7.018   5.427   7.031 -0.1434 -0.3921 -0.1519
 2763ntf    on514439   7.302   5.375   7.070 -0.2225  0.2147 -0.0729
 2763ntf    on514440   7.250   5.134   7.028 -0.2146 -0.0294  0.4273
 2763ntf    on514441   7.317   5.265   6.624 -0.0898  0.0779 -0.1658
 2763ntf    on514442   7.442   5.371   6.800 -0.4838 -0.2003  1.0420
 2763ntf    fn414443   7.193   5.556   6.819 -0.3965  0.3738 -0.3939
 2763ntf    fn414444   7.306   5.583   6.638 -0.6320 -0.0048 -0.7118
 2763ntf    fn414445   7.125   5.488   6.624 -0.0503  0.0958 -0.2139
 2764ntf    cn114446   3.492   3.696   2.795 -0.0609  0.1683 -0.0298
 2764ntf    sn214447   3.490   3.637   2.967  0.0420  0.3856  0.0449
 2764ntf    nn314448   3.562   3.498   2.950  0.1486  0.4074  0.3084
 2764ntf    sn214449   3.699   3.456   3.013  0.0296 -0.2068  0.1623
 2764ntf    cn114450   3.806   3.495   2.871 -0.2150  0.4206  0.1495
 2764ntf    fn414451   3.612   3.680   2.743 -0.0884 -0.0746 -0.0216
 2764ntf    fn414452   3.406   3.638   2.712 -0.3302  0.2856  0.1625
 2764ntf    fn414453   3.464   3.825   2.787 -0.0859  0.1632 -0.0264
 2764ntf    on514454   3.557   3.746   3.036 -0.1471  0.5576 -0.0432
 2764ntf    on514455   3.350   3.622   2.996  0.2662 -0.1563  0.8861
 2764ntf    on514456   3.704   3.312   3.016 -0.8569 -0.2442  0.1237
 2764ntf    on514457   3.744   3.521   3.134 -0.3524  0.0942  0.1445
 2764ntf    fn414458   3.795   3.626   2.852  0.0470  0.3795 -0.3021
 2764ntf    fn414459   3.930   3.473   2.910 -0.2240 -0.1226 -0.1175
 2764ntf    fn414460   3.786   3.427   2.759 -0.0358  0.4808  0.0811
 2765ntf    cn114461   6.343   1.123   3.372 -0.1546 -0.1813 -0.3454
 2765ntf    sn214462   6.359   0.975   3.477 -0.0679  0.2079  0.1934
 2765ntf    nn314463   6.387   1.040   3.617  0.1904 -0.0443  0.2610
 2765ntf    sn214464   6.531   1.065   3.673  0.2759  0.2260 -0.0727
 2765ntf    cn114465   6.571   0.902   3.743 -0.2437  0.0444 -0.1978
 2765ntf    fn414466   6.454   1.194   3.375 -0.3320  0.0824  0.0227
 2765ntf    fn414467   6.318   1.094   3.245 -0.0909  0.3675 -0.4827
 2765ntf    fn414468   6.248   1.202   3.419  0.1232 -0.0913  0.0704
 2765ntf    on514469   6.228   0.916   3.472 -0.1697  0.4048  0.5562
 2765ntf    on514470   6.465   0.891   3.427 -0.4638  0.0480 -0.3889
 2765ntf    on514471   6.514   1.142   3.794 -0.5420  0.5171 -0.3648
 2765ntf    on514472   6.640   1.083   3.580  0.3089 -0.0753 -0.0925
 2765ntf    fn414473   6.628   0.815   3.661  0.1430  0.1831 -0.0767
 2765ntf    fn414474   6.654   0.915   3.845 -0.0098 -0.9365 -0.2558
 2765ntf    fn414475   6.468   0.838   3.797  0.0037 -0.0575  0.1560
 2766ntf    cn114476   5.842   0.998   5.344 -0.0335 -0.0180  0.0061
 2766ntf    sn214477   5.815   1.130   5.223 -0.2069 -0.2183 -0.1749
 2766ntf    nn314478   5.907   1.238   5.290 -0.6449 -0.2787  0.5317
 2766ntf    sn214479   5.878   1.362   5.382 -0.0630  0.2372  0.0287
 2766ntf    cn114480   5.965   1.495   5.293 -0.0569  0.0859 -0.1923
 2766ntf    fn414481   5.961   0.943   5.329  0.0659  0.2394 -0.1594
 2766ntf    fn414482   5.837   1.037   5.470  0.5917  0.1527 -0.0186
 2766ntf    fn414483   5.745   0.907   5.340 -0.3208  0.3026 -0.4755
 2766ntf    on514484   5.871   1.069   5.104  0.7736 -0.0566  0.1918
 2766ntf    on514485   5.673   1.156   5.227 -0.0290  0.7073  0.3910
 2766ntf    on514486   5.951   1.355   5.506 -0.4096  0.6089  0.2533
 2766ntf    on514487   5.742   1.407   5.398 -0.3917 -0.6208 -0.2969
 2766ntf    fn414488   6.092   1.473   5.263  0.0382  0.6618 -0.2322
 2766ntf    fn414489   5.909   1.517   5.175 -0.1067 -0.1541 -0.2131
 2766ntf    fn414490   5.961   1.611   5.357  0.2360 -0.4154  0.7476
 2767ntf    cn114491   6.668   5.823   1.356  0.1976  0.2427 -0.4697
 2767ntf    sn214492   6.687   5.930   1.210  0.1625  0.0629 -0.6072
 2767ntf    nn314493   6.538   5.978   1.205  0.2564  0.4991  0.4223
 2767ntf    sn214494   6.474   6.116   1.165  0.0295  0.2063 -0.2520
 2767ntf    cn114495   6.348   6.137   1.294 -0.0761 -0.5042 -0.2401
 2767ntf    fn414496   6.675   5.697   1.316 -0.3966  0.0917 -0.0962
 2767ntf    fn414497   6.762   5.827   1.449 -0.2952 -0.4199  0.0554
 2767ntf    fn414498   6.551   5.846   1.413  0.5245  0.1425  0.2537
 2767ntf    on514499   6.790   6.020   1.255 -0.1265 -0.0109  0.2166
 2767ntf    on514500   6.718   5.849   1.095  0.5196 -0.6384 -0.0250
 2767ntf    on514501   6.398   6.114   1.043 -0.3629  0.1045 -0.0073
 2767ntf    on514502   6.557   6.234   1.176  0.0548  0.1567  0.1044
 2767ntf    fn414503   6.293   6.257   1.288 -0.2325 -0.5878 -0.4953
 2767ntf    fn414504   6.257   6.042   1.283 -0.4782 -0.1239 -0.2262
 2767ntf    fn414505   6.404   6.126   1.414 -0.3271 -0.2054 -0.0942
 2768ntf    cn114506   5.786   5.231   3.102  0.1766 -0.2450  0.1657
 2768ntf    sn214507   5.834   5.238   3.278 -0.2484  0.1951  0.2683
 2768ntf    nn314508   5.864   5.389   3.305  0.1038  0.2943 -0.6370
 2768ntf    sn214509   5.754   5.493   3.348  0.1902 -0.0145  0.3625
 2768ntf    cn114510   5.833   5.648   3.293  0.3546 -0.2710 -0.1319
 2768ntf    fn414511   5.864   5.159   3.024  0.0478 -0.2872  0.0756
 2768ntf    fn414512   5.662   5.189   3.086  0.1246 -0.2195  0.4940
 2768ntf    fn414513   5.789   5.355   3.054 -0.1985 -0.3908 -0.2350
 2768ntf    on514514   5.729   5.172   3.351 -0.1494 -0.1035  0.1437
 2768ntf    on514515   5.956   5.160   3.280 -0.1944  0.2402 -0.7071
 2768ntf    on514516   5.740   5.516   3.489 -0.6917  0.0967  0.2626
 2768ntf    on514517   5.632   5.492   3.271  0.2282 -0.0192  0.3020
 2768ntf    fn414518   5.784   5.765   3.330 -0.1734 -0.1828 -1.0803
 2768ntf    fn414519   5.959   5.650   3.335  0.2623 -0.7065  0.1800
 2768ntf    fn414520   5.849   5.651   3.162 -0.2777  0.3298 -0.1954
 2769ntf    cn114521   0.585   5.958   6.421  0.1905 -0.4147 -0.1328
 2769ntf    sn214522   0.509   5.939   6.257 -0.0082 -0.0933 -0.0786
 2769ntf    nn314523   0.381   6.030   6.254 -0.2007 -0.3528  0.1755
 2769ntf    sn214524   0.317   6.117   6.140 -0.0457 -0.0845  0.2916
 2769ntf    cn114525   0.201   5.996   6.070 -0.0070  0.2999 -0.4403
 2769ntf    fn414526   0.495   5.955   6.518  0.0189  0.1870 -0.2682
 2769ntf    fn414527   0.674   5.862   6.441  0.5315 -0.0359  0.2080
 2769ntf    fn414528   0.648   6.075   6.428  0.4219 -0.5127 -0.5293
 2769ntf    on514529   0.623   5.971   6.174  0.0302  0.4176  0.1690
 2769ntf    on514530   0.474   5.800   6.265 -0.1559 -0.0063  0.9280
 2769ntf    on514531   0.410   6.152   6.037  0.3357  0.1168  0.7008
 2769ntf    on514532   0.230   6.220   6.191 -0.5100 -0.3995  0.1429
 2769ntf    fn414533   0.276   5.900   6.018  0.4666  0.3680  0.1111
 2769ntf    fn414534   0.112   5.955   6.158 -0.1265  0.4324 -0.4986
 2769ntf    fn414535   0.143   6.051   5.964 -0.2119 -0.2028 -0.5933
 2770ntf    cn114536   1.566   5.901   1.166  0.3242  0.5534  0.2319
 2770ntf    sn214537   1.565   6.006   1.314  0.2539  0.3252  0.3935
 2770ntf    nn314538   1.412   6.041   1.318  0.2274  0.2831 -0.1838
 2770ntf    sn214539   1.316   6.069   1.439  0.2849 -0.3129  0.0051
 2770ntf    cn114540   1.259   5.900   1.474  0.3950 -0.3010  0.2464
 2770ntf    fn414541   1.485   5.798   1.179  0.7358  0.2127  0.1300
 2770ntf    fn414542   1.522   5.969   1.061 -0.0835  0.4251  0.3183
 2770ntf    fn414543   1.682   5.852   1.125 -0.0846 -0.1415 -0.1045
 2770ntf    on514544   1.617   5.926   1.422 -0.4688 -0.3391  0.2532
 2770ntf    on514545   1.640   6.122   1.271  0.0978  0.2450 -0.0974
 2770ntf    on514546   1.198   6.143   1.404  0.2113 -0.6277 -0.4208
 2770ntf    on514547   1.387   6.101   1.560  0.3365 -0.3399 -0.0178
 2770ntf    fn414548   1.156   5.897   1.556 -0.2176 -0.1158 -0.4994
 2770ntf    fn414549   1.216   5.842   1.363  0.5081 -0.4597  0.2861
 2770ntf    fn414550   1.354   5.818   1.515  0.6653 -0.0862  0.0552
 2771ntf    cn114551   6.249   2.513   4.117 -0.3849 -0.3682  0.0447
 2771ntf    sn214552   6.225   2.484   4.295  0.1022 -0.5503  0.0847
 2771ntf    nn314553   6.137   2.355   4.285 -0.1050 -0.3721 -0.4478
 2771ntf    sn214554   5.981   2.339   4.296 -0.1251  0.1735  0.0803
 2771ntf    cn114555   5.954   2.359   4.475 -0.3304  0.0973  0.0583
 2771ntf    fn414556   6.350   2.596   4.092 -0.2125 -0.3024  0.9292
 2771ntf    fn414557   6.285   2.401   4.056  0.8309  0.0134  0.0328
 2771ntf    fn414558   6.152   2.567   4.045 -0.4904 -0.5222  0.0732
 2771ntf    on514559   6.360   2.463   4.340  0.0427 -0.6450  0.2160
 2771ntf    on514560   6.154   2.597   4.350  0.0574 -0.6883  0.3089
 2771ntf    on514561   5.944   2.201   4.274 -0.4828  0.2994 -0.1000
 2771ntf    on514562   5.898   2.443   4.243 -0.3231 -0.1622 -0.2758
 2771ntf    fn414563   6.048   2.309   4.553 -0.3564 -0.3951 -0.2213
 2771ntf    fn414564   5.959   2.486   4.510  0.2958  0.1427 -0.1782
 2771ntf    fn414565   5.838   2.313   4.519 -0.2636 -0.3054 -0.1760
 2772ntf    cn114566   0.960   3.869   4.293  0.2881  0.0407  0.0061
 2772ntf    sn214567   1.040   4.018   4.361  0.2380  0.0268  0.0939
 2772ntf    nn314568   0.912   4.102   4.395  0.1582 -0.2328  0.4503
 2772ntf    sn214569   0.858   4.240   4.342 -0.1081 -0.3788  0.3440
 2772ntf    cn114570   0.724   4.186   4.231 -0.1502  0.3737  0.0238
 2772ntf    fn414571   1.049   3.807   4.218  0.7841  0.1611  0.4916
 2772ntf    fn414572   0.907   3.790   4.385 -0.8551  0.5652 -0.1778
 2772ntf    fn414573   0.858   3.903   4.215  0.2864  0.1225  0.0440
 2772ntf    on514574   1.105   3.972   4.482  0.0207 -0.1333  0.1521
 2772ntf    on514575   1.130   4.077   4.265  0.0723  0.1313  0.0027
 2772ntf    on514576   0.943   4.330   4.270 -0.8004  0.0462  0.0431
 2772ntf    on514577   0.770   4.296   4.442 -0.0452 -0.4532  0.4420
 2772ntf    fn414578   0.640   4.096   4.279 -0.3143  0.3008 -0.4027
 2772ntf    fn414579   0.646   4.288   4.199  0.2509  0.5559 -0.3830
 2772ntf    fn414580   0.761   4.139   4.113 -0.4188 -0.3538  0.2252
 2773ntf    cn114581   2.293   4.335   5.673  0.1194  0.1268 -0.1033
 2773ntf    sn214582   2.179   4.468   5.626 -0.2217 -0.0805  0.1296
 2773ntf    nn314583   2.123   4.495   5.770  0.6054  0.3694  0.3716
 2773ntf    sn214584   1.983   4.557   5.808  0.1959 -0.3595  0.0711
 2773ntf    cn114585   1.914   4.418   5.903  0.0337 -0.1527  0.2564
 2773ntf    fn414586   2.381   4.303   5.580  0.0656  0.0317 -0.1214
 2773ntf    fn414587   2.373   4.370   5.772 -0.6653 -0.1461  0.6401
 2773ntf    fn414588   2.225   4.225   5.702  0.7735 -0.2084  0.1660
 2773ntf    on514589   2.265   4.573   5.578  0.1368 -0.4880 -0.1278
 2773ntf    on514590   2.076   4.410   5.543 -0.2195  0.2028 -0.0727
 2773ntf    on514591   1.893   4.575   5.697 -0.1350  0.3670  0.4561
 2773ntf    on514592   1.994   4.661   5.908  0.1872 -1.1948  0.9562
 2773ntf    fn414593   2.004   4.371   5.988  0.0475 -0.0167  0.3172
 2773ntf    fn414594   1.801   4.441   5.967  0.0767  0.3344  0.1589
 2773ntf    fn414595   1.895   4.311   5.828  0.3219  0.0165 -0.0645
 2774ntf    cn114596   3.457   0.418   5.575 -0.0306  0.3119 -0.4199
 2774ntf    sn214597   3.532   0.582   5.592  0.4555  0.0349  0.1521
 2774ntf    nn314598   3.625   0.555   5.715  0.2119 -0.3240  0.2565
 2774ntf    sn214599   3.706   0.650   5.811 -0.0087 -0.0848  0.2082
 2774ntf    cn114600   3.871   0.592   5.763 -0.0754 -0.0670 -0.0468
 2774ntf    fn414601   3.361   0.420   5.484 -0.1715  0.1753 -0.2755
 2774ntf    fn414602   3.555   0.335   5.543 -0.2294  0.0366 -0.3194
 2774ntf    fn414603   3.400   0.377   5.687  0.0260  0.7427 -0.2331
 2774ntf    on514604   3.600   0.589   5.465  0.3489  0.4565  0.1134
 2774ntf    on514605   3.424   0.673   5.619 -0.5301 -1.1950  0.4384
 2774ntf    on514606   3.681   0.622   5.951  0.3819 -0.5398  0.1887
 2774ntf    on514607   3.715   0.786   5.764  0.2092 -0.3332 -0.4803
 2774ntf    fn414608   3.874   0.566   5.634 -0.0283  0.2943 -0.1200
 2774ntf    fn414609   3.968   0.675   5.800 -0.2434  0.4868 -0.8338
 2774ntf    fn414610   3.900   0.477   5.821  0.0807  0.3914  0.7998
 2775ntf    cn114611   2.201   1.296   1.208  0.3596 -0.1606 -0.0648
 2775ntf    sn214612   2.314   1.438   1.200  0.1068  0.0401 -0.0498
 2775ntf    nn314613   2.288   1.477   1.050 -0.2849 -0.0665 -0.0112
 2775ntf    sn214614   2.376   1.457   0.922  0.0175 -0.0197  0.1874
 2775ntf    cn114615   2.460   1.618   0.922  0.1714 -0.0942 -0.3833
 2775ntf    fn414616   2.169   1.260   1.331 -0.5830 -0.5606 -0.4230
 2775ntf    fn414617   2.085   1.315   1.147  0.4198  0.0123 -0.1263
 2775ntf    fn414618   2.255   1.184   1.162 -0.5208 -0.6726  0.1313
 2775ntf    on514619   2.258   1.530   1.297 -0.3825 -0.0568 -0.2357
 2775ntf    on514620   2.438   1.373   1.233 -0.2456 -0.4124  0.4052
 2775ntf    on514621   2.290   1.456   0.806  0.1499  0.4560  0.0825
 2775ntf    on514622   2.486   1.364   0.927 -0.3292 -0.5178 -0.9341
 2775ntf    fn414623   2.466   1.678   1.040 -0.0009 -0.7307 -0.0470
 2775ntf    fn414624   2.583   1.602   0.876  0.4755  0.6037  0.1651
 2775ntf    fn414625   2.405   1.700   0.834 -0.0071 -0.2006 -0.3729
 2776ntf    cn114626   5.526   5.380   2.424 -0.1501  0.0531  0.0697
 2776ntf    sn214627   5.466   5.268   2.294 -0.1007 -0.1945  0.2592
 2776ntf    nn314628   5.333   5.343   2.257 -0.0562 -0.2857 -0.0852
 2776ntf    sn214629   5.187   5.293   2.286 -0.2566  0.2792 -0.1087
 2776ntf    cn114630   5.151   5.255   2.112 -0.1429  0.3192 -0.1417
 2776ntf    fn414631   5.434   5.419   2.510  0.0316  0.0135  0.2847
 2776ntf    fn414632   5.617   5.326   2.504  0.0055 -0.0472 -0.1717
 2776ntf    fn414633   5.589   5.489   2.384  0.0542 -0.1609 -0.1926
 2776ntf    on514634   5.562   5.280   2.187 -0.5505 -0.2670 -0.1556
 2776ntf    on514635   5.455   5.143   2.366 -0.2802 -0.1890  0.2419
 2776ntf    on514636   5.099   5.406   2.299 -0.2566  0.3008 -0.2878
 2776ntf    on514637   5.166   5.171   2.359  0.4675  0.1713 -0.0705
 2776ntf    fn414638   5.039   5.188   2.092  0.2240 -0.4664  0.4204
 2776ntf    fn414639   5.148   5.363   2.034  0.2021  0.1317 -0.4146
 2776ntf    fn414640   5.237   5.167   2.065 -0.1595  0.1397  0.1635
 2777ntf    cn114641   4.241   4.567   5.331 -0.0530 -0.3208  0.2664
 2777ntf    sn214642   4.082   4.560   5.419 -0.4048 -0.2070 -0.3491
 2777ntf    nn314643   4.071   4.405   5.396 -0.7479 -0.1781 -0.3849
 2777ntf    sn214644   4.115   4.299   5.504 -0.0205  0.2875 -0.2199
 2777ntf    cn114645   3.953   4.253   5.574  0.0790 -0.1962 -0.3039
 2777ntf    fn414646   4.276   4.694   5.320  0.1621 -0.4746 -0.9151
 2777ntf    fn414647   4.333   4.511   5.407  0.2552  0.0752  0.1874
 2777ntf    fn414648   4.247   4.516   5.209  0.1291  0.2460  0.0351
 2777ntf    on514649   4.102   4.601   5.556  0.4714  0.0245 -0.5415
 2777ntf    on514650   3.996   4.638   5.334 -0.4573 -0.2084 -0.2968
 2777ntf    on514651   4.195   4.348   5.614 -0.5120  0.2137  0.1741
 2777ntf    on514652   4.157   4.182   5.432 -0.3075  0.5045 -0.7411
 2777ntf    fn414653   3.898   4.358   5.634  0.3644 -0.4385  0.3999
 2777ntf    fn414654   3.876   4.209   5.477 -0.5310 -0.2711  0.2063
 2777ntf    fn414655   3.957   4.151   5.658 -0.0263 -0.2076 -0.3130
 2778ntf    cn114656   3.590   6.468   5.405 -0.2588 -0.2524 -0.9529
 2778ntf    sn214657   3.649   6.628   5.341 -0.2064  0.1224  0.0189
 2778ntf    nn314658   3.528   6.723   5.369  0.1660  0.5524  0.1957
 2778ntf    sn214659   3.406   6.743   5.272  0.1714  0.2117  0.1147
 2778ntf    cn114660   3.421   6.919   5.228 -0.0351  0.1266 -0.3018
 2778ntf    fn414661   3.690   6.383   5.427 -0.0096  0.3455  0.3317
 2778ntf    fn414662   3.520   6.483   5.516  0.7934 -0.6291 -0.2235
 2778ntf    fn414663   3.516   6.403   5.317 -0.7813 -0.3965 -0.4126
 2778ntf    on514664   3.755   6.671   5.430 -0.1407 -0.4866  0.2419
 2778ntf    on514665   3.692   6.602   5.206 -0.3071 -0.0506  0.0191
 2778ntf    on514666   3.283   6.721   5.344 -0.2446  0.5837 -0.4747
 2778ntf    on514667   3.406   6.677   5.144  0.0324  0.0654  0.1903
 2778ntf    fn414668   3.394   7.000   5.329  0.3415 -0.4019  0.2229
 2778ntf    fn414669   3.538   6.957   5.179  0.0952 -0.3537 -0.3694
 2778ntf    fn414670   3.340   6.953   5.129  0.1428 -0.5128 -0.6739
 2779ntf    cn114671   1.057   6.867   4.189 -0.1258 -0.1226 -0.0339
 2779ntf    sn214672   1.034   6.742   4.319  0.0299  0.1707  0.2760
 2779ntf    nn314673   1.162   6.778   4.404 -0.0204 -0.1217  0.4779
 2779ntf    sn214674   1.313   6.740   4.388 -0.0187  0.0935 -0.0601
 2779ntf    cn114675   1.329   6.597   4.499  0.0202 -0.2062 -0.4502
 2779ntf    fn414676   1.057   6.992   4.232  0.1218 -0.1426  0.0273
 2779ntf    fn414677   1.172   6.840   4.129 -0.2878  0.1303 -0.4641
 2779ntf    fn414678   0.965   6.856   4.095  0.8329 -0.0338 -0.9948
 2779ntf    on514679   0.917   6.778   4.395  0.1276  0.2129  0.4090
 2779ntf    on514680   1.031   6.620   4.243  0.1833  0.2366  0.1634
 2779ntf    on514681   1.400   6.842   4.441 -1.3310  0.9045  0.5782
 2779ntf    on514682   1.349   6.685   4.260 -0.1151  0.0544 -0.0703
 2779ntf    fn414683   1.295   6.630   4.622 -0.4798 -0.3865 -0.5403
 2779ntf    fn414684   1.246   6.497   4.472 -0.2550  0.0167 -0.4266
 2779ntf    fn414685   1.449   6.540   4.511  0.1098  0.1346  0.3834
 2780ntf    cn114686   1.892   5.975   5.504 -0.5239 -0.0383  0.3113
 2780ntf    sn214687   1.947   5.888   5.654 -0.0500 -0.0131  0.1549
 2780ntf    nn314688   1.816   5.869   5.739  0.1886  0.1589  0.5656
 2780ntf    sn214689   1.697   5.769   5.717 -0.1135  0.6155  0.0893
 2780ntf    cn114690   1.556   5.881   5.740 -0.4770  0.1530  0.1430
 2780ntf    fn414691   1.969   5.938   5.402 -0.5192  0.0768  0.2730
 2780ntf    fn414692   1.769   5.954   5.461 -0.5275  0.2124  0.1991
 2780ntf    fn414693   1.910   6.105   5.523 -0.3995  0.1251 -0.8307
 2780ntf    on514694   2.010   5.767   5.606 -0.0462  0.1318 -0.2069
 2780ntf    on514695   2.036   5.983   5.715  0.0434  0.3058 -0.4714
 2780ntf    on514696   1.669   5.675   5.823  0.1354  0.3377 -0.0907
 2780ntf    on514697   1.681   5.721   5.582 -0.7529  0.2230  0.3012
 2780ntf    fn414698   1.582   5.993   5.674  0.0999  0.2770  0.5686
 2780ntf    fn414699   1.442   5.825   5.706  0.0589 -0.8098 -0.0959
 2780ntf    fn414700   1.536   5.905   5.869 -0.3594  0.1556  0.1614
 2781ntf    cn114701   6.667   5.711   0.309  0.0022  0.2473  0.2055
 2781ntf    sn214702   6.548   5.754   0.439  0.1722  0.0237  0.4362
 2781ntf    nn314703   6.421   5.749   0.346  0.4913 -0.0275  0.0041
 2781ntf    sn214704   6.333   5.860   0.278  0.0574 -0.2318  0.2308
 2781ntf    cn114705   6.420   5.890   0.121 -0.0119 -0.0366  0.2290
 2781ntf    fn414706   6.792   5.738   0.343  0.2430 -0.0655 -0.4009
 2781ntf    fn414707   6.659   5.582   0.277  0.5162  0.1775  0.3560
 2781ntf    fn414708   6.628   5.774   0.199 -0.7928 -0.0570  0.3080
 2781ntf    on514709   6.567   5.645   0.531  0.3700 -0.2908  0.0270
 2781ntf    on514710   6.593   5.883   0.485  0.4112 -0.0230  0.3345
 2781ntf    on514711   6.338   5.990   0.341  0.5952 -0.3559  0.4545
 2781ntf    on514712   6.208   5.813   0.224  0.0108 -0.1014  0.2237
 2781ntf    fn414713   6.446   5.776   0.058 -0.6354 -0.1614  0.1886
 2781ntf    fn414714   6.338   5.957   0.041  0.1957  0.1629  0.1842
 2781ntf    fn414715   6.535   5.954   0.132  0.0440  0.0488 -0.7560
 2782ntf    cn114716   4.597   3.683   1.215  0.3096  0.3894  0.0535
 2782ntf    sn214717   4.449   3.624   1.302  0.4322 -0.1976 -0.1310
 2782ntf    nn314718   4.485   3.473   1.326  0.5789 -0.0978  0.2731
 2782ntf    sn214719   4.422   3.338   1.277  0.1554  0.2636 -0.1846
 2782ntf    cn114720   4.322   3.289   1.420  0.1588 -0.2545 -0.3547
 2782ntf    fn414721   4.697   3.653   1.296  0.0581 -0.6655 -0.0096
 2782ntf    fn414722   4.611   3.620   1.099  0.3409  0.1931  0.1639
 2782ntf    fn414723   4.598   3.813   1.190 -0.0556  0.3603 -0.1282
 2782ntf    on514724   4.441   3.707   1.419  0.0897 -0.5164  0.0775
 2782ntf    on514725   4.345   3.643   1.203  0.3409  0.1174  0.0262
 2782ntf    on514726   4.521   3.233   1.271  0.4137  0.5294 -0.6526
 2782ntf    on514727   4.321   3.332   1.174 -0.2067 -0.5698  0.2119
 2782ntf    fn414728   4.234   3.192   1.405 -0.0770 -0.2067  0.6066
 2782ntf    fn414729   4.402   3.255   1.520 -0.2880  0.3330  0.2142
 2782ntf    fn414730   4.256   3.393   1.468  0.6081  0.0375 -0.3610
 2783ntf    cn114731   5.310   4.097   3.578 -0.1210  0.1733  0.0386
 2783ntf    sn214732   5.366   4.269   3.593  0.0189  0.1515 -0.2325
 2783ntf    nn314733   5.333   4.309   3.445 -0.0164 -0.1138 -0.2959
 2783ntf    sn214734   5.378   4.440   3.372  0.1543 -0.1944 -0.3378
 2783ntf    cn114735   5.218   4.523   3.345  0.2741  0.3102  0.4660
 2783ntf    fn414736   5.379   4.007   3.646  0.0364  0.1024 -0.2116
 2783ntf    fn414737   5.186   4.084   3.624 -0.0395 -0.4705  0.0869
 2783ntf    fn414738   5.309   4.053   3.453 -0.6624  0.0660  0.0772
 2783ntf    on514739   5.284   4.319   3.700  0.1546  0.5211 -0.3000
 2783ntf    on514740   5.505   4.255   3.630  0.0535  0.3114 -0.3012
 2783ntf    on514741   5.438   4.430   3.241  0.4362 -0.0979 -0.2142
 2783ntf    on514742   5.441   4.536   3.458 -0.3208  0.6371 -0.8936
 2783ntf    fn414743   5.136   4.440   3.282  0.9043  0.1543 -0.1652
 2783ntf    fn414744   5.165   4.548   3.463 -0.0116  0.3889  0.3229
 2783ntf    fn414745   5.228   4.637   3.279 -1.0802  0.4723  0.5158
 2784ntf    cn114746   0.483   3.909   4.914 -0.1614  0.1322 -0.0522
 2784ntf    sn214747   0.302   3.913   4.927 -0.1565 -0.1863  0.1264
 2784ntf    nn314748   0.285   4.023   5.037  0.2809  0.1249 -0.1131
 2784ntf    sn214749   0.152   4.096   5.079  0.3725  0.0982  0.2323
 2784ntf    cn114750   0.154   4.045   5.253 -0.1170 -0.0838  0.1843
 2784ntf    fn414751   0.541   3.860   5.022  0.1068 -0.1555 -0.3245
 2784ntf    fn414752   0.514   3.828   4.813 -0.4233 -0.1206  0.0683
 2784ntf    fn414753   0.529   4.031   4.893 -0.3695  0.2229  0.0135
 2784ntf    on514754   0.266   3.977   4.802  0.1360  0.0725  0.1747
 2784ntf    on514755   0.260   3.779   4.962  0.6857 -0.4462  0.1583
 2784ntf    on514756   0.029   4.035   5.037  0.4056  0.3957 -0.3086
 2784ntf    on514757   0.153   4.240   5.075 -0.5375  0.1111  0.3155
 2784ntf    fn414758   0.177   3.917   5.277 -0.2669 -0.1144  0.1711
 2784ntf    fn414759   0.250   4.101   5.325  0.0579  0.3434 -0.3747
 2784ntf    fn414760   0.038   4.066   5.314 -0.0325 -0.0231  0.3259
 2785ntf    cn114761   4.521   1.753   5.465  0.2297  0.0939 -0.3737
 2785ntf    sn214762   4.385   1.783   5.583  0.0050 -0.2321 -0.5498
 2785ntf    nn314763   4.377   1.638   5.643 -0.5962  0.0945  0.1716
 2785ntf    sn214764   4.422   1.570   5.777 -0.3356  0.1559  0.1161
 2785ntf    cn114765   4.283   1.609   5.887 -0.3523 -0.5838  0.3660
 2785ntf    fn414766   4.508   1.638   5.402  0.4785 -0.1280 -0.0275
 2785ntf    fn414767   4.535   1.846   5.373 -0.1667  0.1728 -0.3547
 2785ntf    fn414768   4.629   1.745   5.541 -0.3223  0.1255  0.4317
 2785ntf    on514769   4.444   1.885   5.666 -0.0232 -0.1802 -0.5931
 2785ntf    on514770   4.282   1.814   5.487 -0.3833  0.5256  0.1032
 2785ntf    on514771   4.540   1.617   5.846  0.1551 -0.7661 -0.0648
 2785ntf    on514772   4.414   1.426   5.769 -0.3279  0.1487  0.2347
 2785ntf    fn414773   4.282   1.736   5.923  0.2821 -0.5039  0.1173
 2785ntf    fn414774   4.166   1.594   5.825 -0.5987  0.7608  0.4835
 2785ntf    fn414775   4.291   1.539   5.999  0.4844 -0.8307  0.1607
 2786ntf    cn114776   6.117   4.948   4.024 -0.1016 -0.4460  0.3608
 2786ntf    sn214777   5.963   4.884   4.096 -0.2936 -0.4309 -0.0311
 2786ntf    nn314778   5.919   4.997   4.196  0.4798  0.1583 -0.3446
 2786ntf    sn214779   5.907   4.992   4.352 -0.2182 -0.0158 -0.3994
 2786ntf    cn114780   5.754   4.898   4.383 -0.1118 -0.0999 -0.1244
 2786ntf    fn414781   6.201   5.009   4.106  0.2783 -0.0971 -0.2750
 2786ntf    fn414782   6.182   4.852   3.961 -0.5034 -0.6101  0.1915
 2786ntf    fn414783   6.098   5.040   3.930  0.4083 -0.1845  0.5097
 2786ntf    on514784   5.870   4.875   3.986  0.3005 -0.1093 -0.5644
 2786ntf    on514785   6.001   4.759   4.156  0.5870 -0.0343  0.2535
 2786ntf    on514786   5.857   5.119   4.401  0.7199  0.3034 -0.2589
 2786ntf    on514787   6.016   4.935   4.427 -0.0166  0.5117 -0.2878
 2786ntf    fn414788   5.732   4.887   4.513  0.0184  0.3053 -0.0646
 2786ntf    fn414789   5.655   4.942   4.307 -0.3349 -0.2776  0.0631
 2786ntf    fn414790   5.781   4.775   4.342 -0.4774 -0.0325 -0.5745
 2787ntf    cn114791   0.640   3.464   5.355  0.2131 -0.3478  0.2138
 2787ntf    sn214792   0.549   3.423   5.507  0.1371  0.1512  0.3051
 2787ntf    nn314793   0.605   3.278   5.529  0.0651  0.0362 -0.2588
 2787ntf    sn214794   0.532   3.141   5.504 -0.3608  0.1718  0.2381
 2787ntf    cn114795   0.669   3.024   5.485 -0.6125 -0.1031  0.1054
 2787ntf    fn414796   0.609   3.376   5.261  0.2558  0.3538 -0.4608
 2787ntf    fn414797   0.614   3.589   5.320  0.1472 -0.5130 -0.3322
 2787ntf    fn414798   0.772   3.454   5.360  0.2338 -0.1372  0.0906
 2787ntf    on514799   0.596   3.507   5.614 -0.3795  0.2532  0.4518
 2787ntf    on514800   0.411   3.430   5.467  0.2071  1.2461  0.2280
 2787ntf    on514801   0.456   3.141   5.381 -0.2054 -0.3551  0.1405
 2787ntf    on514802   0.473   3.086   5.624 -0.4250 -0.2696  0.0075
 2787ntf    fn414803   0.743   3.005   5.592 -0.2515 -0.2574 -0.1688
 2787ntf    fn414804   0.617   2.912   5.438  0.3750 -0.3392 -0.4608
 2787ntf    fn414805   0.757   3.062   5.393 -0.4813 -0.3882  0.1121
 2788ntf    cn114806   1.190   4.086   2.520 -0.4080  0.0749  0.1176
 2788ntf    sn214807   1.244   4.226   2.418 -0.3730  0.2163  0.3309
 2788ntf    nn314808   1.124   4.217   2.316 -0.3985  0.0287  0.3784
 2788ntf    sn214809   1.129   4.159   2.170 -0.2003  0.0682  0.3690
 2788ntf    cn114810   1.267   4.241   2.084 -0.0297 -0.2912  0.2966
 2788ntf    fn414811   1.261   4.066   2.629 -0.1388 -0.1801 -0.1013
 2788ntf    fn414812   1.066   4.119   2.554 -0.3588  0.2240  0.1523
 2788ntf    fn414813   1.186   3.972   2.453  0.3456 -0.1576  0.4617
 2788ntf    on514814   1.243   4.347   2.497 -0.4643  0.1370  0.4527
 2788ntf    on514815   1.373   4.187   2.368 -0.4701  0.2484  0.0492
 2788ntf    on514816   1.008   4.202   2.105  0.1644  0.8190  0.1844
 2788ntf    on514817   1.174   4.022   2.159 -1.2070 -0.2422  0.0665
 2788ntf    fn414818   1.281   4.369   2.117 -0.2905 -0.0871 -0.3670
 2788ntf    fn414819   1.383   4.178   2.091  0.3119  0.3129  0.1463
 2788ntf    fn414820   1.250   4.245   1.953  0.4453 -0.1203  0.2379
 2789ntf    cn114821   6.443   6.068   3.078 -0.2688 -0.0434  0.1843
 2789ntf    sn214822   6.451   6.138   2.911 -0.2311 -0.2452  0.1010
 2789ntf    nn314823   6.606   6.163   2.908 -0.3709  0.6706  0.2479
 2789ntf    sn214824   6.704   6.171   2.785 -0.2845 -0.1996  0.2554
 2789ntf    cn114825   6.806   6.022   2.799 -0.1095 -0.1170 -0.1368
 2789ntf    fn414826   6.451   6.159   3.173 -0.2986 -0.1143  0.2552
 2789ntf    fn414827   6.333   5.995   3.093 -0.3664  0.0923  0.1402
 2789ntf    fn414828   6.538   5.981   3.110 -0.1355 -0.0729 -0.2843
 2789ntf    on514829   6.402   6.034   2.825  0.0895 -0.3511  0.0424
 2789ntf    on514830   6.375   6.261   2.920  0.3274  0.0909  0.3121
 2789ntf    on514831   6.798   6.280   2.787 -0.2758 -0.2000 -0.0750
 2789ntf    on514832   6.640   6.156   2.657 -0.0579 -0.3595  0.1614
 2789ntf    fn414833   6.885   6.017   2.905  0.0504  0.2721 -0.2370
 2789ntf    fn414834   6.733   5.911   2.795 -0.2854 -0.0146  0.2255
 2789ntf    fn414835   6.891   6.004   2.699  0.1860  0.4605  0.0059
 2790ntf    cn114836   5.250   6.956   5.569  0.2095  0.3631 -0.4659
 2790ntf    sn214837   5.078   6.898   5.574  0.1158  0.6612 -0.2015
 2790ntf    nn314838   5.038   6.892   5.423 -1.1476 -0.5880  0.1599
 2790ntf    sn214839   4.992   7.009   5.329 -0.2745 -0.0854  0.3386
 2790ntf    cn114840   4.837   6.930   5.274 -0.1529 -0.1495  0.0904
 2790ntf    fn414841   5.260   7.074   5.509  0.6782  0.5087 -0.1152
 2790ntf    fn414842   5.297   6.971   5.692  0.2608  0.2508 -0.4719
 2790ntf    fn414843   5.330   6.865   5.516 -0.2643 -0.7162  0.6331
 2790ntf    on514844   5.088   6.766   5.633  0.0591  0.4234 -0.7188
 2790ntf    on514845   5.016   7.003   5.651  0.0697  0.1029  0.5368
 2790ntf    on514846   5.064   7.011   5.204 -0.8629  0.2707  0.0010
 2790ntf    on514847   4.961   7.133   5.396  0.3313  0.2571 -0.0093
 2790ntf    fn414848   4.787   6.844   5.361 -0.0607 -0.2277  0.0671
 2790ntf    fn414849   4.737   7.014   5.257 -0.3251 -0.2889  0.4107
 2790ntf    fn414850   4.851   6.863   5.160  0.1239  0.3815 -0.1897
 2791ntf    cn114851   0.140   5.125   5.624  0.1976  0.4848 -0.0918
 2791ntf    sn214852   0.045   5.159   5.472 -0.0333  0.1605 -0.0214
 2791ntf    nn314853  -0.103   5.124   5.511 -0.0364  0.2055  0.0059
 2791ntf    sn214854  -0.175   4.984   5.510  0.2772  0.0408  0.0603
 2791ntf    cn114855  -0.246   4.980   5.343  0.2680  0.3043  0.0575
 2791ntf    fn414856   0.267   5.161   5.625  0.3618 -0.0790  0.0554
 2791ntf    fn414857   0.084   5.185   5.727  0.0226 -0.2106  0.2215
 2791ntf    fn414858   0.144   4.996   5.653 -0.1876  0.4103 -0.3624
 2791ntf    on514859   0.057   5.302   5.458  0.5687  0.1543  0.3869
 2791ntf    on514860   0.113   5.080   5.372  0.3279 -0.2680  0.5521
 2791ntf    on514861  -0.293   4.988   5.593  0.4298  0.6386  0.2519
 2791ntf    on514862  -0.091   4.868   5.520 -0.2820 -0.3090  0.8383
 2791ntf    fn414863  -0.356   5.055   5.344  0.2531  0.2909 -0.2983
 2791ntf    fn414864  -0.171   5.022   5.243 -0.1770 -0.1706 -0.4820
 2791ntf    fn414865  -0.283   4.856   5.318  0.2712  0.3724 -0.2871
 2792ntf    cn114866   2.321   4.103   6.971 -0.0614  0.1926  0.2056
 2792ntf    sn214867   2.373   4.196   6.824  0.0230  0.3996  0.3656
 2792ntf    nn314868   2.505   4.126   6.777 -0.2543 -0.1196  0.3519
 2792ntf    sn214869   2.530   4.013   6.670 -0.1969 -0.1210  0.3674
 2792ntf    cn114870   2.691   4.070   6.609 -0.5790 -0.1475 -0.6859
 2792ntf    fn414871   2.220   4.165   7.030  0.2970  0.6811  0.3112
 2792ntf    fn414872   2.297   3.974   6.953 -0.0877  0.2984 -0.5348
 2792ntf    fn414873   2.420   4.095   7.057 -0.1178 -0.1636  0.2385
 2792ntf    on514874   2.258   4.185   6.737  0.1614 -0.3464  0.2658
 2792ntf    on514875   2.402   4.325   6.881  0.0454  0.6596 -0.2194
 2792ntf    on514876   2.457   4.021   6.546 -0.4834  0.1107  0.5467
 2792ntf    on514877   2.556   3.880   6.719 -0.4045 -0.1491  0.4040
 2792ntf    fn414878   2.796   4.065   6.690  0.0958 -0.0064 -1.5304
 2792ntf    fn414879   2.727   4.014   6.495  0.2836  0.5576 -0.7656
 2792ntf    fn414880   2.685   4.195   6.567 -0.3307  0.0788 -0.0598
 2793ntf    cn114881   1.604   1.717   3.451  0.2632  0.2919  0.3082
 2793ntf    sn214882   1.448   1.638   3.504  0.4600 -0.2878  0.0350
 2793ntf    nn314883   1.456   1.501   3.428  0.2790 -0.4646  0.3369
 2793ntf    sn214884   1.358   1.378   3.432  0.1372 -0.3562  0.1905
 2793ntf    cn114885   1.459   1.275   3.542 -0.4085 -0.6831  0.3890
 2793ntf    fn414886   1.607   1.786   3.338 -0.2506  0.2156  0.2424
 2793ntf    fn414887   1.639   1.804   3.543  0.4318  0.0620  0.4631
 2793ntf    fn414888   1.702   1.632   3.426 -0.3003 -0.2221 -0.2159
 2793ntf    on514889   1.467   1.638   3.647  0.5576  0.1629  0.0246
 2793ntf    on514890   1.360   1.739   3.452 -0.2624 -0.5524  0.7376
 2793ntf    on514891   1.342   1.310   3.306  0.3965  0.1822 -0.1365
 2793ntf    on514892   1.236   1.400   3.507 -0.1202 -0.3538 -0.2275
 2793ntf    fn414893   1.578   1.250   3.490 -0.2755 -0.4326  0.5698
 2793ntf    fn414894   1.484   1.342   3.653 -0.1119  0.3975 -0.3241
 2793ntf    fn414895   1.401   1.159   3.571  0.1403 -1.2113 -0.5698
 2794ntf    cn114896   5.319   5.506   4.251  0.1121  0.4144 -0.1346
 2794ntf    sn214897   5.460   5.565   4.349  0.3760 -0.5133  0.0543
 2794ntf    nn314898   5.548   5.614   4.230  0.2656 -0.0783  0.1503
 2794ntf    sn214899   5.537   5.756   4.163  0.2052 -0.1041  0.1070
 2794ntf    cn114900   5.627   5.862   4.280 -0.1439  0.2971  0.0136
 2794ntf    fn414901   5.230   5.441   4.325  0.3176  0.5259  0.2120
 2794ntf    fn414902   5.252   5.602   4.189 -0.0446  0.7029  0.4697
 2794ntf    fn414903   5.365   5.424   4.158  0.4877  0.7348 -0.2290
 2794ntf    on514904   5.398   5.668   4.429  0.1183 -0.8604  0.3099
 2794ntf    on514905   5.507   5.443   4.412  0.3296 -0.2646  0.5800
 2794ntf    on514906   5.404   5.813   4.156  0.0644 -0.3546  0.6508
 2794ntf    on514907   5.617   5.759   4.043  0.0600 -0.1709  0.0070
 2794ntf    fn414908   5.557   5.878   4.391 -0.3545 -0.3193 -0.0265
 2794ntf    fn414909   5.749   5.821   4.307 -0.0038  0.7146  0.0142
 2794ntf    fn414910   5.647   5.985   4.236 -0.0718  0.2352 -0.1286
 2795ntf    cn114911   5.136   3.155   4.612  0.2950  0.3273 -0.1237
 2795ntf    sn214912   5.039   3.108   4.466  0.2557  0.2470 -0.0713
 2795ntf    nn314913   4.894   3.107   4.527  0.2345 -0.1385 -0.1265
 2795ntf    sn214914   4.784   2.995   4.527 -0.3642  0.4388 -0.2241
 2795ntf    cn114915   4.642   3.108   4.535 -0.0684  0.7887  0.1225
 2795ntf    fn414916   5.135   3.053   4.696  0.3549 -0.0205 -0.5453
 2795ntf    fn414917   5.263   3.177   4.581  0.4222  0.0465  0.1945
 2795ntf    fn414918   5.098   3.262   4.681  0.4155  0.0230  0.4210
 2795ntf    on514919   5.062   3.220   4.377  0.0816  0.4853  0.1812
 2795ntf    on514920   5.095   2.978   4.440  0.2071  0.2297 -0.0914
 2795ntf    on514921   4.769   2.931   4.656 -0.3607 -0.1280 -0.5014
 2795ntf    on514922   4.762   2.923   4.404  0.4636  0.3063 -0.3022
 2795ntf    fn414923   4.639   3.184   4.427  0.1754 -0.0643 -0.4967
 2795ntf    fn414924   4.528   3.042   4.533  0.3526  0.0513 -0.1730
 2795ntf    fn414925   4.641   3.183   4.644 -1.0529  0.1568  0.5574
 2796ntf    cn114926   6.913   5.125   0.454  0.2289 -0.2300  0.1731
 2796ntf    sn214927   6.897   5.213   0.613 -0.0678 -0.1132  0.0785
 2796ntf    nn314928   7.049   5.227   0.651 -0.1162  0.6412  0.0217
 2796ntf    sn214929   7.161   5.289   0.560 -0.0008  0.2101 -0.1316
 2796ntf    cn114930   7.172   5.461   0.617 -0.0046  0.1693 -0.0064
 2796ntf    fn414931   7.027   5.058   0.443  0.4019  0.0465  0.2782
 2796ntf    fn414932   6.816   5.036   0.439 -0.3093  0.3352  0.2620
 2796ntf    fn414933   6.897   5.211   0.355 -0.3395 -0.5225  0.0105
 2796ntf    on514934   6.828   5.336   0.584 -0.7078 -0.5072 -0.0862
 2796ntf    on514935   6.833   5.119   0.701 -0.0285  0.0694  0.3021
 2796ntf    on514936   7.133   5.311   0.420 -0.1179  0.0825 -0.1294
 2796ntf    on514937   7.288   5.238   0.606 -0.1890 -0.0645  0.0934
 2796ntf    fn414938   7.200   5.470   0.746  0.4698 -0.1913 -0.0769
 2796ntf    fn414939   7.271   5.532   0.566  0.1476 -0.1050 -0.0972
 2796ntf    fn414940   7.061   5.528   0.593 -0.0679 -0.0277 -0.2683
 2797ntf    cn114941   0.740   1.592   4.846 -0.2258 -0.0447  0.0646
 2797ntf    sn214942   0.661   1.738   4.772  0.2243 -0.0967 -0.5329
 2797ntf    nn314943   0.517   1.710   4.829  0.4078 -0.2459 -0.1420
 2797ntf    sn214944   0.416   1.601   4.779  0.1160  0.0095 -0.1090
 2797ntf    cn114945   0.374   1.523   4.937  0.3914  0.0605 -0.0102
 2797ntf    fn414946   0.870   1.618   4.844 -0.2162 -0.0932 -1.1983
 2797ntf    fn414947   0.710   1.586   4.974 -0.7812  1.0698  0.0003
 2797ntf    fn414948   0.726   1.479   4.779  1.0372 -0.4325  0.4244
 2797ntf    on514949   0.725   1.850   4.836  0.0416 -0.2284 -0.1194
 2797ntf    on514950   0.677   1.718   4.630  0.3283 -0.2320 -0.5023
 2797ntf    on514951   0.470   1.482   4.718 -0.4576 -0.0931 -0.4251
 2797ntf    on514952   0.288   1.646   4.729  0.2712  0.0309 -0.4953
 2797ntf    fn414953   0.477   1.470   5.001  0.0063  0.0262  0.5965
 2797ntf    fn414954   0.312   1.599   5.027  0.2984 -0.0863  0.0495
 2797ntf    fn414955   0.289   1.426   4.909 -0.2206  0.5640  0.0712
 2798ntf    cn114956   1.399   5.153   3.110 -0.3122  0.0957  0.1444
 2798ntf    sn214957   1.373   4.989   3.183  0.0492 -0.0327 -0.0138
 2798ntf    nn314958   1.222   4.964   3.148  0.2428 -0.7967 -0.3292
 2798ntf    sn214959   1.138   4.841   3.197 -0.3749 -0.2435  0.0184
 2798ntf    cn114960   1.158   4.838   3.378 -0.4077  0.2492  0.0306
 2798ntf    fn414961   1.342   5.156   2.991  0.1300 -0.1872 -0.0785
 2798ntf    fn414962   1.333   5.239   3.185 -0.1164 -0.0995  0.5426
 2798ntf    fn414963   1.526   5.191   3.114 -0.1435 -0.4423  0.0165
 2798ntf    on514964   1.468   4.905   3.114 -0.3514 -0.2510 -0.3008
 2798ntf    on514965   1.397   5.012   3.323 -0.3997  0.1284  0.0380
 2798ntf    on514966   1.187   4.709   3.166 -0.1798 -0.1917  0.1027
 2798ntf    on514967   0.997   4.869   3.198 -0.2715  0.2805  0.2239
 2798ntf    fn414968   1.069   4.755   3.430 -0.4518  0.7554  0.7808
 2798ntf    fn414969   1.268   4.788   3.431 -0.2266  0.2941 -0.2979
 2798ntf    fn414970   1.140   4.954   3.439 -0.9733 -0.1064  0.5400
 2799ntf    cn114971   6.313   1.974   2.133 -0.0335 -0.0599 -0.3558
 2799ntf    sn214972   6.327   2.154   2.115  0.3169 -0.0436  0.0621
 2799ntf    nn314973   6.183   2.195   2.064  0.3350  0.0433  0.0814
 2799ntf    sn214974   6.123   2.214   1.921  0.4381  0.0887  0.0439
 2799ntf    cn114975   6.125   2.396   1.910 -0.2373  0.0761 -0.3887
 2799ntf    fn414976   6.297   1.903   2.022 -0.3129 -0.0678 -0.3119
 2799ntf    fn414977   6.415   1.923   2.199  0.1650  0.1976 -0.4631
 2799ntf    fn414978   6.206   1.949   2.207  0.1882  0.0550  0.0025
 2799ntf    on514979   6.342   2.200   2.250 -0.1703 -0.1818  0.1686
 2799ntf    on514980   6.432   2.181   2.020  0.2829 -0.6877 -0.1647
 2799ntf    on514981   5.983   2.182   1.906  0.6456 -0.7606 -0.1472
 2799ntf    on514982   6.208   2.175   1.812  0.1438 -0.8236  0.1358
 2799ntf    fn414983   6.245   2.451   1.905 -0.0479 -0.3054 -0.0973
 2799ntf    fn414984   6.070   2.433   1.796  0.0854 -0.4776 -0.7310
 2799ntf    fn414985   6.056   2.456   2.006  0.1347 -0.3419  0.1521
 2800ntf    cn114986   3.126   5.684   6.385  0.2904 -0.1466  0.5329
 2800ntf    sn214987   3.152   5.802   6.250 -0.1451 -0.2159  0.3865
 2800ntf    nn314988   3.225   5.701   6.153  0.2635  0.1489  0.3112
 2800ntf    sn214989   3.349   5.727   6.061 -0.1573 -0.0292 -0.3160
 2800ntf    cn114990   3.273   5.720   5.896  0.0482 -0.0378 -0.4102
 2800ntf    fn414991   3.037   5.589   6.361 -0.1181  0.4271 -0.2468
 2800ntf    fn414992   3.237   5.622   6.421  0.4310  0.2721  0.8295
 2800ntf    fn414993   3.090   5.740   6.500  0.1591  0.7173  0.0754
 2800ntf    on514994   3.024   5.847   6.202  0.0558  0.0236  0.0706
 2800ntf    on514995   3.237   5.901   6.311  0.7483 -1.0142  0.4666
 2800ntf    on514996   3.449   5.623   6.051  0.4005  0.3606  0.9256
 2800ntf    on514997   3.399   5.862   6.065  0.5833 -0.3055 -0.0278
 2800ntf    fn414998   3.176   5.810   5.888  0.0521  0.0886  0.6896
 2800ntf    fn414999   3.365   5.743   5.804 -0.1831 -0.1098 -0.6578
 2800ntf    fn415000   3.222   5.602   5.867  0.3116 -0.0830 -0.6959
 2801ntf    cn115001   4.557   3.704   4.627  0.0893 -0.1029 -0.0878
 2801ntf    sn215002   4.381   3.675   4.663  0.0597  0.2380  0.0469
 2801ntf    nn315003   4.367   3.549   4.571  0.5581 -0.2126  0.5793
 2801ntf    sn215004   4.240   3.462   4.540  0.6013 -0.0330 -0.1123
 2801ntf    cn115005   4.291   3.297   4.596  0.0730 -0.1734 -0.0335
 2801ntf    fn415006   4.571   3.714   4.496  0.3333  0.2578 -0.0351
 2801ntf    fn415007   4.605   3.812   4.687  0.0246 -0.0636 -0.1051
 2801ntf    fn415008   4.640   3.606   4.657 -0.0928 -0.2694 -0.1262
 2801ntf    on515009   4.383   3.635   4.802  0.3565 -0.2100 -0.0850
 2801ntf    on515010   4.318   3.798   4.621  0.2844  0.1205 -0.6472
 2801ntf    on515011   4.221   3.441   4.398  0.9501  0.4538 -0.2359
 2801ntf    on515012   4.124   3.483   4.623  0.6984 -0.0223  0.0207
 2801ntf    fn415013   4.218   3.200   4.543  0.1345 -0.2741  0.0654
 2801ntf    fn415014   4.417   3.275   4.561  0.2301 -0.4610  0.6991
 2801ntf    fn415015   4.280   3.284   4.727 -0.1548  0.1775 -0.0168
 2802ntf    cn115016   6.458   0.353   5.194 -0.1708 -0.0372 -0.6350
 2802ntf    sn215017   6.593   0.288   5.297 -0.2306  0.2690 -0.3612
 2802ntf    nn315018   6.585   0.390   5.416 -0.2324 -0.1609  0.0091
 2802ntf    sn215019   6.618   0.354   5.565  0.1608  0.0457 -0.0274
 2802ntf    cn115020   6.494   0.463   5.640  0.0412 -0.0764 -0.0493
 2802ntf    fn415021   6.492   0.465   5.133  1.3992  0.0144  0.2959
 2802ntf    fn415022   6.421   0.268   5.099 -0.2493 -0.7912  0.0612
 2802ntf    fn415023   6.348   0.382   5.262  0.3046  0.1583  0.0554
 2802ntf    on515024   6.558   0.151   5.325  0.9277 -0.1441 -0.8508
 2802ntf    on515025   6.707   0.303   5.209  0.0007  0.0397 -0.1030
 2802ntf    on515026   6.744   0.405   5.613  0.0575 -0.1311  0.4413
 2802ntf    on515027   6.565   0.229   5.613 -0.2194  0.1999 -0.0424
 2802ntf    fn415028   6.374   0.429   5.596  0.0977 -0.0024 -0.2602
 2802ntf    fn415029   6.500   0.461   5.772  0.2850 -0.0350 -0.0592
 2802ntf    fn415030   6.495   0.591   5.606 -0.2778  0.1270  0.6740
 2803ntf    cn115031   4.453   1.206   6.343 -0.0810 -0.0170  0.3969
 2803ntf    sn215032   4.565   1.342   6.298  0.1736 -0.1714  0.5594
 2803ntf    nn315033   4.704   1.271   6.302  0.3298  0.0920 -0.0926
 2803ntf    sn215034   4.776   1.225   6.434  0.2785 -0.1862 -0.1602
 2803ntf    cn115035   4.903   1.355   6.449 -0.0485  0.1230 -0.0444
 2803ntf    fn415036   4.493   1.088   6.296 -0.0459  0.2807 -0.3382
 2803ntf    fn415037   4.438   1.198   6.474  0.0522  0.5251  0.4465
 2803ntf    fn415038   4.330   1.214   6.295  0.2027 -0.1100 -0.3625
 2803ntf    on515039   4.528   1.378   6.163  0.4250 -0.5712  0.3822
 2803ntf    on515040   4.548   1.438   6.405 -0.2981  0.1999  0.1580
 2803ntf    on515041   4.858   1.109   6.409  0.2425 -0.3154  0.3150
 2803ntf    on515042   4.703   1.233   6.558  0.1073  0.0375 -0.2747
 2803ntf    fn415043   4.853   1.475   6.472 -0.1212  0.1109 -0.1385
 2803ntf    fn415044   4.991   1.329   6.544 -0.2520 -0.4712 -0.0125
 2803ntf    fn415045   4.971   1.360   6.335  0.3132  0.0669  0.1676
 2804ntf    cn115046   1.936   5.498   2.191  0.3455 -0.3299 -0.2185
 2804ntf    sn215047   1.885   5.660   2.125 -0.1284 -0.1281  0.6264
 2804ntf    nn315048   1.750   5.678   2.203 -0.1748 -0.1616  0.5541
 2804ntf    sn215049   1.696   5.783   2.306  0.2531  0.0961  0.5153
 2804ntf    cn115050   1.780   5.727   2.458  0.2446 -0.3380  0.3602
 2804ntf    fn415051   1.870   5.403   2.128 -0.4000  0.0183  0.0127
 2804ntf    fn415052   2.066   5.477   2.177  0.4416  0.3240 -0.3483
 2804ntf    fn415053   1.910   5.484   2.320  0.1389  0.0575 -0.2134
 2804ntf    on515054   1.991   5.754   2.151 -0.2440  0.2419 -0.2122
 2804ntf    on515055   1.861   5.637   1.985 -0.1362  0.9656  0.4407
 2804ntf    on515056   1.555   5.764   2.325  0.1439  0.7123  0.3299
 2804ntf    on515057   1.741   5.920   2.292  0.5506 -0.0749 -0.2293
 2804ntf    fn415058   1.736   5.606   2.487  0.3742 -0.6368 -0.6268
 2804ntf    fn415059   1.909   5.713   2.428  0.1752 -0.2735  0.0234
 2804ntf    fn415060   1.773   5.803   2.566 -0.0881 -0.2372  0.2676
 2805ntf    cn115061   2.050   1.660   3.732  0.1194  0.3357  0.0555
 2805ntf    sn215062   1.915   1.747   3.817  0.0428 -0.1524  0.4378
 2805ntf    nn315063   1.997   1.837   3.916  0.0032  0.2984  0.0608
 2805ntf    sn215064   1.992   1.826   4.072  0.1708 -0.0960  0.0390
 2805ntf    cn115065   2.114   1.957   4.104  0.1713  0.0790 -0.6725
 2805ntf    fn415066   2.006   1.587   3.631 -0.5838  0.3979  0.3129
 2805ntf    fn415067   2.151   1.737   3.694 -0.0790  0.6583  0.1814
 2805ntf    fn415068   2.111   1.573   3.812  0.2006  0.2366 -0.1140
 2805ntf    on515069   1.865   1.826   3.707 -0.1279 -0.4737  0.2831
 2805ntf    on515070   1.830   1.642   3.868 -0.0518  0.0233  0.6448
 2805ntf    on515071   2.055   1.715   4.140  0.7831  0.2536  0.0492
 2805ntf    on515072   1.873   1.890   4.122  0.2989  0.3651 -0.2383
 2805ntf    fn415073   2.142   1.968   4.233  0.1743  0.5160 -0.7079
 2805ntf    fn415074   2.221   1.927   4.033  0.4058 -0.1404 -0.2313
 2805ntf    fn415075   2.078   2.081   4.073  1.1166  0.5196 -0.0293
 2806ntf    cn115076   3.590   5.667   6.960  0.2227  0.0812  0.1266
 2806ntf    sn215077   3.470   5.607   7.083  0.2746  0.4464  0.3553
 2806ntf    nn315078   3.510   5.700   7.204  0.6174  0.4899  0.2110
 2806ntf    sn215079   3.560   5.643   7.342  0.2968  0.1000  0.1686
 2806ntf    cn115080   3.510   5.782   7.449  0.0474  0.3655 -0.2869
 2806ntf    fn415081   3.710   5.618   6.982  0.3975  0.3455 -0.2293
 2806ntf    fn415082   3.567   5.618   6.839 -0.1842 -0.4183  0.4049
 2806ntf    fn415083   3.592   5.799   6.946 -0.1688  0.1032  0.2690
 2806ntf    on515084   3.345   5.650   7.027  0.4210  0.2884 -0.0952
 2806ntf    on515085   3.487   5.465   7.094  0.1507  0.4189  0.1784
 2806ntf    on515086   3.703   5.641   7.355  0.2926  0.4419  0.2754
 2806ntf    on515087   3.483   5.536   7.401 -0.0538  0.0331 -0.4015
 2806ntf    fn415088   3.526   5.902   7.397 -0.1107  0.5156  0.0081
 2806ntf    fn415089   3.381   5.764   7.471  0.1523 -0.1867 -0.1016
 2806ntf    fn415090   3.572   5.773   7.566 -0.1254 -0.7244 -0.2650
 2807ntf    cn115091   0.817   5.401   3.242 -0.1041 -0.0247  0.1999
 2807ntf    sn215092   0.715   5.407   3.392 -0.1213 -0.0541  0.1895
 2807ntf    nn315093   0.578   5.410   3.315  0.0868  0.1723 -0.1720
 2807ntf    sn215094   0.452   5.499   3.344  0.0883  0.0758  0.1349
 2807ntf    cn115095   0.472   5.637   3.227 -0.0170  0.0478  0.0830
 2807ntf    fn415096   0.936   5.459   3.250  0.0007 -0.2169  0.0539
 2807ntf    fn415097   0.847   5.274   3.219 -0.1921 -0.0558  0.2610
 2807ntf    fn415098   0.751   5.449   3.138 -0.5759 -0.3844  0.3334
 2807ntf    on515099   0.763   5.288   3.459 -0.1586  0.1001  0.4924
 2807ntf    on515100   0.751   5.535   3.447  0.0873 -0.0950  0.1484
 2807ntf    on515101   0.436   5.564   3.471  0.4550  0.7451 -0.1549
 2807ntf    on515102   0.335   5.434   3.289  0.1309 -0.1909  0.3588
 2807ntf    fn415103   0.365   5.714   3.218  0.3343  0.4972 -0.2856
 2807ntf    fn415104   0.577   5.712   3.257 -0.0302  0.0391  0.1524
 2807ntf    fn415105   0.495   5.583   3.108  0.3043  0.0662  0.1340
 2808ntf    cn115106   2.763   5.055   0.110 -0.3202  0.0997 -0.1795
 2808ntf    sn215107   2.886   5.160   0.026  0.0811 -0.2808 -0.0680
 2808ntf    nn315108   2.812   5.298   0.027  0.8542  0.1394 -0.4488
 2808ntf    sn215109   2.719   5.370  -0.076  0.0492 -0.0682  0.1271
 2808ntf    cn115110   2.850   5.446  -0.177  0.0042 -0.1177  0.0310
 2808ntf    fn415111   2.807   4.931   0.123  0.2743  0.3084 -0.1535
 2808ntf    fn415112   2.734   5.102   0.230  0.1284  0.1441 -0.0858
 2808ntf    fn415113   2.645   5.048   0.050 -0.3702  0.0666 -0.0778
 2808ntf    on515114   3.006   5.162   0.106 -0.2620  0.3018  0.4403
 2808ntf    on515115   2.907   5.097  -0.102  0.3524  0.2222 -0.2720
 2808ntf    on515116   2.646   5.482  -0.020  0.3312  0.0872  0.1877
 2808ntf    on515117   2.657   5.281  -0.171  0.2038 -0.1407  0.0942
 2808ntf    fn415118   2.792   5.516  -0.272 -0.3437 -0.3338  0.0818
 2808ntf    fn415119   2.930   5.523  -0.105  0.3523 -0.1978 -0.2696
 2808ntf    fn415120   2.928   5.356  -0.234  0.4459  0.2339  0.0756
 2809ntf    cn115121   6.897   1.317   6.479  0.2546  0.6612  0.5617
 2809ntf    sn215122   7.012   1.193   6.547  0.4516  0.4393 -0.1648
 2809ntf    nn315123   6.962   1.063   6.474  0.8628  0.0324  0.2705
 2809ntf    sn215124   7.037   0.926   6.458  0.1823 -0.2964 -0.1573
 2809ntf    cn115125   7.102   0.950   6.290 -0.1505  0.4251 -0.1857
 2809ntf    fn415126   6.773   1.271   6.479  0.5059 -0.1096 -0.8269
 2809ntf    fn415127   6.905   1.433   6.542 -0.2737  1.2219 -0.3823
 2809ntf    fn415128   6.921   1.347   6.352 -0.8809 -0.4624  0.0584
 2809ntf    on515129   7.148   1.233   6.518  0.7021  0.1371  0.5644
 2809ntf    on515130   6.972   1.189   6.685  0.1822 -0.2956 -0.2600
 2809ntf    on515131   6.951   0.812   6.440  0.5080 -0.6440  0.4489
 2809ntf    on515132   7.154   0.895   6.536  0.2256  0.5865  0.1379
 2809ntf    fn415133   7.208   0.879   6.255 -0.3667 -0.1249  0.2651
 2809ntf    fn415134   7.009   0.927   6.199 -0.2860 -0.1119  0.0852
 2809ntf    fn415135   7.139   1.077   6.286 -0.2152  0.4362 -0.4220
 2810ntf    cn115136   1.785   0.431   3.989 -0.4223  0.2383  0.2112
 2810ntf    sn215137   1.936   0.529   4.015 -0.3650  0.2700 -0.2299
 2810ntf    nn315138   1.883   0.609   4.139 -0.2482  0.3028 -0.2013
 2810ntf    sn215139   1.926   0.754   4.183  0.1268  0.0966  0.1212
 2810ntf    cn115140   2.018   0.712   4.334 -0.3909 -0.2175  0.3508
 2810ntf    fn415141   1.787   0.358   3.878 -0.0897  0.3640  0.1322
 2810ntf    fn415142   1.761   0.344   4.085 -0.3935 -0.0142 -0.0082
 2810ntf    fn415143   1.676   0.505   3.984 -0.4007  0.2245 -0.7328
 2810ntf    on515144   2.022   0.426   4.066 -0.2360  0.2806 -0.4248
 2810ntf    on515145   1.964   0.584   3.885  0.3017  0.0683 -0.1738
 2810ntf    on515146   1.813   0.827   4.235  0.1468  0.1347  0.1104
 2810ntf    on515147   2.025   0.826   4.106  0.3881  0.0296  0.3925
 2810ntf    fn415148   2.118   0.628   4.309  0.0019  0.0840  0.9008
 2810ntf    fn415149   2.081   0.813   4.390 -0.7483  0.2116 -0.0140
 2810ntf    fn415150   1.941   0.654   4.424 -0.3789 -0.1646  0.3944
 2811ntf    cn115151   6.770   4.193   0.221  0.1391  0.1028  0.1122
 2811ntf    sn215152   6.714   4.096   0.078 -0.1418  0.1417  0.1941
 2811ntf    nn315153   6.816   4.152  -0.029  0.0407  0.1254  0.3592
 2811ntf    sn215154   6.905   4.071  -0.129 -0.2763  0.1183  0.0821
 2811ntf    cn115155   6.838   4.143  -0.282 -0.0624 -0.0187 -0.0779
 2811ntf    fn415156   6.679   4.184   0.317  0.3007 -0.5310  0.2093
 2811ntf    fn415157   6.882   4.151   0.277  0.0891 -0.3732 -0.1434
 2811ntf    fn415158   6.791   4.320   0.189  0.1841  0.2868  0.8409
 2811ntf    on515159   6.734   3.964   0.131 -0.0337  0.0551 -0.0617
 2811ntf    on515160   6.581   4.148   0.057 -0.4085 -0.4260  0.4726
 2811ntf    on515161   6.868   3.932  -0.137  0.1185  0.0298 -0.2504
 2811ntf    on515162   7.044   4.109  -0.132 -0.1474 -0.3672 -0.1968
 2811ntf    fn415163   6.915   4.113  -0.385  0.0732  0.7414 -0.2065
 2811ntf    fn415164   6.712   4.108  -0.307 -0.1127  0.3897 -0.4057
 2811ntf    fn415165   6.838   4.275  -0.274 -0.1712 -0.0368  0.2121
 2812ntf    cn115166   3.300   6.567   2.965 -0.2276  0.1544  0.5244
 2812ntf    sn215167   3.403   6.446   2.878 -0.4278  0.1367  0.3099
 2812ntf    nn315168   3.328   6.434   2.741  0.0892  0.1032  0.0274
 2812ntf    sn215169   3.209   6.338   2.706  0.0314  0.2580 -0.2068
 2812ntf    cn115170   3.304   6.219   2.606  0.2549  0.1403  0.1437
 2812ntf    fn415171   3.336   6.694   2.954 -0.3896  0.1681  0.1193
 2812ntf    fn415172   3.176   6.568   2.917 -0.0853 -0.2863  0.1495
 2812ntf    fn415173   3.295   6.538   3.094  0.7061  0.4247  0.6249
 2812ntf    on515174   3.533   6.508   2.866 -0.1109 -0.4951  0.4017
 2812ntf    on515175   3.401   6.322   2.952  0.1675 -0.2287 -0.2780
 2812ntf    on515176   3.115   6.387   2.609 -0.3413 -0.6338 -0.3117
 2812ntf    on515177   3.149   6.263   2.814  0.1725  0.5203  0.0556
 2812ntf    fn415178   3.337   6.273   2.490  0.1839 -0.9422 -0.3863
 2812ntf    fn415179   3.420   6.186   2.661  0.3632  0.4704  0.1141
 2812ntf    fn415180   3.239   6.109   2.574 -0.0232  0.2225  0.4203
 2813ntf    cn115181   5.808   1.464   2.449  0.0661  0.1986 -0.0274
 2813ntf    sn215182   5.669   1.554   2.523 -0.0008  0.1736 -0.1245
 2813ntf    nn315183   5.717   1.704   2.528  0.3732  0.0572 -0.2118
 2813ntf    sn215184   5.688   1.811   2.417  0.2429  0.3062  0.0599
 2813ntf    cn115185   5.854   1.884   2.414  0.4055 -0.0711 -0.3539
 2813ntf    fn415186   5.841   1.518   2.333  0.0827 -0.1854 -0.1993
 2813ntf    fn415187   5.917   1.459   2.525 -0.0018  0.2011  0.0712
 2813ntf    fn415188   5.777   1.341   2.412 -0.5691  0.0136  1.0723
 2813ntf    on515189   5.558   1.522   2.437  0.1209 -0.2172 -0.1373
 2813ntf    on515190   5.667   1.492   2.653 -0.1805 -0.7477 -0.5610
 2813ntf    on515191   5.600   1.913   2.468  0.0806  0.2788 -0.1606
 2813ntf    on515192   5.665   1.770   2.280  0.1933 -0.2819  0.2391
 2813ntf    fn415193   5.943   1.790   2.385  0.5671 -0.0577  0.0748
 2813ntf    fn415194   5.864   1.986   2.331 -0.9334  0.0671 -0.3670
 2813ntf    fn415195   5.884   1.934   2.533 -0.1552 -0.1123 -0.1930
 2814ntf    cn115196   6.358   0.393   0.527 -0.2692  0.2007  0.1454
 2814ntf    sn215197   6.513   0.300   0.539 -0.2768  0.1193 -0.3336
 2814ntf    nn315198   6.553   0.324   0.690 -0.0882 -0.0075 -0.3627
 2814ntf    sn215199   6.662   0.422   0.746 -0.2330  0.0175 -0.1226
 2814ntf    cn115200   6.552   0.538   0.832 -0.3385 -0.0285 -0.1950
 2814ntf    fn415201   6.381   0.522   0.545 -0.0130  0.2078 -0.2304
 2814ntf    fn415202   6.301   0.373   0.409 -0.1635 -0.1633  0.1560
 2814ntf    fn415203   6.269   0.347   0.614 -0.3665  0.2429  0.0699
 2814ntf    on515204   6.470   0.163   0.526  0.4302 -0.1670  0.2221
 2814ntf    on515205   6.596   0.350   0.432 -0.1018  0.5827  0.0148
 2814ntf    on515206   6.740   0.498   0.651 -0.5797  0.1783 -0.2796
 2814ntf    on515207   6.738   0.368   0.856 -0.0646  0.7488  0.1194
 2814ntf    fn415208   6.480   0.596   0.737 -0.1904  0.3542 -0.0759
 2814ntf    fn415209   6.477   0.478   0.923 -0.2676 -0.0579 -0.1556
 2814ntf    fn415210   6.617   0.640   0.886  0.1503 -0.1661 -0.5125
 2815ntf    cn115211   1.620   1.281   0.288  0.6353  0.3238  0.1163
 2815ntf    sn215212   1.692   1.438   0.229  0.1822  0.4124 -0.2008
 2815ntf    nn315213   1.758   1.503   0.355 -0.2473 -0.3461  0.4223
 2815ntf    sn215214   1.904   1.479   0.409 -0.0243 -0.2048 -0.1155
 2815ntf    cn115215   1.990   1.613   0.321 -0.1304 -0.2074 -0.2239
 2815ntf    fn415216   1.708   1.200   0.345 -0.4212 -0.8538  0.1188
 2815ntf    fn415217   1.532   1.301   0.385  0.2310 -0.2571 -0.1258
 2815ntf    fn415218   1.558   1.216   0.192  0.1646  0.4325  0.3465
 2815ntf    on515219   1.777   1.402   0.118  0.3047 -0.0073  0.0295
 2815ntf    on515220   1.577   1.520   0.199  0.2414  0.6792  0.2877
 2815ntf    on515221   1.970   1.352   0.387  0.0732 -0.2633  0.4997
 2815ntf    on515222   1.901   1.525   0.546 -0.1107  1.1309 -0.5530
 2815ntf    fn415223   2.119   1.615   0.350 -0.1620  0.5606 -0.1151
 2815ntf    fn415224   1.980   1.594   0.191  0.5678  0.1132 -0.3287
 2815ntf    fn415225   1.936   1.731   0.346 -0.7040 -0.5719  0.2788
 2816ntf    cn115226   5.723   6.276   3.199 -0.3123 -0.1520  0.1546
 2816ntf    sn215227   5.685   6.438   3.125 -0.0540 -0.3415 -0.3978
 2816ntf    nn315228   5.616   6.501   3.252  0.1409 -0.3610 -0.2825
 2816ntf    sn215229   5.466   6.529   3.289  0.2196  0.0341 -0.2631
 2816ntf    cn115230   5.484   6.653   3.421 -0.0849 -0.1309 -0.0646
 2816ntf    fn415231   5.839   6.225   3.160 -0.1591 -0.2640  0.7527
 2816ntf    fn415232   5.739   6.278   3.330  0.1415  0.1164  0.0984
 2816ntf    fn415233   5.638   6.178   3.175 -0.6550  0.2034 -0.1148
 2816ntf    on515234   5.813   6.493   3.088 -0.2440  0.3808 -0.0064
 2816ntf    on515235   5.600   6.408   3.012 -0.2894 -0.5332 -0.1715
 2816ntf    on515236   5.394   6.417   3.344  0.4783  0.1964  0.4195
 2816ntf    on515237   5.389   6.597   3.189 -0.4119 -0.4512 -0.1134
 2816ntf    fn415238   5.522   6.775   3.387 -0.0125 -0.2638 -0.4610
 2816ntf    fn415239   5.369   6.659   3.486  0.0608 -0.2421  0.2013
 2816ntf    fn415240   5.579   6.616   3.504 -0.0034  0.2069 -0.0033
 2817ntf    cn115241   1.449   0.473   6.599 -0.3992 -0.0082  0.3323
 2817ntf    sn215242   1.447   0.333   6.716 -0.3939 -0.1937  0.1099
 2817ntf    nn315243   1.548   0.242   6.636  0.0736  0.1032  0.3556
 2817ntf    sn215244   1.514   0.142   6.520  0.5650  0.3678 -0.0150
 2817ntf    cn115245   1.662   0.036   6.517  0.1912 -0.1554 -0.0128
 2817ntf    fn415246   1.367   0.445   6.499  0.2497  0.9551 -0.4891
 2817ntf    fn415247   1.421   0.595   6.642 -0.0527  0.0840  0.3017
 2817ntf    fn415248   1.563   0.488   6.533 -0.6125 -0.0596 -0.0480
 2817ntf    on515249   1.512   0.380   6.835  0.0220 -0.1338 -0.1379
 2817ntf    on515250   1.308   0.298   6.722 -0.4829  0.2568  0.7097
 2817ntf    on515251   1.519   0.200   6.388 -0.0695  0.2455 -0.0960
 2817ntf    on515252   1.403   0.056   6.550  0.8858  0.0463  0.2577
 2817ntf    fn415253   1.690  -0.012   6.637 -0.0655 -0.3201 -0.0172
 2817ntf    fn415254   1.639  -0.069   6.439 -0.9031 -0.1721  0.3144
 2817ntf    fn415255   1.767   0.097   6.465  0.4258  0.0875  0.7435
 2818ntf    cn115256   3.457   2.300   3.677 -0.1930 -0.1524  0.2549
 2818ntf    sn215257   3.582   2.194   3.756 -0.2262 -0.2564  0.1676
 2818ntf    nn315258   3.690   2.298   3.802 -0.0369 -0.4957  0.2648
 2818ntf    sn215259   3.847   2.303   3.797 -0.0806  0.5831 -0.3789
 2818ntf    cn115260   3.867   2.433   3.672  0.0873  0.4735 -0.4663
 2818ntf    fn415261   3.507   2.381   3.585 -0.0922 -0.6575 -0.1400
 2818ntf    fn415262   3.371   2.218   3.619  0.0666  0.0716 -0.4601
 2818ntf    fn415263   3.386   2.375   3.760  0.0921 -0.1716  0.5165
 2818ntf    on515264   3.503   2.139   3.863  0.4079 -0.0411  0.7483
 2818ntf    on515265   3.628   2.107   3.650 -0.2627  0.4150 -0.4071
 2818ntf    on515266   3.906   2.190   3.731 -0.6419  0.1309 -0.1194
 2818ntf    on515267   3.895   2.351   3.924 -0.4604 -0.3514  0.1316
 2818ntf    fn415268   3.822   2.384   3.558  0.1363 -0.5222 -0.0630
 2818ntf    fn415269   3.806   2.548   3.699  0.4836  0.5393  0.1593
 2818ntf    fn415270   3.994   2.465   3.652  0.1646  0.2266 -0.3724
 2819ntf    cn115271   0.754   1.334   6.551  0.2596  0.5124  0.2823
 2819ntf    sn215272   0.661   1.222   6.442  0.2857  0.2943  0.4842
 2819ntf    nn315273   0.760   1.100   6.443 -0.0942 -0.0241 -0.2240
 2819ntf    sn215274   0.765   0.975   6.348 -0.1545 -0.1972 -0.0023
 2819ntf    cn115275   0.888   1.033   6.227 -0.3937  0.2542 -0.0336
 2819ntf    fn415276   0.728   1.462   6.529  0.2192  0.4794  0.1361
 2819ntf    fn415277   0.740   1.305   6.679 -0.1856 -0.4801  0.0154
 2819ntf    fn415278   0.884   1.321   6.531  0.2044  0.1953  0.1281
 2819ntf    on515279   0.538   1.209   6.516  0.0796  0.0662  0.1042
 2819ntf    on515280   0.657   1.297   6.319  0.5879 -1.3605 -0.5661
 2819ntf    on515281   0.654   0.937   6.265  0.1748 -0.1902 -0.4520
 2819ntf    on515282   0.830   0.860   6.405  0.2755 -0.1300 -0.3492
 2819ntf    fn415283   0.841   1.137   6.160 -0.2185  0.0969 -0.4048
 2819ntf    fn415284   0.999   1.080   6.281 -0.3699 -0.3990  0.5028
 2819ntf    fn415285   0.924   0.936   6.145 -0.2604  0.4730 -0.2335
 2820ntf    cn115286   3.796   4.981   2.549  0.0004 -0.0425 -0.1780
 2820ntf    sn215287   3.785   4.955   2.370 -0.0233 -0.0407 -0.1769
 2820ntf    nn315288   3.650   4.877   2.353 -0.0865  0.0354 -0.0192
 2820ntf    sn215289   3.588   4.770   2.451  0.1748 -0.1230 -0.0264
 2820ntf    cn115290   3.490   4.664   2.341  0.1315 -0.1231  0.0132
 2820ntf    fn415291   3.867   4.885   2.606  0.0264  0.1954  0.2002
 2820ntf    fn415292   3.860   5.094   2.579 -0.4520  0.1470  0.0820
 2820ntf    fn415293   3.677   4.977   2.607 -0.1216 -0.7297 -0.4742
 2820ntf    on515294   3.767   5.086   2.311 -0.2068  0.0423  0.0644
 2820ntf    on515295   3.906   4.885   2.333  0.2262  0.3324 -0.0723
 2820ntf    on515296   3.495   4.827   2.545 -0.0871 -0.5563 -0.0204
 2820ntf    on515297   3.686   4.676   2.499  0.3515 -0.2352 -0.5979
 2820ntf    fn415298   3.428   4.569   2.408 -0.4914  0.0888 -0.2538
 2820ntf    fn415299   3.390   4.725   2.279  0.0786 -0.1662  0.0568
 2820ntf    fn415300   3.567   4.607   2.250 -0.1528  0.3599 -0.5379
 2821ntf    cn115301   3.101   3.137   3.628  0.0972  0.1583 -0.3634
 2821ntf    sn215302   3.135   3.002   3.511  0.0141  0.1015 -0.3232
 2821ntf    nn315303   3.291   2.988   3.508  0.0346  0.1926  0.1787
 2821ntf    sn215304   3.377   2.871   3.567  0.2101  0.2922  0.1215
 2821ntf    cn115305   3.432   2.773   3.424 -0.3720  0.3968 -0.1763
 2821ntf    fn415306   3.121   3.103   3.755 -0.0528  0.2995 -0.3012
 2821ntf    fn415307   3.181   3.241   3.611 -0.2124  0.5110  0.2627
 2821ntf    fn415308   2.975   3.177   3.622  0.1206  0.3307  0.2148
 2821ntf    on515309   3.051   2.894   3.555 -0.1172  0.2365 -0.2398
 2821ntf    on515310   3.091   3.063   3.388  0.0978  0.0549 -0.3766
 2821ntf    on515311   3.312   2.778   3.655 -0.3463  0.7054  0.1530
 2821ntf    on515312   3.503   2.923   3.616  0.3002 -0.0591  0.2632
 2821ntf    fn415313   3.462   2.853   3.323  0.3721  0.0430 -0.2425
 2821ntf    fn415314   3.532   2.689   3.445 -0.6963  0.0123 -0.1542
 2821ntf    fn415315   3.338   2.689   3.382  0.1535 -0.1113 -0.3560
 2822ntf    cn115316   5.028   6.567   0.239 -0.2755  0.0849 -0.2098
 2822ntf    sn215317   4.942   6.408   0.263  0.0320 -0.0237  0.1927
 2822ntf    nn315318   4.838   6.406   0.146 -0.1080  0.2736  0.3133
 2822ntf    sn215319   4.700   6.331   0.143  0.0466 -0.0160  0.5053
 2822ntf    cn115320   4.585   6.458   0.202  0.0931  0.2951 -0.0627
 2822ntf    fn415321   4.963   6.661   0.305 -0.2434 -0.2666  0.3345
 2822ntf    fn415322   5.152   6.558   0.286 -0.3284  0.7070  0.0573
 2822ntf    fn415323   5.044   6.604   0.114 -0.0482  0.1072 -0.1746
 2822ntf    on515324   5.046   6.310   0.242  0.1354  0.2933 -0.8423
 2822ntf    on515325   4.884   6.425   0.393 -0.5835 -0.3115 -0.0400
 2822ntf    on515326   4.679   6.221   0.234  0.3005 -0.3743  0.1394
 2822ntf    on515327   4.655   6.312   0.007 -0.0629  0.5488  0.4613
 2822ntf    fn415328   4.591   6.573   0.137 -0.2482 -0.0460 -0.7077
 2822ntf    fn415329   4.459   6.417   0.194  0.0653  0.3808 -0.0647
 2822ntf    fn415330   4.602   6.500   0.326 -0.3541 -0.0668  0.1233
 2823ntf    cn115331   6.528   4.871   2.790  0.1472  0.2116 -0.2059
 2823ntf    sn215332   6.542   4.879   2.971  0.0509 -0.1639 -0.1821
 2823ntf    nn315333   6.399   4.940   2.997  0.3464  0.6257 -0.4079
 2823ntf    sn215334   6.341   5.037   3.106  0.1692  0.1174 -0.0503
 2823ntf    cn115335   6.370   5.190   3.013 -0.4206  0.3155  0.0864
 2823ntf    fn415336   6.512   4.982   2.719  0.7507  0.0974 -0.5294
 2823ntf    fn415337   6.633   4.801   2.748  0.2045  0.2072 -0.0534
 2823ntf    fn415338   6.418   4.803   2.760 -0.3737  0.8380  0.2708
 2823ntf    on515339   6.555   4.741   3.013  0.0586 -0.0932  0.0481
 2823ntf    on515340   6.651   4.971   2.991 -0.1500  0.0836 -0.2193
 2823ntf    on515341   6.425   5.060   3.220  0.7883  0.4971 -0.5824
 2823ntf    on515342   6.197   5.028   3.119  0.1812 -0.8428 -0.4322
 2823ntf    fn415343   6.340   5.290   3.095 -0.4384  0.1783  0.2470
 2823ntf    fn415344   6.497   5.207   2.980 -0.3343 -0.3261  0.0873
 2823ntf    fn415345   6.301   5.203   2.901  0.3229  0.5538 -0.3496
 2824ntf    cn115346   2.676   3.186   4.864 -0.2664  0.1521 -0.0111
 2824ntf    sn215347   2.730   3.189   5.038 -0.4224  0.3837  0.0320
 2824ntf    nn315348   2.884   3.202   5.010 -0.2562 -0.6962  0.4399
 2824ntf    sn215349   2.983   3.232   5.128 -0.0003  0.0734  0.0302
 2824ntf    cn115350   3.074   3.075   5.129 -0.1228 -0.0015 -0.4125
 2824ntf    fn415351   2.690   3.300   4.799 -0.1581  0.1215 -0.0424
 2824ntf    fn415352   2.740   3.100   4.786  0.5044  0.5387  0.1763
 2824ntf    fn415353   2.548   3.156   4.853 -0.2532 -0.1939  0.6950
 2824ntf    on515354   2.665   3.306   5.092 -0.6662  0.5136 -0.5293
 2824ntf    on515355   2.699   3.058   5.089 -0.7031  0.3188 -0.2999
 2824ntf    on515356   2.926   3.222   5.260  0.4085 -0.4234  0.1726
 2824ntf    on515357   3.078   3.340   5.116 -0.2555  0.2498 -0.4236
 2824ntf    fn415358   3.154   3.052   5.027  0.4087 -0.0896  0.0162
 2824ntf    fn415359   3.157   3.063   5.232  0.2575 -1.2549 -0.8473
 2824ntf    fn415360   3.000   2.966   5.142  1.0265 -0.7014  0.4745
 2825ntf    cn115361   0.624   3.040   4.518  0.2972 -0.4582  0.0228
 2825ntf    sn215362   0.542   2.942   4.647  0.2433 -0.0880  0.2737
 2825ntf    nn315363   0.658   2.923   4.751 -0.3323  0.5361  1.0350
 2825ntf    sn215364   0.713   2.791   4.815 -0.2844  0.2388  0.3812
 2825ntf    cn115365   0.822   2.734   4.680 -0.1467  0.3536  0.4434
 2825ntf    fn415366   0.737   3.093   4.564  0.1285  0.0387 -0.1327
 2825ntf    fn415367   0.658   2.977   4.407 -0.2342 -0.4494 -0.1462
 2825ntf    fn415368   0.544   3.132   4.467  0.7394  0.0918  0.3077
 2825ntf    on515369   0.436   3.026   4.696  0.5360  0.2851  0.2704
 2825ntf    on515370   0.499   2.826   4.572  0.7774  0.1326 -0.3887
 2825ntf    on515371   0.617   2.687   4.841 -0.5811  0.4585  0.1690
 2825ntf    on515372   0.800   2.826   4.924  0.0667 -0.3674  0.3056
 2825ntf    fn415373   0.930   2.671   4.724 -0.0031  0.5879  0.4293
 2825ntf    fn415374   0.763   2.664   4.585  0.3958  0.8601 -0.2749
 2825ntf    fn415375   0.864   2.845   4.621  0.2516  0.1709  0.3806
 2826ntf    cn115376   3.207   0.441   1.018  0.3264 -0.2216 -0.2266
 2826ntf    sn215377   3.160   0.315   0.895 -0.1009 -0.1374 -0.1495
 2826ntf    nn315378   3.281   0.217   0.916  0.5010  0.5898 -0.1783
 2826ntf    sn215379   3.398   0.176   0.820  0.2492 -0.3435 -0.1007
 2826ntf    cn115380   3.391  -0.003   0.848 -0.0696 -0.3174 -0.0188
 2826ntf    fn415381   3.223   0.382   1.135 -0.1265 -0.1798 -0.1431
 2826ntf    fn415382   3.318   0.504   0.981  0.1847  0.2514  0.1521
 2826ntf    fn415383   3.111   0.529   1.040  0.3646 -0.1418 -0.3821
 2826ntf    on515384   3.035   0.263   0.946 -0.1187  0.1106  0.0658
 2826ntf    on515385   3.163   0.385   0.770  0.4307 -0.1066 -0.1229
 2826ntf    on515386   3.524   0.211   0.882  0.0596 -0.0109  0.0989
 2826ntf    on515387   3.380   0.205   0.680  0.1382  0.0520 -0.0058
 2826ntf    fn415388   3.366  -0.025   0.976 -0.4334  0.1154 -0.0126
 2826ntf    fn415389   3.293  -0.067   0.785 -0.5621  0.5598 -0.1675
 2826ntf    fn415390   3.503  -0.065   0.816 -0.2811 -0.6579 -0.1106
 2827ntf    cn115391   2.962   3.384   2.933  0.2514 -0.0468  0.4969
 2827ntf    sn215392   2.796   3.318   2.897  0.1604  0.3300  0.2278
 2827ntf    nn315393   2.736   3.412   2.786  0.2860  0.1924  0.0420
 2827ntf    sn215394   2.751   3.568   2.781 -0.1136  0.2373  0.1936
 2827ntf    cn115395   2.599   3.608   2.690 -0.1078 -0.0803  0.0467
 2827ntf    fn415396   2.956   3.508   2.978  0.0419  0.2434 -0.3274
 2827ntf    fn415397   3.017   3.314   3.031  0.1976 -0.2777  0.3633
 2827ntf    fn415398   3.045   3.382   2.831 -0.3344  0.3188  0.0042
 2827ntf    on515399   2.827   3.192   2.836 -1.0703  0.3968 -0.5803
 2827ntf    on515400   2.723   3.308   3.021 -0.6349  0.2885 -0.2367
 2827ntf    on515401   2.862   3.620   2.704 -0.3306  0.3459 -0.0453
 2827ntf    on515402   2.731   3.642   2.904 -0.5097  0.4641 -0.0086
 2827ntf    fn415403   2.616   3.581   2.562  0.6577 -0.5465  0.2372
 2827ntf    fn415404   2.510   3.519   2.732  0.2853 -0.4247  0.1576
 2827ntf    fn415405   2.546   3.727   2.711 -0.2307 -0.0748 -0.2852
 2828ntf    cn115406   4.969   5.549   0.451 -0.3709 -0.0963  0.4527
 2828ntf    sn215407   4.951   5.368   0.451 -0.0874 -0.1286 -0.1546
 2828ntf    nn315408   4.816   5.363   0.372 -0.2332  0.0214  0.0824
 2828ntf    sn215409   4.797   5.362   0.216  0.3916  0.0466  0.0050
 2828ntf    cn115410   4.760   5.186   0.190  0.1635  0.0884  0.0435
 2828ntf    fn415411   4.876   5.601   0.530 -0.5631  0.7974 -0.3393
 2828ntf    fn415412   5.086   5.599   0.487 -0.3389  0.3407 -0.2265
 2828ntf    fn415413   4.959   5.601   0.329  0.7161 -0.2496  0.2946
 2828ntf    on515414   5.075   5.325   0.392  0.3803  0.3301  0.4776
 2828ntf    on515415   4.921   5.326   0.586  0.7034 -0.7398 -0.1627
 2828ntf    on515416   4.921   5.380   0.146  0.2671  0.8441 -0.0149
 2828ntf    on515417   4.678   5.434   0.179  0.2008 -0.3377 -0.1340
 2828ntf    fn415418   4.692   5.154   0.080  0.1006 -0.1181  0.1420
 2828ntf    fn415419   4.871   5.114   0.189  0.0211 -0.1346  0.3092
 2828ntf    fn415420   4.681   5.155   0.292 -0.3883  0.4067 -0.2803
 2829ntf    cn115421   4.133   4.697   1.163  0.2259 -0.1365  0.3336
 2829ntf    sn215422   4.260   4.641   1.046 -0.0856 -0.2587  0.0521
 2829ntf    nn315423   4.232   4.747   0.934 -0.0125 -0.9472 -0.6214
 2829ntf    sn215424   4.331   4.802   0.825  0.1747  0.0212  0.0283
 2829ntf    cn115425   4.481   4.858   0.911  0.1123  0.1695  0.0406
 2829ntf    fn415426   4.020   4.695   1.094  0.3487  0.6972  0.0959
 2829ntf    fn415427   4.117   4.623   1.272  0.4901 -0.1010  0.3974
 2829ntf    fn415428   4.154   4.814   1.220 -0.1496 -0.0254  0.2475
 2829ntf    on515429   4.377   4.661   1.129  0.0707  0.3860 -0.3176
 2829ntf    on515430   4.212   4.512   1.003  0.1545 -0.3833  0.1480
 2829ntf    on515431   4.296   4.931   0.772  0.0499  0.2483  0.6536
 2829ntf    on515432   4.373   4.706   0.726 -0.2666 -0.0726 -0.0720
 2829ntf    fn415433   4.539   4.959   0.849  0.6397  0.1447  0.4792
 2829ntf    fn415434   4.458   4.902   1.033 -0.5256  0.4831 -0.1897
 2829ntf    fn415435   4.567   4.759   0.928  0.0270  0.1970  0.6497
 2830ntf    cn115436   3.742   1.923   6.243 -0.2183 -0.2000 -0.6069
 2830ntf    sn215437   3.768   2.034   6.101  0.0217  0.2734 -0.1956
 2830ntf    nn315438   3.924   2.024   6.082  0.1627  0.4967  0.7934
 2830ntf    sn215439   4.012   2.033   5.953 -0.4054  0.3501  0.3912
 2830ntf    cn115440   4.175   2.047   6.034 -0.2943 -0.0854  0.2435
 2830ntf    fn415441   3.613   1.894   6.258 -0.1762 -0.0661  0.0381
 2830ntf    fn415442   3.809   1.809   6.238  0.1961  0.0268 -0.1978
 2830ntf    fn415443   3.791   1.986   6.349 -0.0441 -0.7148 -0.3773
 2830ntf    on515444   3.688   1.977   5.996  0.1526  0.0114 -0.1562
 2830ntf    on515445   3.727   2.160   6.158  0.3488  0.2187  0.1672
 2830ntf    on515446   3.997   2.157   5.881 -1.1710 -0.1631 -0.3394
 2830ntf    on515447   4.025   1.908   5.883  0.3399  0.4829  0.2772
 2830ntf    fn415448   4.188   2.169   6.082 -0.2979 -0.3211  0.8565
 2830ntf    fn415449   4.199   1.962   6.132  0.0719 -0.2208  0.0356
 2830ntf    fn415450   4.274   2.032   5.949 -0.1628  0.2838  0.3295
 2831ntf    cn115451   0.110   6.336   3.760 -0.0806 -0.3076 -0.0254
 2831ntf    sn215452  -0.064   6.366   3.716  0.0375  0.1315 -0.1986
 2831ntf    nn315453  -0.077   6.516   3.762 -0.4213  0.0496 -0.0642
 2831ntf    sn215454  -0.046   6.649   3.684 -0.0375 -0.1091 -0.1832
 2831ntf    cn115455  -0.210   6.724   3.665 -0.2130 -0.3767  0.2663
 2831ntf    fn415456   0.192   6.433   3.721 -0.2132 -0.1405  0.1163
 2831ntf    fn415457   0.121   6.333   3.892  0.0729 -0.3935 -0.0394
 2831ntf    fn415458   0.153   6.216   3.723 -0.5073 -0.5009  0.1081
 2831ntf    on515459  -0.077   6.350   3.574 -0.0375  0.0895 -0.1869
 2831ntf    on515460  -0.145   6.288   3.806 -0.8063  0.3771 -0.7428
 2831ntf    on515461   0.005   6.640   3.550 -0.3107  0.1171 -0.3032
 2831ntf    on515462   0.028   6.740   3.768 -0.2488 -0.3302  0.2489
 2831ntf    fn415463  -0.312   6.642   3.687 -0.4538 -0.1490 -0.0013
 2831ntf    fn415464  -0.235   6.830   3.741 -0.0997  0.1357 -0.3998
 2831ntf    fn415465  -0.226   6.765   3.541 -0.0006 -0.1192  0.3239
 2832ntf    cn115466   2.241   0.548   3.038  0.2938 -0.7807 -0.2541
 2832ntf    sn215467   2.241   0.728   3.009 -0.0362 -0.7685 -0.1804
 2832ntf    nn315468   2.225   0.739   2.853  0.0601  0.2815 -0.1198
 2832ntf    sn215469   2.128   0.827   2.767  0.0684  0.1923 -0.2196
 2832ntf    cn115470   2.217   0.880   2.618  0.5468 -0.1942 -0.0726
 2832ntf    fn415471   2.283   0.526   3.162  0.1217  0.3314  0.0185
 2832ntf    fn415472   2.117   0.501   3.044  0.1204 -0.2711  0.3814
 2832ntf    fn415473   2.312   0.477   2.953  0.9338 -0.3557 -0.0855
 2832ntf    on515474   2.127   0.768   3.088  0.0974 -0.0466 -0.3458
 2832ntf    on515475   2.370   0.757   3.064 -0.2746 -0.0463  0.0069
 2832ntf    on515476   2.097   0.948   2.839  0.4786 -0.5581  1.2511
 2832ntf    on515477   2.015   0.750   2.718 -0.1936  0.1576  0.4284
 2832ntf    fn415478   2.163   0.984   2.558  0.0891 -0.2721  0.1986
 2832ntf    fn415479   2.341   0.914   2.648  0.3311  0.8094 -0.2775
 2832ntf    fn415480   2.224   0.773   2.540  0.2212 -0.5700  0.4077
 2833ntf    cn115481   6.108   5.247   6.765 -0.5294  0.1299 -0.3616
 2833ntf    sn215482   6.077   5.137   6.906  0.1852  0.2060 -0.1386
 2833ntf    nn315483   6.208   5.052   6.915  0.1910  0.1789 -0.4940
 2833ntf    sn215484   6.253   4.931   6.825  0.2246 -0.0367 -0.1897
 2833ntf    cn115485   6.181   4.789   6.911  0.1709  0.1682  0.1077
 2833ntf    fn415486   6.184   5.350   6.801  0.1687 -0.4653 -0.1170
 2833ntf    fn415487   6.165   5.198   6.656 -0.3852 -0.7169  0.0915
 2833ntf    fn415488   6.002   5.294   6.701 -0.2074 -0.1331 -1.0993
 2833ntf    on515489   6.070   5.229   7.017  0.0237  0.4089 -0.3151
 2833ntf    on515490   5.960   5.055   6.885  0.3135 -0.0357  0.0938
 2833ntf    on515491   6.395   4.906   6.834  0.2485  0.2699  0.2870
 2833ntf    on515492   6.194   4.916   6.694 -0.1978 -0.7906  0.0835
 2833ntf    fn415493   6.050   4.807   6.917  0.1679  0.4176 -0.5871
 2833ntf    fn415494   6.189   4.672   6.849  0.3596  0.0478  0.3583
 2833ntf    fn415495   6.229   4.777   7.033  0.1748 -0.1417  0.0788
 2834ntf    cn115496   2.295   6.766   2.000 -0.1443  0.1957 -0.1864
 2834ntf    sn215497   2.120   6.812   1.985 -0.3218 -0.2454  0.4970
 2834ntf    nn315498   2.131   6.938   1.891 -0.3357 -0.2617  0.4731
 2834ntf    sn215499   2.192   7.079   1.923  0.0173 -0.1633 -0.6030
 2834ntf    cn115500   2.243   7.115   1.752  0.1804  0.0656 -0.5054
 2834ntf    fn415501   2.361   6.776   1.885  0.3060 -0.2706  0.0279
 2834ntf    fn415502   2.360   6.851   2.078 -0.2315  0.7019 -0.6580
 2834ntf    fn415503   2.316   6.648   2.057 -0.0759  0.3293  0.0637
 2834ntf    on515504   2.058   6.706   1.909 -0.3329 -0.1937  0.4343
 2834ntf    on515505   2.076   6.832   2.121  0.2562 -0.5881  0.7406
 2834ntf    on515506   2.312   7.080   2.004 -0.1478 -0.2855 -0.3554
 2834ntf    on515507   2.096   7.176   1.969  0.2129 -0.3059  0.1259
 2834ntf    fn415508   2.328   7.023   1.710  0.2458 -0.1385  0.0557
 2834ntf    fn415509   2.141   7.121   1.669  0.0918 -0.1513 -0.4126
 2834ntf    fn415510   2.305   7.232   1.748 -0.1097  0.2263 -0.3117
 2835ntf    cn115511   0.782   5.834   0.555  0.1597 -0.0812 -0.5810
 2835ntf    sn215512   0.665   5.974   0.546  0.1638 -0.0547 -0.2317
 2835ntf    nn315513   0.533   5.913   0.605  0.0689  0.1683 -0.2139
 2835ntf    sn215514   0.483   5.940   0.751 -0.1107  0.0727 -0.2572
 2835ntf    cn115515   0.428   5.773   0.798  0.1810 -0.0812 -0.4603
 2835ntf    fn415516   0.903   5.857   0.507  0.3751 -0.0411 -0.0241
 2835ntf    fn415517   0.791   5.793   0.681  1.0928  0.6620 -0.3971
 2835ntf    fn415518   0.737   5.728   0.490 -0.1873 -0.2184 -0.1240
 2835ntf    on515519   0.715   6.075   0.636 -0.4030  0.0990 -0.0848
 2835ntf    on515520   0.661   6.014   0.408 -0.4448  0.9054  0.0542
 2835ntf    on515521   0.359   6.012   0.765  0.1638  0.5046 -0.0536
 2835ntf    on515522   0.580   5.942   0.858 -0.7064 -0.8777  0.3268
 2835ntf    fn415523   0.387   5.768   0.924  0.9941 -0.6991 -0.2166
 2835ntf    fn415524   0.331   5.731   0.718 -0.2026  0.1848 -0.1358
 2835ntf    fn415525   0.532   5.692   0.786  0.2130 -0.0848 -0.1474
 2836ntf    cn115526   2.215   5.779   0.644 -0.5219  0.4856  0.2708
 2836ntf    sn215527   2.240   5.618   0.565  0.1077  0.6230  0.1846
 2836ntf    nn315528   2.159   5.641   0.432  0.3026 -0.5260 -0.1458
 2836ntf    sn215529   2.009   5.608   0.404  0.1337 -0.0703  0.2105
 2836ntf    cn115530   1.981   5.731   0.273 -0.0643  0.0803  0.3933
 2836ntf    fn415531   2.295   5.788   0.749  0.4928 -0.2374 -0.4217
 2836ntf    fn415532   2.252   5.883   0.571  0.1640  0.1850  0.1784
 2836ntf    fn415533   2.092   5.807   0.683 -0.6353 -0.0306  0.2929
 2836ntf    on515534   2.383   5.610   0.546  0.0336  0.3270 -0.2750
 2836ntf    on515535   2.183   5.513   0.646  0.0808  0.4748 -0.0251
 2836ntf    on515536   1.912   5.651   0.502 -0.3398 -0.2909 -0.1558
 2836ntf    on515537   1.988   5.479   0.341  0.3054 -0.2367  0.4959
 2836ntf    fn415538   2.063   5.835   0.280 -0.2066  0.2725 -0.7149
 2836ntf    fn415539   1.994   5.670   0.156 -0.8217  0.6674 -0.0036
 2836ntf    fn415540   1.855   5.770   0.277 -0.0008  0.3724 -0.3022
 2837ntf    cn115541   0.211   4.330   6.134 -0.3939  0.3264  0.0903
 2837ntf    sn215542   0.377   4.403   6.148 -0.1838 -0.1252 -0.0070
 2837ntf    nn315543   0.387   4.488   6.017  0.0448 -0.1919 -0.0338
 2837ntf    sn215544   0.467   4.620   5.989  0.1444 -0.1681  0.3691
 2837ntf    cn115545   0.318   4.721   5.967  0.2951 -0.0279 -0.0072
 2837ntf    fn415546   0.185   4.244   6.231 -0.1764  0.0832 -0.0632
 2837ntf    fn415547   0.112   4.415   6.113 -0.3457  0.1831 -0.7691
 2837ntf    fn415548   0.232   4.255   6.027  0.3378 -0.0788  0.5061
 2837ntf    on515549   0.371   4.480   6.270  0.7389 -0.0198 -0.0228
 2837ntf    on515550   0.468   4.291   6.145  0.0479  0.0572  0.1463
 2837ntf    on515551   0.532   4.629   5.861  0.3136 -0.2576  0.4483
 2837ntf    on515552   0.544   4.689   6.090 -0.1584  0.0718  0.4382
 2837ntf    fn415553   0.344   4.846   5.931 -0.5875  0.1003 -0.2384
 2837ntf    fn415554   0.249   4.667   5.867 -0.0547  0.5055 -0.0600
 2837ntf    fn415555   0.233   4.734   6.067 -0.1112 -0.5524 -0.2763
 2838ntf    cn115556   6.461   4.165   5.376  0.0055 -0.0700  0.1683
 2838ntf    sn215557   6.404   4.085   5.529 -0.0564 -0.1055  0.1269
 2838ntf    nn315558   6.500   4.159   5.629  0.1522 -0.0014 -0.1488
 2838ntf    sn215559   6.625   4.116   5.713  0.0495 -0.1670 -0.0823
 2838ntf    cn115560   6.609   4.217   5.864  0.2216 -0.2612 -0.0008
 2838ntf    fn415561   6.564   4.111   5.313  0.4562  0.8015  0.1554
 2838ntf    fn415562   6.359   4.158   5.292  0.3375 -0.3493 -0.2147
 2838ntf    fn415563   6.479   4.295   5.393 -0.1248 -0.0045 -0.1908
 2838ntf    on515564   6.265   4.120   5.542  0.0174  0.1742  0.1554
 2838ntf    on515565   6.432   3.946   5.502  0.0172 -0.0131 -0.2776
 2838ntf    on515566   6.752   4.154   5.656  0.0129  0.3100  0.1455
 2838ntf    on515567   6.614   3.979   5.757 -0.7153 -0.3781 -0.8956
 2838ntf    fn415568   6.698   4.201   5.960  0.3862 -0.3124 -0.1617
 2838ntf    fn415569   6.613   4.345   5.829 -0.1573 -0.2486 -0.0025
 2838ntf    fn415570   6.491   4.198   5.921  0.1254  0.0277 -0.0999
 2839ntf    cn115571   6.070   5.314   5.204 -0.3230  0.4509 -0.3150
 2839ntf    sn215572   5.906   5.290   5.127 -0.5169 -0.1418  0.2749
 2839ntf    nn315573   5.941   5.223   4.990  0.2945  0.0931  0.3600
 2839ntf    sn215574   5.916   5.078   4.934 -0.1532  0.2729  0.0853
 2839ntf    cn115575   5.816   5.104   4.785  0.2486  0.1953 -0.1991
 2839ntf    fn415576   6.155   5.367   5.118  0.2331  0.0885  0.0095
 2839ntf    fn415577   6.070   5.385   5.316  0.2393 -0.3588  0.2090
 2839ntf    fn415578   6.130   5.201   5.238 -0.0932  0.5561 -0.3702
 2839ntf    on515579   5.841   5.207   5.225 -0.1504 -0.0512  0.5987
 2839ntf    on515580   5.854   5.422   5.101  0.2855  0.1015 -0.1213
 2839ntf    on515581   5.832   4.997   5.018 -0.2215 -0.0509 -0.2952
 2839ntf    on515582   6.033   5.027   4.866 -0.1268  0.4174  0.0215
 2839ntf    fn415583   5.706   5.170   4.819 -0.1207 -0.6223  0.2173
 2839ntf    fn415584   5.874   5.184   4.697  0.1098  0.0458 -0.4291
 2839ntf    fn415585   5.785   4.995   4.717  0.5633 -0.0958  0.1215
 2840ntf    cn115586   5.063   0.939   6.631 -0.2082  0.0469 -0.0240
 2840ntf    sn215587   5.070   0.979   6.808 -0.1032 -0.0809  0.0005
 2840ntf    nn315588   5.037   0.849   6.888  0.2206 -0.0123  0.2466
 2840ntf    sn215589   4.896   0.783   6.909  0.1574  0.1142  0.2134
 2840ntf    cn115590   4.842   0.870   7.059 -0.2373 -0.0149  0.1481
 2840ntf    fn415591   4.938   0.937   6.587 -0.1838 -0.6360 -0.0741
 2840ntf    fn415592   5.134   1.015   6.549 -0.1211 -0.5237 -0.4806
 2840ntf    fn415593   5.098   0.812   6.626  0.0033  0.0979  0.1526
 2840ntf    on515594   5.209   1.016   6.822 -0.1468  0.1763 -0.2145
 2840ntf    on515595   4.981   1.091   6.829  0.1028 -0.0088  0.4981
 2840ntf    on515596   4.907   0.650   6.963 -0.1587 -0.0351 -0.0839
 2840ntf    on515597   4.791   0.813   6.815  0.5056  0.3017 -0.1200
 2840ntf    fn415598   4.740   0.809   7.117  0.1554 -0.6889  0.1372
 2840ntf    fn415599   4.944   0.877   7.143 -0.3040 -0.2257  0.2485
 2840ntf    fn415600   4.803   0.994   7.033 -0.2932 -0.0715 -0.0355
 2841ntf    cn115601   0.216   5.752   1.710 -0.1740 -0.3478 -0.0139
 2841ntf    sn215602   0.121   5.602   1.672 -0.5916 -0.0750 -0.0578
 2841ntf    nn315603   0.128   5.608   1.515  0.4179  0.0396 -0.0139
 2841ntf    sn215604   0.023   5.558   1.409  0.3215  0.2076  0.0039
 2841ntf    cn115605  -0.069   5.713   1.382  0.1735  0.0652 -0.3057
 2841ntf    fn415606   0.160   5.868   1.679  0.4446 -0.0382  0.0179
 2841ntf    fn415607   0.257   5.760   1.836  0.2923  0.4391 -0.2127
 2841ntf    fn415608   0.332   5.738   1.648 -0.3350 -0.4320 -0.2976
 2841ntf    on515609   0.193   5.492   1.732  0.0601  0.3484 -0.0636
 2841ntf    on515610  -0.009   5.631   1.727 -0.9322 -0.3206 -0.7217
 2841ntf    on515611  -0.078   5.464   1.448  0.3601  0.2635  0.2467
 2841ntf    on515612   0.093   5.541   1.284  0.3357 -0.1112  0.0564
 2841ntf    fn415613  -0.176   5.701   1.305 -0.0117 -0.0625 -0.0297
 2841ntf    fn415614  -0.104   5.766   1.498  0.6980 -0.0292 -0.0985
 2841ntf    fn415615   0.002   5.806   1.319  0.5034  0.0266  0.0064
 2842ntf    cn115616   6.768   1.606   1.928  0.2619 -0.1428 -0.1292
 2842ntf    sn215617   6.914   1.703   1.881  0.3224 -0.3142 -0.2972
 2842ntf    nn315618   6.917   1.798   2.006  0.4134 -0.0845 -0.4733
 2842ntf    sn215619   6.923   1.954   1.986 -0.1062  0.0064  0.0573
 2842ntf    cn115620   6.988   2.003   2.148  0.1895 -0.4723  0.0858
 2842ntf    fn415621   6.795   1.523   2.027 -0.8227 -0.5069 -0.1191
 2842ntf    fn415622   6.670   1.683   1.972  0.5322  0.0775  0.0930
 2842ntf    fn415623   6.714   1.543   1.825  0.5222 -0.2627 -0.1910
 2842ntf    on515624   7.026   1.612   1.876  0.4105 -0.2146 -0.1456
 2842ntf    on515625   6.863   1.757   1.758 -0.1427  0.4758  0.2318
 2842ntf    on515626   6.791   2.012   1.982 -0.1981 -0.2445 -0.7087
 2842ntf    on515627   7.020   2.018   1.902 -0.0495  0.2454  0.3049
 2842ntf    fn415628   6.907   1.977   2.249  0.1909  0.1082  0.2433
 2842ntf    fn415629   7.107   1.948   2.169  0.2191 -0.3660  0.2018
 2842ntf    fn415630   7.009   2.134   2.156  0.0117 -0.4349 -0.0604
 2843ntf    cn115631   2.688   4.429   3.028 -0.0528 -0.0201  0.1003
 2843ntf    sn215632   2.713   4.378   2.855  0.2251  0.1213  0.0983
 2843ntf    nn315633   2.778   4.509   2.800 -0.1656  0.2774  0.0047
 2843ntf    sn215634   2.732   4.612   2.691  0.2681  0.3798 -0.0845
 2843ntf    cn115635   2.798   4.767   2.761  0.1847  0.2919  0.1865
 2843ntf    fn415636   2.804   4.455   3.085 -0.3586 -0.1327  0.7870
 2843ntf    fn415637   2.614   4.539   3.035 -0.0794 -0.0349  0.0511
 2843ntf    fn415638   2.637   4.331   3.100 -0.1376  0.0492  0.1349
 2843ntf    on515639   2.804   4.268   2.874  0.2166  0.0414 -0.3119
 2843ntf    on515640   2.582   4.346   2.805  0.2808 -0.0804  0.0796
 2843ntf    on515641   2.591   4.636   2.677  0.2339 -0.0107 -0.4250
 2843ntf    on515642   2.800   4.596   2.565  0.0348 -0.1795 -0.1425
 2843ntf    fn415643   2.743   4.869   2.697 -0.1725  0.0075  0.0335
 2843ntf    fn415644   2.761   4.780   2.888 -0.1350 -0.6124  0.1931
 2843ntf    fn415645   2.930   4.764   2.758  0.1860  0.0304  0.4441
 2844ntf    cn115646   4.906   5.451   6.887  0.0930 -0.6397  0.4018
 2844ntf    sn215647   5.075   5.399   6.842  0.1777  0.0144 -0.0597
 2844ntf    nn315648   5.104   5.509   6.734  0.0766 -0.1605 -0.2638
 2844ntf    sn215649   5.211   5.515   6.619  0.3859  0.2513  0.0437
 2844ntf    cn115650   5.095   5.473   6.486 -0.0129  0.3983  0.3457
 2844ntf    fn415651   4.904   5.583   6.896 -0.3508 -0.6310  0.2042
 2844ntf    fn415652   4.828   5.420   6.785  0.1030 -0.4203  0.3262
 2844ntf    fn415653   4.864   5.392   6.997 -0.5824  0.3465  0.6826
 2844ntf    on515654   5.156   5.423   6.959  0.0175 -0.2363  0.1018
 2844ntf    on515655   5.065   5.261   6.802 -0.3694  0.1876 -0.5258
 2844ntf    on515656   5.308   5.408   6.619  0.6937  0.5234 -0.5952
 2844ntf    on515657   5.253   5.647   6.580  0.3301  0.1079 -0.5176
 2844ntf    fn415658   5.171   5.457   6.379 -0.9783  0.2770 -0.3350
 2844ntf    fn415659   5.027   5.363   6.513  0.0051  0.5488  1.0215
 2844ntf    fn415660   5.002   5.565   6.463 -0.4618 -0.0975  0.1445
 2845ntf    cn115661   0.536   0.796   2.038  0.4072 -0.1568 -0.0845
 2845ntf    sn215662   0.426   0.717   1.917 -0.1780  0.2522  0.1758
 2845ntf    nn315663   0.460   0.794   1.784 -0.1576 -0.1805 -0.0737
 2845ntf    sn215664   0.604   0.812   1.725  0.0144 -0.2080  0.3311
 2845ntf    cn115665   0.566   0.827   1.547  0.1695 -0.2072  0.2982
 2845ntf    fn415666   0.661   0.773   2.000  0.4152 -0.3169  0.0370
 2845ntf    fn415667   0.516   0.925   2.055 -0.1683 -0.2842  0.2276
 2845ntf    fn415668   0.534   0.735   2.156  0.0972  0.0108 -0.0050
 2845ntf    on515669   0.456   0.576   1.905 -0.1289  0.2616  0.1901
 2845ntf    on515670   0.294   0.755   1.960 -0.5483 -0.8352  0.0441
 2845ntf    on515671   0.679   0.689   1.723  0.1240 -0.1495  0.8042
 2845ntf    on515672   0.671   0.931   1.770 -0.0291 -0.0174 -0.0971
 2845ntf    fn415673   0.494   0.934   1.519 -0.4659 -0.6025  0.4081
 2845ntf    fn415674   0.671   0.849   1.469 -0.2516  0.3879 -0.1109
 2845ntf    fn415675   0.494   0.726   1.503  0.1319 -0.0220 -0.0657
 2846ntf    cn115676   3.965   6.222   0.724  0.1300  0.0039  0.2488
 2846ntf    sn215677   4.115   6.321   0.694  0.0562  0.0643  0.0799
 2846ntf    nn315678   4.202   6.220   0.610  0.0982  0.3368 -0.2036
 2846ntf    sn215679   4.182   6.154   0.470  0.0253 -0.0753  0.0008
 2846ntf    cn115680   4.309   6.242   0.375 -0.0032 -0.0554 -0.0195
 2846ntf    fn415681   3.892   6.269   0.824 -0.5339  0.1572 -0.3092
 2846ntf    fn415682   3.887   6.213   0.618  0.0502  0.3444  0.2779
 2846ntf    fn415683   3.996   6.095   0.747  0.3165  0.0130  0.0485
 2846ntf    on515684   4.067   6.432   0.616  0.1661 -0.0092 -0.0931
 2846ntf    on515685   4.172   6.352   0.823  0.6220  0.3059 -0.2263
 2846ntf    on515686   4.060   6.181   0.399  0.0595 -0.0999 -0.0677
 2846ntf    on515687   4.235   6.020   0.470 -0.2102 -0.1692 -0.2099
 2846ntf    fn415688   4.321   6.212   0.246  0.2733 -0.1476  0.0266
 2846ntf    fn415689   4.294   6.373   0.378  0.2535 -0.0276  0.0580
 2846ntf    fn415690   4.429   6.229   0.430  0.0437 -0.1111 -0.1327
 2847ntf    cn115691   2.446   1.432   6.956  0.0738  0.1309 -0.3785
 2847ntf    sn215692   2.426   1.572   7.071 -0.0951 -0.5844  0.4813
 2847ntf    nn315693   2.532   1.538   7.181  0.3035 -0.6150  0.0949
 2847ntf    sn215694   2.684   1.565   7.152  0.0969  0.4137 -0.0904
 2847ntf    cn115695   2.739   1.392   7.150 -0.0946  0.3543 -0.2061
 2847ntf    fn415696   2.441   1.314   7.016  0.2553  0.1630 -0.2982
 2847ntf    fn415697   2.354   1.416   6.864  0.0856  0.3110 -0.4222
 2847ntf    fn415698   2.559   1.415   6.889  0.1450  0.1176 -0.2567
 2847ntf    on515699   2.442   1.696   6.997 -0.5555 -0.3430  0.7855
 2847ntf    on515700   2.288   1.553   7.109 -0.4264  0.1182 -0.3366
 2847ntf    on515701   2.762   1.616   7.262 -0.1929  0.3231  0.1569
 2847ntf    on515702   2.725   1.624   7.027  0.2055  0.1340 -0.1882
 2847ntf    fn415703   2.869   1.381   7.128 -0.0882  0.1445 -0.0702
 2847ntf    fn415704   2.722   1.341   7.271 -0.2917  0.3616 -0.2305
 2847ntf    fn415705   2.683   1.312   7.059 -0.2769 -0.1148  0.3114
 2848ntf    cn115706   2.921   3.030   6.892 -0.0334 -0.0940 -0.4307
 2848ntf    sn215707   3.017   3.140   7.000 -0.0156 -0.3574 -0.1744
 2848ntf    nn315708   3.067   3.048   7.116 -0.4359 -0.5508 -0.1452
 2848ntf    sn215709   3.131   3.088   7.253 -0.2203 -0.1258 -0.3668
 2848ntf    cn115710   2.985   3.077   7.361  0.1815  0.5214  0.2570
 2848ntf    fn415711   3.007   2.948   6.832 -0.0358 -0.4807  0.0874
 2848ntf    fn415712   2.842   2.952   6.964  0.7699  0.2270  0.8300
 2848ntf    fn415713   2.863   3.088   6.788 -0.0892  0.1346 -0.2699
 2848ntf    on515714   3.122   3.182   6.910 -0.8740  1.1088 -0.5397
 2848ntf    on515715   2.917   3.237   7.039 -0.0439 -0.5193  0.1548
 2848ntf    on515716   3.178   3.223   7.269 -0.3810 -0.1273  0.1517
 2848ntf    on515717   3.228   2.989   7.295 -0.1445 -0.1540 -0.6090
 2848ntf    fn415718   3.018   3.112   7.484  0.7499 -0.1377  0.3015
 2848ntf    fn415719   2.875   3.140   7.322  0.1286  0.0406 -0.3965
 2848ntf    fn415720   2.946   2.950   7.370  0.5956  0.4296  0.7262
 2849ntf    cn115721   1.875   5.324   6.475  0.1852  0.2821  0.1837
 2849ntf    sn215722   1.822   5.151   6.460  0.1397  0.2500  0.6902
 2849ntf    nn315723   1.931   5.087   6.554  0.5868  0.3794  0.2612
 2849ntf    sn215724   2.045   4.984   6.524 -0.1859 -0.3414 -0.2448
 2849ntf    cn115725   2.146   4.987   6.675 -0.0115 -0.3426 -0.3620
 2849ntf    fn415726   1.998   5.339   6.429  0.1886  0.1322  0.1432
 2849ntf    fn415727   1.801   5.405   6.402  0.5497  0.3282 -0.1390
 2849ntf    fn415728   1.866   5.364   6.601  0.1957  0.0105  0.2723
 2849ntf    on515729   1.690   5.151   6.518 -0.0064 -0.3206  0.3710
 2849ntf    on515730   1.831   5.128   6.318  0.9248 -0.2270  0.8142
 2849ntf    on515731   2.149   5.024   6.432  0.3107  0.1015  0.5048
 2849ntf    on515732   1.996   4.848   6.519 -0.6178 -0.1984  0.0452
 2849ntf    fn415733   2.144   5.107   6.729 -0.6558 -0.1495 -0.7997
 2849ntf    fn415734   2.105   4.899   6.764 -0.6616  0.2796 -0.0379
 2849ntf    fn415735   2.273   4.964   6.645  0.0526  0.1511 -0.4770
 2850ntf    cn115736   2.489   2.983   6.618  0.1422  0.0668  0.5427
 2850ntf    sn215737   2.349   3.097   6.641  0.1089  0.0823  0.2634
 2850ntf    nn315738   2.247   2.994   6.701  0.1674 -0.0820  0.0831
 2850ntf    sn215739   2.199   2.994   6.851 -0.0418  0.0150  0.0175
 2850ntf    cn115740   2.048   3.094   6.840 -0.1397 -0.0935  0.3669
 2850ntf    fn415741   2.595   3.050   6.578  0.1025 -0.4280 -0.4173
 2850ntf    fn415742   2.527   2.927   6.732 -0.1829 -0.1131  0.5645
 2850ntf    fn415743   2.472   2.883   6.532 -0.6727  0.3370  0.3792
 2850ntf    on515744   2.399   3.201   6.727 -0.6476  0.3342  0.4054
 2850ntf    on515745   2.299   3.136   6.511  0.6900 -0.5682 -0.1679
 2850ntf    on515746   2.284   3.048   6.954 -0.3848  0.1201  0.2443
 2850ntf    on515747   2.148   2.862   6.880 -0.3164  0.0927 -0.1097
 2850ntf    fn415748   1.997   3.114   6.961 -0.1778 -0.9854  0.5047
 2850ntf    fn415749   2.071   3.207   6.776 -0.1771 -0.1129  0.3194
 2850ntf    fn415750   1.959   3.026   6.770 -0.0926  0.1447  0.0756
 2851ntf    cn115751   6.323   1.306   1.312 -0.2674 -0.3822 -0.2022
 2851ntf    sn215752   6.299   1.410   1.165  0.3189  0.2313  0.1292
 2851ntf    nn315753   6.164   1.477   1.208 -0.1403 -0.7485  0.2444
 2851ntf    sn215754   6.028   1.502   1.134  0.0265 -0.3224  0.0807
 2851ntf    cn115755   5.916   1.374   1.196  0.0634 -0.3087  0.1763
 2851ntf    fn415756   6.243   1.203   1.332  0.1216 -0.6068  0.2084
 2851ntf    fn415757   6.451   1.272   1.310  0.0206  0.6682 -0.1920
 2851ntf    fn415758   6.304   1.377   1.421 -0.2372 -0.1548 -0.3444
 2851ntf    on515759   6.419   1.489   1.170  0.5495 -0.1847  1.3156
 2851ntf    on515760   6.286   1.303   1.070  0.0981  0.2463  0.1419
 2851ntf    on515761   6.037   1.474   0.992  0.5370 -0.2987  0.1067
 2851ntf    on515762   5.971   1.631   1.164 -0.4081 -0.3431 -0.6260
 2851ntf    fn415763   5.912   1.362   1.328 -0.0064  0.2326  0.2249
 2851ntf    fn415764   5.788   1.400   1.175  0.0801 -0.2630  0.1330
 2851ntf    fn415765   5.943   1.254   1.148  0.2808 -0.1375 -0.1259
 2852ntf    cn115766   3.441   2.198   6.623  0.2936  0.2486  0.3188
 2852ntf    sn215767   3.348   2.288   6.751 -0.4107 -0.1854  0.1144
 2852ntf    nn315768   3.365   2.188   6.870 -0.1834  0.4253  0.5996
 2852ntf    sn215769   3.449   2.211   7.001 -0.0201  0.5307  0.4758
 2852ntf    cn115770   3.612   2.144   6.958 -0.3183  0.4023 -0.4886
 2852ntf    fn415771   3.548   2.128   6.656 -0.0320 -0.1787  0.4709
 2852ntf    fn415772   3.366   2.112   6.556  0.2157 -0.1388  0.9002
 2852ntf    fn415773   3.475   2.287   6.530 -0.5748 -0.2377 -0.4775
 2852ntf    on515774   3.421   2.412   6.763 -0.6994 -0.0222  0.1878
 2852ntf    on515775   3.213   2.285   6.701 -0.2748 -0.2075 -0.2584
 2852ntf    on515776   3.393   2.127   7.104 -0.1843 -0.1483 -0.1600
 2852ntf    on515777   3.483   2.348   7.029 -0.4079  0.7189  0.0415
 2852ntf    fn415778   3.615   2.013   6.940 -0.3019  0.3376 -0.0217
 2852ntf    fn415779   3.679   2.196   6.856  0.2662 -0.3430 -0.4919
 2852ntf    fn415780   3.692   2.148   7.063 -0.0773  0.0626 -0.6550
 2853ntf    cn115781   1.406   5.023   4.168  0.0204 -0.3879 -0.5946
 2853ntf    sn215782   1.308   4.938   4.295  0.3891 -0.0707 -0.0919
 2853ntf    nn315783   1.174   4.977   4.222  0.0536 -0.6325  0.2134
 2853ntf    sn215784   1.076   4.897   4.129 -0.1602  0.2795 -0.3630
 2853ntf    cn115785   0.952   4.866   4.258 -0.0646  0.0711 -0.3204
 2853ntf    fn415786   1.536   5.017   4.189 -0.0599  0.5053  0.2143
 2853ntf    fn415787   1.387   4.979   4.045  0.0133 -0.3041 -0.6237
 2853ntf    fn415788   1.376   5.152   4.161  0.2845 -0.3296 -0.6723
 2853ntf    on515789   1.345   4.799   4.300  0.0073 -0.1655  0.1641
 2853ntf    on515790   1.336   5.018   4.411  0.1214  0.2533 -0.2487
 2853ntf    on515791   1.124   4.763   4.104 -0.6772 -0.0578  0.4409
 2853ntf    on515792   1.009   4.969   4.024 -0.4058 -0.7815 -0.9499
 2853ntf    fn415793   0.911   4.985   4.297  0.3463  0.0554  0.1592
 2853ntf    fn415794   0.845   4.803   4.212  0.1135 -0.4133 -0.0844
 2853ntf    fn415795   0.985   4.794   4.364 -0.4566 -0.1159 -0.3223
 2854ntf    cn115796   4.810   3.842   5.964  0.1692  0.3859 -0.2364
 2854ntf    sn215797   4.929   3.950   6.049  0.2467 -0.0892  0.2600
 2854ntf    nn315798   4.897   4.081   5.967  0.7083 -0.5336 -0.6411
 2854ntf    sn215799   4.965   4.138   5.838 -0.1435  0.0379 -0.8426
 2854ntf    cn115800   5.119   4.211   5.899 -0.1342 -0.8633  0.2340
 2854ntf    fn415801   4.683   3.875   5.981  0.1823  0.2713  0.0756
 2854ntf    fn415802   4.824   3.839   5.832  0.1479  0.3159 -0.2372
 2854ntf    fn415803   4.824   3.718   6.005  0.2454  0.4840  0.0329
 2854ntf    on515804   4.881   3.961   6.185 -0.0375 -0.1293  0.1645
 2854ntf    on515805   5.059   3.894   6.026  0.0241 -0.4195 -0.2102
 2854ntf    on515806   4.894   4.253   5.787 -0.1762  0.2466 -0.3297
 2854ntf    on515807   5.001   4.031   5.748  0.4517 -0.6373  0.1778
 2854ntf    fn415808   5.200   4.112   5.935  0.9216 -0.0544  0.1229
 2854ntf    fn415809   5.182   4.288   5.812  0.5240 -0.6155  0.9116
 2854ntf    fn415810   5.103   4.280   6.011  0.4356 -0.2289 -0.0695
 2855ntf    cn115811   1.263   0.463   1.238  0.0198  0.3305 -0.1057
 2855ntf    sn215812   1.403   0.361   1.182 -0.0260  0.2008  0.0151
 2855ntf    nn315813   1.383   0.383   1.028 -0.1564  0.1434  0.0242
 2855ntf    sn215814   1.301   0.308   0.916 -0.3003 -0.0508  0.2581
 2855ntf    cn115815   1.432   0.265   0.798 -0.1545 -0.0275  0.4108
 2855ntf    fn415816   1.272   0.591   1.206  0.0883  0.3367 -0.0593
 2855ntf    fn415817   1.156   0.420   1.172 -0.2341  0.5265  0.1788
 2855ntf    fn415818   1.236   0.455   1.367  0.2933  0.2216 -0.0562
 2855ntf    on515819   1.522   0.431   1.225 -0.1247  0.1576  0.3659
 2855ntf    on515820   1.390   0.227   1.233  0.1824 -0.0777 -0.6630
 2855ntf    on515821   1.227   0.408   0.843  0.3214 -0.1761 -0.5537
 2855ntf    on515822   1.248   0.178   0.948 -0.3628 -0.1857 -0.3830
 2855ntf    fn415823   1.373   0.207   0.695  0.1491 -0.0422  0.2459
 2855ntf    fn415824   1.497   0.374   0.759  0.0632 -0.0204  0.7904
 2855ntf    fn415825   1.508   0.177   0.861 -0.3257 -0.2209  0.3490
 2856ntf    cn115826   3.313   3.911   3.367 -0.2151 -0.2519 -0.2481
 2856ntf    sn215827   3.288   3.944   3.545  0.1301  0.1867 -0.2793
 2856ntf    nn315828   3.166   3.849   3.573  0.4537 -0.3802 -0.7554
 2856ntf    sn215829   3.132   3.776   3.708  0.0745  0.2922 -0.4804
 2856ntf    cn115830   3.165   3.604   3.660 -0.0601  0.1888 -0.1997
 2856ntf    fn415831   3.362   4.015   3.302 -0.0643 -0.0738  0.1465
 2856ntf    fn415832   3.400   3.815   3.342 -0.1469 -0.2784  0.0793
 2856ntf    fn415833   3.200   3.891   3.300  0.0797 -0.3781 -0.7080
 2856ntf    on515834   3.416   3.902   3.595  0.1632  0.6790  0.0541
 2856ntf    on515835   3.265   4.086   3.541  0.9384  0.3115 -0.6873
 2856ntf    on515836   2.993   3.781   3.744  0.3361  0.4065  0.5281
 2856ntf    on515837   3.221   3.789   3.821  0.1085  0.2012 -0.4968
 2856ntf    fn415838   3.139   3.516   3.755 -0.1000 -0.2065 -0.5716
 2856ntf    fn415839   3.097   3.562   3.554 -0.4037 -0.5812  0.3145
 2856ntf    fn415840   3.291   3.588   3.624 -0.2194 -0.1901 -0.6136
 2857ntf    cn115841   5.998   6.301   1.211  0.3142 -0.2737  0.5564
 2857ntf    sn215842   5.818   6.314   1.197  0.3508 -0.2140  0.1334
 2857ntf    nn315843   5.824   6.328   1.041  0.0449 -0.1800  0.1234
 2857ntf    sn215844   5.705   6.316   0.939  0.0707  0.0258  0.0684
 2857ntf    cn115845   5.717   6.139   0.901 -0.0857 -0.0516  0.3771
 2857ntf    fn415846   6.045   6.186   1.165 -0.2930 -0.6183  0.7899
 2857ntf    fn415847   6.068   6.390   1.142  0.0692 -0.3354  0.2267
 2857ntf    fn415848   6.035   6.309   1.338  0.6237 -0.1060  0.4569
 2857ntf    on515849   5.771   6.184   1.240  0.0855 -0.5059 -1.0157
 2857ntf    on515850   5.773   6.432   1.266  0.1048 -0.0498 -0.2997
 2857ntf    on515851   5.742   6.367   0.809  0.2470 -0.1162  0.0616
 2857ntf    on515852   5.571   6.330   0.990  0.0071 -0.0231 -0.0855
 2857ntf    fn415853   5.665   6.065   0.997 -0.0868 -0.4738  0.0546
 2857ntf    fn415854   5.634   6.094   0.808 -0.0349 -0.0082  0.3110
 2857ntf    fn415855   5.837   6.087   0.876 -0.2169 -0.2223  0.0961
 2858ntf    cn115856   1.392   3.429   2.934 -0.2633 -0.2727  0.1880
 2858ntf    sn215857   1.535   3.482   3.032 -0.4318  0.1839  0.1879
 2858ntf    nn315858   1.467   3.495   3.173 -0.5473 -0.0021  0.1493
 2858ntf    sn215859   1.430   3.618   3.263  0.4870  0.2862  0.1929
 2858ntf    cn115860   1.582   3.623   3.362  0.3663 -0.0947  0.3952
 2858ntf    fn415861   1.399   3.455   2.805  0.2175  0.6372  0.3938
 2858ntf    fn415862   1.382   3.297   2.937  0.2857 -0.3105  0.5060
 2858ntf    fn415863   1.279   3.486   2.973 -0.5278 -0.5809 -0.1139
 2858ntf    on515864   1.624   3.368   3.029 -0.1594  0.3896  0.3656
 2858ntf    on515865   1.572   3.610   2.975 -0.5882  0.3271  0.4070
 2858ntf    on515866   1.322   3.580   3.350  0.7298 -0.2131  0.2794
 2858ntf    on515867   1.411   3.749   3.204  0.5331  0.0165 -0.4236
 2858ntf    fn415868   1.684   3.608   3.280 -0.0196 -0.6776  0.0150
 2858ntf    fn415869   1.605   3.735   3.429  0.1339  0.2439 -0.0880
 2858ntf    fn415870   1.588   3.518   3.443  0.7454 -0.0686  0.4029
 2859ntf    cn115871   1.290   3.491   0.991  0.3059  0.3957 -0.1494
 2859ntf    sn215872   1.205   3.561   1.136  0.1948  0.1437 -0.0922
 2859ntf    nn315873   1.322   3.646   1.198 -0.1626  0.3966  0.2445
 2859ntf    sn215874   1.387   3.638   1.341 -0.0535  0.1094  0.1811
 2859ntf    cn115875   1.522   3.517   1.339  0.0473  0.2305 -0.3197
 2859ntf    fn415876   1.408   3.439   1.020 -0.2589 -0.5697  0.4420
 2859ntf    fn415877   1.212   3.399   0.938  0.3692  0.0070  0.4228
 2859ntf    fn415878   1.308   3.594   0.910 -0.0148  0.6158  0.0548
 2859ntf    on515879   1.103   3.646   1.080 -0.0394 -0.0612  0.0221
 2859ntf    on515880   1.161   3.442   1.205  0.2328  0.1713 -0.0202
 2859ntf    on515881   1.301   3.595   1.449  0.1559  0.3990  0.4616
 2859ntf    on515882   1.453   3.764   1.361 -0.0672  0.0747  0.4507
 2859ntf    fn415883   1.468   3.397   1.341  0.3835  0.0791 -0.2515
 2859ntf    fn415884   1.595   3.515   1.228  0.3489  0.2428 -0.1222
 2859ntf    fn415885   1.609   3.521   1.438  0.4479 -0.1866 -0.6485
 2860ntf    cn115886   6.854   5.402   2.389 -0.0427  0.3682  0.0355
 2860ntf    sn215887   6.938   5.336   2.536  0.2324  0.0150 -0.2798
 2860ntf    nn315888   6.933   5.462   2.629  0.3750 -0.0687 -0.1570
 2860ntf    sn215889   7.046   5.567   2.655  0.0931  0.2563 -0.2388
 2860ntf    cn115890   6.945   5.705   2.719  0.1491  0.1229  0.1434
 2860ntf    fn415891   6.723   5.388   2.385 -0.0238  0.1940  0.0271
 2860ntf    fn415892   6.889   5.529   2.375  0.3182  0.2684  0.0011
 2860ntf    fn415893   6.890   5.338   2.279 -0.5857  0.1618 -0.0243
 2860ntf    on515894   6.845   5.236   2.581 -0.2104  0.0063 -1.1781
 2860ntf    on515895   7.068   5.294   2.487  0.1735 -0.0069 -0.4173
 2860ntf    on515896   7.105   5.626   2.538  0.3617  0.3434 -0.0616
 2860ntf    on515897   7.130   5.538   2.769 -0.7429 -0.2552  0.2549
 2860ntf    fn415898   6.870   5.660   2.817  0.4663 -0.0163  0.3260
 2860ntf    fn415899   7.016   5.807   2.764  0.7260 -0.1658 -0.0929
 2860ntf    fn415900   6.863   5.760   2.631 -0.5237 -0.2944  0.5094
 2861ntf    cn115901   0.010   3.908   1.402  0.0425 -0.2866 -0.2440
 2861ntf    sn215902   0.113   3.933   1.551 -0.1772 -0.1891 -0.1083
 2861ntf    nn315903   0.248   3.997   1.501 -0.0852 -0.4963 -0.2543
 2861ntf    sn215904   0.381   3.923   1.463  0.0820 -0.1480 -0.3462
 2861ntf    cn115905   0.387   4.001   1.299  0.5941  0.0372 -0.2400
 2861ntf    fn415906   0.080   3.847   1.307  0.3668  0.2956 -0.3826
 2861ntf    fn415907  -0.099   3.837   1.426  0.2545 -0.3592  0.5508
 2861ntf    fn415908  -0.035   4.020   1.348  0.3610 -0.2142 -0.3646
 2861ntf    on515909   0.037   4.029   1.627  0.0079 -0.0251 -0.1292
 2861ntf    on515910   0.122   3.800   1.606  0.7861 -0.2854 -0.4823
 2861ntf    on515911   0.376   3.780   1.444 -1.1623 -0.1325 -0.2026
 2861ntf    on515912   0.501   3.975   1.524  0.0812 -0.4625 -0.0701
 2861ntf    fn415913   0.500   3.967   1.238  0.9280 -0.1333  0.4636
 2861ntf    fn415914   0.293   3.978   1.209 -0.3961  0.2153  0.7346
 2861ntf    fn415915   0.394   4.132   1.317  0.1580  0.0586 -0.2201
 2862ntf    cn115916   0.165   6.550   0.717  0.2598  0.1400  0.6490
 2862ntf    sn215917  -0.006   6.507   0.762  0.2823 -0.4222  0.1971
 2862ntf    nn315918   0.001   6.366   0.694 -0.0693 -0.2024 -0.2960
 2862ntf    sn215919  -0.105   6.294   0.602 -0.3095 -0.3546  0.0982
 2862ntf    cn115920  -0.062   6.359   0.438 -0.2338  0.0989  0.2951
 2862ntf    fn415921   0.175   6.575   0.588  0.1959 -0.1114  0.5948
 2862ntf    fn415922   0.214   6.662   0.770  0.4261  0.3751  0.0023
 2862ntf    fn415923   0.260   6.463   0.747  0.3790  0.2623  0.6326
 2862ntf    on515924   0.008   6.502   0.905  0.2581  0.1620  0.2217
 2862ntf    on515925  -0.091   6.612   0.713 -0.3812 -0.8956  0.3300
 2862ntf    on515926  -0.241   6.338   0.617 -0.1494  0.3027 -0.3450
 2862ntf    on515927  -0.080   6.153   0.582  0.2123 -0.2563  0.0242
 2862ntf    fn415928  -0.140   6.455   0.391 -0.6900 -0.3300  0.1675
 2862ntf    fn415929   0.054   6.420   0.450  0.2746 -0.8083  0.0518
 2862ntf    fn415930  -0.047   6.261   0.350 -0.0591 -0.4188  0.8987
 2863ntf    cn115931   3.318   4.774   3.673  0.1021  0.2229 -0.2417
 2863ntf    sn215932   3.231   4.616   3.695 -0.0004  0.2288 -0.5908
 2863ntf    nn315933   3.200   4.585   3.544  0.4781 -0.5446 -0.5305
 2863ntf    sn215934   3.101   4.650   3.442  0.2920  0.0523  0.0212
 2863ntf    cn115935   2.982   4.515   3.414  0.2504  0.1068 -0.0680
 2863ntf    fn415936   3.364   4.814   3.790  0.1459  0.3049 -0.2870
 2863ntf    fn415937   3.427   4.769   3.598  0.5786  0.3660  0.4322
 2863ntf    fn415938   3.242   4.870   3.622  0.0221  0.2939  0.0133
 2863ntf    on515939   3.333   4.529   3.747 -0.8596 -0.5102 -0.1187
 2863ntf    on515940   3.118   4.641   3.782  0.5338  0.2641  0.1046
 2863ntf    on515941   3.169   4.668   3.316 -0.3466  0.3799 -0.2846
 2863ntf    on515942   3.022   4.758   3.495  0.2265 -0.1469  0.3308
 2863ntf    fn415943   2.903   4.526   3.308 -0.5360  0.3715  0.5388
 2863ntf    fn415944   3.039   4.401   3.380  0.6148  0.2657  0.0092
 2863ntf    fn415945   2.911   4.487   3.522 -0.2014  1.0893 -0.0942
 2864ntf    cn115946   6.622   1.075   0.324 -0.5446  0.6549 -0.0970
 2864ntf    sn215947   6.799   1.110   0.345 -0.3338 -0.2012 -0.4214
 2864ntf    nn315948   6.824   1.187   0.210  0.2393  0.1790 -0.1024
 2864ntf    sn215949   6.896   1.123   0.085 -0.3902 -0.4359 -0.1565
 2864ntf    cn115950   6.789   1.194  -0.044 -0.1302 -0.0919 -0.1845
 2864ntf    fn415951   6.575   1.026   0.438  0.3063  0.4015  0.1531
 2864ntf    fn415952   6.548   1.182   0.299 -0.7064  0.6468  0.3352
 2864ntf    fn415953   6.598   0.999   0.219 -0.1852  0.3711  0.0259
 2864ntf    on515954   6.795   1.198   0.458 -0.6329  0.0280 -0.6084
 2864ntf    on515955   6.869   0.986   0.366 -0.2771  0.0470  0.9021
 2864ntf    on515956   6.889   0.980   0.071 -0.3471 -0.4587  0.0445
 2864ntf    on515957   7.017   1.192   0.048 -0.3219 -0.6911 -0.4061
 2864ntf    fn415958   6.669   1.137  -0.040 -0.0578 -0.2262  0.1488
 2864ntf    fn415959   6.790   1.325  -0.028  0.3840 -0.1011 -0.1477
 2864ntf    fn415960   6.827   1.178  -0.169  0.2443 -0.4396 -0.0287
 2865ntf    cn115961   3.863   2.787   5.903  0.5826  0.1275  0.0484
 2865ntf    sn215962   3.902   2.901   6.039 -0.0968  0.2821  0.1150
 2865ntf    nn315963   3.880   2.798   6.156 -0.2560  0.1441 -0.0348
 2865ntf    sn215964   3.775   2.798   6.272 -0.1903 -0.2560  0.0243
 2865ntf    cn115965   3.867   2.732   6.415 -0.0767 -0.2213 -0.0330
 2865ntf    fn415966   3.958   2.696   5.884 -0.1785 -0.6955  0.1368
 2865ntf    fn415967   3.753   2.717   5.923  0.8738 -0.3098  0.1257
 2865ntf    fn415968   3.846   2.849   5.787 -0.1883 -0.1221  0.0258
 2865ntf    on515969   4.042   2.922   6.010 -0.1721  0.8797  0.1776
 2865ntf    on515970   3.815   3.016   6.034 -0.1019  0.2914  0.4114
 2865ntf    on515971   3.675   2.694   6.263 -0.2189 -0.2037 -0.2682
 2865ntf    on515972   3.733   2.926   6.323 -0.0081  0.0088 -0.4936
 2865ntf    fn415973   3.897   2.604   6.408  0.1143 -0.1922  0.2763
 2865ntf    fn415974   3.985   2.789   6.428 -0.3002  0.2864 -0.1906
 2865ntf    fn415975   3.812   2.749   6.534 -0.1485  0.3746 -0.1435
 2866ntf    cn115976   5.504   6.334   4.801 -0.0237 -0.0400 -0.7775
 2866ntf    sn215977   5.407   6.261   4.937  0.0533  0.3154 -0.5287
 2866ntf    nn315978   5.511   6.166   5.006 -0.1969 -0.2545 -0.9280
 2866ntf    sn215979   5.482   6.032   5.082  0.0683  0.0343 -0.3189
 2866ntf    cn115980   5.462   6.080   5.257  0.3941 -0.5920 -0.1052
 2866ntf    fn415981   5.428   6.420   4.735 -1.0312 -0.0843  0.2849
 2866ntf    fn415982   5.618   6.393   4.833 -0.5765  0.5386  0.1855
 2866ntf    fn415983   5.537   6.237   4.718  0.3827 -0.0867 -0.5659
 2866ntf    on515984   5.379   6.374   5.022  0.6103  0.3967 -0.4485
 2866ntf    on515985   5.291   6.207   4.870 -0.0925 -0.3663  0.2580
 2866ntf    on515986   5.597   5.947   5.105  0.3687  0.2684 -0.9425
 2866ntf    on515987   5.359   5.965   5.047 -0.0373  0.2633 -0.3841
 2866ntf    fn415988   5.558   6.154   5.310  0.3895 -0.5520 -0.1516
 2866ntf    fn415989   5.349   6.146   5.275  0.3192 -0.6513 -0.3530
 2866ntf    fn415990   5.457   5.975   5.338 -0.1745 -0.2960  0.2434
 2867ntf    cn115991   4.771   5.845   3.878 -0.0717  0.0783 -0.1185
 2867ntf    sn215992   4.728   5.999   3.963 -0.3936 -0.1174  0.0751
 2867ntf    nn315993   4.766   6.097   3.847 -0.7421 -0.0477  0.0195
 2867ntf    sn215994   4.690   6.225   3.795  0.0949  0.3368 -0.2683
 2867ntf    cn115995   4.827   6.331   3.738  0.1216  0.3264 -0.2249
 2867ntf    fn415996   4.890   5.861   3.822 -0.1403  0.0071 -0.2834
 2867ntf    fn415997   4.774   5.732   3.947  0.5672  0.1969  0.0582
 2867ntf    fn415998   4.690   5.831   3.775  0.0815  0.2076 -0.2560
 2867ntf    on515999   4.587   5.987   3.990 -0.5531  0.0639 -0.6536
 2867ntf    on516000   4.818   6.008   4.075 -0.2205 -0.5234 -0.0322
 2867ntf    on516001   4.629   6.304   3.899  0.3622 -0.5723  0.5950
 2867ntf    on516002   4.614   6.193   3.677 -0.2689 -0.1802  0.1009
 2867ntf    fn416003   4.787   6.442   3.678 -0.4419  0.3416  0.1729
 2867ntf    fn416004   4.894   6.375   3.843  0.6813  0.0033 -0.4421
 2867ntf    fn416005   4.913   6.269   3.659  0.2689  0.0386  0.1564
 2868ntf    cn116006   0.332   2.990   6.221 -0.0666  0.1522  0.3002
 2868ntf    sn216007   0.295   3.118   6.345 -0.3935  0.1470  0.2102
 2868ntf    nn316008   0.363   3.056   6.473 -0.0513  0.0338 -0.0239
 2868ntf    sn216009   0.316   2.941   6.568  0.0484 -0.3032 -0.3793
 2868ntf    cn116010   0.243   3.056   6.688  0.0692 -0.6892  0.0072
 2868ntf    fn416011   0.459   2.956   6.211 -0.1070  0.1127 -0.0784
 2868ntf    fn416012   0.276   2.880   6.269  0.2167  0.1890  0.7169
 2868ntf    fn416013   0.288   3.017   6.100  0.5860  0.2805  0.0879
 2868ntf    on516014   0.362   3.233   6.288  0.1193  0.0044  0.5139
 2868ntf    on516015   0.152   3.114   6.355 -0.4068 -0.2681 -0.1124
 2868ntf    on516016   0.437   2.887   6.625 -0.2296 -0.0778  0.4379
 2868ntf    on516017   0.209   2.853   6.526 -0.0217 -0.0472 -0.7374
 2868ntf    fn416018   0.124   3.098   6.648  0.0161 -0.4661  0.3878
 2868ntf    fn416019   0.229   3.007   6.810  0.2955  0.1482  0.3801
 2868ntf    fn416020   0.303   3.173   6.706 -0.1243 -0.6405  0.3465
 2869ntf    cn116021   5.166   4.158   5.174 -0.3725  0.0113  0.0777
 2869ntf    sn216022   5.152   3.977   5.173  0.1151 -0.0285 -0.0047
 2869ntf    nn316023   5.049   3.970   5.055  0.0815 -0.5828  0.0543
 2869ntf    sn216024   5.073   3.985   4.900 -0.1604  0.0466  0.0744
 2869ntf    cn116025   5.063   3.811   4.849 -0.0688  0.1121 -0.1644
 2869ntf    fn416026   5.051   4.222   5.176 -0.1918  0.3332  0.2798
 2869ntf    fn416027   5.224   4.202   5.285  0.2386  0.0322 -0.2453
 2869ntf    fn416028   5.241   4.211   5.079 -0.1063 -0.1665  0.1848
 2869ntf    on516029   5.284   3.928   5.142  0.1137  0.2062 -0.3796
 2869ntf    on516030   5.094   3.951   5.303  0.0636  0.3623  0.0505
 2869ntf    on516031   5.205   4.024   4.859  0.1307  0.0477  0.9848
 2869ntf    on516032   4.963   4.049   4.832 -0.1926 -0.2301 -0.1354
 2869ntf    fn416033   5.125   3.733   4.935  0.0543  0.1399 -0.2283
 2869ntf    fn416034   4.939   3.765   4.842  0.1144 -0.4629  0.2951
 2869ntf    fn416035   5.122   3.787   4.733  0.0125 -0.2068 -0.0590
 2870ntf    cn116036   2.268   2.048   1.461  0.2583 -0.1776 -0.3686
 2870ntf    sn216037   2.377   1.924   1.536  0.1777  0.0835  0.1822
 2870ntf    nn316038   2.381   1.983   1.682 -0.3747  0.6081 -0.0091
 2870ntf    sn216039   2.314   1.948   1.820  0.2989 -0.2066  0.1207
 2870ntf    cn116040   2.225   2.104   1.849  0.1359 -0.3046  0.1523
 2870ntf    fn416041   2.311   2.170   1.487  0.0394 -0.1569 -0.0988
 2870ntf    fn416042   2.274   2.045   1.329  0.5003  0.0526 -0.3622
 2870ntf    fn416043   2.141   2.034   1.495  0.4783  0.1915  0.6346
 2870ntf    on516044   2.313   1.797   1.514 -0.2334  0.3616 -0.2305
 2870ntf    on516045   2.506   1.945   1.475 -0.2254 -0.0968 -0.7400
 2870ntf    on516046   2.400   1.942   1.935 -0.2542 -0.1757  0.5420
 2870ntf    on516047   2.216   1.841   1.815  0.1545 -0.0721  0.0659
 2870ntf    fn416048   2.294   2.198   1.786 -0.3013 -0.4064 -0.4900
 2870ntf    fn416049   2.103   2.107   1.798  0.0684  0.4679  0.3523
 2870ntf    fn416050   2.207   2.143   1.974  0.0654 -0.1829  0.1047
 2871ntf    cn116051   1.971   3.402   4.918 -0.2824 -0.5231 -0.5045
 2871ntf    sn216052   2.028   3.567   4.968 -0.8174 -0.4610 -0.0874
 2871ntf    nn316053   2.134   3.597   4.856 -0.4077  0.3013  0.5008
 2871ntf    sn216054   2.173   3.736   4.793 -0.4434 -0.0781 -0.3566
 2871ntf    cn116055   2.331   3.764   4.877 -0.5699  0.6073 -0.3405
 2871ntf    fn416056   1.938   3.410   4.790  0.1695 -0.0112 -0.5905
 2871ntf    fn416057   2.068   3.313   4.932 -0.5168 -0.5939  0.8907
 2871ntf    fn416058   1.874   3.340   4.984 -0.0561 -0.0473  0.2850
 2871ntf    on516059   1.903   3.638   4.956 -0.4387  0.2145 -0.0968
 2871ntf    on516060   2.082   3.539   5.099  0.3867  0.7436 -0.3120
 2871ntf    on516061   2.105   3.859   4.826  0.0891  0.1300 -0.0335
 2871ntf    on516062   2.218   3.712   4.658  0.6046 -0.9232  0.1280
 2871ntf    fn416063   2.407   3.851   4.814  0.3268 -0.1673 -0.3595
 2871ntf    fn416064   2.314   3.800   5.003  0.3662 -0.0587 -0.0114
 2871ntf    fn416065   2.405   3.655   4.869 -0.4883  0.6478 -0.1524
 2872ntf    cn116066   5.588   6.464   4.432 -0.0455 -0.1014  0.4537
 2872ntf    sn216067   5.489   6.573   4.326 -0.1475 -0.3083  0.3349
 2872ntf    nn316068   5.565   6.709   4.345 -0.0150 -0.2792 -0.3639
 2872ntf    sn216069   5.614   6.825   4.252  0.0219 -0.0869 -0.1051
 2872ntf    cn116070   5.468   6.932   4.272  0.0133 -0.1771  0.3346
 2872ntf    fn416071   5.524   6.348   4.436 -0.4435  0.1041  0.1868
 2872ntf    fn416072   5.708   6.433   4.387  0.0571  0.6224  0.2102
 2872ntf    fn416073   5.604   6.500   4.558  0.8517  0.4916  0.1806
 2872ntf    on516074   5.504   6.514   4.196 -0.0717  0.0335  0.1864
 2872ntf    on516075   5.364   6.560   4.397 -0.2737  0.3212  0.2344
 2872ntf    on516076   5.620   6.790   4.113 -0.0260 -0.0733 -0.1109
 2872ntf    on516077   5.719   6.906   4.308  0.3677 -0.2793 -0.4720
 2872ntf    fn416078   5.460   6.984   4.393 -0.7135  0.0506  0.1948
 2872ntf    fn416079   5.475   7.026   4.179  0.5389  0.2448  0.7926
 2872ntf    fn416080   5.356   6.863   4.255 -0.3070  0.4002  0.0501
 2873ntf    cn116081   3.778   6.903   0.572 -0.2776 -0.2951  0.2026
 2873ntf    sn216082   3.953   6.945   0.596 -0.3361 -0.0724  0.2412
 2873ntf    nn316083   3.946   7.101   0.612  0.3146 -0.0379  0.2140
 2873ntf    sn216084   3.921   7.204   0.496 -0.3158 -0.3363  0.0790
 2873ntf    cn116085   4.090   7.259   0.459 -0.3626 -0.0660  0.2597
 2873ntf    fn416086   3.756   6.773   0.582  0.0069 -0.3978 -0.4981
 2873ntf    fn416087   3.696   6.957   0.662  0.0013  0.0795  0.2341
 2873ntf    fn416088   3.726   6.942   0.457 -0.1577 -0.1660  0.1929
 2873ntf    on516089   3.989   6.877   0.717 -0.4825 -0.5288  0.0323
 2873ntf    on516090   4.030   6.898   0.483  0.0240  0.3017  0.3281
 2873ntf    on516091   3.863   7.326   0.548  0.2339 -0.2428  0.4767
 2873ntf    on516092   3.870   7.162   0.368 -0.6487 -0.2397  0.1785
 2873ntf    fn416093   4.103   7.353   0.366 -0.0662 -0.7131 -0.3627
 2873ntf    fn416094   4.164   7.294   0.563  0.3459  0.1533 -0.3088
 2873ntf    fn416095   4.151   7.160   0.396 -0.9128 -0.1435 -0.1582
 2874ntf    cn116096   2.846   2.589   6.208 -0.1001  0.0793 -0.2942
 2874ntf    sn216097   3.005   2.541   6.134  0.1400  0.1493  0.1742
 2874ntf    nn316098   2.953   2.421   6.048  0.7695  0.1544 -0.2204
 2874ntf    sn216099   2.978   2.271   6.086  0.0843  0.0737 -0.0625
 2874ntf    cn116100   2.803   2.223   6.097  0.2638 -0.5583  0.1001
 2874ntf    fn416101   2.843   2.695   6.288  0.1094 -0.0374 -0.1295
 2874ntf    fn416102   2.750   2.611   6.120  0.2396  0.1554 -0.6469
 2874ntf    fn416103   2.788   2.495   6.281  0.2878  0.4802  0.5536
 2874ntf    on516104   3.037   2.647   6.041 -0.0009 -0.3553 -0.4487
 2874ntf    on516105   3.102   2.512   6.237  0.2286 -0.7658 -0.1568
 2874ntf    on516106   3.025   2.242   6.219  0.1275 -0.8418 -0.2653
 2874ntf    on516107   3.032   2.195   5.975 -0.2243 -0.3243  0.0587
 2874ntf    fn416108   2.779   2.098   6.131 -0.1656 -0.4619  0.1511
 2874ntf    fn416109   2.751   2.298   6.193  0.4368 -0.5326  0.1732
 2874ntf    fn416110   2.734   2.255   5.989  0.5598  0.9279  0.3307
 2875ntf    cn116111   5.583   4.408   5.971  0.0964 -0.3847  0.0168
 2875ntf    sn216112   5.623   4.565   5.888  0.1137 -0.3949  0.0051
 2875ntf    nn316113   5.480   4.610   5.841  0.0200 -0.5563  0.1330
 2875ntf    sn216114   5.431   4.758   5.827  0.1820 -0.4861  0.2982
 2875ntf    cn116115   5.324   4.775   5.973 -0.0494  0.2870  0.0426
 2875ntf    fn416116   5.494   4.432   6.065  0.2944  0.1644  0.0701
 2875ntf    fn416117   5.521   4.328   5.886  0.3470 -0.1533 -0.3868
 2875ntf    fn416118   5.692   4.355   6.024  0.1895 -0.3822 -0.1720
 2875ntf    on516119   5.677   4.642   5.998  0.1935  0.3606 -0.5569
 2875ntf    on516120   5.711   4.527   5.780  0.4894  0.2754  0.0707
 2875ntf    on516121   5.334   4.780   5.723  0.2581 -0.6586  0.1897
 2875ntf    on516122   5.531   4.860   5.848  0.2123 -0.5576  0.5038
 2875ntf    fn416123   5.384   4.736   6.084 -0.3629 -0.7239 -0.1326
 2875ntf    fn416124   5.290   4.901   5.994  0.0822  0.2543  0.4580
 2875ntf    fn416125   5.219   4.694   5.976  0.2325 -0.0827  0.0418
 2876ntf    cn116126   3.673   3.376   0.287  0.3140 -0.2282  0.3214
 2876ntf    sn216127   3.541   3.350   0.409 -0.1659 -0.1052 -0.1733
 2876ntf    nn316128   3.567   3.469   0.508 -0.0509 -0.0228 -0.3008
 2876ntf    sn216129   3.464   3.567   0.575  0.2033  0.2266 -0.2764
 2876ntf    cn116130   3.377   3.452   0.685  0.4562  0.2749 -0.0226
 2876ntf    fn416131   3.797   3.377   0.335  0.6275  0.2871 -0.4793
 2876ntf    fn416132   3.667   3.281   0.195  0.9266 -0.0193  0.0590
 2876ntf    fn416133   3.666   3.486   0.215 -0.1873 -0.5726 -0.1572
 2876ntf    on516134   3.418   3.371   0.335 -0.4972 -0.6475  0.2127
 2876ntf    on516135   3.573   3.219   0.460 -0.5295 -0.4529 -0.8215
 2876ntf    on516136   3.358   3.625   0.496  0.4684  0.2852 -0.5905
 2876ntf    on516137   3.525   3.655   0.672 -0.8637  0.3831  0.2637
 2876ntf    fn416138   3.462   3.383   0.758  0.1075  0.1693  0.2891
 2876ntf    fn416139   3.283   3.507   0.761  0.3008  0.0332 -0.0375
 2876ntf    fn416140   3.307   3.359   0.621 -0.3626  0.6912  0.2466
 2877ntf    cn116141   2.648   3.607   1.990 -0.4635 -0.3034 -0.1841
 2877ntf    sn216142   2.758   3.714   1.892 -0.5302 -0.1823 -0.1264
 2877ntf    nn316143   2.829   3.612   1.796  0.2314  0.2958 -0.0765
 2877ntf    sn216144   2.793   3.575   1.648 -0.1232 -0.1067  0.1108
 2877ntf    cn116145   2.907   3.436   1.618  0.4064  0.3476  0.0163
 2877ntf    fn416146   2.585   3.674   2.084 -0.3042  0.1745 -0.4160
 2877ntf    fn416147   2.556   3.557   1.909 -0.4092 -0.1116 -0.3648
 2877ntf    fn416148   2.720   3.512   2.048 -0.3348  0.0577  0.2484
 2877ntf    on516149   2.675   3.815   1.831 -0.3747 -0.1580 -0.2989
 2877ntf    on516150   2.855   3.770   1.982 -0.6810  0.1785 -0.1845
 2877ntf    on516151   2.831   3.673   1.550  0.3000 -0.6542 -0.2828
 2877ntf    on516152   2.660   3.518   1.638  0.2171 -0.8709 -0.1285
 2877ntf    fn416153   2.901   3.402   1.491 -0.1767 -0.0471  0.1470
 2877ntf    fn416154   3.034   3.469   1.635  0.4714 -0.0384  0.2961
 2877ntf    fn416155   2.881   3.333   1.697 -0.1210 -0.0611 -0.6787
 2878ntf    cn116156   0.678   5.602   2.815 -0.0043 -0.4516  0.0014
 2878ntf    sn216157   0.750   5.705   2.684  0.2842 -0.3735  0.2193
 2878ntf    nn316158   0.725   5.850   2.738 -0.0051 -0.1235 -0.5593
 2878ntf    sn216159   0.810   5.977   2.703  0.2709 -0.0884  0.2134
 2878ntf    cn116160   0.868   6.009   2.873  0.2219 -0.1442  0.2406
 2878ntf    fn416161   0.734   5.613   2.935 -0.1420 -0.5315  0.0734
 2878ntf    fn416162   0.547   5.616   2.815 -0.0122 -0.5149  0.2660
 2878ntf    fn416163   0.699   5.477   2.777 -0.1494 -0.3768 -0.3216
 2878ntf    on516164   0.888   5.662   2.687  0.3319 -0.2487 -0.1346
 2878ntf    on516165   0.671   5.674   2.567  0.2394 -0.0771  0.1700
 2878ntf    on516166   0.730   6.094   2.675  0.9347  0.2931 -0.1094
 2878ntf    on516167   0.934   5.961   2.631  0.2148  1.0316 -0.1652
 2878ntf    fn416168   0.940   6.120   2.880 -0.0232  0.0103  0.3099
 2878ntf    fn416169   0.767   6.015   2.958 -0.1559 -0.0913 -0.2025
 2878ntf    fn416170   0.952   5.914   2.911  0.6536  0.1906  0.1322
 2879ntf    cn116171   0.544   6.780   2.798  0.2540 -0.1288  0.4908
 2879ntf    sn216172   0.699   6.705   2.855  0.5198  0.1377  0.1202
 2879ntf    nn316173   0.750   6.817   2.952 -0.2336  0.1201  0.5349
 2879ntf    sn216174   0.832   6.942   2.907  0.1758 -0.2990  0.1212
 2879ntf    cn116175   1.007   6.896   2.923  0.4903  0.7806 -0.0841
 2879ntf    fn416176   0.456   6.791   2.897 -0.5144  0.5322 -0.2505
 2879ntf    fn416177   0.556   6.904   2.752 -0.2122 -0.2872 -0.0649
 2879ntf    fn416178   0.477   6.699   2.718  0.1443  0.3323  0.1126
 2879ntf    on516179   0.654   6.586   2.922 -0.2119  0.0126 -0.5755
 2879ntf    on516180   0.771   6.677   2.733  0.2799 -0.5388  0.1287
 2879ntf    on516181   0.825   7.051   3.001 -0.3043 -0.0899 -0.1525
 2879ntf    on516182   0.827   6.976   2.766 -0.1299  0.7692  0.3801
 2879ntf    fn416183   1.020   6.790   2.845  0.1873  0.2099  0.6337
 2879ntf    fn416184   1.092   6.983   2.871  0.6290  0.2515 -0.7621
 2879ntf    fn416185   1.052   6.879   3.046 -0.1539  0.0567  0.0587
 2880ntf    cn116186   2.086   6.201   3.393 -0.0363 -0.5507 -0.0924
 2880ntf    sn216187   2.086   6.251   3.568  0.0864 -0.1594 -0.2034
 2880ntf    nn316188   2.049   6.403   3.559  0.2098 -0.1750 -1.1115
 2880ntf    sn216189   1.901   6.453   3.553  0.2052 -0.0597 -0.2752
 2880ntf    cn116190   1.904   6.627   3.605  0.1904 -0.1063 -0.1202
 2880ntf    fn416191   1.968   6.214   3.334  0.1082  0.6949 -0.1310
 2880ntf    fn416192   2.175   6.258   3.314 -0.3124 -0.1439 -0.1123
 2880ntf    fn416193   2.096   6.069   3.392 -0.4952 -0.5863 -0.5691
 2880ntf    on516194   1.993   6.158   3.627  0.1025 -0.2184 -0.2700
 2880ntf    on516195   2.226   6.232   3.597 -0.0115 -0.3365  0.1584
 2880ntf    on516196   1.810   6.404   3.654  0.5511 -0.4124 -0.1347
 2880ntf    on516197   1.851   6.458   3.417  0.3602 -0.4330 -0.3472
 2880ntf    fn416198   2.002   6.697   3.550 -0.0916  0.7700  0.4702
 2880ntf    fn416199   1.798   6.698   3.568  0.3675 -0.0428 -0.4996
 2880ntf    fn416200   1.919   6.649   3.735 -0.4231  0.3164 -0.1154
 2881ntf    cn116201   3.680   1.733   1.880  0.1718 -0.2967  0.0509
 2881ntf    sn216202   3.812   1.805   1.779 -0.0152 -0.1574 -0.0950
 2881ntf    nn316203   3.922   1.787   1.889 -0.1642  0.2120  0.1176
 2881ntf    sn216204   3.976   1.897   1.987  0.1559  0.0208  0.1589
 2881ntf    cn116205   4.152   1.885   1.944  0.0385 -0.6357 -0.1442
 2881ntf    fn416206   3.571   1.710   1.808  0.0695  0.2339  0.0374
 2881ntf    fn416207   3.717   1.612   1.920  0.2514 -0.2314  0.1719
 2881ntf    fn416208   3.646   1.809   1.982  0.1701 -0.1345 -0.0708
 2881ntf    on516209   3.830   1.707   1.675  0.2585  0.5000 -0.6807
 2881ntf    on516210   3.763   1.936   1.743 -0.1555 -0.2160 -0.1193
 2881ntf    on516211   3.973   1.845   2.121  0.3432 -0.1665  0.0904
 2881ntf    on516212   3.950   2.038   1.966  0.8327  0.1358  0.0776
 2881ntf    fn416213   4.227   1.968   2.014 -0.0334 -0.2603 -0.5130
 2881ntf    fn416214   4.192   1.762   1.972 -0.1992 -0.7300 -0.2155
 2881ntf    fn416215   4.180   1.911   1.818 -0.3092  0.5669  0.0170
 2882ntf    cn116216   4.358   5.711   1.252  0.1607 -0.1840  0.4106
 2882ntf    sn216217   4.193   5.657   1.304 -0.0170 -0.0626 -0.0223
 2882ntf    nn316218   4.164   5.557   1.187  0.2575  0.1381 -0.2621
 2882ntf    sn216219   4.034   5.470   1.174  0.0972  0.2370  0.6380
 2882ntf    cn116220   4.092   5.298   1.177  0.0737  0.2181  0.0999
 2882ntf    fn416221   4.370   5.698   1.121  0.1281  0.0119  0.3883
 2882ntf    fn416222   4.397   5.832   1.289  0.4112 -0.2882  0.4913
 2882ntf    fn416223   4.455   5.629   1.291 -0.0257 -0.5370  0.1400
 2882ntf    on516224   4.218   5.593   1.431 -0.0300  0.6154  0.3292
 2882ntf    on516225   4.112   5.777   1.303 -0.4545 -0.3603 -0.4538
 2882ntf    on516226   3.964   5.474   1.048  0.0945 -0.5062  0.6095
 2882ntf    on516227   3.948   5.467   1.290 -0.3310  0.8166  0.3442
 2882ntf    fn416228   4.145   5.276   1.058 -0.0127 -0.2424  0.1428
 2882ntf    fn416229   4.189   5.283   1.266  0.6645  0.1750 -0.5483
 2882ntf    fn416230   3.994   5.209   1.188  0.3481 -0.1094 -0.0575
 2883ntf    cn116231   4.135   2.678   0.687 -0.2046 -0.0438 -0.0947
 2883ntf    sn216232   4.289   2.772   0.667 -0.2134 -0.0725 -0.2956
 2883ntf    nn316233   4.388   2.690   0.756 -1.2105 -0.3532  0.5760
 2883ntf    sn216234   4.453   2.731   0.893 -0.0303  0.2561 -0.1493
 2883ntf    cn116235   4.354   2.628   1.006  0.0090  0.2822 -0.0904
 2883ntf    fn416236   4.032   2.729   0.620 -0.1708 -0.3653 -0.3920
 2883ntf    fn416237   4.141   2.550   0.653 -0.2867 -0.0166 -0.2133
 2883ntf    fn416238   4.098   2.676   0.814 -0.0745 -0.1038 -0.0583
 2883ntf    on516239   4.318   2.762   0.526  0.3818  0.5634 -0.2228
 2883ntf    on516240   4.256   2.905   0.713  0.5311 -0.0990  0.3233
 2883ntf    on516241   4.433   2.870   0.923  0.3143  0.2333  0.1950
 2883ntf    on516242   4.586   2.675   0.901 -0.0750  0.1968  0.1740
 2883ntf    fn416243   4.368   2.654   1.135 -0.2264 -0.1349  0.0205
 2883ntf    fn416244   4.224   2.628   0.981 -0.0171 -0.7347 -0.0138
 2883ntf    fn416245   4.390   2.501   1.003 -0.2243  0.2160 -0.0517
 2884ntf    cn116246   1.386   0.620   4.348 -0.5187  0.1315  0.0352
 2884ntf    sn216247   1.208   0.652   4.364 -0.4300  0.6390  0.0382
 2884ntf    nn316248   1.163   0.517   4.298 -0.5676  0.4794  0.4557
 2884ntf    sn216249   1.053   0.494   4.189 -0.1983  0.0319  0.1716
 2884ntf    cn116250   1.163   0.479   4.045 -0.5028  0.2396 -0.0849
 2884ntf    fn416251   1.441   0.708   4.431 -0.3802  0.1323 -0.0582
 2884ntf    fn416252   1.435   0.500   4.375  0.2797  0.3950 -0.2122
 2884ntf    fn416253   1.431   0.655   4.229 -0.5395  0.1897  0.0440
 2884ntf    on516254   1.190   0.658   4.507 -0.0472  0.8291  0.0794
 2884ntf    on516255   1.194   0.769   4.281 -0.4700  0.6350  0.0396
 2884ntf    on516256   0.959   0.598   4.155  0.3837  0.3696 -0.4162
 2884ntf    on516257   0.996   0.361   4.197 -0.4452  0.1419  0.2475
 2884ntf    fn416258   1.100   0.442   3.935  0.1459  0.0631 -0.4028
 2884ntf    fn416259   1.232   0.589   4.022  0.6033 -0.4168  0.0079
 2884ntf    fn416260   1.255   0.387   4.070 -1.0815 -0.2959  0.1042
 2885ntf    cn116261   5.454   2.028   1.540  0.0307 -0.0010 -0.2927
 2885ntf    sn216262   5.468   1.874   1.635 -0.0708  0.1978  0.0454
 2885ntf    nn316263   5.539   1.779   1.532  0.2013  0.5260 -0.0739
 2885ntf    sn216264   5.616   1.646   1.567 -0.1813  0.2883 -0.1284
 2885ntf    cn116265   5.791   1.694   1.552  0.0069 -0.3571 -0.0026
 2885ntf    fn416266   5.379   2.118   1.602 -0.1451 -0.1094 -0.3466
 2885ntf    fn416267   5.567   2.085   1.501  0.0785  0.2709  0.2430
 2885ntf    fn416268   5.376   2.007   1.434  0.0409  0.0198 -0.3042
 2885ntf    on516269   5.554   1.913   1.744  0.1432  0.3773 -0.1854
 2885ntf    on516270   5.334   1.833   1.670  0.0633 -0.1856  0.1155
 2885ntf    on516271   5.599   1.538   1.473  0.8922 -0.1223  0.1343
 2885ntf    on516272   5.606   1.597   1.702 -0.0723 -0.5001 -0.4021
 2885ntf    fn416273   5.808   1.810   1.612 -0.4625 -0.1514 -0.2617
 2885ntf    fn416274   5.877   1.610   1.607 -0.0003  0.0332  0.6119
 2885ntf    fn416275   5.836   1.707   1.428  0.1656 -0.1681  0.0744
 2886ntf    cn116276   2.658   5.708   3.098  0.4769 -0.4157 -0.0236
 2886ntf    sn216277   2.795   5.756   3.209  0.2506 -0.2723  0.1952
 2886ntf    nn316278   2.880   5.624   3.197  0.0180 -0.3805 -0.3022
 2886ntf    sn216279   2.913   5.518   3.307  0.1202 -0.2662 -0.2209
 2886ntf    cn116280   3.051   5.596   3.395 -0.1511 -0.1759  0.1253
 2886ntf    fn416281   2.621   5.585   3.128  0.4560 -0.5779 -0.7034
 2886ntf    fn416282   2.557   5.793   3.096  0.1483 -0.8119 -0.2477
 2886ntf    fn416283   2.697   5.684   2.974  0.1123 -0.0039 -0.2200
 2886ntf    on516284   2.850   5.872   3.144  0.0010 -0.3901 -0.2341
 2886ntf    on516285   2.733   5.774   3.338  0.1716  0.3262  0.0752
 2886ntf    on516286   2.959   5.395   3.247  0.2370 -0.0866 -0.5020
 2886ntf    on516287   2.812   5.503   3.409 -0.0980 -0.2020 -0.4287
 2886ntf    fn416288   3.006   5.688   3.479 -0.1672 -0.4914  0.4697
 2886ntf    fn416289   3.111   5.505   3.470  0.3116  0.0291  0.0126
 2886ntf    fn416290   3.143   5.648   3.315 -0.0814  0.0269  0.3354
 2887ntf    cn116291   5.864   0.488   7.055 -0.1290  0.0007  0.5272
 2887ntf    sn216292   5.735   0.559   6.949  0.1742 -0.2551 -0.0156
 2887ntf    nn316293   5.672   0.424   6.902  0.0462 -0.3949  0.5609
 2887ntf    sn216294   5.517   0.400   6.915 -0.0758 -0.0020 -0.1322
 2887ntf    cn116295   5.500   0.268   6.791  0.2442 -0.2967  0.1361
 2887ntf    fn416296   5.979   0.553   7.040 -0.1988  0.0011 -0.0345
 2887ntf    fn416297   5.830   0.491   7.183 -0.1467 -0.4069  0.5317
 2887ntf    fn416298   5.895   0.362   7.027  0.5358  0.2832 -0.0527
 2887ntf    on516299   5.661   0.646   7.037  0.0092  0.2168 -0.6091
 2887ntf    on516300   5.817   0.627   6.851 -0.4765 -0.0610 -0.4298
 2887ntf    on516301   5.433   0.503   6.860 -0.6726 -0.5420 -0.2436
 2887ntf    on516302   5.480   0.328   7.035  0.2824 -0.1287 -0.0958
 2887ntf    fn416303   5.379   0.215   6.789  0.1077  0.0028  0.4091
 2887ntf    fn416304   5.521   0.314   6.668 -0.3952 -0.0791  0.1036
 2887ntf    fn416305   5.589   0.172   6.811  0.3959 -0.1799  0.0263
 2888ntf    cn116306   5.864   4.836   0.135  0.2324  0.2149  0.0740
 2888ntf    sn216307   5.772   4.706   0.047  0.0481  0.2970  0.1451
 2888ntf    nn316308   5.632   4.739   0.110 -0.0705 -0.1943  0.1401
 2888ntf    sn216309   5.499   4.786   0.042  0.1187  0.0546 -0.0583
 2888ntf    cn116310   5.429   4.620   0.019  0.2479 -0.0044 -0.0213
 2888ntf    fn416311   5.991   4.841   0.098  0.3179  0.0181  0.3312
 2888ntf    fn416312   5.802   4.949   0.106 -0.0711 -0.1199 -0.6092
 2888ntf    fn416313   5.864   4.803   0.263 -0.1837  0.3864  0.1192
 2888ntf    on516314   5.776   4.731  -0.095 -0.1188  0.0681  0.0989
 2888ntf    on516315   5.827   4.582   0.098 -0.6203  0.0072  0.1695
 2888ntf    on516316   5.498   4.849  -0.088  0.5829  0.2604  0.0359
 2888ntf    on516317   5.409   4.839   0.141  0.4535 -0.3961  0.4872
 2888ntf    fn416318   5.514   4.531  -0.031  0.0079 -0.1142 -0.2346
 2888ntf    fn416319   5.383   4.563   0.129  0.5696 -0.1040  0.0631
 2888ntf    fn416320   5.330   4.625  -0.068 -0.0919  0.2819  0.3793
 2889ntf    cn116321   1.830   4.424   4.464 -0.2528  0.0343  0.1031
 2889ntf    sn216322   1.789   4.373   4.634 -0.0012 -0.1299  0.1149
 2889ntf    nn316323   1.768   4.518   4.691 -0.5843 -0.0433 -0.3104
 2889ntf    sn216324   1.661   4.574   4.791  0.2401  0.2845  0.4090
 2889ntf    cn116325   1.765   4.691   4.884  0.2730  0.4553  0.1604
 2889ntf    fn416326   1.719   4.473   4.412 -0.2140 -0.1877 -0.1894
 2889ntf    fn416327   1.918   4.523   4.463  0.2295 -0.3906  0.2539
 2889ntf    fn416328   1.867   4.328   4.382  0.1465  0.1041  0.1961
 2889ntf    on516329   1.667   4.299   4.616  0.3854 -0.6510 -0.3627
 2889ntf    on516330   1.905   4.297   4.672  0.0696 -0.0744  0.0123
 2889ntf    on516331   1.616   4.476   4.886 -0.5071  0.0912 -0.1306
 2889ntf    on516332   1.559   4.665   4.743 -0.1706 -0.6627 -0.5695
 2889ntf    fn416333   1.876   4.632   4.925  0.5356  0.6190 -0.3095
 2889ntf    fn416334   1.802   4.796   4.814 -0.0488  0.3437 -0.1833
 2889ntf    fn416335   1.700   4.739   4.989 -0.1038 -0.0306  0.1536
 2890ntf    cn116336   6.250   5.255   1.123  0.5045  0.2303  0.3655
 2890ntf    sn216337   6.164   5.169   1.258  0.1183 -0.0523 -0.0556
 2890ntf    nn316338   6.182   5.268   1.379  0.0850  0.3103 -0.3451
 2890ntf    sn216339   6.081   5.298   1.495  0.5244  0.0020  0.1186
 2890ntf    cn116340   6.188   5.290   1.642  0.0390 -0.3567  0.4557
 2890ntf    fn416341   6.241   5.386   1.134 -0.2598  0.2236 -0.0657
 2890ntf    fn416342   6.375   5.219   1.099  0.3469 -0.1701  0.1268
 2890ntf    fn416343   6.183   5.225   1.012  0.5974  0.1766  0.3239
 2890ntf    on516344   6.030   5.155   1.206  0.2619 -0.1081 -0.4120
 2890ntf    on516345   6.251   5.054   1.264 -0.0397 -0.1658  0.0806
 2890ntf    on516346   5.987   5.194   1.528  0.0011  0.2811 -0.4846
 2890ntf    on516347   6.038   5.435   1.500 -0.1115 -0.1834 -0.1582
 2890ntf    fn416348   6.278   5.193   1.639  0.5888  0.1496  0.2565
 2890ntf    fn416349   6.253   5.405   1.652  0.2868 -0.4591  0.0576
 2890ntf    fn416350   6.124   5.274   1.757  0.2454 -0.4329  0.5604
 2891ntf    cn116351   3.807   6.775   1.843  0.2305 -0.3487 -0.0201
 2891ntf    sn216352   3.949   6.744   1.951  0.1907 -0.0174  0.1282
 2891ntf    nn316353   4.062   6.767   1.844 -0.0083 -0.1703 -0.1160
 2891ntf    sn216354   4.203   6.837   1.849  0.0450 -0.2488 -0.5374
 2891ntf    cn116355   4.302   6.686   1.832  0.3298 -0.2225  0.7701
 2891ntf    fn416356   3.812   6.881   1.764  0.1362 -0.3352 -0.0078
 2891ntf    fn416357   3.791   6.673   1.760 -0.0383 -0.4666  0.1736
 2891ntf    fn416358   3.695   6.773   1.914  0.1467 -0.9702 -0.1624
 2891ntf    on516359   3.931   6.846   2.052  0.2492  0.3505 -0.2292
 2891ntf    on516360   3.929   6.606   1.984 -0.2566  0.1445  0.5422
 2891ntf    on516361   4.247   6.897   1.972 -0.3991 -0.5138 -0.2467
 2891ntf    on516362   4.229   6.911   1.728 -0.5679  0.3881 -0.2875
 2891ntf    fn416363   4.294   6.630   1.712  1.0626 -0.5029  0.8458
 2891ntf    fn416364   4.433   6.700   1.840  0.3548  0.1413 -0.0990
 2891ntf    fn416365   4.260   6.589   1.911  0.3652 -0.7218  0.1879
 2892ntf    cn116366   6.104   0.561   1.587  0.1889 -0.0307  0.2607
 2892ntf    sn216367   6.063   0.727   1.650 -0.3293 -0.0906  0.0891
 2892ntf    nn316368   5.961   0.766   1.537 -0.0417 -0.3270 -0.2562
 2892ntf    sn216369   5.990   0.850   1.408 -0.0795  0.1544  0.0473
 2892ntf    cn116370   6.013   1.022   1.464 -0.1918  0.2793 -0.2864
 2892ntf    fn416371   6.166   0.488   1.679  0.0729  0.0237  0.3839
 2892ntf    fn416372   5.994   0.499   1.547  0.0067  0.3535  0.1612
 2892ntf    fn416373   6.184   0.555   1.483 -0.1030 -0.4356  0.0567
 2892ntf    on516374   6.001   0.695   1.776  0.2778  0.1236  0.4484
 2892ntf    on516375   6.189   0.798   1.647 -0.4218  0.0572 -0.2631
 2892ntf    on516376   5.879   0.850   1.317 -0.0033 -0.1962 -0.0462
 2892ntf    on516377   6.115   0.817   1.343 -0.2684 -0.0374 -0.2170
 2892ntf    fn416378   5.904   1.074   1.519 -0.3697 -0.3635 -0.0220
 2892ntf    fn416379   6.103   1.040   1.560 -0.2499 -0.1529 -0.1476
 2892ntf    fn416380   6.049   1.106   1.369 -0.0354  0.2753 -0.2307
 2893ntf    cn116381   4.433   0.977   0.193 -0.0090  0.1655  0.1730
 2893ntf    sn216382   4.275   1.040   0.128  0.2514  0.1624 -0.4741
 2893ntf    nn316383   4.321   1.065  -0.020  0.7371  0.5594 -0.2593
 2893ntf    sn216384   4.295   0.970  -0.143  0.1721  0.3851 -0.0062
 2893ntf    cn116385   4.133   1.024  -0.206 -0.0978 -0.3759  0.0233
 2893ntf    fn416386   4.426   0.974   0.325  0.2665  0.1933  0.1890
 2893ntf    fn416387   4.466   0.854   0.156 -0.0959  0.3356 -0.4864
 2893ntf    fn416388   4.530   1.062   0.165  0.1011  0.0573  0.2228
 2893ntf    on516389   4.173   0.939   0.144 -0.0441  0.4133 -0.7639
 2893ntf    on516390   4.242   1.164   0.193 -0.3023  0.0086 -0.4593
 2893ntf    on516391   4.270   0.834  -0.102  0.0994  0.3884 -0.0388
 2893ntf    on516392   4.383   0.989  -0.255  0.0840  0.2191 -0.1024
 2893ntf    fn416393   4.152   1.149  -0.247  0.0549 -0.6762 -0.8406
 2893ntf    fn416394   4.104   0.946  -0.308 -0.2331 -0.1880 -0.0837
 2893ntf    fn416395   4.019   1.021  -0.139 -0.4262 -0.2244 -0.5176
 2894ntf    cn116396   1.619   1.901   6.479  0.0171 -0.0724  0.2842
 2894ntf    sn216397   1.576   1.732   6.429 -0.2168  0.0677  0.0091
 2894ntf    nn316398   1.710   1.694   6.358 -0.2956 -0.0260 -0.0902
 2894ntf    sn216399   1.744   1.554   6.294  0.4187  0.0816  0.0392
 2894ntf    cn116400   1.814   1.477   6.442 -0.0120  0.1999  0.3063
 2894ntf    fn416401   1.635   1.973   6.369 -1.3567 -0.8848 -0.4815
 2894ntf    fn416402   1.522   1.968   6.539 -0.3354 -0.2870 -0.0388
 2894ntf    fn416403   1.729   1.904   6.553  0.3919  0.1641 -0.2743
 2894ntf    on516404   1.562   1.658   6.552  0.6724  0.4376  0.3351
 2894ntf    on516405   1.462   1.737   6.340  0.2692  0.4576 -0.5948
 2894ntf    on516406   1.848   1.559   6.194  0.1691 -0.8726 -0.2788
 2894ntf    on516407   1.632   1.469   6.261  0.4969 -0.1519  0.3706
 2894ntf    fn416408   1.731   1.409   6.520 -0.3000  0.5088  0.2692
 2894ntf    fn416409   1.907   1.388   6.409 -0.0412  0.2958 -0.0283
 2894ntf    fn416410   1.869   1.572   6.516 -0.0625  0.0780  0.5016
 2895ntf    cn116411   6.185   3.452   1.262 -0.2724  0.4424 -0.1849
 2895ntf    sn216412   6.254   3.620   1.257  0.4744  0.1400 -0.2689
 2895ntf    nn316413   6.277   3.652   1.409  0.5917  0.5837 -0.3778
 2895ntf    sn216414   6.401   3.615   1.497  0.0329  0.1731  0.2496
 2895ntf    cn116415   6.510   3.753   1.448 -0.1694  0.3549  0.3087
 2895ntf    fn416416   6.077   3.442   1.337  0.1396 -0.7146  0.2914
 2895ntf    fn416417   6.157   3.413   1.139 -0.2929 -0.7816  0.1942
 2895ntf    fn416418   6.260   3.352   1.308  0.2408  0.6932 -0.4599
 2895ntf    on516419   6.377   3.613   1.182  0.0467 -0.5783 -0.9106
 2895ntf    on516420   6.142   3.686   1.195  0.1169 -0.0771  0.1365
 2895ntf    on516421   6.471   3.497   1.454 -0.3020 -0.1953  0.7015
 2895ntf    on516422   6.382   3.631   1.639 -0.2655  0.0221  0.2276
 2895ntf    fn416423   6.626   3.739   1.510 -0.0645  0.3381  0.1067
 2895ntf    fn416424   6.524   3.769   1.318 -0.4108  0.4397  0.2931
 2895ntf    fn416425   6.469   3.871   1.492 -0.2770  0.3391  0.2537
 2896ntf    cn116426   3.478   5.970   6.763  0.1071  0.2428  0.4126
 2896ntf    sn216427   3.591   6.090   6.686  0.1825 -0.0726  0.0318
 2896ntf    nn316428   3.726   6.014   6.712  0.3902  0.2950  0.0278
 2896ntf    sn216429   3.819   6.030   6.838 -0.0160 -0.1058  0.3826
 2896ntf    cn116430   3.953   6.129   6.767  0.1804 -0.6098  0.0441
 2896ntf    fn416431   3.506   5.843   6.741 -0.2841  0.2074  0.0947
 2896ntf    fn416432   3.471   5.982   6.894  0.3278 -0.4913  0.4934
 2896ntf    fn416433   3.357   5.986   6.711  0.4918 -0.2925 -0.6699
 2896ntf    on516434   3.563   6.087   6.544 -0.3028 -0.2884  0.1272
 2896ntf    on516435   3.570   6.216   6.753 -0.6648 -0.0913 -0.1874
 2896ntf    on516436   3.888   5.906   6.866  0.0239 -0.3054 -0.5775
 2896ntf    on516437   3.775   6.106   6.953 -0.5320 -0.0428  0.1463
 2896ntf    fn416438   4.047   6.151   6.858 -0.1266 -0.2284  0.2743
 2896ntf    fn416439   4.014   6.063   6.670 -0.0858 -0.4857 -0.2074
 2896ntf    fn416440   3.913   6.247   6.722 -0.1184 -0.7318 -0.0064
 2897ntf    cn116441   0.106   4.873   4.964  0.3498 -0.4201 -0.3174
 2897ntf    sn216442   0.187   5.024   4.904 -0.3406 -0.0537 -0.3273
 2897ntf    nn316443   0.249   4.984   4.766  0.1340  0.0015 -0.1314
 2897ntf    sn216444   0.172   5.003   4.631  0.1655  0.1551 -0.1283
 2897ntf    cn116445   0.253   5.158   4.581  0.1270  0.2797  0.1944
 2897ntf    fn416446   0.057   4.900   5.084 -0.2499  0.4253 -0.7463
 2897ntf    fn416447   0.011   4.836   4.879 -0.0002  0.1274 -0.1664
 2897ntf    fn416448   0.184   4.770   4.996  0.0774 -0.3607  0.5664
 2897ntf    on516449   0.092   5.133   4.909 -0.0237  0.2172 -0.0750
 2897ntf    on516450   0.298   5.048   4.994 -0.2577  0.4588 -0.5611
 2897ntf    on516451   0.030   5.026   4.629  0.1418  0.0078 -0.0417
 2897ntf    on516452   0.216   4.908   4.532  0.4683  0.1982 -0.0377
 2897ntf    fn416453   0.195   5.222   4.481  0.2862  0.0008 -0.0773
 2897ntf    fn416454   0.252   5.236   4.688  0.1095 -0.0737  0.4533
 2897ntf    fn416455   0.382   5.146   4.555  0.2459  0.3498  0.7479
 2898ntf    cn116456   1.950   4.636   0.168 -0.0921 -0.1100  0.4930
 2898ntf    sn216457   1.895   4.741   0.306 -0.2512  0.3094  0.1144
 2898ntf    nn316458   1.926   4.889   0.265 -0.0834  0.3408  0.3561
 2898ntf    sn216459   2.058   4.971   0.290  0.1636  0.0056  0.1725
 2898ntf    cn116460   2.062   5.095   0.157  0.0299  0.2675  0.4090
 2898ntf    fn416461   2.079   4.606   0.174 -0.0614 -0.1634 -0.2916
 2898ntf    fn416462   1.884   4.523   0.156  0.0487 -0.1168 -0.2558
 2898ntf    fn416463   1.940   4.696   0.051  0.3513 -0.4866  0.2580
 2898ntf    on516464   1.757   4.706   0.328 -0.2089  0.3460  0.4452
 2898ntf    on516465   1.982   4.691   0.409  0.1961  0.1303 -0.3495
 2898ntf    on516466   2.183   4.904   0.266 -0.1323 -0.4445 -0.1206
 2898ntf    on516467   2.050   5.043   0.416  0.0673 -0.7564  0.6057
 2898ntf    fn416468   2.144   5.197   0.174  0.1138  0.2557  0.0727
 2898ntf    fn416469   2.101   5.048   0.039 -0.2693 -0.8382  0.7315
 2898ntf    fn416470   1.944   5.150   0.133 -0.0156  0.0903  0.2248
 2899ntf    cn116471   6.100   5.581   5.809  0.0399  0.1792  0.4278
 2899ntf    sn216472   6.025   5.593   5.975 -0.0515  0.5066  0.3647
 2899ntf    nn316473   6.141   5.628   6.074  0.1732 -0.4700  0.4584
 2899ntf    sn216474   6.193   5.765   6.132 -0.1397 -0.1560 -0.0006
 2899ntf    cn116475   6.264   5.714   6.291  0.2947  0.0472 -0.1294
 2899ntf    fn416476   6.015   5.621   5.716  0.3704 -0.0706  0.0164
 2899ntf    fn416477   6.210   5.653   5.796  0.3292 -0.3259  0.0916
 2899ntf    fn416478   6.131   5.456   5.780  0.3507  0.4473 -0.4032
 2899ntf    on516479   5.928   5.698   5.957 -0.3468  0.1687 -0.0484
 2899ntf    on516480   5.977   5.459   6.000  0.0549  0.3878 -0.0547
 2899ntf    on516481   6.094   5.864   6.167  0.3492  0.2704  0.1787
 2899ntf    on516482   6.319   5.805   6.075 -0.1391  0.0795  0.1669
 2899ntf    fn416483   6.189   5.620   6.346  0.4312  0.4528  0.7802
 2899ntf    fn416484   6.391   5.677   6.287  0.2268 -0.1206 -0.8256
 2899ntf    fn416485   6.269   5.806   6.386 -0.1014 -0.1874  0.1210
 2900ntf    cn116486   3.477   6.045   5.212  0.3872 -0.4507  0.5657
 2900ntf    sn216487   3.321   6.133   5.248  0.3215 -0.2970 -0.0853
 2900ntf    nn316488   3.210   6.027   5.212 -0.5935  0.7162 -0.2891
 2900ntf    sn216489   3.096   5.983   5.311 -0.0516  0.2771  0.1483
 2900ntf    cn116490   3.182   5.857   5.410  0.1879  0.3518  0.0373
 2900ntf    fn416491   3.500   6.042   5.082  0.9186 -0.0880  0.6481
 2900ntf    fn416492   3.585   6.103   5.261  0.2785  0.2474  0.0028
 2900ntf    fn416493   3.471   5.918   5.246 -0.1498 -0.4531  0.4796
 2900ntf    on516494   3.344   6.175   5.384  0.6063  0.0856 -0.2493
 2900ntf    on516495   3.327   6.243   5.155 -1.2193  0.0254  0.1730
 2900ntf    on516496   2.994   5.904   5.246  0.5826 -0.1183 -0.3829
 2900ntf    on516497   3.060   6.081   5.410 -0.0656  0.6904 -0.2579
 2900ntf    fn416498   3.221   5.758   5.332 -0.0927  0.2276  0.0525
 2900ntf    fn416499   3.282   5.915   5.475  0.4491  0.0932 -0.1359
 2900ntf    fn416500   3.114   5.804   5.510  0.1662 -0.4002 -0.3710
 2901ntf    cn116501   0.605   3.957   2.167 -0.0135  0.3083  0.2282
 2901ntf    sn216502   0.575   3.962   2.346  0.0523 -0.0359  0.2493
 2901ntf    nn316503   0.446   4.049   2.361  0.0606  0.0402 -0.1374
 2901ntf    sn216504   0.327   4.006   2.453  0.2935  0.0240  0.1558
 2901ntf    cn116505   0.245   4.169   2.449 -0.0244 -0.1297  0.3555
 2901ntf    fn416506   0.517   3.875   2.112  0.2472  0.3481 -0.2503
 2901ntf    fn416507   0.592   4.073   2.105  0.2465  0.2171 -0.0016
 2901ntf    fn416508   0.726   3.905   2.148 -0.2904 -0.2241 -0.1065
 2901ntf    on516509   0.561   3.822   2.377  0.4026 -0.2180 -0.3876
 2901ntf    on516510   0.698   4.029   2.381  0.0703 -0.2380  0.5861
 2901ntf    on516511   0.361   3.978   2.590 -0.5962 -0.4877  0.2811
 2901ntf    on516512   0.232   3.918   2.389  0.4410 -0.1438  0.1705
 2901ntf    fn416513   0.328   4.262   2.495  0.4412 -0.2759 -0.1776
 2901ntf    fn416514   0.213   4.204   2.325 -0.1696  0.1080  0.4584
 2901ntf    fn416515   0.137   4.179   2.525 -0.0722 -0.7022  0.3662
 2902ntf    cn116516   0.168   3.215   4.518  0.1303  0.0694  0.2163
 2902ntf    sn216517   0.032   3.278   4.415  0.2349 -0.1025 -0.0268
 2902ntf    nn316518   0.039   3.172   4.299 -0.5162  0.1513 -0.3126
 2902ntf    sn216519  -0.055   3.056   4.250 -0.2264 -0.2875  0.1484
 2902ntf    cn116520   0.017   3.028   4.086  0.1513  0.1038  0.2462
 2902ntf    fn416521   0.144   3.096   4.571 -0.8017  0.1353 -0.0419
 2902ntf    fn416522   0.282   3.213   4.452  0.1636  0.3165  0.2645
 2902ntf    fn416523   0.186   3.294   4.623 -0.1182 -0.5484  0.7305
 2902ntf    on516524  -0.075   3.266   4.511 -0.1292  0.4266 -0.3622
 2902ntf    on516525   0.079   3.406   4.367  0.0390 -0.1254 -0.2828
 2902ntf    on516526  -0.187   3.103   4.213 -0.3443 -0.9361 -0.2567
 2902ntf    on516527  -0.039   2.925   4.307 -0.0412 -0.3371 -0.0163
 2902ntf    fn416528   0.143   2.990   4.086  0.1493  0.0824 -0.2429
 2902ntf    fn416529  -0.044   2.925   4.030 -0.6756  0.2577  0.8364
 2902ntf    fn416530   0.011   3.131   4.003 -0.0027 -0.1694 -0.0841
 2903ntf    cn116531   4.122   4.320   2.868 -0.3243  0.1256 -0.2048
 2903ntf    sn216532   3.948   4.273   2.841 -0.2363 -0.2624 -0.0888
 2903ntf    nn316533   3.968   4.154   2.740  0.0056 -0.2298 -0.0821
 2903ntf    sn216534   4.040   4.019   2.772 -0.3327 -0.3108  0.3355
 2903ntf    cn116535   3.896   3.908   2.788 -0.5652 -0.0155  0.3088
 2903ntf    fn416536   4.178   4.275   2.979  0.1476 -0.5487 -0.7125
 2903ntf    fn416537   4.202   4.280   2.770  0.1003 -0.5003  0.3931
 2903ntf    fn416538   4.133   4.452   2.875 -0.0824  0.0936  0.0249
 2903ntf    on516539   3.889   4.236   2.967  0.1496 -0.2278  0.1051
 2903ntf    on516540   3.872   4.376   2.776 -0.1480 -0.2236 -0.1311
 2903ntf    on516541   4.108   4.011   2.899 -0.3336  0.6077  0.3993
 2903ntf    on516542   4.114   3.967   2.660 -0.7455  0.2615 -0.2028
 2903ntf    fn416543   3.936   3.786   2.754  0.2183  0.2724  0.1628
 2903ntf    fn416544   3.858   3.915   2.914 -0.5777  0.2207  0.2928
 2903ntf    fn416545   3.798   3.946   2.708 -0.7400  0.0946  0.5754
 2904ntf    cn116546   2.231   3.032   3.423 -0.0203  0.1493  0.2368
 2904ntf    sn216547   2.157   2.888   3.506  0.3060 -0.1474  0.0139
 2904ntf    nn316548   2.020   2.940   3.561 -0.0178 -0.4855 -0.4628
 2904ntf    sn216549   1.875   2.952   3.502 -0.0012  0.3797 -0.3410
 2904ntf    cn116550   1.803   2.789   3.538  0.2065  0.2655 -0.4387
 2904ntf    fn416551   2.344   3.002   3.361 -0.2838  0.5204 -0.4342
 2904ntf    fn416552   2.152   3.074   3.325  0.0425  0.7571  0.4423
 2904ntf    fn416553   2.247   3.134   3.506 -0.3542  0.2580  0.1676
 2904ntf    on516554   2.143   2.784   3.406  0.0063  0.3511 -0.4658
 2904ntf    on516555   2.242   2.864   3.620  0.4307 -0.2607 -0.1006
 2904ntf    on516556   1.877   2.966   3.358 -0.6518  0.0434 -0.3847
 2904ntf    on516557   1.797   3.047   3.576 -0.1606 -0.2320  0.2815
 2904ntf    fn416558   1.858   2.687   3.474  0.0766  0.3745 -0.7293
 2904ntf    fn416559   1.805   2.757   3.666 -0.1713 -0.0442 -0.5049
 2904ntf    fn416560   1.675   2.786   3.505  0.0687 -0.5711  0.1319
 2905ntf    cn116561   6.325   6.757   0.607 -0.5942  0.1726 -0.0472
 2905ntf    sn216562   6.292   6.699   0.438 -0.3322 -0.0336 -0.0287
 2905ntf    nn316563   6.135   6.698   0.443 -0.3416  0.0094 -0.2729
 2905ntf    sn216564   6.034   6.778   0.353 -0.1662  0.1621 -0.3341
 2905ntf    cn116565   5.950   6.888   0.470  0.0044  0.0296 -0.0852
 2905ntf    fn416566   6.447   6.808   0.620 -0.4162 -0.3299  0.2607
 2905ntf    fn416567   6.239   6.848   0.650 -0.6940  0.0536  0.0050
 2905ntf    fn416568   6.313   6.666   0.702  0.0838  0.4237  0.2846
 2905ntf    on516569   6.357   6.803   0.362 -0.7714  0.6694  0.5461
 2905ntf    on516570   6.340   6.563   0.428  0.0008  0.0982 -0.2491
 2905ntf    on516571   5.929   6.694   0.302  0.1292 -0.4480  0.0440
 2905ntf    on516572   6.090   6.878   0.265 -0.5579  0.3459 -0.3750
 2905ntf    fn416573   5.849   6.957   0.420  0.3020 -0.0681 -0.8243
 2905ntf    fn416574   5.897   6.821   0.572 -0.4280  0.1533 -0.2248
 2905ntf    fn416575   6.038   6.977   0.512 -0.1293 -0.1276  0.5437
 2906ntf    cn116576   4.348   5.047   2.566  0.0041  0.0607 -0.2530
 2906ntf    sn216577   4.414   4.878   2.579  0.3544  0.2196  0.0302
 2906ntf    nn316578   4.559   4.912   2.628  0.1717  0.8102  0.1706
 2906ntf    sn216579   4.689   4.831   2.593 -0.2713  0.2230 -0.1239
 2906ntf    cn116580   4.739   4.781   2.761 -0.1623 -0.0217 -0.2289
 2906ntf    fn416581   4.387   5.096   2.449 -0.0882  0.0012 -0.3088
 2906ntf    fn416582   4.217   5.051   2.581 -0.0169 -0.1925 -0.3672
 2906ntf    fn416583   4.395   5.131   2.656  0.3353 -0.3959  0.0045
 2906ntf    on516584   4.325   4.820   2.676 -0.0514  0.5920 -0.1179
 2906ntf    on516585   4.399   4.839   2.441 -0.4257  0.5496  0.0158
 2906ntf    on516586   4.797   4.913   2.545 -0.1011 -0.1612 -0.4031
 2906ntf    on516587   4.663   4.706   2.526 -0.3187  0.0697  0.1795
 2906ntf    fn416588   4.658   4.696   2.823  0.2366 -0.7051 -0.6336
 2906ntf    fn416589   4.856   4.720   2.756  0.0873  0.4229  0.2329
 2906ntf    fn416590   4.759   4.879   2.847 -0.0266 -0.1451 -0.1192
 2907ntf    cn116591   4.100   3.079   4.151 -0.0564 -0.1191  0.1184
 2907ntf    sn216592   3.988   2.984   4.044  0.0831 -0.1675  0.0143
 2907ntf    nn316593   4.054   3.025   3.907  0.6024 -0.0215  0.3041
 2907ntf    sn216594   4.098   2.935   3.786 -0.4669 -0.0459 -0.0813
 2907ntf    cn116595   4.197   2.808   3.870 -0.0815 -0.0070 -0.4742
 2907ntf    fn416596   4.069   3.073   4.279 -0.6682 -0.3392 -0.0390
 2907ntf    fn416597   4.225   3.034   4.141 -0.1748 -0.3663 -0.2722
 2907ntf    fn416598   4.104   3.205   4.112  0.3527 -0.4345 -0.8951
 2907ntf    on516599   4.005   2.847   4.087  0.0476  0.0953  0.8802
 2907ntf    on516600   3.861   3.047   4.068  0.2424  0.3172 -0.4015
 2907ntf    on516601   4.194   3.011   3.710  0.5204 -1.0606  0.1258
 2907ntf    on516602   3.996   2.868   3.709 -0.1721 -0.0302 -0.4893
 2907ntf    fn416603   4.133   2.703   3.917  0.0880  0.0777 -0.0471
 2907ntf    fn416604   4.284   2.757   3.784  0.1539  0.1018 -0.3047
 2907ntf    fn416605   4.264   2.871   3.967 -0.2394 -0.1139 -0.2956
 2908ntf    cn116606   0.226   6.619   2.439  0.3819 -0.2680 -0.0291
 2908ntf    sn216607   0.222   6.442   2.398  0.1606 -0.3536  0.3563
 2908ntf    nn316608   0.200   6.461   2.244 -0.7104  0.3240  0.5594
 2908ntf    sn216609   0.087   6.402   2.152 -0.3949  0.1438  0.2887
 2908ntf    cn116610  -0.005   6.553   2.109  0.0494  0.3359  0.0083
 2908ntf    fn416611   0.310   6.686   2.361  0.2113  0.0876  0.0923
 2908ntf    fn416612   0.109   6.682   2.439  0.3893 -0.2417  0.6222
 2908ntf    fn416613   0.281   6.637   2.558  0.1144 -0.2465  0.0924
 2908ntf    on516614   0.355   6.392   2.422  0.0906 -0.8232 -0.2308
 2908ntf    on516615   0.119   6.396   2.488  0.3749 -0.6824  0.4320
 2908ntf    on516616  -0.008   6.311   2.211 -0.6168  0.2473  0.0926
 2908ntf    on516617   0.136   6.354   2.025  0.4715  0.6742  0.4143
 2908ntf    fn416618  -0.103   6.536   2.022  0.2916 -0.2914 -0.1509
 2908ntf    fn416619  -0.049   6.614   2.218  0.3257 -0.1396  0.3912
 2908ntf    fn416620   0.070   6.639   2.043 -0.3700  0.5454 -0.1983
 2909ntf    cn116621   6.913   4.058   2.311  0.3554  0.0848  0.4426
 2909ntf    sn216622   6.780   4.175   2.351  0.0158 -0.2634  0.3369
 2909ntf    nn316623   6.657   4.081   2.324 -0.2326  0.0978  0.2094
 2909ntf    sn216624   6.524   4.098   2.241 -0.0640  0.1908 -0.0415
 2909ntf    cn116625   6.409   4.151   2.371 -0.1956 -0.2825  0.0333
 2909ntf    fn416626   6.926   4.016   2.186  0.4519  0.0398  0.4674
 2909ntf    fn416627   7.031   4.105   2.347  0.1579  0.6441  0.3620
 2909ntf    fn416628   6.886   3.946   2.377  0.1947 -0.3089 -0.2825
 2909ntf    on516629   6.809   4.220   2.484 -0.3550  0.4981  0.1695
 2909ntf    on516630   6.806   4.274   2.248 -0.2305 -0.2425  0.2946
 2909ntf    on516631   6.457   3.976   2.207 -0.1031  0.0615  0.4897
 2909ntf    on516632   6.522   4.204   2.144  0.4608 -0.1584 -0.4383
 2909ntf    fn416633   6.283   4.139   2.332 -0.0754  0.9220 -0.7575
 2909ntf    fn416634   6.410   4.081   2.484 -0.1062 -0.2667  0.0422
 2909ntf    fn416635   6.438   4.274   2.410  0.1848 -0.1934 -0.5279
 2910ntf    cn116636   5.516   0.814   0.837 -0.2078  0.0804  0.0289
 2910ntf    sn216637   5.381   0.924   0.786 -0.2684  0.0383  0.0991
 2910ntf    nn316638   5.387   1.032   0.901  0.1893  0.1933 -0.0692
 2910ntf    sn216639   5.315   1.025   1.040 -0.0531  0.0477 -0.2006
 2910ntf    cn116640   5.144   1.075   1.001 -0.0187  0.1455 -0.2261
 2910ntf    fn416641   5.502   0.771   0.961 -0.3849  0.3458  0.1002
 2910ntf    fn416642   5.527   0.707   0.760 -0.4226 -0.1232  0.2811
 2910ntf    fn416643   5.632   0.875   0.820  0.0627 -0.6016 -0.6620
 2910ntf    on516644   5.419   0.990   0.664  0.3354 -0.1326  0.1929
 2910ntf    on516645   5.262   0.842   0.781 -0.4322  0.2762  0.0426
 2910ntf    on516646   5.357   1.136   1.123 -0.1828 -0.4260  0.5088
 2910ntf    on516647   5.302   0.899   1.108 -0.3304  0.0903 -0.1735
 2910ntf    fn416648   5.152   1.200   0.958  0.4872  0.2734  0.2390
 2910ntf    fn416649   5.095   1.006   0.899  0.0633 -0.1388 -0.0756
 2910ntf    fn416650   5.056   1.077   1.099  0.3542 -0.1718  0.1159
 2911ntf    cn116651   3.047   0.010   1.463 -0.1676 -0.4098  0.1432
 2911ntf    sn216652   3.066   0.188   1.497 -0.0489 -0.3644 -0.1567
 2911ntf    nn316653   3.008   0.195   1.643  0.3448 -0.0364 -0.0135
 2911ntf    sn216654   2.986   0.323   1.731 -0.2816 -0.3327  0.2674
 2911ntf    cn116655   3.141   0.312   1.826  0.1458 -0.5628 -0.4452
 2911ntf    fn416656   3.120  -0.056   1.551  0.2585  0.1478  0.2117
 2911ntf    fn416657   2.920  -0.025   1.476 -0.2491 -0.1630  0.0212
 2911ntf    fn416658   3.100  -0.023   1.347  0.2231  0.0848  0.1743
 2911ntf    on516659   3.209   0.199   1.483 -0.0495  0.0197  0.1264
 2911ntf    on516660   2.979   0.249   1.399  0.2914 -0.2449 -0.3855
 2911ntf    on516661   2.879   0.301   1.825 -0.1203 -0.4742  0.4178
 2911ntf    on516662   2.984   0.446   1.656  0.2550 -0.4945 -0.0188
 2911ntf    fn416663   3.134   0.217   1.918 -0.3182  0.3527  0.4856
 2911ntf    fn416664   3.257   0.309   1.764  0.3212  0.2965 -0.1741
 2911ntf    fn416665   3.157   0.423   1.896  0.5824 -0.9707  0.1083
 2912ntf    cn116666   2.900   6.369   2.274 -0.0615 -0.1903 -0.2346
 2912ntf    sn216667   2.720   6.363   2.256 -0.0902  0.0063 -0.0224
 2912ntf    nn316668   2.680   6.359   2.408 -0.1974  0.2703 -0.0412
 2912ntf    sn216669   2.645   6.226   2.484  0.0679  0.2865  0.1097
 2912ntf    cn116670   2.465   6.220   2.464  0.1519 -0.3473 -0.5119
 2912ntf    fn416671   2.966   6.300   2.182  0.5907 -0.1266  0.1756
 2912ntf    fn416672   2.943   6.494   2.278 -0.0607 -0.1967 -0.0121
 2912ntf    fn416673   2.945   6.314   2.386 -0.0179  0.4345  0.0646
 2912ntf    on516674   2.692   6.492   2.195 -0.0260 -0.0532 -0.1779
 2912ntf    on516675   2.690   6.248   2.175  0.2776 -0.2387  0.1922
 2912ntf    on516676   2.661   6.250   2.625  0.0697  0.1370  0.1350
 2912ntf    on516677   2.704   6.101   2.443 -0.0284  0.2051  0.2208
 2912ntf    fn416678   2.401   6.123   2.527 -0.3629  0.1764 -0.2120
 2912ntf    fn416679   2.410   6.331   2.511 -0.0522 -0.3568 -0.7252
 2912ntf    fn416680   2.422   6.214   2.339 -0.4569 -0.4205 -0.3052
 2913ntf    cn116681   2.090   4.624   2.095  0.3255 -0.1618  0.0399
 2913ntf    sn216682   1.971   4.508   2.168 -0.1748  0.1005 -0.3489
 2913ntf    nn316683   1.856   4.610   2.195  0.0918  0.3313 -0.0712
 2913ntf    sn216684   1.787   4.662   2.326 -0.2359 -0.4483  0.0703
 2913ntf    cn116685   1.837   4.837   2.315 -0.0138 -0.5272 -0.1726
 2913ntf    fn416686   2.213   4.577   2.108  0.1683 -0.2873  1.1415
 2913ntf    fn416687   2.066   4.645   1.966 -0.1044  0.3191  0.1971
 2913ntf    fn416688   2.095   4.743   2.153  0.0160 -0.2387  0.2241
 2913ntf    on516689   1.945   4.407   2.068 -0.1748 -0.0804 -0.1661
 2913ntf    on516690   2.052   4.462   2.279 -0.7284  0.5359  0.2386
 2913ntf    on516691   1.836   4.618   2.454  0.6518 -0.8517 -0.3980
 2913ntf    on516692   1.644   4.672   2.312 -0.2652 -0.4338  0.3678
 2913ntf    fn416693   1.967   4.854   2.332 -0.1710  0.1061  0.4178
 2913ntf    fn416694   1.800   4.870   2.192  0.3827 -0.6601 -0.3322
 2913ntf    fn416695   1.775   4.919   2.397  0.2821 -0.1330 -0.3422
 2914ntf    cn116696   5.496   1.226   2.234 -0.0290 -0.1238  0.4241
 2914ntf    sn216697   5.564   1.067   2.179 -0.0151 -0.1467  0.5066
 2914ntf    nn316698   5.550   1.080   2.023 -0.7147  0.1515  0.5899
 2914ntf    sn216699   5.437   1.011   1.939 -0.3638 -0.2002  0.4061
 2914ntf    cn116700   5.492   0.838   1.934  0.0008 -0.0736 -0.0681
 2914ntf    fn416701   5.559   1.329   2.182 -0.0523 -0.2237  0.1986
 2914ntf    fn416702   5.369   1.241   2.201  0.1129  0.1418  0.0009
 2914ntf    fn416703   5.497   1.238   2.366  0.2442 -0.5743  0.4668
 2914ntf    on516704   5.703   1.068   2.216  0.0384  0.4865  0.2932
 2914ntf    on516705   5.487   0.958   2.235 -0.6913 -0.2440 -0.5810
 2914ntf    on516706   5.446   1.043   1.798 -0.2496 -0.3205  0.3853
 2914ntf    on516707   5.303   1.018   1.990 -0.3916 -0.0525  0.3146
 2914ntf    fn416708   5.387   0.759   1.918  0.0148 -0.0932 -0.0634
 2914ntf    fn416709   5.584   0.806   1.843 -0.4507 -0.5716 -0.3561
 2914ntf    fn416710   5.542   0.794   2.048  0.0189 -0.3907 -0.1958
 2915ntf    cn116711   4.170   0.465   1.487 -0.0026 -0.1894  0.0866
 2915ntf    sn216712   4.276   0.318   1.500 -0.1179 -0.2520  0.3164
 2915ntf    nn316713   4.413   0.394   1.503 -0.1281 -0.1854 -0.6949
 2915ntf    sn216714   4.541   0.388   1.413  0.3948  0.0169  0.0287
 2915ntf    cn116715   4.609   0.556   1.396 -0.2437  0.2791  0.0627
 2915ntf    fn416716   4.041   0.442   1.509 -0.0819 -0.0279 -0.1920
 2915ntf    fn416717   4.214   0.559   1.570  0.2008 -0.3507  0.1598
 2915ntf    fn416718   4.180   0.521   1.367  0.8446 -0.3527  0.0790
 2915ntf    on516719   4.240   0.268   1.630 -0.9056 -0.3804  0.0587
 2915ntf    on516720   4.245   0.240   1.382  0.8125 -0.5673  0.2769
 2915ntf    on516721   4.508   0.338   1.281 -0.0593  0.1481  0.0920
 2915ntf    on516722   4.650   0.314   1.472 -0.0431 -0.2162  0.5427
 2915ntf    fn416723   4.530   0.641   1.333  0.1504  0.2568 -0.4655
 2915ntf    fn416724   4.619   0.618   1.512 -0.2030  0.2440  0.0780
 2915ntf    fn416725   4.723   0.562   1.329 -0.4654  0.0228 -0.3429
 2916ntf    cn116726   0.044   1.147   5.550  0.0157 -0.1160  0.1600
 2916ntf    sn216727   0.007   1.274   5.674  0.3983 -0.2111  0.3728
 2916ntf    nn316728  -0.112   1.211   5.753 -0.2709  0.5400 -0.0247
 2916ntf    sn216729  -0.253   1.259   5.804 -0.2494  0.3424  0.2290
 2916ntf    cn116730  -0.233   1.241   5.983  0.0384 -0.2468  0.1402
 2916ntf    fn416731   0.150   1.176   5.476 -0.0251 -0.4289 -0.0279
 2916ntf    fn416732   0.079   1.028   5.596  0.2953 -0.1728 -0.1902
 2916ntf    fn416733  -0.054   1.122   5.464 -0.1779 -0.4899  0.4847
 2916ntf    on516734   0.126   1.287   5.755  0.3173 -0.0392  0.4645
 2916ntf    on516735  -0.024   1.386   5.588  0.0209 -0.2518  0.4584
 2916ntf    on516736  -0.354   1.160   5.776  0.3980 -0.6408  1.2970
 2916ntf    on516737  -0.276   1.398   5.772 -0.1142  0.3288  0.0718
 2916ntf    fn416738  -0.345   1.242   6.054  0.2184 -0.0133  0.4255
 2916ntf    fn416739  -0.175   1.129   6.022  0.1862 -0.2397 -0.0612
 2916ntf    fn416740  -0.159   1.334   6.042 -0.0083  0.1603 -0.4412
 2917ntf    cn116741   3.288   4.666   4.371  0.2211  0.4647 -0.2156
 2917ntf    sn216742   3.277   4.718   4.197 -0.2783  0.2355 -0.2543
 2917ntf    nn316743   3.124   4.744   4.177 -0.4359 -0.2991  0.2538
 2917ntf    sn216744   3.055   4.860   4.097  0.2673 -0.1485 -0.1356
 2917ntf    cn116745   3.023   4.988   4.222  0.1824  0.2653 -0.5779
 2917ntf    fn416746   3.219   4.738   4.458  0.1355  0.0501  0.0592
 2917ntf    fn416747   3.229   4.551   4.400  0.9420  0.1302 -0.0627
 2917ntf    fn416748   3.412   4.661   4.418  0.1772  0.1283 -0.1386
 2917ntf    on516749   3.369   4.829   4.194  0.6286 -0.4299  1.5459
 2917ntf    on516750   3.312   4.596   4.129 -1.5331 -0.3757  0.1745
 2917ntf    on516751   2.919   4.825   4.064  0.2989  0.1912 -0.6297
 2917ntf    on516752   3.131   4.920   3.989  0.2455  0.0062 -0.0650
 2917ntf    fn416753   3.015   4.938   4.344 -0.1737  0.2566 -0.6036
 2917ntf    fn416754   3.118   5.079   4.234 -0.3852  0.8279 -0.3213
 2917ntf    fn416755   2.912   5.058   4.204 -0.0943 -0.1051 -0.3496
 2918ntf    cn116756   2.099   2.588   1.362  0.0853 -0.6135 -0.0616
 2918ntf    sn216757   1.976   2.489   1.453 -0.2222  0.1084  0.3139
 2918ntf    nn316758   1.852   2.581   1.423 -0.3224 -0.2709 -0.4598
 2918ntf    sn216759   1.779   2.665   1.533  0.0617 -0.1435 -0.3009
 2918ntf    cn116760   1.641   2.554   1.577  0.1497 -0.0155  0.3095
 2918ntf    fn416761   2.217   2.527   1.363  0.2159 -0.3666 -0.3992
 2918ntf    fn416762   2.074   2.605   1.234 -0.1439 -0.6701 -0.0233
 2918ntf    fn416763   2.109   2.713   1.404 -0.6055 -0.5273 -0.1560
 2918ntf    on516764   1.961   2.364   1.383  0.7309 -0.0726  0.4153
 2918ntf    on516765   2.024   2.495   1.589  0.4108  0.7365  0.0720
 2918ntf    on516766   1.716   2.772   1.460 -0.2351  0.0830  0.2745
 2918ntf    on516767   1.851   2.691   1.656 -0.3040 -0.0766 -0.0991
 2918ntf    fn416768   1.689   2.431   1.586  0.9511  0.2700  0.0823
 2918ntf    fn416769   1.591   2.584   1.696 -0.9384 -0.1761 -0.1010
 2918ntf    fn416770   1.543   2.551   1.489  0.7524 -0.0935 -0.3675
 2919ntf    cn116771   5.037   4.319   1.726 -0.2553  0.1617 -0.0996
 2919ntf    sn216772   4.957   4.480   1.758 -0.0727  0.2241  0.0419
 2919ntf    nn316773   4.831   4.460   1.667 -0.1981  0.0414  0.2550
 2919ntf    sn216774   4.697   4.542   1.678  0.0806  0.4805  0.3905
 2919ntf    cn116775   4.595   4.423   1.770  0.1343 -0.1697 -0.3803
 2919ntf    fn416776   5.156   4.316   1.783 -0.3983  0.7312  0.2417
 2919ntf    fn416777   4.981   4.211   1.779 -0.2616  0.2901  0.1600
 2919ntf    fn416778   5.052   4.300   1.596  0.3185  0.1493 -0.0320
 2919ntf    on516779   4.931   4.486   1.900  0.5125  0.6062  0.1391
 2919ntf    on516780   5.050   4.580   1.711  0.1176  0.2396  0.4483
 2919ntf    on516781   4.646   4.544   1.543  0.4225  0.2339  0.2556
 2919ntf    on516782   4.694   4.658   1.763  0.2702  0.4805  0.3987
 2919ntf    fn416783   4.640   4.406   1.893  0.1769 -0.6080 -0.4551
 2919ntf    fn416784   4.467   4.451   1.783  0.1841  0.1484 -0.5560
 2919ntf    fn416785   4.600   4.306   1.708 -0.0515 -0.2322 -0.2752
 2920ntf    cn116786   3.334   6.447   4.287 -0.3718  0.2011  0.0474
 2920ntf    sn216787   3.264   6.281   4.259 -0.2166  0.1881 -0.2676
 2920ntf    nn316788   3.347   6.195   4.360 -0.1378  0.4518 -0.1061
 2920ntf    sn216789   3.302   6.134   4.497  0.2282  0.3046 -0.0490
 2920ntf    cn116790   3.215   5.984   4.441  0.1470  0.2399  0.2472
 2920ntf    fn416791   3.364   6.461   4.415  0.6705  0.0912 -0.1740
 2920ntf    fn416792   3.448   6.471   4.223 -0.0541 -0.2274  0.4419
 2920ntf    fn416793   3.248   6.541   4.252 -0.1053  0.4180 -0.0258
 2920ntf    on516794   3.122   6.293   4.281 -0.1796 -0.2901  0.2395
 2920ntf    on516795   3.294   6.256   4.120 -0.0613  0.2345 -0.2424
 2920ntf    on516796   3.215   6.210   4.584 -0.0084  0.2970 -0.2790
 2920ntf    on516797   3.413   6.072   4.564  0.1052  0.0231 -0.1020
 2920ntf    fn416798   3.098   6.007   4.383 -0.1452 -0.3085  0.6131
 2920ntf    fn416799   3.295   5.920   4.358  0.3469  0.5034  0.2351
 2920ntf    fn416800   3.188   5.902   4.541 -0.0817 -0.1901 -0.1659
 2921ntf    cn116801   6.489   0.484   7.018  0.0227  0.1541 -0.0206
 2921ntf    sn216802   6.399   0.467   6.860 -0.0319  0.2343  0.0024
 2921ntf    nn316803   6.511   0.474   6.750  0.0303  0.4602  0.0793
 2921ntf    sn216804   6.536   0.372   6.634  0.1031 -0.1124  0.5923
 2921ntf    cn116805   6.621   0.472   6.508 -0.0746 -0.2026  0.3997
 2921ntf    fn416806   6.413   0.424   7.107 -0.0615 -0.1770 -0.3132
 2921ntf    fn416807   6.605   0.421   7.022  0.0615  0.2438  0.2283
 2921ntf    fn416808   6.500   0.611   7.054  0.0860  0.4200 -0.9353
 2921ntf    on516809   6.333   0.341   6.881 -0.4776  0.5168  0.3139
 2921ntf    on516810   6.319   0.586   6.844 -0.2350  0.1236  0.1840
 2921ntf    on516811   6.420   0.332   6.558  0.4969  0.2663 -0.2272
 2921ntf    on516812   6.633   0.270   6.662  0.2646 -0.2992 -0.6083
 2921ntf    fn416813   6.696   0.567   6.561  0.0986 -0.3134  0.3571
 2921ntf    fn416814   6.703   0.401   6.432 -0.3445  0.1955 -0.2712
 2921ntf    fn416815   6.540   0.542   6.431 -0.2108 -0.4076  0.3549
 2922ntf    cn116816   1.075   1.406   5.585 -0.3110  0.1679  0.1494
 2922ntf    sn216817   1.000   1.241   5.587 -0.4988  0.2575  0.5873
 2922ntf    nn316818   0.936   1.247   5.444  0.0382 -0.0299  0.3315
 2922ntf    sn216819   0.982   1.189   5.306 -0.1070  0.2673  0.1557
 2922ntf    cn116820   0.936   1.015   5.331  0.3277  0.1581  0.1987
 2922ntf    fn416821   1.149   1.435   5.691 -0.1801  0.0315  0.0951
 2922ntf    fn416822   1.161   1.419   5.485 -0.2110  0.1179  0.2294
 2922ntf    fn416823   0.988   1.505   5.571 -0.2123  0.2664  0.2314
 2922ntf    on516824   1.109   1.150   5.610 -0.3605  0.2783  0.0363
 2922ntf    on516825   0.907   1.253   5.697  0.0568  0.1597  1.0684
 2922ntf    on516826   1.121   1.171   5.273 -0.1714 -0.2861  0.1806
 2922ntf    on516827   0.891   1.218   5.198 -0.2715 -0.3132  0.1321
 2922ntf    fn416828   1.000   0.962   5.434  0.2979 -0.4303 -0.0782
 2922ntf    fn416829   0.807   0.997   5.357  0.2493  0.3668 -0.0468
 2922ntf    fn416830   0.964   0.929   5.234  0.4217  0.2015  0.1880
 2923ntf    cn116831   0.820   3.030   3.013 -0.1562 -0.6307  0.3898
 2923ntf    sn216832   0.860   2.861   2.958  0.2322 -0.3495 -0.1967
 2923ntf    nn316833   0.726   2.792   3.001 -0.0021 -0.2950 -0.8252
 2923ntf    sn216834   0.680   2.642   2.984  0.2809 -0.4677 -0.1081
 2923ntf    cn116835   0.752   2.570   3.134  0.0406 -0.5297 -0.0240
 2923ntf    fn416836   0.743   3.096   2.927  0.6835 -0.0329  0.0860
 2923ntf    fn416837   0.763   3.035   3.133 -0.7356  1.0098  0.0733
 2923ntf    fn416838   0.935   3.094   3.021 -0.1336 -0.6098 -0.0623
 2923ntf    on516839   0.887   2.876   2.817  0.6517 -0.1079 -0.0921
 2923ntf    on516840   0.972   2.828   3.042 -0.4100 -0.1399  0.7563
 2923ntf    on516841   0.752   2.558   2.891  0.3312 -0.1844 -0.3313
 2923ntf    on516842   0.541   2.613   3.004  0.0188  0.2893 -0.7582
 2923ntf    fn416843   0.884   2.571   3.132  0.0454 -0.4196  0.2224
 2923ntf    fn416844   0.713   2.622   3.249  0.0390  0.0276 -0.2753
 2923ntf    fn416845   0.716   2.443   3.143 -0.5558 -0.3919 -0.4143
 2924ntf    cn116846   3.325   3.218   1.412 -0.3068 -0.1931 -0.3159
 2924ntf    sn216847   3.428   3.269   1.271  0.0818  0.2542  0.1265
 2924ntf    nn316848   3.382   3.172   1.157 -0.1499 -0.0163  0.4462
 2924ntf    sn216849   3.445   3.036   1.110 -0.1284  0.2011 -0.1743
 2924ntf    cn116850   3.561   3.078   0.977 -0.1383  0.3015 -0.1510
 2924ntf    fn416851   3.337   3.305   1.511 -0.0460 -0.2860 -0.2641
 2924ntf    fn416852   3.201   3.248   1.378 -0.3884  0.3301  0.4334
 2924ntf    fn416853   3.337   3.090   1.442  0.0334 -0.0186  0.3069
 2924ntf    on516854   3.374   3.400   1.245 -0.1786  0.0892 -0.1724
 2924ntf    on516855   3.564   3.247   1.314  0.7012  1.2666 -1.2395
 2924ntf    on516856   3.360   2.940   1.044  0.1980  0.1359 -0.5013
 2924ntf    on516857   3.532   2.979   1.210 -0.4115 -0.2358 -0.1709
 2924ntf    fn416858   3.616   3.195   1.004  0.1750  0.0890  0.1402
 2924ntf    fn416859   3.655   2.989   0.951  0.2604  0.4618  0.7027
 2924ntf    fn416860   3.492   3.100   0.866 -0.2812  0.2394 -0.0746
 2925ntf    cn116861   0.810   4.623   5.329  0.1771 -0.0210 -0.0621
 2925ntf    sn216862   0.861   4.478   5.231  0.0724 -0.1415  0.0606
 2925ntf    nn316863   0.779   4.368   5.306  0.0717 -0.4556 -0.3981
 2925ntf    sn216864   0.627   4.328   5.301 -0.0844  0.0282  0.4273
 2925ntf    cn116865   0.635   4.179   5.197  0.3136  0.3659 -0.0298
 2925ntf    fn416866   0.680   4.645   5.313  0.0719 -0.6097 -0.0347
 2925ntf    fn416867   0.839   4.615   5.457  0.0740  0.2596 -0.0222
 2925ntf    fn416868   0.867   4.733   5.283 -0.1508 -0.0188 -0.4703
 2925ntf    on516869   0.829   4.492   5.091 -0.3945  0.1666  0.1966
 2925ntf    on516870   1.002   4.460   5.254  0.0192 -0.5087  0.0971
 2925ntf    on516871   0.544   4.415   5.221  0.1777 -0.4435 -0.3636
 2925ntf    on516872   0.576   4.286   5.430 -0.1567 -0.4469  0.2444
 2925ntf    fn416873   0.516   4.123   5.190  0.2853  0.3380  0.5998
 2925ntf    fn416874   0.656   4.207   5.070  0.0345  0.2491 -0.1009
 2925ntf    fn416875   0.732   4.096   5.230  0.3042  0.4589  0.2412
 2926ntf    cn116876   4.721   3.827   4.046 -0.4537 -0.5272  0.2120
 2926ntf    sn216877   4.882   3.763   3.987 -0.2530  0.1713 -0.0045
 2926ntf    nn316878   4.968   3.893   4.006 -0.2319  0.0875  0.4823
 2926ntf    sn216879   5.039   3.947   4.135  0.1195  0.7684  0.0082
 2926ntf    cn116880   5.007   4.124   4.106 -0.1530  0.6967 -0.1351
 2926ntf    fn416881   4.702   3.830   4.176  0.0580 -0.1410  0.2813
 2926ntf    fn416882   4.699   3.953   4.013  1.0367 -0.4103 -0.4356
 2926ntf    fn416883   4.616   3.769   3.991 -0.6972  0.0234  0.0986
 2926ntf    on516884   4.912   3.646   4.066  0.4435  0.0458 -0.4534
 2926ntf    on516885   4.864   3.745   3.845  0.5090  0.0732 -0.0930
 2926ntf    on516886   5.183   3.940   4.126  0.0604  0.0153 -0.4132
 2926ntf    on516887   4.977   3.893   4.253 -0.0529  0.5195 -0.1966
 2926ntf    fn416888   4.876   4.141   4.101 -0.2539 -0.0377 -0.1494
 2926ntf    fn416889   5.040   4.191   4.215 -0.4282  0.2069  0.2557
 2926ntf    fn416890   5.064   4.175   3.998 -0.2551 -0.5741 -0.8063
 2927ntf    cn116891   3.160   2.537   2.434  0.4704 -0.2067 -0.0538
 2927ntf    sn216892   3.285   2.667   2.458  0.2334  0.0396 -0.1498
 2927ntf    nn316893   3.272   2.680   2.614  0.3764  0.0957 -0.1430
 2927ntf    sn216894   3.365   2.758   2.714  0.2579 -0.0631  0.0914
 2927ntf    cn116895   3.284   2.920   2.722 -0.4741 -0.4161 -0.0427
 2927ntf    fn416896   3.083   2.576   2.334 -0.2308 -0.4960  0.3699
 2927ntf    fn416897   3.210   2.422   2.392  0.5436 -0.4804  0.7653
 2927ntf    fn416898   3.085   2.513   2.540  0.4243  0.2444  0.0170
 2927ntf    on516899   3.414   2.619   2.415  0.7248  0.4366  0.8391
 2927ntf    on516900   3.226   2.779   2.389 -0.4682 -0.6276 -0.6487
 2927ntf    on516901   3.499   2.791   2.672  0.1994  0.0044 -0.0421
 2927ntf    on516902   3.349   2.710   2.849 -0.1256  0.0535  0.0872
 2927ntf    fn416903   3.247   2.964   2.603 -0.0154  0.0230 -0.0297
 2927ntf    fn416904   3.178   2.910   2.800 -0.4790  0.3838  0.0632
 2927ntf    fn416905   3.361   3.015   2.774 -0.0384 -0.4503 -0.6107
 2928ntf    cn116906   1.016   6.803   5.224 -0.5924 -0.1021  0.4945
 2928ntf    sn216907   1.018   6.654   5.330  0.0035 -0.4971 -0.0703
 2928ntf    nn316908   0.969   6.719   5.464  0.3635 -0.3832  0.0099
 2928ntf    sn216909   1.067   6.768   5.575 -0.4274  0.3326  0.4038
 2928ntf    cn116910   1.098   6.612   5.662  0.3119 -0.0185 -0.4774
 2928ntf    fn416911   1.061   6.912   5.284  0.5305 -0.2233 -0.1163
 2928ntf    fn416912   1.095   6.770   5.123  0.1543  0.6218  0.8363
 2928ntf    fn416913   0.895   6.836   5.182 -0.5545  0.2968  0.6973
 2928ntf    on516914   0.912   6.576   5.272 -0.1383 -0.0834 -0.3731
 2928ntf    on516915   1.151   6.598   5.319  0.4780  0.6435 -0.3427
 2928ntf    on516916   1.000   6.846   5.677  0.0188  1.0459  0.1614
 2928ntf    on516917   1.193   6.820   5.527  0.1625 -0.2138  1.3360
 2928ntf    fn416918   1.209   6.614   5.734  0.2617  0.2344 -0.4077
 2928ntf    fn416919   0.999   6.583   5.745  0.4490 -0.6300 -0.5215
 2928ntf    fn416920   1.114   6.508   5.581  0.3786 -0.1575 -0.2900
 2929ntf    cn116921   6.807   3.377   2.286  0.1476 -0.0782 -0.1681
 2929ntf    sn216922   6.844   3.555   2.271  0.0560 -0.0473 -0.0358
 2929ntf    nn316923   6.906   3.568   2.127  0.0506  0.2348 -0.0116
 2929ntf    sn216924   6.828   3.625   2.003  0.0873  0.2573 -0.0244
 2929ntf    cn116925   6.847   3.804   2.032  0.1219  0.2192  0.1898
 2929ntf    fn416926   6.760   3.350   2.407  0.4793  0.0213 -0.0157
 2929ntf    fn416927   6.713   3.339   2.202 -0.2439  0.2725  0.1061
 2929ntf    fn416928   6.914   3.301   2.268 -0.1399 -0.4324 -0.3857
 2929ntf    on516929   6.726   3.627   2.311  0.1534 -0.2967  0.7242
 2929ntf    on516930   6.953   3.579   2.363  0.7415 -0.3053 -0.7648
 2929ntf    on516931   6.686   3.600   1.998  0.1550 -0.1664  0.1515
 2929ntf    on516932   6.896   3.604   1.878 -0.3542 -0.1427 -0.1987
 2929ntf    fn416933   6.975   3.835   2.043  0.2766 -0.2515 -0.2441
 2929ntf    fn416934   6.810   3.885   1.935 -0.1712 -0.7352 -0.5108
 2929ntf    fn416935   6.783   3.846   2.140 -0.3041 -0.0364  0.0407
 2930ntf    cn116936   4.986   1.897   3.020 -0.2447 -0.0413 -0.2998
 2930ntf    sn216937   5.029   2.030   2.903 -0.0689  0.2073  0.0461
 2930ntf    nn316938   5.090   2.135   3.002  0.0290  0.2642 -0.0744
 2930ntf    sn216939   5.220   2.222   2.990  0.1864  0.0107 -0.2338
 2930ntf    cn116940   5.339   2.101   3.053  0.3799  0.3920  0.1385
 2930ntf    fn416941   4.915   1.799   2.966  0.2960 -0.2599 -0.6338
 2930ntf    fn416942   5.094   1.841   3.072 -0.1809  0.6050  0.2732
 2930ntf    fn416943   4.914   1.938   3.122 -0.3819 -0.2400 -0.3161
 2930ntf    on516944   5.130   1.982   2.811 -0.0841 -0.1645  0.2204
 2930ntf    on516945   4.898   2.060   2.852 -0.0387  0.2800  0.0127
 2930ntf    on516946   5.219   2.323   3.093  0.4735  0.3427 -0.5540
 2930ntf    on516947   5.269   2.268   2.863  0.3527  0.0486 -0.1568
 2930ntf    fn416948   5.457   2.156   3.076  0.6699 -0.2760  0.2749
 2930ntf    fn416949   5.287   2.038   3.157  0.1957  0.0701 -0.1482
 2930ntf    fn416950   5.360   2.005   2.964 -0.0017 -0.2435  0.7231
 2931ntf    cn116951   1.332   6.388   2.743  0.1054 -0.5935  0.2153
 2931ntf    sn216952   1.491   6.477   2.739 -0.0985 -0.2074  0.5833
 2931ntf    nn316953   1.598   6.371   2.784  0.2446  0.0862  0.4632
 2931ntf    sn216954   1.711   6.309   2.695 -0.1654 -0.1477  0.1048
 2931ntf    cn116955   1.609   6.206   2.585  0.1057 -0.3998  0.0900
 2931ntf    fn416956   1.281   6.379   2.865 -0.5176  0.1970  0.0276
 2931ntf    fn416957   1.235   6.453   2.682  0.1888 -0.1617  0.5363
 2931ntf    fn416958   1.343   6.268   2.689  0.2427 -0.3947 -0.2073
 2931ntf    on516959   1.509   6.524   2.604  0.1379 -0.6190  0.4687
 2931ntf    on516960   1.464   6.578   2.839 -0.0369  0.0230  0.3680
 2931ntf    on516961   1.799   6.215   2.758 -0.1399 -0.3201 -0.1851
 2931ntf    on516962   1.780   6.403   2.609  0.1467  0.2891  0.8238
 2931ntf    fn416963   1.671   6.106   2.524 -0.0569 -0.3976 -0.0809
 2931ntf    fn416964   1.517   6.139   2.651  0.0274 -0.3546  0.0268
 2931ntf    fn416965   1.546   6.287   2.501 -0.2591 -0.0298  0.7102
 2932ntf    cn116966   3.114   2.082   5.267 -0.1814  0.1179  0.0751
 2932ntf    sn216967   2.955   2.166   5.243 -0.2891 -0.1204 -0.0525
 2932ntf    nn316968   2.853   2.053   5.281  0.1236 -0.5215 -0.1211
 2932ntf    sn216969   2.792   2.030   5.424 -0.2271 -0.1514 -0.2091
 2932ntf    cn116970   2.685   2.176   5.439  0.0522  0.0414 -0.0864
 2932ntf    fn416971   3.215   2.155   5.223 -0.0504 -0.1305 -0.0417
 2932ntf    fn416972   3.138   2.061   5.396  0.0357 -0.6353 -0.0780
 2932ntf    fn416973   3.124   1.966   5.204  0.1167  0.0090  0.3197
 2932ntf    on516974   2.972   2.276   5.334 -0.7374  0.1332 -0.2740
 2932ntf    on516975   2.954   2.189   5.100 -0.1526 -0.2564 -0.0761
 2932ntf    on516976   2.888   2.029   5.531  0.2957 -0.2841 -0.6719
 2932ntf    on516977   2.695   1.924   5.415 -0.1691 -0.2394  0.2118
 2932ntf    fn416978   2.757   2.286   5.454 -0.0931  0.1785 -0.3911
 2932ntf    fn416979   2.603   2.200   5.338  0.2376 -0.0545 -0.2589
 2932ntf    fn416980   2.602   2.171   5.542 -0.1678 -0.1238 -0.2694
 2933ntf    cn116981   1.869   6.692   7.003  0.0984 -0.0439  0.5907
 2933ntf    sn216982   2.005   6.655   7.119  0.3417 -0.1565  0.2690
 2933ntf    nn316983   2.059   6.802   7.136 -0.4950  0.2845 -0.7511
 2933ntf    sn216984   2.186   6.870   7.073 -0.1053  0.2271 -0.0381
 2933ntf    cn116985   2.302   6.858   7.212 -0.1215 -0.5174 -0.0835
 2933ntf    fn416986   1.765   6.756   7.054  0.0386  0.3872 -0.0683
 2933ntf    fn416987   1.903   6.761   6.895  0.2531 -0.2068  0.5346
 2933ntf    fn416988   1.809   6.580   6.966  0.0014 -0.0230  0.6816
 2933ntf    on516989   1.926   6.608   7.229  0.2800 -0.5221  0.0708
 2933ntf    on516990   2.087   6.559   7.048  0.5898  0.3222 -0.1017
 2933ntf    on516991   2.166   7.011   7.052  0.1554  0.1571 -0.7807
 2933ntf    on516992   2.240   6.801   6.959 -0.1819  0.2598 -0.0937
 2933ntf    fn416993   2.339   6.733   7.233  0.0251 -0.4124  0.2897
 2933ntf    fn416994   2.410   6.934   7.203 -0.2822 -0.3664 -0.7872
 2933ntf    fn416995   2.242   6.884   7.327 -0.3474 -0.4157 -0.2245
 2934ntf    cn116996   3.237   0.398   6.660  0.1938  0.2094 -0.1199
 2934ntf    sn216997   3.255   0.261   6.777  0.0143  0.2757 -0.0143
 2934ntf    nn316998   3.411   0.250   6.769 -0.0280 -0.2607 -0.1547
 2934ntf    sn216999   3.519   0.325   6.855 -0.2372 -0.0101 -0.1064
 2934ntf    cn117000   3.642   0.343   6.722 -0.0445 -0.3158  0.0274
 2934ntf    fn417001   3.311   0.397   6.550  0.1891  0.1620 -0.1223
 2934ntf    fn417002   3.108   0.395   6.627  0.0400  0.6492  0.4242
 2934ntf    fn417003   3.267   0.517   6.710  0.2009  0.2140 -0.1350
 2934ntf    on517004   3.202   0.320   6.898  0.0403 -0.2551  0.2607
 2934ntf    on517005   3.193   0.144   6.720  0.8606  0.0751 -0.5285
 2934ntf    on517006   3.596   0.244   6.947  0.2218  0.5058 -0.0333
 2934ntf    on517007   3.493   0.463   6.884 -0.5637 -0.3003  1.0255
 2934ntf    fn417008   3.687   0.226   6.680  0.5544 -0.1402  0.1686
 2934ntf    fn417009   3.587   0.389   6.611  0.9523 -0.2465 -0.4552
 2934ntf    fn417010   3.747   0.416   6.758  0.1376 -0.6558  0.1926
 2935ntf    cn117011   6.902   2.438   5.304 -0.1843 -0.3733 -0.4153
 2935ntf    sn217012   7.076   2.478   5.338 -0.3891  0.0748  0.1144
 2935ntf    nn317013   7.066   2.576   5.460  0.3295 -0.0659  0.2895
 2935ntf    sn217014   7.084   2.529   5.609 -0.1422 -0.1607  0.3158
 2935ntf    cn117015   7.264   2.530   5.634 -0.1347 -0.4235  0.2762
 2935ntf    fn417016   6.881   2.361   5.199  0.8843 -0.7543 -0.3643
 2935ntf    fn417017   6.847   2.373   5.405  0.4020  0.2656  0.3250
 2935ntf    fn417018   6.825   2.542   5.278 -0.0084 -0.0939  0.1665
 2935ntf    on517019   7.140   2.350   5.355  0.3741  0.4806  0.3368
 2935ntf    on517020   7.114   2.557   5.224 -0.3879  0.4430  0.3679
 2935ntf    on517021   7.044   2.393   5.633  0.7034 -0.5819 -0.5999
 2935ntf    on517022   7.037   2.627   5.704  0.0746 -0.0867  0.3475
 2935ntf    fn417023   7.323   2.415   5.605  0.2999 -0.1684  0.1467
 2935ntf    fn417024   7.328   2.615   5.556 -0.2768 -0.2315  0.3688
 2935ntf    fn417025   7.305   2.560   5.756 -0.1517 -0.2412  0.2380
 2936ntf    cn117026   1.892   1.717   3.121  0.1550 -0.2091  0.1842
 2936ntf    sn217027   1.774   1.631   3.012  0.0019 -0.0414  0.2170
 2936ntf    nn317028   1.766   1.746   2.906 -0.4411 -0.0949  0.1910
 2936ntf    sn217029   1.661   1.864   2.908  0.0350  0.3327  0.2108
 2936ntf    cn117030   1.514   1.793   2.829  0.0554  0.2319  0.2621
 2936ntf    fn417031   2.011   1.734   3.065 -0.1104  0.2145 -0.2658
 2936ntf    fn417032   1.853   1.840   3.151 -0.4103 -0.3209 -0.0710
 2936ntf    fn417033   1.915   1.655   3.235  0.4884 -0.3208  0.0588
 2936ntf    on517034   1.833   1.510   2.961  0.0948 -0.0663  0.3829
 2936ntf    on517035   1.654   1.608   3.089 -0.2010 -0.6461 -0.2791
 2936ntf    on517036   1.707   1.957   2.808 -0.3928  0.1561 -0.1516
 2936ntf    on517037   1.616   1.916   3.034 -0.1501  0.5740  0.0449
 2936ntf    fn417038   1.410   1.875   2.836 -0.1210 -0.0079  0.4639
 2936ntf    fn417039   1.540   1.768   2.702  0.3695  0.2551  0.3225
 2936ntf    fn417040   1.467   1.687   2.892 -0.1445 -0.1128 -0.4592
 2937ntf    cn117041   1.024   1.957   5.721 -0.1009  0.3450 -0.0561
 2937ntf    sn217042   1.022   1.893   5.891  0.1206 -0.1125 -0.2255
 2937ntf    nn317043   0.923   1.772   5.887  0.0058 -0.0220 -0.1145
 2937ntf    sn217044   0.820   1.734   6.000 -0.3167  0.1786 -0.3382
 2937ntf    cn117045   0.686   1.829   5.923 -0.6760  0.1064  0.1908
 2937ntf    fn417046   1.060   1.863   5.636  0.3586  0.6052 -0.1515
 2937ntf    fn417047   0.910   2.005   5.674 -0.3272 -0.0972  0.0359
 2937ntf    fn417048   1.107   2.059   5.708  0.0620  0.2051 -0.1135
 2937ntf    on517049   1.159   1.850   5.911  0.1831  0.2946  0.2412
 2937ntf    on517050   0.990   2.009   5.971  0.0812 -0.3417  0.0935
 2937ntf    on517051   0.839   1.785   6.133 -0.0505  0.5340 -0.5107
 2937ntf    on517052   0.772   1.598   5.992 -0.5050  0.2469 -0.3768
 2937ntf    fn417053   0.665   1.802   5.795  0.0701 -0.0400  0.0956
 2937ntf    fn417054   0.567   1.813   5.977 -0.3547 -0.9683  0.6050
 2937ntf    fn417055   0.708   1.959   5.934 -0.3690  0.0854 -0.1348
 2938ntf    cn117056   0.823   2.528   0.897  0.1973  0.1246  0.2233
 2938ntf    sn217057   0.851   2.627   0.747  0.0238  0.2821  0.2930
 2938ntf    nn317058   0.833   2.516   0.637  0.8758  0.4966 -0.0754
 2938ntf    sn217059   0.781   2.520   0.489 -0.0810 -0.2271  0.2354
 2938ntf    cn117060   0.618   2.440   0.502 -0.3102  0.2318  0.1973
 2938ntf    fn417061   0.890   2.415   0.909  0.1760  0.1210  0.3108
 2938ntf    fn417062   0.840   2.597   1.008  0.2564 -0.1294  0.3728
 2938ntf    fn417063   0.697   2.491   0.913  0.2199 -0.0584 -0.0138
 2938ntf    on517064   0.733   2.707   0.763  0.3280  0.8348 -0.2069
 2938ntf    on517065   0.981   2.687   0.766 -0.1393  0.7694 -0.1243
 2938ntf    on517066   0.849   2.416   0.415 -0.2084 -0.2364  0.1306
 2938ntf    on517067   0.752   2.643   0.420  0.0673 -0.0529  0.4814
 2938ntf    fn417068   0.624   2.316   0.455 -0.1176  0.3502 -0.0946
 2938ntf    fn417069   0.590   2.433   0.631 -0.2924 -0.0880  0.1845
 2938ntf    fn417070   0.520   2.506   0.443 -0.3081  0.1749  0.1295
 2939ntf    cn117071   4.128   5.794   5.962 -0.1026  0.2198  0.1124
 2939ntf    sn217072   3.975   5.776   5.866  0.0238 -0.4417  0.0337
 2939ntf    nn317073   3.999   5.893   5.764 -0.9021 -0.4999 -0.2568
 2939ntf    sn217074   4.069   5.888   5.623  0.2170 -0.0398  0.2736
 2939ntf    cn117075   3.934   5.910   5.503  0.2302  0.0571  0.2764
 2939ntf    fn417076   4.162   5.921   5.977  0.6917 -0.0049  0.2839
 2939ntf    fn417077   4.122   5.732   6.078 -0.0035 -0.1805 -0.0940
 2939ntf    fn417078   4.225   5.728   5.901 -0.0363 -0.0305  0.4870
 2939ntf    on517079   3.978   5.639   5.818 -0.0601 -0.4275 -0.0118
 2939ntf    on517080   3.867   5.805   5.956 -0.0619  0.3280 -0.3111
 2939ntf    on517081   4.124   5.761   5.583 -0.0953 -0.0917  0.0060
 2939ntf    on517082   4.156   5.999   5.592 -0.4873  0.4873  0.1507
 2939ntf    fn417083   3.849   5.809   5.512 -0.1501  0.3300 -0.1808
 2939ntf    fn417084   3.873   6.026   5.523  0.0783  0.0411 -0.0932
 2939ntf    fn417085   3.971   5.909   5.376 -0.1793  0.2901  0.1534
 2940ntf    cn117086   4.571   5.199   6.149 -0.1964 -0.0617  0.4067
 2940ntf    sn217087   4.434   5.309   6.193  0.0596  0.3122  0.2703
 2940ntf    nn317088   4.515   5.443   6.185 -0.0887  0.3568 -0.5461
 2940ntf    sn217089   4.484   5.567   6.276  0.4363  0.2119 -0.1663
 2940ntf    cn117090   4.629   5.572   6.385  0.4446 -0.3187 -0.1505
 2940ntf    fn417091   4.678   5.221   6.224  0.0708  0.2104 -0.0518
 2940ntf    fn417092   4.542   5.070   6.160  1.0440 -0.3491  0.4798
 2940ntf    fn417093   4.603   5.210   6.022 -0.6020 -0.8078  0.2321
 2940ntf    on517094   4.359   5.288   6.072  0.0891  0.1248  0.2848
 2940ntf    on517095   4.401   5.253   6.322  0.2108  0.2344  0.2745
 2940ntf    on517096   4.377   5.542   6.369  0.3569 -0.6996 -0.4909
 2940ntf    on517097   4.485   5.690   6.201  0.2803  0.5481  0.3752
 2940ntf    fn417098   4.615   5.480   6.480  0.3849 -0.4815 -0.3177
 2940ntf    fn417099   4.745   5.549   6.325  0.4625 -0.2267 -0.1515
 2940ntf    fn417100   4.633   5.684   6.455 -0.1526 -0.0760 -0.5017
 2941ntf    cn117101   0.070   0.672   4.559  0.4079  0.3535  0.3298
 2941ntf    sn217102   0.188   0.718   4.428  0.1085  0.0471 -0.0515
 2941ntf    nn317103   0.320   0.655   4.483  0.1062 -0.0943 -0.2086
 2941ntf    sn217104   0.470   0.701   4.479  0.0766  0.0233  0.0369
 2941ntf    cn117105   0.533   0.571   4.369  0.1069 -0.1297  0.2322
 2941ntf    fn417106  -0.056   0.705   4.537  0.3202 -0.1077  0.1187
 2941ntf    fn417107   0.070   0.542   4.580  0.1767  0.3275  0.1754
 2941ntf    fn417108   0.106   0.721   4.676  0.2005  0.3673  0.3878
 2941ntf    on517109   0.136   0.664   4.305 -0.3013  0.3988 -0.0380
 2941ntf    on517110   0.175   0.861   4.441  0.0631  0.1020 -0.6834
 2941ntf    on517111   0.541   0.674   4.603  0.1987  0.0330 -0.0304
 2941ntf    on517112   0.509   0.824   4.415 -0.0279  0.2680  0.4427
 2941ntf    fn417113   0.487   0.588   4.246  0.4244 -0.2006  0.1017
 2941ntf    fn417114   0.665   0.574   4.358  0.0542 -0.0830 -0.4511
 2941ntf    fn417115   0.496   0.452   4.413 -0.6001 -0.3054 -0.7846
 2942ntf    cn117116   0.445   1.679   0.246  0.0003 -0.1489  0.1035
 2942ntf    sn217117   0.460   1.632   0.071  0.0300  0.1344  0.0302
 2942ntf    nn317118   0.339   1.706   0.002  0.0726 -0.1875 -0.3938
 2942ntf    sn217119   0.319   1.845  -0.068 -0.1959 -0.0126  0.0222
 2942ntf    cn117120   0.367   1.803  -0.238 -0.2824  0.2102 -0.0568
 2942ntf    fn417121   0.463   1.810   0.250  0.1970 -0.1356 -0.8778
 2942ntf    fn417122   0.318   1.666   0.282 -0.1567  0.8196 -0.0638
 2942ntf    fn417123   0.523   1.608   0.326 -0.2732 -0.1244  0.3912
 2942ntf    on517124   0.587   1.686   0.030  0.0543 -0.4591 -0.6897
 2942ntf    on517125   0.440   1.490   0.059 -0.5621  0.2947 -1.0039
 2942ntf    on517126   0.414   1.940  -0.017  0.0456 -0.3236  0.1609
 2942ntf    on517127   0.180   1.881  -0.078 -0.2743 -0.4109 -0.3980
 2942ntf    fn417128   0.493   1.763  -0.241 -0.4777 -0.3784 -0.7733
 2942ntf    fn417129   0.295   1.711  -0.300 -0.1499 -0.3180  0.5680
 2942ntf    fn417130   0.360   1.913  -0.312 -0.3383  0.5428  0.4384
 2943ntf    cn117131   3.965   0.452   3.740  0.1075 -0.0971 -0.0847
 2943ntf    sn217132   3.937   0.273   3.753 -0.2305 -0.0184  0.2869
 2943ntf    nn317133   3.972   0.241   3.603 -0.5020 -0.0110  0.2217
 2943ntf    sn217134   3.920   0.134   3.501  0.0726  0.1858 -0.2821
 2943ntf    cn117135   3.864   0.247   3.371  0.0735 -0.2906 -0.7004
 2943ntf    fn417136   3.965   0.515   3.857  0.2935 -0.4023  0.0825
 2943ntf    fn417137   4.090   0.472   3.700  0.2753 -0.3940  0.2819
 2943ntf    fn417138   3.887   0.520   3.658  0.3874  0.1252 -0.1684
 2943ntf    on517139   4.040   0.222   3.840 -0.5303 -0.0566  0.6203
 2943ntf    on517140   3.799   0.255   3.791 -0.6005  0.8308 -0.6369
 2943ntf    on517141   3.807   0.054   3.542  0.3817 -0.1060  0.0065
 2943ntf    on517142   4.029   0.068   3.434  0.0826 -0.1249  0.0359
 2943ntf    fn417143   3.955   0.329   3.320  0.2007 -0.0784 -0.1306
 2943ntf    fn417144   3.809   0.173   3.276  0.3020 -0.6045 -0.5877
 2943ntf    fn417145   3.766   0.323   3.416  0.6478  0.5558 -0.8520
 2944ntf    cn117146   1.456   4.972   5.223  0.0082  0.1923 -0.3673
 2944ntf    sn217147   1.594   5.001   5.338 -0.4991 -0.2260  0.3536
 2944ntf    nn317148   1.677   5.102   5.251 -0.0108 -0.2859  0.7444
 2944ntf    sn217149   1.833   5.108   5.247 -0.0322 -0.1901 -0.1168
 2944ntf    cn117150   1.871   4.979   5.125 -0.1289 -0.3460  0.0194
 2944ntf    fn417151   1.493   4.925   5.105  0.0807  0.0015 -0.2703
 2944ntf    fn417152   1.358   4.898   5.274  0.4985 -0.1529  0.0933
 2944ntf    fn417153   1.401   5.089   5.196  0.5382  0.4075 -0.5223
 2944ntf    on517154   1.525   5.067   5.447 -0.1087  0.3772  0.2397
 2944ntf    on517155   1.642   4.866   5.350 -0.8605 -0.4265 -0.4316
 2944ntf    on517156   1.895   5.075   5.373  0.0693 -0.7540 -0.3112
 2944ntf    on517157   1.877   5.228   5.180  0.3282  0.0703  0.5710
 2944ntf    fn417158   1.767   4.898   5.125 -0.7914  0.4990 -0.2828
 2944ntf    fn417159   1.871   5.029   5.003  0.3097 -0.7074 -0.1341
 2944ntf    fn417160   1.981   4.906   5.138 -0.1085 -0.3917 -0.4043
 2945ntf    cn117161   5.018   2.381   5.050 -0.1189  0.1638  0.1935
 2945ntf    sn217162   5.200   2.387   5.043 -0.1151  0.1495  0.2878
 2945ntf    nn317163   5.228   2.467   4.911  0.0535 -0.2946  0.0538
 2945ntf    sn217164   5.360   2.536   4.864 -0.1690  0.0260 -0.1019
 2945ntf    cn117165   5.328   2.713   4.889  0.1268  0.0546  0.0801
 2945ntf    fn417166   4.978   2.303   5.149 -0.7932  0.1431 -0.0932
 2945ntf    fn417167   4.965   2.499   5.077  0.0899  0.3896 -0.3570
 2945ntf    fn417168   4.969   2.336   4.936 -0.6030  0.1456  0.4083
 2945ntf    on517169   5.237   2.464   5.160 -0.1780  0.7235 -0.0686
 2945ntf    on517170   5.231   2.246   5.044 -0.4021  0.0830 -0.0527
 2945ntf    on517171   5.372   2.526   4.721  0.1209  0.3862 -0.1053
 2945ntf    on517172   5.485   2.518   4.934 -0.4352  0.2665  0.4377
 2945ntf    fn417173   5.335   2.740   5.019 -0.6422 -0.2820  0.1968
 2945ntf    fn417174   5.430   2.778   4.834  0.2843  0.0656  0.3824
 2945ntf    fn417175   5.214   2.761   4.842 -0.1121 -0.3174  0.2795
 2946ntf    cn117176   5.538   4.178   7.041 -0.0843  0.0542 -0.1287
 2946ntf    sn217177   5.499   4.041   6.928 -0.1076  0.1277 -0.2105
 2946ntf    nn317178   5.622   3.947   6.954 -0.0219  0.2303 -0.2510
 2946ntf    sn217179   5.745   3.923   6.858  0.1451 -0.2443  0.0773
 2946ntf    cn117180   5.659   3.796   6.762  0.3699 -0.3910  0.0703
 2946ntf    fn417181   5.481   4.292   7.005 -0.0796  0.1122  0.0489
 2946ntf    fn417182   5.499   4.153   7.165 -0.3398 -0.1875 -0.2547
 2946ntf    fn417183   5.667   4.206   7.046 -0.0148 -0.3033  0.1501
 2946ntf    on517184   5.378   3.983   6.981  0.1507  0.0869  0.3480
 2946ntf    on517185   5.487   4.097   6.796  0.4094 -0.1214 -0.3643
 2946ntf    on517186   5.848   3.846   6.924  0.2349 -0.5727 -0.4396
 2946ntf    on517187   5.782   4.028   6.766  0.5996 -0.2215  0.2836
 2946ntf    fn417188   5.615   3.693   6.833 -0.1070 -0.0374  0.2964
 2946ntf    fn417189   5.551   3.848   6.706  0.6431  0.2372  0.1264
 2946ntf    fn417190   5.741   3.750   6.669  0.3009 -0.0415 -0.1645
 2947ntf    cn117191   5.056   3.958   1.044  0.1362  0.4184 -0.0628
 2947ntf    sn217192   5.215   3.989   0.961  0.1972  0.0358 -0.0918
 2947ntf    nn317193   5.164   4.001   0.813  0.5831  0.1791 -0.2127
 2947ntf    sn217194   5.178   3.907   0.689 -0.2257  0.0743 -0.2311
 2947ntf    cn117195   5.041   3.970   0.588 -0.1267  0.2011 -0.2871
 2947ntf    fn417196   5.070   3.973   1.175  0.1236  0.3466 -0.0530
 2947ntf    fn417197   4.960   4.035   0.997 -0.1810  0.3070  0.3852
 2947ntf    fn417198   5.007   3.836   1.028  0.1416  0.4404 -0.2434
 2947ntf    on517199   5.257   4.116   1.014  0.3556  0.2114 -0.6353
 2947ntf    on517200   5.304   3.882   0.999  0.5470  0.4240  0.1906
 2947ntf    on517201   5.134   3.770   0.697 -0.3862  0.0883 -0.8083
 2947ntf    on517202   5.291   3.946   0.608  0.2241 -0.2916  0.2119
 2947ntf    fn417203   5.055   4.098   0.561  0.6718  0.0741 -0.5105
 2947ntf    fn417204   5.031   3.913   0.469  0.2082  0.3484 -0.3875
 2947ntf    fn417205   4.926   3.952   0.651  0.0999 -0.5365 -0.0672
 2948ntf    cn117206   2.652   6.785   1.333 -0.2101 -0.0898 -0.1754
 2948ntf    sn217207   2.829   6.771   1.373 -0.2906 -0.2335  0.1290
 2948ntf    nn317208   2.848   6.618   1.342 -0.0115 -0.1918  0.0932
 2948ntf    sn217209   2.854   6.540   1.206 -0.1768  0.0123 -0.0320
 2948ntf    cn117210   3.033   6.522   1.174 -0.1772  0.4106 -0.2629
 2948ntf    fn417211   2.612   6.905   1.371 -0.5126 -0.3617  0.3870
 2948ntf    fn417212   2.637   6.775   1.202  0.9588 -0.2105 -0.3105
 2948ntf    fn417213   2.573   6.702   1.400  0.0881 -0.4702 -0.2902
 2948ntf    on517214   2.897   6.871   1.296 -0.7306 -0.0589 -0.0366
 2948ntf    on517215   2.839   6.796   1.515  0.3150  0.3571 -0.0178
 2948ntf    on517216   2.803   6.609   1.090  0.1031  0.8550  0.3416
 2948ntf    on517217   2.811   6.404   1.227  0.4769 -0.1814  0.0923
 2948ntf    fn417218   3.058   6.481   1.051 -0.9511 -0.1336 -0.2510
 2948ntf    fn417219   3.089   6.640   1.195 -0.0023  0.2965 -0.0854
 2948ntf    fn417220   3.090   6.438   1.258 -0.4967  0.3001 -0.1539
 2949ntf    cn117221   4.361   2.405   6.308  0.2797 -0.3217  0.1279
 2949ntf    sn217222   4.523   2.396   6.391  0.2718 -0.0963  0.1684
 2949ntf    nn317223   4.562   2.546   6.415  0.1876  0.0679 -0.6617
 2949ntf    sn217224   4.709   2.598   6.434  0.1186 -0.0487  0.2343
 2949ntf    cn117225   4.753   2.619   6.259 -0.1643  0.0470  0.1735
 2949ntf    fn417226   4.270   2.447   6.394  0.0530  0.4964 -0.4949
 2949ntf    fn417227   4.360   2.483   6.201  0.4884 -0.6772 -0.1343
 2949ntf    fn417228   4.324   2.281   6.278  0.3246 -0.3851  0.3348
 2949ntf    on517229   4.502   2.320   6.511  0.4854 -0.0767  0.2189
 2949ntf    on517230   4.598   2.326   6.290 -0.4771  0.1947 -0.6029
 2949ntf    on517231   4.800   2.507   6.500 -0.0877 -0.2307  0.2698
 2949ntf    on517232   4.710   2.728   6.496 -0.4910 -0.1532  0.4723
 2949ntf    fn417233   4.879   2.654   6.240 -0.0144 -0.5435  0.0771
 2949ntf    fn417234   4.735   2.510   6.186  0.2283  0.2402 -0.2156
 2949ntf    fn417235   4.672   2.712   6.211 -0.2863  0.2193  0.7034
 2950ntf    cn117236   1.612   0.045   5.147 -0.4146  0.3708  0.0642
 2950ntf    sn217237   1.757   0.013   5.042 -0.3636  0.0233  0.2382
 2950ntf    nn317238   1.870   0.081   5.127  0.0963  0.3315 -0.6135
 2950ntf    sn217239   2.019   0.101   5.082  0.2674 -0.1572 -0.2659
 2950ntf    cn117240   2.041   0.280   5.101 -0.0096 -0.1697  0.1717
 2950ntf    fn417241   1.497  -0.002   5.101 -0.5121 -0.3311  0.9774
 2950ntf    fn417242   1.631  -0.010   5.266 -0.5138  0.3370  0.0639
 2950ntf    fn417243   1.587   0.174   5.159 -0.3842  0.3947 -0.1358
 2950ntf    on517244   1.766  -0.131   5.040 -0.2128  0.0328  0.1573
 2950ntf    on517245   1.721   0.070   4.915  0.2756 -0.0494  0.0222
 2950ntf    on517246   2.041   0.097   4.939 -0.4192 -0.2421 -0.3737
 2950ntf    on517247   2.117   0.046   5.172  0.0568  0.0161  0.0680
 2950ntf    fn417248   1.990   0.322   5.216  0.2328  0.0120  0.2137
 2950ntf    fn417249   2.170   0.311   5.106 -0.1205  0.3667 -0.1177
 2950ntf    fn417250   1.991   0.349   4.999  0.0084 -0.4126 -0.0011
 2951ntf    cn117251   3.367   3.507   5.537 -0.4124 -0.0888  0.1682
 2951ntf    sn217252   3.413   3.341   5.594  0.2095 -0.0927 -0.3432
 2951ntf    nn317253   3.557   3.374   5.648  0.0252  0.5304 -0.2301
 2951ntf    sn217254   3.698   3.343   5.586 -0.0216  0.0427 -0.0934
 2951ntf    cn117255   3.736   3.172   5.637  0.0557  0.1031  0.0528
 2951ntf    fn417256   3.451   3.558   5.449 -0.2369 -0.2466  0.2451
 2951ntf    fn417257   3.252   3.508   5.471  0.0618 -0.0216 -0.6565
 2951ntf    fn417258   3.348   3.584   5.643 -0.3166  0.4966 -0.2380
 2951ntf    on517259   3.331   3.317   5.710 -0.0485  0.2101 -0.4628
 2951ntf    on517260   3.385   3.266   5.474 -0.4579  0.0488 -0.2764
 2951ntf    on517261   3.805   3.408   5.656  0.2983 -0.5980  0.0251
 2951ntf    on517262   3.700   3.353   5.442  0.3641  0.3235 -0.0694
 2951ntf    fn417263   3.852   3.125   5.594 -0.2223 -0.5168 -0.0308
 2951ntf    fn417264   3.740   3.163   5.769  0.3211  0.5879  0.0810
 2951ntf    fn417265   3.644   3.084   5.603  0.0454  0.1751 -0.1068
 2952ntf    cn117266   0.644   1.629   0.753 -0.1870 -0.1035 -0.4212
 2952ntf    sn217267   0.692   1.801   0.719 -0.0496 -0.0739 -0.0827
 2952ntf    nn317268   0.543   1.852   0.721 -0.2279 -0.5926  0.0629
 2952ntf    sn217269   0.464   1.960   0.639  0.0498 -0.3646  0.0954
 2952ntf    cn117270   0.461   2.097   0.759  0.3622 -0.7571  0.5549
 2952ntf    fn417271   0.600   1.607   0.876 -0.2619 -0.4228 -0.5051
 2952ntf    fn417272   0.557   1.590   0.661 -0.5858  0.5221 -0.3159
 2952ntf    fn417273   0.744   1.543   0.743 -0.5107 -0.5268 -0.0401
 2952ntf    on517274   0.766   1.836   0.838 -0.0009  0.5546 -0.2946
 2952ntf    on517275   0.752   1.785   0.589  0.3331  0.0899  0.0736
 2952ntf    on517276   0.327   1.924   0.615 -0.1655  0.2706  0.3473
 2952ntf    on517277   0.532   2.029   0.532  0.0027  0.3412  0.5071
 2952ntf    fn417278   0.391   2.062   0.865 -1.0010  0.0178 -0.0584
 2952ntf    fn417279   0.585   2.134   0.790  0.2772  0.4127 -0.4100
 2952ntf    fn417280   0.401   2.206   0.715  1.1101 -0.1850  0.9261
 2953ntf    cn117281   1.393   2.262   4.442 -0.0097  0.0000 -0.0205
 2953ntf    sn217282   1.447   2.323   4.279 -0.2329 -0.1294 -0.1436
 2953ntf    nn317283   1.521   2.455   4.321  0.3348 -0.3423 -0.4604
 2953ntf    sn217284   1.677   2.471   4.328  0.2651  0.1180  0.2048
 2953ntf    cn117285   1.700   2.651   4.324 -0.1939  0.1731 -0.0391
 2953ntf    fn417286   1.373   2.365   4.523 -0.5862  0.3803 -0.6316
 2953ntf    fn417287   1.297   2.171   4.446  0.0172 -0.0341 -0.1340
 2953ntf    fn417288   1.490   2.200   4.507  0.6428  0.7647 -0.2451
 2953ntf    on517289   1.523   2.214   4.222  0.0088 -0.3777  0.6405
 2953ntf    on517290   1.319   2.355   4.222 -0.3932 -0.2398  0.1541
 2953ntf    on517291   1.743   2.435   4.204 -0.6614 -0.2937 -0.1774
 2953ntf    on517292   1.740   2.427   4.450  0.4562  0.6608  0.3056
 2953ntf    fn417293   1.646   2.717   4.223 -0.4028 -0.1714 -0.1526
 2953ntf    fn417294   1.644   2.701   4.433 -0.4451  0.0752 -0.1229
 2953ntf    fn417295   1.828   2.682   4.329 -0.2599  0.3702  0.6243
 2954ntf    cn117296   1.445   4.226   6.555  0.2319 -0.1605  0.4336
 2954ntf    sn217297   1.303   4.327   6.608 -0.0520 -0.3009 -0.0511
 2954ntf    nn317298   1.331   4.308   6.762  0.1078  0.2498 -0.0125
 2954ntf    sn217299   1.264   4.208   6.862  0.4658  0.1615  0.1422
 2954ntf    cn117300   1.405   4.201   6.977  0.4628 -0.2912  0.1188
 2954ntf    fn417301   1.560   4.291   6.557 -0.2521  0.7180  0.1084
 2954ntf    fn417302   1.463   4.120   6.632 -0.2821 -0.3779  0.2549
 2954ntf    fn417303   1.430   4.174   6.434  1.0194  0.5037  0.0362
 2954ntf    on517304   1.342   4.457   6.561  0.4104 -0.3541  0.1744
 2954ntf    on517305   1.187   4.257   6.558  0.0194 -0.5893  0.1795
 2954ntf    on517306   1.252   4.073   6.815  0.7100  0.1990 -0.0286
 2954ntf    on517307   1.159   4.253   6.950  0.3203 -0.5228  0.3235
 2954ntf    fn417308   1.371   4.128   7.082  0.0451  0.3308  0.4250
 2954ntf    fn417309   1.510   4.148   6.916 -0.0264 -0.5905 -0.4792
 2954ntf    fn417310   1.432   4.324   7.019  0.3865  0.0302 -0.7506
 2955ntf    cn117311   4.909   2.995   3.333  0.1602 -0.0800 -0.0469
 2955ntf    sn217312   4.871   2.897   3.185 -0.0780 -0.1594  0.0666
 2955ntf    nn317313   4.721   2.862   3.217 -0.0619 -0.2066  0.0885
 2955ntf    sn217314   4.661   2.741   3.297 -0.0102 -0.2833  0.0114
 2955ntf    cn117315   4.485   2.771   3.265 -0.0854 -0.6136  0.1107
 2955ntf    fn417316   5.033   3.040   3.322  0.2950 -0.4944 -0.2178
 2955ntf    fn417317   4.833   3.103   3.342  0.2298  0.0019 -0.4035
 2955ntf    fn417318   4.911   2.930   3.448  0.2850 -0.2925 -0.1672
 2955ntf    on517319   4.875   2.983   3.069 -0.4871 -0.4933 -0.1986
 2955ntf    on517320   4.954   2.779   3.194  0.1828 -0.0025 -0.2856
 2955ntf    on517321   4.668   2.761   3.439 -0.3255  0.1471 -0.0319
 2955ntf    on517322   4.689   2.614   3.236  0.4108 -0.2825  0.2015
 2955ntf    fn417323   4.470   2.811   3.140 -0.6537  0.3509  0.4715
 2955ntf    fn417324   4.400   2.672   3.287  0.0475 -0.6173  0.6027
 2955ntf    fn417325   4.445   2.867   3.347  0.0429  0.3472 -0.9301
 2956ntf    cn117326   5.437   3.521   6.688  0.1667  0.0210 -0.3241
 2956ntf    sn217327   5.290   3.417   6.658  0.0330  0.1030  0.0471
 2956ntf    nn317328   5.272   3.338   6.793  0.0608  0.3417  0.1923
 2956ntf    sn217329   5.324   3.205   6.858  0.0763  0.2770  0.0498
 2956ntf    cn117330   5.197   3.094   6.790  0.2198 -0.1528  0.4685
 2956ntf    fn417331   5.429   3.572   6.810  0.2540 -0.1366 -0.2517
 2956ntf    fn417332   5.551   3.455   6.679  0.2573  0.1598 -0.1793
 2956ntf    fn417333   5.439   3.619   6.599 -0.1393  0.3708  0.0515
 2956ntf    on517334   5.184   3.514   6.662  0.1435  0.2524 -0.6283
 2956ntf    on517335   5.307   3.340   6.537  0.0855 -0.0509  0.1512
 2956ntf    on517336   5.301   3.184   6.999 -0.3491  0.1511 -0.0362
 2956ntf    on517337   5.441   3.147   6.798 -0.1220 -0.3880  0.2869
 2956ntf    fn417338   5.215   2.971   6.834 -0.3827 -0.4339 -0.0497
 2956ntf    fn417339   5.075   3.134   6.824 -0.1028 -0.4730 -0.2735
 2956ntf    fn417340   5.207   3.082   6.658  0.1673  1.5745  0.2778
 2957ntf    cn117341   1.636   0.623   5.016  0.1852 -0.1986 -0.2720
 2957ntf    sn217342   1.531   0.741   4.926  0.0817  0.2706  0.4532
 2957ntf    nn317343   1.390   0.680   4.961 -0.0356  0.0522 -0.3863
 2957ntf    sn217344   1.281   0.751   5.048  0.1965 -0.1395  0.0614
 2957ntf    cn117345   1.334   0.687   5.210  0.0535  0.3967  0.3240
 2957ntf    fn417346   1.611   0.635   5.146  0.6806 -0.3079 -0.1644
 2957ntf    fn417347   1.593   0.501   4.987  0.2094 -0.1277 -0.6113
 2957ntf    fn417348   1.765   0.631   4.987  0.2811 -0.4269  0.0831
 2957ntf    on517349   1.568   0.872   4.972  0.1418  0.4321 -0.0465
 2957ntf    on517350   1.569   0.721   4.788 -0.4996 -0.3685  0.3760
 2957ntf    on517351   1.152   0.690   5.031  0.6080 -0.6710 -1.2530
 2957ntf    on517352   1.280   0.893   5.072 -0.1927 -0.1960  0.3894
 2957ntf    fn417353   1.363   0.558   5.206 -0.0427  0.3803  0.1736
 2957ntf    fn417354   1.446   0.748   5.245  0.1538  0.1646  0.4072
 2957ntf    fn417355   1.236   0.711   5.295  0.2577 -0.6514  0.8714
 2958ntf    cn117356   2.140   6.280   5.383  0.1084  0.1145  0.0360
 2958ntf    sn217357   2.216   6.327   5.224 -0.1548  0.5133  0.0263
 2958ntf    nn317358   2.355   6.254   5.237 -0.3223  0.0892 -0.5271
 2958ntf    sn217359   2.486   6.320   5.293 -0.3749 -0.2523  0.0096
 2958ntf    cn117360   2.528   6.445   5.168  0.1513  0.1561  0.5964
 2958ntf    fn417361   2.035   6.357   5.408  0.4256  0.5743 -0.0314
 2958ntf    fn417362   2.106   6.153   5.368 -0.4542  0.3220 -0.5040
 2958ntf    fn417363   2.216   6.300   5.489 -0.3936 -0.0422  0.4289
 2958ntf    on517364   2.133   6.270   5.122  0.2123  0.1784 -0.0877
 2958ntf    on517365   2.219   6.470   5.238 -0.2105  0.5117  0.0571
 2958ntf    on517366   2.598   6.230   5.292 -0.2061 -0.0404 -0.1318
 2958ntf    on517367   2.463   6.390   5.417 -0.5801  0.5098 -0.4547
 2958ntf    fn417368   2.640   6.508   5.202  0.4953 -0.3695  0.4356
 2958ntf    fn417369   2.552   6.386   5.052  0.2255  0.4505  0.4612
 2958ntf    fn417370   2.432   6.532   5.142  0.4910  0.4638  0.3544
 2959ntf    cn117371   5.830   4.156   5.829  0.1597  0.4854  0.1215
 2959ntf    sn217372   5.930   4.006   5.811 -0.1868  0.2951 -0.2134
 2959ntf    nn317373   5.893   3.964   5.664  0.5677  0.2452 -0.3946
 2959ntf    sn217374   5.850   3.826   5.603 -0.0523  0.2700 -0.0264
 2959ntf    cn117375   5.998   3.721   5.621  0.1208  0.5710  0.3165
 2959ntf    fn417376   5.703   4.122   5.833  0.1055  0.6551 -0.0848
 2959ntf    fn417377   5.850   4.225   5.940  0.8167  0.6040 -0.0661
 2959ntf    fn417378   5.845   4.232   5.721  0.8475  0.7565  0.3978
 2959ntf    on517379   6.062   4.064   5.811  0.1313 -0.4081 -0.0765
 2959ntf    on517380   5.894   3.922   5.923 -0.3942  0.6647 -0.0023
 2959ntf    on517381   5.827   3.837   5.461 -0.0309  0.4298 -0.0170
 2959ntf    on517382   5.747   3.753   5.673 -0.0470  0.4782  0.1972
 2959ntf    fn417383   6.016   3.686   5.747  0.0400 -0.0663  0.1557
 2959ntf    fn417384   5.982   3.612   5.548  0.3243  0.7965 -0.0632
 2959ntf    fn417385   6.106   3.785   5.580  0.3309  0.4881  0.7304
 2960ntf    cn117386   4.638   4.029   2.832  0.2395  0.0507  0.3194
 2960ntf    sn217387   4.628   3.944   2.671  0.5444  0.1863  0.2293
 2960ntf    nn317388   4.664   3.795   2.704 -0.0324  0.0864  0.4181
 2960ntf    sn217389   4.794   3.707   2.689 -0.1062  0.0280  0.1171
 2960ntf    cn117390   4.845   3.690   2.863 -0.1758  0.2265  0.1570
 2960ntf    fn417391   4.604   4.155   2.811  0.2670 -0.0738 -0.5292
 2960ntf    fn417392   4.559   3.980   2.926 -0.1817  0.1979  0.0449
 2960ntf    fn417393   4.761   4.028   2.881  0.1861  0.3756  0.4542
 2960ntf    on517394   4.491   3.958   2.630  0.5475 -0.1381  0.1078
 2960ntf    on517395   4.720   4.007   2.579  0.2806  0.3403  0.0717
 2960ntf    on517396   4.904   3.772   2.624  0.2218 -0.2139  0.4215
 2960ntf    on517397   4.762   3.571   2.654  0.0262 -0.0062  0.1318
 2960ntf    fn417398   4.936   3.596   2.883 -0.3736 -0.0659 -0.3127
 2960ntf    fn417399   4.879   3.807   2.916 -0.7798  0.6632 -0.4012
 2960ntf    fn417400   4.739   3.650   2.932 -0.0786 -0.2990  0.0025
 2961ntf    cn117401   1.172   5.752   4.038  0.7422  0.4275  0.2478
 2961ntf    sn217402   1.101   5.816   4.193 -0.1194  0.0843  0.0035
 2961ntf    nn317403   1.117   5.681   4.271 -0.1597  0.0349 -0.0737
 2961ntf    sn217404   1.113   5.651   4.425  0.5234  0.1548 -0.0287
 2961ntf    cn117405   0.937   5.617   4.456  0.5071  0.1435 -0.1334
 2961ntf    fn417406   1.093   5.662   3.980  0.2329  0.5272  0.7756
 2961ntf    fn417407   1.184   5.849   3.949  0.0482  0.2536 -0.0454
 2961ntf    fn417408   1.286   5.686   4.044  0.4676 -0.0992 -0.1599
 2961ntf    on517409   1.190   5.923   4.230 -0.3389  0.0607  0.6048
 2961ntf    on517410   0.966   5.848   4.153 -0.1135  0.5120  0.3261
 2961ntf    on517411   1.136   5.762   4.514  0.2929  0.5078 -0.4038
 2961ntf    on517412   1.180   5.528   4.456  0.8428  0.2229 -0.4306
 2961ntf    fn417413   0.909   5.580   4.580  0.8953  0.3334  0.0142
 2961ntf    fn417414   0.859   5.721   4.430  0.1079  0.1161  0.9093
 2961ntf    fn417415   0.897   5.514   4.382 -0.2896 -0.0182  0.5178
 2962ntf    cn117416   4.134   0.800   2.760 -0.1585  0.3315  0.0446
 2962ntf    sn217417   4.187   0.973   2.769 -0.4283  0.4244 -0.1321
 2962ntf    nn317418   4.341   0.940   2.763 -0.3685  0.5247  0.6320
 2962ntf    sn217419   4.466   1.017   2.709 -0.0559 -0.1612  0.3726
 2962ntf    cn117420   4.591   0.943   2.819  0.3373  0.2096  0.1795
 2962ntf    fn417421   4.003   0.790   2.777 -0.1330 -0.4703 -0.1814
 2962ntf    fn417422   4.156   0.751   2.639 -0.4561 -0.5818  0.3545
 2962ntf    fn417423   4.193   0.726   2.853 -0.1710 -0.1585 -0.3340
 2962ntf    on517424   4.133   1.034   2.650 -0.2982  0.6505 -0.0779
 2962ntf    on517425   4.152   1.018   2.902 -0.3781  0.4194 -0.1174
 2962ntf    on517426   4.483   1.151   2.760  0.3195 -0.2349  0.4503
 2962ntf    on517427   4.516   0.988   2.576 -0.6648 -0.2676  0.1674
 2962ntf    fn417428   4.561   0.962   2.946  0.2906 -0.6335  0.2962
 2962ntf    fn417429   4.587   0.813   2.795 -0.7957  0.2748 -0.0315
 2962ntf    fn417430   4.719   0.971   2.801  0.3837  0.1882  0.4757
 2963ntf    cn117431   0.697   1.197   1.218  0.0212  0.0961 -0.0876
 2963ntf    sn217432   0.662   1.337   1.107 -0.0392  0.1568  0.0085
 2963ntf    nn317433   0.521   1.307   1.044  0.0436  0.2774 -0.2341
 2963ntf    sn217434   0.458   1.298   0.901 -0.1412  0.1572 -0.1460
 2963ntf    cn117435   0.369   1.456   0.900  0.1316  0.3108 -0.1373
 2963ntf    fn417436   0.585   1.159   1.277  0.1790  0.1620  0.2532
 2963ntf    fn417437   0.740   1.089   1.154 -0.3591 -0.1699  0.1032
 2963ntf    fn417438   0.789   1.224   1.309  0.1580  0.1672 -0.2466
 2963ntf    on517439   0.651   1.447   1.199  0.3878 -0.0013  0.2506
 2963ntf    on517440   0.774   1.335   1.017  0.6667 -0.3320  0.8798
 2963ntf    on517441   0.356   1.196   0.895  0.2118 -0.2725  0.8856
 2963ntf    on517442   0.550   1.296   0.790 -0.4513 -0.1193 -0.4018
 2963ntf    fn417443   0.420   1.532   0.995  0.4067 -0.1106  0.0522
 2963ntf    fn417444   0.378   1.522   0.786 -0.7737  0.8124  0.0759
 2963ntf    fn417445   0.239   1.451   0.923  0.1654  0.0236 -0.0145
 2964ntf    cn117446   2.418   3.185   1.980 -0.1155 -0.0754  0.0661
 2964ntf    sn217447   2.466   3.087   1.834 -0.0981  0.1658 -0.0910
 2964ntf    nn317448   2.350   2.982   1.849 -0.3340  0.3705 -0.4591
 2964ntf    sn217449   2.339   2.842   1.780  0.0969 -0.0095  0.2255
 2964ntf    cn117450   2.400   2.754   1.927 -0.4475 -0.0591  0.4248
 2964ntf    fn417451   2.290   3.213   1.996 -0.1849 -0.2439 -0.1872
 2964ntf    fn417452   2.459   3.122   2.089  0.1814 -0.5657 -0.3203
 2964ntf    fn417453   2.486   3.298   1.991  0.2575 -0.2847 -0.0413
 2964ntf    on517454   2.450   3.171   1.718  0.0535 -0.4115 -0.5377
 2964ntf    on517455   2.598   3.038   1.867  0.0268  0.6574  0.1524
 2964ntf    on517456   2.427   2.808   1.671 -0.6963 -0.0050 -0.4261
 2964ntf    on517457   2.200   2.807   1.760  0.0634  0.4288 -0.3123
 2964ntf    fn417458   2.532   2.758   1.936 -0.4036  0.0664 -0.2539
 2964ntf    fn417459   2.348   2.803   2.038 -0.2976  0.1445  0.4045
 2964ntf    fn417460   2.383   2.623   1.920 -0.1612 -0.0793  0.0664
 2965ntf    cn117461   2.017   1.314   2.233  0.0873  0.1744  0.2159
 2965ntf    sn217462   2.088   1.423   2.360  0.3433 -0.1050  0.3140
 2965ntf    nn317463   2.230   1.358   2.379  0.0937 -0.6353  0.4079
 2965ntf    sn217464   2.343   1.402   2.479  0.1754  0.0439  0.0226
 2965ntf    cn117465   2.380   1.241   2.555 -0.0062  0.0060  0.0309
 2965ntf    fn417466   1.918   1.382   2.178 -0.0382 -0.2292 -0.0638
 2965ntf    fn417467   2.100   1.284   2.134 -0.5270  0.7302 -0.4807
 2965ntf    fn417468   1.968   1.199   2.277  0.4376 -0.1515 -0.2309
 2965ntf    on517469   2.079   1.545   2.284 -0.0445 -0.4392 -0.1845
 2965ntf    on517470   2.002   1.400   2.474 -0.2040  0.3805  0.0050
 2965ntf    on517471   2.308   1.499   2.580 -0.2645  0.0453 -0.1306
 2965ntf    on517472   2.464   1.427   2.405  0.0029  0.7308 -0.0408
 2965ntf    fn417473   2.288   1.192   2.637 -0.7246 -0.0201 -0.7736
 2965ntf    fn417474   2.403   1.151   2.461 -0.5263  0.0416 -0.1367
 2965ntf    fn417475   2.488   1.255   2.630  0.4816 -0.0225 -0.6541
 2966ntf    cn117476   1.268   6.967   3.702 -0.0014  0.0051 -0.3581
 2966ntf    sn217477   1.385   6.835   3.657  0.1047 -0.1297  0.3014
 2966ntf    nn317478   1.451   6.906   3.533 -0.6948  0.2245  0.0742
 2966ntf    sn217479   1.576   7.000   3.522 -0.5850  0.0702 -0.0098
 2966ntf    cn117480   1.660   6.940   3.372 -0.1147  0.3854  0.1254
 2966ntf    fn417481   1.205   7.013   3.595  0.0881  0.2296 -0.3154
 2966ntf    fn417482   1.175   6.934   3.789  0.1510  0.1613 -0.1343
 2966ntf    fn417483   1.334   7.067   3.759 -0.0247  0.0834 -0.4682
 2966ntf    on517484   1.475   6.819   3.769  0.2258 -0.2837  0.1825
 2966ntf    on517485   1.305   6.723   3.617 -0.0502  0.0565  0.0899
 2966ntf    on517486   1.676   6.986   3.625 -0.5412  0.0226 -0.0587
 2966ntf    on517487   1.556   7.136   3.477 -0.6292  0.1335  0.2041
 2966ntf    fn417488   1.683   6.810   3.368 -0.2183  0.3716 -0.0096
 2966ntf    fn417489   1.584   6.964   3.267  0.1177  0.4298 -0.0323
 2966ntf    fn417490   1.775   6.998   3.344  0.1204 -0.0461  0.1799
 2967ntf    cn117491   0.231   5.064   3.784  0.2210 -0.1479  0.0805
 2967ntf    sn217492   0.084   5.074   3.677  0.4107 -0.1854 -0.1828
 2967ntf    nn317493   0.095   4.941   3.594  0.0323 -0.4643  0.2124
 2967ntf    sn217494   0.064   4.920   3.442 -0.3852 -0.0823  0.2421
 2967ntf    cn117495  -0.118   4.908   3.439 -0.3980  0.1666 -0.0919
 2967ntf    fn417496   0.223   5.139   3.894  0.9874  0.0181  0.0262
 2967ntf    fn417497   0.247   4.944   3.837 -0.1785 -0.3251 -0.1985
 2967ntf    fn417498   0.347   5.087   3.725  0.1085  0.9487  0.2665
 2967ntf    on517499  -0.029   5.074   3.766  0.0863 -0.1044 -0.5930
 2967ntf    on517500   0.107   5.193   3.599 -0.1183  0.1288  0.1365
 2967ntf    on517501   0.100   4.786   3.403 -0.3412 -0.1107  0.3794
 2967ntf    on517502   0.094   5.028   3.352 -0.6561 -0.2235 -0.0227
 2967ntf    fn417503  -0.167   4.885   3.319 -0.3902 -0.0543 -0.0537
 2967ntf    fn417504  -0.154   4.811   3.522  0.3794  0.3053  0.4196
 2967ntf    fn417505  -0.168   5.021   3.486  0.3722  0.3484  0.3012
 2968ntf    cn117506   2.131   2.850   5.337 -0.0189  0.0593  0.1403
 2968ntf    sn217507   1.971   2.864   5.252  0.1706 -0.0120 -0.2307
 2968ntf    nn317508   2.018   2.973   5.149  0.2431  0.5420  0.3819
 2968ntf    sn217509   2.098   2.960   5.015  0.1047  0.1639  0.3332
 2968ntf    cn117510   2.238   3.071   5.051 -0.0231  0.2927  0.4321
 2968ntf    fn417511   2.121   2.749   5.422 -0.3582  0.1197  0.1751
 2968ntf    fn417512   2.238   2.826   5.264  0.0264 -0.4727  0.3767
 2968ntf    fn417513   2.156   2.958   5.410 -0.2507  0.1450  0.0956
 2968ntf    on517514   1.946   2.731   5.202 -0.0458 -0.1258  0.1742
 2968ntf    on517515   1.875   2.908   5.351  0.0826 -0.4876 -0.1036
 2968ntf    on517516   2.026   3.015   4.903  0.0506 -0.3537  0.1152
 2968ntf    on517517   2.159   2.832   4.990  0.2260  0.1727  0.5780
 2968ntf    fn417518   2.297   3.062   5.169  0.6065 -0.7374  0.0458
 2968ntf    fn417519   2.344   3.052   4.974 -0.0534  0.2100  0.4112
 2968ntf    fn417520   2.212   3.201   5.049  0.4936  0.3922  0.0007
 2969ntf    cn117521   3.000   5.171   0.674  0.0316  0.1205 -0.2339
 2969ntf    sn217522   2.984   5.143   0.495 -0.4910 -0.0700 -0.1581
 2969ntf    nn317523   2.905   5.008   0.507 -0.2749 -0.2012 -0.2098
 2969ntf    sn217524   2.950   4.868   0.451  0.2079 -0.1640  0.0770
 2969ntf    cn117525   2.782   4.810   0.414  0.1182  0.2437 -0.1628
 2969ntf    fn417526   3.080   5.082   0.729  0.1950  0.5963  0.3050
 2969ntf    fn417527   3.041   5.294   0.701  0.0481 -0.0046  0.3050
 2969ntf    fn417528   2.885   5.156   0.737  0.0392 -0.0004 -0.2485
 2969ntf    on517529   2.904   5.258   0.459 -0.0866  0.1573 -0.3360
 2969ntf    on517530   3.121   5.128   0.452 -0.5221  0.1738 -0.3492
 2969ntf    on517531   3.006   4.779   0.550  0.5325  0.1085  0.1382
 2969ntf    on517532   3.010   4.875   0.320  0.2523  0.0583  0.1096
 2969ntf    fn417533   2.727   4.730   0.505  0.8089  0.4190  0.4173
 2969ntf    fn417534   2.692   4.905   0.400  0.2719  0.4440  0.1938
 2969ntf    fn417535   2.782   4.745   0.299 -0.7777 -0.3571  0.1581
 2970ntf    cn117536   4.130   2.025   1.538  0.1250 -0.1633 -0.1748
 2970ntf    sn217537   4.166   1.876   1.441  0.1865 -0.3623  0.1521
 2970ntf    nn317538   4.266   1.924   1.330  0.0367  0.2332  0.2725
 2970ntf    sn217539   4.243   1.964   1.180 -0.0411 -0.0050  0.2199
 2970ntf    cn117540   4.378   2.078   1.139  0.0520 -0.2803 -0.2421
 2970ntf    fn417541   4.239   2.082   1.586 -0.1787  0.1694  0.1343
 2970ntf    fn417542   4.062   2.120   1.476  0.2085  0.1675  0.2316
 2970ntf    fn417543   4.054   2.001   1.644  0.0302 -0.0759 -0.2223
 2970ntf    on517544   4.221   1.785   1.538  0.5083 -0.5136 -0.1707
 2970ntf    on517545   4.041   1.829   1.385 -0.0509  0.4008  0.0359
 2970ntf    on517546   4.123   2.044   1.162  0.1863  0.1679 -0.5717
 2970ntf    on517547   4.268   1.852   1.093 -0.2486  0.2931 -0.2265
 2970ntf    fn417548   4.373   2.124   1.015  0.3228  0.1070 -0.1125
 2970ntf    fn417549   4.365   2.184   1.217 -0.1205 -0.0577 -0.5717
 2970ntf    fn417550   4.495   2.024   1.169 -0.0019 -0.0212  0.4617
 2971ntf    cn117551   5.937   4.463   1.560 -0.2058  0.1315 -0.1530
 2971ntf    sn217552   6.061   4.330   1.547 -0.2051  0.1527 -0.3652
 2971ntf    nn317553   6.086   4.323   1.392  0.1576  0.0870 -0.3040
 2971ntf    sn217554   6.100   4.201   1.294 -0.1909 -0.0080 -0.2371
 2971ntf    cn117555   6.233   4.102   1.368 -0.2210  0.1687  0.0564
 2971ntf    fn417556   5.980   4.588   1.556 -0.1832  0.1275 -0.0401
 2971ntf    fn417557   5.846   4.460   1.464 -0.3668  0.3161 -0.0038
 2971ntf    fn417558   5.874   4.458   1.676 -0.2318  0.0594 -0.1695
 2971ntf    on517559   6.179   4.369   1.620 -0.7237 -0.4539  0.8167
 2971ntf    on517560   5.989   4.217   1.599 -0.0963 -0.0128 -0.5720
 2971ntf    on517561   6.155   4.243   1.167 -0.2816  0.8320 -0.0074
 2971ntf    on517562   5.985   4.115   1.289 -0.0639 -0.2274  0.4759
 2971ntf    fn417563   6.207   4.080   1.496  0.1962  0.1655  0.1441
 2971ntf    fn417564   6.246   3.981   1.315 -0.0383  0.1185  0.2125
 2971ntf    fn417565   6.351   4.162   1.363 -0.4435  0.6092  0.1005
 2972ntf    cn117566   1.287   3.725   5.907  0.0874 -0.0944  0.4418
 2972ntf    sn217567   1.293   3.873   5.801  0.1172 -0.3122  0.1389
 2972ntf    nn317568   1.327   3.982   5.908  0.1803 -0.1577 -0.0383
 2972ntf    sn217569   1.234   4.099   5.958  0.3049 -0.1540  0.1872
 2972ntf    cn117570   1.337   4.191   6.077  0.3744 -0.1421  0.1177
 2972ntf    fn417571   1.405   3.689   5.955  0.2939  0.2654  0.2078
 2972ntf    fn417572   1.200   3.741   6.005 -0.2989 -0.1061  0.1009
 2972ntf    fn417573   1.243   3.621   5.839 -0.4114  0.1389  0.4082
 2972ntf    on517574   1.397   3.841   5.706 -0.0656 -0.3013 -0.0662
 2972ntf    on517575   1.156   3.888   5.758  0.2372  0.3593 -0.0216
 2972ntf    on517576   1.109   4.068   6.022  0.2856 -0.3870  0.0364
 2972ntf    on517577   1.226   4.192   5.848 -0.1009 -0.3209  0.0735
 2972ntf    fn417578   1.442   4.249   6.022  0.3184 -0.1891 -0.0409
 2972ntf    fn417579   1.270   4.297   6.119  0.6540  0.1685 -0.2064
 2972ntf    fn417580   1.370   4.123   6.185 -0.3789  0.1602  0.5419
 2973ntf    cn117581   0.449   1.851   2.024  0.1955 -0.2489  0.2530
 2973ntf    sn217582   0.464   1.708   1.913  0.3486 -0.1840  0.1903
 2973ntf    nn317583   0.615   1.671   1.934  0.3385 -0.1155  0.3824
 2973ntf    sn217584   0.738   1.739   1.864  0.0819  0.0029  0.0486
 2973ntf    cn117585   0.860   1.757   1.997  0.1313 -0.2096  0.0329
 2973ntf    fn417586   0.567   1.902   2.054 -0.1300  0.4893  0.2931
 2973ntf    fn417587   0.367   1.945   1.979  0.3905 -0.1855  0.0311
 2973ntf    fn417588   0.405   1.811   2.142  0.5555 -0.1915  0.4053
 2973ntf    on517589   0.384   1.612   1.985 -0.3100  0.1066 -0.1480
 2973ntf    on517590   0.419   1.763   1.788 -0.4167 -0.6621  0.2484
 2973ntf    on517591   0.723   1.874   1.816  0.0660  0.0621  0.2223
 2973ntf    on517592   0.803   1.663   1.759 -0.5608 -0.2979 -0.1392
 2973ntf    fn417593   0.818   1.825   2.102 -0.2381 -0.6727  0.1868
 2973ntf    fn417594   0.894   1.640   2.048  0.2148 -0.0152  0.4265
 2973ntf    fn417595   0.971   1.814   1.951  0.1643 -0.3177 -0.0214
 2974ntf    cn117596   3.526   5.631   4.606  0.1132 -0.1373  0.0700
 2974ntf    sn217597   3.550   5.669   4.782  0.0907 -0.0452  0.0531
 2974ntf    nn317598   3.687   5.744   4.774  0.1492 -0.0525  0.8818
 2974ntf    sn217599   3.834   5.689   4.781  0.2317  0.0136 -0.2457
 2974ntf    cn117600   3.864   5.679   4.960 -0.1910  0.0902 -0.1678
 2974ntf    fn417601   3.407   5.579   4.581 -0.0445  0.2297  0.0534
 2974ntf    fn417602   3.539   5.740   4.533 -0.3852  0.1499  0.4030
 2974ntf    fn417603   3.608   5.534   4.568  0.7624  0.2714  0.4089
 2974ntf    on517604   3.430   5.745   4.808  0.2501  0.3243 -0.2828
 2974ntf    on517605   3.562   5.536   4.837 -0.0782 -0.2557 -0.4115
 2974ntf    on517606   3.932   5.783   4.732  0.2303 -0.0382 -0.3505
 2974ntf    on517607   3.846   5.551   4.739  0.7128  0.1917 -0.7074
 2974ntf    fn417608   3.984   5.627   4.984 -0.3077 -0.1836 -0.1787
 2974ntf    fn417609   3.855   5.794   5.024 -0.2056  0.1188 -0.2215
 2974ntf    fn417610   3.780   5.598   5.022  0.0649 -0.2099 -0.2093
 2975ntf    cn117611   3.410   4.820   4.665  0.3849  0.0012  0.1137
 2975ntf    sn217612   3.584   4.870   4.663  0.4654 -0.2733  0.1452
 2975ntf    nn317613   3.548   5.023   4.660  0.6278 -0.2433 -0.4394
 2975ntf    sn217614   3.532   5.124   4.541 -0.3029 -0.0680 -0.1704
 2975ntf    cn117615   3.685   5.217   4.572 -0.3942 -0.0111  0.1130
 2975ntf    fn417616   3.340   4.878   4.761 -0.5103 -1.1691  0.1975
 2975ntf    fn417617   3.344   4.856   4.555  0.4983 -0.8486 -0.2446
 2975ntf    fn417618   3.399   4.688   4.677 -0.6964  0.1157  0.4874
 2975ntf    on517619   3.640   4.827   4.788  1.2904  0.1214 -0.0821
 2975ntf    on517620   3.638   4.823   4.538 -0.2818  0.0962 -0.3204
 2975ntf    on517621   3.440   5.233   4.563  0.2283  0.2286  0.6259
 2975ntf    on517622   3.546   5.079   4.405 -0.6828 -0.6326 -0.0269
 2975ntf    fn417623   3.695   5.319   4.488  0.7626 -0.0448  0.1959
 2975ntf    fn417624   3.696   5.266   4.695 -0.0122  0.3251 -0.0512
 2975ntf    fn417625   3.795   5.143   4.567 -0.3637  0.0716 -0.4684
 2976ntf    cn117626   4.229   2.399   0.185  0.2351  0.0027 -0.6168
 2976ntf    sn217627   4.398   2.342   0.148  0.2980 -0.2730  0.0724
 2976ntf    nn317628   4.374   2.223   0.049 -0.3815  0.2117 -0.3540
 2976ntf    sn217629   4.479   2.122  -0.009 -0.1001  0.2192  0.1441
 2976ntf    cn117630   4.423   1.959   0.047  0.0498  0.3020  0.5392
 2976ntf    fn417631   4.182   2.468   0.083  0.0265  0.1769 -0.4024
 2976ntf    fn417632   4.146   2.297   0.195 -0.1285  0.3767  0.3445
 2976ntf    fn417633   4.216   2.476   0.291 -0.9813 -0.2811 -0.5447
 2976ntf    on517634   4.450   2.460   0.082 -0.4121 -0.1734 -0.3185
 2976ntf    on517635   4.456   2.302   0.273  0.2099 -0.5388  0.0272
 2976ntf    on517636   4.612   2.128   0.047  0.2518 -1.0066 -0.5473
 2976ntf    on517637   4.459   2.113  -0.151 -0.0626  0.5959  0.1141
 2976ntf    fn417638   4.499   1.862  -0.001  0.0493  0.1985  0.7421
 2976ntf    fn417639   4.445   1.950   0.178  0.0585 -0.2844  0.5018
 2976ntf    fn417640   4.295   1.933   0.025  0.2432 -0.0948 -0.1378
 2977ntf    cn117641   6.462   5.564   5.009  0.2478  0.0805  0.1148
 2977ntf    sn217642   6.554   5.674   5.121 -0.2231  0.5342  0.0610
 2977ntf    nn317643   6.476   5.806   5.088  0.3977  0.6911 -0.7797
 2977ntf    sn217644   6.444   5.928   5.181 -0.2750 -0.0642  0.0011
 2977ntf    cn117645   6.542   6.051   5.089 -0.5775  0.2723  0.1269
 2977ntf    fn417646   6.332   5.565   5.038  0.2606  0.1110  0.1721
 2977ntf    fn417647   6.474   5.612   4.886 -0.3045  0.2004  0.1020
 2977ntf    fn417648   6.514   5.443   5.011  0.1690  0.0345 -0.4724
 2977ntf    on517649   6.533   5.610   5.249 -0.1290 -0.0488 -0.2109
 2977ntf    on517650   6.688   5.677   5.068 -0.0740  0.8570  0.4502
 2977ntf    on517651   6.492   5.918   5.316  0.5552  0.1203 -0.2719
 2977ntf    on517652   6.311   5.980   5.165  0.0381  0.6797 -0.2404
 2977ntf    fn417653   6.672   6.031   5.100 -0.4440  0.3813 -1.0659
 2977ntf    fn417654   6.510   6.052   4.961 -0.5387 -0.4639  0.1062
 2977ntf    fn417655   6.520   6.174   5.131  0.1494  0.4084  0.1199
 2978ntf    cn117656   4.949   4.702   6.420 -0.2017  0.0077 -0.0612
 2978ntf    sn217657   4.880   4.733   6.585  0.2097  0.2607  0.0659
 2978ntf    nn317658   4.960   4.619   6.657 -0.6994 -0.5253 -0.1471
 2978ntf    sn217659   4.916   4.469   6.676 -0.3223 -0.5598  0.5009
 2978ntf    cn117660   4.831   4.478   6.837 -0.2256 -0.1464  0.5287
 2978ntf    fn417661   5.081   4.696   6.424 -0.1967  0.0451 -0.1760
 2978ntf    fn417662   4.906   4.593   6.359 -0.2042  0.2452 -0.4820
 2978ntf    fn417663   4.911   4.802   6.344 -0.0817  0.4098  0.4019
 2978ntf    on517664   4.925   4.866   6.616  0.2789  0.3446 -0.3947
 2978ntf    on517665   4.738   4.708   6.575  0.3093 -0.2335 -0.1321
 2978ntf    on517666   5.029   4.384   6.703  0.5133  0.2913 -0.2463
 2978ntf    on517667   4.822   4.414   6.581  0.2800  0.2602 -0.6004
 2978ntf    fn417668   4.913   4.495   6.940  0.2526  0.4911  0.0573
 2978ntf    fn417669   4.736   4.569   6.839 -0.5416 -0.4689  0.2460
 2978ntf    fn417670   4.773   4.361   6.854  0.1215 -0.3394  0.4012
 2979ntf    cn117671   6.615   0.370   1.858 -0.1253 -0.1011  0.1022
 2979ntf    sn217672   6.680   0.479   1.989  0.2528 -0.0103 -0.1577
 2979ntf    nn317673   6.546   0.549   2.032  0.1094 -0.3597 -0.0256
 2979ntf    sn217674   6.533   0.685   2.110 -0.3081 -0.2089 -0.3534
 2979ntf    cn117675   6.460   0.629   2.267 -0.3853  0.3195 -0.1979
 2979ntf    fn417676   6.568   0.446   1.759  0.4581  0.1566  0.0192
 2979ntf    fn417677   6.701   0.280   1.814  0.1366  0.3051 -0.2376
 2979ntf    fn417678   6.505   0.308   1.898 -0.3175  0.1705  0.0010
 2979ntf    on517679   6.731   0.388   2.088  0.3505  0.1769 -0.0383
 2979ntf    on517680   6.770   0.569   1.923  0.6013 -0.2575 -0.0210
 2979ntf    on517681   6.421   0.759   2.057 -0.2027  0.4797  0.3630
 2979ntf    on517682   6.649   0.762   2.150 -0.9682  0.4587  0.2982
 2979ntf    fn417683   6.421   0.731   2.340  0.2779  0.2687  0.2369
 2979ntf    fn417684   6.351   0.557   2.247 -0.0929 -0.0651 -0.4432
 2979ntf    fn417685   6.538   0.552   2.341 -0.0615  0.2002 -0.6529
 2980ntf    cn117686   5.506   1.568   5.977 -0.3209 -0.1167 -0.1100
 2980ntf    sn217687   5.392   1.546   5.838 -0.2823 -0.0554 -0.1517
 2980ntf    nn317688   5.297   1.668   5.866  0.1101  0.2367 -0.0927
 2980ntf    sn217689   5.169   1.690   5.955  0.2043  0.4110  0.0008
 2980ntf    cn117690   5.060   1.758   5.827  0.1055  0.2377 -0.0075
 2980ntf    fn417691   5.575   1.681   5.976 -0.3165 -0.1257 -0.9193
 2980ntf    fn417692   5.446   1.567   6.095  0.2727 -0.4830  0.1982
 2980ntf    fn417693   5.591   1.468   5.995 -0.4244 -0.0895  0.5672
 2980ntf    on517694   5.474   1.567   5.721  0.0787  0.2239  0.1491
 2980ntf    on517695   5.335   1.418   5.873  0.1692 -0.3319 -0.4321
 2980ntf    on517696   5.179   1.802   6.045 -0.1269  0.0618  0.4726
 2980ntf    on517697   5.099   1.569   5.990 -0.0157  0.5215 -0.0630
 2980ntf    fn417698   5.108   1.865   5.765  0.7753 -0.0368  0.0308
 2980ntf    fn417699   5.038   1.671   5.730  0.4302  0.0050  0.1264
 2980ntf    fn417700   4.943   1.801   5.872  0.0659 -0.0080  0.1241
 2981ntf    cn117701   0.745   6.118   6.919 -0.2280  0.2126  0.1290
 2981ntf    sn217702   0.584   6.185   6.967 -0.2312  0.2727  0.0364
 2981ntf    nn317703   0.642   6.273   7.084  0.2167  0.1357 -0.0813
 2981ntf    sn217704   0.619   6.424   7.121  0.3681  0.1817 -0.1759
 2981ntf    cn117705   0.754   6.509   7.035  0.3081  0.1200 -0.3317
 2981ntf    fn417706   0.819   6.074   7.019  0.0918 -0.1876 -0.2753
 2981ntf    fn417707   0.734   6.015   6.836  0.5535  0.0055  0.2714
 2981ntf    fn417708   0.818   6.212   6.859 -0.0202  0.0048  0.0516
 2981ntf    on517709   0.544   6.259   6.850  0.1916  0.0041 -0.2802
 2981ntf    on517710   0.501   6.074   7.005 -0.0020  0.0273 -0.1789
 2981ntf    on517711   0.654   6.446   7.259  0.5402  0.1671 -0.2167
 2981ntf    on517712   0.487   6.470   7.085  0.1884 -0.0253  0.2085
 2981ntf    fn417713   0.769   6.634   7.076  0.0314 -0.1239  0.5309
 2981ntf    fn417714   0.871   6.452   7.058  0.1172  0.0070  0.3770
 2981ntf    fn417715   0.745   6.504   6.903  0.1668 -0.1447 -0.3131
 2982ntf    cn117716   5.058   3.453   3.580  0.4214 -1.0116 -0.2906
 2982ntf    sn217717   5.096   3.528   3.419 -0.0921 -0.2661 -0.0679
 2982ntf    nn317718   4.997   3.451   3.326 -0.0346 -0.0518 -0.3069
 2982ntf    sn217719   4.896   3.501   3.216 -0.2260  0.1627 -0.0346
 2982ntf    cn117720   4.940   3.374   3.093  0.2402 -0.1455  0.4475
 2982ntf    fn417721   5.149   3.369   3.627  0.6499 -0.1800  0.8003
 2982ntf    fn417722   5.033   3.542   3.675  0.2993 -0.9009 -0.4271
 2982ntf    fn417723   4.948   3.379   3.575 -0.0098 -0.3583 -0.4954
 2982ntf    on517724   5.078   3.671   3.433  0.7396 -0.1851  0.2140
 2982ntf    on517725   5.233   3.491   3.395  0.0129 -0.6145  0.9820
 2982ntf    on517726   4.933   3.627   3.158  0.7728  0.0484  0.3424
 2982ntf    on517727   4.756   3.475   3.240 -0.3807  0.6000 -0.4683
 2982ntf    fn417728   4.926   3.253   3.144 -0.0701 -0.2355  0.1454
 2982ntf    fn417729   4.874   3.392   2.980  0.4409 -0.1181  0.3342
 2982ntf    fn417730   5.068   3.390   3.063  0.2633 -0.0646  0.5880
 2983ntf    cn117731   5.620   0.402   3.668 -0.0075  0.1576 -0.4866
 2983ntf    sn217732   5.543   0.429   3.505 -0.1844 -0.1674 -0.4568
 2983ntf    nn317733   5.509   0.580   3.530  0.0066 -0.2406  0.2915
 2983ntf    sn217734   5.470   0.684   3.419  0.1811  0.1787  0.6211
 2983ntf    cn117735   5.289   0.665   3.427  0.1625 -0.1345 -0.3779
 2983ntf    fn417736   5.538   0.419   3.771  0.0123  0.4690 -0.5210
 2983ntf    fn417737   5.676   0.284   3.685 -0.4145  0.0429  0.0981
 2983ntf    fn417738   5.716   0.492   3.682  0.1827 -0.1694  0.3791
 2983ntf    on517739   5.655   0.406   3.417  0.2742  0.3776 -0.0277
 2983ntf    on517740   5.425   0.348   3.496 -0.6200  0.4014  0.0528
 2983ntf    on517741   5.495   0.647   3.282 -0.3990 -0.2342  0.6241
 2983ntf    on517742   5.494   0.816   3.471  0.4850  0.4230 -0.1233
 2983ntf    fn417743   5.251   0.547   3.381  0.0139  0.0059 -0.6120
 2983ntf    fn417744   5.243   0.673   3.551  0.0451 -0.2901 -0.4117
 2983ntf    fn417745   5.222   0.753   3.356  0.3457  0.4764  0.1914
 2984ntf    cn117746   1.952   3.661   1.413  0.2627 -0.0989 -0.0141
 2984ntf    sn217747   1.942   3.783   1.547 -0.3322 -0.1186 -0.0382
 2984ntf    nn317748   1.927   3.695   1.675  0.4604  0.1034  0.2137
 2984ntf    sn217749   1.892   3.742   1.821  0.0272  0.1352  0.1015
 2984ntf    cn117750   2.056   3.706   1.891  0.0386 -0.2404 -0.1149
 2984ntf    fn417751   2.057   3.581   1.415  0.5160  0.2277 -0.1488
 2984ntf    fn417752   1.844   3.584   1.416  0.0889  0.1567  0.3123
 2984ntf    fn417753   1.942   3.720   1.294 -0.0848 -0.1272 -0.0004
 2984ntf    on517754   2.075   3.838   1.538 -0.2746 -0.2572 -0.0299
 2984ntf    on517755   1.838   3.877   1.510 -0.0882  0.3659  0.4840
 2984ntf    on517756   1.819   3.637   1.889 -0.4807  0.2750 -0.2241
 2984ntf    on517757   1.855   3.876   1.856 -0.6486 -0.0648  0.1684
 2984ntf    fn417758   2.078   3.756   2.011  0.3253 -0.5048 -0.0567
 2984ntf    fn417759   2.081   3.577   1.908  0.2438 -0.1498  0.2846
 2984ntf    fn417760   2.155   3.757   1.821  0.2246 -0.1177  0.2376
 2985ntf    cn117761   2.461   4.303   0.190  0.3514  0.0431 -0.0202
 2985ntf    sn217762   2.445   4.168   0.311 -0.2885 -0.0479 -0.2024
 2985ntf    nn317763   2.507   4.053   0.223 -0.1585  0.0064 -0.1811
 2985ntf    sn217764   2.655   4.002   0.219 -0.2996 -0.4145 -0.0305
 2985ntf    cn117765   2.701   4.024   0.044 -0.2265  0.2791  0.0742
 2985ntf    fn417766   2.584   4.312   0.141  0.3986  0.2042  0.1261
 2985ntf    fn417767   2.380   4.291   0.087  0.3004 -0.7449  0.1052
 2985ntf    fn417768   2.430   4.415   0.253 -0.5196 -0.2316  0.0470
 2985ntf    on517769   2.525   4.205   0.425 -0.1207 -0.9991 -0.0001
 2985ntf    on517770   2.305   4.143   0.333 -0.3873 -0.0303 -0.8025
 2985ntf    on517771   2.655   3.859   0.237 -0.0092 -0.3258  0.6859
 2985ntf    on517772   2.759   4.076   0.286 -0.8960  0.0126  0.4305
 2985ntf    fn417773   2.827   3.989   0.026 -0.4882 -0.7412  0.1323
 2985ntf    fn417774   2.624   3.941  -0.025  0.1946  0.0692 -0.1483
 2985ntf    fn417775   2.684   4.149   0.004  0.3672  0.2587 -0.2509
 2986ntf    cn117776   0.250   5.967   4.385 -0.0373 -0.2546 -0.0939
 2986ntf    sn217777   0.358   6.003   4.243 -0.1168 -0.2595 -0.1556
 2986ntf    nn317778   0.337   5.875   4.154 -0.1501  0.0055 -0.5330
 2986ntf    sn217779   0.443   5.773   4.100  0.1352 -0.1771  0.3442
 2986ntf    cn117780   0.446   5.661   4.243 -0.7317 -0.1902  0.3558
 2986ntf    fn417781   0.298   5.872   4.464 -0.3532  0.0226  0.4389
 2986ntf    fn417782   0.246   6.074   4.462 -0.2870  0.1897 -0.7177
 2986ntf    fn417783   0.126   5.935   4.351  0.0013 -0.1536 -0.3290
 2986ntf    on517784   0.289   6.112   4.179  0.2532 -0.1527 -0.3723
 2986ntf    on517785   0.486   6.019   4.306 -0.0669  0.6810 -0.4935
 2986ntf    on517786   0.575   5.830   4.085 -0.2202  0.6786  0.4056
 2986ntf    on517787   0.393   5.686   3.996 -0.5645  0.5008  0.1041
 2986ntf    fn417788   0.489   5.725   4.350  0.0196  0.1360 -0.1285
 2986ntf    fn417789   0.335   5.599   4.281 -0.5567 -0.5707  0.2539
 2986ntf    fn417790   0.535   5.565   4.222  0.3893  0.9339 -0.1592
 2987ntf    cn117791   3.152   2.268   3.114  0.1764  0.0649  0.1275
 2987ntf    sn217792   3.231   2.113   3.167 -0.0507  0.0859  0.5395
 2987ntf    nn317793   3.183   2.026   3.046  0.7560  0.1427  0.1669
 2987ntf    sn217794   3.265   1.979   2.921  0.2202 -0.1964 -0.0607
 2987ntf    cn117795   3.319   1.812   2.968 -0.1878 -0.2729  0.1476
 2987ntf    fn417796   3.025   2.247   3.081  0.2621 -0.2501 -0.0033
 2987ntf    fn417797   3.165   2.367   3.202 -0.7114 -0.1488  0.5121
 2987ntf    fn417798   3.209   2.316   3.006  0.2840 -0.5823 -0.1080
 2987ntf    on517799   3.372   2.140   3.183  0.0896 -0.1653 -0.2514
 2987ntf    on517800   3.152   2.074   3.281 -0.1619 -0.1671  0.3764
 2987ntf    on517801   3.391   2.046   2.902  0.0646  0.0891 -0.1065
 2987ntf    on517802   3.174   1.952   2.812 -0.0125  0.4233 -0.0226
 2987ntf    fn417803   3.379   1.827   3.085  0.3002 -0.7788 -0.0344
 2987ntf    fn417804   3.220   1.726   2.978 -0.4357 -0.0800 -0.5805
 2987ntf    fn417805   3.412   1.760   2.889 -0.1226  0.2016 -0.0962
 2988ntf    cn117806   2.537   2.864   3.868 -0.1459  0.0559  0.0311
 2988ntf    sn217807   2.646   2.965   3.973  0.2087 -0.3925  0.0935
 2988ntf    nn317808   2.578   2.921   4.107 -0.1584  0.2960  0.1350
 2988ntf    sn217809   2.558   2.984   4.250  0.2020  0.0281  0.3056
 2988ntf    cn117810   2.685   2.908   4.355 -0.0220 -0.3552  0.3001
 2988ntf    fn417811   2.406   2.883   3.881 -0.1732 -0.3155  0.2923
 2988ntf    fn417812   2.555   2.890   3.739 -0.1078  0.5134  0.1265
 2988ntf    fn417813   2.559   2.734   3.877  0.1241  0.0744 -0.3178
 2988ntf    on517814   2.781   2.917   3.957  0.3076 -0.0733 -0.0426
 2988ntf    on517815   2.614   3.099   3.930 -0.4726 -0.4746  0.3427
 2988ntf    on517816   2.432   2.945   4.307 -0.0319  0.1515 -0.1174
 2988ntf    on517817   2.579   3.127   4.247  0.1145  0.0394  0.2088
 2988ntf    fn417818   2.644   2.800   4.420 -0.3250 -0.2084  0.3543
 2988ntf    fn417819   2.797   2.872   4.296 -0.2722 -0.1254 -0.3234
 2988ntf    fn417820   2.703   2.988   4.459  0.0185  0.4984 -0.3496
 2989ntf    cn117821   5.229   0.060   2.891 -0.1677  0.3988 -0.3566
 2989ntf    sn217822   5.158   0.225   2.920 -0.3120  0.2512  0.1326
 2989ntf    nn317823   5.009   0.182   2.941 -0.1151 -0.5971 -0.1554
 2989ntf    sn217824   4.911   0.223   3.057  0.1046 -0.2020 -0.1091
 2989ntf    cn117825   4.778   0.290   2.953  0.3686  0.4108 -0.0603
 2989ntf    fn417826   5.227   0.022   2.764 -0.1733 -0.6143 -0.0570
 2989ntf    fn417827   5.358   0.055   2.919 -0.2139  0.7010 -0.0832
 2989ntf    fn417828   5.169  -0.031   2.965  0.0472  0.5121 -0.0420
 2989ntf    on517829   5.233   0.273   3.034  0.3566 -0.8743  0.1796
 2989ntf    on517830   5.183   0.295   2.796  0.6372 -0.0959  0.1188
 2989ntf    on517831   4.938   0.339   3.139  0.0956 -0.4214  0.2082
 2989ntf    on517832   4.835   0.118   3.119 -0.0345 -0.4199 -0.6526
 2989ntf    fn417833   4.733   0.210   2.858 -0.0906  0.5613  0.0278
 2989ntf    fn417834   4.680   0.333   3.031  0.1920 -0.3837  0.1681
 2989ntf    fn417835   4.821   0.397   2.888 -0.4053  0.4863 -0.4651
 2990ntf    cn117836   4.694   5.348   4.406  0.2588  0.1011 -0.0731
 2990ntf    sn217837   4.560   5.225   4.401  0.3802 -0.0346  0.0073
 2990ntf    nn317838   4.446   5.298   4.482  0.0149 -0.3499 -0.2222
 2990ntf    sn217839   4.320   5.232   4.548 -0.1227  0.1395  0.0087
 2990ntf    cn117840   4.203   5.266   4.413 -0.1462 -0.5478 -0.1519
 2990ntf    fn417841   4.638   5.464   4.377 -0.4665 -0.2757 -0.2048
 2990ntf    fn417842   4.751   5.364   4.524 -0.1726  0.2574  0.1174
 2990ntf    fn417843   4.783   5.330   4.310  0.0854  0.6271 -0.3375
 2990ntf    on517844   4.528   5.212   4.261 -0.3500  0.4269  0.1255
 2990ntf    on517845   4.627   5.109   4.455 -0.5821 -0.7195 -0.2466
 2990ntf    on517846   4.278   5.309   4.662 -0.1685  0.6247 -0.3328
 2990ntf    on517847   4.317   5.088   4.560  0.1714  0.1707  0.4705
 2990ntf    fn417848   4.219   5.390   4.368 -0.2833 -0.3802  0.2463
 2990ntf    fn417849   4.231   5.192   4.307 -0.3144  0.1018 -0.6600
 2990ntf    fn417850   4.076   5.242   4.443 -0.1499 -0.1176  0.1928
 2991ntf    cn117851   5.737   1.880   4.734  0.2891 -0.0547 -0.1411
 2991ntf    sn217852   5.777   1.936   4.902  0.1251 -0.3505 -0.0030
 2991ntf    nn317853   5.927   1.980   4.893  0.0143  0.0078 -0.1150
 2991ntf    sn217854   6.058   1.892   4.888 -0.0337 -0.1004  0.4173
 2991ntf    cn117855   6.122   1.911   5.057 -0.1714  0.3497  0.4221
 2991ntf    fn417856   5.801   1.770   4.695 -0.3033 -0.4381 -0.0487
 2991ntf    fn417857   5.608   1.860   4.715  0.3192  0.4753 -0.9694
 2991ntf    fn417858   5.758   1.980   4.650 -0.1500  0.2074  0.0600
 2991ntf    on517859   5.683   2.044   4.918  0.2047 -0.2848  0.0266
 2991ntf    on517860   5.763   1.826   4.994 -0.3606  0.0249  0.3767
 2991ntf    on517861   6.162   1.955   4.810 -0.2419  0.0652  0.2714
 2991ntf    on517862   6.049   1.749   4.873 -0.9749  0.0107 -0.1805
 2991ntf    fn417863   6.028   1.867   5.140 -0.5312 -0.3101 -0.3232
 2991ntf    fn417864   6.230   1.840   5.085  0.0063  0.5876  0.3334
 2991ntf    fn417865   6.155   2.034   5.092 -0.3140  0.4287  0.2834
 2992ntf    cn117866   5.905   2.950   2.213  0.0189  0.3024  0.4374
 2992ntf    sn217867   5.920   3.075   2.082 -0.1340 -0.2092 -0.0748
 2992ntf    nn317868   5.772   3.077   2.028 -0.1852 -0.5507  0.0560
 2992ntf    sn217869   5.660   3.172   2.082  0.0326 -0.4137  0.2680
 2992ntf    cn117870   5.636   3.240   1.915  0.1095  0.1777  0.4924
 2992ntf    fn417871   5.865   2.835   2.159  0.0856  0.3872  0.2057
 2992ntf    fn417872   6.022   2.923   2.269  0.1643  0.2672  0.1185
 2992ntf    fn417873   5.814   2.992   2.299 -0.4996  0.1553 -0.0337
 2992ntf    on517874   5.966   3.190   2.155 -0.0359 -0.3469  0.0788
 2992ntf    on517875   6.008   3.028   1.978  0.2720  0.5030 -0.0563
 2992ntf    on517876   5.703   3.283   2.164  0.3967 -0.2144 -0.1899
 2992ntf    on517877   5.531   3.113   2.107 -0.4825  0.6635  0.2358
 2992ntf    fn417878   5.601   3.147   1.827 -0.1866  0.4223  0.3517
 2992ntf    fn417879   5.540   3.331   1.910 -0.1488 -0.0881  0.5241
 2992ntf    fn417880   5.747   3.302   1.878 -0.1812  0.2446 -0.2941
 2993ntf    cn117881   0.380   5.991   3.083  0.1242  0.1621  0.3141
 2993ntf    sn217882   0.328   6.164   3.059 -0.2946 -0.0178 -0.0999
 2993ntf    nn317883   0.302   6.167   2.904 -0.1353 -0.8994 -0.1499
 2993ntf    sn217884   0.168   6.156   2.824 -0.1551 -0.0089 -0.2488
 2993ntf    cn117885   0.124   6.332   2.834  0.0596  0.0201  0.2014
 2993ntf    fn417886   0.428   5.956   3.201 -0.1605 -0.0882  0.3586
 2993ntf    fn417887   0.278   5.910   3.060 -0.1483  0.4574  0.4722
 2993ntf    fn417888   0.468   5.946   2.995  0.1936  0.2374  0.3452
 2993ntf    on517889   0.212   6.183   3.142  0.0225  0.0345  0.3340
 2993ntf    on517890   0.444   6.248   3.079 -0.4871  0.1163  0.4712
 2993ntf    on517891   0.060   6.086   2.890  0.0194 -0.3382 -0.3077
 2993ntf    on517892   0.185   6.123   2.684  0.0725  0.4030 -0.3181
 2993ntf    fn417893   0.005   6.358   2.784  0.3171 -0.1646 -0.5256
 2993ntf    fn417894   0.134   6.378   2.957  0.2385  0.7096 -0.0657
 2993ntf    fn417895   0.208   6.403   2.760  0.5185 -0.8933 -0.1708
 2994ntf    cn117896   3.004   7.000   2.796 -0.0869 -0.2766 -0.3356
 2994ntf    sn217897   2.970   7.096   2.645  0.2126 -0.1245 -0.3066
 2994ntf    nn317898   3.021   7.238   2.690 -0.3209 -0.0457  0.0582
 2994ntf    sn217899   3.169   7.288   2.698 -0.3143 -0.0450 -0.0743
 2994ntf    cn117900   3.154   7.403   2.558  0.3376 -0.2277 -0.2980
 2994ntf    fn417901   3.134   6.978   2.810 -0.0113  0.2370 -0.1838
 2994ntf    fn417902   2.968   7.070   2.903 -0.7315 -0.6209 -0.3251
 2994ntf    fn417903   2.939   6.885   2.800 -0.6255  0.0298 -0.1376
 2994ntf    on517904   3.048   7.034   2.541 -0.6654 -1.1769 -0.3503
 2994ntf    on517905   2.827   7.085   2.630  0.1711  0.4482 -0.3584
 2994ntf    on517906   3.279   7.198   2.673 -0.8792 -0.9716  0.7334
 2994ntf    on517907   3.192   7.378   2.809  0.0748 -0.1501 -0.0687
 2994ntf    fn417908   3.092   7.514   2.595  0.1009 -0.3946 -0.1911
 2994ntf    fn417909   3.274   7.427   2.506  0.2375  0.2318 -0.3224
 2994ntf    fn417910   3.077   7.360   2.459 -0.0381  0.1357 -0.1672
 2995ntf    cn117911   2.350   2.427   2.540 -0.2067  0.2717 -0.2429
 2995ntf    sn217912   2.398   2.594   2.595 -0.2267  0.1465  0.1603
 2995ntf    nn317913   2.255   2.647   2.634 -0.5326 -0.2728 -0.3675
 2995ntf    sn217914   2.228   2.776   2.719  0.3896 -0.2692 -0.0664
 2995ntf    cn117915   2.168   2.883   2.585 -0.1555 -0.4495  0.0308
 2995ntf    fn417916   2.289   2.359   2.635  0.4820  0.6824  0.5112
 2995ntf    fn417917   2.264   2.434   2.439 -0.6283  0.5005  0.1257
 2995ntf    fn417918   2.458   2.363   2.499 -0.2402  0.1612 -0.1595
 2995ntf    on517919   2.491   2.555   2.698 -0.4988  0.4286  0.5146
 2995ntf    on517920   2.448   2.669   2.482 -0.4568  0.4336  0.2470
 2995ntf    on517921   2.342   2.849   2.770 -0.0923  0.0965  0.4961
 2995ntf    on517922   2.114   2.768   2.807 -0.0124 -0.0217 -0.5601
 2995ntf    fn417923   2.075   2.823   2.514  0.2293 -0.7255 -0.2446
 2995ntf    fn417924   2.120   2.997   2.634 -0.1448 -0.4482  0.0386
 2995ntf    fn417925   2.265   2.921   2.503 -0.6363 -0.3538 -0.4950
 2996ntf    cn117926   0.755   5.052   2.723  0.0929 -0.2387  0.2575
 2996ntf    sn217927   0.598   4.995   2.650  0.3255  0.0062 -0.4371
 2996ntf    nn317928   0.577   5.119   2.555 -0.3649  0.2260 -0.0023
 2996ntf    sn217929   0.611   5.133   2.402  0.1073 -0.1042  0.0696
 2996ntf    cn117930   0.446   5.082   2.344  0.0916 -0.0269  0.0461
 2996ntf    fn417931   0.743   5.116   2.839 -0.2774  0.0840  0.0459
 2996ntf    fn417932   0.839   4.953   2.747  0.0684 -0.2645  0.2348
 2996ntf    fn417933   0.815   5.146   2.652 -0.7868  0.6991  0.7254
 2996ntf    on517934   0.618   4.870   2.581 -0.5309 -0.0289 -0.6274
 2996ntf    on517935   0.510   4.984   2.763 -0.0170  0.1181 -0.6916
 2996ntf    on517936   0.699   5.033   2.347 -0.1875 -0.4215  0.1632
 2996ntf    on517937   0.618   5.271   2.362  0.3588 -0.3593 -0.7693
 2996ntf    fn417938   0.427   4.951   2.336  0.3238 -0.1090  0.7720
 2996ntf    fn417939   0.345   5.129   2.415  0.1080 -0.1451  0.1470
 2996ntf    fn417940   0.426   5.122   2.219 -0.0838  0.4013  0.2105
 2997ntf    cn117941   5.261   4.687   0.668 -0.2304 -0.2722  0.0700
 2997ntf    sn217942   5.195   4.695   0.837 -0.0877  0.3823  0.0973
 2997ntf    nn317943   5.315   4.628   0.913 -0.3276  0.1169  0.2465
 2997ntf    sn217944   5.431   4.706   0.985  0.0338 -0.1021 -0.0952
 2997ntf    cn117945   5.376   4.694   1.158  0.2780 -0.4052 -0.0369
 2997ntf    fn417946   5.177   4.726   0.573 -0.1636 -0.1789  0.0499
 2997ntf    fn417947   5.373   4.757   0.662 -0.3886  0.0240  0.5102
 2997ntf    fn417948   5.292   4.562   0.635 -0.1921 -0.1108 -0.5138
 2997ntf    on517949   5.175   4.836   0.856 -0.3894  0.3657 -0.0900
 2997ntf    on517950   5.077   4.611   0.836  0.0498  0.1857  0.1672
 2997ntf    on517951   5.432   4.848   0.960 -0.1879 -0.0532  0.1661
 2997ntf    on517952   5.559   4.639   0.981 -0.3357 -0.8225 -0.1037
 2997ntf    fn417953   5.465   4.744   1.242  0.0962 -0.0736 -0.0405
 2997ntf    fn417954   5.265   4.764   1.177  0.6591  0.2295 -0.1213
 2997ntf    fn417955   5.351   4.570   1.197  0.1233 -0.3419  0.0678
 2998ntf    cn117956   0.948   0.792   3.445 -0.0669 -0.1919 -0.0500
 2998ntf    sn217957   1.048   0.652   3.387  0.2648  0.0497 -0.0612
 2998ntf    nn317958   1.185   0.723   3.355  0.4768 -0.1998  0.2865
 2998ntf    sn217959   1.325   0.706   3.425  0.3911 -0.1117  0.4803
 2998ntf    cn117960   1.287   0.795   3.579 -0.2272  0.0457  0.2410
 2998ntf    fn417961   0.832   0.748   3.490  0.0732 -0.4026  0.1034
 2998ntf    fn417962   1.003   0.859   3.545  0.0580 -0.1020 -0.1774
 2998ntf    fn417963   0.920   0.880   3.350 -0.3861 -0.0710  0.1555
 2998ntf    on517964   1.040   0.559   3.497 -0.2134 -0.3223 -0.4075
 2998ntf    on517965   0.987   0.606   3.265 -1.0024 -0.6815  0.8369
 2998ntf    on517966   1.431   0.782   3.363 -0.5630  0.3759 -0.6002
 2998ntf    on517967   1.357   0.572   3.465  0.6080 -0.1408  0.2125
 2998ntf    fn417968   1.246   0.919   3.559  0.3173  0.0806 -0.6643
 2998ntf    fn417969   1.182   0.742   3.641 -0.4323 -0.1092 -0.2275
 2998ntf    fn417970   1.385   0.792   3.668 -0.3109 -0.1602  0.3264
 2999ntf    cn117971   3.526   1.380   3.144 -0.1521 -0.1943  0.1836
 2999ntf    sn217972   3.608   1.376   2.982  0.0281  0.1444  0.2659
 2999ntf    nn317973   3.537   1.260   2.904 -0.0060  0.3632 -0.0335
 2999ntf    sn217974   3.603   1.138   2.829 -0.4008  0.0330  0.1512
 2999ntf    cn117975   3.470   1.064   2.730 -0.0837 -0.0715 -0.1995
 2999ntf    fn417976   3.539   1.497   3.205  0.4157 -0.1712  0.0235
 2999ntf    fn417977   3.397   1.355   3.136 -0.1749  0.0353 -0.1557
 2999ntf    fn417978   3.575   1.281   3.218  0.2021  0.0226  0.2405
 2999ntf    on517979   3.577   1.505   2.925 -0.8577 -0.3033 -0.2912
 2999ntf    on517980   3.745   1.352   3.020  0.0419 -0.0758  0.0739
 2999ntf    on517981   3.645   1.027   2.910 -0.3760  0.1114  0.2471
 2999ntf    on517982   3.696   1.192   2.733 -0.1231 -0.6461  0.0378
 2999ntf    fn417983   3.504   0.948   2.677 -0.4333 -0.1581 -0.2399
 2999ntf    fn417984   3.358   1.034   2.795  0.1023  0.4636  0.3782
 2999ntf    fn417985   3.429   1.138   2.628 -0.5212  0.4202  0.3240
 3000ntf    cn117986   3.329   4.104   6.915  0.2989  0.3800  0.3167
 3000ntf    sn217987   3.427   4.238   6.842  0.1886  0.3326  0.0811
 3000ntf    nn317988   3.565   4.224   6.916  0.3802  0.1425 -0.3128
 3000ntf    sn217989   3.629   4.310   7.031  0.0351  0.0050 -0.0162
 3000ntf    cn117990   3.706   4.441   6.932 -0.0069 -0.0529 -0.1264
 3000ntf    fn417991   3.204   4.118   6.875  0.2231 -0.0990  0.3814
 3000ntf    fn417992   3.369   3.980   6.891  0.4557  0.5802 -0.4771
 3000ntf    fn417993   3.318   4.103   7.047 -0.5932  0.5499  0.2528
 3000ntf    on517994   3.434   4.214   6.700 -0.4357 -0.3173  0.1553
 3000ntf    on517995   3.352   4.359   6.866 -0.0805  0.2050 -0.1165
 3000ntf    on517996   3.732   4.223   7.082  0.0101 -0.0351 -0.0333
 3000ntf    on517997   3.541   4.374   7.126 -0.0959  0.0820 -0.1883
 3000ntf    fn417998   3.607   4.516   6.885  0.2328  0.2407 -0.1664
 3000ntf    fn417999   3.789   4.525   6.992 -0.2267 -0.3139  0.5405
 3000ntf    fn418000   3.765   4.403   6.819  0.5241  0.2664  0.0411
 3001ntf    cn118001   4.296   2.349   1.827 -0.6205 -0.0642  0.4401
 3001ntf    sn218002   4.208   2.438   1.696  0.3154 -0.0679 -0.2034
 3001ntf    nn318003   4.273   2.371   1.570 -0.4386 -0.5353 -0.3498
 3001ntf    sn218004   4.336   2.434   1.441  0.2029 -0.4991 -0.0203
 3001ntf    cn118005   4.216   2.384   1.314 -0.0424  0.1101 -0.0328
 3001ntf    fn418006   4.275   2.420   1.937  0.1012  0.3230  0.3298
 3001ntf    fn418007   4.251   2.226   1.846 -0.1985 -0.2419  0.3053
 3001ntf    fn418008   4.427   2.338   1.816 -0.6919 -0.3147 -0.2487
 3001ntf    on518009   4.071   2.398   1.719  0.2536 -0.0456 -0.5305
 3001ntf    on518010   4.238   2.577   1.719  0.3887 -0.0689 -0.2943
 3001ntf    on518011   4.458   2.378   1.388  0.1542 -0.4030 -0.2380
 3001ntf    on518012   4.317   2.577   1.430  0.5198 -0.4167  0.4637
 3001ntf    fn418013   4.103   2.453   1.323 -0.0518  0.0559  0.2811
 3001ntf    fn418014   4.259   2.408   1.192  0.2368  0.2193  0.0861
 3001ntf    fn418015   4.185   2.255   1.321 -0.0057  0.1106  0.1462
 3002ntf    cn118016   6.502   6.805   1.295  0.3002  0.1876  0.1781
 3002ntf    sn218017   6.618   6.940   1.258  0.4281  0.0269 -0.0082
 3002ntf    nn318018   6.523   7.037   1.179  0.1180 -0.1426  0.1563
 3002ntf    sn218019   6.524   7.193   1.186 -0.0783 -0.1101 -0.4584
 3002ntf    cn118020   6.521   7.248   1.013  0.2064  0.1333 -0.3874
 3002ntf    fn418021   6.421   6.773   1.195  0.5209 -0.3370  0.1626
 3002ntf    fn418022   6.560   6.690   1.324 -0.2279 -0.0959  0.1262
 3002ntf    fn418023   6.431   6.844   1.400 -0.7446 -0.1101 -0.3990
 3002ntf    on518024   6.649   6.986   1.391  0.0212 -0.5143  0.2776
 3002ntf    on518025   6.718   6.874   1.177 -0.0884  0.1225 -0.7408
 3002ntf    on518026   6.645   7.257   1.233  0.0202 -0.5942 -0.0483
 3002ntf    on518027   6.398   7.243   1.237  0.3514  0.0600  0.4617
 3002ntf    fn418028   6.436   7.173   0.944 -0.0900 -0.1052  0.2268
 3002ntf    fn418029   6.493   7.374   0.984  0.4466  0.3200  0.1703
 3002ntf    fn418030   6.633   7.221   0.947  0.1722 -0.1161 -0.3470
 3003ntf    cn118031   0.082   6.250   5.227 -0.5298 -0.2434  0.1913
 3003ntf    sn218032   0.012   6.387   5.325 -0.1924 -0.0730  0.1974
 3003ntf    nn318033  -0.118   6.314   5.376 -0.0732 -0.3348  0.1316
 3003ntf    sn218034  -0.261   6.325   5.311 -0.0443  0.0134  0.1248
 3003ntf    cn118035  -0.383   6.286   5.439 -0.1414  0.1468  0.0736
 3003ntf    fn418036   0.022   6.232   5.110  0.2210  0.2276 -0.2740
 3003ntf    fn418037   0.211   6.264   5.200 -0.5071 -0.2237  0.3111
 3003ntf    fn418038   0.071   6.133   5.287 -0.1779 -0.3176  0.1109
 3003ntf    on518039   0.108   6.411   5.430 -0.0970  0.0232  0.0876
 3003ntf    on518040  -0.010   6.486   5.224 -0.0874 -0.1949  0.0549
 3003ntf    on518041  -0.287   6.218   5.219 -0.1302  0.1464 -0.0061
 3003ntf    on518042  -0.293   6.455   5.257  0.2382  0.0977  0.1548
 3003ntf    fn418043  -0.507   6.305   5.396 -0.1768 -0.9845 -0.3705
 3003ntf    fn418044  -0.377   6.159   5.477  0.4961  0.0821 -0.2337
 3003ntf    fn418045  -0.365   6.367   5.542  0.0159 -0.1443  0.2773
 3004ntf    cn118046   0.131   4.271   6.668 -0.2779  0.0745  0.3024
 3004ntf    sn218047   0.067   4.417   6.581 -0.1072  0.0913  0.2037
 3004ntf    nn318048   0.172   4.527   6.617 -0.0595  0.0156  0.2969
 3004ntf    sn218049   0.148   4.678   6.654 -0.2326  0.1621 -0.3938
 3004ntf    cn118050   0.297   4.769   6.601 -0.0080 -0.0491 -0.1290
 3004ntf    fn418051   0.241   4.225   6.610 -0.1138  0.2821  0.4475
 3004ntf    fn418052   0.144   4.289   6.798 -0.0083  0.2848  0.2483
 3004ntf    fn418053   0.036   4.179   6.668 -0.0503 -0.1718 -0.4523
 3004ntf    on518054   0.080   4.380   6.442 -0.7687  0.1178  0.1308
 3004ntf    on518055  -0.065   4.436   6.635 -0.1314 -0.3006  0.2852
 3004ntf    on518056   0.160   4.702   6.795 -0.3248  0.1576 -0.3855
 3004ntf    on518057   0.037   4.750   6.596  0.1240  1.1077  0.0743
 3004ntf    fn418058   0.284   4.809   6.475 -0.0100  0.2513 -0.0348
 3004ntf    fn418059   0.311   4.877   6.677 -0.9139  0.0199 -0.0474
 3004ntf    fn418060   0.409   4.699   6.601 -0.0993 -0.2000  0.3962
 3005ntf    cn118061   3.088   0.431   3.306 -0.3053 -0.1012  0.2853
 3005ntf    sn218062   3.215   0.375   3.424  0.1131 -0.0738 -0.1474
 3005ntf    nn318063   3.271   0.516   3.465 -0.4470  0.2014 -0.3112
 3005ntf    sn218064   3.236   0.587   3.600  0.1389  0.1045 -0.1034
 3005ntf    cn118065   3.294   0.757   3.574  0.1329  0.1042 -0.1186
 3005ntf    fn418066   3.032   0.546   3.338  0.2309  0.1013  0.5030
 3005ntf    fn418067   3.144   0.445   3.186 -0.7009 -0.0331  0.1080
 3005ntf    fn418068   2.990   0.344   3.288 -0.3681  0.1085 -0.4305
 3005ntf    on518069   3.136   0.303   3.521 -0.2731 -0.0356 -0.4298
 3005ntf    on518070   3.301   0.291   3.344 -0.1225 -0.0943 -0.3828
 3005ntf    on518071   3.309   0.546   3.717  0.1341  0.2026 -0.0658
 3005ntf    on518072   3.095   0.608   3.628 -0.0503 -0.5931 -0.5192
 3005ntf    fn418073   3.425   0.769   3.565  0.0921  0.3546 -0.4364
 3005ntf    fn418074   3.253   0.809   3.459  0.3515 -0.0958 -0.2881
 3005ntf    fn418075   3.269   0.848   3.666  0.2426  0.0143  0.0002
 3006ntf    cn118076   5.846   1.103   0.588 -0.6263 -0.0642  0.3974
 3006ntf    sn218077   5.877   1.222   0.721  0.3721  0.2123 -0.0729
 3006ntf    nn318078   5.943   1.333   0.632  0.6828  0.3663  0.3462
 3006ntf    sn218079   5.877   1.464   0.577 -0.0337 -0.0401  0.2287
 3006ntf    cn118080   6.004   1.527   0.464 -0.1374 -0.1050  0.0753
 3006ntf    fn418081   5.957   1.048   0.542 -0.8048  0.1746 -0.3345
 3006ntf    fn418082   5.781   0.994   0.626 -0.2130 -0.3894  0.1786
 3006ntf    fn418083   5.774   1.143   0.485  0.5010  0.4230 -0.2180
 3006ntf    on518084   5.743   1.253   0.764  0.1115 -0.2119 -0.5813
 3006ntf    on518085   5.966   1.153   0.812  0.6729 -0.1104 -0.6079
 3006ntf    on518086   5.862   1.575   0.668 -0.3702  0.0690  0.0447
 3006ntf    on518087   5.764   1.435   0.492 -0.0867  0.0729  0.2594
 3006ntf    fn418088   5.977   1.649   0.419  0.2700 -0.1572 -0.3193
 3006ntf    fn418089   6.125   1.528   0.517 -0.0834 -0.3514 -0.0437
 3006ntf    fn418090   6.014   1.455   0.353  0.5253 -0.4842  0.3721
 3007ntf    cn118091   4.157   6.988   6.456  0.0914 -0.2689 -0.1207
 3007ntf    sn218092   4.266   6.950   6.597  0.1734 -0.4935 -0.2438
 3007ntf    nn318093   4.162   6.867   6.680 -0.0909 -0.1345 -0.2154
 3007ntf    sn218094   4.079   6.908   6.807 -0.1140 -0.3056 -0.1757
 3007ntf    cn118095   4.165   6.821   6.941 -0.2679  0.0027  0.1233
 3007ntf    fn418096   4.130   6.882   6.381  0.4881 -0.2140 -0.3457
 3007ntf    fn418097   4.036   7.027   6.491  0.1481 -0.5678  0.4347
 3007ntf    fn418098   4.210   7.070   6.367  0.7450 -0.0869  0.4244
 3007ntf    on518099   4.366   6.869   6.531  0.0146 -0.8423 -0.0557
 3007ntf    on518100   4.292   7.083   6.646  0.1925 -0.6483  0.1678
 3007ntf    on518101   3.950   6.843   6.804 -0.3067  0.0834 -0.3318
 3007ntf    on518102   4.070   7.045   6.850 -0.9660 -0.4243  0.0541
 3007ntf    fn418103   4.281   6.880   6.968 -0.3146  0.1381  0.0300
 3007ntf    fn418104   4.104   6.801   7.057  0.4477  0.3849  0.5741
 3007ntf    fn418105   4.200   6.700   6.901 -0.4007 -0.0260  0.0954
 3008ntf    cn118106   0.940   1.932   3.539  0.1983  0.1978 -0.2494
 3008ntf    sn218107   0.934   2.114   3.535 -0.0449  0.2040  0.2255
 3008ntf    nn318108   0.982   2.153   3.679 -0.2385  0.4110  0.2334
 3008ntf    sn218109   1.073   2.278   3.707  0.1743  0.2186 -0.2400
 3008ntf    cn118110   1.032   2.301   3.883  0.0747 -0.0331 -0.2287
 3008ntf    fn418111   1.064   1.886   3.545  0.2817  0.4837  0.3539
 3008ntf    fn418112   0.875   1.881   3.643  0.7235 -0.2687 -0.1447
 3008ntf    fn418113   0.874   1.886   3.434  0.4610 -0.0690 -0.2992
 3008ntf    on518114   1.032   2.132   3.430 -0.3641 -0.5896 -0.2199
 3008ntf    on518115   0.796   2.139   3.502 -0.0542 -0.8508 -0.6024
 3008ntf    on518116   1.037   2.402   3.644  0.4155  0.3925 -0.0351
 3008ntf    on518117   1.213   2.243   3.706  0.0746 -0.2133  0.2404
 3008ntf    fn418118   0.913   2.357   3.896 -0.0427 -0.1774 -0.6727
 3008ntf    fn418119   1.022   2.190   3.953  0.1563 -0.0150 -0.1880
 3008ntf    fn418120   1.123   2.373   3.948  0.2517 -0.3849 -0.0852
 3009ntf    cn118121   6.655   6.026   1.850 -0.2325  0.0604 -0.2429
 3009ntf    sn218122   6.655   6.076   2.025  0.2962 -0.1074 -0.1940
 3009ntf    nn318123   6.570   6.207   2.032  0.1340 -0.2294  0.1157
 3009ntf    sn218124   6.417   6.232   2.059  0.0224 -0.3795 -0.3628
 3009ntf    cn118125   6.368   6.288   1.894 -0.2428  0.1559 -0.1022
 3009ntf    fn418126   6.684   6.126   1.768 -0.6458 -0.0862 -0.5713
 3009ntf    fn418127   6.744   5.929   1.839  0.2104  0.4189  0.1409
 3009ntf    fn418128   6.543   5.971   1.809  0.1757 -0.4836 -0.6425
 3009ntf    on518129   6.603   5.961   2.094 -0.0954 -0.0729 -0.4270
 3009ntf    on518130   6.794   6.106   2.053  0.2839  0.3247 -0.5894
 3009ntf    on518131   6.393   6.344   2.147 -0.2902 -0.4769 -0.3219
 3009ntf    on518132   6.332   6.116   2.076 -0.6967  0.2574  0.4853
 3009ntf    fn418133   6.238   6.290   1.868 -0.2002 -0.0233 -0.3282
 3009ntf    fn418134   6.412   6.413   1.886 -0.2830  0.1846  0.1193
 3009ntf    fn418135   6.430   6.224   1.797 -0.0659 -0.1626  0.2209
 3010ntf    cn118136   5.459   1.140   4.062  0.4399 -0.1153  0.0016
 3010ntf    sn218137   5.516   0.998   4.161  0.0132 -0.0485  0.3429
 3010ntf    nn318138   5.428   0.896   4.081  0.3066  0.2621 -0.3819
 3010ntf    sn218139   5.461   0.778   3.982  0.1098 -0.3656  0.2927
 3010ntf    cn118140   5.332   0.813   3.859  0.2457  0.0980  0.2787
 3010ntf    fn418141   5.465   1.119   3.931 -0.7199  0.3492 -0.1364
 3010ntf    fn418142   5.332   1.164   4.090  0.2800  0.0057 -0.8036
 3010ntf    fn418143   5.534   1.248   4.079  0.3175 -0.1464  0.7502
 3010ntf    on518144   5.660   0.995   4.150 -0.0333 -0.5550 -0.1954
 3010ntf    on518145   5.468   1.036   4.292 -0.0055 -0.0346  0.3320
 3010ntf    on518146   5.436   0.646   4.033  0.1555 -0.6512 -0.4121
 3010ntf    on518147   5.582   0.797   3.905 -0.5546 -0.7930 -0.8761
 3010ntf    fn418148   5.210   0.801   3.908  0.3782 -0.5497  0.4583
 3010ntf    fn418149   5.339   0.931   3.800  0.3497 -0.0632 -0.0367
 3010ntf    fn418150   5.338   0.728   3.757  0.5485  0.4743 -0.0187
 3011ntf    cn118151   6.635   3.630   3.073  0.5476  0.0681  0.2161
 3011ntf    sn218152   6.623   3.504   3.204 -0.0685  0.1826  0.2751
 3011ntf    nn318153   6.603   3.373   3.119  0.3254 -0.0542  0.5391
 3011ntf    sn218154   6.705   3.257   3.096  0.2120 -0.0681  0.0906
 3011ntf    cn118155   6.673   3.222   2.921  0.2921  0.0382  0.0546
 3011ntf    fn418156   6.516   3.652   3.020  0.8733  0.7854 -0.2270
 3011ntf    fn418157   6.691   3.747   3.100 -0.0095  0.2701  0.5178
 3011ntf    fn418158   6.709   3.588   2.972 -0.0833  0.1943 -0.2983
 3011ntf    on518159   6.751   3.518   3.269 -0.0445  0.6400  0.1325
 3011ntf    on518160   6.501   3.543   3.270  0.0865  0.3642  0.4554
 3011ntf    on518161   6.658   3.134   3.156 -0.0541  0.1321  0.2933
 3011ntf    on518162   6.844   3.295   3.090  0.2495 -0.1345  0.5054
 3011ntf    fn418163   6.703   3.330   2.849 -0.1653 -0.0306 -0.2432
 3011ntf    fn418164   6.749   3.126   2.871  0.4349  0.1461  0.0635
 3011ntf    fn418165   6.550   3.187   2.887  0.1005  0.4209  0.3486
 3012ntf    cn118166   3.872   3.573   1.919  0.1269  0.2446 -0.1375
 3012ntf    sn218167   3.823   3.690   2.049  0.1563  0.2362 -0.1190
 3012ntf    nn318168   3.754   3.583   2.141 -0.0388  0.3925 -0.0822
 3012ntf    sn218169   3.781   3.540   2.290  0.1495 -0.3384 -0.3239
 3012ntf    cn118170   3.894   3.397   2.286  0.5451 -0.0382  0.0415
 3012ntf    fn418171   3.935   3.636   1.821 -0.1443  0.2908 -0.2832
 3012ntf    fn418172   3.953   3.475   1.957  0.1442  0.0660 -0.6351
 3012ntf    fn418173   3.768   3.510   1.867  0.2429  0.1755 -0.2852
 3012ntf    on518174   3.944   3.748   2.102  0.0676  0.3651 -0.0548
 3012ntf    on518175   3.725   3.767   1.976 -0.0622 -0.2815 -0.3762
 3012ntf    on518176   3.657   3.490   2.344  0.0055  0.9211  0.5383
 3012ntf    on518177   3.855   3.632   2.372  0.1455 -0.4942 -0.1458
 3012ntf    fn418178   3.890   3.324   2.396  0.0525 -0.4038 -0.2163
 3012ntf    fn418179   3.861   3.306   2.196 -0.0760  0.1770  0.0425
 3012ntf    fn418180   4.021   3.424   2.261  0.4338 -0.0771 -0.5994
 3013ntf    cn118181   0.745   4.733   3.807 -0.5115 -0.1861 -0.1297
 3013ntf    sn218182   0.627   4.852   3.877 -0.3400 -0.0544 -0.0654
 3013ntf    nn318183   0.631   4.798   4.024 -0.0142  0.8806  0.2791
 3013ntf    sn218184   0.518   4.758   4.126  0.0580  0.0105  0.0293
 3013ntf    cn118185   0.470   4.925   4.178 -0.1725  0.0499 -0.3064
 3013ntf    fn418186   0.789   4.759   3.685 -0.2290 -0.4308 -0.0782
 3013ntf    fn418187   0.856   4.725   3.878 -0.7141 -0.2952  0.1796
 3013ntf    fn418188   0.702   4.608   3.799  0.0242 -0.3525 -0.4380
 3013ntf    on518189   0.686   4.983   3.860  0.1829 -0.2945 -0.0834
 3013ntf    on518190   0.500   4.824   3.815 -0.5012  0.2257  0.1337
 3013ntf    on518191   0.559   4.694   4.248 -0.1272 -0.1636 -0.0007
 3013ntf    on518192   0.398   4.710   4.063  0.1917  0.5191 -0.6291
 3013ntf    fn418193   0.421   4.989   4.073 -0.0957  0.2021 -0.2487
 3013ntf    fn418194   0.375   4.923   4.270 -0.5825  0.3363 -0.7146
 3013ntf    fn418195   0.568   4.996   4.232  0.1518 -0.1639 -0.6181
 3014ntf    cn118196   4.760   1.581   1.766 -0.1149  0.1043  0.1840
 3014ntf    sn218197   4.854   1.473   1.655  0.0377  0.2481  0.1739
 3014ntf    nn318198   4.737   1.381   1.604  0.4571 -0.0172 -0.3255
 3014ntf    sn218199   4.625   1.415   1.500  0.1288  0.3087  0.1338
 3014ntf    cn118200   4.683   1.375   1.333 -0.1009 -0.1534  0.1627
 3014ntf    fn418201   4.837   1.671   1.824  0.1003 -0.1924  0.3596
 3014ntf    fn418202   4.655   1.640   1.710  0.0179  0.0255 -0.1457
 3014ntf    fn418203   4.701   1.520   1.868  0.4653 -0.0773  0.4106
 3014ntf    on518204   4.910   1.551   1.547  0.6494 -0.0699  0.2591
 3014ntf    on518205   4.947   1.412   1.746  0.3095  0.1137 -0.1879
 3014ntf    on518206   4.577   1.550   1.477  0.4041  0.4584  0.4305
 3014ntf    on518207   4.515   1.323   1.519 -0.5353  1.0270 -0.1639
 3014ntf    fn418208   4.589   1.409   1.246 -0.0082 -0.3687 -0.0224
 3014ntf    fn418209   4.800   1.427   1.298  0.1125 -0.0855  0.9654
 3014ntf    fn418210   4.695   1.247   1.304  0.5819 -0.0766  0.1016
 3015ntf    cn118211   4.822   2.613   5.858  0.6003 -0.0083  0.3519
 3015ntf    sn218212   4.969   2.586   5.755 -0.1285 -0.0652 -0.6906
 3015ntf    nn318213   4.957   2.431   5.738  0.3984 -0.2067  0.1781
 3015ntf    sn218214   5.031   2.328   5.645  0.2899 -0.1135 -0.0112
 3015ntf    cn118215   4.916   2.336   5.504  0.3731  0.5180 -0.0441
 3015ntf    fn418216   4.837   2.565   5.981 -0.4207  0.1669  0.5557
 3015ntf    fn418217   4.801   2.742   5.882  0.1004 -0.1431  0.6682
 3015ntf    fn418218   4.713   2.561   5.804  0.5356  0.9143 -0.4398
 3015ntf    on518219   4.946   2.669   5.639 -0.7456  0.8694  0.0832
 3015ntf    on518220   5.081   2.616   5.840 -0.6036 -0.7681  0.1974
 3015ntf    on518221   5.003   2.191   5.683  0.7875 -0.1192  0.3371
 3015ntf    on518222   5.164   2.360   5.601 -0.2198  0.7231 -1.0022
 3015ntf    fn418223   4.891   2.456   5.454  0.0800  0.5205  0.1068
 3015ntf    fn418224   4.963   2.269   5.400 -0.0576  0.0746  0.0407
 3015ntf    fn418225   4.799   2.280   5.532  0.4994 -0.0864 -0.6889
 3016ntf    cn118226   5.874   0.224   0.439 -0.1799 -0.0360  0.0972
 3016ntf    sn218227   5.797   0.311   0.579  0.1174  0.2313  0.0965
 3016ntf    nn318228   5.658   0.237   0.590  0.1279  0.2178  0.1375
 3016ntf    sn218229   5.617   0.107   0.667 -0.1910  0.1225 -0.1927
 3016ntf    cn118230   5.481   0.034   0.570 -0.0187 -0.1172 -0.2553
 3016ntf    fn418231   5.824   0.255   0.320  0.1590 -0.8507 -0.2645
 3016ntf    fn418232   6.004   0.247   0.430 -0.1194 -0.2326  0.4470
 3016ntf    fn418233   5.871   0.092   0.446  0.3062 -0.0617 -0.1598
 3016ntf    on518234   5.889   0.284   0.687 -0.4108 -0.1854  0.4548
 3016ntf    on518235   5.783   0.449   0.540  0.5690  0.3469  0.3348
 3016ntf    on518236   5.545   0.126   0.790 -0.0390 -0.7672  0.0408
 3016ntf    on518237   5.719   0.005   0.668  0.0842  0.3981  0.3221
 3016ntf    fn418238   5.363   0.080   0.607  0.1329  0.0642  0.0032
 3016ntf    fn418239   5.503   0.072   0.445 -0.3313  0.0883 -0.2496
 3016ntf    fn418240   5.474  -0.098   0.568  0.2744 -0.1335 -0.2558
 3017ntf    cn118241   4.043   2.747   2.583  0.4775 -0.1518 -0.0927
 3017ntf    sn218242   4.147   2.819   2.713  0.0192  0.1683  0.0972
 3017ntf    nn318243   4.061   2.773   2.836 -0.3936  0.2471 -0.1594
 3017ntf    sn218244   4.032   2.631   2.895  0.3817  0.1161 -0.0787
 3017ntf    cn118245   4.121   2.654   3.052 -0.2400  0.0852  0.2826
 3017ntf    fn418246   4.108   2.726   2.470 -0.0294 -0.1022 -0.3973
 3017ntf    fn418247   3.980   2.634   2.608  0.2209  0.1615  0.7080
 3017ntf    fn418248   3.946   2.828   2.543 -0.2632 -0.7594  0.4358
 3017ntf    on518249   4.272   2.750   2.698 -0.1860 -0.3513  0.7320
 3017ntf    on518250   4.142   2.962   2.691  0.7016  0.2209  0.2710
 3017ntf    on518251   4.103   2.520   2.836  0.4828 -0.0626  0.3697
 3017ntf    on518252   3.895   2.608   2.935  0.3439  0.1805 -0.1716
 3017ntf    fn418253   4.247   2.689   3.038 -0.3492  0.3172 -0.1295
 3017ntf    fn418254   4.067   2.752   3.121 -0.5340  0.1135  0.0175
 3017ntf    fn418255   4.112   2.550   3.133  0.0400 -0.1402  0.0273
 3018ntf    cn118256   0.913   4.911   1.600 -0.1219  0.3743 -0.1987
 3018ntf    sn218257   1.072   4.827   1.571 -0.1578  0.0541  0.5009
 3018ntf    nn318258   1.011   4.688   1.609  0.2690 -0.2544  0.0734
 3018ntf    sn218259   0.982   4.564   1.518 -0.2380  0.0881 -0.2359
 3018ntf    cn118260   1.141   4.477   1.533 -0.0763  0.4731  0.2787
 3018ntf    fn418261   0.908   5.038   1.564  0.3828  0.7111  0.8685
 3018ntf    fn418262   0.814   4.864   1.526 -0.0222  0.0096 -0.1022
 3018ntf    fn418263   0.874   4.902   1.726  0.6213  0.6567  0.0618
 3018ntf    on518264   1.107   4.858   1.434 -0.0849  0.1454  0.5400
 3018ntf    on518265   1.161   4.884   1.669  0.6827  0.5011 -0.4950
 3018ntf    on518266   0.976   4.582   1.375  0.0244  0.2345 -0.2280
 3018ntf    on518267   0.898   4.466   1.582  0.1828 -0.1041  0.0268
 3018ntf    fn418268   1.137   4.358   1.477 -0.0352  0.4218  0.3848
 3018ntf    fn418269   1.235   4.551   1.476 -0.4636  0.6323 -0.1616
 3018ntf    fn418270   1.179   4.467   1.660  0.0433 -0.2236  0.1910
 3019ntf    cn118271   2.789   0.511   6.413  0.1111  0.0794  0.7469
 3019ntf    sn218272   2.887   0.374   6.344 -0.2535  0.1567  0.0674
 3019ntf    nn318273   2.796   0.340   6.221  0.5626 -0.0417 -0.4858
 3019ntf    sn218274   2.702   0.215   6.204 -0.2040  0.3736  0.6095
 3019ntf    cn118275   2.818   0.082   6.162 -0.4305  0.2527  0.3607
 3019ntf    fn418276   2.796   0.617   6.335 -0.0395 -0.7437 -0.3987
 3019ntf    fn418277   2.659   0.494   6.431  0.0139 -0.0515 -0.0569
 3019ntf    fn418278   2.847   0.554   6.524 -0.0559  0.4730  0.6798
 3019ntf    on518279   3.001   0.454   6.307  0.1299 -0.4175 -0.0095
 3019ntf    on518280   2.898   0.268   6.442  0.2557 -0.0749 -0.2336
 3019ntf    on518281   2.620   0.224   6.085 -0.1404 -0.6798  0.4806
 3019ntf    on518282   2.634   0.172   6.323 -0.6837  0.3049  0.3157
 3019ntf    fn418283   2.883   0.035   6.267  0.2345  0.3849  0.0175
 3019ntf    fn418284   2.754  -0.023   6.113 -1.2072  0.5832  0.6509
 3019ntf    fn418285   2.910   0.118   6.073  0.1589 -0.8206  0.5169
 3020ntf    cn118286   0.336   2.040   3.877  0.0604 -0.3222  0.0481
 3020ntf    sn218287   0.275   2.127   4.025 -0.0281 -0.1433 -0.0934
 3020ntf    nn318288   0.417   2.133   4.093 -0.0050  0.2483 -0.1762
 3020ntf    sn218289   0.476   2.113   4.236 -0.4089 -0.3185 -0.0854
 3020ntf    cn118290   0.629   2.021   4.199 -0.0415  0.3060 -0.1363
 3020ntf    fn418291   0.241   2.030   3.786 -0.0578 -0.2190  0.1613
 3020ntf    fn418292   0.443   2.099   3.825  0.2889 -0.6030  0.1972
 3020ntf    fn418293   0.379   1.919   3.909 -0.4034 -0.4768  0.0880
 3020ntf    on518294   0.242   2.257   3.972  0.1179  0.0735  0.3430
 3020ntf    on518295   0.169   2.038   4.067 -0.3182  0.3292  0.1782
 3020ntf    on518296   0.402   2.031   4.329 -0.0245 -0.2479  0.2841
 3020ntf    on518297   0.515   2.244   4.282  1.0650 -0.5955 -0.4736
 3020ntf    fn418298   0.693   1.995   4.311 -0.0062 -0.3158 -0.2965
 3020ntf    fn418299   0.610   1.905   4.138  0.3415  0.3244 -0.2924
 3020ntf    fn418300   0.716   2.097   4.135  0.0027  0.5253  0.1846
 3021ntf    cn118301   5.844   3.739   0.544 -0.0006  0.2039  0.0674
 3021ntf    sn218302   5.939   3.806   0.683  0.2413 -0.0685  0.0320
 3021ntf    nn318303   6.082   3.807   0.617  0.1608 -0.2440 -0.1472
 3021ntf    sn218304   6.150   3.928   0.544 -0.0320  0.0586  0.1701
 3021ntf    cn118305   6.207   4.032   0.682  0.4007 -0.2948  0.2576
 3021ntf    fn418306   5.816   3.832   0.454 -0.0797  0.0727 -0.0445
 3021ntf    fn418307   5.910   3.643   0.481  0.2231  0.3763  0.0367
 3021ntf    fn418308   5.729   3.683   0.580  0.0574  0.0879  0.0691
 3021ntf    on518309   5.883   3.937   0.702 -0.4390 -0.2790 -0.4957
 3021ntf    on518310   5.929   3.705   0.786  0.2838 -0.3819 -0.2661
 3021ntf    on518311   6.073   4.017   0.461  0.9084  0.5046 -0.2353
 3021ntf    on518312   6.270   3.880   0.481 -0.2895 -0.0443 -0.2459
 3021ntf    fn418313   6.115   4.084   0.761 -0.2105 -0.3759 -0.3944
 3021ntf    fn418314   6.296   3.968   0.758  0.0601 -0.7837  0.2512
 3021ntf    fn418315   6.275   4.133   0.631  0.0369 -0.2138 -0.0710
 3022ntf    cn118316   3.220   2.121   1.252 -0.1477  0.3989 -0.0823
 3022ntf    sn218317   3.067   2.157   1.160 -0.2944 -0.1102 -0.0394
 3022ntf    nn318318   3.039   2.015   1.100  0.1746 -0.2282  0.0165
 3022ntf    sn218319   2.921   1.918   1.135 -0.1331  0.0939 -0.1266
 3022ntf    cn118320   2.802   1.984   1.015 -0.1418 -0.0982 -0.2240
 3022ntf    fn418321   3.306   2.045   1.186 -0.1201  0.2382  0.1374
 3022ntf    fn418322   3.289   2.227   1.293 -0.4070  0.4132  0.3196
 3022ntf    fn418323   3.194   2.048   1.359  0.2518 -0.5605 -0.6296
 3022ntf    on518324   2.973   2.214   1.254  0.5704  0.7366  0.3350
 3022ntf    on518325   3.114   2.251   1.061  0.9683 -0.6141  0.0661
 3022ntf    on518326   2.850   1.923   1.260  0.1945 -0.7645  0.1021
 3022ntf    on518327   2.948   1.786   1.083 -0.3344  0.1837 -0.4645
 3022ntf    fn418328   2.837   1.964   0.889 -0.6737 -0.7976 -0.2683
 3022ntf    fn418329   2.684   1.925   1.030  0.1307 -0.4422  0.6178
 3022ntf    fn418330   2.781   2.113   1.036  0.3697 -0.0094 -0.2474
 3023ntf    cn118331   6.138   4.591   0.353 -0.2694  0.1757  0.4746
 3023ntf    sn218332   6.221   4.595   0.514  0.2631 -0.0567  0.2064
 3023ntf    nn318333   6.361   4.546   0.463  0.1961 -0.1868  0.1457
 3023ntf    sn218334   6.506   4.606   0.454  0.2001 -0.2001  0.1131
 3023ntf    cn118335   6.580   4.510   0.318  0.0430 -0.2981  0.0970
 3023ntf    fn418336   6.146   4.478   0.285  0.1361  0.4389  0.0810
 3023ntf    fn418337   6.008   4.614   0.368 -0.2190  0.4877  0.4337
 3023ntf    fn418338   6.176   4.684   0.267  0.1154 -0.5279 -0.1235
 3023ntf    on518339   6.216   4.730   0.564 -0.1453 -0.0688  0.1990
 3023ntf    on518340   6.154   4.487   0.583  0.0355 -0.3218 -0.4293
 3023ntf    on518341   6.596   4.584   0.565  0.2060 -0.7033  0.0089
 3023ntf    on518342   6.488   4.741   0.407  0.1098 -0.2545 -0.0078
 3023ntf    fn418343   6.503   4.532   0.212  0.3337  0.0284 -0.0490
 3023ntf    fn418344   6.699   4.558   0.286 -0.1968 -0.3624 -0.9181
 3023ntf    fn418345   6.591   4.380   0.337  0.5985 -0.3130 -0.3173
 3024ntf    cn118346   1.230   0.363   1.863  0.0902  0.1215 -0.1551
 3024ntf    sn218347   1.284   0.190   1.849  0.4028  0.1757  0.3459
 3024ntf    nn318348   1.410   0.222   1.760 -0.0481  0.1319 -0.3170
 3024ntf    sn218349   1.540   0.137   1.737 -0.1852 -0.0512 -0.4205
 3024ntf    cn118350   1.606   0.227   1.594  0.0739  0.0808 -0.2188
 3024ntf    fn418351   1.111   0.374   1.919 -0.0019  0.1994 -0.3640
 3024ntf    fn418352   1.308   0.426   1.950 -0.4552  0.3803  0.1496
 3024ntf    fn418353   1.237   0.437   1.753 -0.1695 -0.3587 -0.5004
 3024ntf    on518354   1.317   0.147   1.982  0.0985 -0.2529  0.2847
 3024ntf    on518355   1.178   0.117   1.784  0.6714  0.2323 -0.1646
 3024ntf    on518356   1.525   0.001   1.693  0.0121 -0.0964 -0.3494
 3024ntf    on518357   1.637   0.170   1.838 -0.1555  0.1002 -0.4984
 3024ntf    fn418358   1.735   0.199   1.580 -0.0131 -0.3081 -0.2504
 3024ntf    fn418359   1.549   0.195   1.479 -0.2719  0.3147 -0.1146
 3024ntf    fn418360   1.600   0.358   1.614  0.6989  0.0281  0.3533
 3025ntf    cn118361   5.331   2.953   0.649  0.2475  0.2627  0.0217
 3025ntf    sn218362   5.476   3.020   0.561  0.3030 -0.0368 -0.1194
 3025ntf    nn318363   5.581   3.037   0.676 -0.1665  0.1865  0.2823
 3025ntf    sn218364   5.708   2.948   0.700 -0.1660  0.0829 -0.0965
 3025ntf    cn118365   5.818   3.004   0.567 -0.5085  0.0783 -0.3813
 3025ntf    fn418366   5.290   3.041   0.738 -0.0886  0.1195  0.0077
 3025ntf    fn418367   5.230   2.941   0.565  0.1614  0.4030  0.1061
 3025ntf    fn418368   5.346   2.835   0.708 -0.6232  0.2195  0.1602
 3025ntf    on518369   5.513   2.914   0.471  0.5034  0.2134 -0.3309
 3025ntf    on518370   5.443   3.150   0.507  0.2876 -0.0994 -0.2608
 3025ntf    on518371   5.689   2.806   0.681 -0.3422  0.1693 -0.5661
 3025ntf    on518372   5.770   2.989   0.824 -0.5841  0.1870  0.0802
 3025ntf    fn418373   5.946   3.005   0.600 -0.7554  0.2462  0.6029
 3025ntf    fn418374   5.800   2.939   0.453 -0.5187  0.0622 -0.3703
 3025ntf    fn418375   5.786   3.129   0.536 -0.4411  0.1647 -0.1073
 3026ntf    cn118376   2.277   7.015   4.609 -0.6075  0.0611  0.0820
 3026ntf    sn218377   2.189   6.991   4.451 -0.2418 -0.1196 -0.0958
 3026ntf    nn318378   2.292   7.048   4.348 -0.0442 -0.2703  0.0192
 3026ntf    sn218379   2.258   7.141   4.226  0.0505 -0.3490 -0.0682
 3026ntf    cn118380   2.406   7.113   4.124  0.0401  0.5638 -0.3421
 3026ntf    fn418381   2.200   6.972   4.708 -0.7335 -0.5939 -0.2962
 3026ntf    fn418382   2.386   6.941   4.610 -0.3045  0.5047 -0.0545
 3026ntf    fn418383   2.301   7.141   4.640  0.2441 -0.0306 -0.1890
 3026ntf    on518384   2.181   6.848   4.445 -0.4266 -0.1009 -0.3075
 3026ntf    on518385   2.067   7.064   4.475 -0.0782  0.3309 -0.6152
 3026ntf    on518386   2.256   7.280   4.261  0.9503 -0.2836 -0.2628
 3026ntf    on518387   2.148   7.096   4.143 -0.1321 -0.3255  0.1610
 3026ntf    fn418388   2.425   6.987   4.086 -0.1731  0.5595 -0.4372
 3026ntf    fn418389   2.391   7.173   4.007 -0.1284 -0.4102 -0.8309
 3026ntf    fn418390   2.520   7.159   4.173  0.0734  0.3539 -0.2224
 3027ntf    cn118391   4.553   2.964   2.326 -0.1016  0.0902  0.0120
 3027ntf    sn218392   4.520   3.123   2.245 -0.3981  0.1118  0.1746
 3027ntf    nn318393   4.371   3.102   2.200 -0.2296 -0.0828 -0.2919
 3027ntf    sn218394   4.311   3.051   2.064 -0.0354 -0.0088 -0.4057
 3027ntf    cn118395   4.140   3.113   2.080  0.2351  0.6533 -0.0154
 3027ntf    fn418396   4.482   2.936   2.434  0.4760  0.9076  0.6165
 3027ntf    fn418397   4.552   2.859   2.245  0.3673 -0.0106  0.1296
 3027ntf    fn418398   4.675   2.957   2.377 -0.1011  0.4830  0.0630
 3027ntf    on518399   4.536   3.229   2.342  0.5196 -0.0517  0.2129
 3027ntf    on518400   4.616   3.129   2.138 -0.3917 -0.8621  0.1181
 3027ntf    on518401   4.294   2.909   2.047 -0.4838 -0.1068  0.7826
 3027ntf    on518402   4.356   3.128   1.951  0.6334  0.3006  0.0648
 3027ntf    fn418403   4.141   3.241   2.112  0.1475  0.7295 -0.3083
 3027ntf    fn418404   4.070   3.099   1.968 -0.4356 -1.1847  0.6024
 3027ntf    fn418405   4.068   3.048   2.170  0.1476 -0.0393 -0.5678
 3028ntf    cn118406   0.722   0.388   7.026  0.4134  0.0963 -0.1658
 3028ntf    sn218407   0.648   0.222   7.018  0.4783  0.0563  0.0649
 3028ntf    nn318408   0.773   0.128   7.031  0.6713  0.3004 -0.0181
 3028ntf    sn218409   0.845   0.062   6.908 -0.0070 -0.2270 -0.1386
 3028ntf    cn118410   0.969  -0.041   6.993 -0.0014 -0.0897  0.0204
 3028ntf    fn418411   0.826   0.405   6.945  0.4776  0.8499  0.0618
 3028ntf    fn418412   0.638   0.488   7.003 -0.0494 -0.3725 -0.5416
 3028ntf    fn418413   0.770   0.410   7.147 -0.0777  0.3132 -0.0065
 3028ntf    on518414   0.577   0.219   7.143  0.5918  0.0264  0.1286
 3028ntf    on518415   0.564   0.219   6.900 -0.0511 -0.0461  0.4423
 3028ntf    on518416   0.926   0.157   6.834 -0.1399 -0.3071 -0.3850
 3028ntf    on518417   0.765  -0.034   6.836  0.0375 -0.4056  0.0485
 3028ntf    fn418418   1.055  -0.092   6.907 -0.1011  0.4779 -0.4237
 3028ntf    fn418419   1.042   0.027   7.079 -0.8031  0.0785  0.5852
 3028ntf    fn418420   0.912  -0.137   7.064  0.2005 -0.3514 -0.1722
 3029ntf    cn118421   3.406   0.630   1.655  0.0524 -0.1538 -0.4947
 3029ntf    sn218422   3.497   0.787   1.671 -0.2076 -0.0111 -0.4039
 3029ntf    nn318423   3.397   0.869   1.760  0.4045  0.2965  0.0017
 3029ntf    sn218424   3.393   0.901   1.914 -0.0448 -0.1305  0.0816
 3029ntf    cn118425   3.512   1.039   1.916 -0.0657 -0.1143  0.1875
 3029ntf    fn418426   3.373   0.581   1.773  0.1018  0.0241 -0.4063
 3029ntf    fn418427   3.297   0.647   1.581 -0.0357  0.3639 -0.2546
 3029ntf    fn418428   3.481   0.538   1.597 -0.0939 -0.5634 -0.0346
 3029ntf    on518429   3.625   0.767   1.734 -0.0736 -0.2330 -0.7448
 3029ntf    on518430   3.501   0.832   1.534  0.7236  0.8991 -0.0884
 3029ntf    on518431   3.441   0.793   1.995  0.0235  0.1736  0.4475
 3029ntf    on518432   3.261   0.955   1.934  0.0483  0.1330  0.0016
 3029ntf    fn418433   3.583   1.030   2.028  0.2567  0.2745  0.0153
 3029ntf    fn418434   3.597   1.041   1.815 -0.2182 -0.4867  0.0515
 3029ntf    fn418435   3.448   1.155   1.916  0.2643  0.0676  0.2533
 3030ntf    cn118436   6.158   0.695   5.824 -0.0745 -0.0829 -0.2669
 3030ntf    sn218437   6.292   0.737   5.940 -0.3200 -0.0876  0.0204
 3030ntf    nn318438   6.202   0.819   6.039 -0.6986  0.3334 -0.6678
 3030ntf    sn218439   6.244   0.949   6.117 -0.1829 -0.0781 -0.2558
 3030ntf    cn118440   6.398   0.891   6.194 -0.3704 -0.4016 -0.1190
 3030ntf    fn418441   6.097   0.588   5.872  0.1399  0.0975  0.4186
 3030ntf    fn418442   6.067   0.790   5.810  0.3106  0.4792  0.8897
 3030ntf    fn418443   6.199   0.662   5.703 -0.3006 -0.4153 -0.2545
 3030ntf    on518444   6.351   0.615   5.990 -0.3473 -0.0531  0.1355
 3030ntf    on518445   6.376   0.818   5.855 -0.4541  0.1712  0.1321
 3030ntf    on518446   6.162   0.978   6.232  0.6685 -0.9338  0.5931
 3030ntf    on518447   6.290   1.064   6.044  0.6510  0.0618  0.4772
 3030ntf    fn418448   6.440   0.978   6.285  0.2797 -0.9814  0.1427
 3030ntf    fn418449   6.390   0.771   6.249 -0.1730 -0.2259  0.3008
 3030ntf    fn418450   6.489   0.889   6.097 -0.4504  0.4675 -0.2223
 3031ntf    cn118451   1.894   4.212   4.004  0.3432 -0.0563 -0.1618
 3031ntf    sn218452   1.716   4.177   3.993  0.3223 -0.0179  0.0305
 3031ntf    nn318453   1.693   4.233   3.848  0.4208  0.3299  0.1497
 3031ntf    sn218454   1.618   4.366   3.809  0.2421  0.2059  0.0705
 3031ntf    cn118455   1.545   4.316   3.650  0.0793 -0.0651  0.2290
 3031ntf    fn418456   1.932   4.339   4.005  0.1406  0.0054  0.0256
 3031ntf    fn418457   1.943   4.171   4.120  0.5052  0.3405 -0.0879
 3031ntf    fn418458   1.960   4.149   3.908  0.2728  0.2925 -0.4405
 3031ntf    on518459   1.720   4.032   3.991  0.2237 -0.0218  0.1227
 3031ntf    on518460   1.647   4.244   4.099  0.8262  0.0195  0.3367
 3031ntf    on518461   1.709   4.469   3.766 -0.2423  0.8201  0.5140
 3031ntf    on518462   1.500   4.398   3.884  0.0162 -0.3612 -0.0301
 3031ntf    fn418463   1.438   4.238   3.654 -0.0755  0.1241 -0.1077
 3031ntf    fn418464   1.502   4.421   3.581  0.3327  0.1616  0.4138
 3031ntf    fn418465   1.633   4.257   3.571  0.0924  0.0566  0.1523
 3032ntf    cn118466   6.352   2.154   7.043 -0.3229  0.1803  0.0040
 3032ntf    sn218467   6.442   2.017   6.966 -0.2965  0.2386 -0.0705
 3032ntf    nn318468   6.529   1.963   7.086 -0.3548  0.0599 -0.1078
 3032ntf    sn218469   6.683   1.933   7.097 -0.3963 -0.1125  0.0030
 3032ntf    cn118470   6.675   1.753   7.072 -0.5826 -0.1326  0.2004
 3032ntf    fn418471   6.445   2.224   7.105 -0.1847 -0.2210  0.2535
 3032ntf    fn418472   6.283   2.224   6.954  0.5183  0.4914 -0.4173
 3032ntf    fn418473   6.267   2.115   7.137 -0.3933 -0.0267 -0.1450
 3032ntf    on518474   6.341   1.926   6.918 -0.2234 -0.1753  0.5404
 3032ntf    on518475   6.522   2.084   6.867 -0.1483 -0.2933 -0.3138
 3032ntf    on518476   6.735   1.948   7.230  0.5170  0.6554 -0.4242
 3032ntf    on518477   6.767   1.979   6.989  0.4314 -0.1804  0.6089
 3032ntf    fn418478   6.798   1.704   7.078 -0.4702  0.0877 -0.2024
 3032ntf    fn418479   6.602   1.688   7.161 -0.0722 -0.2250  0.5531
 3032ntf    fn418480   6.630   1.735   6.949 -0.3884 -0.6085  0.1959
 3033ntf    cn118481   1.460   6.957   0.675 -0.3083  0.1577  0.4573
 3033ntf    sn218482   1.366   6.806   0.639  0.3952 -0.1794  0.0172
 3033ntf    nn318483   1.307   6.856   0.503  0.4168  0.5294  0.2650
 3033ntf    sn218484   1.343   6.828   0.353  0.1442  0.0989  0.2797
 3033ntf    cn118485   1.174   6.840   0.288  0.3076 -0.3960 -0.2519
 3033ntf    fn418486   1.572   6.930   0.740 -0.0141  0.3080  0.0138
 3033ntf    fn418487   1.486   7.019   0.561  0.6937 -0.0202  0.5822
 3033ntf    fn418488   1.394   7.040   0.755 -0.2046  0.3488  0.3467
 3033ntf    on518489   1.464   6.700   0.629  0.5659 -0.0362  0.1646
 3033ntf    on518490   1.281   6.808   0.756  0.2612 -0.0930 -0.0820
 3033ntf    on518491   1.376   6.691   0.322  0.0239  0.1851 -0.2369
 3033ntf    on518492   1.414   6.934   0.286  0.1876 -0.0525  0.0829
 3033ntf    fn418493   1.128   6.961   0.314 -0.0204 -0.5667 -0.0278
 3033ntf    fn418494   1.173   6.819   0.157 -0.2085 -0.0760 -0.3025
 3033ntf    fn418495   1.088   6.752   0.338 -0.1038  0.1350 -0.0184
 3034ntf    cn118496   1.469   6.867   6.137 -0.0287  0.0583 -0.3469
 3034ntf    sn218497   1.483   6.699   6.207 -0.1240  0.1865 -0.0187
 3034ntf    nn318498   1.340   6.637   6.185  0.1109 -0.2881 -0.2131
 3034ntf    sn218499   1.213   6.648   6.276  0.1754  0.1471 -0.1731
 3034ntf    cn118500   1.077   6.640   6.156  0.2802 -0.3291 -0.2610
 3034ntf    fn418501   1.437   6.873   6.009 -0.1582 -0.5811 -0.3493
 3034ntf    fn418502   1.384   6.949   6.197  0.4021 -0.0074  0.3630
 3034ntf    fn418503   1.590   6.917   6.149  0.0304  0.0352 -0.8381
 3034ntf    on518504   1.580   6.634   6.124 -0.1900  0.3702 -0.2420
 3034ntf    on518505   1.521   6.730   6.343  0.4281 -0.2119 -0.0836
 3034ntf    on518506   1.200   6.778   6.338  0.2329  0.3020 -0.4831
 3034ntf    on518507   1.184   6.532   6.356  0.0587  0.2054 -0.1297
 3034ntf    fn418508   1.118   6.657   6.031  0.7347  0.1395 -0.0510
 3034ntf    fn418509   1.001   6.532   6.162 -0.2485  0.0831  0.6078
 3034ntf    fn418510   1.007   6.751   6.170  0.0422 -0.5295  0.1372
 3035ntf    cn118511   6.508   5.345   6.167  0.1202 -0.2135 -0.4376
 3035ntf    sn218512   6.666   5.379   6.084  0.3747 -0.1571  0.0650
 3035ntf    nn318513   6.754   5.299   6.186  0.1669 -0.2360  0.1834
 3035ntf    sn218514   6.835   5.342   6.313  0.3316 -0.1391  0.0466
 3035ntf    cn118515   7.004   5.332   6.247  0.3658 -0.5438  0.1947
 3035ntf    fn418516   6.425   5.440   6.128 -0.0731 -0.2447 -0.1098
 3035ntf    fn418517   6.447   5.230   6.146 -0.3785  0.0438 -0.4164
 3035ntf    fn418518   6.523   5.361   6.298  0.0693 -0.0535 -0.4509
 3035ntf    on518519   6.653   5.297   5.966 -0.0528  0.1436 -0.1006
 3035ntf    on518520   6.686   5.521   6.066 -0.0615 -0.1421 -0.3256
 3035ntf    on518521   6.831   5.241   6.416 -0.0270  0.5119  0.6784
 3035ntf    on518522   6.814   5.479   6.352  0.0761  0.0875 -0.8699
 3035ntf    fn418523   7.053   5.211   6.226  0.1631 -0.6396  0.2704
 3035ntf    fn418524   7.011   5.396   6.132  0.1192 -0.5360  0.1826
 3035ntf    fn418525   7.083   5.407   6.322  0.0064  0.7634 -0.6968
 3036ntf    cn118526   5.259   1.622   2.756 -0.3815  0.3684  0.1611
 3036ntf    sn218527   5.139   1.539   2.646 -0.0465  0.0238  0.0526
 3036ntf    nn318528   5.183   1.389   2.655  0.4664  0.1863  0.3035
 3036ntf    sn218529   5.095   1.263   2.686  0.1417  0.3880  0.2072
 3036ntf    cn118530   5.098   1.272   2.868 -0.1199 -0.8609  0.2820
 3036ntf    fn418531   5.383   1.589   2.725 -0.4567 -0.0280  0.2771
 3036ntf    fn418532   5.253   1.753   2.748  0.2899  0.3542 -0.6973
 3036ntf    fn418533   5.239   1.598   2.884 -0.0709  0.2524  0.1886
 3036ntf    on518534   5.017   1.576   2.714 -0.0980  0.2234 -0.1462
 3036ntf    on518535   5.167   1.600   2.519  0.2161 -0.3542 -0.0710
 3036ntf    on518536   5.167   1.138   2.678 -0.5353 -0.0243  0.4902
 3036ntf    on518537   4.954   1.261   2.657  0.2776 -0.5020 -0.4674
 3036ntf    fn418538   5.048   1.165   2.928 -0.6071 -1.0589 -0.4597
 3036ntf    fn418539   5.216   1.288   2.924 -0.3271  0.5460  0.3525
 3036ntf    fn418540   5.020   1.369   2.912 -0.0824 -0.5958 -0.2328
 3037ntf    cn118541   0.613   2.558   5.368 -0.2855  0.0290  0.0157
 3037ntf    sn218542   0.712   2.416   5.312  0.0895  0.2404  0.1385
 3037ntf    nn318543   0.855   2.462   5.358  0.2274  0.2011 -0.2421
 3037ntf    sn218544   0.996   2.431   5.296  0.2178 -0.3687  0.0152
 3037ntf    cn118545   0.997   2.251   5.319  0.0232 -0.3401  0.2520
 3037ntf    fn418546   0.487   2.565   5.329 -0.3011 -0.5845 -0.0558
 3037ntf    fn418547   0.625   2.572   5.499 -0.2182  0.0665  0.0057
 3037ntf    fn418548   0.664   2.670   5.319 -0.1909  0.1636  0.4163
 3037ntf    on518549   0.658   2.300   5.377  0.2600  0.2734  0.3397
 3037ntf    on518550   0.699   2.427   5.169  0.1368 -0.2438  0.0954
 3037ntf    on518551   1.099   2.469   5.390 -0.4194  0.1989  0.5004
 3037ntf    on518552   1.020   2.450   5.155 -0.7010  0.2213 -0.0711
 3037ntf    fn418553   0.894   2.192   5.259  0.1937 -0.6094  0.2211
 3037ntf    fn418554   1.107   2.202   5.265  0.2907  0.1718  0.3309
 3037ntf    fn418555   0.990   2.206   5.443 -0.1832 -0.0155  0.3606
 3038ntf    cn118556   0.057   6.739   6.998 -0.6045  0.2591  0.0899
 3038ntf    sn218557  -0.058   6.864   6.934 -0.3503  0.1640 -0.5564
 3038ntf    nn318558  -0.099   6.944   7.063 -0.2874 -0.0544 -0.4003
 3038ntf    sn218559  -0.043   7.078   7.122 -0.4832 -0.1083 -0.0944
 3038ntf    cn118560  -0.124   7.202   7.017 -0.2188  0.1041 -0.0492
 3038ntf    fn418561   0.093   6.660   6.899  0.1254  0.3580  0.2662
 3038ntf    fn418562   0.168   6.793   7.047 -0.3699 -0.0624 -0.0827
 3038ntf    fn418563   0.009   6.650   7.083 -0.6482  0.1560 -0.0438
 3038ntf    on518564   0.021   6.932   6.835  0.0764  0.1626 -0.2172
 3038ntf    on518565  -0.166   6.786   6.877 -0.3321 -0.1589 -0.1491
 3038ntf    on518566   0.099   7.098   7.109 -0.4769 -0.0375  0.0817
 3038ntf    on518567  -0.095   7.092   7.256  0.3252  0.1749  0.1951
 3038ntf    fn418568  -0.068   7.321   7.035 -0.1467  0.0427  0.1304
 3038ntf    fn418569  -0.111   7.173   6.888  0.3307  0.1483 -0.0074
 3038ntf    fn418570  -0.254   7.211   7.040 -0.2101  0.0583  0.0177
 3039ntf    cn118571   2.105   3.094   1.052  0.0642  0.4374  0.1817
 3039ntf    sn218572   1.979   2.986   1.126 -0.1074  0.3304 -0.2611
 3039ntf    nn318573   1.882   2.965   1.004  0.0620  0.6950 -0.4605
 3039ntf    sn218574   1.855   2.825   0.938  0.2618  0.3063  0.2697
 3039ntf    cn118575   1.726   2.865   0.817 -0.1771  0.1250  0.6756
 3039ntf    fn418576   2.112   3.074   0.921  1.0440 -0.2715  0.3251
 3039ntf    fn418577   2.075   3.222   1.063 -0.2423  0.3688  0.1357
 3039ntf    fn418578   2.221   3.071   1.112  0.2404 -0.5993 -0.5281
 3039ntf    on518579   2.043   2.867   1.177 -0.6066  0.0593 -0.2652
 3039ntf    on518580   1.920   3.079   1.220  0.4712  0.0540  0.3920
 3039ntf    on518581   1.796   2.724   1.023  0.2295  0.0421 -0.0644
 3039ntf    on518582   1.960   2.790   0.846 -0.5539 -0.6626 -0.3108
 3039ntf    fn418583   1.605   2.886   0.866 -0.1820  0.8373  0.3717
 3039ntf    fn418584   1.752   2.978   0.754 -0.1467 -0.0839  0.3150
 3039ntf    fn418585   1.712   2.770   0.727  0.0486  0.5360  0.2056
 3040ntf    cn118586   5.265   2.717   1.555 -0.0746  0.1745 -0.2252
 3040ntf    sn218587   5.395   2.695   1.429  0.1050  0.0376 -0.0155
 3040ntf    nn318588   5.305   2.648   1.310  0.2443  0.1264 -0.1567
 3040ntf    sn218589   5.303   2.514   1.228 -0.5405  0.1852 -0.2413
 3040ntf    cn118590   5.352   2.580   1.066  0.2287 -0.2478 -0.1882
 3040ntf    fn418591   5.307   2.747   1.676  0.1814 -0.1684 -0.2288
 3040ntf    fn418592   5.186   2.821   1.534 -0.2725 -0.0640 -0.6889
 3040ntf    fn418593   5.184   2.612   1.562 -0.0905  0.2282  0.3834
 3040ntf    on518594   5.428   2.832   1.396  0.0344 -0.1312 -0.7964
 3040ntf    on518595   5.499   2.617   1.491  0.1586  0.4443  0.4135
 3040ntf    on518596   5.171   2.457   1.215 -0.4102  0.0532 -1.0695
 3040ntf    on518597   5.411   2.425   1.261 -0.7546  0.0751  0.1672
 3040ntf    fn418598   5.394   2.487   0.982 -0.0745 -0.3817 -0.1907
 3040ntf    fn418599   5.265   2.659   1.005  0.5243 -0.2019 -0.5577
 3040ntf    fn418600   5.453   2.662   1.090 -0.2356  0.4762 -0.6461
 3041ntf    cn118601   5.407   3.153   4.905  0.1581  0.3100  0.0921
 3041ntf    sn218602   5.504   3.258   5.018  0.1247  0.3174  0.1140
 3041ntf    nn318603   5.456   3.395   4.959  0.3534  0.5407  0.4459
 3041ntf    sn218604   5.513   3.480   4.840 -0.0745  0.0461 -0.1194
 3041ntf    cn118605   5.390   3.478   4.706  0.0529  0.3085 -0.2415
 3041ntf    fn418606   5.408   3.024   4.932  0.6821  0.3298  0.1730
 3041ntf    fn418607   5.278   3.178   4.893  0.0955  0.0892  0.3036
 3041ntf    fn418608   5.450   3.165   4.780 -0.0036 -0.0415  0.0026
 3041ntf    on518609   5.448   3.225   5.147 -0.9191  0.2445 -0.3479
 3041ntf    on518610   5.642   3.232   4.988  0.3001  0.9147  0.4129
 3041ntf    on518611   5.625   3.425   4.767  0.1015  0.2188  0.0181
 3041ntf    on518612   5.517   3.620   4.874 -0.6691  0.0523 -0.0793
 3041ntf    fn418613   5.284   3.551   4.735  0.0058  0.0378  0.2799
 3041ntf    fn418614   5.447   3.536   4.601  0.0117  0.6287 -0.0872
 3041ntf    fn418615   5.346   3.358   4.673 -0.7613  0.4188  0.4257
 3042ntf    cn118616   6.325   5.584   3.288 -0.0166  0.2680 -0.2219
 3042ntf    sn218617   6.344   5.541   3.463 -0.0620  0.0625 -0.2663
 3042ntf    nn318618   6.379   5.685   3.515 -0.2190  0.0860 -0.2264
 3042ntf    sn218619   6.513   5.765   3.500 -0.2764  0.1859 -0.2082
 3042ntf    cn118620   6.571   5.769   3.672  0.4108  0.5341 -0.4418
 3042ntf    fn418621   6.431   5.654   3.251  0.0858 -0.0063 -0.4601
 3042ntf    fn418622   6.334   5.481   3.205 -0.2689 -0.2007  0.3288
 3042ntf    fn418623   6.218   5.657   3.265 -0.1855  0.2289  0.4421
 3042ntf    on518624   6.213   5.502   3.509 -0.0637 -0.3753 -0.6373
 3042ntf    on518625   6.444   5.438   3.477  0.1621  0.3399  0.2022
 3042ntf    on518626   6.506   5.908   3.485  0.1417  0.2875  0.5147
 3042ntf    on518627   6.627   5.695   3.444 -0.5213 -0.3775 -0.0081
 3042ntf    fn418628   6.680   5.842   3.691  0.2309  0.6495  0.1678
 3042ntf    fn418629   6.474   5.813   3.751  0.4012 -0.1601 -0.0477
 3042ntf    fn418630   6.592   5.643   3.709  0.2321  0.5898 -0.1407
 3043ntf    cn118631   3.116   6.654   3.928 -0.0713  0.1963  0.1312
 3043ntf    sn218632   2.941   6.651   3.880 -0.0647  0.2864  0.1003
 3043ntf    nn318633   2.948   6.794   3.816 -0.1986  0.3138  0.1472
 3043ntf    sn218634   2.841   6.909   3.815 -0.6432 -0.1014  0.0757
 3043ntf    cn118635   2.883   7.011   3.959 -0.2879 -0.1729  0.0220
 3043ntf    fn418636   3.165   6.540   3.973 -0.1152  0.0245 -0.2527
 3043ntf    fn418637   3.193   6.685   3.825  0.1572  0.1113  0.2758
 3043ntf    fn418638   3.134   6.743   4.024 -0.3044  0.0568  0.3063
 3043ntf    on518639   2.923   6.547   3.781  0.2923 -0.0669  0.4008
 3043ntf    on518640   2.866   6.639   4.002  0.3971 -0.4357  0.3152
 3043ntf    on518641   2.704   6.866   3.830 -0.5400 -0.3796  0.2155
 3043ntf    on518642   2.868   7.002   3.708 -0.1369 -0.5926 -0.2308
 3043ntf    fn418643   2.888   6.940   4.070 -0.7324 -0.1430  0.0626
 3043ntf    fn418644   3.001   7.071   3.943 -0.1985 -0.4892 -0.5222
 3043ntf    fn418645   2.796   7.108   3.981  0.2306  0.4253 -0.5129
 3044ntf    cn118646   0.275   0.305   0.600 -0.0903 -0.0050  0.3666
 3044ntf    sn218647   0.270   0.284   0.780 -0.1062  0.0467  0.3721
 3044ntf    nn318648   0.424   0.265   0.801 -0.0450  0.4495  0.2933
 3044ntf    sn218649   0.506   0.131   0.793 -0.3016  0.2990  0.1630
 3044ntf    cn118650   0.513   0.084   0.969 -0.0542 -0.4062 -0.0345
 3044ntf    fn418651   0.337   0.414   0.558 -0.1473  0.1323  0.6340
 3044ntf    fn418652   0.346   0.207   0.546  0.0610  0.3525 -0.0899
 3044ntf    fn418653   0.157   0.302   0.540  0.1941  0.3893 -0.2322
 3044ntf    on518654   0.218   0.406   0.837 -0.9700 -0.2293  0.1945
 3044ntf    on518655   0.192   0.165   0.805 -0.6468  0.2958 -0.1059
 3044ntf    on518656   0.646   0.155   0.768 -0.3184  0.0603 -0.1558
 3044ntf    on518657   0.453   0.018   0.722 -0.4635  0.6212 -0.2261
 3044ntf    fn418658   0.582   0.169   1.043  0.3092  0.0268 -0.8485
 3044ntf    fn418659   0.395   0.076   1.027  0.0536  0.3670  0.2992
 3044ntf    fn418660   0.568  -0.034   0.994  0.3597 -0.1936  0.0592
 3045ntf    cn118661   0.563   0.376   5.640  0.3085  0.0127 -0.4627
 3045ntf    sn218662   0.425   0.460   5.557 -0.1415  0.2327  0.4957
 3045ntf    nn318663   0.354   0.531   5.677  0.4472 -0.0776  1.0311
 3045ntf    sn218664   0.295   0.676   5.676  0.2373 -0.1656 -0.1800
 3045ntf    cn118665   0.448   0.768   5.713  0.1783 -0.0530 -0.2145
 3045ntf    fn418666   0.524   0.302   5.742  0.4445 -0.0221 -0.4359
 3045ntf    fn418667   0.635   0.293   5.566  0.2046  0.0889 -0.6517
 3045ntf    fn418668   0.649   0.467   5.683  0.2439 -0.2300  0.1871
 3045ntf    on518669   0.497   0.543   5.465 -0.2117 -0.2569 -0.0091
 3045ntf    on518670   0.357   0.351   5.490  0.4276  0.0242  0.2529
 3045ntf    on518671   0.213   0.701   5.792 -0.0857 -0.3421 -0.3690
 3045ntf    on518672   0.264   0.730   5.545  0.7096  0.2067 -0.1427
 3045ntf    fn418673   0.455   0.883   5.647  0.0809 -0.1281 -0.3565
 3045ntf    fn418674   0.456   0.788   5.844 -0.4768  0.1224 -0.1933
 3045ntf    fn418675   0.551   0.693   5.681 -0.0720 -0.6991  0.4565
 3046ntf    cn118676   1.862   0.564   6.177 -0.1612 -0.0676 -0.3718
 3046ntf    sn218677   1.979   0.549   6.039  0.1328  0.0709 -0.1400
 3046ntf    nn318678   1.896   0.473   5.929  0.4830  0.3277 -0.5827
 3046ntf    sn218679   1.919   0.333   5.863 -0.2114 -0.0493 -0.0309
 3046ntf    cn118680   2.043   0.357   5.733  0.1751 -0.1951  0.3093
 3046ntf    fn418681   1.747   0.626   6.154 -0.5638  0.2031  2.0753
 3046ntf    fn418682   1.831   0.445   6.225  0.5503  0.0833  0.4807
 3046ntf    fn418683   1.927   0.640   6.264 -0.1359 -0.1825 -0.2908
 3046ntf    on518684   1.984   0.688   6.002 -0.2942  0.0201 -0.4073
 3046ntf    on518685   2.097   0.487   6.094 -0.2608 -0.7614 -0.2154
 3046ntf    on518686   1.798   0.293   5.795 -0.1884  0.1305 -0.1767
 3046ntf    on518687   1.981   0.230   5.942 -0.1895 -0.1191 -0.1375
 3046ntf    fn418688   1.989   0.443   5.648  0.1770 -0.3308  0.1689
 3046ntf    fn418689   2.153   0.407   5.788  0.0356  0.2512  0.1914
 3046ntf    fn418690   2.068   0.243   5.670 -0.1823  0.1559 -0.4905
 3047ntf    cn118691   6.585   0.557   4.600  0.1423  0.2381 -0.1368
 3047ntf    sn218692   6.483   0.553   4.450 -0.1209 -0.3389  0.0526
 3047ntf    nn318693   6.593   0.564   4.338  0.2290 -0.5850  0.3711
 3047ntf    sn218694   6.589   0.510   4.191 -0.0160 -0.1260  0.2088
 3047ntf    cn118695   6.647   0.655   4.097  0.3128 -0.3551  0.0578
 3047ntf    fn418696   6.700   0.622   4.590  0.2243  0.1305  0.0988
 3047ntf    fn418697   6.513   0.611   4.697 -0.5310  0.1876 -0.6074
 3047ntf    fn418698   6.617   0.433   4.634  0.1713  0.3078  0.0940
 3047ntf    on518699   6.418   0.425   4.455  0.5687 -0.7189 -0.4808
 3047ntf    on518700   6.409   0.677   4.455  0.5368  0.0450  0.4430
 3047ntf    on518701   6.461   0.481   4.130  0.2716 -0.5073 -0.2119
 3047ntf    on518702   6.697   0.417   4.170  0.5840  0.6710 -0.3257
 3047ntf    fn418703   6.749   0.705   4.164 -0.2132 -0.2250  0.7728
 3047ntf    fn418704   6.684   0.629   3.972 -0.2763  0.3712 -0.2761
 3047ntf    fn418705   6.559   0.754   4.098  0.5880 -0.0988 -0.7165
 3048ntf    cn118706   2.590   1.273   5.617  0.2884 -0.1530  0.3179
 3048ntf    sn218707   2.635   1.432   5.541 -0.3082 -0.2412 -0.2326
 3048ntf    nn318708   2.670   1.515   5.670  0.0826 -0.2545 -0.3274
 3048ntf    sn218709   2.809   1.539   5.738 -0.1472  0.4215 -0.0858
 3048ntf    cn118710   2.822   1.716   5.698 -0.1756  0.4463  0.0156
 3048ntf    fn418711   2.688   1.230   5.695  0.3800 -0.2290  0.1619
 3048ntf    fn418712   2.481   1.282   5.691  0.4502  0.2900  0.5042
 3048ntf    fn418713   2.557   1.175   5.534  0.1022  0.3233 -0.1838
 3048ntf    on518714   2.738   1.405   5.444  0.1246  0.8960 -0.1105
 3048ntf    on518715   2.513   1.485   5.486 -0.4069  0.1120  0.3201
 3048ntf    on518716   2.922   1.475   5.676 -0.6881 -0.2874 -0.3586
 3048ntf    on518717   2.808   1.541   5.882  0.5665  0.4646 -0.0769
 3048ntf    fn418718   2.855   1.741   5.573 -0.2387 -0.0173 -0.0956
 3048ntf    fn418719   2.705   1.777   5.711 -0.3596  0.2024 -0.4936
 3048ntf    fn418720   2.913   1.774   5.775  0.0065  0.0567  0.0951
 3049ntf    cn118721   6.157   1.305   7.105 -0.3417  0.2374 -0.0847
 3049ntf    sn218722   6.009   1.217   7.046  0.0010 -0.6707  0.3902
 3049ntf    nn318723   6.019   1.260   6.895  0.4259 -0.5329  0.4550
 3049ntf    sn218724   5.979   1.175   6.769  0.2889 -0.0633  0.1807
 3049ntf    cn118725   5.848   1.279   6.696  0.2783 -0.2752 -0.1039
 3049ntf    fn418726   6.259   1.267   7.030 -0.4221 -0.0187 -0.0654
 3049ntf    fn418727   6.141   1.435   7.083 -0.0510  0.2995  0.0703
 3049ntf    fn418728   6.182   1.279   7.232 -0.5426  0.8708  0.0898
 3049ntf    on518729   6.037   1.079   7.075 -0.3597 -0.5243  1.4591
 3049ntf    on518730   5.903   1.280   7.122  0.3687  0.0058  0.3544
 3049ntf    on518731   5.918   1.049   6.803  0.4855 -0.0438  0.6125
 3049ntf    on518732   6.072   1.170   6.659 -0.2363 -0.2098 -0.2636
 3049ntf    fn418733   5.755   1.312   6.784 -0.4395 -0.0660 -0.9331
 3049ntf    fn418734   5.883   1.399   6.654 -0.8155 -0.0510 -0.4196
 3049ntf    fn418735   5.781   1.230   6.593  0.0418 -0.1620 -0.0043
 3050ntf    cn118736   2.938   0.012   4.802  0.0643  0.1586 -0.2208
 3050ntf    sn218737   2.909  -0.058   4.636 -0.2884  0.0621 -0.1208
 3050ntf    nn318738   2.784   0.026   4.593 -0.0520  0.1360 -0.6747
 3050ntf    sn218739   2.779   0.173   4.538 -0.3166  0.2634 -0.3187
 3050ntf    cn118740   2.695   0.133   4.382  0.0481  0.1276 -0.4815
 3050ntf    fn418741   2.840  -0.020   4.885  0.0925 -0.1271 -0.2939
 3050ntf    fn418742   3.038  -0.045   4.868 -0.0031  0.6449  0.3090
 3050ntf    fn418743   2.947   0.143   4.815 -0.1071  0.1284  0.2267
 3050ntf    on518744   3.036  -0.036   4.571 -0.1558  0.1848  0.1727
 3050ntf    on518745   2.867  -0.189   4.677  0.2533  0.1350  0.7083
 3050ntf    on518746   2.906   0.237   4.510 -0.2264  0.3401  0.2546
 3050ntf    on518747   2.676   0.258   4.593  0.0576  0.0968  0.6686
 3050ntf    fn418748   2.564   0.130   4.398  0.0872 -0.0869 -0.1813
 3050ntf    fn418749   2.712   0.228   4.292  0.4194  0.1623 -0.3775
 3050ntf    fn418750   2.737   0.019   4.330 -0.2795 -0.3138  0.2099
 3051ntf    cn118751   5.095   5.124   1.733 -0.6608  0.0125  0.0754
 3051ntf    sn218752   5.134   5.242   1.600  0.1203 -0.1400  0.1637
 3051ntf    nn318753   5.126   5.375   1.683  0.2840  0.1058 -0.2076
 3051ntf    sn218754   5.063   5.516   1.655 -0.4805 -0.1845  0.0067
 3051ntf    cn118755   4.965   5.529   1.807  0.1261  0.1125  0.3739
 3051ntf    fn418756   4.991   5.154   1.809 -0.2980  0.4033  0.4261
 3051ntf    fn418757   5.085   5.004   1.679 -0.1361 -0.1449  0.3264
 3051ntf    fn418758   5.197   5.116   1.817 -0.4548 -0.2689 -0.1991
 3051ntf    on518759   5.267   5.208   1.557  0.3749  1.2237 -0.1600
 3051ntf    on518760   5.023   5.224   1.510  0.0908 -0.5215  0.2735
 3051ntf    on518761   4.974   5.530   1.542  0.0620  0.3628 -0.3635
 3051ntf    on518762   5.159   5.622   1.673 -0.5493 -0.1610  0.2369
 3051ntf    fn418763   4.886   5.635   1.805  0.0407  0.0507  0.4687
 3051ntf    fn418764   4.879   5.430   1.815  0.1304  0.0958  0.2048
 3051ntf    fn418765   5.035   5.523   1.919  0.3686 -0.4612  0.1913
 3052ntf    cn118766   1.149   3.311   3.904  0.2031 -0.0789 -0.1329
 3052ntf    sn218767   1.029   3.443   3.938  0.1167 -0.1873 -0.0168
 3052ntf    nn318768   0.925   3.362   4.023 -0.3479 -0.0551 -0.4481
 3052ntf    sn218769   0.918   3.357   4.180  0.4756 -0.1924 -0.4112
 3052ntf    cn118770   0.759   3.270   4.196  0.1274  0.5168  0.0298
 3052ntf    fn418771   1.274   3.354   3.891 -0.0103  0.6003  0.0260
 3052ntf    fn418772   1.155   3.218   3.998 -0.9334  0.1403  0.1694
 3052ntf    fn418773   1.119   3.246   3.793  0.1396  0.0070 -0.1662
 3052ntf    on518774   1.101   3.544   4.011  1.0704 -0.3929 -0.6521
 3052ntf    on518775   0.968   3.476   3.811  0.6791  0.3996 -0.1374
 3052ntf    on518776   0.890   3.483   4.245  0.4411 -0.4668  0.1101
 3052ntf    on518777   1.024   3.275   4.235  0.3630  0.2608  0.5088
 3052ntf    fn418778   0.747   3.174   4.106  0.1087  0.9495 -0.4290
 3052ntf    fn418779   0.729   3.221   4.315  0.0162 -0.0643 -0.2340
 3052ntf    fn418780   0.667   3.359   4.164 -0.0247  0.3543  0.0194
 3053ntf    cn118781   5.611   0.832   5.977 -0.2910  0.1936 -0.1801
 3053ntf    sn218782   5.448   0.875   6.046 -0.1790  0.2353  0.0610
 3053ntf    nn318783   5.366   0.801   5.934  0.5106 -0.2005 -0.1598
 3053ntf    sn218784   5.312   0.654   5.946 -0.1164  0.0416  0.0102
 3053ntf    cn118785   5.185   0.664   6.076 -0.0923  0.0874  0.0299
 3053ntf    fn418786   5.609   0.834   5.845  0.0785  0.2525 -0.1852
 3053ntf    fn418787   5.706   0.915   6.019 -0.1759  0.0667 -0.1907
 3053ntf    fn418788   5.649   0.708   6.004 -0.3164  0.3390  0.5523
 3053ntf    on518789   5.445   0.814   6.176 -0.0443  0.0061 -0.0432
 3053ntf    on518790   5.434   1.018   6.036 -0.3978  0.1886 -0.3457
 3053ntf    on518791   5.407   0.554   5.988 -0.4278 -0.1601  0.2365
 3053ntf    on518792   5.239   0.620   5.826 -0.3181  0.1697  0.0956
 3053ntf    fn418793   5.074   0.597   6.052  0.3013 -0.7671  0.5859
 3053ntf    fn418794   5.236   0.614   6.187 -0.0859  0.3606  0.1512
 3053ntf    fn418795   5.141   0.785   6.106  0.0138  0.3133 -0.6875
 3054ntf    cn118796   4.238   4.222   1.848 -0.2846 -0.2420  0.6881
 3054ntf    sn218797   4.102   4.107   1.813  0.0655 -0.4563  0.0024
 3054ntf    nn318798   4.032   4.187   1.697  0.4764  0.2608  0.2416
 3054ntf    sn218799   3.899   4.270   1.705  0.1562 -0.2117 -0.1367
 3054ntf    cn118800   3.876   4.303   1.527  0.1250 -0.2604 -0.1417
 3054ntf    fn418801   4.323   4.232   1.747 -0.3797  0.4525  0.6682
 3054ntf    fn418802   4.202   4.347   1.872  0.1242  0.0728 -0.2926
 3054ntf    fn418803   4.313   4.186   1.950  0.3227 -0.5164  0.1548
 3054ntf    on518804   4.170   3.991   1.764 -0.0116 -0.0745 -1.0390
 3054ntf    on518805   4.039   4.098   1.942  0.0316 -0.3751 -0.0076
 3054ntf    on518806   3.919   4.398   1.767 -0.4827  0.0246 -0.4029
 3054ntf    on518807   3.781   4.190   1.726  0.2057 -0.3666 -0.4324
 3054ntf    fn418808   3.989   4.347   1.474 -0.1928  0.5680 -0.1392
 3054ntf    fn418809   3.846   4.189   1.466 -0.4811 -0.2851  0.1960
 3054ntf    fn418810   3.783   4.394   1.503  0.0082 -0.3019  0.1480
 3055ntf    cn118811   2.925   0.625   5.366  0.2658 -0.0239  0.1893
 3055ntf    sn218812   2.832   0.633   5.210  0.2291  0.1129  0.2172
 3055ntf    nn318813   2.687   0.631   5.270 -0.1310 -0.0426 -0.6435
 3055ntf    sn218814   2.577   0.743   5.284  0.0815  0.0354  0.4205
 3055ntf    cn118815   2.463   0.717   5.145  0.0110 -0.0930  0.5017
 3055ntf    fn418816   3.045   0.575   5.340  0.5962  0.7317  0.2261
 3055ntf    fn418817   2.940   0.746   5.417  0.3804  0.1231 -0.1855
 3055ntf    fn418818   2.860   0.549   5.452 -0.4236 -0.1175 -0.3993
 3055ntf    on518819   2.885   0.752   5.149  0.7506 -0.0333  0.3768
 3055ntf    on518820   2.870   0.510   5.145 -0.0726 -0.1013  0.4454
 3055ntf    on518821   2.627   0.877   5.266 -0.4554  0.1825  0.0296
 3055ntf    on518822   2.494   0.726   5.401 -0.0028 -0.4498  0.2941
 3055ntf    fn418823   2.508   0.751   5.025 -0.3105  0.3136  0.4926
 3055ntf    fn418824   2.420   0.592   5.149  0.5335 -0.2976 -0.1382
 3055ntf    fn418825   2.354   0.791   5.157  0.3365  0.5284 -0.2778
 3056ntf    cn118826   0.339   0.862   4.060  0.5841 -0.3170  0.4303
 3056ntf    sn218827   0.451   0.924   3.931 -0.3669  0.0193 -0.2403
 3056ntf    nn318828   0.349   0.968   3.820 -0.1626  0.1123 -0.3912
 3056ntf    sn218829   0.289   1.112   3.805  0.3120  0.3461 -0.0612
 3056ntf    cn118830   0.151   1.081   3.691  0.1621  0.2546  0.1433
 3056ntf    fn418831   0.399   0.846   4.177  0.5099  0.1309  0.5293
 3056ntf    fn418832   0.245   0.949   4.090  0.2600 -0.6100  0.2689
 3056ntf    fn418833   0.286   0.747   4.021  0.4194  0.1002 -0.5945
 3056ntf    on518834   0.532   1.024   3.997 -0.2937 -0.0873 -0.1686
 3056ntf    on518835   0.516   0.799   3.901  0.1981  0.0966  0.6335
 3056ntf    on518836   0.371   1.200   3.725  0.5637  0.1974  0.0319
 3056ntf    on518837   0.234   1.173   3.924  1.1497  0.4563  0.2753
 3056ntf    fn418838   0.098   1.199   3.666  0.1700  0.2955  0.3218
 3056ntf    fn418839   0.190   1.027   3.576 -0.2409  0.0927  0.0807
 3056ntf    fn418840   0.066   0.998   3.749  0.0667  0.3009  0.0686
 3057ntf    cn118841   2.318   1.026   6.795  0.0439 -0.0380 -0.1000
 3057ntf    sn218842   2.389   0.943   6.650 -0.0764  0.1131 -0.2464
 3057ntf    nn318843   2.289   1.002   6.544 -0.4203 -0.0808 -0.0306
 3057ntf    sn218844   2.163   0.931   6.483 -0.3483 -0.1588 -0.0880
 3057ntf    cn118845   2.069   1.083   6.448  0.1309  0.1065 -0.2450
 3057ntf    fn418846   2.335   1.157   6.796 -0.2204 -0.0021 -0.1737
 3057ntf    fn418847   2.187   1.007   6.805 -0.0685  0.5075 -0.4666
 3057ntf    fn418848   2.372   0.980   6.906 -0.0641 -0.1455 -0.0916
 3057ntf    on518849   2.524   0.990   6.633  0.0978 -0.3668 -0.2085
 3057ntf    on518850   2.366   0.802   6.672  0.2401  0.0302 -0.4345
 3057ntf    on518851   2.078   0.858   6.574  0.2486 -0.6403  0.0873
 3057ntf    on518852   2.182   0.879   6.350 -0.6869  0.2028 -0.2794
 3057ntf    fn418853   2.132   1.155   6.358 -0.1705  0.0016 -0.5405
 3057ntf    fn418854   1.949   1.062   6.396  0.1244 -0.2669 -0.0859
 3057ntf    fn418855   2.050   1.161   6.553  0.1812 -0.7531  0.4211
 3058ntf    cn118856   2.618   1.924   0.360  0.1098  0.1953 -0.6137
 3058ntf    sn218857   2.792   1.974   0.353  0.2262 -0.1060  0.0359
 3058ntf    nn318858   2.798   2.099   0.447 -0.1486  0.0052 -0.0884
 3058ntf    sn218859   2.878   2.234   0.436 -0.0442 -0.0185  0.3543
 3058ntf    cn118860   2.746   2.357   0.409 -0.1610 -0.1850  0.1654
 3058ntf    fn418861   2.548   2.036   0.350 -0.1763  0.0012 -0.8068
 3058ntf    fn418862   2.569   1.838   0.272 -0.1444 -0.1221 -0.1673
 3058ntf    fn418863   2.585   1.878   0.480  0.5536  0.2613 -0.4659
 3058ntf    on518864   2.855   1.855   0.406  0.1460 -0.0932  0.1592
 3058ntf    on518865   2.798   1.999   0.211 -0.0600  0.2566  0.0876
 3058ntf    on518866   2.959   2.251   0.318  0.0590  0.1050  0.4427
 3058ntf    on518867   2.934   2.273   0.562  0.0953  0.6062  0.1006
 3058ntf    fn418868   2.709   2.341   0.283 -0.2327  0.0777  0.1526
 3058ntf    fn418869   2.639   2.341   0.485 -0.1350 -0.7647  0.0841
 3058ntf    fn418870   2.782   2.482   0.429 -0.5690  0.0470 -0.5048
 3059ntf    cn118871   2.126   4.539   1.135 -0.0802  0.1193 -0.1106
 3059ntf    sn218872   2.275   4.533   1.238 -0.1135  0.4249 -0.0452
 3059ntf    nn318873   2.296   4.687   1.264 -0.2241  0.3398  0.5812
 3059ntf    sn218874   2.435   4.760   1.274  0.0496 -0.0447 -0.2911
 3059ntf    cn118875   2.530   4.643   1.376 -0.0885  0.1232  0.0305
 3059ntf    fn418876   2.093   4.425   1.076 -0.3442  0.0463  0.1713
 3059ntf    fn418877   2.022   4.576   1.208  0.0962 -0.1247  0.2642
 3059ntf    fn418878   2.131   4.625   1.035  0.2312 -0.0105 -0.2055
 3059ntf    on518879   2.237   4.462   1.358 -0.0147  0.2808 -0.0989
 3059ntf    on518880   2.371   4.470   1.151 -0.4628  0.5611 -0.5308
 3059ntf    on518881   2.435   4.873   1.363 -0.2605 -0.3407  0.0929
 3059ntf    on518882   2.513   4.763   1.153  0.2877  0.0819 -0.1354
 3059ntf    fn418883   2.441   4.583   1.454 -0.1702  0.2474  0.0332
 3059ntf    fn418884   2.585   4.554   1.295  0.1307  0.3567 -0.0778
 3059ntf    fn418885   2.622   4.692   1.458  0.0781 -0.0003 -0.0836
 3060ntf    cn118886   1.398   5.693   6.354  0.0034 -0.1637 -0.0978
 3060ntf    sn218887   1.320   5.589   6.482 -0.0341  0.1170  0.1114
 3060ntf    nn318888   1.257   5.485   6.383  0.0442  0.0560  0.1261
 3060ntf    sn218889   1.111   5.487   6.325  0.0318 -0.1914  0.1494
 3060ntf    cn118890   1.144   5.454   6.150  0.2498 -0.2499  0.2013
 3060ntf    fn418891   1.502   5.628   6.307 -0.0660 -0.2193 -0.1751
 3060ntf    fn418892   1.322   5.725   6.251  0.0014  0.1167 -0.0123
 3060ntf    fn418893   1.451   5.803   6.406  0.1460 -0.4363  0.3365
 3060ntf    on518894   1.439   5.534   6.542 -0.2928  0.1709  0.6752
 3060ntf    on518895   1.232   5.672   6.560 -0.3227  0.4281 -0.5367
 3060ntf    on518896   1.058   5.620   6.318  0.4919 -0.0386 -0.4708
 3060ntf    on518897   1.023   5.380   6.368 -0.1603 -0.3026 -0.5124
 3060ntf    fn418898   1.229   5.541   6.097 -0.3701  0.5399  0.4846
 3060ntf    fn418899   1.197   5.334   6.131 -0.4618 -0.4900 -0.3011
 3060ntf    fn418900   1.032   5.449   6.080 -0.0134 -0.0486  0.6090
 3061ntf    cn118901   4.494   6.140   4.707  0.0941 -0.0476 -0.1052
 3061ntf    sn218902   4.579   6.038   4.832 -0.3400 -0.0437  0.1926
 3061ntf    nn318903   4.489   5.910   4.848 -0.2024 -0.2050 -0.2887
 3061ntf    sn218904   4.532   5.760   4.849  0.1109 -0.1142  0.4510
 3061ntf    cn118905   4.532   5.725   4.671 -0.3811 -0.1492  0.4576
 3061ntf    fn418906   4.500   6.071   4.594  0.2394  0.0791 -0.1752
 3061ntf    fn418907   4.365   6.161   4.728  0.1675  0.4184 -0.1273
 3061ntf    fn418908   4.555   6.256   4.688 -0.2934  0.1816  0.0504
 3061ntf    on518909   4.707   6.012   4.771 -0.2608  0.2794  0.2200
 3061ntf    on518910   4.581   6.129   4.944  1.2968 -0.3650  0.4411
 3061ntf    on518911   4.422   5.684   4.904 -0.2000 -0.0636 -0.0924
 3061ntf    on518912   4.667   5.727   4.889  0.0582  0.2750  0.9653
 3061ntf    fn418913   4.565   5.600   4.641  0.0058  0.0885 -0.1345
 3061ntf    fn418914   4.409   5.727   4.622 -0.2341  0.6699  0.1034
 3061ntf    fn418915   4.599   5.807   4.591 -0.9834  0.1244  0.2255
 3062ntf    cn118916   1.901   4.474   3.082  0.1520  0.2306  0.0884
 3062ntf    sn218917   1.847   4.341   2.971  0.2099  0.0290  0.3005
 3062ntf    nn318918   1.692   4.352   2.989  0.2850  1.1581  0.3361
 3062ntf    sn218919   1.588   4.283   3.084  0.6354  0.0363 -0.0749
 3062ntf    cn118920   1.548   4.145   2.973 -0.2040  0.3614 -0.1886
 3062ntf    fn418921   1.813   4.501   3.177 -0.0765  0.1001 -0.0865
 3062ntf    fn418922   2.015   4.436   3.137  0.0645  0.4212  0.4078
 3062ntf    fn418923   1.924   4.588   3.019 -0.2782  0.4535  0.3287
 3062ntf    on518924   1.895   4.394   2.845  0.3992  0.5292  0.5774
 3062ntf    on518925   1.903   4.218   3.019  0.1678  0.2050  0.8053
 3062ntf    on518926   1.476   4.374   3.098  0.5773 -0.0453 -0.0083
 3062ntf    on518927   1.645   4.213   3.197  0.5733 -0.0373 -0.0894
 3062ntf    fn418928   1.658   4.079   2.940 -0.4057  0.0089 -0.1597
 3062ntf    fn418929   1.468   4.058   3.032 -0.7257  0.8783 -0.1288
 3062ntf    fn418930   1.498   4.183   2.857  0.4400  0.3808 -0.4659
 3063ntf    cn118931   5.086   6.913   0.881 -0.4602  0.2471  0.1812
 3063ntf    sn218932   4.995   7.045   0.966 -0.3293 -0.0437  0.7800
 3063ntf    nn318933   4.978   6.978   1.106 -0.4129 -0.6147  0.4985
 3063ntf    sn218934   4.884   7.017   1.225 -0.4185 -0.1112  0.3275
 3063ntf    cn118935   4.765   6.880   1.219 -0.5401 -0.0097  0.3891
 3063ntf    fn418936   5.032   6.793   0.897 -0.5100  0.2980  0.3956
 3063ntf    fn418937   5.084   6.928   0.749  0.3756 -0.1263  0.1172
 3063ntf    fn418938   5.212   6.908   0.922 -0.4934  0.0315  0.2596
 3063ntf    on518939   5.087   7.156   0.966  0.4002 -0.6398  0.4664
 3063ntf    on518940   4.873   7.056   0.890  0.1746  0.2272 -0.0109
 3063ntf    on518941   4.799   7.132   1.202  0.2340  0.2670 -0.2158
 3063ntf    on518942   4.952   7.012   1.352 -0.0301  0.3675  0.1431
 3063ntf    fn418943   4.706   6.862   1.102 -0.3370 -0.2967  0.3273
 3063ntf    fn418944   4.829   6.770   1.255  0.0431  0.3307  0.4007
 3063ntf    fn418945   4.664   6.888   1.303 -0.6502  0.7917  0.1873
 3064ntf    cn118946   4.389   3.336   5.458  0.0361 -0.3278 -0.0968
 3064ntf    sn218947   4.433   3.447   5.595 -0.0866 -0.0575 -0.2745
 3064ntf    nn318948   4.484   3.353   5.710  0.1958  0.2081 -0.1821
 3064ntf    sn218949   4.574   3.373   5.837 -0.1162 -0.0948  0.0912
 3064ntf    cn118950   4.722   3.285   5.778 -0.2114 -0.1875 -0.0089
 3064ntf    fn418951   4.279   3.266   5.479 -0.3970  0.3243 -0.1532
 3064ntf    fn418952   4.373   3.399   5.343  0.2781  0.1607  0.1370
 3064ntf    fn418953   4.487   3.251   5.434  0.3110 -0.1773  0.4961
 3064ntf    on518954   4.535   3.513   5.517  0.4802  0.0469  0.5346
 3064ntf    on518955   4.308   3.514   5.618  0.1565  0.4444 -0.4066
 3064ntf    on518956   4.538   3.289   5.948  0.1862 -0.3527 -0.0029
 3064ntf    on518957   4.621   3.506   5.870 -0.4456 -0.0256  0.2810
 3064ntf    fn418958   4.697   3.159   5.748  0.8099 -0.4805  0.3184
 3064ntf    fn418959   4.785   3.339   5.675 -0.3484  0.1432  0.0792
 3064ntf    fn418960   4.804   3.273   5.882  0.1060 -0.0622 -0.2441
 3065ntf    cn118961   2.872   4.199   5.659 -0.0525  0.6494 -0.2261
 3065ntf    sn218962   2.975   4.327   5.736  0.1168  0.2467  0.2182
 3065ntf    nn318963   2.927   4.298   5.883 -0.2045 -0.2715  0.0168
 3065ntf    sn218964   2.998   4.210   5.992  0.3428  0.0935 -0.0400
 3065ntf    cn118965   2.866   4.203   6.116  0.1658  0.0902 -0.2280
 3065ntf    fn418966   2.888   4.200   5.528  0.3121  0.3439 -0.1844
 3065ntf    fn418967   2.906   4.077   5.697  0.0969  0.7336 -0.0916
 3065ntf    fn418968   2.744   4.210   5.691 -0.1827 -0.1514 -0.4562
 3065ntf    on518969   3.112   4.293   5.711  0.1025  0.2397  0.1504
 3065ntf    on518970   2.929   4.451   5.679  0.3066  0.0852 -0.2861
 3065ntf    on518971   3.102   4.275   6.067  0.1259  0.4906 -0.0830
 3065ntf    on518972   3.015   4.074   5.946 -0.2565 -0.0339  0.1068
 3065ntf    fn418973   2.758   4.145   6.067  0.1323  0.1382 -0.2105
 3065ntf    fn418974   2.903   4.135   6.223  0.6904  0.6133 -0.0705
 3065ntf    fn418975   2.837   4.322   6.168 -0.2887  0.1826 -0.6858
 3066ntf    cn118976   3.422   6.550   1.722  0.2320  0.3166 -0.0964
 3066ntf    sn218977   3.307   6.432   1.799  0.3131 -0.0339 -0.5062
 3066ntf    nn318978   3.195   6.532   1.845 -0.6264 -1.3157  0.0337
 3066ntf    sn218979   3.158   6.586   1.988 -0.3510  0.2383 -0.4719
 3066ntf    cn118980   2.980   6.610   1.962 -0.5835 -0.5055  0.4125
 3066ntf    fn418981   3.448   6.648   1.806 -0.1478 -0.2116  0.6511
 3066ntf    fn418982   3.539   6.496   1.692  0.1804  0.0551  0.1724
 3066ntf    fn418983   3.367   6.608   1.617  0.2567 -0.2430 -0.4215
 3066ntf    on518984   3.260   6.353   1.688 -0.0059  0.1871 -0.5295
 3066ntf    on518985   3.377   6.373   1.910 -0.1102  0.2421 -0.0844
 3066ntf    on518986   3.217   6.716   2.009  0.1802 -0.1025  0.1737
 3066ntf    on518987   3.158   6.495   2.099  0.1837  0.5913 -0.1759
 3066ntf    fn418988   2.921   6.625   2.080  0.1472  0.7254  0.6429
 3066ntf    fn418989   2.945   6.718   1.894 -0.0984 -0.4853  0.1910
 3066ntf    fn418990   2.916   6.511   1.902 -0.4411 -0.2690 -0.1338
 3067ntf    cn118991   0.920   4.788   0.355  0.5212 -0.0025  0.3068
 3067ntf    sn218992   1.000   4.804   0.193 -0.2929  0.0373 -0.0973
 3067ntf    nn318993   0.927   4.689   0.116 -0.2463  0.0216 -0.1177
 3067ntf    sn218994   0.978   4.563   0.037 -0.1859 -0.1509  0.1948
 3067ntf    cn118995   0.980   4.434   0.165 -0.3088 -0.0092  0.3413
 3067ntf    fn418996   0.945   4.677   0.422 -0.0930  0.0210  0.5855
 3067ntf    fn418997   0.957   4.891   0.430  0.6780  0.3013 -0.1852
 3067ntf    fn418998   0.789   4.807   0.354  0.6304  0.8516  0.7817
 3067ntf    on518999   0.957   4.935   0.151 -0.3322  0.1288  0.2233
 3067ntf    on519000   1.140   4.775   0.213 -0.3263  0.2012  0.3835
 3067ntf    on519001   1.113   4.576  -0.010 -0.3046  0.0776 -0.0880
 3067ntf    on519002   0.881   4.517  -0.059 -0.5929  0.5577  0.2618
 3067ntf    fn419003   0.993   4.313   0.112 -0.5032  0.0141  0.2434
 3067ntf    fn419004   1.073   4.431   0.260 -0.1040  0.7348  0.1692
 3067ntf    fn419005   0.859   4.429   0.217 -0.6396 -0.3711 -0.4548
 3068ntf    cn119006   3.281   3.010   4.704 -0.3847 -0.0627  0.1613
 3068ntf    sn219007   3.351   2.924   4.561 -0.1159 -0.0253  0.2704
 3068ntf    nn319008   3.287   3.012   4.447 -0.1784  0.3163  0.5692
 3068ntf    sn219009   3.350   3.146   4.396  0.3199 -0.1421 -0.0374
 3068ntf    cn119010   3.459   3.096   4.259  0.1097 -0.4776 -0.0814
 3068ntf    fn419011   3.338   3.128   4.721  0.3503 -0.3462 -0.3231
 3068ntf    fn419012   3.152   3.040   4.693 -0.3420  0.1414  0.2000
 3068ntf    fn419013   3.292   2.951   4.822 -0.1239 -0.7922 -0.2249
 3068ntf    on519014   3.494   2.938   4.574 -0.1082 -0.1030  0.2654
 3068ntf    on519015   3.295   2.792   4.555 -0.1606 -0.0017  0.1577
 3068ntf    on519016   3.436   3.215   4.488 -0.0464  0.4301 -0.1165
 3068ntf    on519017   3.251   3.232   4.336  0.1501 -0.5787 -0.3881
 3068ntf    fn419018   3.403   3.044   4.151 -0.2011 -0.0220 -0.1406
 3068ntf    fn419019   3.517   3.205   4.213 -0.3316 -0.1042  0.2378
 3068ntf    fn419020   3.561   3.017   4.289  0.1904 -0.2129  0.3479
 3069ntf    cn119021   2.149   3.738   6.086  0.4650 -0.1756  0.2583
 3069ntf    sn219022   2.043   3.624   6.179  0.1303 -0.1093 -0.0417
 3069ntf    nn319023   1.980   3.538   6.064 -0.0070  0.5902 -0.4975
 3069ntf    sn219024   2.055   3.421   5.990 -0.2724 -0.0268  0.2009
 3069ntf    cn119025   2.001   3.274   6.083 -0.5822  0.0221  0.0979
 3069ntf    fn419026   2.262   3.681   6.045  0.6015  0.3779 -0.1448
 3069ntf    fn419027   2.094   3.788   5.976 -0.0858 -0.6171  0.3287
 3069ntf    fn419028   2.180   3.845   6.157  0.4677  0.5119 -0.7606
 3069ntf    on519029   2.129   3.558   6.273 -0.2299  0.1068  0.4459
 3069ntf    on519030   1.943   3.718   6.224  0.3793 -0.2336  0.7784
 3069ntf    on519031   2.199   3.419   6.005 -0.2023  0.3225 -0.4076
 3069ntf    on519032   2.014   3.403   5.854  0.2739 -0.1124  0.0436
 3069ntf    fn419033   1.954   3.311   6.201 -0.3359  0.2378  0.1293
 3069ntf    fn419034   1.900   3.216   6.019 -0.0555 -0.3229 -0.4351
 3069ntf    fn419035   2.099   3.186   6.097  0.1011  0.7103 -0.2912
 3070ntf    cn119036   1.230   4.205   0.787  0.1026  0.4033 -0.0653
 3070ntf    sn219037   1.197   4.236   0.611  0.0233  0.1789 -0.0914
 3070ntf    nn319038   1.173   4.092   0.555 -0.0561  0.3153 -0.4094
 3070ntf    sn219039   1.267   3.966   0.557 -0.5014 -0.0127  0.3426
 3070ntf    cn119040   1.328   3.968   0.386 -0.2384 -0.2014  0.4338
 3070ntf    fn419041   1.355   4.180   0.822 -0.1494 -0.4480  0.2736
 3070ntf    fn419042   1.216   4.320   0.850  0.1588  0.4430 -0.1265
 3070ntf    fn419043   1.159   4.108   0.844  0.5258  0.3896  0.4516
 3070ntf    on519044   1.079   4.317   0.626 -0.0377  0.1760 -0.5538
 3070ntf    on519045   1.321   4.292   0.562  0.0291 -0.1038 -0.3991
 3070ntf    on519046   1.190   3.845   0.562  0.4329 -0.6339  0.0342
 3070ntf    on519047   1.391   3.973   0.632 -0.0924 -0.4248 -0.2847
 3070ntf    fn419048   1.355   4.089   0.338 -0.1266 -0.2691  0.3232
 3070ntf    fn419049   1.438   3.895   0.372  0.0739  0.4174 -0.4508
 3070ntf    fn419050   1.230   3.917   0.315  0.1951 -0.0103 -0.3145
 3071ntf    cn119051   0.502   3.477   2.948  0.0225  0.1781  0.1284
 3071ntf    sn219052   0.583   3.638   2.928  0.3888 -0.0265 -0.0265
 3071ntf    nn319053   0.734   3.599   2.947  0.3505 -0.2307 -0.1394
 3071ntf    sn219054   0.819   3.629   3.076 -0.1145  0.4869  0.0063
 3071ntf    cn119055   0.883   3.461   3.103 -0.2040  0.3471 -0.6451
 3071ntf    fn419056   0.520   3.412   3.062 -0.1457  0.0004  0.0538
 3071ntf    fn419057   0.371   3.495   2.939 -0.0106 -0.1118  0.0272
 3071ntf    fn419058   0.539   3.400   2.847  0.3437  0.2154  0.2167
 3071ntf    on519059   0.570   3.665   2.787 -0.1729  0.0237  0.0359
 3071ntf    on519060   0.511   3.718   3.024  0.5109 -0.0160  0.0565
 3071ntf    on519061   0.754   3.666   3.200 -0.0914  0.3436  0.0619
 3071ntf    on519062   0.939   3.702   3.045 -0.2106  0.4944 -0.3545
 3071ntf    fn419063   0.802   3.402   3.189  0.5554  0.7099  0.3385
 3071ntf    fn419064   0.880   3.386   2.993 -0.3050  0.7679 -0.9331
 3071ntf    fn419065   1.003   3.451   3.158 -0.5493  0.6454  0.1671
 3072ntf    cn119066   5.285   5.247   5.241  0.0050  0.0419  0.4287
 3072ntf    sn219067   5.343   5.210   5.073 -0.2894 -0.0487  0.3464
 3072ntf    nn319068   5.235   5.115   5.011 -0.1797 -0.0584  0.1675
 3072ntf    sn219069   5.120   5.155   4.911 -0.1336 -0.0489  0.1180
 3072ntf    cn119070   5.215   5.182   4.758 -0.1756 -0.2278  0.0604
 3072ntf    fn419071   5.387   5.288   5.316  0.2618  0.1987 -0.0006
 3072ntf    fn419072   5.187   5.336   5.249 -0.0474 -0.0571  0.9006
 3072ntf    fn419073   5.236   5.138   5.298 -0.2423 -0.2749 -0.3847
 3072ntf    on519074   5.358   5.337   5.005 -0.3361 -0.2139  0.0292
 3072ntf    on519075   5.462   5.133   5.100 -0.5484 -0.3641  0.5868
 3072ntf    on519076   5.045   5.274   4.942 -0.1783  0.0360 -0.3055
 3072ntf    on519077   5.044   5.038   4.879 -0.3979  0.2187 -0.2357
 3072ntf    fn419078   5.300   5.086   4.724  0.3243  0.3416 -0.3206
 3072ntf    fn419079   5.137   5.206   4.654 -0.0905 -0.3803 -0.0377
 3072ntf    fn419080   5.290   5.292   4.757  0.1857 -0.4732 -0.0206
 3073ntf    cn119081   7.064   1.771   4.802  0.0363  0.3810  0.0029
 3073ntf    sn219082   6.908   1.842   4.861 -0.2622 -0.4015  0.1640
 3073ntf    nn319083   6.971   1.952   4.953 -0.4266 -0.2135  0.0522
 3073ntf    sn219084   6.969   2.106   4.922  0.2612 -0.1625  0.2628
 3073ntf    cn119085   7.061   2.170   5.066  0.3798  0.2043  0.0260
 3073ntf    fn419086   7.122   1.851   4.714  0.2100 -0.3585 -0.5698
 3073ntf    fn419087   7.151   1.760   4.901 -0.3069  0.4816  0.3149
 3073ntf    fn419088   7.057   1.650   4.747  0.5820  0.5915 -0.5453
 3073ntf    on519089   6.835   1.879   4.742  0.2934  0.0497 -0.0380
 3073ntf    on519090   6.843   1.743   4.944  0.0985 -0.6312  0.1729
 3073ntf    on519091   6.841   2.171   4.925  0.1667 -0.3400  0.0875
 3073ntf    on519092   7.055   2.154   4.817 -0.0668  0.6707  0.3701
 3073ntf    fn419093   6.999   2.136   5.178 -0.3084 -0.0161 -0.4101
 3073ntf    fn419094   7.181   2.114   5.071  0.3679  0.1603 -0.1568
 3073ntf    fn419095   7.076   2.301   5.062 -0.1053  0.2987  1.0152
 3074ntf    cn119096   6.820   2.988   4.676 -0.0198 -0.0754  0.3468
 3074ntf    sn219097   6.927   3.002   4.822  0.4818  0.1461 -0.0441
 3074ntf    nn319098   6.868   3.114   4.915  0.1163 -0.0423 -0.0508
 3074ntf    sn219099   6.772   3.108   5.039  0.0325 -0.0521 -0.1163
 3074ntf    cn119100   6.879   3.155   5.178 -0.1704  0.0865 -0.0061
 3074ntf    fn419101   6.753   3.101   4.663  0.1144 -0.0960 -0.6151
 3074ntf    fn419102   6.884   2.954   4.565  0.0488 -0.5000  0.5128
 3074ntf    fn419103   6.722   2.899   4.684 -0.0486 -0.0224  0.6069
 3074ntf    on519104   6.934   2.874   4.887 -0.4571  0.2048  0.1874
 3074ntf    on519105   7.056   3.050   4.778  0.6720 -0.1467  0.1886
 3074ntf    on519106   6.739   2.972   5.074 -0.0329 -0.0828 -0.2957
 3074ntf    on519107   6.676   3.216   5.041 -0.5155 -0.5289 -0.2110
 3074ntf    fn419108   6.979   3.074   5.209 -0.0827  0.2989  0.2760
 3074ntf    fn419109   6.932   3.276   5.170 -0.3535  0.2000  0.4781
 3074ntf    fn419110   6.810   3.155   5.291  0.4980 -0.6040  0.4064
 3075ntf    cn119111   6.455   4.570   6.546 -0.0903 -0.1729 -0.0950
 3075ntf    sn219112   6.395   4.490   6.394 -0.0116 -0.0954 -0.1671
 3075ntf    nn319113   6.240   4.489   6.421 -0.0448  0.0397 -0.3531
 3075ntf    sn219114   6.159   4.383   6.504  0.0885  0.0282 -0.2377
 3075ntf    cn119115   6.090   4.279   6.372  0.2529 -0.2607 -0.0976
 3075ntf    fn419116   6.404   4.522   6.658  0.4099 -0.2106  0.1171
 3075ntf    fn419117   6.584   4.551   6.570 -0.0863 -0.2744 -0.1976
 3075ntf    fn419118   6.446   4.702   6.539 -0.4470 -0.1830  0.1363
 3075ntf    on519119   6.422   4.587   6.292  0.1156  0.2443  0.1869
 3075ntf    on519120   6.463   4.363   6.384  0.2938  0.0547  0.0119
 3075ntf    on519121   6.047   4.455   6.559 -0.1733 -0.2041 -0.4664
 3075ntf    on519122   6.229   4.288   6.587 -0.4985  0.0011  0.2356
 3075ntf    fn419123   5.986   4.207   6.411 -0.4094  0.6876 -0.0861
 3075ntf    fn419124   6.043   4.357   6.276  0.3501 -0.3158 -0.1899
 3075ntf    fn419125   6.178   4.194   6.322 -0.6191 -0.8860 -0.6003
 3076ntf    cn119126   4.556   4.973   5.850 -0.1506  0.1421 -0.3213
 3076ntf    sn219127   4.516   4.860   5.712 -0.0314 -0.1923 -0.0848
 3076ntf    nn319128   4.606   4.922   5.600  0.5991  0.0137  0.5314
 3076ntf    sn219129   4.702   4.846   5.502  0.0859  0.0495 -0.0055
 3076ntf    cn119130   4.860   4.896   5.577  0.2409 -0.3395 -0.0708
 3076ntf    fn419131   4.499   4.949   5.967 -0.0079  0.5167 -0.1736
 3076ntf    fn419132   4.685   4.984   5.878 -0.1366  0.2907 -0.4442
 3076ntf    fn419133   4.507   5.091   5.818 -1.0387 -0.2523 -0.4467
 3076ntf    on519134   4.564   4.738   5.771 -0.0353 -0.2410 -0.1824
 3076ntf    on519135   4.374   4.877   5.690  0.0144  0.4037  0.0467
 3076ntf    on519136   4.709   4.912   5.374 -0.4759  0.5941  0.2418
 3076ntf    on519137   4.699   4.702   5.504  0.4324  0.0442  0.3255
 3076ntf    fn419138   4.960   4.893   5.489 -0.1070  0.3315 -0.4970
 3076ntf    fn419139   4.862   5.022   5.614 -0.3088 -0.2670 -0.2879
 3076ntf    fn419140   4.896   4.819   5.678  0.6352 -0.2650 -0.1533
 3077ntf    cn119141   5.910   4.221   3.352 -0.2204 -0.1550  0.1938
 3077ntf    sn219142   6.056   4.322   3.391 -0.2951  0.1403 -0.2793
 3077ntf    nn319143   6.034   4.327   3.546  0.0439 -0.2988 -0.2155
 3077ntf    sn219144   6.000   4.456   3.628  0.5385 -0.1353 -0.2656
 3077ntf    cn119145   6.173   4.507   3.650  0.4021  0.1449  0.1922
 3077ntf    fn419146   5.798   4.266   3.407  0.0970  0.3842  0.4193
 3077ntf    fn419147   5.878   4.220   3.224  0.1722  0.1460  0.0905
 3077ntf    fn419148   5.923   4.096   3.392  0.4322 -0.0282  0.3978
 3077ntf    on519149   6.165   4.239   3.346 -0.6451  0.0718 -1.0133
 3077ntf    on519150   6.038   4.440   3.310 -0.5199 -0.0572 -0.5160
 3077ntf    on519151   5.954   4.433   3.763 -0.2301  0.5539 -0.3978
 3077ntf    on519152   5.944   4.572   3.562 -0.1295 -0.5164 -0.3762
 3077ntf    fn419153   6.186   4.633   3.684  0.2975  0.2764 -0.2419
 3077ntf    fn419154   6.231   4.432   3.742  0.6432  0.5323  0.3574
 3077ntf    fn419155   6.250   4.490   3.543 -0.0808  0.0215 -0.1370
 3078ntf    cn119156   4.248   1.282   3.861 -0.1050 -0.2908 -0.3759
 3078ntf    sn219157   4.198   1.363   4.016 -0.0536  0.0115 -0.5165
 3078ntf    nn319158   4.339   1.408   4.067  0.1158 -0.4102 -0.6063
 3078ntf    sn219159   4.402   1.385   4.209 -0.2910 -0.0618 -0.3671
 3078ntf    cn119160   4.476   1.549   4.236 -0.5162 -0.0332  0.0893
 3078ntf    fn419161   4.327   1.177   3.873  0.2412  0.0305  0.2331
 3078ntf    fn419162   4.139   1.245   3.796  0.0937 -0.2153 -0.7546
 3078ntf    fn419163   4.305   1.373   3.784 -0.6685  0.6350  0.2858
 3078ntf    on519164   4.118   1.474   3.969 -0.5545 -0.2383 -0.2637
 3078ntf    on519165   4.124   1.256   4.078  0.3138  0.2254  0.3131
 3078ntf    on519166   4.512   1.292   4.220 -0.2792 -0.0564 -0.4388
 3078ntf    on519167   4.302   1.380   4.313  0.3473  0.2767  0.2750
 3078ntf    fn419168   4.496   1.582   4.362 -0.1339 -0.1242  0.0519
 3078ntf    fn419169   4.590   1.558   4.170 -0.6589  0.2735 -0.1132
 3078ntf    fn419170   4.396   1.647   4.197 -0.1036  0.1380 -0.3272
 3079ntf    cn119171   1.449   2.491   6.344 -0.1097  0.1466 -0.2684
 3079ntf    sn219172   1.597   2.401   6.288 -0.1313 -0.0372 -0.0326
 3079ntf    nn319173   1.717   2.499   6.311 -0.0992 -0.0297 -0.2316
 3079ntf    sn219174   1.866   2.460   6.345 -0.0662  0.3998  0.1236
 3079ntf    cn119175   1.929   2.470   6.175  0.3432 -0.1987  0.2399
 3079ntf    fn419176   1.347   2.434   6.282 -0.6001  0.3135  0.3665
 3079ntf    fn419177   1.437   2.495   6.476 -0.8543  0.2273 -0.3388
 3079ntf    fn419178   1.456   2.618   6.307 -0.1854  0.4285  0.6520
 3079ntf    on519179   1.582   2.285   6.372  0.4106 -0.4672 -0.5214
 3079ntf    on519180   1.569   2.385   6.147  0.7996 -0.5015 -0.1738
 3079ntf    on519181   1.906   2.327   6.383 -0.1485  0.2765 -0.2169
 3079ntf    on519182   1.941   2.568   6.403 -0.2147  0.0544  0.9647
 3079ntf    fn419183   1.902   2.588   6.122  0.6871 -0.1531  0.1592
 3079ntf    fn419184   2.061   2.460   6.173  0.3160 -0.5368 -0.1679
 3079ntf    fn419185   1.882   2.379   6.091 -0.2670  0.1060  0.2537
 3080ntf    cn119186   4.286   1.305   2.337 -0.0342 -0.2898  0.0673
 3080ntf    sn219187   4.224   1.474   2.367 -0.0484 -0.2760 -0.0363
 3080ntf    nn319188   4.326   1.565   2.291  0.1022 -0.2137  0.2367
 3080ntf    sn219189   4.451   1.646   2.339  0.1397 -0.1816  0.0885
 3080ntf    cn119190   4.550   1.646   2.187  0.0104  0.1576  0.0041
 3080ntf    fn419191   4.416   1.296   2.355 -0.0285 -0.1483  0.0990
 3080ntf    fn419192   4.243   1.204   2.410  0.3917 -0.6529 -0.1813
 3080ntf    fn419193   4.274   1.270   2.210 -0.8607 -0.2100  0.1187
 3080ntf    on519194   4.091   1.474   2.312  0.1051  0.4947 -0.4147
 3080ntf    on519195   4.233   1.490   2.510 -0.0446  0.4995 -0.1227
 3080ntf    on519196   4.532   1.577   2.437  0.3574 -0.6634 -0.4265
 3080ntf    on519197   4.434   1.788   2.360  0.0909 -0.2900  0.7993
 3080ntf    fn419198   4.493   1.696   2.078 -0.0861 -0.6359 -0.3185
 3080ntf    fn419199   4.671   1.697   2.206  0.2376 -0.3044 -0.1778
 3080ntf    fn419200   4.566   1.520   2.150 -0.0113  0.1088  0.1633
 3081ntf    cn119201   3.530   3.079   1.794 -0.0267  0.1143 -0.0105
 3081ntf    sn219202   3.480   3.242   1.857 -0.2797 -0.0999  0.3498
 3081ntf    nn319203   3.323   3.242   1.856 -0.2834  0.7729 -0.0550
 3081ntf    sn219204   3.218   3.204   1.966  0.0076 -0.0227 -0.0442
 3081ntf    cn119205   3.190   3.372   2.032 -0.1696  0.0423 -0.2862
 3081ntf    fn419206   3.652   3.041   1.830 -0.3234 -0.1206  0.7596
 3081ntf    fn419207   3.454   2.980   1.838  0.0931  0.0296  0.0076
 3081ntf    fn419208   3.526   3.072   1.662 -0.4566  0.3772 -0.0120
 3081ntf    on519209   3.540   3.238   1.988  0.3037 -0.0221  0.0870
 3081ntf    on519210   3.527   3.334   1.756  0.1345 -0.5845  0.0936
 3081ntf    on519211   3.260   3.118   2.075  0.1463 -0.0801 -0.1426
 3081ntf    on519212   3.088   3.172   1.914 -0.1555  0.3512  0.1286
 3081ntf    fn419213   3.298   3.447   2.046 -0.4755  0.4330 -0.0220
 3081ntf    fn419214   3.123   3.441   1.941 -0.3404 -0.3092 -0.4288
 3081ntf    fn419215   3.123   3.372   2.146  0.1391  0.2718 -0.1056
 3082ntf    cn119216   1.211   0.838   6.392 -0.1518  0.3596  0.0131
 3082ntf    sn219217   1.313   0.988   6.390 -0.1326  0.3518  0.3131
 3082ntf    nn319218   1.430   0.963   6.492  0.0975 -0.0689 -0.0494
 3082ntf    sn219219   1.578   1.016   6.491  0.2494 -0.4889  0.1406
 3082ntf    cn119220   1.667   0.858   6.482 -0.1692 -0.7212  0.0940
 3082ntf    fn419221   1.169   0.784   6.506  0.3655  0.0782  0.0684
 3082ntf    fn419222   1.102   0.845   6.317  0.0821  0.3052 -0.3305
 3082ntf    fn419223   1.280   0.737   6.342 -0.2551  0.3590 -0.1277
 3082ntf    on519224   1.355   0.988   6.252 -0.3413  0.6484  0.2485
 3082ntf    on519225   1.219   1.089   6.432  0.6025  1.0546  0.3067
 3082ntf    on519226   1.624   1.072   6.616  0.5614  0.2757 -0.3071
 3082ntf    on519227   1.627   1.085   6.374  0.5284 -0.0476  0.5115
 3082ntf    fn419228   1.640   0.801   6.365 -0.3710 -0.5400  0.0516
 3082ntf    fn419229   1.795   0.889   6.476 -0.4359  0.2968 -0.5949
 3082ntf    fn419230   1.642   0.768   6.576 -0.6313  0.0317  0.7080
 3083ntf    cn119231   6.453   2.928   2.585 -0.2878 -0.2115  0.0061
 3083ntf    sn219232   6.517   2.758   2.595 -0.2027 -0.1790  0.0175
 3083ntf    nn319233   6.668   2.790   2.624 -0.2940  0.6772 -0.4068
 3083ntf    sn219234   6.791   2.788   2.527  0.0999  0.0983  0.0916
 3083ntf    cn119235   6.804   2.607   2.519 -0.3512  0.0693  0.0085
 3083ntf    fn419236   6.495   3.003   2.685 -0.3694  0.0032 -0.1212
 3083ntf    fn419237   6.489   3.001   2.481  0.3820 -0.3965  0.1010
 3083ntf    fn419238   6.321   2.934   2.590 -0.2157  1.0773  0.5660
 3083ntf    on519239   6.450   2.693   2.705 -0.5847  0.4642  0.1662
 3083ntf    on519240   6.489   2.712   2.461  0.2330 -0.4421  0.0162
 3083ntf    on519241   6.912   2.836   2.589 -0.0099 -0.1337  0.4896
 3083ntf    on519242   6.769   2.828   2.390  0.2499 -0.4007 -0.0802
 3083ntf    fn419243   6.852   2.564   2.635  0.5357  0.4238 -0.2190
 3083ntf    fn419244   6.692   2.541   2.496 -0.5560  0.4198 -0.0127
 3083ntf    fn419245   6.898   2.566   2.435  0.1130  0.4674  0.3297
 3084ntf    cn119246   3.038   5.424   1.357  0.0622 -0.0456  0.4048
 3084ntf    sn219247   3.014   5.393   1.180  0.3206 -0.0433  0.3698
 3084ntf    nn319248   2.871   5.335   1.206  0.0492  0.0906 -0.7387
 3084ntf    sn219249   2.738   5.419   1.206 -0.1241 -0.1798 -0.2056
 3084ntf    cn119250   2.635   5.310   1.309  0.1547 -0.0648  0.1942
 3084ntf    fn419251   2.970   5.344   1.437 -0.1152  0.0904  0.3904
 3084ntf    fn419252   3.166   5.416   1.387  0.2771 -0.0677 -0.4862
 3084ntf    fn419253   3.007   5.550   1.385 -0.1925 -0.0777  0.2755
 3084ntf    on519254   3.025   5.519   1.110  0.0775 -0.0584  0.3059
 3084ntf    on519255   3.104   5.285   1.147 -0.2688 -0.4672  0.1229
 3084ntf    on519256   2.668   5.412   1.080 -0.0636 -0.1669 -0.2399
 3084ntf    on519257   2.733   5.544   1.277 -0.0405 -0.3705  0.1407
 3084ntf    fn419258   2.658   5.187   1.266 -0.3439 -0.5078  1.1530
 3084ntf    fn419259   2.668   5.312   1.437 -0.1685 -0.2483  0.2818
 3084ntf    fn419260   2.507   5.341   1.293  0.2098  0.1517  0.1655
 3085ntf    cn119261   6.411   1.313   4.085  0.1848 -0.1039 -0.2464
 3085ntf    sn219262   6.414   1.480   4.157 -0.0187 -0.1201 -0.2012
 3085ntf    nn319263   6.261   1.516   4.157  0.0944  0.3561 -0.2428
 3085ntf    sn219264   6.166   1.557   4.275  0.0397  0.3607 -0.2877
 3085ntf    cn119265   6.133   1.724   4.213  0.1833  0.5397  0.1107
 3085ntf    fn419266   6.355   1.226   4.167  0.1429 -0.1257 -0.2987
 3085ntf    fn419267   6.332   1.309   3.979 -0.1432 -0.5759  0.0144
 3085ntf    fn419268   6.523   1.260   4.038  0.3018 -0.3563  0.3099
 3085ntf    on519269   6.474   1.440   4.282 -0.7803 -0.7407 -0.0204
 3085ntf    on519270   6.487   1.548   4.053  0.4455  0.1029  0.2670
 3085ntf    on519271   6.229   1.578   4.404 -0.0995 -0.1842 -0.1294
 3085ntf    on519272   6.038   1.493   4.265 -0.0208  0.3862  0.2440
 3085ntf    fn419273   6.075   1.716   4.094 -0.0337  0.4929  0.2194
 3085ntf    fn419274   6.052   1.791   4.294  0.0274  0.2320  0.2121
 3085ntf    fn419275   6.241   1.799   4.195  0.1472  0.4848 -0.3421
 3086ntf    cn119276   0.979   5.342   5.714  0.0669 -0.0866  0.0189
 3086ntf    sn219277   1.061   5.215   5.613 -0.1232 -0.0379 -0.1967
 3086ntf    nn319278   0.970   5.087   5.619  0.0675 -0.1812 -0.3282
 3086ntf    sn219279   0.955   4.976   5.509 -0.2621 -0.1610 -0.3053
 3086ntf    cn119280   1.128   4.927   5.481 -0.1118  0.0185  0.2888
 3086ntf    fn419281   0.956   5.305   5.838  0.0555  0.0869  0.0692
 3086ntf    fn419282   1.040   5.459   5.722  0.4363 -0.2166 -0.7257
 3086ntf    fn419283   0.861   5.371   5.660 -0.1742 -0.5975  0.2658
 3086ntf    on519284   1.069   5.278   5.483  0.1769  0.6419  0.1478
 3086ntf    on519285   1.185   5.199   5.683 -0.2002 -0.1873 -0.0947
 3086ntf    on519286   0.906   5.024   5.382  0.1362 -0.3557 -0.5362
 3086ntf    on519287   0.891   4.860   5.567  0.2132  0.0264  0.6063
 3086ntf    fn419288   1.138   4.841   5.381  0.1270  0.2444  0.1165
 3086ntf    fn419289   1.203   5.028   5.438 -0.8776  0.3801 -0.2137
 3086ntf    fn419290   1.184   4.876   5.589 -0.3489 -0.1130  0.3489
 3087ntf    cn119291   6.015   3.873   3.047  0.2486 -0.4839  0.1941
 3087ntf    sn219292   6.155   3.927   2.944  0.0089  0.0952  0.1655
 3087ntf    nn319293   6.079   3.914   2.807  0.3940 -0.3058 -0.0114
 3087ntf    sn219294   6.000   4.025   2.729  0.1362 -0.6064 -0.1779
 3087ntf    cn119295   6.131   4.051   2.607 -0.0990 -0.1759 -0.3387
 3087ntf    fn419296   5.996   3.745   3.020  0.0451 -0.3310 -0.4105
 3087ntf    fn419297   6.048   3.891   3.174  0.0898  0.7022  0.0780
 3087ntf    fn419298   5.905   3.943   3.022 -0.0186 -0.8935  0.2057
 3087ntf    on519299   6.182   4.063   2.983  0.6149  0.0454 -0.0613
 3087ntf    on519300   6.248   3.822   2.981 -0.4039 -0.3278  0.0204
 3087ntf    on519301   5.976   4.157   2.781 -0.0031 -0.6510 -0.1260
 3087ntf    on519302   5.895   3.969   2.648 -0.0710  0.0053 -0.3326
 3087ntf    fn419303   6.096   4.127   2.504 -0.2906  0.3976  0.1461
 3087ntf    fn419304   6.235   4.107   2.668  0.3270 -0.4350 -0.8111
 3087ntf    fn419305   6.180   3.938   2.558  0.0711 -0.2510  0.0071
 3088ntf    cn119306   4.963   5.673   1.238 -0.2200  0.4096  0.0206
 3088ntf    sn219307   5.046   5.653   1.077 -0.5287  0.1727 -0.1114
 3088ntf    nn319308   5.152   5.769   1.088 -0.5464  0.1863 -0.0878
 3088ntf    sn219309   5.308   5.770   1.101 -0.5227  0.1945 -0.3639
 3088ntf    cn119310   5.353   5.904   0.987  0.0547  0.1430 -0.2012
 3088ntf    fn419311   4.900   5.561   1.270  0.2108  0.1093 -0.1655
 3088ntf    fn419312   5.043   5.699   1.339 -0.0010  0.3266 -0.1302
 3088ntf    fn419313   4.881   5.776   1.242 -0.5746  0.1166  0.3749
 3088ntf    on519314   5.098   5.519   1.088  0.0101  0.4077  0.2407
 3088ntf    on519315   4.934   5.660   0.987 -0.5091 -1.0771 -0.2426
 3088ntf    on519316   5.378   5.656   1.047  0.1374  0.1608  0.5287
 3088ntf    on519317   5.352   5.810   1.232 -0.4288  0.3503 -0.4425
 3088ntf    fn419318   5.329   5.863   0.863 -0.0865 -0.4807  0.0262
 3088ntf    fn419319   5.282   6.010   1.021 -0.4323 -0.1456 -0.3060
 3088ntf    fn419320   5.479   5.943   0.986  0.0213  0.2706  0.3771
 3089ntf    cn119321   0.703   4.288   0.770 -0.1359  0.2407 -0.0200
 3089ntf    sn219322   0.570   4.270   0.892  0.1373 -0.0751  0.2312
 3089ntf    nn319323   0.653   4.240   1.022 -0.0599 -0.1702  0.3351
 3089ntf    sn219324   0.741   4.334   1.112  0.2040  0.0134 -0.1151
 3089ntf    cn119325   0.614   4.389   1.230  0.0548 -0.5775  0.0030
 3089ntf    fn419326   0.647   4.296   0.650  0.1193  0.7183 -0.1113
 3089ntf    fn419327   0.762   4.406   0.785 -0.4026  0.3475  0.1862
 3089ntf    fn419328   0.798   4.196   0.775 -0.3411  0.0339  0.0651
 3089ntf    on519329   0.501   4.396   0.883  0.2392 -0.0832 -0.7517
 3089ntf    on519330   0.496   4.163   0.831  0.3148  0.0355 -0.1779
 3089ntf    on519331   0.794   4.454   1.053  0.3792  0.1922  0.3992
 3089ntf    on519332   0.832   4.257   1.194  0.0788  0.2621  0.2615
 3089ntf    fn419333   0.654   4.503   1.283 -0.3642 -0.4821  0.1124
 3089ntf    fn419334   0.501   4.419   1.169 -0.0077  0.5576  0.6611
 3089ntf    fn419335   0.577   4.313   1.332 -0.2439  0.3280  0.5759
 3090ntf    cn119336   6.736   5.768   4.167  0.0659 -0.1632 -0.0500
 3090ntf    sn219337   6.753   5.599   4.103  0.0309 -0.2387  0.1400
 3090ntf    nn319338   6.858   5.539   4.202  0.6551 -0.3394 -0.5740
 3090ntf    sn219339   6.841   5.447   4.329 -0.2101  0.3289 -0.1958
 3090ntf    cn119340   7.001   5.360   4.328 -0.3896 -0.0031 -0.2971
 3090ntf    fn419341   6.855   5.818   4.195  0.2327 -0.5074 -0.1355
 3090ntf    fn419342   6.678   5.848   4.078 -0.0327  0.1586  0.3019
 3090ntf    fn419343   6.664   5.782   4.277  0.0392 -0.2527 -0.0563
 3090ntf    on519344   6.618   5.550   4.118 -0.0941 -0.1260 -0.5800
 3090ntf    on519345   6.802   5.615   3.968 -0.1114 -0.2246  0.0893
 3090ntf    on519346   6.754   5.335   4.299  0.3859 -0.1250 -0.2517
 3090ntf    on519347   6.826   5.514   4.455 -0.0540  0.5209 -0.2784
 3090ntf    fn419348   7.094   5.436   4.384 -0.5644 -0.0647  0.0725
 3090ntf    fn419349   6.993   5.251   4.402  0.4733  0.2489  0.1798
 3090ntf    fn419350   7.044   5.322   4.209  0.5210  0.5084 -0.1421
 3091ntf    cn119351   3.080   1.601   4.745 -0.0471 -0.1980  0.2177
 3091ntf    sn219352   3.134   1.443   4.817  0.0462 -0.2039  0.1339
 3091ntf    nn319353   3.054   1.344   4.726 -0.6250  0.2967  0.1705
 3091ntf    sn219354   2.949   1.237   4.770 -0.2746 -0.0659  0.1374
 3091ntf    cn119355   3.027   1.143   4.905  0.3994  0.0905 -0.1411
 3091ntf    fn419356   3.109   1.595   4.616 -0.3675  0.4338  0.1123
 3091ntf    fn419357   2.952   1.633   4.758 -0.0379 -0.1209  0.1193
 3091ntf    fn419358   3.137   1.706   4.801 -0.3920 -0.0674  0.3234
 3091ntf    on519359   3.278   1.434   4.803 -0.0014 -0.3537 -0.2528
 3091ntf    on519360   3.065   1.476   4.939 -0.3780 -0.1554 -0.1180
 3091ntf    on519361   2.927   1.141   4.665  0.2201 -0.2463  0.1994
 3091ntf    on519362   2.832   1.296   4.831 -0.0543  0.1813  0.3216
 3091ntf    fn419363   3.043   1.216   5.014 -0.1436 -0.5028  0.3438
 3091ntf    fn419364   2.961   1.032   4.934  0.0396  0.3721  0.1244
 3091ntf    fn419365   3.149   1.102   4.877  0.4582 -0.0656  0.3327
 3092ntf    cn119366   3.513   1.343   6.902  0.2314  0.0995 -0.4096
 3092ntf    sn219367   3.405   1.228   6.812 -0.1078  0.1457 -0.0657
 3092ntf    nn319368   3.259   1.266   6.856 -0.0537  0.4438 -0.1438
 3092ntf    sn219369   3.138   1.309   6.767 -0.4132 -0.0138  0.1185
 3092ntf    cn119370   3.021   1.199   6.852 -0.0870 -0.3057  0.1926
 3092ntf    fn419371   3.638   1.350   6.861  0.2644 -0.0929 -0.3460
 3092ntf    fn419372   3.472   1.469   6.907  0.0931  0.0370  0.1299
 3092ntf    fn419373   3.520   1.315   7.032 -0.2007  0.8613 -0.2178
 3092ntf    on519374   3.441   1.272   6.680 -0.5058 -0.6617 -0.4518
 3092ntf    on519375   3.453   1.098   6.854 -0.3780  0.0598 -0.0167
 3092ntf    on519376   3.145   1.269   6.628  0.1581 -0.3850  0.2517
 3092ntf    on519377   3.084   1.439   6.799 -0.7715 -0.1408  0.0427
 3092ntf    fn419378   2.904   1.198   6.790 -0.0300  0.3445  0.0597
 3092ntf    fn419379   3.061   1.074   6.861  0.0060 -0.2916 -0.0363
 3092ntf    fn419380   2.990   1.234   6.976  0.0257  0.4787  0.0087
 3093ntf    cn119381   6.063   2.127   0.475 -0.2303  0.0108 -0.0657
 3093ntf    sn219382   6.179   2.266   0.496 -0.2502  0.0391 -0.1439
 3093ntf    nn319383   6.092   2.369   0.577 -0.4938 -0.1765 -0.1283
 3093ntf    sn219384   6.077   2.403   0.729 -0.4739 -0.3560 -0.0859
 3093ntf    cn119385   6.206   2.526   0.763 -0.7516 -0.0590 -0.1011
 3093ntf    fn419386   6.003   2.094   0.588 -0.4867 -0.3262 -0.2954
 3093ntf    fn419387   5.963   2.153   0.393 -0.1366  0.1003 -0.1510
 3093ntf    fn419388   6.129   2.019   0.435 -0.6168 -0.2978  0.1233
 3093ntf    on519389   6.281   2.212   0.582 -0.5106  0.4750  0.4463
 3093ntf    on519390   6.206   2.310   0.361 -0.2903  0.3061 -0.0644
 3093ntf    on519391   6.092   2.293   0.821 -0.0351  0.0914  0.3833
 3093ntf    on519392   5.960   2.485   0.751 -0.1954  0.0170  0.0079
 3093ntf    fn419393   6.220   2.555   0.891  0.5832 -0.4928 -0.1326
 3093ntf    fn419394   6.322   2.485   0.714 -0.8769  0.3548 -0.7647
 3093ntf    fn419395   6.187   2.648   0.716  0.7429  0.1276 -0.2601
 3094ntf    cn119396   1.357   5.918   0.707 -0.0208 -0.1864 -0.2599
 3094ntf    sn219397   1.308   6.042   0.583 -0.3647  0.0141  0.0755
 3094ntf    nn319398   1.320   5.966   0.446 -0.3796  0.5134 -0.2054
 3094ntf    sn219399   1.409   6.003   0.323  0.2308  0.0509  0.0901
 3094ntf    cn119400   1.536   5.878   0.359  0.0818 -0.3055 -0.5892
 3094ntf    fn419401   1.466   5.850   0.673 -0.0548 -0.2832 -0.1742
 3094ntf    fn419402   1.389   5.982   0.818 -0.1266 -0.0643 -0.2997
 3094ntf    fn419403   1.264   5.828   0.732 -0.7584  0.4278 -0.7345
 3094ntf    on519404   1.171   6.080   0.605 -0.3087  0.3504 -0.1522
 3094ntf    on519405   1.395   6.153   0.612 -0.4750  0.3567 -0.8761
 3094ntf    on519406   1.479   6.129   0.323  0.2200  0.0572 -0.1121
 3094ntf    on519407   1.356   5.961   0.195 -0.0524  0.1795  0.1642
 3094ntf    fn419408   1.628   5.883   0.264  0.0100  0.1864 -0.6340
 3094ntf    fn419409   1.600   5.907   0.471 -0.0845  0.4656 -0.6842
 3094ntf    fn419410   1.505   5.750   0.369 -0.2506 -0.1802  0.1106
 3095ntf    cn119411   2.322   4.665   3.603 -0.0624  0.0353  0.0419
 3095ntf    sn219412   2.258   4.803   3.702 -0.0754 -0.0499  0.1528
 3095ntf    nn319413   2.267   4.917   3.593 -0.0157 -0.2691 -0.0719
 3095ntf    sn219414   2.385   5.015   3.561 -0.0112 -0.1097  0.4258
 3095ntf    cn119415   2.343   5.144   3.683 -0.2748  0.1090  0.1044
 3095ntf    fn419416   2.341   4.555   3.673 -0.6199  0.1587  0.3856
 3095ntf    fn419417   2.238   4.620   3.511 -0.2598  0.0951  0.1933
 3095ntf    fn419418   2.437   4.686   3.540 -0.1483 -0.3926 -0.2625
 3095ntf    on519419   2.120   4.768   3.724 -0.1030 -0.3909 -0.5343
 3095ntf    on519420   2.343   4.827   3.816  0.6702  0.4738 -0.4947
 3095ntf    on519421   2.375   5.085   3.435  0.3162 -0.1827  0.3586
 3095ntf    on519422   2.520   4.981   3.598 -0.1917 -0.7960  0.4666
 3095ntf    fn419423   2.222   5.192   3.660 -0.1763  0.3790  0.1429
 3095ntf    fn419424   2.349   5.105   3.809 -0.5356 -0.1228  0.0448
 3095ntf    fn419425   2.424   5.249   3.674 -0.4035  0.1854 -0.1950
 3096ntf    cn119426   6.972   4.631   3.865 -0.1268  0.0230 -0.0581
 3096ntf    sn219427   6.997   4.459   3.919  0.3453  0.0953 -0.0397
 3096ntf    nn319428   6.880   4.401   3.831  0.2716  0.5574 -0.2523
 3096ntf    sn219429   6.891   4.349   3.684 -0.1319  0.0109 -0.0953
 3096ntf    cn119430   6.935   4.175   3.712  0.3399  0.0905 -0.3213
 3096ntf    fn419431   7.048   4.719   3.928 -0.2168 -0.2498  0.4374
 3096ntf    fn419432   6.988   4.649   3.735 -0.0609 -0.0402 -0.0591
 3096ntf    fn419433   6.848   4.672   3.883 -0.1956 -0.3182  0.2433
 3096ntf    on519434   7.129   4.420   3.875  0.1173 -0.3809 -0.3086
 3096ntf    on519435   6.967   4.476   4.059 -0.0677  0.3356 -0.1544
 3096ntf    on519436   6.996   4.411   3.607  0.2887  0.0682  0.5183
 3096ntf    on519437   6.769   4.340   3.609 -0.2488 -0.0938  0.1080
 3096ntf    fn419438   6.950   4.102   3.603  0.2595 -0.0780 -0.2195
 3096ntf    fn419439   7.047   4.163   3.781  0.1230 -0.0371  0.0097
 3096ntf    fn419440   6.847   4.108   3.784 -0.3316  0.9967 -0.2954
 3097ntf    cn119441   4.602   6.130   1.234  0.5777  0.2379 -0.2662
 3097ntf    sn219442   4.635   6.255   1.105  0.1625  0.1080 -0.5001
 3097ntf    nn319443   4.669   6.380   1.194  0.0403 -0.1458 -0.0931
 3097ntf    sn219444   4.572   6.489   1.252  0.1024 -0.0870 -0.1001
 3097ntf    cn119445   4.644   6.505   1.418  0.0514  0.0969 -0.0959
 3097ntf    fn419446   4.562   6.018   1.176 -0.0873  0.3048  0.0588
 3097ntf    fn419447   4.713   6.106   1.302  0.1277 -0.4276  0.2341
 3097ntf    fn419448   4.515   6.170   1.325  0.2808 -0.2104 -0.3511
 3097ntf    on519449   4.752   6.204   1.038  0.2739 -0.2152 -0.0677
 3097ntf    on519450   4.509   6.256   1.035  0.1107  0.2289 -0.4048
 3097ntf    on519451   4.438   6.439   1.267  0.1680 -0.1894  0.1527
 3097ntf    on519452   4.583   6.615   1.183 -0.6104  0.2345  0.3586
 3097ntf    fn419453   4.776   6.504   1.406  0.0174 -0.0450 -0.4515
 3097ntf    fn419454   4.599   6.616   1.475 -0.1211  0.0410 -0.1241
 3097ntf    fn419455   4.614   6.406   1.500 -0.4779 -0.1377 -0.5676
 3098ntf    cn119456   2.164   3.605   6.844 -0.0320 -0.1998 -0.2421
 3098ntf    sn219457   2.170   3.560   7.020  0.1779 -0.0046 -0.1986
 3098ntf    nn319458   2.032   3.604   7.080  0.0456  0.1248 -0.5930
 3098ntf    sn219459   2.006   3.621   7.234  0.1687 -0.1375 -0.5427
 3098ntf    cn119460   1.982   3.799   7.260  0.4479 -0.2385  0.4352
 3098ntf    fn419461   2.156   3.736   6.824 -0.7330 -0.2063 -0.0382
 3098ntf    fn419462   2.277   3.568   6.788  0.4399  0.2059  0.4213
 3098ntf    fn419463   2.066   3.541   6.783 -0.1363 -0.3037  0.0351
 3098ntf    on519464   2.178   3.416   7.014 -0.1491 -0.0585  0.5520
 3098ntf    on519465   2.288   3.628   7.069 -0.1314  0.2278  0.2306
 3098ntf    on519466   2.119   3.596   7.319 -0.3908  0.6185  0.4430
 3098ntf    on519467   1.880   3.564   7.277  0.2172 -0.4311 -0.7811
 3098ntf    fn419468   1.871   3.837   7.200  0.7414  0.0853  0.0932
 3098ntf    fn419469   1.972   3.846   7.383  0.7935  0.1890  0.3018
 3098ntf    fn419470   2.072   3.878   7.203  0.1314 -0.1460  0.0654
 3099ntf    cn119471   3.065   2.081   4.200  0.0128 -0.1445 -0.1547
 3099ntf    sn219472   3.158   1.935   4.257  0.4721  0.2179  0.0293
 3099ntf    nn319473   3.222   1.896   4.120 -0.0993 -0.0741 -0.1596
 3099ntf    sn219474   3.341   1.797   4.093 -0.0474 -0.0774  0.0816
 3099ntf    cn119475   3.334   1.680   4.232  0.0973 -0.3321 -0.1238
 3099ntf    fn419476   3.149   2.162   4.139 -0.3485  0.4065  0.0678
 3099ntf    fn419477   2.966   2.055   4.116 -0.2494  0.8218 -0.1481
 3099ntf    fn419478   3.011   2.149   4.300 -0.2450 -0.0745 -0.3411
 3099ntf    on519479   3.249   1.986   4.357  0.0872 -0.0734  0.5344
 3099ntf    on519480   3.062   1.838   4.303  0.5780  0.0241 -0.1599
 3099ntf    on519481   3.476   1.848   4.106  0.0066 -0.3024  0.4053
 3099ntf    on519482   3.319   1.710   3.980 -0.4379  0.1342 -0.0064
 3099ntf    fn419483   3.415   1.578   4.210 -0.0555 -0.4559 -0.1087
 3099ntf    fn419484   3.380   1.738   4.343 -0.6693 -0.0506  0.0512
 3099ntf    fn419485   3.220   1.621   4.261 -0.1173  0.0141 -0.2598
 3100ntf    cn119486   0.933   1.697   4.125  0.3074  0.3101 -0.5867
 3100ntf    sn219487   1.068   1.587   4.178 -0.1368 -0.0065 -0.1027
 3100ntf    nn319488   1.015   1.528   4.313 -0.1650 -0.0596 -0.1373
 3100ntf    sn219489   1.090   1.437   4.417  0.0791 -0.1595 -0.3989
 3100ntf    cn119490   1.105   1.543   4.564 -0.0094 -0.1789 -0.3760
 3100ntf    fn419491   0.887   1.772   4.224  0.2284 -0.2164 -0.2230
 3100ntf    fn419492   0.978   1.789   4.040  0.2392  0.3488 -0.5811
 3100ntf    fn419493   0.831   1.636   4.068 -0.2089  0.3837  0.2461
 3100ntf    on519494   1.061   1.482   4.079 -0.2135 -0.5989  0.5267
 3100ntf    on519495   1.190   1.663   4.183 -0.0064 -0.2101 -0.1702
 3100ntf    on519496   1.224   1.401   4.377  0.2291  0.1531 -0.1826
 3100ntf    on519497   1.013   1.324   4.462 -0.2600  0.0820 -0.3755
 3100ntf    fn419498   1.001   1.622   4.577  0.6175  0.6577 -0.3831
 3100ntf    fn419499   1.099   1.475   4.678 -0.1167 -0.3425 -0.4782
 3100ntf    fn419500   1.215   1.617   4.558  0.0714 -0.3021 -0.4241
 3101ntf    cn119501   4.577   7.043   2.449  0.0255  0.2142 -0.0651
 3101ntf    sn219502   4.650   7.027   2.283  0.0267 -0.0947 -0.0355
 3101ntf    nn319503   4.593   6.889   2.236 -0.3034 -0.0193  0.1395
 3101ntf    sn219504   4.668   6.751   2.246  0.0387  0.1467 -0.0922
 3101ntf    cn119505   4.795   6.757   2.117  0.1210 -0.0203 -0.0197
 3101ntf    fn419506   4.539   7.165   2.483 -0.7637 -0.0629  0.0732
 3101ntf    fn419507   4.465   6.973   2.441 -0.0782  0.3624  0.0974
 3101ntf    fn419508   4.649   6.997   2.549 -0.4741 -0.2784  0.0730
 3101ntf    on519509   4.593   7.137   2.209  0.0541  0.0392  0.1405
 3101ntf    on519510   4.790   7.035   2.317 -0.1319  0.2188  0.5760
 3101ntf    on519511   4.590   6.634   2.216  0.3074  0.2692 -1.3091
 3101ntf    on519512   4.737   6.734   2.372 -0.3213  0.2283  0.1209
 3101ntf    fn419513   4.732   6.766   2.001  0.1310 -0.6069 -0.0742
 3101ntf    fn419514   4.903   6.834   2.124 -0.0579  0.2312 -0.0041
 3101ntf    fn419515   4.850   6.637   2.109 -0.3027 -0.2084 -0.1351
 3102ntf    cn119516   1.195   3.371   5.125  0.0325 -0.4398  0.1550
 3102ntf    sn219517   1.375   3.384   5.150  0.0373  0.1736 -0.1879
 3102ntf    nn319518   1.414   3.251   5.078  0.1219  0.0101  0.1596
 3102ntf    sn219519   1.444   3.236   4.925  0.4402 -0.0480  0.2268
 3102ntf    cn119520   1.625   3.253   4.929  0.3971  0.4579  0.1354
 3102ntf    fn419521   1.136   3.483   5.164 -0.1877 -0.5671  0.1935
 3102ntf    fn419522   1.164   3.354   4.998  0.1526  0.3827  0.0095
 3102ntf    fn419523   1.136   3.270   5.188 -0.2127 -0.4316 -0.0617
 3102ntf    on519524   1.411   3.512   5.093 -0.9701  0.2472 -0.6755
 3102ntf    on519525   1.388   3.372   5.293  0.3390  0.1962 -0.2142
 3102ntf    on519526   1.380   3.333   4.839  0.4485  0.2081  0.5081
 3102ntf    on519527   1.433   3.095   4.898 -0.1541  0.0895 -0.2658
 3102ntf    fn419528   1.680   3.242   4.809  0.1398 -0.1364  0.0678
 3102ntf    fn419529   1.663   3.372   4.971  0.9805  0.3660 -0.1262
 3102ntf    fn419530   1.691   3.174   5.012  0.2957  0.1961 -0.0328
 3103ntf    cn119531   5.691   4.138   2.028 -0.4069 -0.0553 -0.4788
 3103ntf    sn219532   5.665   3.998   1.915  0.3068 -0.6911  0.1353
 3103ntf    nn319533   5.540   3.928   1.980 -0.0801  0.2524  0.4148
 3103ntf    sn219534   5.544   3.808   2.081  0.1694  0.0410  0.1575
 3103ntf    cn119535   5.531   3.657   1.981 -0.1883  0.3810 -0.3186
 3103ntf    fn419536   5.819   4.171   2.035 -0.4770  0.1149  0.0642
 3103ntf    fn419537   5.628   4.249   1.996  0.1562  0.5454  0.4639
 3103ntf    fn419538   5.642   4.107   2.147 -0.8134 -0.1660 -0.6731
 3103ntf    on519539   5.627   4.059   1.790  0.2213 -0.4674  0.2723
 3103ntf    on519540   5.786   3.920   1.903  0.3951 -0.6021  0.4370
 3103ntf    on519541   5.422   3.799   2.157 -0.0473 -0.7820 -0.2806
 3103ntf    on519542   5.664   3.805   2.160 -0.1392  0.0487  0.6280
 3103ntf    fn419543   5.424   3.643   1.904 -0.5036  0.1148  0.1634
 3103ntf    fn419544   5.640   3.632   1.911  0.1614  0.4705  0.1863
 3103ntf    fn419545   5.525   3.562   2.074  0.1894  0.1350 -0.5410
 3104ntf    cn119546   2.917   4.449   1.500  0.0622 -0.4333  0.3047
 3104ntf    sn219547   2.918   4.401   1.325 -0.0768  0.0559  0.1682
 3104ntf    nn319548   3.002   4.268   1.314 -0.1152  0.0731 -0.3657
 3104ntf    sn219549   3.139   4.239   1.243  0.0894 -0.0294  0.0675
 3104ntf    cn119550   3.120   4.061   1.214 -0.5468  0.0364  0.0574
 3104ntf    fn419551   2.832   4.547   1.526  0.4519 -0.0759  0.2440
 3104ntf    fn419552   2.889   4.355   1.589 -0.7338 -0.2130  0.2917
 3104ntf    fn419553   3.032   4.508   1.530 -0.0356  0.0691 -0.3009
 3104ntf    on519554   2.780   4.380   1.291 -0.0504  0.4733 -0.2097
 3104ntf    on519555   2.979   4.514   1.258  0.6288 -0.5445 -0.2301
 3104ntf    on519556   3.251   4.240   1.333  0.1997 -0.5289 -0.0641
 3104ntf    on519557   3.162   4.300   1.114 -0.0924 -0.0109  0.0424
 3104ntf    fn419558   3.237   4.002   1.195 -0.4798  0.2766 -0.2870
 3104ntf    fn419559   3.061   4.004   1.317 -0.3979 -0.0599  0.0897
 3104ntf    fn419560   3.043   4.028   1.111  0.2574 -0.0586 -0.5248
 3105ntf    cn119561   3.538   0.141   2.463  0.0067  0.6976 -0.1390
 3105ntf    sn219562   3.645   0.141   2.316  0.1925  0.3420 -0.0069
 3105ntf    nn319563   3.546   0.076   2.212  0.1920  0.6682 -0.2119
 3105ntf    sn219564   3.470   0.139   2.090 -0.4804  0.3059  0.0145
 3105ntf    cn119565   3.586   0.113   1.953 -0.4553  0.1101  0.0724
 3105ntf    fn419566   3.417   0.181   2.429 -0.3845 -0.1843  0.1657
 3105ntf    fn419567   3.521   0.021   2.517  0.0541  0.4970 -0.5609
 3105ntf    fn419568   3.582   0.212   2.565 -0.0136  0.0869  0.3026
 3105ntf    on519569   3.689   0.278   2.306 -0.1411  0.4738  0.2900
 3105ntf    on519570   3.738   0.035   2.346  0.1612  0.2034 -0.3956
 3105ntf    on519571   3.434   0.278   2.100  0.3533  0.5087  0.2923
 3105ntf    on519572   3.364   0.048   2.054 -0.2939 -0.0321  0.3191
 3105ntf    fn419573   3.702   0.173   1.972  0.1952 -0.9998 -0.3290
 3105ntf    fn419574   3.612  -0.015   1.936 -0.0705  0.1102  0.6489
 3105ntf    fn419575   3.545   0.150   1.832 -0.1084  0.1264 -0.0422
 3106ntf    cn119576   3.108   5.036   5.532  0.3240 -0.0800 -0.2191
 3106ntf    sn219577   3.056   5.152   5.402 -0.1493  0.0495  0.0807
 3106ntf    nn319578   3.082   5.073   5.269  0.2396 -0.2364  0.3207
 3106ntf    sn219579   2.983   5.015   5.161  0.2151  0.1396  0.1395
 3106ntf    cn119580   3.095   4.911   5.063 -0.1844  0.4246 -0.6251
 3106ntf    fn419581   3.120   5.090   5.652  0.0955 -0.7366  0.1056
 3106ntf    fn419582   3.020   4.939   5.554  0.4568 -0.1253  0.1192
 3106ntf    fn419583   3.220   4.974   5.500  0.3729 -0.1442  0.0670
 3106ntf    on519584   2.918   5.186   5.427 -0.2417 -0.1885 -0.1062
 3106ntf    on519585   3.147   5.262   5.421 -0.0645  0.1632 -0.9225
 3106ntf    on519586   2.940   5.110   5.062 -0.0601 -0.2679 -0.1328
 3106ntf    on519587   2.891   4.921   5.219 -0.0524 -0.4309 -1.1822
 3106ntf    fn419588   3.020   4.818   5.006 -0.2111 -0.0543  0.1846
 3106ntf    fn419589   3.173   4.970   4.974  0.5548 -0.0521 -0.3019
 3106ntf    fn419590   3.174   4.850   5.150 -0.6805 -0.0113 -0.4768
 3107ntf    cn119591   4.027   6.354   4.095 -0.3510  0.0929 -0.0809
 3107ntf    sn219592   4.168   6.401   4.199 -0.1390 -0.0058 -0.3204
 3107ntf    nn319593   4.094   6.382   4.337  0.2339 -0.2269 -0.1496
 3107ntf    sn219594   4.164   6.421   4.471  0.0564 -0.0689 -0.1023
 3107ntf    cn119595   4.060   6.564   4.511  0.3206  0.1581 -0.2228
 3107ntf    fn419596   3.930   6.444   4.107 -0.3689  0.1609 -0.6632
 3107ntf    fn419597   4.053   6.353   3.965  0.0615  0.3899 -0.0016
 3107ntf    fn419598   3.971   6.236   4.115 -0.1029  0.0396  0.2843
 3107ntf    on519599   4.272   6.310   4.158  0.7325  0.6155  0.4863
 3107ntf    on519600   4.197   6.537   4.164  1.2856  0.0394  0.9230
 3107ntf    on519601   4.297   6.477   4.460  0.0621 -0.1167 -0.2872
 3107ntf    on519602   4.149   6.330   4.581 -0.1781 -0.1303 -0.1856
 3107ntf    fn419603   4.062   6.668   4.429 -0.5758  0.2048 -0.1958
 3107ntf    fn419604   3.935   6.529   4.537  0.3823  0.0075 -0.1342
 3107ntf    fn419605   4.108   6.613   4.624  0.1871  0.5072 -0.3146
 3108ntf    cn119606   4.052   5.681   2.215 -0.0050 -0.0525 -0.1547
 3108ntf    sn219607   3.907   5.696   2.323  0.2807  0.0149  0.2229
 3108ntf    nn319608   3.918   5.849   2.356  0.2433  0.0731 -0.0283
 3108ntf    sn219609   4.023   5.907   2.457 -0.0034  0.2242  0.1422
 3108ntf    cn119610   3.924   5.890   2.609 -0.0956  0.3382  0.0953
 3108ntf    fn419611   4.048   5.570   2.141 -0.2168 -0.2246  0.1139
 3108ntf    fn419612   4.057   5.779   2.126 -0.0563 -0.2474 -0.3739
 3108ntf    fn419613   4.164   5.672   2.285 -0.1373 -0.5469  0.0010
 3108ntf    on519614   3.789   5.664   2.245  0.3446 -0.2840  0.2458
 3108ntf    on519615   3.937   5.610   2.434 -0.7089 -0.4777  0.1273
 3108ntf    on519616   4.046   6.049   2.446  1.1446  0.0919  0.7273
 3108ntf    on519617   4.143   5.833   2.487  0.3147  0.7116  0.0782
 3108ntf    fn419618   3.876   5.768   2.619  0.0034  0.2588 -0.3739
 3108ntf    fn419619   3.982   5.926   2.723 -0.2774  0.4215  0.1615
 3108ntf    fn419620   3.815   5.964   2.604 -0.5943 -0.3951  0.0575
 3109ntf    cn119621   0.203   2.575   1.749 -0.1138  0.1622  0.6240
 3109ntf    sn219622   0.198   2.737   1.831  0.1961  0.5394 -0.0945
 3109ntf    nn319623   0.058   2.786   1.780  0.3123  0.3616 -0.5886
 3109ntf    sn219624  -0.048   2.877   1.850  0.3243  0.0192 -0.1250
 3109ntf    cn119625  -0.031   3.024   1.746 -0.4161  0.2000 -0.0007
 3109ntf    fn419626   0.160   2.588   1.625 -0.3090  0.4294  0.7206
 3109ntf    fn419627   0.319   2.510   1.746 -0.0556  0.2840 -0.2925
 3109ntf    fn419628   0.118   2.492   1.807 -0.7918  0.6271  0.3091
 3109ntf    on519629   0.215   2.708   1.971 -0.1041 -0.3125 -0.2281
 3109ntf    on519630   0.297   2.814   1.759  0.2323  0.4757 -0.1128
 3109ntf    on519631  -0.010   2.921   1.982  0.0159 -0.3126  0.0772
 3109ntf    on519632  -0.184   2.827   1.851  0.4124 -0.2185  0.4037
 3109ntf    fn419633  -0.089   3.025   1.627 -0.2541  0.4607 -0.0804
 3109ntf    fn419634  -0.074   3.133   1.807  0.0166  0.0796  0.5291
 3109ntf    fn419635   0.097   3.054   1.726 -0.2006 -0.5492  0.2235
 3110ntf    cn119636   5.541   0.444   4.743  0.0904 -0.4024  0.3969
 3110ntf    sn219637   5.359   0.452   4.743  0.1137  0.1928  0.1276
 3110ntf    nn319638   5.331   0.568   4.845  0.3285  0.3951 -0.0420
 3110ntf    sn219639   5.315   0.541   4.998  0.4197  0.4560 -0.0214
 3110ntf    cn119640   5.395   0.696   5.050  0.4510  0.4419 -0.0287
 3110ntf    fn419641   5.599   0.340   4.687  0.2935  0.0842 -0.3210
 3110ntf    fn419642   5.587   0.548   4.674 -0.7061  0.1659  0.7020
 3110ntf    fn419643   5.595   0.443   4.864 -0.5461  0.2856  0.6981
 3110ntf    on519644   5.322   0.475   4.605 -0.7389  0.2569  0.3627
 3110ntf    on519645   5.321   0.320   4.787  0.6193  0.1291  0.3902
 3110ntf    on519646   5.399   0.439   5.057 -0.0733  0.2452  0.3211
 3110ntf    on519647   5.180   0.557   5.046  0.6795  0.6704  0.6620
 3110ntf    fn419648   5.347   0.810   5.004 -0.2036  0.4681  0.6888
 3110ntf    fn419649   5.390   0.700   5.182  0.3594 -0.1452 -0.0099
 3110ntf    fn419650   5.523   0.705   5.016  0.3158  0.5532 -0.5026
 3111ntf    cn119651   5.680   5.879   0.040 -0.2217 -0.0730  0.3365
 3111ntf    sn219652   5.611   5.822   0.198 -0.0559 -0.2056  0.3621
 3111ntf    nn319653   5.493   5.732   0.147  0.0002  0.1258 -0.3720
 3111ntf    sn219654   5.341   5.769   0.138 -0.0361  0.0269 -0.1761
 3111ntf    cn119655   5.280   5.705   0.297  0.3766 -0.0546 -0.0507
 3111ntf    fn419656   5.728   5.779  -0.032  0.4829  0.3227  0.2458
 3111ntf    fn419657   5.586   5.942  -0.029 -0.0357 -0.0496  0.1032
 3111ntf    fn419658   5.778   5.967   0.052 -0.1474 -0.1320  0.1809
 3111ntf    on519659   5.721   5.746   0.250 -0.2016 -0.2457  0.6122
 3111ntf    on519660   5.574   5.944   0.265  0.1537  0.0722 -0.0215
 3111ntf    on519661   5.272   5.688   0.040  0.4878 -0.0787 -0.4624
 3111ntf    on519662   5.300   5.907   0.136  0.1039  0.0666 -0.2799
 3111ntf    fn419663   5.246   5.578   0.295  0.1184  0.0177 -0.4530
 3111ntf    fn419664   5.370   5.711   0.394 -0.0135  0.3294  0.2936
 3111ntf    fn419665   5.177   5.777   0.339  0.1507 -0.3385 -0.1238
 3112ntf    cn119666   1.644   6.262   6.566 -0.5539 -0.2873  0.4296
 3112ntf    sn219667   1.748   6.124   6.509 -0.1618  0.0830  0.2412
 3112ntf    nn319668   1.819   6.083   6.643 -0.5510 -0.5578  0.2569
 3112ntf    sn219669   1.904   5.954   6.672  0.2676 -0.1270 -0.1911
 3112ntf    cn119670   1.774   5.864   6.762  0.3722  0.0112  0.1030
 3112ntf    fn419671   1.545   6.286   6.482  0.0690 -0.1343 -0.2732
 3112ntf    fn419672   1.592   6.240   6.686 -0.7636  0.2608  0.4379
 3112ntf    fn419673   1.712   6.375   6.575 -0.2751 -0.4172  0.0015
 3112ntf    on519674   1.650   6.036   6.450 -0.0932  0.4130 -0.3649
 3112ntf    on519675   1.845   6.191   6.426  0.3564 -0.8718  0.0537
 3112ntf    on519676   2.002   5.975   6.776 -0.2380 -0.1386  0.2908
 3112ntf    on519677   1.926   5.860   6.565 -0.9120 -0.3912 -0.2137
 3112ntf    fn419678   1.748   5.914   6.881  0.3698 -0.6602  0.3924
 3112ntf    fn419679   1.657   5.863   6.701  0.3352  0.4185  0.1671
 3112ntf    fn419680   1.812   5.737   6.773  0.0661 -0.1693 -0.8355
 3113ntf    cn119681   4.555   0.020   0.044 -0.3863 -0.6192  0.3330
 3113ntf    sn219682   4.479   0.048   0.207 -0.3790 -0.2699  0.2769
 3113ntf    nn319683   4.605   0.085   0.292  0.2022  0.1493 -0.7526
 3113ntf    sn219684   4.637   0.231   0.340 -0.1308  0.0913 -0.3458
 3113ntf    cn119685   4.788   0.190   0.433 -0.1198 -0.1852 -0.4874
 3113ntf    fn419686   4.619  -0.096   0.052 -0.2478 -0.5255  0.5885
 3113ntf    fn419687   4.471   0.026  -0.057  0.1327  0.4615 -0.0402
 3113ntf    fn419688   4.648   0.111   0.021 -0.2240 -0.8224  0.1803
 3113ntf    on519689   4.381   0.153   0.190 -0.1348 -0.1166 -0.1985
 3113ntf    on519690   4.434  -0.084   0.244 -0.0288 -0.4399  0.0984
 3113ntf    on519691   4.553   0.287   0.443  0.1148  0.1698 -0.1855
 3113ntf    on519692   4.685   0.316   0.234  0.7156  0.8332  0.6039
 3113ntf    fn419693   4.759   0.134   0.549  0.6834  0.1249 -0.1323
 3113ntf    fn419694   4.862   0.097   0.373  0.3210 -0.4283  0.4069
 3113ntf    fn419695   4.872   0.289   0.460 -0.3279 -0.1955  0.2015
 3114ntf    cn119696   0.371   3.285   0.576  0.1548  0.1931 -0.0280
 3114ntf    sn219697   0.356   3.200   0.737 -0.1302  0.0481 -0.1299
 3114ntf    nn319698   0.388   3.313   0.841 -0.8358  0.2549 -0.1332
 3114ntf    sn219699   0.418   3.286   0.993 -0.2314  0.1883 -0.2604
 3114ntf    cn119700   0.599   3.276   0.983 -0.2395 -0.2528 -0.0020
 3114ntf    fn419701   0.338   3.210   0.472 -0.5696  0.7282 -0.1894
 3114ntf    fn419702   0.292   3.390   0.563  0.0857  0.0489 -0.8251
 3114ntf    fn419703   0.494   3.326   0.552  0.0248  0.2268 -0.6396
 3114ntf    on519704   0.219   3.160   0.717 -0.1917 -0.0082  0.3956
 3114ntf    on519705   0.454   3.094   0.732 -0.4646 -0.2718  0.0907
 3114ntf    on519706   0.386   3.160   1.056  0.1622  0.2946  0.1593
 3114ntf    on519707   0.388   3.399   1.078 -0.3215  0.2714 -0.4026
 3114ntf    fn419708   0.655   3.385   0.932 -0.1514 -0.1940  0.2170
 3114ntf    fn419709   0.653   3.265   1.104 -0.4566 -0.2804  0.0927
 3114ntf    fn419710   0.634   3.169   0.915  0.0281 -0.0559 -0.1777
 3115ntf    cn119711   7.016   4.504   3.211  0.3216 -0.0831 -0.0614
 3115ntf    sn219712   7.107   4.369   3.131  0.2453 -0.2096  0.0642
 3115ntf    nn319713   7.139   4.443   2.997  0.5060 -0.1117  0.1783
 3115ntf    sn219714   7.243   4.397   2.888  0.1512 -0.3579 -0.0631
 3115ntf    cn119715   7.287   4.562   2.824  0.2009 -0.3933 -0.1202
 3115ntf    fn419716   7.007   4.511   3.343 -0.0801  0.1687 -0.1016
 3115ntf    fn419717   7.071   4.622   3.190 -0.4810  0.3363  0.1673
 3115ntf    fn419718   6.895   4.521   3.162  0.2319  0.1204  0.2254
 3115ntf    on519719   7.227   4.366   3.212  0.1794 -0.6302  0.1508
 3115ntf    on519720   7.021   4.254   3.120  0.9735 -0.7363 -0.2737
 3115ntf    on519721   7.186   4.320   2.781  0.0378  0.0425 -0.2945
 3115ntf    on519722   7.368   4.350   2.942  0.1040  0.1526  0.5092
 3115ntf    fn419723   7.362   4.558   2.715 -0.5117  0.1831 -0.6439
 3115ntf    fn419724   7.174   4.618   2.783  0.2810  0.0349  0.2389
 3115ntf    fn419725   7.335   4.638   2.921 -0.1813 -0.6478  0.2723
 3116ntf    cn119726   4.530   2.052   4.122 -0.0759 -0.0871  0.0204
 3116ntf    sn219727   4.660   2.162   4.058 -0.4747  0.3885  0.0156
 3116ntf    nn319728   4.777   2.164   4.163 -0.0908 -0.4666 -0.3857
 3116ntf    sn219729   4.903   2.070   4.165 -0.0311 -0.3777  0.0189
 3116ntf    cn119730   5.007   2.149   4.038  0.2834 -0.0116  0.5016
 3116ntf    fn419731   4.484   2.071   4.245 -0.0508 -0.0525  0.0250
 3116ntf    fn419732   4.421   2.055   4.046  0.0490 -0.2841 -0.1667
 3116ntf    fn419733   4.581   1.931   4.137 -0.2474 -0.1152  0.3902
 3116ntf    on519734   4.707   2.099   3.937  0.8215  0.0049  0.6966
 3116ntf    on519735   4.590   2.288   4.057 -0.3952  0.4348  0.3201
 3116ntf    on519736   4.894   1.934   4.118 -0.1423 -0.1774 -0.5536
 3116ntf    on519737   4.989   2.095   4.278  0.3314 -0.4887 -0.2307
 3116ntf    fn419738   4.940   2.219   3.948  0.8311 -0.0095  0.0925
 3116ntf    fn419739   5.077   2.242   4.101  0.7140  0.2268 -0.3196
 3116ntf    fn419740   5.092   2.070   3.976 -0.1254  0.4161 -0.6256
 3117ntf    cn119741   0.041   3.041   3.399  0.0529  0.2292  0.1990
 3117ntf    sn219742  -0.060   2.899   3.349  0.7367 -0.1624 -0.0886
 3117ntf    nn319743   0.037   2.780   3.381  0.3696 -0.2549  0.6997
 3117ntf    sn219744   0.027   2.635   3.321  0.1314  0.0988 -0.1257
 3117ntf    cn119745   0.151   2.630   3.187  0.0655 -0.2722 -0.1741
 3117ntf    fn419746  -0.020   3.156   3.373  0.5749  0.2282 -1.1136
 3117ntf    fn419747   0.070   3.045   3.528  0.3983 -0.9869  0.1705
 3117ntf    fn419748   0.160   3.049   3.341 -0.0807  0.4580 -0.0449
 3117ntf    on519749  -0.174   2.906   3.438  0.2142 -0.1127 -0.7519
 3117ntf    on519750  -0.080   2.916   3.207  0.0983  0.3604  0.0574
 3117ntf    on519751  -0.097   2.609   3.253  0.0835  0.3022 -0.1177
 3117ntf    on519752   0.077   2.539   3.416  0.4039 -0.0693 -0.4367
 3117ntf    fn419753   0.139   2.733   3.105  0.3612 -0.4515 -0.4424
 3117ntf    fn419754   0.277   2.639   3.225 -0.1406  0.3569  0.3827
 3117ntf    fn419755   0.136   2.519   3.117  0.6217 -0.5841  0.1922
 3118ntf    cn119756   1.318   0.975   0.204  0.0786  0.1455  0.6272
 3118ntf    sn219757   1.150   0.982   0.134  0.4367 -0.0830 -0.2633
 3118ntf    nn319758   1.091   0.874   0.230  0.2795  0.2515  0.0188
 3118ntf    sn219759   0.975   0.775   0.191  0.2773  0.1955  0.1635
 3118ntf    cn119760   1.066   0.618   0.194 -0.1816 -0.0770 -0.1705
 3118ntf    fn419761   1.381   0.861   0.184 -0.7763 -0.2353  0.0441
 3118ntf    fn419762   1.396   1.070   0.155 -0.1575  0.0212  0.0015
 3118ntf    fn419763   1.315   1.004   0.333 -0.5134  0.5044  0.5378
 3118ntf    on519764   1.113   1.118   0.167 -0.0387 -0.1671 -0.4428
 3118ntf    on519765   1.167   0.942  -0.004 -0.7462  0.0151 -0.4522
 3118ntf    on519766   0.918   0.779   0.058  0.8588 -0.5967 -0.1113
 3118ntf    on519767   0.885   0.755   0.301  0.2566 -0.5027  0.0206
 3118ntf    fn419768   1.026   0.526   0.107 -0.4893 -0.0142 -0.0989
 3118ntf    fn419769   1.194   0.641   0.172 -0.2559  0.3177 -0.1872
 3118ntf    fn419770   1.059   0.568   0.316  0.8211 -0.1590 -0.1440
 3119ntf    cn119771   3.388   3.751   6.677 -0.4318  0.1198 -0.1801
 3119ntf    sn219772   3.381   3.656   6.522  0.6952 -0.5368  0.1615
 3119ntf    nn319773   3.226   3.643   6.505  0.6868 -0.6920  0.3580
 3119ntf    sn219774   3.138   3.531   6.441  0.0773 -0.1468  0.2292
 3119ntf    cn119775   3.115   3.429   6.590  0.3736  0.2545  0.5500
 3119ntf    fn419776   3.303   3.851   6.689 -0.2728  0.1741  0.5198
 3119ntf    fn419777   3.360   3.676   6.783 -0.5138 -0.2001 -0.4236
 3119ntf    fn419778   3.506   3.807   6.700 -0.3106 -0.1563 -0.1209
 3119ntf    on519779   3.428   3.751   6.423  0.2611 -0.8158 -0.3155
 3119ntf    on519780   3.461   3.538   6.542  0.7459 -0.6938 -0.8773
 3119ntf    on519781   3.205   3.445   6.347 -0.7414 -0.6956  0.1356
 3119ntf    on519782   3.010   3.586   6.401  0.0218 -0.3464  0.1259
 3119ntf    fn419783   3.228   3.389   6.645  0.2505 -0.4413  0.3086
 3119ntf    fn419784   3.050   3.499   6.682 -0.1409 -0.0409  0.4136
 3119ntf    fn419785   3.042   3.321   6.567  0.2460  0.4915 -0.1858
 3120ntf    cn119786   4.501   1.437   4.850 -0.0421 -0.0183 -0.4122
 3120ntf    sn219787   4.456   1.300   4.962  0.0520  0.4928  0.2557
 3120ntf    nn319788   4.519   1.186   4.874  0.5244 -0.1786  1.4534
 3120ntf    sn219789   4.490   1.032   4.886 -0.0253 -0.2000 -0.0746
 3120ntf    cn119790   4.650   0.948   4.894 -0.0939 -0.3239  0.0067
 3120ntf    fn419791   4.468   1.416   4.724 -0.1096  0.3712 -0.4598
 3120ntf    fn419792   4.445   1.550   4.888  0.0960 -0.2802  0.5935
 3120ntf    fn419793   4.631   1.460   4.858  0.1167 -0.9455 -0.1257
 3120ntf    on519794   4.519   1.324   5.090 -0.1876 -0.3147  0.5263
 3120ntf    on519795   4.313   1.296   4.948  0.1768 -0.2735 -0.9718
 3120ntf    on519796   4.425   0.977   4.769  0.1701  0.0272 -0.2909
 3120ntf    on519797   4.437   0.992   5.014  0.1599 -0.3241 -0.0363
 3120ntf    fn419798   4.639   0.824   4.939 -0.3934 -0.4540 -0.4206
 3120ntf    fn419799   4.693   0.940   4.769 -0.3011 -0.2138 -0.0723
 3120ntf    fn419800   4.737   1.015   4.969 -0.3609 -0.4568  0.4413
 3121ntf    cn119801   5.802   6.871   6.666  0.0121  0.0755  0.1479
 3121ntf    sn219802   5.640   6.946   6.627  0.1112  0.2511  0.0724
 3121ntf    nn319803   5.617   6.883   6.485  0.4338 -0.2604  0.2436
 3121ntf    sn219804   5.545   6.747   6.451  0.2712 -0.0929 -0.0835
 3121ntf    cn119805   5.383   6.807   6.395  0.1036 -0.0353  0.4597
 3121ntf    fn419806   5.856   6.947   6.760 -0.3248 -0.1250  0.5086
 3121ntf    fn419807   5.799   6.745   6.705 -0.4178  0.0409  0.0104
 3121ntf    fn419808   5.884   6.873   6.562 -0.5647 -0.2278 -0.3206
 3121ntf    on519809   5.547   6.906   6.730  0.8289 -0.4033  0.4845
 3121ntf    on519810   5.671   7.086   6.618 -0.7626  0.4792  0.5453
 3121ntf    on519811   5.504   6.663   6.560 -0.1675  0.1198 -0.0818
 3121ntf    on519812   5.602   6.681   6.336 -0.4598  0.0081 -0.5063
 3121ntf    fn419813   5.317   6.862   6.496 -0.4149  0.7141 -0.2771
 3121ntf    fn419814   5.404   6.903   6.307 -0.4753 -0.8096 -0.5419
 3121ntf    fn419815   5.309   6.711   6.343  0.1070  0.2462 -0.0741
 3122ntf    cn119816   6.376   0.136   1.619 -0.2779  0.2626 -0.1331
 3122ntf    sn219817   6.299   0.019   1.734 -0.2058  0.4546  0.1111
 3122ntf    nn319818   6.415  -0.080   1.768 -0.0622  0.6235  0.1178
 3122ntf    sn219819   6.412  -0.201   1.869 -0.0490  0.4234 -0.1201
 3122ntf    cn119820   6.430  -0.343   1.757  0.0107  0.1070  0.2893
 3122ntf    fn419821   6.284   0.206   1.553 -0.0919  0.3876 -0.2629
 3122ntf    fn419822   6.457   0.222   1.679 -0.3879 -0.2011  0.6862
 3122ntf    fn419823   6.442   0.082   1.518 -0.1093  0.3254 -0.0566
 3122ntf    on519824   6.245   0.094   1.845 -1.1747 -0.6038  0.3784
 3122ntf    on519825   6.201  -0.045   1.649  0.0406  0.4864 -0.1976
 3122ntf    on519826   6.278  -0.216   1.920 -0.0288 -0.0868 -0.2184
 3122ntf    on519827   6.521  -0.211   1.963 -0.1736 -0.1925 -0.0415
 3122ntf    fn419828   6.339  -0.351   1.662  0.4750  0.3222 -0.1788
 3122ntf    fn419829   6.544  -0.332   1.690  0.4947 -0.8783  0.9155
 3122ntf    fn419830   6.432  -0.459   1.822  0.1717  0.0027  0.0960
 3123ntf    cn119831   0.718   5.401   0.718  0.1426 -0.3367  0.1205
 3123ntf    sn219832   0.813   5.331   0.857  0.0991  0.1674  0.4060
 3123ntf    nn319833   0.767   5.181   0.856 -0.6938  0.4045  0.2808
 3123ntf    sn219834   0.782   5.084   0.979 -0.0112  0.2077  0.0460
 3123ntf    cn119835   0.640   5.123   1.086 -0.0236  0.3817 -0.0326
 3123ntf    fn419836   0.723   5.311   0.621  0.3544 -0.4462  0.2304
 3123ntf    fn419837   0.594   5.424   0.757  0.2676  0.9756 -0.2033
 3123ntf    fn419838   0.760   5.514   0.664 -0.1504 -0.1777  0.2242
 3123ntf    on519839   0.947   5.353   0.808  0.0428  0.0044  0.1756
 3123ntf    on519840   0.766   5.412   0.966  0.2156  0.1208  0.4899
 3123ntf    on519841   0.894   5.109   1.066  0.5157  0.0494 -0.5788
 3123ntf    on519842   0.758   4.946   0.945 -0.3263  0.3411 -0.2750
 3123ntf    fn419843   0.524   5.129   1.024  0.1511  0.5607 -0.3482
 3123ntf    fn419844   0.621   5.041   1.188  0.6401  0.3984  0.1151
 3123ntf    fn419845   0.659   5.241   1.144  0.1226 -0.1501  1.0323
 3124ntf    cn119846   1.863   0.932   0.198 -0.1168 -0.0530 -0.0632
 3124ntf    sn219847   1.961   0.812   0.293  0.2043  0.3429  0.1067
 3124ntf    nn319848   1.865   0.690   0.275  0.5523 -0.0097  0.6263
 3124ntf    sn219849   1.783   0.607   0.381 -0.0692 -0.2680 -0.0544
 3124ntf    cn119850   1.634   0.708   0.411  0.1981  0.0786  0.1159
 3124ntf    fn419851   1.732   0.916   0.209 -0.1354  0.3247  0.3118
 3124ntf    fn419852   1.899   1.057   0.223  0.5817 -0.3144  0.2627
 3124ntf    fn419853   1.886   0.907   0.070  0.3568 -0.0736  0.0231
 3124ntf    on519854   2.088   0.807   0.223  0.8514  0.7246  1.2218
 3124ntf    on519855   1.952   0.868   0.426 -0.3182 -0.2620  0.3278
 3124ntf    on519856   1.852   0.593   0.506  0.0627 -0.5184 -0.1540
 3124ntf    on519857   1.737   0.483   0.324 -0.5907 -0.1113  0.0114
 3124ntf    fn419858   1.574   0.655   0.516 -0.0333 -0.6083 -0.3516
 3124ntf    fn419859   1.646   0.838   0.433 -0.0400  0.1468 -0.1530
 3124ntf    fn419860   1.552   0.702   0.308  0.1844 -0.0455  0.1334
 3125ntf    cn119861   1.996   1.527   5.521  0.1414 -0.2850  0.4206
 3125ntf    sn219862   1.914   1.593   5.669  0.0057 -0.2246  0.3187
 3125ntf    nn319863   1.765   1.581   5.620  0.2032 -0.5195 -0.2226
 3125ntf    sn219864   1.654   1.483   5.672  0.0730 -0.2146  0.0780
 3125ntf    cn119865   1.533   1.508   5.540  0.1695 -0.2302 -0.0135
 3125ntf    fn419866   2.128   1.525   5.527  0.1367  0.3266  0.7551
 3125ntf    fn419867   1.953   1.404   5.498 -0.7046  0.0921 -0.0897
 3125ntf    fn419868   1.950   1.592   5.415  0.8132 -0.0216  0.2885
 3125ntf    on519869   1.954   1.502   5.773 -0.0580 -0.1412  0.4161
 3125ntf    on519870   1.969   1.726   5.683  0.1578 -0.2589  0.0689
 3125ntf    on519871   1.584   1.523   5.792  0.4669  0.4439  0.0977
 3125ntf    on519872   1.682   1.343   5.654  0.9401 -0.0381 -0.0089
 3125ntf    fn419873   1.478   1.393   5.504  0.5469 -0.4210  0.0225
 3125ntf    fn419874   1.438   1.592   5.579  0.0064 -0.2885 -0.2806
 3125ntf    fn419875   1.594   1.557   5.433  0.5242 -0.4444  0.0907
 3126ntf    cn119876   6.083   2.745   5.357  0.2274  0.5864  0.1753
 3126ntf    sn219877   5.970   2.607   5.393  0.1802  0.5579 -0.0807
 3126ntf    nn319878   6.072   2.487   5.386 -0.1893  0.2223  0.2905
 3126ntf    sn219879   6.151   2.407   5.495  0.0561  0.2586  0.1385
 3126ntf    cn119880   6.287   2.338   5.395  0.0174  0.3138  0.0476
 3126ntf    fn419881   6.027   2.861   5.387  0.1720  0.5197  0.3255
 3126ntf    fn419882   6.201   2.743   5.417  0.2089  0.0016  0.1960
 3126ntf    fn419883   6.115   2.737   5.228  0.5039 -0.0243  0.2808
 3126ntf    on519884   5.918   2.632   5.525  0.3593  0.4323  0.0146
 3126ntf    on519885   5.884   2.612   5.277  0.6077  0.0911 -0.4245
 3126ntf    on519886   6.088   2.288   5.546  0.5455  0.1054  0.3955
 3126ntf    on519887   6.223   2.487   5.590 -0.0016  0.3740  0.0847
 3126ntf    fn419888   6.344   2.234   5.454  0.0209  0.1008 -0.3233
 3126ntf    fn419889   6.244   2.288   5.280  0.5405 -0.7312  0.2926
 3126ntf    fn419890   6.377   2.428   5.359  0.0660  0.1818 -0.1641
 3127ntf    cn119891   3.863   0.157   2.688 -0.1112 -0.1674 -0.0569
 3127ntf    sn219892   3.945   0.174   2.849  0.0364 -0.1881 -0.1307
 3127ntf    nn319893   4.095   0.196   2.807 -0.0457 -0.0701 -0.3639
 3127ntf    sn219894   4.182   0.323   2.776  0.0452 -0.0057  0.1471
 3127ntf    cn119895   4.315   0.302   2.898  0.1934  0.1157  0.0076
 3127ntf    fn419896   3.935   0.083   2.606  0.0222  0.1569 -0.2334
 3127ntf    fn419897   3.747   0.094   2.698 -0.2622 -0.0252 -0.8706
 3127ntf    fn419898   3.837   0.270   2.624  0.3041 -0.0723 -0.0600
 3127ntf    on519899   3.869   0.285   2.902  0.3570  0.0824 -0.2274
 3127ntf    on519900   3.926   0.054   2.926  0.1131  0.3761  0.7822
 3127ntf    on519901   4.130   0.454   2.807 -0.7269 -0.2976  0.0910
 3127ntf    on519902   4.257   0.309   2.653  0.1898 -0.3265  0.2712
 3127ntf    fn419903   4.268   0.302   3.022 -0.0315 -0.5796 -0.0733
 3127ntf    fn419904   4.385   0.192   2.873 -0.2702 -0.1292 -0.2287
 3127ntf    fn419905   4.403   0.400   2.892  0.4843 -0.1723 -0.4859
 3128ntf    cn119906   2.561   5.292   5.884 -0.0801 -0.5833  0.3352
 3128ntf    sn219907   2.418   5.228   5.792 -0.3255  0.3394  0.0624
 3128ntf    nn319908   2.311   5.340   5.819 -0.0063  0.5496  0.4753
 3128ntf    sn219909   2.204   5.406   5.725  0.3444  0.1577 -0.2131
 3128ntf    cn119910   2.049   5.357   5.807  0.5208 -0.1150 -0.0410
 3128ntf    fn419911   2.579   5.419   5.849 -0.4209 -0.5799  0.1717
 3128ntf    fn419912   2.559   5.281   6.016 -0.1241 -0.6221  0.3311
 3128ntf    fn419913   2.668   5.224   5.847 -0.1426 -0.1664 -0.6537
 3128ntf    on519914   2.464   5.217   5.656 -0.0763  0.0600  0.1700
 3128ntf    on519915   2.386   5.104   5.857 -0.1419  0.1452 -0.2188
 3128ntf    on519916   2.191   5.350   5.593  0.7971 -0.3056 -0.0625
 3128ntf    on519917   2.206   5.550   5.732  0.4419  0.1372  0.2171
 3128ntf    fn419918   1.982   5.460   5.857 -0.1880 -0.1678 -0.8598
 3128ntf    fn419919   1.957   5.302   5.730  0.4147  0.1350 -0.0934
 3128ntf    fn419920   2.078   5.276   5.907  0.2157  0.0621  0.1935
 3129ntf    cn119921   1.359   4.594   6.229  0.0593  0.1540  0.0732
 3129ntf    sn219922   1.484   4.708   6.297 -0.2232  0.4516  0.0950
 3129ntf    nn319923   1.480   4.829   6.197  0.5533  0.3755 -0.0327
 3129ntf    sn219924   1.399   4.964   6.201  0.2897  0.2250 -0.2872
 3129ntf    cn119925   1.346   4.985   6.028 -0.3270  0.7799 -0.0332
 3129ntf    fn419926   1.371   4.470   6.275  0.5100  0.1175 -0.1365
 3129ntf    fn419927   1.235   4.626   6.260  0.1959  0.5109  0.2549
 3129ntf    fn419928   1.372   4.587   6.098  0.3305  0.2645  0.0917
 3129ntf    on519929   1.434   4.745   6.427  0.4037  0.7780  0.2473
 3129ntf    on519930   1.606   4.631   6.287 -0.2236  0.4265  0.2809
 3129ntf    on519931   1.484   5.078   6.224  0.4385  0.0999 -0.2149
 3129ntf    on519932   1.275   4.963   6.274  0.2983 -1.2984 -0.2554
 3129ntf    fn419933   1.280   5.098   6.010 -0.1964  0.8200 -0.2614
 3129ntf    fn419934   1.441   4.986   5.936  0.0690  0.1792  0.3572
 3129ntf    fn419935   1.277   4.876   5.997  0.5227  0.1180  0.3490
 3130ntf    cn119936   4.483   0.689   5.516 -0.0464 -0.0107 -0.2968
 3130ntf    sn219937   4.530   0.623   5.679 -0.1981  0.3730 -0.0959
 3130ntf    nn319938   4.633   0.732   5.726  0.2554 -0.1402  0.1131
 3130ntf    sn219939   4.787   0.723   5.700  0.2301  0.2380 -0.1843
 3130ntf    cn119940   4.814   0.669   5.529 -0.0534 -0.5193  0.0060
 3130ntf    fn419941   4.584   0.741   5.449 -0.0302  0.4316  0.0681
 3130ntf    fn419942   4.426   0.599   5.438 -0.2009 -0.0506 -0.1408
 3130ntf    fn419943   4.395   0.785   5.537  0.0325  0.0752 -0.3638
 3130ntf    on519944   4.407   0.637   5.753 -0.3308 -0.0766 -0.2268
 3130ntf    on519945   4.583   0.492   5.646 -0.7725  0.1975 -0.3368
 3130ntf    on519946   4.853   0.623   5.782  0.3067  0.0594 -0.4603
 3130ntf    on519947   4.841   0.857   5.695  0.1432  0.2950  0.2891
 3130ntf    fn419948   4.938   0.624   5.520 -0.1932 -0.9348  0.1097
 3130ntf    fn419949   4.737   0.572   5.481 -0.7660 -0.1804  0.4516
 3130ntf    fn419950   4.805   0.779   5.456  0.5202 -0.4048  0.1070
 3131ntf    cn119951   1.296   1.311   0.933 -0.1377  0.2490  0.2721
 3131ntf    sn219952   1.338   1.159   1.024 -0.1367 -0.0433 -0.2101
 3131ntf    nn319953   1.328   1.218   1.170 -0.9064 -0.7267  0.0147
 3131ntf    sn219954   1.410   1.173   1.295 -0.1750  0.0797 -0.1679
 3131ntf    cn119955   1.449   0.998   1.262  0.0124  0.0741  0.0744
 3131ntf    fn419956   1.366   1.420   0.960  0.0638  0.4000 -0.8000
 3131ntf    fn419957   1.309   1.297   0.802  0.1385 -0.1068  0.3367
 3131ntf    fn419958   1.173   1.356   0.950  0.0141  0.5960  0.4733
 3131ntf    on519959   1.235   1.064   0.993 -0.4558  0.1321  0.3109
 3131ntf    on519960   1.469   1.126   0.973  0.0037  0.1819 -0.0035
 3131ntf    on519961   1.330   1.155   1.413 -0.4430  0.1031 -0.3468
 3131ntf    on519962   1.541   1.233   1.307 -0.1859  0.1140 -0.2189
 3131ntf    fn419963   1.502   0.942   1.369 -0.0607 -0.1844 -0.0235
 3131ntf    fn419964   1.346   0.926   1.223  0.1424 -0.3190  0.4548
 3131ntf    fn419965   1.545   0.992   1.171 -0.1772 -0.2293 -0.1051
 3132ntf    cn119966   6.293   3.172   5.170  0.1874 -0.0811 -0.1450
 3132ntf    sn219967   6.236   3.344   5.182  0.1650 -0.1017  0.0439
 3132ntf    nn319968   6.133   3.352   5.064  0.3760  0.3014 -0.1173
 3132ntf    sn219969   6.153   3.411   4.920 -0.1019  0.1749 -0.2364
 3132ntf    cn119970   5.991   3.393   4.839 -0.0367 -0.2105 -0.2814
 3132ntf    fn419971   6.379   3.139   5.264  0.1952 -0.6547 -0.3459
 3132ntf    fn419972   6.190   3.094   5.200  0.0119  0.0611 -0.3713
 3132ntf    fn419973   6.341   3.148   5.049 -0.2563  0.5068 -0.4453
 3132ntf    on519974   6.173   3.361   5.311 -0.4164  0.8394 -0.3542
 3132ntf    on519975   6.359   3.416   5.159  0.3722 -0.1751  0.8851
 3132ntf    on519976   6.240   3.336   4.833 -0.0596  0.5316 -0.5040
 3132ntf    on519977   6.169   3.554   4.930 -0.1031  0.1387  0.3191
 3132ntf    fn419978   5.887   3.456   4.891  0.4050 -0.0479  0.4130
 3132ntf    fn419979   6.007   3.422   4.711  0.1847  0.1142 -0.1801
 3132ntf    fn419980   5.968   3.263   4.844 -0.1683 -0.2005 -0.5999
 3133ntf    cn119981   0.699   7.093   5.961  0.3574 -0.2353 -0.0148
 3133ntf    sn219982   0.687   7.116   6.141  0.1689  0.0852 -0.0672
 3133ntf    nn319983   0.537   7.153   6.167  0.2330  0.1936  0.1511
 3133ntf    sn219984   0.462   7.144   6.305 -0.0220 -0.2676 -0.0161
 3133ntf    cn119985   0.350   7.005   6.271 -0.3482  0.0953 -0.4457
 3133ntf    fn419986   0.821   7.064   5.918  0.2692  0.0031 -0.4234
 3133ntf    fn419987   0.619   7.002   5.907  0.3907 -0.3589  0.1405
 3133ntf    fn419988   0.663   7.207   5.905 -0.0389 -0.2033  0.3015
 3133ntf    on519989   0.740   6.993   6.195 -0.0871 -0.2947 -0.6765
 3133ntf    on519990   0.775   7.229   6.161 -0.4558  0.5570  0.0374
 3133ntf    on519991   0.376   7.257   6.328  0.0623 -0.1823 -0.1182
 3133ntf    on519992   0.539   7.092   6.415  0.0289 -0.0911  0.0320
 3133ntf    fn419993   0.423   6.917   6.204  0.1002 -0.1442  0.3396
 3133ntf    fn419994   0.300   6.946   6.379  0.6562  0.0146 -0.0182
 3133ntf    fn419995   0.250   7.038   6.192 -0.1277  0.2368 -0.6661
 3134ntf    cn119996   0.656   3.596   0.195 -0.3818 -0.2075 -0.0885
 3134ntf    sn219997   0.530   3.678   0.093 -0.1156 -0.2966 -0.4912
 3134ntf    nn319998   0.483   3.796   0.186 -0.2917 -0.1840 -0.7227
 3134ntf    sn219999   0.378   3.806   0.302  0.3234 -0.0149 -0.1744
 3134ntf    cn120000   0.232   3.859   0.207  0.2118 -0.1189 -0.0621
 3134ntf    fn420001   0.661   3.469   0.157  0.2877 -0.1579 -0.1765
 3134ntf    fn420002   0.779   3.644   0.185 -0.3042 -0.2995  0.3941
 3134ntf    fn420003   0.619   3.596   0.322  0.0391 -0.1852  0.0371
 3134ntf    on520004   0.612   3.720  -0.019 -0.4064  0.8650 -0.2875
 3134ntf    on520005   0.432   3.575   0.072  0.3167 -0.8250  0.0395
 3134ntf    on520006   0.410   3.921   0.383 -0.0408 -0.0781  0.0627
 3134ntf    on520007   0.331   3.682   0.360 -0.0909  0.1716 -0.1089
 3134ntf    fn420008   0.114   3.862   0.266  0.4134 -0.2204  0.3525
 3134ntf    fn420009   0.246   3.972   0.139  0.5255 -0.3831 -0.4382
 3134ntf    fn420010   0.210   3.767   0.115 -0.2797  0.3159 -0.3827
 3135ntf    cn120011   0.719   2.148   6.705 -0.2255 -0.2795  0.4878
 3135ntf    sn220012   0.800   2.187   6.863 -0.1084  0.0931  0.3383
 3135ntf    nn320013   0.925   2.275   6.825 -0.6371  0.7740  0.1683
 3135ntf    sn220014   0.989   2.386   6.916  0.1938  0.1311  0.3708
 3135ntf    cn120015   1.160   2.378   6.854  0.1097  0.6172  0.0742
 3135ntf    fn420016   0.684   2.260   6.643  0.3721  0.0056  0.6500
 3135ntf    fn420017   0.803   2.093   6.619  0.2240  0.8191  0.2061
 3135ntf    fn420018   0.619   2.062   6.709 -0.1387 -0.4138 -0.0669
 3135ntf    on520019   0.692   2.245   6.939 -0.9490 -0.7497 -0.1940
 3135ntf    on520020   0.840   2.057   6.910  0.2788  0.0446 -0.1119
 3135ntf    on520021   1.003   2.348   7.055 -0.4458 -0.3520  0.3105
 3135ntf    on520022   0.950   2.522   6.892 -0.1038  0.0312  0.2850
 3135ntf    fn420023   1.194   2.254   6.822  0.1063  0.7037 -0.2693
 3135ntf    fn420024   1.171   2.454   6.746 -0.0555  0.3235 -0.1512
 3135ntf    fn420025   1.243   2.416   6.951  0.0557  0.3009  0.2445
 3136ntf    cn120026   0.287   5.953   5.639  0.1761  0.2745 -0.6157
 3136ntf    sn220027   0.406   5.827   5.585  0.2248  0.2085 -0.3590
 3136ntf    nn320028   0.383   5.715   5.692 -0.3739  0.1660 -0.5280
 3136ntf    sn220029   0.359   5.560   5.688 -0.1602  0.1227 -0.1922
 3136ntf    cn120030   0.180   5.552   5.717 -0.1253  0.2645  0.0647
 3136ntf    fn420031   0.278   5.981   5.768  0.0772  1.0043 -0.7754
 3136ntf    fn420032   0.298   6.067   5.573  0.2535  0.3627 -0.4529
 3136ntf    fn420033   0.166   5.906   5.620  0.0317  0.1352  0.5539
 3136ntf    on520034   0.355   5.790   5.455 -0.1992 -0.1587 -0.0898
 3136ntf    on520035   0.538   5.885   5.594 -0.0411  0.7864 -0.1759
 3136ntf    on520036   0.424   5.493   5.798  0.6551  0.7283 -0.2948
 3136ntf    on520037   0.373   5.504   5.555  0.0396 -0.0095 -0.1160
 3136ntf    fn420038   0.114   5.612   5.619  0.1509 -0.1619 -0.3898
 3136ntf    fn420039   0.126   5.431   5.714 -0.1551  0.2815 -0.1069
 3136ntf    fn420040   0.139   5.608   5.829 -0.0583 -0.2995  0.3713
 3137ntf    cn120041   0.715   6.799   3.376 -0.2051  0.0964 -0.0599
 3137ntf    sn220042   0.614   6.801   3.528 -0.0593 -0.0703  0.0388
 3137ntf    nn320043   0.618   6.647   3.557  0.5777 -0.0704 -0.0408
 3137ntf    sn220044   0.723   6.565   3.641  0.1857 -0.3012  0.2242
 3137ntf    cn120045   0.733   6.405   3.555  0.0675 -0.0236 -0.3083
 3137ntf    fn420046   0.843   6.776   3.396 -0.0929  0.7711  0.0190
 3137ntf    fn420047   0.676   6.708   3.289  0.3065 -0.0754 -0.1099
 3137ntf    fn420048   0.706   6.916   3.314  0.4085 -0.0182 -0.3631
 3137ntf    on520049   0.687   6.877   3.627 -0.4229  1.0735 -0.5519
 3137ntf    on520050   0.482   6.844   3.489  0.1091  0.5107  0.1051
 3137ntf    on520051   0.666   6.539   3.771 -0.6345 -0.5121 -0.1724
 3137ntf    on520052   0.855   6.622   3.638 -0.2742  0.7783 -0.2561
 3137ntf    fn420053   0.766   6.415   3.427  0.0688 -0.1117 -0.3147
 3137ntf    fn420054   0.817   6.318   3.608 -0.1884 -0.3082 -0.3705
 3137ntf    fn420055   0.614   6.348   3.557  0.1247 -0.1280  0.0580
 3138ntf    cn120056   3.168   2.327   2.069 -0.0662 -0.0124  0.0500
 3138ntf    sn220057   3.092   2.198   1.965 -0.1392  0.0559  0.0183
 3138ntf    nn320058   3.219   2.158   1.882  0.0169  0.4694  0.0567
 3138ntf    sn220059   3.259   2.201   1.737  0.1416 -0.1115 -0.0838
 3138ntf    cn120060   3.275   2.035   1.664 -0.2435 -0.0538 -0.3046
 3138ntf    fn420061   3.217   2.424   1.995 -0.1228 -0.1611 -0.1845
 3138ntf    fn420062   3.073   2.384   2.141  0.2548  0.0406  0.4305
 3138ntf    fn420063   3.261   2.281   2.151 -0.1490  0.1591  0.2402
 3138ntf    on520064   3.048   2.099   2.060 -0.7586 -0.3110 -0.6395
 3138ntf    on520065   2.984   2.261   1.894 -0.3376  0.0463  0.3126
 3138ntf    on520066   3.397   2.244   1.736  0.1014  0.0209  0.1788
 3138ntf    on520067   3.157   2.271   1.663 -0.1430 -0.0365  0.3784
 3138ntf    fn420068   3.171   1.983   1.601 -0.2098  0.0655 -0.4596
 3138ntf    fn420069   3.374   2.038   1.576  0.2790  0.6310  0.2882
 3138ntf    fn420070   3.315   1.950   1.757 -0.6094  0.1000 -0.0011
 3139ntf    cn120071   5.716   3.321   5.977  0.1374  0.4606 -0.1738
 3139ntf    sn220072   5.578   3.205   5.952  0.0478  0.4595  0.3187
 3139ntf    nn320073   5.579   3.145   6.097  0.3049 -0.5226 -0.0879
 3139ntf    sn220074   5.571   2.991   6.131  0.0953 -0.4584  0.1556
 3139ntf    cn120075   5.750   2.966   6.138  0.1383 -0.0376  0.5895
 3139ntf    fn420076   5.738   3.410   5.882  0.0106  0.5032 -0.1628
 3139ntf    fn420077   5.691   3.398   6.082  0.8855 -0.0518  0.3923
 3139ntf    fn420078   5.830   3.256   5.999 -0.2788 -0.3216 -0.2838
 3139ntf    on520079   5.471   3.299   5.930 -0.0744  0.1372 -0.4970
 3139ntf    on520080   5.628   3.127   5.842 -1.0462  0.8307 -0.4467
 3139ntf    on520081   5.506   2.903   6.037 -0.0118  0.3016 -0.4972
 3139ntf    on520082   5.517   2.971   6.263 -0.4587  0.0534  0.0155
 3139ntf    fn420083   5.822   3.007   6.035  0.1691 -0.6224  0.3751
 3139ntf    fn420084   5.813   3.011   6.246  0.9264  0.0533  0.1012
 3139ntf    fn420085   5.773   2.835   6.143  0.1689 -0.0397  0.3951
 3140ntf    cn120086   3.857   6.456   3.745 -0.0293 -0.2204 -0.2193
 3140ntf    sn220087   3.713   6.482   3.638 -0.1722 -0.0808  0.0068
 3140ntf    nn320088   3.734   6.371   3.528 -0.0985  0.1694 -0.2315
 3140ntf    sn220089   3.770   6.392   3.377  0.0466 -0.1564 -0.2421
 3140ntf    cn120090   3.949   6.425   3.382 -0.0376  0.2282  0.3334
 3140ntf    fn420091   3.876   6.569   3.811  0.1508 -0.2061 -0.2952
 3140ntf    fn420092   3.854   6.355   3.831 -0.1558  0.0999  0.1544
 3140ntf    fn420093   3.969   6.431   3.680 -0.1423 -0.1443 -0.4421
 3140ntf    on520094   3.593   6.460   3.716 -0.1855  0.1682  0.0565
 3140ntf    on520095   3.730   6.612   3.579 -0.2457  0.0492  0.2709
 3140ntf    on520096   3.725   6.501   3.294  0.4652 -0.4079 -0.8035
 3140ntf    on520097   3.767   6.267   3.305 -0.4438 -0.3032  0.0270
 3140ntf    fn420098   4.017   6.326   3.436 -1.0596 -0.7321 -0.1024
 3140ntf    fn420099   3.999   6.435   3.260 -0.0714 -0.1599  0.2886
 3140ntf    fn420100   3.974   6.533   3.454  0.0661 -0.0164  0.6649
 3141ntf    cn120101   3.334   7.025   4.443 -0.1912  0.5321  0.1187
 3141ntf    sn220102   3.515   7.031   4.431 -0.1803 -0.1733 -0.1004
 3141ntf    nn320103   3.536   7.128   4.309  0.4711 -0.1456  0.0288
 3141ntf    sn220104   3.644   7.241   4.299  0.3118  0.0147  0.0987
 3141ntf    cn120105   3.678   7.215   4.122  0.0680 -0.0548  0.0624
 3141ntf    fn420106   3.287   6.923   4.512  0.0146 -0.0831 -0.6436
 3141ntf    fn420107   3.282   7.130   4.505  0.0094  1.0194 -0.5240
 3141ntf    fn420108   3.267   7.030   4.328  0.1209 -0.3094 -0.1026
 3141ntf    on520109   3.555   7.087   4.558 -0.3359  0.1420 -0.1881
 3141ntf    on520110   3.554   6.895   4.404 -0.0471 -0.2132  0.2897
 3141ntf    on520111   3.777   7.221   4.353  0.5001  0.8542 -0.0361
 3141ntf    on520112   3.588   7.373   4.288  0.7437  0.2138  0.2651
 3141ntf    fn420113   3.771   7.296   4.074 -0.1461  0.1750  0.0324
 3141ntf    fn420114   3.724   7.095   4.091  0.0142 -0.0576 -0.0067
 3141ntf    fn420115   3.574   7.237   4.043  0.2335  0.2145 -0.0812
 3142ntf    cn120116   5.257   2.496   3.903 -0.5328 -0.4557  0.3328
 3142ntf    sn220117   5.201   2.454   3.735  0.3208 -0.3683  0.0239
 3142ntf    nn320118   5.331   2.502   3.661  0.0169 -0.3308 -0.4877
 3142ntf    sn220119   5.343   2.651   3.611 -0.0332 -0.0190  0.4116
 3142ntf    cn120120   5.281   2.644   3.441 -0.1177  0.1875  0.4344
 3142ntf    fn420121   5.178   2.474   4.007 -0.6138 -0.2843  0.3074
 3142ntf    fn420122   5.374   2.442   3.933  0.0832  0.3692 -0.5544
 3142ntf    fn420123   5.281   2.625   3.919 -0.4668 -0.4275  0.0154
 3142ntf    on520124   5.185   2.311   3.739  0.1103 -0.3532 -0.2509
 3142ntf    on520125   5.078   2.525   3.713  0.7895  0.4508 -0.0003
 3142ntf    on520126   5.475   2.707   3.592 -0.1228  0.3849  0.9537
 3142ntf    on520127   5.263   2.746   3.684 -0.2499  0.3678 -0.3227
 3142ntf    fn420128   5.170   2.572   3.439  0.1689 -0.2483 -0.2955
 3142ntf    fn420129   5.252   2.765   3.395 -0.2772  0.0116  0.0698
 3142ntf    fn420130   5.371   2.590   3.360 -0.2120  0.1884  0.3284
 3143ntf    cn120131   4.318   6.954   6.035  0.5864  0.2998  0.1765
 3143ntf    sn220132   4.364   6.852   5.892  0.1544  0.3286  0.0178
 3143ntf    nn320133   4.518   6.834   5.913  0.1414  0.3714  0.1477
 3143ntf    sn220134   4.605   6.707   5.945 -0.3998  0.0504  0.3717
 3143ntf    cn120135   4.711   6.795   6.064 -0.2582 -0.1626  0.4034
 3143ntf    fn420136   4.307   6.877   6.143 -0.3154  0.0337 -0.0973
 3143ntf    fn420137   4.416   7.037   6.069  0.2928  0.6666  0.1291
 3143ntf    fn420138   4.208   7.027   6.032  0.3901  0.0057  0.1767
 3143ntf    on520139   4.282   6.735   5.911  0.5107  0.1712  0.6027
 3143ntf    on520140   4.334   6.942   5.783  0.1795  0.0164 -0.2483
 3143ntf    on520141   4.697   6.674   5.839  0.0570  0.1995  0.7162
 3143ntf    on520142   4.565   6.602   6.036  0.4175 -0.2757  0.3655
 3143ntf    fn420143   4.765   6.905   6.012 -0.0660 -0.3859  0.1237
 3143ntf    fn420144   4.635   6.828   6.167 -0.2918 -0.0360  0.3396
 3143ntf    fn420145   4.817   6.724   6.098  0.2239  0.1213 -0.4623
 3144ntf    cn120146   6.351   6.069   4.286  0.1223 -0.4706 -0.3539
 3144ntf    sn220147   6.185   6.140   4.263  0.1958 -0.1611  0.0582
 3144ntf    nn320148   6.101   6.036   4.346  0.1399 -0.0434  0.1485
 3144ntf    sn220149   6.066   6.029   4.499 -0.2111  0.1296  0.0768
 3144ntf    cn120150   5.910   6.118   4.525 -0.3320 -0.0408 -0.0596
 3144ntf    fn420151   6.451   6.152   4.260  0.2478 -0.4360  0.2349
 3144ntf    fn420152   6.367   6.028   4.410  0.3101  0.2462 -0.1369
 3144ntf    fn420153   6.372   5.961   4.212  0.1412 -0.3206 -0.5689
 3144ntf    on520154   6.189   6.276   4.311  0.2436 -0.4039  0.7561
 3144ntf    on520155   6.165   6.124   4.121  0.0575 -0.0839  0.0693
 3144ntf    on520156   6.149   6.097   4.594 -0.4846  0.6516 -0.0549
 3144ntf    on520157   6.028   5.896   4.539  0.0437 -0.1279 -0.5262
 3144ntf    fn420158   5.890   6.158   4.650 -0.6977 -0.3976  0.0002
 3144ntf    fn420159   5.897   6.221   4.444  0.3455  0.3036  0.2650
 3144ntf    fn420160   5.810   6.037   4.494 -0.1146 -0.4111  0.1943
 3145ntf    cn120161   0.395   2.401   2.465 -0.0493 -0.0102 -0.0655
 3145ntf    sn220162   0.316   2.565   2.464 -0.1696 -0.0668  0.0065
 3145ntf    nn320163   0.447   2.652   2.473 -0.0857 -0.1711 -0.2102
 3145ntf    sn220164   0.486   2.795   2.423  0.1541 -0.2033 -0.1152
 3145ntf    cn120165   0.586   2.836   2.570 -0.0735 -0.3711  0.0863
 3145ntf    fn420166   0.432   2.364   2.587 -0.0445 -0.2618 -0.1438
 3145ntf    fn420167   0.322   2.297   2.430  0.0978 -0.1661  0.0896
 3145ntf    fn420168   0.507   2.397   2.395 -0.6049  0.7465 -1.0301
 3145ntf    on520169   0.246   2.578   2.339 -0.3143  0.1263  0.1079
 3145ntf    on520170   0.236   2.563   2.584  0.0507  0.6345  0.1724
 3145ntf    on520171   0.384   2.897   2.431  0.1123 -0.2641  0.1419
 3145ntf    on520172   0.575   2.807   2.310  0.6025  0.6836  0.3185
 3145ntf    fn420173   0.692   2.761   2.593  0.3815  0.2367  0.0088
 3145ntf    fn420174   0.627   2.962   2.562 -0.3634 -0.2809 -0.0213
 3145ntf    fn420175   0.504   2.824   2.674 -0.3254  0.0692 -0.0554
 3146ntf    cn120176   2.238   5.271   2.356  0.1094 -0.7240  0.6737
 3146ntf    sn220177   2.368   5.145   2.333  0.3068 -0.4990  0.5581
 3146ntf    nn320178   2.493   5.218   2.393  0.6254 -0.3835 -0.2318
 3146ntf    sn220179   2.545   5.221   2.542  0.2265  0.0670 -0.0994
 3146ntf    cn120180   2.642   5.067   2.544 -0.0090 -0.0975 -0.8057
 3146ntf    fn420181   2.132   5.256   2.278  0.3237  0.1892  0.1992
 3146ntf    fn420182   2.198   5.258   2.482  0.0728 -0.2185  0.7150
 3146ntf    fn420183   2.294   5.388   2.333  0.0524 -0.7503  0.3984
 3146ntf    on520184   2.319   5.030   2.404 -0.2092  0.0030  1.0298
 3146ntf    on520185   2.373   5.138   2.189 -0.3759  0.2858  0.4815
 3146ntf    on520186   2.442   5.212   2.643 -0.0281  0.0986 -0.3534
 3146ntf    on520187   2.639   5.328   2.563  0.0380  0.2408 -0.1374
 3146ntf    fn420188   2.718   5.058   2.436  0.4715  0.0170 -0.4831
 3146ntf    fn420189   2.733   5.073   2.640 -0.3412 -0.3741 -0.4711
 3146ntf    fn420190   2.570   4.958   2.561  0.5764 -0.3256  0.3313
 3147ntf    cn120191   0.260   0.559   3.238  0.1579 -0.1961  0.0159
 3147ntf    sn220192   0.252   0.719   3.324  0.0418 -0.2248  0.0584
 3147ntf    nn320193   0.355   0.695   3.440  0.3113 -0.2360 -0.1830
 3147ntf    sn220194   0.508   0.727   3.431  0.1809  0.4872  0.0563
 3147ntf    cn120195   0.514   0.904   3.471  0.2807  0.4735  0.1050
 3147ntf    fn420196   0.214   0.470   3.325 -0.0877  0.0465  0.1385
 3147ntf    fn420197   0.186   0.557   3.129  0.5710 -1.0255 -0.2561
 3147ntf    fn420198   0.382   0.527   3.199  0.2155 -0.5358  0.4638
 3147ntf    on520199   0.284   0.812   3.219 -0.1436 -0.3881 -0.1432
 3147ntf    on520200   0.116   0.729   3.374  0.1112  0.6735  0.0824
 3147ntf    on520201   0.563   0.723   3.298  0.5688  0.1023  0.2253
 3147ntf    on520202   0.585   0.664   3.535  0.5515  0.4733 -0.2219
 3147ntf    fn420203   0.639   0.944   3.453  0.2473  0.2664 -0.6196
 3147ntf    fn420204   0.428   0.967   3.392  0.0541  0.2963  0.2068
 3147ntf    fn420205   0.473   0.931   3.593  0.2727 -0.4185  0.3056
 3148ntf    cn120206   2.200   2.388   5.787 -0.3315  0.0688  0.1854
 3148ntf    sn220207   2.151   2.252   5.676  0.0360  0.0777  0.0138
 3148ntf    nn320208   2.246   2.281   5.554  0.1871  0.0462  0.1231
 3148ntf    sn220209   2.205   2.317   5.407  0.2819  0.0547  0.0988
 3148ntf    cn120210   2.181   2.497   5.410  0.0773  0.0354 -0.2710
 3148ntf    fn420211   2.328   2.392   5.817 -0.2482 -0.1429 -0.1415
 3148ntf    fn420212   2.169   2.505   5.734 -0.1527 -0.0498 -0.1860
 3148ntf    fn420213   2.130   2.381   5.899  0.0341 -0.0582  0.4037
 3148ntf    on520214   2.191   2.142   5.760  0.0856 -0.3098 -0.5148
 3148ntf    on520215   2.009   2.273   5.662 -0.1859 -1.0193  0.5926
 3148ntf    on520216   2.078   2.275   5.354  0.3122  0.3444 -0.2074
 3148ntf    on520217   2.322   2.303   5.324  0.1094  0.6390 -0.2486
 3148ntf    fn420218   2.158   2.548   5.290 -0.0317  0.1579 -0.1984
 3148ntf    fn420219   2.073   2.528   5.480  0.2610  0.0030  0.0316
 3148ntf    fn420220   2.284   2.567   5.456  0.5017 -0.3999 -0.5518
 3149ntf    cn120221   5.315   6.155   2.225 -0.1882  0.1124 -0.0439
 3149ntf    sn220222   5.482   6.223   2.197 -0.1356  0.0466  0.1075
 3149ntf    nn320223   5.571   6.115   2.268  0.1666  0.1381 -0.1322
 3149ntf    sn220224   5.643   5.993   2.199  0.1258 -0.0259  0.1114
 3149ntf    cn120225   5.796   6.068   2.135 -0.2676  0.3028 -0.4485
 3149ntf    fn420226   5.223   6.246   2.200 -0.3108  0.1358  0.4753
 3149ntf    fn420227   5.285   6.050   2.150 -0.0603  0.0817 -0.0522
 3149ntf    fn420228   5.305   6.112   2.350 -0.2474 -0.5373 -0.2709
 3149ntf    on520229   5.501   6.233   2.055  0.0249 -0.5447  0.0824
 3149ntf    on520230   5.474   6.342   2.277  0.1999 -0.1845  0.4887
 3149ntf    on520231   5.574   5.937   2.086  0.3448 -0.1652  0.0474
 3149ntf    on520232   5.681   5.908   2.309 -0.2548 -0.5090 -0.1313
 3149ntf    fn420233   5.781   6.125   2.016 -0.4335 -0.5329 -0.8337
 3149ntf    fn420234   5.851   6.164   2.208  0.0016  0.3910 -0.7657
 3149ntf    fn420235   5.892   5.980   2.113 -0.1853  0.1520  0.4880
 3150ntf    cn120236   0.848   5.887   4.984  0.2635 -0.6502  0.1282
 3150ntf    sn220237   1.007   5.949   5.047  0.2336  0.0141 -0.4416
 3150ntf    nn320238   0.952   5.992   5.188 -0.0911 -0.2799 -0.4780
 3150ntf    sn220239   1.045   6.026   5.309 -0.5387 -0.0893 -0.1860
 3150ntf    cn120240   1.035   6.207   5.300  0.1195 -0.0357  0.0637
 3150ntf    fn420241   0.789   5.799   5.063  0.1547 -0.6789  0.0152
 3150ntf    fn420242   0.761   5.981   4.952  1.2078  0.2292  0.1102
 3150ntf    fn420243   0.854   5.824   4.868 -0.0940  0.4190 -0.4780
 3150ntf    on520244   1.088   5.830   5.048 -0.7668 -0.6814  0.1360
 3150ntf    on520245   1.053   6.059   4.965  0.3494  0.4506  0.2032
 3150ntf    on520246   1.188   6.011   5.299 -0.5221 -0.0462 -0.0200
 3150ntf    on520247   0.991   6.004   5.441  0.7535  0.1622  0.4086
 3150ntf    fn420248   0.908   6.243   5.310 -0.1647 -0.8887 -0.4179
 3150ntf    fn420249   1.098   6.264   5.402  0.1863  0.1947 -0.1051
 3150ntf    fn420250   1.082   6.255   5.186  0.0087  0.2638  0.1431
 3151ntf    cn120251   5.241   1.937   0.144 -0.3218 -0.1075  0.2458
 3151ntf    sn220252   5.303   1.817   0.266  0.0029 -0.1184  0.0733
 3151ntf    nn320253   5.294   1.903   0.397 -0.0196 -0.2797  0.1786
 3151ntf    sn220254   5.351   1.864   0.538  0.6705  0.0009 -0.0220
 3151ntf    cn120255   5.483   1.988   0.554  0.5258  0.1436  0.0643
 3151ntf    fn420256   5.111   1.956   0.157 -0.2660  0.0491  0.6058
 3151ntf    fn420257   5.300   2.055   0.141  0.0885 -0.3250 -0.7513
 3151ntf    fn420258   5.266   1.900   0.020  0.4470  0.5497  0.1922
 3151ntf    on520259   5.206   1.711   0.260 -0.6052  0.3911  0.7228
 3151ntf    on520260   5.438   1.794   0.222  0.0176  0.2682 -0.0864
 3151ntf    on520261   5.418   1.736   0.546  0.3445 -0.1253  0.6898
 3151ntf    on520262   5.262   1.893   0.647 -0.3946  0.2296 -0.9407
 3151ntf    fn420263   5.447   2.115   0.559  0.1664  0.0539 -0.2176
 3151ntf    fn420264   5.543   1.959   0.669 -0.2734 -0.4380  0.3423
 3151ntf    fn420265   5.581   1.984   0.465  0.3235  0.0956 -0.1594
 3152ntf    cn120266   5.710   3.759   4.104 -0.2084  0.4239  0.2444
 3152ntf    sn220267   5.747   3.866   3.961  0.0369  0.2226  0.1567
 3152ntf    nn320268   5.720   3.773   3.838 -0.1899  0.4860  0.0073
 3152ntf    sn220269   5.587   3.758   3.756  0.0073  0.0321 -0.2309
 3152ntf    cn120270   5.620   3.897   3.644 -0.0274  0.2120 -0.0186
 3152ntf    fn420271   5.795   3.659   4.117 -0.6844  0.0246  0.2702
 3152ntf    fn420272   5.725   3.828   4.216 -0.0307  0.5913  0.1202
 3152ntf    fn420273   5.591   3.703   4.100  0.2233 -0.4825 -0.0633
 3152ntf    on520274   5.658   3.979   3.972  0.3166  0.4839 -0.2469
 3152ntf    on520275   5.888   3.898   3.968  0.0481  0.1499  0.2685
 3152ntf    on520276   5.465   3.797   3.821  0.2385  0.3632  0.0057
 3152ntf    on520277   5.598   3.637   3.678  0.1201 -0.2613  0.2341
 3152ntf    fn420278   5.617   4.008   3.715 -0.2948  0.0084  0.2871
 3152ntf    fn420279   5.740   3.884   3.588 -0.3101 -0.3909 -0.5001
 3152ntf    fn420280   5.541   3.909   3.538 -0.0728 -0.9932 -0.1334
 3153ntf    cn120281   6.768   2.513   7.027 -0.1189 -0.1920 -0.2315
 3153ntf    sn220282   6.870   2.663   7.015 -0.2102 -0.1151 -0.0393
 3153ntf    nn320283   6.766   2.760   7.083  0.0263 -0.1277  0.3466
 3153ntf    sn220284   6.670   2.859   7.008  0.3947  0.1232  0.1981
 3153ntf    cn120285   6.637   2.975   7.144 -0.2222  0.2438 -0.0483
 3153ntf    fn420286   6.807   2.414   6.948 -0.2306 -0.1595 -0.3291
 3153ntf    fn420287   6.767   2.455   7.146 -0.0788  0.2409 -0.0199
 3153ntf    fn420288   6.640   2.531   6.998 -0.1374  0.0913  0.0321
 3153ntf    on520289   6.994   2.645   7.086 -0.3338  0.9792  0.4753
 3153ntf    on520290   6.885   2.675   6.873  0.3432  0.0079  0.0279
 3153ntf    on520291   6.539   2.803   6.984  0.5330 -0.0877 -0.0626
 3153ntf    on520292   6.733   2.929   6.900 -0.2222  0.1679 -0.1393
 3153ntf    fn420293   6.573   3.084   7.106 -0.2686  0.1684 -0.1854
 3153ntf    fn420294   6.569   2.913   7.239  0.6784  0.1207  0.5308
 3153ntf    fn420295   6.754   3.010   7.196 -0.2184  0.1095  0.0355
 3154ntf    cn120296   6.937   3.274   6.801  0.4096 -0.1164  0.1544
 3154ntf    sn220297   6.801   3.261   6.680  0.4983 -0.1555  0.0588
 3154ntf    nn320298   6.812   3.385   6.584 -0.6445  0.1288  0.2825
 3154ntf    sn220299   6.859   3.382   6.435  0.0796  0.0552  0.5088
 3154ntf    cn120300   7.019   3.467   6.456  0.1787  0.0062 -0.0252
 3154ntf    fn420301   7.049   3.225   6.752  0.6170  0.2478  0.2586
 3154ntf    fn420302   6.960   3.398   6.841  0.0825 -0.1624  0.4924
 3154ntf    fn420303   6.907   3.211   6.913 -0.4603 -0.1839 -0.1098
 3154ntf    on520304   6.824   3.127   6.632  0.4388 -0.1214 -0.0635
 3154ntf    on520305   6.687   3.286   6.765  0.0189 -0.5802 -0.4575
 3154ntf    on520306   6.788   3.474   6.349  0.1013 -0.0211  0.4089
 3154ntf    on520307   6.894   3.257   6.371 -0.1737 -0.3761  1.2076
 3154ntf    fn420308   7.103   3.393   6.526 -0.0679 -0.2506  0.0022
 3154ntf    fn420309   7.080   3.496   6.342  0.8291  0.0002  0.3191
 3154ntf    fn420310   7.010   3.588   6.508 -0.6002  0.0318 -0.2008
 3155ntf    cn120311   5.839   3.184   7.021  0.2932 -0.5754 -0.5128
 3155ntf    sn220312   5.991   3.282   7.006 -0.1924  0.2045 -0.3676
 3155ntf    nn320313   6.054   3.278   7.149 -0.0258 -0.4482 -0.4583
 3155ntf    sn220314   6.162   3.175   7.199  0.0890 -0.0906  0.0407
 3155ntf    cn120315   6.146   3.196   7.379 -0.0528 -0.0292  0.0207
 3155ntf    fn420316   5.769   3.237   7.120  0.2289 -0.2322 -0.7381
 3155ntf    fn420317   5.768   3.181   6.909  0.2384 -0.1830 -0.4898
 3155ntf    fn420318   5.858   3.056   7.049  0.1983 -0.5209 -0.1981
 3155ntf    on520319   6.066   3.204   6.911 -0.0339  0.2133 -0.2475
 3155ntf    on520320   5.944   3.414   6.971 -0.4243  0.2316  0.0465
 3155ntf    on520321   6.292   3.223   7.162 -0.0473 -0.1467 -0.5311
 3155ntf    on520322   6.140   3.036   7.168 -0.0756 -0.1330  0.3472
 3155ntf    fn420323   6.232   3.119   7.443 -0.1924  0.0166  0.2645
 3155ntf    fn420324   6.183   3.312   7.431  0.3810 -0.0923 -0.1471
 3155ntf    fn420325   6.024   3.177   7.428  0.0844  0.3818  0.5243
 3156ntf    cn120326   2.267   7.019   1.140 -0.1311 -0.2583  0.2263
 3156ntf    sn220327   2.352   7.066   0.986 -0.2415 -0.0765  0.2208
 3156ntf    nn320328   2.232   7.124   0.903 -0.4511 -0.0834  0.5150
 3156ntf    sn220329   2.131   7.047   0.811 -0.0745  0.1260 -0.0770
 3156ntf    cn120330   2.196   7.092   0.647  0.0028 -0.5232 -0.2265
 3156ntf    fn420331   2.346   6.950   1.222  0.3067  0.0717  0.0820
 3156ntf    fn420332   2.234   7.130   1.203  0.1645 -0.1841  0.2515
 3156ntf    fn420333   2.160   6.942   1.124 -0.5601  0.2671  0.5530
 3156ntf    on520334   2.438   7.173   1.031 -0.1352 -0.1755  0.2539
 3156ntf    on520335   2.412   6.947   0.932 -0.8486 -0.0387 -0.5462
 3156ntf    on520336   1.999   7.104   0.821 -0.1052  0.0981 -0.3035
 3156ntf    on520337   2.145   6.904   0.798  0.1093  0.1254  0.1106
 3156ntf    fn420338   2.328   7.102   0.642 -0.0342  0.3084  0.2574
 3156ntf    fn420339   2.168   6.997   0.560  0.0385 -0.0308 -0.7842
 3156ntf    fn420340   2.153   7.204   0.591 -0.5565 -0.6871 -0.1263
 3157ntf    cn120341   3.056   4.589   1.956 -0.0851 -0.2748 -0.0441
 3157ntf    sn220342   3.062   4.758   1.891  0.0551 -0.3267 -0.1666
 3157ntf    nn320343   3.207   4.767   1.831  0.2203 -0.1887  0.2508
 3157ntf    sn220344   3.329   4.864   1.849  0.0693 -0.0014  0.2714
 3157ntf    cn120345   3.440   4.774   1.961 -0.0038 -0.1570  0.2191
 3157ntf    fn420346   2.952   4.572   2.036 -0.0441 -0.1132  0.0440
 3157ntf    fn420347   3.063   4.499   1.859 -0.0683 -0.0578 -0.2457
 3157ntf    fn420348   3.157   4.562   2.037 -0.0303 -0.3774 -0.1458
 3157ntf    on520349   2.959   4.759   1.791  0.1716 -0.5070 -0.2892
 3157ntf    on520350   3.042   4.839   2.009 -0.1661 -0.0338 -0.4014
 3157ntf    on520351   3.288   4.986   1.915  0.1243 -0.1291  0.5403
 3157ntf    on520352   3.405   4.874   1.726 -0.1056 -0.1264  0.1536
 3157ntf    fn420353   3.374   4.683   2.031  0.1015 -0.4396 -0.0460
 3157ntf    fn420354   3.532   4.707   1.894  0.3362  0.4547  0.0591
 3157ntf    fn420355   3.514   4.855   2.035 -0.0007  0.1766 -0.1461
 3158ntf    cn120356   6.641   1.781   2.593  0.0520 -0.4090 -0.1317
 3158ntf    sn220357   6.600   1.730   2.763 -0.1927  0.4602  0.0809
 3158ntf    nn320358   6.634   1.855   2.851 -0.4474  0.3757  0.3013
 3158ntf    sn220359   6.743   1.864   2.963 -0.2536  0.1382  0.1334
 3158ntf    cn120360   6.898   1.820   2.880 -0.2118 -0.1285  0.3496
 3158ntf    fn420361   6.769   1.815   2.596  0.1568 -0.8335  0.4924
 3158ntf    fn420362   6.613   1.683   2.509 -0.6609 -0.4356  0.1251
 3158ntf    fn420363   6.565   1.887   2.568 -0.1828 -0.3071  0.9386
 3158ntf    on520364   6.458   1.704   2.765 -0.0935 -0.0879  0.4219
 3158ntf    on520365   6.689   1.618   2.779 -0.0158  0.5769 -0.0861
 3158ntf    on520366   6.727   1.770   3.072  0.8659 -0.3616 -0.1122
 3158ntf    on520367   6.768   2.001   3.001  0.4792  0.0560 -0.0371
 3158ntf    fn420368   6.915   1.886   2.766 -0.6032  0.1045  0.4255
 3158ntf    fn420369   7.003   1.829   2.960 -0.2887 -0.6169  0.5107
 3158ntf    fn420370   6.912   1.693   2.843  0.0710  0.0741 -0.2568
 3159ntf    cn120371   3.719   3.914   6.268  0.1579 -0.2589  0.1227
 3159ntf    sn220372   3.814   3.833   6.136  0.0169 -0.0487 -0.1102
 3159ntf    nn320373   3.963   3.863   6.176 -0.0177 -0.1346  0.0827
 3159ntf    sn220374   4.059   3.771   6.260 -0.1969 -0.1560  0.2634
 3159ntf    cn120375   4.130   3.660   6.135 -0.3198 -0.3323  0.3497
 3159ntf    fn420376   3.739   4.045   6.270  0.3021 -0.2796 -0.0095
 3159ntf    fn420377   3.590   3.889   6.255  0.1477 -0.1085 -0.0731
 3159ntf    fn420378   3.750   3.876   6.390 -0.0717 -0.0785  0.2377
 3159ntf    on520379   3.777   3.694   6.141 -0.5786  0.1241  0.3412
 3159ntf    on520380   3.779   3.909   6.018  0.4340  0.5518  0.1425
 3159ntf    on520381   3.983   3.683   6.345 -0.3118 -0.1465  0.1702
 3159ntf    on520382   4.169   3.851   6.308 -0.1078  0.0529 -0.2787
 3159ntf    fn420383   4.195   3.724   6.039 -0.3323 -0.5198  0.2160
 3159ntf    fn420384   4.206   3.570   6.197 -0.1902 -0.4997 -0.0496
 3159ntf    fn420385   4.035   3.603   6.063  0.0499 -0.3480 -0.1269
 3160ntf    cn120386   1.160   1.315   2.821 -0.1240  0.2874 -0.3561
 3160ntf    sn220387   1.069   1.379   2.677 -0.1990  0.0954 -0.3927
 3160ntf    nn320388   0.980   1.253   2.646 -0.0157 -0.1739  0.1579
 3160ntf    sn220389   1.031   1.110   2.602  0.1266 -0.0165 -0.1929
 3160ntf    cn120390   0.995   1.130   2.425  0.1688  0.1314 -0.1852
 3160ntf    fn420391   1.271   1.250   2.792 -0.1755 -0.0796  0.2578
 3160ntf    fn420392   1.186   1.418   2.901  0.9088 -0.0336 -0.2683
 3160ntf    fn420393   1.082   1.225   2.879 -0.1833  0.5647  0.0004
 3160ntf    on520394   0.979   1.483   2.720  0.1753  0.1054  0.3913
 3160ntf    on520395   1.163   1.411   2.574 -0.0509  0.3432 -0.1807
 3160ntf    on520396   0.943   1.003   2.643  0.3517 -0.0950  0.0849
 3160ntf    on520397   1.173   1.091   2.610  0.1596  0.2925 -0.0030
 3160ntf    fn420398   1.075   1.204   2.351 -0.2285  0.8335  0.0737
 3160ntf    fn420399   0.997   1.011   2.368 -0.4836  0.1249 -0.2001
 3160ntf    fn420400   0.871   1.175   2.410  0.0972  0.1215  0.3661
 3161ntf    cn120401   4.979   5.330   3.476  0.1172  0.1710  0.1923
 3161ntf    sn220402   4.824   5.316   3.382 -0.0349 -0.1352  0.4909
 3161ntf    nn320403   4.848   5.414   3.263 -0.2441 -0.8887 -0.1790
 3161ntf    sn220404   4.926   5.383   3.130  0.0901 -0.0074 -0.1972
 3161ntf    cn120405   4.791   5.381   3.009 -0.0998 -0.1880  0.0143
 3161ntf    fn420406   5.084   5.283   3.411  0.2772  0.0111  0.5630
 3161ntf    fn420407   5.013   5.454   3.507  0.1991  0.2677 -0.2782
 3161ntf    fn420408   4.971   5.269   3.593  0.3755 -0.2688 -0.0174
 3161ntf    on520409   4.817   5.178   3.342 -1.0816 -0.0618  0.4068
 3161ntf    on520410   4.739   5.357   3.491  0.2041  1.1218  0.2184
 3161ntf    on520411   4.998   5.261   3.103  0.3389 -0.0471  0.6084
 3161ntf    on520412   4.994   5.501   3.084  0.0375  0.1164  0.0414
 3161ntf    fn420413   4.838   5.356   2.887 -0.0840  0.0209 -0.0239
 3161ntf    fn420414   4.701   5.292   3.044 -0.0066 -0.0866  0.5176
 3161ntf    fn420415   4.732   5.499   3.011  0.0531 -0.0963 -0.5465
 3162ntf    cn120416   3.316   3.850   5.205 -0.2480  0.1690  0.2383
 3162ntf    sn220417   3.387   3.799   5.046 -0.1927 -0.0473  0.3308
 3162ntf    nn320418   3.491   3.914   5.020 -0.2688 -0.0701 -0.0812
 3162ntf    sn220419   3.466   4.046   4.940  0.1035 -0.0941 -0.2435
 3162ntf    cn120420   3.512   3.993   4.773  0.0176 -0.1564 -0.2476
 3162ntf    fn420421   3.402   3.880   5.301 -0.2181  0.9070 -0.0125
 3162ntf    fn420422   3.236   3.954   5.195  0.1544  0.4175 -0.4112
 3162ntf    fn420423   3.244   3.755   5.263  0.3461 -0.2613  0.2840
 3162ntf    on520424   3.449   3.671   5.069  0.0728 -0.0506 -0.3652
 3162ntf    on520425   3.271   3.790   4.961 -0.0065 -0.1194  0.0844
 3162ntf    on520426   3.556   4.153   4.977 -0.1574  0.0228  0.0626
 3162ntf    on520427   3.330   4.092   4.926  0.1630  0.3378  0.5038
 3162ntf    fn420428   3.467   3.875   4.732  0.2737 -0.1818 -0.4625
 3162ntf    fn420429   3.457   4.071   4.682 -0.2146  0.4246  0.3901
 3162ntf    fn420430   3.643   3.994   4.754  0.1115  0.3199  0.3965
 3163ntf    cn120431   5.972   6.730   5.642 -0.2935  0.0773  0.4189
 3163ntf    sn220432   5.851   6.753   5.508  0.1180  0.1422  0.0545
 3163ntf    nn320433   5.749   6.638   5.542  0.2935 -0.3175 -0.9367
 3163ntf    sn220434   5.735   6.492   5.485  0.0679 -0.5502 -0.2889
 3163ntf    cn120435   5.620   6.516   5.347  0.1197 -0.0616 -0.2490
 3163ntf    fn420436   5.909   6.689   5.751 -0.0421 -0.3952  0.3936
 3163ntf    fn420437   6.053   6.630   5.611 -0.2712  0.4616 -0.8231
 3163ntf    fn420438   6.046   6.838   5.656 -0.1130 -0.0075  0.1338
 3163ntf    on520439   5.805   6.886   5.539 -0.1341  0.1317 -0.2686
 3163ntf    on520440   5.925   6.744   5.384  0.0500  0.0734  0.0189
 3163ntf    on520441   5.660   6.416   5.583  0.1961  0.0285  0.2683
 3163ntf    on520442   5.857   6.439   5.430  0.3545 -0.0346 -0.1560
 3163ntf    fn420443   5.670   6.604   5.261  0.7864 -0.1704  0.0222
 3163ntf    fn420444   5.591   6.409   5.275 -0.1969 -0.2956  0.2290
 3163ntf    fn420445   5.502   6.561   5.388  0.0051 -0.3485 -0.2592
 3164ntf    cn120446   0.434   0.625   0.222  0.0602 -0.0684 -0.1053
 3164ntf    sn220447   0.270   0.680   0.165  0.1271  0.2017 -0.0391
 3164ntf    nn320448   0.251   0.582   0.044 -0.2772  0.0888  0.1146
 3164ntf    sn220449   0.120   0.502   0.013 -0.0061 -0.1756 -0.3619
 3164ntf    cn120450   0.148   0.342   0.095 -0.3798 -0.1231 -0.1260
 3164ntf    fn420451   0.513   0.610   0.117 -0.1320  0.2097 -0.2935
 3164ntf    fn420452   0.495   0.707   0.307  0.2667 -0.5041  0.1720
 3164ntf    fn420453   0.438   0.508   0.284 -0.3770 -0.0249  0.0083
 3164ntf    on520454   0.182   0.657   0.277  0.0176  0.1397 -0.1388
 3164ntf    on520455   0.306   0.816   0.133  0.4256  0.2037  0.2907
 3164ntf    on520456   0.129   0.478  -0.129  0.0633 -0.4967 -0.3052
 3164ntf    on520457  -0.003   0.557   0.066  0.2843  0.3426 -0.2225
 3164ntf    fn420458   0.229   0.260   0.029  0.2061  0.1168  0.2917
 3164ntf    fn420459   0.200   0.343   0.216 -0.3323  0.3526 -0.1517
 3164ntf    fn420460   0.034   0.276   0.110 -0.6763  0.4602  0.1887
 3165ntf    cn120461   2.240   6.220   4.217  0.6959 -0.3133 -0.3491
 3165ntf    sn220462   2.159   6.383   4.207  0.5397 -0.3365  0.4687
 3165ntf    nn320463   2.282   6.481   4.202  0.2237  0.0162 -0.5545
 3165ntf    sn220464   2.354   6.526   4.070  0.0941  0.0748 -0.6053
 3165ntf    cn120465   2.282   6.692   4.048  0.1754  0.1475 -0.3209
 3165ntf    fn420466   2.305   6.212   4.332 -0.1891 -0.3181  0.1573
 3165ntf    fn420467   2.154   6.120   4.210 -0.5442  0.6501  0.6016
 3165ntf    fn420468   2.325   6.205   4.116 -0.2598 -0.6821 -1.1107
 3165ntf    on520469   2.075   6.377   4.090  0.6248  0.0742  0.3866
 3165ntf    on520470   2.090   6.382   4.333 -0.2563 -0.8573  0.0392
 3165ntf    on520471   2.320   6.449   3.953 -0.4014 -0.7897  0.0932
 3165ntf    on520472   2.493   6.549   4.098 -0.0751  0.0443  0.2774
 3165ntf    fn420473   2.338   6.779   4.131 -0.3385  0.2105 -0.0365
 3165ntf    fn420474   2.310   6.735   3.926  0.0357  0.7867 -0.1304
 3165ntf    fn420475   2.153   6.683   4.076  0.2069 -0.2731 -0.3136
 3166ntf    cn120476   5.961   2.960   3.255 -0.2629  0.0022  0.3120
 3166ntf    sn220477   5.953   2.983   3.435  0.2492  0.2041  0.3118
 3166ntf    nn320478   6.099   3.031   3.465  0.4502 -0.4749  0.4423
 3166ntf    sn220479   6.156   3.128   3.575  0.0357 -0.1397  0.3617
 3166ntf    cn120480   6.166   3.272   3.464  0.1308 -0.1845  0.3118
 3166ntf    fn420481   5.936   3.074   3.192 -0.0747 -0.1547 -0.0459
 3166ntf    fn420482   6.079   2.914   3.215 -0.1930  0.5375 -0.1123
 3166ntf    fn420483   5.869   2.876   3.212 -0.1636  0.0445  0.0132
 3166ntf    on520484   5.859   3.090   3.455 -0.7905 -0.5652 -0.3747
 3166ntf    on520485   5.926   2.851   3.488 -0.7943  0.1373 -0.3630
 3166ntf    on520486   6.293   3.100   3.609  0.0565 -0.4513  0.0319
 3166ntf    on520487   6.062   3.160   3.679 -0.4017  0.0831 -0.0932
 3166ntf    fn420488   6.283   3.281   3.403  0.0225  0.0652  0.1358
 3166ntf    fn420489   6.075   3.267   3.367  0.7033  0.4942 -0.2796
 3166ntf    fn420490   6.145   3.383   3.533 -0.2406 -0.2585  0.3225
 3167ntf    cn120491   6.805   4.306   4.694  0.2036  0.4601 -0.2401
 3167ntf    sn220492   6.701   4.308   4.544 -0.1462  0.1258 -0.0054
 3167ntf    nn320493   6.816   4.283   4.441 -0.2200 -0.6222  0.0901
 3167ntf    sn220494   6.879   4.153   4.380  0.3867 -0.3254  0.0807
 3167ntf    cn120495   6.772   4.116   4.238  0.4938 -0.1267 -0.0526
 3167ntf    fn420496   6.843   4.185   4.732  0.3825  0.6366  0.1454
 3167ntf    fn420497   6.913   4.379   4.676  0.3822  0.2951  0.1512
 3167ntf    fn420498   6.741   4.354   4.799  0.2241 -0.0953  0.0287
 3167ntf    on520499   6.611   4.196   4.553  0.0047  0.0264  0.3153
 3167ntf    on520500   6.648   4.442   4.544  0.1852  0.2556 -0.3660
 3167ntf    on520501   6.875   4.030   4.455  0.1725 -0.3650  0.0045
 3167ntf    on520502   7.006   4.176   4.315  0.0730  0.2957 -0.3157
 3167ntf    fn420503   6.807   4.011   4.166 -0.1621 -0.7119  0.4645
 3167ntf    fn420504   6.643   4.100   4.265  0.3973  0.0634 -0.3880
 3167ntf    fn420505   6.760   4.219   4.156 -0.3457 -0.0032  0.2169
 3168ntf    cn120506   3.888   1.414   0.148  0.6162 -0.0628 -0.4754
 3168ntf    sn220507   3.898   1.594   0.170 -0.0197 -0.0749 -0.0227
 3168ntf    nn320508   3.933   1.632   0.021  0.2548  0.0516  0.0730
 3168ntf    sn220509   3.912   1.769  -0.052  0.1018  0.0244  0.0665
 3168ntf    cn120510   3.760   1.707  -0.131  0.0026  0.0234  0.2555
 3168ntf    fn420511   3.799   1.363   0.064  0.3432  0.0372 -0.2525
 3168ntf    fn420512   4.003   1.360   0.111  0.7214 -0.1312 -0.0626
 3168ntf    fn420513   3.855   1.356   0.263  0.3582 -0.6439 -0.8360
 3168ntf    on520514   3.763   1.620   0.213  0.1968  0.1065  0.5534
 3168ntf    on520515   4.008   1.609   0.262 -0.3213  0.3015  0.2785
 3168ntf    on520516   4.008   1.801  -0.154  0.5282 -0.5591  0.2824
 3168ntf    on520517   3.862   1.867   0.042  0.3252  0.1573  0.0464
 3168ntf    fn420518   3.718   1.781  -0.233 -0.6512  0.2396  0.6742
 3168ntf    fn420519   3.772   1.585  -0.181  0.5176 -0.1463  0.7884
 3168ntf    fn420520   3.657   1.706  -0.048 -0.0649  0.1408  0.1748
 3169ntf    cn120521   1.442   2.290   2.494 -0.0786 -0.1579 -0.2338
 3169ntf    sn220522   1.334   2.162   2.422  0.0332 -0.0501 -0.5982
 3169ntf    nn320523   1.220   2.242   2.350 -0.3097  0.1897  0.1985
 3169ntf    sn220524   1.210   2.290   2.201 -0.0466 -0.5140 -0.0512
 3169ntf    cn120525   1.202   2.125   2.126 -0.3728 -0.2842 -0.5239
 3169ntf    fn420526   1.386   2.389   2.562 -0.0624 -0.0928 -0.3143
 3169ntf    fn420527   1.518   2.239   2.590  0.3553  0.7092 -0.1054
 3169ntf    fn420528   1.535   2.342   2.415 -0.0531  0.7990  0.4051
 3169ntf    on520529   1.423   2.094   2.332  0.0614 -0.4532 -0.2705
 3169ntf    on520530   1.273   2.087   2.529  0.1861  0.6345 -0.0140
 3169ntf    on520531   1.325   2.357   2.144 -0.0827  0.2789  0.7788
 3169ntf    on520532   1.080   2.338   2.160  0.3778  0.3831 -0.3771
 3169ntf    fn420533   1.314   2.073   2.078  0.0815 -0.4570  0.6860
 3169ntf    fn420534   1.165   2.039   2.219  0.1344  0.0590  0.0037
 3169ntf    fn420535   1.109   2.112   2.032 -0.6919  0.0833 -0.2620
 3170ntf    cn120536   0.739   6.236   1.845  0.0335  0.2679 -0.4762
 3170ntf    sn220537   0.559   6.254   1.867  0.0958  0.0010  0.2507
 3170ntf    nn320538   0.506   6.182   1.738  0.6922  0.2014 -0.1103
 3170ntf    sn220539   0.428   6.237   1.614  0.2592 -0.2318 -0.0307
 3170ntf    cn120540   0.259   6.229   1.683  0.3067 -0.0823  0.1039
 3170ntf    fn420541   0.776   6.109   1.850  0.1659  0.3120 -0.3578
 3170ntf    fn420542   0.782   6.293   1.733  1.0128 -0.4529 -0.4821
 3170ntf    fn420543   0.802   6.303   1.939 -0.0519 -0.2028 -0.0814
 3170ntf    on520544   0.544   6.184   1.993 -0.3852 -0.8397 -0.2684
 3170ntf    on520545   0.531   6.395   1.865  0.0232 -0.0205 -0.5006
 3170ntf    on520546   0.432   6.146   1.502 -0.0330  0.2595 -0.4471
 3170ntf    on520547   0.429   6.378   1.583 -0.2692 -0.2448 -0.1143
 3170ntf    fn420548   0.262   6.289   1.801  0.2183 -0.6310  0.3865
 3170ntf    fn420549   0.165   6.297   1.620  0.6501  0.3987  0.1010
 3170ntf    fn420550   0.206   6.111   1.712 -0.0149  0.0028 -0.1353
 3171ntf    cn120551   2.554   2.147   4.548  0.5454 -0.2224 -0.3314
 3171ntf    sn220552   2.524   2.112   4.372  0.2016 -0.4501 -0.2293
 3171ntf    nn320553   2.425   2.230   4.342  0.4462 -0.1033  0.3035
 3171ntf    sn220554   2.457   2.381   4.316 -0.1844 -0.0266 -0.0602
 3171ntf    cn120555   2.471   2.378   4.135 -0.3159 -0.0392 -0.0708
 3171ntf    fn420556   2.649   2.078   4.608 -0.0594  0.0688  1.0100
 3171ntf    fn420557   2.586   2.274   4.570 -0.0526 -0.1856  0.3770
 3171ntf    fn420558   2.447   2.116   4.620  0.6216  0.0041 -0.1163
 3171ntf    on520559   2.654   2.119   4.309  0.0539 -0.0701 -0.4941
 3171ntf    on520560   2.458   1.984   4.372 -0.1040 -0.2930 -0.2250
 3171ntf    on520561   2.586   2.419   4.370 -0.4847  0.3361  0.4139
 3171ntf    on520562   2.341   2.463   4.342 -0.2607 -0.0597 -0.2984
 3171ntf    fn420563   2.590   2.331   4.099 -0.1476  0.5510 -0.3136
 3171ntf    fn420564   2.376   2.300   4.087  0.1501  0.0281 -1.1457
 3171ntf    fn420565   2.458   2.498   4.080  0.1377 -0.0800 -0.2739
 3172ntf    cn120566   4.804   2.920   0.378  0.0816  0.2798  0.1744
 3172ntf    sn220567   4.703   2.988   0.243  0.3055  0.0745 -0.0972
 3172ntf    nn320568   4.810   3.073   0.166  0.1927  0.1240 -0.2001
 3172ntf    sn220569   4.835   3.075   0.011  0.2617  0.2425 -0.1878
 3172ntf    cn120570   4.983   2.972  -0.006  0.2486  0.1667  0.1563
 3172ntf    fn420571   4.892   2.832   0.333 -0.2259  0.2626 -0.3980
 3172ntf    fn420572   4.877   3.010   0.442  0.7334 -0.1900  0.0960
 3172ntf    fn420573   4.724   2.861   0.465 -0.1161 -0.0905 -0.2535
 3172ntf    on520574   4.660   2.866   0.179  0.0225 -0.4128  0.9925
 3172ntf    on520575   4.600   3.072   0.300  0.5187 -0.1369  0.6063
 3172ntf    on520576   4.875   3.206  -0.035 -0.0063  0.3647 -0.0760
 3172ntf    on520577   4.730   3.015  -0.068 -0.6368  0.1514  1.0355
 3172ntf    fn420578   4.949   2.850   0.035 -0.2481  0.1461 -0.3185
 3172ntf    fn420579   5.025   2.965  -0.131 -0.2885  0.4097 -0.0412
 3172ntf    fn420580   5.082   3.022   0.066  0.0937  0.6767  0.0148
 3173ntf    cn120581   4.911   4.297   2.689  0.0407  0.1212 -0.3113
 3173ntf    sn220582   5.076   4.313   2.613 -0.0418  0.0983 -0.4964
 3173ntf    nn320583   5.108   4.162   2.585 -0.4934 -0.0146 -0.4133
 3173ntf    sn220584   5.187   4.104   2.463 -0.1867  0.1842 -0.3096
 3173ntf    cn120585   5.310   3.994   2.541  0.2250  0.6979 -0.2285
 3173ntf    fn420586   4.906   4.196   2.774 -0.3931  0.1866 -0.2573
 3173ntf    fn420587   4.874   4.405   2.756  1.0910  0.4399 -0.2273
 3173ntf    fn420588   4.816   4.267   2.602 -0.1830  0.5162 -0.2032
 3173ntf    on520589   5.050   4.396   2.498 -0.3232  0.2708 -0.3124
 3173ntf    on520590   5.144   4.376   2.724 -0.5736  0.5813 -0.4371
 3173ntf    on520591   5.266   4.199   2.389  0.4156 -0.4458 -0.4888
 3173ntf    on520592   5.103   4.013   2.389 -0.6823  0.0775  0.3727
 3173ntf    fn420593   5.406   4.071   2.589  0.1796  0.7030 -0.1432
 3173ntf    fn420594   5.273   3.925   2.648  0.6958  0.0115 -0.5035
 3173ntf    fn420595   5.372   3.913   2.458 -0.7778 -0.1565 -0.1639
 3174ntf    cn120596   2.742   2.944   6.094  0.2411 -0.3269  0.2316
 3174ntf    sn220597   2.850   3.089   6.077 -0.2429 -0.0026 -0.0940
 3174ntf    nn320598   2.996   3.039   6.105 -0.0780  0.9506  0.8340
 3174ntf    sn220599   3.129   3.075   6.029 -0.3256  0.0630 -0.0327
 3174ntf    cn120600   3.111   3.255   6.015 -0.3794  0.0346 -0.3553
 3174ntf    fn420601   2.769   2.846   6.008  0.0209 -0.0797 -0.1199
 3174ntf    fn420602   2.742   2.898   6.218 -0.0756  0.4754  0.5343
 3174ntf    fn420603   2.616   2.975   6.070  0.3020 -0.1528  0.1332
 3174ntf    on520604   2.824   3.130   5.941  0.0025 -0.3589 -0.2473
 3174ntf    on520605   2.807   3.170   6.189  0.2452 -0.1416  0.1993
 3174ntf    on520606   3.154   3.018   5.899 -0.1311  0.5369 -0.2046
 3174ntf    on520607   3.237   3.071   6.124 -0.3718 -0.3031  0.0053
 3174ntf    fn420608   3.228   3.315   6.001 -0.1889 -0.3935 -0.5918
 3174ntf    fn420609   3.038   3.278   5.908 -0.6456  0.1152 -0.1569
 3174ntf    fn420610   3.059   3.305   6.126 -0.4307 -0.2434 -0.2553
 3175ntf    cn120611   2.712   1.076   4.182 -0.3899  0.1151 -0.2235
 3175ntf    sn220612   2.663   1.191   4.050 -0.4257  0.0430 -0.2723
 3175ntf    nn320613   2.807   1.251   4.037 -0.4242 -0.0215 -0.5555
 3175ntf    sn220614   2.927   1.199   3.949  0.0344  0.0275  0.0336
 3175ntf    cn120615   2.903   1.277   3.787 -0.1199 -0.4325 -0.1658
 3175ntf    fn420616   2.794   1.130   4.271 -0.3049  0.6376 -0.6150
 3175ntf    fn420617   2.612   1.016   4.244 -0.1041 -0.2376 -0.1040
 3175ntf    fn420618   2.785   0.973   4.142 -0.1356  0.2930 -0.2219
 3175ntf    on520619   2.620   1.110   3.939 -0.3716  0.3147 -0.4915
 3175ntf    on520620   2.568   1.280   4.112 -0.4751 -0.2783  0.1215
 3175ntf    on520621   2.919   1.060   3.914 -0.0113  0.1674 -0.5139
 3175ntf    on520622   3.054   1.253   3.990  0.1161 -0.6173  0.6413
 3175ntf    fn420623   2.793   1.241   3.722  0.0093 -0.7018 -0.2354
 3175ntf    fn420624   2.876   1.407   3.792 -0.0403 -0.4084 -0.3632
 3175ntf    fn420625   3.004   1.259   3.704 -0.0594  0.0748 -0.2093
 3176ntf    cn120626   2.770   0.986   2.962  0.3483  0.1331 -0.0958
 3176ntf    sn220627   2.832   1.097   3.091 -0.0659 -0.0104  0.2282
 3176ntf    nn320628   2.957   1.151   3.013 -0.1383  0.0305  0.1395
 3176ntf    sn220629   2.986   1.299   2.970 -0.0505  0.0066  0.1159
 3176ntf    cn120630   3.164   1.304   3.009  0.0099  0.3424 -0.1948
 3176ntf    fn420631   2.875   0.921   2.914 -0.2386 -0.2740 -0.8558
 3176ntf    fn420632   2.674   0.901   2.993 -0.1183  0.4118 -0.7494
 3176ntf    fn420633   2.716   1.053   2.861  0.1235 -0.3752 -0.3145
 3176ntf    on520634   2.718   1.185   3.098 -0.0990 -0.0382  0.0253
 3176ntf    on520635   2.872   1.012   3.200  0.2287 -0.1275  0.0291
 3176ntf    on520636   2.938   1.400   3.062  0.1171  0.1298  0.0701
 3176ntf    on520637   2.977   1.320   2.828 -0.2357 -0.4265  0.0642
 3176ntf    fn420638   3.248   1.249   2.923 -0.1706  0.4741 -0.4555
 3176ntf    fn420639   3.205   1.430   3.007 -0.0565  0.3620 -0.3363
 3176ntf    fn420640   3.198   1.257   3.128  0.3440  0.6571 -0.1643
 3177ntf    cn120641   1.574   3.030   6.038 -0.1868 -0.2599 -0.1639
 3177ntf    sn220642   1.405   2.967   6.011 -0.3119  0.0942 -0.2116
 3177ntf    nn320643   1.424   2.903   5.869  0.0098  0.3541 -0.2869
 3177ntf    sn220644   1.404   2.958   5.724 -0.0225  0.1076 -0.3757
 3177ntf    cn120645   1.229   2.914   5.699 -0.0522  0.1874 -0.3068
 3177ntf    fn420646   1.667   2.936   6.040  0.4867  0.4144  0.4234
 3177ntf    fn420647   1.608   3.110   5.939 -0.3556  0.0271  0.0082
 3177ntf    fn420648   1.588   3.096   6.152  0.1289 -0.2977 -0.1804
 3177ntf    on520649   1.385   2.875   6.120  0.7365  0.2641  0.1393
 3177ntf    on520650   1.321   3.084   6.004  0.1265  0.3991 -0.4497
 3177ntf    on520651   1.475   2.874   5.630 -0.3429 -0.0729 -0.4586
 3177ntf    on520652   1.420   3.101   5.714  0.1863  0.0698 -0.5849
 3177ntf    fn420653   1.207   2.892   5.571  0.8367  0.4662 -0.5113
 3177ntf    fn420654   1.193   2.804   5.765  0.7585  0.2910  0.3209
 3177ntf    fn420655   1.146   3.010   5.735 -0.5634 -0.4622  0.2941
 3178ntf    cn120656   0.076   2.366   6.023  0.1853  0.6943 -0.1190
 3178ntf    sn220657   0.005   2.371   6.190  0.3187  0.6414 -0.0595
 3178ntf    nn320658   0.122   2.325   6.283 -0.4629 -0.1898  0.5340
 3178ntf    sn220659   0.187   2.183   6.297 -0.1447 -0.1455 -0.4440
 3178ntf    cn120660   0.326   2.232   6.404 -0.3846 -0.1170 -0.1425
 3178ntf    fn420661   0.204   2.401   6.024  0.4407 -0.1877 -0.3978
 3178ntf    fn420662   0.066   2.244   5.972 -0.6294  0.6963  0.0206
 3178ntf    fn420663   0.008   2.447   5.945  0.1258  0.0576 -0.7403
 3178ntf    on520664  -0.017   2.513   6.206 -0.5857  0.5335 -0.2824
 3178ntf    on520665  -0.111   2.285   6.186  0.5252  0.3756 -0.2614
 3178ntf    on520666   0.259   2.132   6.182 -0.3947 -0.2475 -0.5552
 3178ntf    on520667   0.121   2.088   6.383  0.7028  0.4204  0.8712
 3178ntf    fn420668   0.294   2.269   6.526  0.2841  0.0896 -0.0236
 3178ntf    fn420669   0.412   2.132   6.417 -0.5231 -0.1796  0.2805
 3178ntf    fn420670   0.397   2.332   6.355 -0.3052  0.2048  0.6219
 3179ntf    cn120671   6.182   3.561   4.145 -0.0607  0.0101 -0.0042
 3179ntf    sn220672   6.337   3.634   4.207 -0.0461  0.0926 -0.1376
 3179ntf    nn320673   6.447   3.558   4.125  0.5261  0.7168  0.0436
 3179ntf    sn220674   6.589   3.504   4.166  0.3495  0.0524 -0.1998
 3179ntf    cn120675   6.693   3.635   4.094  0.1651  0.0024 -0.5629
 3179ntf    fn420676   6.178   3.554   4.013 -0.4581 -0.4639  0.0334
 3179ntf    fn420677   6.168   3.436   4.185  0.1215  0.0374  0.1469
 3179ntf    fn420678   6.070   3.620   4.184  0.0122 -0.3100  0.6960
 3179ntf    on520679   6.323   3.771   4.163 -0.0557  0.0121 -0.3877
 3179ntf    on520680   6.322   3.606   4.348  0.3140  0.5953  0.0032
 3179ntf    on520681   6.622   3.381   4.099 -0.2241 -0.2901  0.1453
 3179ntf    on520682   6.617   3.504   4.307 -0.2762  0.2230 -0.0762
 3179ntf    fn420683   6.820   3.597   4.088  0.4275  0.6449  0.4707
 3179ntf    fn420684   6.659   3.674   3.973  0.1236  0.2945 -0.4607
 3179ntf    fn420685   6.690   3.747   4.166 -0.2419 -0.1948 -0.2683
 3180ntf    cn120686   3.428   6.050   0.660 -0.2640  0.2663 -0.0521
 3180ntf    sn220687   3.424   6.211   0.575 -0.1022  0.2065 -0.1743
 3180ntf    nn320688   3.274   6.256   0.590  0.0545  0.6251  0.1427
 3180ntf    sn220689   3.185   6.230   0.716 -0.1723  0.1110 -0.1242
 3180ntf    cn120690   3.081   6.379   0.726  0.4113  0.5394 -0.3755
 3180ntf    fn420691   3.318   5.988   0.622 -0.2968  0.4294 -0.2251
 3180ntf    fn420692   3.526   5.972   0.617  0.0519  0.1121  0.9190
 3180ntf    fn420693   3.426   6.056   0.792 -0.5354 -0.1949 -0.0356
 3180ntf    on520694   3.522   6.286   0.650 -0.9293  0.7473  0.3817
 3180ntf    on520695   3.468   6.182   0.441  0.3074 -0.9932  0.2033
 3180ntf    on520696   3.261   6.235   0.838  0.0595 -0.3217 -0.2488
 3180ntf    on520697   3.093   6.120   0.696 -0.1400 -0.0606  0.6532
 3180ntf    fn420698   3.144   6.494   0.714  0.8645  0.3134 -0.1832
 3180ntf    fn420699   2.992   6.381   0.629  0.5111  0.2663 -0.4741
 3180ntf    fn420700   3.009   6.385   0.837  0.7413 -0.5359 -0.0913
 3181ntf    cn120701   1.357   6.180   4.676  0.6182  0.3043 -0.4090
 3181ntf    sn220702   1.520   6.155   4.752  0.3410  0.0153  0.0948
 3181ntf    nn320703   1.566   6.015   4.697  0.1971  0.0803 -0.1908
 3181ntf    sn220704   1.701   5.937   4.717  0.0978 -0.0430  0.0051
 3181ntf    cn120705   1.753   5.971   4.546 -0.2977 -0.3651 -0.1789
 3181ntf    fn420706   1.293   6.293   4.703  0.0789 -0.1492  0.2393
 3181ntf    fn420707   1.371   6.183   4.545  0.1747 -0.3086 -0.4737
 3181ntf    fn420708   1.268   6.087   4.706  0.2422  0.8245  0.1232
 3181ntf    on520709   1.589   6.269   4.698  0.7436 -0.2386  0.0629
 3181ntf    on520710   1.489   6.151   4.893  0.6713 -0.3959  0.1598
 3181ntf    on520711   1.683   5.795   4.729  1.1245 -0.1798 -0.0271
 3181ntf    on520712   1.791   6.004   4.807  0.3788  0.2233 -0.4689
 3181ntf    fn420713   1.668   5.929   4.453 -0.0545 -0.2599 -0.4521
 3181ntf    fn420714   1.770   6.101   4.530  0.1834 -0.4284 -0.1928
 3181ntf    fn420715   1.869   5.915   4.515 -0.5272 -1.0632  0.1886
 3182ntf    cn120716   2.610   0.143   0.017  0.3892  0.0136  0.2471
 3182ntf    sn220717   2.664   0.215   0.175  0.2708 -0.2729  0.4187
 3182ntf    nn320718   2.529   0.239   0.250 -0.3789 -0.2135 -0.7467
 3182ntf    sn220719   2.411   0.331   0.203 -0.4814  0.0347 -0.0223
 3182ntf    cn120720   2.261   0.264   0.283 -0.2531  0.0705  0.4393
 3182ntf    fn420721   2.585   0.235  -0.075 -0.2260 -0.5595 -0.1643
 3182ntf    fn420722   2.707   0.075  -0.042 -0.3416 -0.7370 -0.1066
 3182ntf    fn420723   2.507   0.062   0.029  0.2867  0.1442  0.2533
 3182ntf    on520724   2.747   0.111   0.233  0.3408 -0.0169  0.7814
 3182ntf    on520725   2.725   0.338   0.132 -0.1425 -0.2302 -0.0523
 3182ntf    on520726   2.383   0.323   0.062  0.0917  0.4012 -0.1605
 3182ntf    on520727   2.415   0.463   0.262 -0.0276  0.1602 -0.3346
 3182ntf    fn420728   2.157   0.328   0.233  0.0303  0.0293 -0.2297
 3182ntf    fn420729   2.240   0.135   0.265  0.2123  0.0571 -0.0685
 3182ntf    fn420730   2.272   0.294   0.411 -0.1999 -0.1438  0.4849
 3183ntf    cn120731   3.351   5.096   6.481  0.0533  0.2938 -0.0475
 3183ntf    sn220732   3.441   5.049   6.632 -0.0988  0.0839 -0.0230
 3183ntf    nn320733   3.467   4.897   6.603  0.0330  0.1166 -0.0772
 3183ntf    sn220734   3.502   4.783   6.706 -0.3673  0.1362  0.0815
 3183ntf    cn120735   3.682   4.770   6.685 -0.3385  0.1247  0.3325
 3183ntf    fn420736   3.264   5.194   6.502 -0.2410 -0.0058  0.1367
 3183ntf    fn420737   3.429   5.129   6.379  0.0249  0.0001 -0.1632
 3183ntf    fn420738   3.286   4.993   6.431  0.4003  0.0497  0.0035
 3183ntf    on520739   3.555   5.137   6.629 -0.4430  0.5409  0.2420
 3183ntf    on520740   3.341   5.075   6.733 -0.2074 -0.1838 -0.0605
 3183ntf    on520741   3.464   4.648   6.672 -1.0018  0.3461 -0.0709
 3183ntf    on520742   3.492   4.812   6.847 -0.3376 -0.2444  0.1616
 3183ntf    fn420743   3.749   4.883   6.698  0.0075 -0.0799  0.3151
 3183ntf    fn420744   3.729   4.688   6.777  0.1315 -0.4627 -0.4150
 3183ntf    fn420745   3.715   4.719   6.567  0.5081  0.7789  0.2814
 3184ntf    cn120746   5.920   6.841   2.413  0.1195 -0.0443  0.1923
 3184ntf    sn220747   5.809   6.972   2.354  0.1446 -0.0196  0.2008
 3184ntf    nn320748   5.671   6.899   2.368  0.4290 -0.6023 -0.0020
 3184ntf    sn220749   5.574   6.844   2.258 -0.1185  0.1827  0.0773
 3184ntf    cn120750   5.408   6.874   2.327 -0.1024 -0.2483  0.3116
 3184ntf    fn420751   5.868   6.775   2.516  0.5340  0.0228  0.4476
 3184ntf    fn420752   5.939   6.750   2.319 -0.3639 -0.1304  0.1792
 3184ntf    fn420753   6.044   6.877   2.443 -0.0490  0.1964  0.6068
 3184ntf    on520754   5.815   7.078   2.452  0.0495 -0.1304  0.3264
 3184ntf    on520755   5.837   7.007   2.217  0.3909 -0.6757  0.0801
 3184ntf    on520756   5.572   6.700   2.248  0.0416  0.2076 -0.3388
 3184ntf    on520757   5.564   6.923   2.139  0.2855  0.0724 -0.0315
 3184ntf    fn420758   5.400   6.997   2.376 -0.1139 -0.1358  0.0275
 3184ntf    fn420759   5.314   6.866   2.235  0.1305 -0.2963  0.0756
 3184ntf    fn420760   5.367   6.795   2.424 -0.2279 -0.4492  0.0941
 3185ntf    cn120761   4.266   5.396   2.029  0.1521 -0.5412  0.2330
 3185ntf    sn220762   4.219   5.261   1.916  0.4347 -0.1649 -0.3340
 3185ntf    nn320763   4.305   5.142   1.972  0.1487  0.1077  0.7095
 3185ntf    sn220764   4.262   4.993   1.992  0.1335  0.0727  0.4199
 3185ntf    cn120765   4.178   5.006   2.152 -0.1127  0.5145  0.2543
 3185ntf    fn420766   4.397   5.414   2.037  0.0998 -0.3876  0.7866
 3185ntf    fn420767   4.201   5.507   1.997  0.3377 -0.4962  0.0178
 3185ntf    fn420768   4.223   5.366   2.151 -0.4695 -0.6278 -0.0039
 3185ntf    on520769   4.078   5.250   1.944  0.3344  0.3905 -0.6015
 3185ntf    on520770   4.252   5.313   1.785  0.1885  0.5568 -0.1189
 3185ntf    on520771   4.384   4.920   2.018  0.5001  0.6395  0.3042
 3185ntf    on520772   4.156   4.942   1.908  0.1854 -0.2255  0.5331
 3185ntf    fn420773   4.067   5.079   2.157 -0.2522  0.2711  0.8559
 3185ntf    fn420774   4.153   4.886   2.201  0.5187  0.4392  0.4004
 3185ntf    fn420775   4.250   5.068   2.244  1.0302 -0.3754 -0.0265
 3186ntf    cn120776   4.428   6.138   2.598 -0.3297 -0.2563 -0.0309
 3186ntf    sn220777   4.440   5.973   2.674  0.0514 -0.2277 -0.0301
 3186ntf    nn320778   4.583   5.966   2.738  0.0860 -0.2757 -0.1140
 3186ntf    sn220779   4.615   5.901   2.878  0.3742  0.1163  0.0042
 3186ntf    cn120780   4.759   5.802   2.828  0.3479  0.1599 -0.1597
 3186ntf    fn420781   4.301   6.170   2.575 -0.2735  0.0944  0.1512
 3186ntf    fn420782   4.468   6.229   2.685 -0.0775 -0.1876 -0.2183
 3186ntf    fn420783   4.487   6.142   2.480 -0.2451 -0.4395  0.0058
 3186ntf    on520784   4.338   5.976   2.776  0.1162 -0.3000  0.0369
 3186ntf    on520785   4.413   5.866   2.581 -0.0701 -0.3509  0.1483
 3186ntf    on520786   4.531   5.800   2.936  0.6830  0.0288  0.3028
 3186ntf    on520787   4.667   6.008   2.960  0.1560  0.2149  0.0154
 3186ntf    fn420788   4.793   5.703   2.908  0.0765  0.3652  0.2167
 3186ntf    fn420789   4.738   5.743   2.712  0.1932  0.0452 -0.0734
 3186ntf    fn420790   4.869   5.875   2.814 -0.0510  0.9848  0.8020
 3187ntf    cn120791   4.388   0.468   3.773  0.5331 -0.0736  0.3648
 3187ntf    sn220792   4.416   0.606   3.658  0.2923 -0.2498  0.0948
 3187ntf    nn320793   4.510   0.695   3.747  0.2810  0.2266 -0.3663
 3187ntf    sn220794   4.557   0.845   3.741  0.2009  0.2546 -0.3043
 3187ntf    cn120795   4.737   0.822   3.725  0.1674  0.0971 -0.4571
 3187ntf    fn420796   4.315   0.369   3.724 -0.0180  0.4148  0.1947
 3187ntf    fn420797   4.504   0.407   3.794  0.0439 -0.9118  0.6426
 3187ntf    fn420798   4.326   0.502   3.884  0.1249  0.4240 -0.0126
 3187ntf    on520799   4.492   0.543   3.552 -0.0425 -0.0263 -0.2811
 3187ntf    on520800   4.290   0.671   3.633  0.3925  0.0974  0.4770
 3187ntf    on520801   4.539   0.916   3.865 -0.2238  0.6857 -0.6091
 3187ntf    on520802   4.520   0.911   3.618 -0.2731  0.4105 -0.0793
 3187ntf    fn420803   4.789   0.816   3.847 -0.5229 -0.0185 -0.1589
 3187ntf    fn420804   4.769   0.710   3.663  0.0461  0.1554 -0.6266
 3187ntf    fn420805   4.800   0.927   3.675 -0.1437  0.4191 -0.1781
 3188ntf    cn120806   6.508   4.447   5.025  0.2837 -0.0713  0.0975
 3188ntf    sn220807   6.376   4.528   5.120  0.1100 -0.2138 -0.0200
 3188ntf    nn320808   6.454   4.579   5.247 -0.1911 -0.1906  0.1576
 3188ntf    sn220809   6.407   4.690   5.346 -0.0129 -0.0458  0.0801
 3188ntf    cn120810   6.391   4.581   5.491 -0.2123 -0.0631  0.0458
 3188ntf    fn420811   6.587   4.540   4.975  0.2332  0.0913  0.3207
 3188ntf    fn420812   6.577   4.358   5.094  0.0081  0.1517  0.6667
 3188ntf    fn420813   6.464   4.383   4.918 -0.1603 -0.3001  0.4106
 3188ntf    on520814   6.350   4.633   5.024 -0.2146 -0.0174  0.2825
 3188ntf    on520815   6.280   4.423   5.142 -0.4007  0.1370 -0.5406
 3188ntf    on520816   6.273   4.743   5.330 -0.0289 -0.0196  0.2864
 3188ntf    on520817   6.511   4.785   5.377 -0.3379  0.3382  0.0085
 3188ntf    fn420818   6.308   4.479   5.479 -0.4420  0.1921 -0.5701
 3188ntf    fn420819   6.506   4.522   5.520 -0.3348 -0.2506  0.1471
 3188ntf    fn420820   6.351   4.647   5.599 -0.5103  0.4580 -0.3740
 3189ntf    cn120821   5.318   1.742   6.822  0.1388 -0.1725 -0.2986
 3189ntf    sn220822   5.374   1.601   6.723 -0.3377 -0.3577 -0.3104
 3189ntf    nn320823   5.496   1.663   6.646 -0.1448 -0.0371  0.2566
 3189ntf    sn220824   5.505   1.691   6.492 -0.0594  0.1689  0.2984
 3189ntf    cn120825   5.578   1.539   6.424 -0.1077  0.0327  0.5483
 3189ntf    fn420826   5.208   1.714   6.889 -0.0655  0.4127 -0.3764
 3189ntf    fn420827   5.407   1.779   6.912  0.1011 -1.0219  0.0936
 3189ntf    fn420828   5.297   1.846   6.742 -0.4624  0.1913  0.3224
 3189ntf    on520829   5.411   1.505   6.824 -0.1602  0.2256  0.1823
 3189ntf    on520830   5.261   1.569   6.639 -0.5045 -0.1440 -0.1658
 3189ntf    on520831   5.610   1.783   6.458 -0.5170  0.2876 -0.8608
 3189ntf    on520832   5.386   1.723   6.417  0.3594 -0.3436 -0.6032
 3189ntf    fn420833   5.705   1.516   6.455 -0.0003 -0.3247 -0.1374
 3189ntf    fn420834   5.510   1.430   6.452 -0.3596  0.1421  0.3596
 3189ntf    fn420835   5.578   1.537   6.292  0.2176 -0.1231  0.5487
 3190ntf    cn120836   2.842   0.623   2.268  0.2054 -0.1067 -0.0380
 3190ntf    sn220837   2.739   0.478   2.231  0.0871  0.0138 -0.1865
 3190ntf    nn320838   2.649   0.476   2.360 -0.0904  0.5401 -0.3033
 3190ntf    sn220839   2.496   0.445   2.374  0.0260  0.0900 -0.0487
 3190ntf    cn120840   2.419   0.608   2.357 -0.3248 -0.0556  0.1295
 3190ntf    fn420841   2.767   0.732   2.263 -0.0164 -0.2813 -0.6860
 3190ntf    fn420842   2.894   0.620   2.389 -0.1183  0.5294  0.1228
 3190ntf    fn420843   2.938   0.638   2.178 -0.1845  0.2676 -0.4002
 3190ntf    on520844   2.677   0.523   2.109  0.0677  0.1946 -0.1098
 3190ntf    on520845   2.826   0.363   2.223  0.1015  0.0044  0.0845
 3190ntf    on520846   2.459   0.409   2.509  0.5360 -0.3927 -0.0311
 3190ntf    on520847   2.444   0.366   2.265  0.0926  0.2187 -0.1740
 3190ntf    fn420848   2.292   0.612   2.397 -0.3512  0.3057  0.0121
 3190ntf    fn420849   2.482   0.694   2.435 -0.3980  0.4383 -0.3463
 3190ntf    fn420850   2.423   0.665   2.238 -0.4665 -0.1486  0.0801
 3191ntf    cn120851   0.458   1.732   3.460 -0.2358  0.0559 -0.0648
 3191ntf    sn220852   0.435   1.632   3.310 -0.1254  0.0794 -0.0977
 3191ntf    nn320853   0.336   1.731   3.240  0.0524  0.7036  0.5243
 3191ntf    sn220854   0.201   1.692   3.168  0.4972 -0.1770  0.1495
 3191ntf    cn120855   0.084   1.722   3.304  0.3753 -0.1068  0.0296
 3191ntf    fn420856   0.519   1.661   3.554  0.2165  0.5809  0.0433
 3191ntf    fn420857   0.547   1.828   3.440 -0.1848  0.0191 -0.0152
 3191ntf    fn420858   0.349   1.777   3.519 -0.0086  0.1503  0.2884
 3191ntf    on520859   0.570   1.638   3.258 -0.0294  0.3289  0.1830
 3191ntf    on520860   0.375   1.510   3.358 -0.3388  0.3952  0.4516
 3191ntf    on520861   0.181   1.554   3.134 -0.1737 -0.0645  0.0743
 3191ntf    on520862   0.168   1.791   3.069 -0.2407 -0.7158 -0.1448
 3191ntf    fn420863   0.098   1.633   3.401  0.1390 -0.4011 -0.2048
 3191ntf    fn420864   0.096   1.845   3.353  0.0046  0.0527 -0.2818
 3191ntf    fn420865  -0.041   1.702   3.268  0.3890 -0.6230  0.2589
 3192ntf    cn120866   5.477   5.797   2.619 -0.1881 -0.0888  0.1638
 3192ntf    sn220867   5.436   5.735   2.785 -0.1089 -0.1472  0.1613
 3192ntf    nn320868   5.459   5.859   2.878  0.2060  0.2461 -0.4341
 3192ntf    sn220869   5.448   5.873   3.034 -0.2823 -0.0452 -0.4381
 3192ntf    cn120870   5.625   5.865   3.074 -0.2400 -0.0258 -0.6236
 3192ntf    fn420871   5.605   5.828   2.603 -0.1724 -0.3072 -0.1373
 3192ntf    fn420872   5.454   5.712   2.521  0.4504 -0.6197  0.4663
 3192ntf    fn420873   5.404   5.902   2.588  0.0075  0.0893  0.3019
 3192ntf    on520874   5.298   5.692   2.788 -0.0533 -0.3306  0.1785
 3192ntf    on520875   5.527   5.624   2.798  0.4392  0.2096 -0.5607
 3192ntf    on520876   5.397   5.759   3.106 -0.1242  0.2358  0.1249
 3192ntf    on520877   5.402   6.001   3.084 -0.1036 -0.1133 -0.0904
 3192ntf    fn420878   5.702   5.915   2.978 -0.1481  0.3476 -0.3595
 3192ntf    fn420879   5.672   5.920   3.185 -0.5323 -0.1403 -0.4435
 3192ntf    fn420880   5.658   5.737   3.084  0.2676  0.1317 -0.2345
 3193ntf    cn120881   2.272   5.929   4.827  0.4570 -0.0101 -0.1677
 3193ntf    sn220882   2.308   5.761   4.768 -0.2826 -0.2254 -0.0231
 3193ntf    nn320883   2.365   5.775   4.622  0.1891 -0.5853  0.1223
 3193ntf    sn220884   2.289   5.761   4.486  0.2218 -0.2989  0.0741
 3193ntf    cn120885   2.281   5.936   4.437  0.1840 -0.2433  0.2783
 3193ntf    fn420886   2.172   5.971   4.750 -0.0516  0.4535  0.7284
 3193ntf    fn420887   2.226   5.934   4.951  0.4024  0.4033 -0.2019
 3193ntf    fn420888   2.373   6.013   4.816  0.5301 -0.0825 -0.0474
 3193ntf    on520889   2.396   5.716   4.873  0.0412  0.0855 -0.1608
 3193ntf    on520890   2.182   5.691   4.776 -0.4149  0.0316  0.1543
 3193ntf    on520891   2.152   5.715   4.483  0.1818 -0.1543 -0.3864
 3193ntf    on520892   2.376   5.704   4.386 -0.3595 -0.2988 -0.4447
 3193ntf    fn420893   2.400   5.991   4.452  0.2256 -0.3913  0.4861
 3193ntf    fn420894   2.242   5.955   4.312 -0.1246 -0.1547  0.3854
 3193ntf    fn420895   2.193   6.007   4.507  0.3941  0.2814  0.0165
 3194ntf    cn120896   2.205   6.121   1.408  0.5159 -0.1522  0.3264
 3194ntf    sn220897   2.135   6.111   1.240  0.4891 -0.1462  0.3373
 3194ntf    nn320898   2.228   5.995   1.188  0.0205 -0.4800  0.2369
 3194ntf    sn220899   2.351   5.993   1.091 -0.1003 -0.0733  0.0729
 3194ntf    cn120900   2.282   6.050   0.933 -0.2282 -0.0178  0.1486
 3194ntf    fn420901   2.326   6.172   1.400  0.3893  0.0250 -0.6552
 3194ntf    fn420902   2.135   6.205   1.482  0.5311  0.0395  0.1240
 3194ntf    fn420903   2.225   6.007   1.472  0.4199 -0.0770  0.4900
 3194ntf    on520904   2.000   6.071   1.272  0.1575  0.6569 -0.0436
 3194ntf    on520905   2.155   6.242   1.183  0.1332 -0.0113  0.5221
 3194ntf    on520906   2.404   5.861   1.072 -0.5918 -0.2767  0.1085
 3194ntf    on520907   2.454   6.090   1.123  0.3220 -0.4876 -0.0258
 3194ntf    fn420908   2.245   6.177   0.933 -0.5559 -0.1131  0.4551
 3194ntf    fn420909   2.372   6.034   0.837 -0.5344 -0.5148 -0.0634
 3194ntf    fn420910   2.177   5.978   0.896 -0.3025  0.3070 -0.2875
 3195ntf    cn120911   7.089   4.734   1.768  0.0813 -0.5021 -0.0161
 3195ntf    sn220912   6.968   4.722   1.903  0.0385  0.2467  0.0162
 3195ntf    nn320913   7.066   4.656   2.007 -0.7174 -0.2429  0.4266
 3195ntf    sn220914   7.177   4.733   2.086 -0.3299 -0.2197 -0.1341
 3195ntf    cn120915   7.102   4.705   2.249 -0.0083  0.5505  0.1508
 3195ntf    fn420916   7.043   4.774   1.650 -0.4783  0.4108  0.5047
 3195ntf    fn420917   7.182   4.823   1.797 -0.3166  0.1479 -0.6836
 3195ntf    fn420918   7.159   4.624   1.748 -0.0255 -0.5685 -0.0317
 3195ntf    on520919   6.909   4.850   1.932 -0.2143  0.1161  0.0810
 3195ntf    on520920   6.872   4.619   1.871  0.4531 -0.0339 -0.3453
 3195ntf    on520921   7.179   4.876   2.069 -0.1100 -0.1996  0.0505
 3195ntf    on520922   7.300   4.659   2.097  0.0523  0.3561 -0.4554
 3195ntf    fn420923   7.184   4.752   2.342  0.0474  0.4184  0.1678
 3195ntf    fn420924   6.982   4.760   2.251 -0.3491 -0.1754  0.1528
 3195ntf    fn420925   7.099   4.576   2.277  0.0683  0.4683 -0.2182
 3196ntf    cn120926   1.441   1.896   4.909 -0.0030  0.3948  0.0522
 3196ntf    sn220927   1.496   2.034   4.804  0.1329  0.3825  0.1066
 3196ntf    nn320928   1.618   2.074   4.894  0.1840  0.7586 -0.1273
 3196ntf    sn220929   1.768   2.028   4.884 -0.0516 -0.0219 -0.1387
 3196ntf    cn120930   1.801   1.996   5.060  0.3635  0.3614 -0.1441
 3196ntf    fn420931   1.324   1.845   4.872  0.0878  0.4065 -0.2574
 3196ntf    fn420932   1.523   1.793   4.902  0.2158  0.6127 -0.6910
 3196ntf    fn420933   1.428   1.930   5.036 -0.1898 -0.2818  0.2212
 3196ntf    on520934   1.509   1.974   4.674 -0.5839  0.4369  0.0019
 3196ntf    on520935   1.390   2.132   4.818 -0.2289  0.0828 -0.5030
 3196ntf    on520936   1.850   2.143   4.855 -0.1038 -0.0083 -0.2311
 3196ntf    on520937   1.794   1.904   4.816  0.8346  0.2914 -0.3802
 3196ntf    fn420938   1.926   1.958   5.081  0.4494  0.1211 -1.0449
 3196ntf    fn420939   1.773   2.100   5.136 -0.0724  0.4387 -0.4097
 3196ntf    fn420940   1.733   1.891   5.103  1.2132 -0.2138 -0.1818
 3197ntf    cn120941   7.033   1.041   0.964 -0.2125  0.6397  0.1563
 3197ntf    sn220942   7.027   0.933   1.109  0.1713 -0.0763 -0.3529
 3197ntf    nn320943   7.100   1.020   1.218 -0.0153 -0.1645 -0.1547
 3197ntf    sn220944   7.044   1.067   1.356 -0.3622 -0.0392 -0.3362
 3197ntf    cn120945   6.957   1.219   1.306  0.0837  0.3250 -0.0193
 3197ntf    fn420946   7.159   1.067   0.930 -0.3361  0.4556 -0.4504
 3197ntf    fn420947   6.970   0.994   0.858  0.1479 -0.0411  0.2399
 3197ntf    fn420948   6.980   1.158   0.995 -0.3634  0.5407  0.2707
 3197ntf    on520949   6.886   0.910   1.133  0.3968 -0.5457  0.6130
 3197ntf    on520950   7.105   0.816   1.077 -0.1117 -0.6232  0.8959
 3197ntf    on520951   7.151   1.119   1.437 -0.4395  0.5053 -0.5719
 3197ntf    on520952   6.946   0.985   1.422 -0.0495 -0.3284 -0.2328
 3197ntf    fn420953   6.881   1.261   1.406 -0.2515 -0.0672 -0.1039
 3197ntf    fn420954   7.033   1.323   1.279 -0.2488  0.5619 -0.0467
 3197ntf    fn420955   6.875   1.198   1.204 -0.2182  0.5603  0.1729
 3198ntf    cn120956   1.157   3.209   2.320 -0.3856  0.1468  0.3066
 3198ntf    sn220957   1.315   3.119   2.307 -0.4922  0.0077 -0.0266
 3198ntf    nn320958   1.436   3.195   2.373 -0.1520 -0.1051 -0.5136
 3198ntf    sn220959   1.535   3.307   2.325  0.1175 -0.1720 -0.1194
 3198ntf    cn120960   1.689   3.253   2.405  0.1467 -0.0693 -0.1058
 3198ntf    fn420961   1.102   3.213   2.441 -0.2930 -0.2839  0.3662
 3198ntf    fn420962   1.166   3.338   2.293  0.5595  0.1012  0.3504
 3198ntf    fn420963   1.066   3.156   2.241  0.3051  0.0443 -0.4392
 3198ntf    on520964   1.279   2.996   2.373  0.0776  0.0627  0.3948
 3198ntf    on520965   1.338   3.112   2.165 -0.5230 -0.4274 -0.0116
 3198ntf    on520966   1.504   3.428   2.397  0.4841  0.0705 -0.3652
 3198ntf    on520967   1.564   3.329   2.185 -0.2527  0.2865 -0.1257
 3198ntf    fn420968   1.677   3.238   2.535  0.1237 -0.8239 -0.1890
 3198ntf    fn420969   1.725   3.139   2.347  0.8420 -0.0916  0.3602
 3198ntf    fn420970   1.793   3.332   2.383 -0.0013 -0.0136 -0.6383
 3199ntf    cn120971   3.764   4.749   3.602  0.1804  0.3427  0.2521
 3199ntf    sn220972   3.757   4.793   3.425 -0.1031 -0.0126  0.1739
 3199ntf    nn320973   3.705   4.940   3.445 -0.2682 -0.1276  0.6160
 3199ntf    sn220974   3.785   5.064   3.497  0.0386 -0.0443 -0.0459
 3199ntf    cn120975   3.749   5.179   3.361 -0.3952 -0.1736 -0.0408
 3199ntf    fn420976   3.652   4.779   3.666  0.0098 -0.0716  0.1532
 3199ntf    fn420977   3.784   4.619   3.615  0.2158  0.3261  0.0379
 3199ntf    fn420978   3.858   4.812   3.670  0.4493 -0.3466  0.5242
 3199ntf    on520979   3.893   4.779   3.379 -0.1741 -0.1267 -0.0030
 3199ntf    on520980   3.661   4.704   3.365  0.2514 -0.6116  0.4816
 3199ntf    on520981   3.929   5.055   3.491  0.0233 -0.2600 -0.0834
 3199ntf    on520982   3.717   5.125   3.608 -0.1509 -0.1192 -0.1218
 3199ntf    fn420983   3.621   5.192   3.329 -0.3554  0.4398  0.0410
 3199ntf    fn420984   3.790   5.299   3.399  0.1551 -0.4042  0.0925
 3199ntf    fn420985   3.821   5.153   3.253 -0.1682  0.4447 -0.0433
 3200ntf    cn120986   2.742   2.349   2.421  0.2311  0.1563  0.0609
 3200ntf    sn220987   2.676   2.183   2.388 -0.0444  0.2540  0.1179
 3200ntf    nn320988   2.599   2.148   2.520 -0.3174 -0.1230 -0.1381
 3200ntf    sn220989   2.655   2.053   2.632  0.2498  0.2247 -0.1228
 3200ntf    cn120990   2.592   2.130   2.783  0.2222  0.0509 -0.0452
 3200ntf    fn420991   2.653   2.445   2.446 -0.1000 -0.1357  0.0093
 3200ntf    fn420992   2.820   2.367   2.527  0.4878  0.2074 -0.1367
 3200ntf    fn420993   2.797   2.397   2.311 -0.8436  0.4813 -0.3486
 3200ntf    on520994   2.579   2.206   2.283 -0.1205 -0.3063  0.0650
 3200ntf    on520995   2.793   2.105   2.357  0.1012  0.3041  0.5383
 3200ntf    on520996   2.798   2.053   2.649  0.2070 -0.5828  0.2904
 3200ntf    on520997   2.584   1.927   2.632  0.3677  0.1576  0.1290
 3200ntf    fn420998   2.460   2.129   2.801  0.2092 -0.2520 -0.1603
 3200ntf    fn420999   2.637   2.072   2.893  0.4098  0.1754 -0.0558
 3200ntf    fn421000   2.622   2.259   2.789 -0.1300  0.1339 -0.0528
 3201ntf    cn121001   3.872   2.375   0.547 -0.4005  0.0151 -0.2541
 3201ntf    sn221002   3.699   2.377   0.604 -0.2138  0.3877  0.3146
 3201ntf    nn321003   3.701   2.489   0.714  0.1008  0.5445  0.1525
 3201ntf    sn221004   3.657   2.482   0.864 -0.1148  0.2011  0.0750
 3201ntf    cn121005   3.482   2.530   0.853 -0.0266  0.4815 -0.0832
 3201ntf    fn421006   3.957   2.325   0.635 -0.1234  0.3233 -0.3472
 3201ntf    fn421007   3.892   2.319   0.429  0.0211 -0.4900  0.0518
 3201ntf    fn421008   3.915   2.499   0.529 -0.3652  0.1785  0.8635
 3201ntf    on521009   3.616   2.430   0.498 -0.0047 -0.3502 -0.2295
 3201ntf    on521010   3.668   2.246   0.657 -0.4166  0.3342  0.0679
 3201ntf    on521011   3.700   2.597   0.939 -0.0508  0.0612  0.2557
 3201ntf    on521012   3.653   2.353   0.929 -0.3043  0.4446  0.5608
 3201ntf    fn421013   3.428   2.468   0.749 -0.6841 -0.0314  0.5594
 3201ntf    fn421014   3.419   2.481   0.958 -0.3084  0.5060 -0.2404
 3201ntf    fn421015   3.466   2.661   0.845 -0.4302  0.4511  0.2021
 3202ntf    cn121016   2.433   6.172   3.159  0.1081  0.2322  0.0647
 3202ntf    sn221017   2.503   6.334   3.117  0.1831  0.1974  0.0564
 3202ntf    nn321018   2.571   6.374   3.253  0.0724  0.3224  0.0751
 3202ntf    sn221019   2.725   6.360   3.282  0.0304 -0.0461  0.1166
 3202ntf    cn121020   2.782   6.522   3.225 -0.1564  0.0014  0.0624
 3202ntf    fn421021   2.330   6.135   3.084 -0.3034  0.4141  0.5380
 3202ntf    fn421022   2.525   6.077   3.154 -0.6931 -0.5439 -0.2071
 3202ntf    fn421023   2.383   6.169   3.281 -0.2041 -0.2401 -0.0721
 3202ntf    on521024   2.590   6.304   3.006 -0.0215  0.4699 -0.1771
 3202ntf    on521025   2.382   6.406   3.087 -0.0970 -0.1045  0.4489
 3202ntf    on521026   2.803   6.260   3.212  0.3704  0.3152 -0.0196
 3202ntf    on521027   2.736   6.375   3.425 -0.4274 -0.0296  0.1523
 3202ntf    fn421028   2.779   6.528   3.093 -0.0601  0.3454  0.0739
 3202ntf    fn421029   2.723   6.632   3.270 -0.0644  0.1886 -0.2635
 3202ntf    fn421030   2.911   6.531   3.255 -0.2045  0.0457  0.2532
 3203ntf    cn121031   4.920   7.069   6.284  0.1440  0.1974  0.1641
 3203ntf    sn221032   5.046   7.133   6.397 -0.0891  0.1104  0.4753
 3203ntf    nn321033   4.982   7.265   6.452 -0.1058  0.1630  0.3309
 3203ntf    sn221034   4.960   7.401   6.377  0.3198  0.0606  0.0179
 3203ntf    cn121035   5.122   7.482   6.393  0.3445  0.0055  0.0488
 3203ntf    fn421036   4.951   6.953   6.227 -0.0271  0.2724 -0.0884
 3203ntf    fn421037   4.808   7.035   6.346 -0.0096 -0.0991 -0.2626
 3203ntf    fn421038   4.882   7.153   6.188  0.4405  0.8135  0.5828
 3203ntf    on521039   5.062   7.023   6.488  0.5007 -0.0209  0.2200
 3203ntf    on521040   5.154   7.164   6.306 -0.5431  0.4555  0.0508
 3203ntf    on521041   4.876   7.491   6.453 -0.1530 -0.5041  0.1727
 3203ntf    on521042   4.940   7.398   6.234 -0.4029 -0.2783  0.1243
 3203ntf    fn421043   5.211   7.440   6.304 -0.1673 -0.4104 -0.2758
 3203ntf    fn421044   5.108   7.611   6.371  0.0221 -0.0184  0.1137
 3203ntf    fn421045   5.180   7.471   6.511 -0.0490  0.6921  0.3077
 3204ntf    cn121046   3.948   2.056   4.830 -0.1167 -0.0323 -0.0062
 3204ntf    sn221047   4.087   2.021   4.719 -0.0442  0.0936  0.0444
 3204ntf    nn321048   4.142   1.890   4.786 -0.3507 -0.2152 -0.3026
 3204ntf    sn221049   4.234   1.785   4.713 -0.0206 -0.1788  0.0574
 3204ntf    cn121050   4.392   1.824   4.793 -0.1767  0.3145  0.1292
 3204ntf    fn421051   3.865   1.953   4.841  0.0440 -0.1250  0.3329
 3204ntf    fn421052   4.000   2.081   4.949 -0.0542  0.2168 -0.0850
 3204ntf    fn421053   3.878   2.165   4.803 -0.5662 -0.1633  0.5948
 3204ntf    on521054   4.018   2.014   4.592 -0.1675  0.7523  0.0715
 3204ntf    on521055   4.166   2.139   4.741  0.0941  0.1222 -0.5913
 3204ntf    on521056   4.250   1.824   4.574  0.2154 -0.0325  0.1244
 3204ntf    on521057   4.210   1.648   4.750 -0.6899 -0.2101 -0.4553
 3204ntf    fn421058   4.495   1.773   4.728  0.1742  0.2774  0.7056
 3204ntf    fn421059   4.392   1.957   4.791  0.1683  0.3098 -0.3389
 3204ntf    fn421060   4.398   1.790   4.921  0.1751 -0.1154 -0.0019
 3205ntf    cn121061   3.068   0.030   5.512  0.0265 -0.1229 -0.3937
 3205ntf    sn221062   2.928   0.037   5.629  0.2692  0.1599 -0.1161
 3205ntf    nn321063   2.824  -0.056   5.557 -0.1259  0.2501  0.3396
 3205ntf    sn221064   2.673  -0.070   5.600 -0.1838 -0.0975  0.0292
 3205ntf    cn121065   2.664  -0.232   5.681 -0.3126  0.0588  0.3315
 3205ntf    fn421066   3.130  -0.086   5.510  0.3686  0.0480  0.1454
 3205ntf    fn421067   3.045   0.056   5.385  0.1284 -0.2814 -0.4446
 3205ntf    fn421068   3.153   0.130   5.533  0.0104 -0.2012  0.0496
 3205ntf    on521069   2.986  -0.023   5.747 -0.1802  0.0062  0.0276
 3205ntf    on521070   2.895   0.177   5.628  0.0242  0.1029 -0.0296
 3205ntf    on521071   2.586  -0.085   5.486  0.1738 -0.2668 -0.2224
 3205ntf    on521072   2.626   0.028   5.695 -0.7698 -0.4939  0.1512
 3205ntf    fn421073   2.547  -0.258   5.737 -0.1408 -0.8063  0.3146
 3205ntf    fn421074   2.692  -0.336   5.603 -0.0984  0.0780  0.3810
 3205ntf    fn421075   2.754  -0.230   5.778  0.5943  0.2342 -0.4887
 3206ntf    cn121076   4.360   0.759   1.036  0.4915 -0.7460  0.2931
 3206ntf    sn221077   4.250   0.655   0.935  0.1334 -0.0290 -0.0625
 3206ntf    nn321078   4.261   0.735   0.800  0.4426  0.4035  0.2138
 3206ntf    sn221079   4.285   0.683   0.654  0.2110  0.2003  0.2466
 3206ntf    cn121080   4.466   0.666   0.658  0.1557 -0.3342  0.5671
 3206ntf    fn421081   4.487   0.755   0.998  0.3356 -0.0438 -0.3326
 3206ntf    fn421082   4.327   0.887   1.047  0.5985 -0.7095  0.1981
 3206ntf    fn421083   4.369   0.717   1.161 -0.5436  0.2067  0.7065
 3206ntf    on521084   4.316   0.527   0.947 -0.4224 -0.3456 -0.3563
 3206ntf    on521085   4.122   0.674   0.998 -0.0141  0.3620 -0.4778
 3206ntf    on521086   4.261   0.793   0.563  0.2755 -0.1418 -0.1862
 3206ntf    on521087   4.222   0.557   0.624 -0.2511  0.6311 -0.6334
 3206ntf    fn421088   4.501   0.554   0.719  0.2049 -0.5501  0.1425
 3206ntf    fn421089   4.522   0.671   0.539 -0.1419 -0.2908  0.4277
 3206ntf    fn421090   4.526   0.768   0.718 -0.3192 -0.0439  0.5529
 3207ntf    cn121091   4.068   4.559   6.789 -0.0003 -0.0279  0.0685
 3207ntf    sn221092   4.225   4.609   6.867 -0.0077  0.0871  0.0097
 3207ntf    nn321093   4.174   4.623   7.014 -0.4371 -0.2030 -0.1092
 3207ntf    sn221094   4.176   4.521   7.134  0.1323 -0.0328  0.0310
 3207ntf    cn121095   4.352   4.483   7.154  0.1486  0.0400  0.0280
 3207ntf    fn421096   3.971   4.646   6.807 -0.0013 -0.0112 -0.0120
 3207ntf    fn421097   4.081   4.546   6.658 -0.0868 -0.2477  0.0819
 3207ntf    fn421098   4.036   4.439   6.834  0.4623  0.0098  0.5101
 3207ntf    on521099   4.311   4.497   6.838  0.0289  0.0228  0.3651
 3207ntf    on521100   4.254   4.738   6.808  0.0038  0.2036  0.2719
 3207ntf    on521101   4.116   4.395   7.096 -0.7387  0.3943 -0.0334
 3207ntf    on521102   4.138   4.582   7.258 -0.0006  0.2957 -0.1702
 3207ntf    fn421103   4.432   4.588   7.167  0.1710  0.0077  0.1527
 3207ntf    fn421104   4.365   4.410   7.264 -0.6697 -0.4100 -0.1674
 3207ntf    fn421105   4.396   4.404   7.056  0.2567  0.0096  0.1007
 3208ntf    cn121106   0.342   1.170   2.436 -0.1524 -0.1590  0.0928
 3208ntf    sn221107   0.200   1.166   2.550  0.1446 -0.5383  0.4505
 3208ntf    nn321108   0.084   1.166   2.444  0.0505  0.3440  0.5460
 3208ntf    sn221109  -0.060   1.228   2.434  0.0311  0.2127  0.0112
 3208ntf    cn121110  -0.016   1.378   2.341  0.3046 -0.1152 -0.3945
 3208ntf    fn421111   0.459   1.192   2.493 -0.2610 -0.7027  0.5313
 3208ntf    fn421112   0.353   1.064   2.359 -0.1103 -0.3209  0.3215
 3208ntf    fn421113   0.315   1.267   2.349  0.1208 -0.2649 -0.1098
 3208ntf    on521114   0.216   1.040   2.618  0.1945 -0.5304  0.4532
 3208ntf    on521115   0.212   1.289   2.626 -0.1707 -0.4331  0.3287
 3208ntf    on521116  -0.121   1.272   2.557 -0.3794 -0.0718 -0.0863
 3208ntf    on521117  -0.151   1.165   2.342  0.2447  0.2293 -0.2127
 3208ntf    fn421118   0.050   1.360   2.228  0.2160  0.5940 -0.5632
 3208ntf    fn421119  -0.128   1.445   2.319  0.0243 -0.3578  0.2549
 3208ntf    fn421120   0.054   1.464   2.412 -0.2775  0.1696 -0.1536
 3209ntf    cn121121   2.751   6.562   0.348  0.2165 -0.0796 -0.2656
 3209ntf    sn221122   2.676   6.463   0.215  0.2074 -0.2965 -0.0996
 3209ntf    nn321123   2.555   6.407   0.298 -0.2684  0.2823 -0.3977
 3209ntf    sn221124   2.494   6.263   0.290 -0.1389  0.2097 -0.0996
 3209ntf    cn121125   2.500   6.218   0.466  0.0612  0.2493 -0.0960
 3209ntf    fn421126   2.833   6.654   0.300  0.4175  0.1022  0.4063
 3209ntf    fn421127   2.662   6.626   0.422  0.3204  0.2394 -0.4181
 3209ntf    fn421128   2.824   6.489   0.431  0.1064  0.0198 -0.0809
 3209ntf    on521129   2.643   6.553   0.108 -0.3749 -0.6393 -0.2141
 3209ntf    on521130   2.777   6.366   0.179  0.0991 -0.2698 -0.4799
 3209ntf    on521131   2.580   6.156   0.245  0.0394  0.3901 -0.1916
 3209ntf    on521132   2.354   6.265   0.258 -0.2127  0.7863  0.2467
 3209ntf    fn421133   2.512   6.086   0.475 -0.8515  0.1467 -0.3070
 3209ntf    fn421134   2.603   6.275   0.527 -0.1237  0.5274 -0.0442
 3209ntf    fn421135   2.391   6.254   0.532 -0.1232 -0.1942 -0.1560
 3210ntf    cn121136   1.685   3.876   5.219  0.0886 -0.1296 -0.3535
 3210ntf    sn221137   1.662   4.038   5.140  0.4575  0.1009  0.0075
 3210ntf    nn321138   1.521   4.015   5.074  0.3352  0.3298  0.1883
 3210ntf    sn221139   1.385   4.075   5.123  0.1398  0.1631 -0.1457
 3210ntf    cn121140   1.277   3.933   5.088  0.1674  0.2030 -0.3935
 3210ntf    fn421141   1.586   3.853   5.304  0.4308  0.4777  0.2153
 3210ntf    fn421142   1.707   3.774   5.138 -0.2898 -0.2849 -0.2672
 3210ntf    fn421143   1.792   3.888   5.295 -0.2317 -1.1734  0.2801
 3210ntf    on521144   1.666   4.119   5.259 -0.2262  0.3567 -0.1393
 3210ntf    on521145   1.772   4.043   5.046  0.1738  0.6342 -0.3021
 3210ntf    on521146   1.336   4.181   5.039  0.4252  0.4906  0.0989
 3210ntf    on521147   1.367   4.088   5.266 -0.1909  0.0197 -0.1729
 3210ntf    fn421148   1.249   3.911   4.961 -0.1226  0.1540 -0.3220
 3210ntf    fn421149   1.339   3.820   5.117 -0.7184 -0.2325 -0.1521
 3210ntf    fn421150   1.162   3.924   5.153  0.5692  0.3470  0.3475
 3211ntf    cn121151   2.425   6.038   6.625 -0.3729 -0.2845  0.3818
 3211ntf    sn221152   2.409   5.862   6.582 -0.0797 -0.2799  0.2511
 3211ntf    nn321153   2.559   5.831   6.547 -0.1090  0.1359 -0.2503
 3211ntf    sn221154   2.691   5.817   6.631 -0.1420 -0.0406 -0.2285
 3211ntf    cn121155   2.755   5.668   6.548  0.1082  0.0817 -0.2552
 3211ntf    fn421156   2.513   6.068   6.719 -0.0292 -0.0129 -0.0235
 3211ntf    fn421157   2.449   6.107   6.514 -0.8465 -0.2824  0.2764
 3211ntf    fn421158   2.310   6.082   6.673 -0.3269 -0.0110  0.2440
 3211ntf    on521159   2.358   5.797   6.701 -1.0777  0.5643  0.2952
 3211ntf    on521160   2.333   5.849   6.460  0.3739 -0.3875 -0.0220
 3211ntf    on521161   2.680   5.790   6.772 -0.0421 -0.0496 -0.2227
 3211ntf    on521162   2.783   5.921   6.594  0.1179 -0.2965 -0.3059
 3211ntf    fn421163   2.654   5.582   6.549 -0.1222  0.3466  0.5740
 3211ntf    fn421164   2.787   5.683   6.421 -0.1390  0.2601 -0.2965
 3211ntf    fn421165   2.858   5.614   6.611  0.3387  1.3304  0.4698
 3212ntf    cn121166   5.904   6.954   3.713 -0.0231  0.3368  0.0910
 3212ntf    sn221167   6.055   6.967   3.612 -0.1432 -0.0598 -0.1417
 3212ntf    nn321168   6.096   6.816   3.615  0.1225  0.0198  0.3218
 3212ntf    sn221169   6.198   6.736   3.704  0.2322 -0.0694  0.1172
 3212ntf    cn121170   6.343   6.742   3.595 -0.0404  0.0629 -0.2399
 3212ntf    fn421171   5.922   6.880   3.821  0.2552 -0.0545 -0.2249
 3212ntf    fn421172   5.861   7.076   3.744 -0.5661  0.0912  0.3115
 3212ntf    fn421173   5.802   6.893   3.656  0.1605 -0.1273  0.2568
 3212ntf    on521174   6.003   7.017   3.487 -0.1476  0.0905 -0.0800
 3212ntf    on521175   6.140   7.063   3.677 -0.4266  0.2952 -0.2911
 3212ntf    on521176   6.161   6.597   3.705 -0.1731  0.0361  0.0522
 3212ntf    on521177   6.241   6.800   3.826 -0.1963 -0.2743  0.3791
 3212ntf    fn421178   6.448   6.696   3.661 -0.1469 -0.1760 -0.2356
 3212ntf    fn421179   6.337   6.673   3.483  0.1859  0.5897 -0.5830
 3212ntf    fn421180   6.372   6.864   3.553 -0.1054  0.1350 -0.0752
 3213ntf    cn121181   1.649   1.703   1.687  0.0247 -0.1060  0.3051
 3213ntf    sn221182   1.780   1.665   1.807 -0.0445  0.0374  0.4262
 3213ntf    nn321183   1.807   1.810   1.862  0.2812  0.1222  0.0547
 3213ntf    sn221184   1.816   1.860   2.011  0.1186  0.4771 -0.0528
 3213ntf    cn121185   1.641   1.871   2.058  0.1597  0.2655  0.1517
 3213ntf    fn421186   1.535   1.750   1.733 -0.0131  0.2340 -0.1233
 3213ntf    fn421187   1.682   1.785   1.588  0.2349  0.2711  0.6872
 3213ntf    fn421188   1.621   1.593   1.619 -0.0625 -0.1177  0.3590
 3213ntf    on521189   1.713   1.573   1.895  0.3762  0.0543  0.7685
 3213ntf    on521190   1.891   1.620   1.726 -0.2362  0.9812 -0.3795
 3213ntf    on521191   1.854   1.999   2.015  0.7296  0.3168 -0.1509
 3213ntf    on521192   1.872   1.759   2.098 -0.8253  0.2705  0.3199
 3213ntf    fn421193   1.631   1.890   2.189  0.3016  0.5093  0.1279
 3213ntf    fn421194   1.568   1.962   1.996 -0.1240 -0.2813 -0.3219
 3213ntf    fn421195   1.570   1.761   2.038  0.4317  0.1667 -0.2676
 3214ntf    cn121196   4.532   7.040   4.231 -0.0847 -0.1022  0.1355
 3214ntf    sn221197   4.567   7.006   4.406  0.2356  0.4779  0.1884
 3214ntf    nn321198   4.689   7.100   4.437  0.2063  0.5430  0.1050
 3214ntf    sn221199   4.840   7.064   4.419 -0.0725 -0.4847 -0.2482
 3214ntf    cn121200   4.898   7.232   4.379 -0.0864 -0.2873  0.5415
 3214ntf    fn421201   4.569   6.947   4.145 -0.0417  0.0517 -0.0148
 3214ntf    fn421202   4.400   7.048   4.219 -0.1410 -0.6212  0.4217
 3214ntf    fn421203   4.586   7.152   4.183 -0.5178  0.0465 -0.0131
 3214ntf    on521204   4.447   7.052   4.471 -0.3617 -0.8657  0.0724
 3214ntf    on521205   4.587   6.863   4.414  0.0223  0.4806  0.7888
 3214ntf    on521206   4.870   6.986   4.301  0.1304  0.2500 -0.6895
 3214ntf    on521207   4.911   7.029   4.539  0.0744  0.2029 -0.1320
 3214ntf    fn421208   4.911   7.309   4.485  0.2756  0.6069 -0.1424
 3214ntf    fn421209   5.023   7.235   4.336 -0.1951  0.1249  0.2447
 3214ntf    fn421210   4.820   7.297   4.293  0.3948 -0.1255  0.2260
 3215ntf    cn121211   1.323   0.244   2.797  0.1007 -0.0423  0.2173
 3215ntf    sn221212   1.486   0.283   2.727 -0.0983 -0.0237 -0.2345
 3215ntf    nn321213   1.546   0.152   2.665  0.4557  0.0252  0.1949
 3215ntf    sn221214   1.636   0.045   2.737  0.3903 -0.2134 -0.0747
 3215ntf    cn121215   1.795   0.116   2.685  0.2928  0.3510  0.3808
 3215ntf    fn421216   1.283   0.336   2.883 -0.2980  0.5736 -0.6144
 3215ntf    fn421217   1.227   0.235   2.706  0.5072 -0.1665 -0.2038
 3215ntf    fn421218   1.322   0.128   2.862 -0.0788 -0.1637 -0.0005
 3215ntf    on521219   1.457   0.379   2.622  0.3905 -0.0783 -0.4210
 3215ntf    on521220   1.565   0.339   2.833  0.1144 -0.3529 -0.2180
 3215ntf    on521221   1.627  -0.084   2.675  0.2884 -0.2817  0.0809
 3215ntf    on521222   1.645   0.047   2.881  0.0317  0.2864 -0.0568
 3215ntf    fn421223   1.886   0.048   2.754 -0.3275 -0.1846  0.6820
 3215ntf    fn421224   1.828   0.093   2.559  0.2072 -0.1882  0.4527
 3215ntf    fn421225   1.814   0.242   2.722  0.2019  0.4914 -0.0545
 3216ntf    cn121226   3.802   5.667   3.431 -0.0785 -0.0500  0.1823
 3216ntf    sn221227   3.880   5.810   3.512 -0.2071  0.1510 -0.0489
 3216ntf    nn321228   3.930   5.747   3.646 -0.4433  0.2362  0.0801
 3216ntf    sn221229   4.074   5.738   3.708 -0.2216 -0.3589 -0.5109
 3216ntf    cn121230   4.096   5.908   3.768 -0.0316 -0.4886 -0.2096
 3216ntf    fn421231   3.770   5.689   3.304  0.0215 -0.1094  0.1466
 3216ntf    fn421232   3.887   5.565   3.437 -0.1989 -0.1668 -0.0876
 3216ntf    fn421233   3.694   5.620   3.492 -0.3939  0.3120 -0.0945
 3216ntf    on521234   3.979   5.834   3.410 -0.4538 -0.0041 -0.3277
 3216ntf    on521235   3.783   5.914   3.539 -0.3038 -0.0189  0.2592
 3216ntf    on521236   4.184   5.706   3.620  0.0937 -0.0132 -0.2448
 3216ntf    on521237   4.069   5.656   3.827 -0.2628  0.2838 -0.0660
 3216ntf    fn421238   4.015   5.989   3.702  0.5414  0.2810  0.0206
 3216ntf    fn421239   4.066   5.912   3.896  0.2139 -0.5826 -0.1480
 3216ntf    fn421240   4.221   5.949   3.751 -0.1639 -0.1813 -0.4567
 3217ntf    cn121241   6.762   1.979   3.423 -0.0625 -0.4469  0.2653
 3217ntf    sn221242   6.639   1.932   3.548 -0.2695 -0.0103  0.2268
 3217ntf    nn321243   6.728   1.954   3.676 -0.2076  0.1219  0.1614
 3217ntf    sn221244   6.703   2.051   3.797  0.0703  0.2501  0.1167
 3217ntf    cn121245   6.610   1.924   3.889 -0.3394  0.1518 -0.4274
 3217ntf    fn421246   6.833   2.086   3.457 -0.1094 -0.1701 -0.4991
 3217ntf    fn421247   6.845   1.878   3.403 -0.0165 -0.3209 -0.1863
 3217ntf    fn421248   6.712   2.002   3.303  0.3988  0.1031  0.1703
 3217ntf    on521249   6.532   2.027   3.526  0.0986  0.3092 -0.2050
 3217ntf    on521250   6.614   1.791   3.539  0.1571 -0.1136  0.6478
 3217ntf    on521251   6.606   2.158   3.787 -0.2574 -0.0873 -0.3991
 3217ntf    on521252   6.818   2.085   3.876  0.4169 -0.3171 -0.1381
 3217ntf    fn421253   6.507   1.866   3.829 -0.6218  0.1692  0.0418
 3217ntf    fn421254   6.695   1.829   3.923 -0.2370  0.3392 -0.1594
 3217ntf    fn421255   6.562   1.965   4.005  0.0149  0.9590 -0.5536
 3218ntf    cn121256   3.054   5.700   3.810  0.1820  0.0720 -0.3641
 3218ntf    sn221257   3.153   5.608   3.932 -0.0625  0.0375 -0.1909
 3218ntf    nn321258   3.035   5.552   4.018  0.0072  0.0965 -0.0571
 3218ntf    sn221259   2.946   5.424   4.000 -0.0466  0.1809 -0.4052
 3218ntf    cn121260   2.937   5.390   4.179  0.1370 -0.1737 -0.4611
 3218ntf    fn421261   2.989   5.800   3.867  0.2104 -0.0436 -0.1277
 3218ntf    fn421262   3.124   5.756   3.713  0.1792  0.4791 -0.1329
 3218ntf    fn421263   2.963   5.621   3.755  0.2994 -0.2605 -0.0868
 3218ntf    on521264   3.229   5.520   3.847  0.3708  0.1329  0.0929
 3218ntf    on521265   3.224   5.719   3.991 -0.3828  0.1459 -0.0034
 3218ntf    on521266   3.014   5.309   3.945 -0.3227 -0.1201 -0.1309
 3218ntf    on521267   2.813   5.454   3.954 -0.4766 -0.0037  0.6830
 3218ntf    fn421268   2.901   5.500   4.244 -0.0165 -0.1989 -0.5025
 3218ntf    fn421269   2.849   5.298   4.215  0.0543  0.1000  0.0507
 3218ntf    fn421270   3.059   5.359   4.217  0.0820 -0.0662 -0.1963
 3219ntf    cn121271   5.393   4.932   4.201  0.4077  0.0246 -0.2454
 3219ntf    sn221272   5.395   4.804   4.072  0.0716 -0.0837 -0.1443
 3219ntf    nn321273   5.386   4.901   3.949  0.2882 -0.1164 -0.1868
 3219ntf    sn221274   5.389   4.871   3.795  0.0018 -0.0591 -0.2042
 3219ntf    cn121275   5.212   4.848   3.762 -0.0641  0.1080  0.0339
 3219ntf    fn421276   5.400   4.885   4.324  0.1384  0.4666 -0.0602
 3219ntf    fn421277   5.499   5.009   4.182  0.2256  0.3368  0.0073
 3219ntf    fn421278   5.279   4.998   4.196  0.2532 -0.2192  0.0343
 3219ntf    on521279   5.520   4.733   4.088 -0.4945 -1.0473  0.0870
 3219ntf    on521280   5.272   4.731   4.087  0.2165 -0.3972 -0.4553
 3219ntf    on521281   5.437   4.743   3.747 -0.0597 -0.0791 -0.2126
 3219ntf    on521282   5.415   4.991   3.719  0.7062 -0.2155 -0.2174
 3219ntf    fn421283   5.188   4.797   3.642  0.1366  0.2102 -0.0502
 3219ntf    fn421284   5.162   4.769   3.856  0.1979 -0.5126 -0.3410
 3219ntf    fn421285   5.146   4.962   3.764  0.1699  0.2443 -0.0489
 3220ntf    cn121286   1.128   6.343   1.852 -0.0781 -0.2177  0.1505
 3220ntf    sn221287   1.224   6.439   1.973 -0.3349  0.1054  0.1018
 3220ntf    nn321288   1.334   6.337   2.020 -0.1902  0.0464 -0.3614
 3220ntf    sn221289   1.486   6.372   2.041 -0.2547  0.1091  0.0094
 3220ntf    cn121290   1.533   6.265   2.180 -0.0339  0.2103  0.0119
 3220ntf    fn421291   1.001   6.381   1.847  0.1370  0.4812 -0.2671
 3220ntf    fn421292   1.174   6.341   1.728  0.1015  0.6594  0.1920
 3220ntf    fn421293   1.127   6.217   1.890 -0.2236 -0.3062 -0.1432
 3220ntf    on521294   1.272   6.558   1.907  0.3482 -0.3182 -0.1789
 3220ntf    on521295   1.127   6.469   2.075  0.0134  0.1714  0.4180
 3220ntf    on521296   1.507   6.496   2.112 -0.4427  0.3603 -0.3680
 3220ntf    on521297   1.582   6.327   1.943  0.5862  0.7493  0.5329
 3220ntf    fn421298   1.469   6.298   2.291 -0.5895 -1.1159  0.0983
 3220ntf    fn421299   1.506   6.138   2.155  0.2343 -0.0090  0.8028
 3220ntf    fn421300   1.660   6.276   2.216  0.2126 -0.3208 -0.6761
 3221ntf    cn121301   6.220   4.843   2.303 -0.1363  0.1076  0.0650
 3221ntf    sn221302   6.046   4.861   2.354 -0.2087 -0.1210 -0.0986
 3221ntf    nn321303   6.065   4.910   2.502  0.5207 -0.6522 -0.0087
 3221ntf    sn221304   5.959   4.899   2.616  0.3526 -0.0274 -0.1003
 3221ntf    cn121305   5.888   5.066   2.623  0.3285 -0.0524  0.3198
 3221ntf    fn421306   6.288   4.951   2.337  0.0227 -0.0130  0.1269
 3221ntf    fn421307   6.271   4.742   2.371 -0.6327 -0.1027  0.1300
 3221ntf    fn421308   6.247   4.820   2.175  0.3694  0.3100  0.1335
 3221ntf    on521309   6.000   4.967   2.267 -0.0775  0.5671  0.6616
 3221ntf    on521310   5.994   4.727   2.345  0.2313 -0.2614 -0.5645
 3221ntf    on521311   6.013   4.890   2.750  0.5455 -0.2643 -0.1943
 3221ntf    on521312   5.849   4.807   2.598  0.1164  0.2099  0.0992
 3221ntf    fn421313   5.793   5.081   2.714  0.1257 -0.0211  0.1048
 3221ntf    fn421314   5.984   5.151   2.656  0.7062 -0.4879  0.3497
 3221ntf    fn421315   5.844   5.112   2.507 -0.1189 -0.0517  0.4854
 3222ntf    cn121316   2.147   7.031   3.306 -0.2295  0.0243 -0.0705
 3222ntf    sn221317   2.281   6.913   3.340 -0.2839 -0.0744 -0.1982
 3222ntf    nn321318   2.389   6.949   3.233 -0.1772  0.1706 -0.0106
 3222ntf    sn221319   2.486   7.072   3.226 -0.0070  0.0440  0.1046
 3222ntf    cn121320   2.647   7.002   3.273 -0.0297  0.1825  0.3902
 3222ntf    fn421321   2.095   7.020   3.185  0.1311  0.5443 -0.2744
 3222ntf    fn421322   2.047   7.004   3.389 -0.0369  0.1500  0.2073
 3222ntf    fn421323   2.180   7.157   3.327 -0.0129 -0.0606  0.1109
 3222ntf    on521324   2.323   6.929   3.477  0.6682  0.6484 -0.5669
 3222ntf    on521325   2.221   6.784   3.315  0.3456 -0.4276  0.0601
 3222ntf    on521326   2.467   7.182   3.317 -0.1684 -0.2116  0.3807
 3222ntf    on521327   2.507   7.103   3.086 -1.0337 -0.4348 -0.1651
 3222ntf    fn421328   2.650   6.963   3.400  0.8480 -0.5306  0.1606
 3222ntf    fn421329   2.692   6.901   3.201  0.3732  0.4418  0.2794
 3222ntf    fn421330   2.739   7.095   3.257 -0.4583  0.4503 -0.5743
 3223ntf    cn121331   3.333   4.704   5.798  0.3983 -0.2972 -0.0422
 3223ntf    sn221332   3.483   4.808   5.800  0.1174  0.1080  0.1091
 3223ntf    nn321333   3.415   4.946   5.828  0.0116  0.0360  0.2102
 3223ntf    sn221334   3.473   5.092   5.823  0.1014 -0.0080 -0.0315
 3223ntf    cn121335   3.445   5.132   5.998 -0.3639  0.0944 -0.1278
 3223ntf    fn421336   3.282   4.678   5.917  0.4772 -0.3038 -0.0091
 3223ntf    fn421337   3.234   4.752   5.725 -0.0344 -0.0809  0.6785
 3223ntf    fn421338   3.359   4.583   5.750  0.4837 -0.0768 -0.5593
 3223ntf    on521339   3.564   4.749   5.903  0.5366  0.3392 -0.0869
 3223ntf    on521340   3.529   4.787   5.665  0.3432  0.3309  0.1511
 3223ntf    on521341   3.397   5.190   5.750 -0.1279 -0.2099 -0.0684
 3223ntf    on521342   3.617   5.094   5.813  0.1045 -0.5643 -0.1375
 3223ntf    fn421343   3.490   5.251   6.036  0.0506 -0.2551  0.4902
 3223ntf    fn421344   3.321   5.120   6.042 -0.4668  0.0114 -0.4433
 3223ntf    fn421345   3.504   5.044   6.078 -0.2496  0.0874 -0.2199
 3224ntf    cn121346   1.841   5.121   3.969  0.6487  0.5306  0.1043
 3224ntf    sn221347   1.794   5.222   3.826  0.1613  0.0868 -0.0500
 3224ntf    nn321348   1.684   5.317   3.886 -0.2000 -0.5767  0.3458
 3224ntf    sn221349   1.702   5.470   3.916  0.4224 -0.5501 -0.1577
 3224ntf    cn121350   1.715   5.539   3.748 -0.3596 -0.1913 -0.0746
 3224ntf    fn421351   1.948   5.046   3.946  0.2981 -0.0892  0.4782
 3224ntf    fn421352   1.870   5.204   4.069  0.5759  0.4506  0.1919
 3224ntf    fn421353   1.744   5.053   4.027  0.4617  0.8904  0.2202
 3224ntf    on521354   1.921   5.278   3.787  0.2730 -0.0429  0.1317
 3224ntf    on521355   1.728   5.117   3.753 -0.2994 -0.4760  1.1499
 3224ntf    on521356   1.830   5.499   3.977  0.1559  0.2274  0.0406
 3224ntf    on521357   1.586   5.536   3.970  0.4725 -0.6081  0.0211
 3224ntf    fn421358   1.621   5.499   3.664 -0.2872 -0.5151 -0.0024
 3224ntf    fn421359   1.714   5.671   3.746  0.3483 -0.1880 -0.6802
 3224ntf    fn421360   1.827   5.507   3.686 -0.4937 -0.5717 -0.1235
 3225ntf    cn121361   7.098   3.371   3.643  0.2296  0.2691  0.3378
 3225ntf    sn221362   7.067   3.513   3.751 -0.1619  0.3382  0.1337
 3225ntf    nn321363   6.984   3.604   3.654 -0.1878  0.4039  0.2169
 3225ntf    sn221364   6.988   3.761   3.642  0.3282  0.3615 -0.1800
 3225ntf    cn121365   6.814   3.788   3.597  0.2220 -0.1849 -0.1152
 3225ntf    fn421366   7.200   3.299   3.688  0.1745  0.1481  0.2681
 3225ntf    fn421367   6.995   3.288   3.648  0.3174  0.1054 -0.4130
 3225ntf    fn421368   7.123   3.404   3.517 -0.0817  0.2756  0.2780
 3225ntf    on521369   6.999   3.452   3.863 -0.1800  0.0976 -0.0087
 3225ntf    on521370   7.200   3.566   3.768  0.1304 -0.2223 -0.4118
 3225ntf    on521371   7.058   3.804   3.524 -0.1560  0.4426 -0.4384
 3225ntf    on521372   7.019   3.832   3.764 -0.1306  0.0133  0.1457
 3225ntf    fn421373   6.726   3.733   3.678 -0.3874 -0.0238 -0.6542
 3225ntf    fn421374   6.782   3.913   3.567 -0.0374 -0.1898  0.1491
 3225ntf    fn421375   6.797   3.732   3.478  0.1877 -0.1835 -0.1108
 3226ntf    cn121376   1.457   5.439   1.493  0.0921 -0.2299  0.2096
 3226ntf    sn221377   1.536   5.365   1.346 -0.1186  0.0359 -0.0382
 3226ntf    nn321378   1.658   5.304   1.423 -0.2660 -0.2753 -0.0465
 3226ntf    sn221379   1.803   5.297   1.362 -0.2182 -0.2191  0.0602
 3226ntf    cn121380   1.781   5.212   1.203 -0.3288  0.0338 -0.0620
 3226ntf    fn421381   1.441   5.347   1.586 -0.1100 -0.1315  0.2718
 3226ntf    fn421382   1.535   5.534   1.542 -0.1822  0.0109  0.1785
 3226ntf    fn421383   1.341   5.497   1.471  0.2502 -0.0662 -0.2089
 3226ntf    on521384   1.430   5.273   1.312  0.2386  0.0532 -1.2590
 3226ntf    on521385   1.552   5.476   1.256 -0.0413 -0.0594 -0.1413
 3226ntf    on521386   1.885   5.200   1.429  0.3173  0.4129  0.3357
 3226ntf    on521387   1.865   5.425   1.338 -0.3844 -0.0942  0.2892
 3226ntf    fn421388   1.698   5.109   1.218 -0.2348 -0.1025 -0.4664
 3226ntf    fn421389   1.723   5.291   1.115 -0.7462  0.1922  0.3532
 3226ntf    fn421390   1.897   5.176   1.150 -0.2222  0.0358  0.1670
 3227ntf    cn121391   0.953   3.430   6.562 -0.4250 -0.1891  0.0235
 3227ntf    sn221392   1.065   3.383   6.697 -0.1598  0.2440 -0.0436
 3227ntf    nn321393   1.031   3.497   6.800 -0.0621 -0.0074  0.2715
 3227ntf    sn221394   0.911   3.512   6.900 -0.2762 -0.0488  0.0229
 3227ntf    cn121395   0.988   3.470   7.059 -0.4375 -0.0147  0.1105
 3227ntf    fn421396   0.828   3.397   6.590 -0.6200  0.0105 -0.5864
 3227ntf    fn421397   0.966   3.558   6.532  0.2669 -0.2921 -0.1344
 3227ntf    fn421398   0.976   3.369   6.446  0.7294  0.2004  0.0325
 3227ntf    on521399   1.027   3.251   6.741 -0.4328  0.2934 -0.1250
 3227ntf    on521400   1.194   3.403   6.637  0.1531 -0.1338  0.5007
 3227ntf    on521401   0.796   3.429   6.873 -0.2321 -0.1573  0.1679
 3227ntf    on521402   0.881   3.652   6.920 -0.4630 -0.1544  0.4903
 3227ntf    fn421403   1.101   3.532   7.089  0.1120 -0.6995 -0.5068
 3227ntf    fn421404   0.908   3.484   7.163 -0.2471  0.4412  0.1981
 3227ntf    fn421405   1.024   3.343   7.046  0.5908  0.3155 -0.3527
 3228ntf    cn121406   5.223   5.762   5.505  0.0952 -0.4070  0.0430
 3228ntf    sn221407   5.304   5.634   5.606  0.3842 -0.2232  0.0436
 3228ntf    nn321408   5.233   5.667   5.742  0.3192 -0.1318 -0.0118
 3228ntf    sn221409   5.212   5.564   5.859  0.2434  0.1573  0.2280
 3228ntf    cn121410   5.032   5.536   5.854  0.2809 -0.1037  0.3046
 3228ntf    fn421411   5.093   5.756   5.529  0.1775  0.1624  0.6613
 3228ntf    fn421412   5.266   5.883   5.537 -0.1122 -0.2718 -0.1850
 3228ntf    fn421413   5.229   5.747   5.374 -0.1575 -0.6352  0.0564
 3228ntf    on521414   5.265   5.515   5.534 -0.1709 -0.0438  0.0425
 3228ntf    on521415   5.438   5.687   5.603  0.1386  0.3931 -0.2207
 3228ntf    on521416   5.228   5.620   5.992 -0.9116 -0.0629  0.4722
 3228ntf    on521417   5.262   5.431   5.835  0.1581  0.1231  0.2385
 3228ntf    fn421418   4.970   5.652   5.867  0.1876 -0.1505  0.2761
 3228ntf    fn421419   4.995   5.487   5.737  0.2972 -0.7853  0.5830
 3228ntf    fn421420   4.983   5.461   5.950 -0.2091 -0.4808 -0.2357
 3229ntf    cn121421   0.180   1.165   5.107  0.1146 -0.0730  0.5987
 3229ntf    sn221422   0.144   0.993   5.061 -0.1203  0.1248  0.0335
 3229ntf    nn321423  -0.013   0.994   5.064 -0.1187  0.5470  0.0385
 3229ntf    sn221424  -0.113   1.027   4.948 -0.0163  0.3610 -0.1033
 3229ntf    cn121425  -0.153   0.854   4.907  0.0199  0.3083  0.0843
 3229ntf    fn421426   0.311   1.183   5.117  0.1342 -0.1286  0.4396
 3229ntf    fn421427   0.142   1.251   5.015 -0.2568 -0.5468  0.3087
 3229ntf    fn421428   0.116   1.205   5.215 -0.3989  0.1905  0.1985
 3229ntf    on521429   0.203   0.967   4.932  0.1343  0.4712  0.0800
 3229ntf    on521430   0.211   0.931   5.173 -0.4304  0.1162  0.2142
 3229ntf    on521431  -0.065   1.078   4.822 -0.2564 -0.1140 -0.3924
 3229ntf    on521432  -0.233   1.089   4.997 -0.2636  0.4763 -0.8403
 3229ntf    fn421433  -0.225   0.803   5.005  0.0133 -0.1611 -0.1649
 3229ntf    fn421434  -0.209   0.835   4.789  0.2139 -0.3896  0.1018
 3229ntf    fn421435  -0.038   0.788   4.899 -0.1665  0.0371 -0.3590
 3230ntf    cn121436   2.496   2.121   3.695  0.1205 -0.3077  0.1075
 3230ntf    sn221437   2.544   2.039   3.540 -0.0640 -0.1475 -0.0353
 3230ntf    nn321438   2.570   2.157   3.440  0.1404  0.1627  0.3803
 3230ntf    sn221439   2.697   2.247   3.421  0.1761  0.0375  0.0053
 3230ntf    cn121440   2.791   2.171   3.285  0.1019 -0.0497  0.0029
 3230ntf    fn421441   2.364   2.128   3.697  0.1249 -0.1849  0.0506
 3230ntf    fn421442   2.534   2.056   3.804  0.1832 -0.5089 -0.0337
 3230ntf    fn421443   2.548   2.243   3.693  0.1457 -0.3174  0.1509
 3230ntf    on521444   2.658   1.964   3.585  0.0555  0.2154  0.2674
 3230ntf    on521445   2.426   1.962   3.507 -0.0615 -0.0475 -0.2756
 3230ntf    on521446   2.785   2.238   3.535 -0.3963 -0.1285  0.4412
 3230ntf    on521447   2.668   2.380   3.375  0.6100 -0.0648 -0.5704
 3230ntf    fn421448   2.902   2.233   3.247  0.0140 -0.2641 -0.6152
 3230ntf    fn421449   2.831   2.047   3.306 -0.1202 -0.1707 -0.2750
 3230ntf    fn421450   2.706   2.167   3.183  0.3490  0.3994 -0.2228
 3231ntf    cn121451   3.584   1.371   0.651 -0.1257 -0.1996  0.2203
 3231ntf    sn221452   3.657   1.387   0.817 -0.2140 -0.0037  0.2413
 3231ntf    nn321453   3.722   1.245   0.837  0.1495  0.1239 -0.0059
 3231ntf    sn221454   3.686   1.141   0.950  0.1613  0.0465 -0.0734
 3231ntf    cn121455   3.533   1.069   0.884  0.3165 -0.1729 -0.1946
 3231ntf    fn421456   3.495   1.274   0.641  0.0201 -0.3095 -0.0298
 3231ntf    fn421457   3.526   1.481   0.607  0.1831  0.0261  0.3670
 3231ntf    fn421458   3.668   1.341   0.554 -0.0348 -0.6292  0.4317
 3231ntf    on521459   3.760   1.488   0.807  0.0630 -0.2697  0.3712
 3231ntf    on521460   3.545   1.419   0.901 -0.4117  0.1428 -0.0770
 3231ntf    on521461   3.650   1.201   1.076  0.1008  0.3171 -0.2169
 3231ntf    on521462   3.783   1.035   0.952 -0.4021 -0.4772 -0.2595
 3231ntf    fn421463   3.431   1.145   0.921 -0.3334 -1.1006 -0.0503
 3231ntf    fn421464   3.529   1.066   0.752  0.0647 -0.3914 -0.1822
 3231ntf    fn421465   3.498   0.946   0.919  0.1303 -0.0920 -0.0976
 3232ntf    cn121466   3.730   5.866   1.591 -0.0548 -0.0856 -0.1636
 3232ntf    sn221467   3.645   5.734   1.682 -0.3051  0.0085 -0.2601
 3232ntf    nn321468   3.496   5.783   1.680 -0.4987 -0.5502  0.0030
 3232ntf    sn221469   3.410   5.815   1.553 -0.0073  0.6271 -0.0538
 3232ntf    cn121470   3.256   5.746   1.621  0.1494 -0.1314 -0.4511
 3232ntf    fn421471   3.719   5.990   1.639  0.8249 -0.3520  0.7668
 3232ntf    fn421472   3.858   5.833   1.589 -0.0310 -0.0012 -0.0765
 3232ntf    fn421473   3.691   5.878   1.466  0.2219  0.2130 -0.2220
 3232ntf    on521474   3.675   5.613   1.609 -0.7423 -0.3659  0.1735
 3232ntf    on521475   3.707   5.758   1.810  0.7240  0.3871 -0.8205
 3232ntf    on521476   3.431   5.736   1.434  0.7099  0.1802  0.3663
 3232ntf    on521477   3.385   5.956   1.541  0.5191  0.6968 -0.3583
 3232ntf    fn421478   3.279   5.619   1.651  0.2976 -0.0615 -0.2674
 3232ntf    fn421479   3.220   5.804   1.735 -0.3007 -0.4526 -0.4285
 3232ntf    fn421480   3.155   5.751   1.535 -0.2433  0.0671  0.0164
 3233ntf    cn121481   6.126   1.975   6.220  0.0119 -0.5604 -0.2586
 3233ntf    sn221482   6.072   2.036   6.057  0.1806  0.1321 -0.0586
 3233ntf    nn321483   6.181   2.144   6.027 -0.1334  0.2797 -0.7015
 3233ntf    sn221484   6.332   2.118   5.991 -0.0050  0.0616 -0.0147
 3233ntf    cn121485   6.314   2.064   5.819  0.5304 -0.0146 -0.0500
 3233ntf    fn421486   6.022   1.926   6.285 -0.2563 -0.4953 -0.6307
 3233ntf    fn421487   6.221   1.884   6.212  0.1121 -0.4989  0.2238
 3233ntf    fn421488   6.185   2.073   6.285 -0.5012 -0.3096 -0.1606
 3233ntf    on521489   6.071   1.919   5.973  0.1166 -0.1921  0.3912
 3233ntf    on521490   5.943   2.094   6.085  0.1443 -0.1199  0.3048
 3233ntf    on521491   6.394   2.003   6.053 -0.3642 -0.1102  0.0300
 3233ntf    on521492   6.409   2.239   5.984 -0.1344  0.1252 -0.3515
 3233ntf    fn421493   6.420   2.094   5.746  0.6612  0.2548  0.2511
 3233ntf    fn421494   6.292   1.934   5.805  0.4163 -0.0898  0.7912
 3233ntf    fn421495   6.205   2.112   5.760  0.5150 -0.4820 -0.4151
 3234ntf    cn121496   1.127   2.022   7.061  0.2593  0.0343 -0.0921
 3234ntf    sn221497   1.268   1.937   7.138  0.4330  0.2868 -0.1275
 3234ntf    nn321498   1.201   1.795   7.155  0.9520  0.1122  0.4792
 3234ntf    sn221499   1.127   1.729   7.277  0.2932  0.0569  0.0518
 3234ntf    cn121500   1.146   1.559   7.216  0.2808  0.1283 -0.1527
 3234ntf    fn421501   1.094   1.953   6.953 -0.2061 -0.3106  0.2735
 3234ntf    fn421502   1.025   2.033   7.143  0.3984  0.5237  0.0203
 3234ntf    fn421503   1.148   2.148   7.025 -0.0635 -0.0320 -0.5275
 3234ntf    on521504   1.370   1.937   7.036  0.3212 -0.3418 -0.2464
 3234ntf    on521505   1.292   2.006   7.262  0.2817 -0.5583  0.3830
 3234ntf    on521506   0.985   1.756   7.277  0.2780 -0.0242  0.5404
 3234ntf    on521507   1.191   1.722   7.406 -0.2681 -0.3173  0.3143
 3234ntf    fn421508   1.273   1.528   7.198  0.3370  0.0841  0.3031
 3234ntf    fn421509   1.099   1.469   7.300  0.5584  0.1289  0.0067
 3234ntf    fn421510   1.079   1.538   7.104  0.0220 -0.4141  0.0993
 3235ntf    cn121511   6.693   0.033   6.187  0.0303 -0.1126 -0.1172
 3235ntf    sn221512   6.697   0.058   6.007 -0.3349 -0.1811 -0.1368
 3235ntf    nn321513   6.843   0.006   5.982 -0.2815  0.0360 -0.2724
 3235ntf    sn221514   6.880  -0.143   5.950  0.2634  0.0356  0.3358
 3235ntf    cn121515   7.021  -0.094   5.847 -0.3584 -0.0828 -0.5800
 3235ntf    fn421516   6.792   0.090   6.253 -0.2034  0.2805 -0.1024
 3235ntf    fn421517   6.583   0.081   6.244 -0.1446 -0.0870 -0.4731
 3235ntf    fn421518   6.688  -0.093   6.227  0.2512  0.1031  0.6114
 3235ntf    on521519   6.585  -0.020   5.961  0.0585 -0.6607 -0.2884
 3235ntf    on521520   6.683   0.201   5.995 -0.2784 -0.1722 -0.0990
 3235ntf    on521521   6.809  -0.231   5.861 -0.2643  0.3245  0.4649
 3235ntf    on521522   6.944  -0.211   6.060  0.2893 -0.2442  0.1485
 3235ntf    fn421523   7.072  -0.194   5.776  0.1227 -0.4958  0.3309
 3235ntf    fn421524   6.993   0.004   5.763  0.7024  0.1771 -0.6483
 3235ntf    fn421525   7.123  -0.043   5.915 -0.9051 -0.2861  0.4153
 3236ntf    cn121526   2.305   4.696   4.932  0.2752  0.5880  0.5773
 3236ntf    sn221527   2.473   4.739   4.877  0.1263  0.3250 -0.0932
 3236ntf    nn321528   2.444   4.823   4.748  0.1779  0.0426 -0.2885
 3236ntf    sn221529   2.522   4.949   4.694  0.0748  0.3393  0.2508
 3236ntf    cn121530   2.632   4.871   4.572 -0.3825  0.2448 -0.1056
 3236ntf    fn421531   2.235   4.604   4.867  0.6500  0.5850  0.1757
 3236ntf    fn421532   2.321   4.647   5.054 -0.4778  0.0630  0.4721
 3236ntf    fn421533   2.224   4.800   4.942  0.0716  0.4906 -0.0275
 3236ntf    on521534   2.522   4.825   4.982 -0.1726 -0.1047  0.4030
 3236ntf    on521535   2.533   4.612   4.848 -0.2406  0.3288 -0.8831
 3236ntf    on521536   2.610   5.016   4.785  0.2891  0.0561  0.2527
 3236ntf    on521537   2.434   5.037   4.622 -0.4224 -0.1150  0.2946
 3236ntf    fn421538   2.690   4.759   4.611 -0.2486  0.1430 -0.5907
 3236ntf    fn421539   2.564   4.825   4.468  0.0284  0.2493 -0.3791
 3236ntf    fn421540   2.728   4.950   4.529  0.0633 -0.3308 -0.1812
 3237ntf    cn121541   2.796   5.575   1.828  0.3046  0.1099  0.0448
 3237ntf    sn221542   2.658   5.690   1.859  0.4101  0.2273  0.0779
 3237ntf    nn321543   2.546   5.601   1.794  0.2011 -0.0398  0.7914
 3237ntf    sn221544   2.446   5.501   1.860 -0.2839 -0.4042 -0.4640
 3237ntf    cn121545   2.313   5.612   1.915  0.3686  0.3275 -0.3579
 3237ntf    fn421546   2.898   5.642   1.878  0.3430  0.3582 -0.3668
 3237ntf    fn421547   2.795   5.460   1.894  0.1992 -0.0948 -0.3117
 3237ntf    fn421548   2.829   5.536   1.706  0.7020  0.7100 -0.0431
 3237ntf    on521549   2.649   5.702   2.002 -0.2049  0.0798  0.0563
 3237ntf    on521550   2.691   5.805   1.779 -0.5140  0.1418 -0.4394
 3237ntf    on521551   2.495   5.428   1.975  0.4471  0.1222 -0.4403
 3237ntf    on521552   2.371   5.425   1.763 -0.4917 -0.2983 -0.3879
 3237ntf    fn421553   2.225   5.549   1.991  0.4167  0.2494 -0.3677
 3237ntf    fn421554   2.372   5.709   1.984  0.1257 -0.3172  0.7828
 3237ntf    fn421555   2.251   5.664   1.811 -0.1508 -0.1117 -0.2707
 3238ntf    cn121556   4.040   3.058   7.016 -0.6958  0.3812 -0.2565
 3238ntf    sn221557   4.011   3.096   6.840 -0.0133 -0.2775 -0.5177
 3238ntf    nn321558   4.135   3.182   6.800  0.2845 -0.6034 -0.2959
 3238ntf    sn221559   4.135   3.334   6.760  0.0546 -0.4512  0.2774
 3238ntf    cn121560   4.294   3.331   6.674 -0.0925 -0.0726 -0.0114
 3238ntf    fn421561   4.169   3.037   7.040 -0.7589 -0.1059 -0.3513
 3238ntf    fn421562   4.013   3.162   7.094 -0.8253 -0.0666  0.2984
 3238ntf    fn421563   3.971   2.954   7.058  0.3949 -0.4519 -0.4828
 3238ntf    on521564   4.004   2.967   6.774  0.2779 -0.4017 -0.3053
 3238ntf    on521565   3.885   3.167   6.843  0.0058 -0.2587 -0.1505
 3238ntf    on521566   4.164   3.420   6.872 -0.3123 -0.6687  0.5466
 3238ntf    on521567   4.040   3.363   6.656  0.2980 -0.5289  0.0345
 3238ntf    fn421568   4.400   3.329   6.754  0.0859 -0.6673 -0.2528
 3238ntf    fn421569   4.312   3.217   6.608  0.0080 -0.0484 -0.0263
 3238ntf    fn421570   4.314   3.429   6.588 -0.2154  0.6589  0.7918
 3239ntf    cn121571   2.323   1.255   4.996  0.5039 -0.0433 -0.0466
 3239ntf    sn221572   2.160   1.272   4.917  0.3052 -0.1121  0.3462
 3239ntf    nn321573   2.134   1.120   4.886 -0.0188  0.0193 -0.0212
 3239ntf    sn221574   2.022   1.026   4.943  0.0004  0.0614  0.0843
 3239ntf    cn121575   2.105   0.878   4.880 -0.1533  0.1535 -0.3384
 3239ntf    fn421576   2.351   1.358   5.074 -0.2340  0.2619 -0.1787
 3239ntf    fn421577   2.314   1.141   5.063 -0.4859 -0.0612 -0.1948
 3239ntf    fn421578   2.416   1.239   4.904  0.1819 -0.3500 -0.3218
 3239ntf    on521579   2.067   1.327   5.013 -0.3845  0.1506 -0.4610
 3239ntf    on521580   2.186   1.348   4.798 -0.8548 -0.4612 -0.1464
 3239ntf    on521581   1.897   1.038   4.873  0.1321 -0.0311 -0.1667
 3239ntf    on521582   2.019   1.001   5.085  0.1938  0.0896  0.0939
 3239ntf    fn421583   2.232   0.865   4.918 -0.2004  0.1444 -0.1827
 3239ntf    fn421584   2.039   0.767   4.909 -0.0953  0.1765 -0.1098
 3239ntf    fn421585   2.116   0.889   4.749 -0.1170 -0.3546 -0.3824
 3240ntf    cn121586   3.910   4.866   0.810  0.0963 -0.1801 -0.2826
 3240ntf    sn221587   3.774   4.981   0.775  0.0330 -0.1228  0.1440
 3240ntf    nn321588   3.706   4.984   0.916 -0.2727  0.0073 -0.0053
 3240ntf    sn221589   3.602   4.885   0.980 -0.1586 -0.0575  0.0791
 3240ntf    cn121590   3.675   4.868   1.146  0.4151 -0.0560 -0.1694
 3240ntf    fn421591   4.003   4.916   0.889 -0.1627 -0.1730  0.0199
 3240ntf    fn421592   3.864   4.765   0.882  1.0214 -0.3170  0.1328
 3240ntf    fn421593   3.973   4.815   0.705  0.2180  0.3680 -0.4749
 3240ntf    on521594   3.840   5.107   0.747  0.4148 -0.4381 -0.4028
 3240ntf    on521595   3.695   4.922   0.670  0.3450 -0.2933  0.0045
 3240ntf    on521596   3.597   4.749   0.934  0.2787 -0.0248 -0.0734
 3240ntf    on521597   3.477   4.954   1.002 -0.2048 -0.0872 -0.0868
 3240ntf    fn421598   3.582   4.824   1.229  0.0340  0.7608 -0.1449
 3240ntf    fn421599   3.771   4.778   1.153  0.6322  0.2167  0.4760
 3240ntf    fn421600   3.715   4.985   1.193  0.1446 -0.2236  0.4904
   7.10781   7.10781   7.10781
