Converted from moscito
25920
    1SOL     ow    1   3.776   1.469   1.999 -0.1825  0.0999  0.3424
    1SOL     hw    2   3.869   1.484   2.010  0.2480 -0.4488 -2.0499
    1SOL     hw    3   3.757   1.393   2.054  1.1663 -0.8431 -0.4329
    1SOL     vw    4   3.785   1.461   2.008  0.0523 -0.0969 -0.0755
    2SOL     ow    5   3.053   3.741   0.078  0.0227  0.3651  0.0652
    2SOL     hw    6   3.081   3.826   0.112 -3.0686  0.7901  2.0060
    2SOL     hw    7   3.101   3.677   0.131  1.9172  0.8318 -0.9977
    2SOL     vw    8   3.063   3.744   0.089 -0.1352  0.4829  0.1810
    3SOL     ow    9   4.529   3.666   4.605 -0.0791  0.1578  0.3726
    3SOL     hw   10   4.521   3.707   4.518  2.2084 -0.2766 -0.0972
    3SOL     hw   11   4.479   3.724   4.662 -1.8445  0.3394 -1.2462
    3SOL     vw   12   4.521   3.679   4.601 -0.0100  0.1245  0.0970
    4SOL     ow   13   4.370   3.004   3.525 -0.1815 -0.0396  0.3180
    4SOL     hw   14   4.358   2.918   3.566  0.1168 -0.2375 -0.0053
    4SOL     hw   15   4.367   3.066   3.598 -2.5336 -0.1089  0.3547
    4SOL     vw   16   4.368   3.001   3.540 -0.4525 -0.0750  0.2801
    5SOL     ow   17   1.702   1.657   2.911 -0.1711 -0.7879  0.2997
    5SOL     hw   18   1.620   1.607   2.915  0.0409 -1.1062  0.7932
    5SOL     hw   19   1.675   1.747   2.894 -0.5225 -1.1705 -1.4205
    5SOL     vw   20   1.688   1.662   2.909 -0.1895 -0.8803  0.1379
    6SOL     ow   21   1.153   1.259   5.001  0.0789 -0.7410 -0.7959
    6SOL     hw   22   1.162   1.173   5.044 -0.4834 -0.3452  0.1388
    6SOL     hw   23   1.236   1.303   5.017  0.6885 -1.4087 -1.9907
    6SOL     vw   24   1.165   1.253   5.009  0.0852 -0.7770 -0.8302
    7SOL     ow   25   6.419   0.487   2.063  0.7572  0.0804 -0.1236
    7SOL     hw   26   6.463   0.555   2.113 -1.1537  1.0194  0.3548
    7SOL     hw   27   6.423   0.517   1.972 -0.5771  1.1770  0.1464
    7SOL     vw   28   6.425   0.500   2.057  0.3290  0.3489 -0.0249
    8SOL     ow   29   0.535   1.200   1.049  0.0503  0.3606 -0.1733
    8SOL     hw   30   0.497   1.273   1.098  2.1576  0.7753  0.9634
    8SOL     hw   31   0.537   1.128   1.111 -0.4774 -0.1985 -0.7830
    8SOL     vw   32   0.530   1.200   1.063  0.2587  0.3415 -0.1038
    9SOL     ow   33   6.333   6.323   7.112 -0.3621  0.7017  0.3913
    9SOL     hw   34   6.347   6.299   7.204  2.4638  2.0724  0.4222
    9SOL     hw   35   6.257   6.381   7.114 -0.2561  0.8384  1.9074
    9SOL     vw   36   6.325   6.328   7.125  0.0248  0.9010  0.5956
   10SOL     ow   37   6.253   5.340   5.625  0.2403 -0.3244 -0.0838
   10SOL     hw   38   6.234   5.251   5.595  0.5197 -0.9074  1.3782
   10SOL     hw   39   6.344   5.337   5.653  0.9244  1.0145 -1.9748
   10SOL     vw   40   6.263   5.327   5.625  0.3679 -0.2246 -0.1404
   11SOL     ow   41   6.168   1.607   1.065 -0.4846  0.0699  0.1310
   11SOL     hw   42   6.099   1.632   1.003 -0.6302 -1.7619 -0.5104
   11SOL     hw   43   6.138   1.524   1.102  0.5567  0.1384  1.1771
   11SOL     vw   44   6.155   1.599   1.062 -0.3664 -0.1628  0.1843
   12SOL     ow   45   7.121   5.174   4.266  0.0270 -1.1148 -0.1663
   12SOL     hw   46   7.150   5.238   4.331  0.3274  0.1685 -1.4992
   12SOL     hw   47   7.035   5.206   4.237  0.1602 -1.3237 -0.8167
   12SOL     vw   48   7.113   5.187   4.271  0.0842 -0.9732 -0.4282
   13SOL     ow   49   0.614   0.794   7.132  0.0141  0.7519  0.1983
   13SOL     hw   50   0.665   0.868   7.165 -1.3740  1.7990  0.0650
   13SOL     hw   51   0.556   0.831   7.066 -0.2776 -0.5772 -0.3400
   13SOL     vw   52   0.613   0.808   7.128 -0.2075  0.7147  0.1094
   14SOL     ow   53   4.144   0.808   5.737  0.1649 -0.3688 -0.4433
   14SOL     hw   54   4.051   0.813   5.713 -0.6293 -0.1549  2.2758
   14SOL     hw   55   4.150   0.728   5.790  1.9315 -1.2556 -1.8684
   14SOL     vw   56   4.132   0.798   5.741  0.2930 -0.4576 -0.2725
   15SOL     ow   57   4.399   3.061   1.786 -0.1614 -0.1246 -0.7323
   15SOL     hw   58   4.481   3.012   1.798  0.3696  0.8132 -0.4655
   15SOL     hw   59   4.333   3.007   1.830  0.4239 -0.5591 -0.3622
   15SOL     vw   60   4.401   3.047   1.794 -0.0141 -0.0582 -0.6483
   16SOL     ow   61   0.314   3.349   6.699  0.0694  0.6440  0.1579
   16SOL     hw   62   0.375   3.413   6.663 -1.7289  2.2828 -0.1346
   16SOL     hw   63   0.357   3.317   6.778  1.7222  0.9779 -0.5530
   16SOL     vw   64   0.328   3.353   6.704  0.0502  0.9043  0.0255
   17SOL     ow   65   3.983   2.628   4.101  0.6735 -0.7956  0.6700
   17SOL     hw   66   3.946   2.697   4.157  1.4327 -0.0456  0.2741
   17SOL     hw   67   4.059   2.596   4.150  1.7317  0.3184 -0.1919
   17SOL     vw   68   3.988   2.633   4.115  0.9133 -0.5498  0.5040
   18SOL     ow   69   3.792   7.211   0.309  0.2420 -1.1569 -0.2146
   18SOL     hw   70   3.776   7.211   0.214  0.2428  2.0644 -0.3288
   18SOL     hw   71   3.887   7.218   0.317  0.1907 -0.5960 -0.0268
   18SOL     vw   72   3.802   7.212   0.297  0.2353 -0.6578 -0.2049
   19SOL     ow   73   0.224   3.237   4.910  0.7847 -0.1375  0.2584
   19SOL     hw   74   0.163   3.299   4.870  0.1343 -0.8026  0.2109
   19SOL     hw   75   0.282   3.292   4.963 -1.2790  0.3403  2.1729
   19SOL     vw   76   0.224   3.253   4.912  0.4266 -0.1622  0.5047
   20SOL     ow   77   7.229   2.651   3.960  0.6360  0.2472 -0.4282
   20SOL     hw   78   7.207   2.559   3.948  2.2310 -0.2343 -0.0197
   20SOL     hw   79   7.152   2.699   3.931 -0.6122 -1.2381  0.2876
   20SOL     vw   80   7.216   2.646   3.955  0.6819 -0.0123 -0.2798
   21SOL     ow   81   1.686   4.433   5.555  0.7951  0.1515 -0.4565
   21SOL     hw   82   1.676   4.527   5.544 -0.7727  0.1088  0.2951
   21SOL     hw   83   1.596   4.399   5.557  1.3109 -1.2878 -0.1835
   21SOL     vw   84   1.673   4.441   5.554  0.6562 -0.0441 -0.3214
   22SOL     ow   85   6.103   5.132   3.540  0.0753 -0.1647  0.1442
   22SOL     hw   86   6.044   5.073   3.587 -1.1936  2.2589  1.7541
   22SOL     hw   87   6.047   5.178   3.478  1.2386 -1.2549 -1.8365
   22SOL     vw   88   6.088   5.130   3.538  0.0615  0.0112  0.0952
   23SOL     ow   89   1.810   2.708   6.603  0.0256 -0.0563 -0.6353
   23SOL     hw   90   1.841   2.798   6.592  0.9173 -0.2157  0.4045
   23SOL     hw   91   1.749   2.714   6.678  1.9879 -0.6925  1.1095
   23SOL     vw   92   1.806   2.721   6.612  0.4022 -0.1613 -0.2677
   24SOL     ow   93   3.275   6.188   5.348  0.4422  0.3245 -0.0006
   24SOL     hw   94   3.270   6.093   5.337 -1.7463  0.4543 -0.4902
   24SOL     hw   95   3.367   6.209   5.329  1.3774 -1.8312  1.7103
   24SOL     vw   96   3.287   6.179   5.344  0.2768  0.0575  0.1605
   25SOL     ow   97   5.704   2.566   2.821 -0.6236 -0.1234  0.4018
   25SOL     hw   98   5.748   2.650   2.825 -7.3263  4.1349 -0.3283
   25SOL     hw   99   5.687   2.543   2.912  0.3037 -0.1282  0.5782
   25SOL     vw  100   5.708   2.574   2.833 -1.3855  0.4379  0.3287
   26SOL     ow  101   4.582   4.787   1.702  0.1155  0.9434  0.0874
   26SOL     hw  102   4.577   4.755   1.612  1.0725  1.1502 -0.0427
   26SOL     hw  103   4.490   4.796   1.729 -0.2834 -2.6679  0.4156
   26SOL     vw  104   4.569   4.784   1.694  0.1893  0.4942  0.1135
   27SOL     ow  105   5.900   2.545   3.960  0.0879 -0.0242  0.1281
   27SOL     hw  106   5.951   2.625   3.976  0.0786 -0.2156  1.1729
   27SOL     hw  107   5.928   2.485   4.029  0.2135 -0.9923 -0.7415
   27SOL     vw  108   5.911   2.547   3.971  0.1035 -0.1771  0.1513
   28SOL     ow  109   4.629   1.619   5.194 -0.4689 -0.0678  0.1073
   28SOL     hw  110   4.623   1.569   5.276 -1.2173  2.2070  1.5298
   28SOL     hw  111   4.542   1.656   5.182 -0.4890 -0.6980 -2.0141
   28SOL     vw  112   4.617   1.617   5.203 -0.5703  0.1493  0.0150
   29SOL     ow  113   0.339   1.226   6.442 -0.8418  0.1477 -0.1604
   29SOL     hw  114   0.380   1.179   6.515 -1.8171 -0.5646 -0.0690
   29SOL     hw  115   0.405   1.223   6.372 -1.2602 -2.2760 -0.5329
   29SOL     vw  116   0.353   1.220   6.443 -1.0256 -0.2660 -0.1976
   30SOL     ow  117   3.990   0.108   5.040  0.1457  0.3834  0.4180
   30SOL     hw  118   4.004   0.049   5.115  1.0787  0.9324  0.6954
   30SOL     hw  119   4.003   0.195   5.077  0.1822  0.6804 -0.2956
   30SOL     vw  120   3.994   0.112   5.055  0.2735  0.4950  0.3600
   31SOL     ow  121   1.894   5.774   5.534  0.0504 -0.5815 -0.5599
   31SOL     hw  122   1.845   5.839   5.583  0.6140 -1.1947  0.8620
   31SOL     hw  123   1.970   5.822   5.501 -0.4312 -0.1209 -1.0183
   31SOL     vw  124   1.898   5.789   5.536  0.0612 -0.6015 -0.4330
   32SOL     ow  125   1.982   3.415   1.191  0.3740 -0.3647  0.4215
   32SOL     hw  126   1.963   3.508   1.180 -1.3174 -0.9159 -2.3573
   32SOL     hw  127   1.907   3.371   1.151  1.3576 -2.9298  1.2323
   32SOL     vw  128   1.970   3.422   1.184  0.2806 -0.7759  0.1618
   33SOL     ow  129   6.644   3.361   3.716  0.0177 -0.0470 -0.3137
   33SOL     hw  130   6.674   3.452   3.720  1.9136 -0.6602  1.1561
   33SOL     hw  131   6.690   3.324   3.641  0.1378 -0.0793 -0.2243
   33SOL     vw  132   6.654   3.368   3.706  0.2840 -0.1322 -0.1080
   34SOL     ow  133   3.086   3.489   3.747 -0.4331  0.6090 -0.2939
   34SOL     hw  134   3.095   3.462   3.655  0.3019 -0.0958 -0.0213
   34SOL     hw  135   2.991   3.492   3.761 -0.5665 -1.3884 -0.4772
   34SOL     vw  136   3.074   3.486   3.737 -0.3536  0.2525 -0.2822
   35SOL     ow  137   0.717   6.185   1.290 -0.3809 -0.4292  0.5275
   35SOL     hw  138   0.642   6.215   1.239  1.6943  0.5163 -2.2146
   35SOL     hw  139   0.708   6.090   1.292 -0.6928 -0.4820 -1.4609
   35SOL     vw  140   0.706   6.177   1.284 -0.1483 -0.3111 -0.0967
   36SOL     ow  141   3.081   5.106   5.477 -0.2196  0.2754 -0.3304
   36SOL     hw  142   3.103   5.173   5.541  0.8455  2.1475 -2.5069
   36SOL     hw  143   3.166   5.071   5.448 -0.7307 -1.8161  0.4544
   36SOL     vw  144   3.095   5.110   5.482 -0.1466  0.2463 -0.5140
   37SOL     ow  145   0.279   5.586   6.411 -1.0024 -0.3391  0.7933
   37SOL     hw  146   0.266   5.541   6.328  1.3188  1.4214 -0.6326
   37SOL     hw  147   0.317   5.520   6.469 -0.7946 -1.0654 -0.1650
   37SOL     vw  148   0.282   5.572   6.408 -0.6687 -0.2024  0.4787
   38SOL     ow  149   0.406   6.540   5.228 -0.9699  0.1835  0.0702
   38SOL     hw  150   0.433   6.542   5.136 -1.4472 -2.3968 -0.2011
   38SOL     hw  151   0.312   6.524   5.225 -0.9882  0.0388  1.0223
   38SOL     vw  152   0.397   6.538   5.215 -1.0353 -0.1760  0.1602
   39SOL     ow  153   2.696   6.480   3.247 -0.0679  0.4074  0.1085
   39SOL     hw  154   2.726   6.434   3.169 -0.8084 -0.5853  0.3897
   39SOL     hw  155   2.737   6.567   3.241 -1.9691  1.2311 -2.5975
   39SOL     vw  156   2.706   6.486   3.236 -0.4164  0.3850 -0.2114
   40SOL     ow  157   2.768   0.643   4.839  0.4092 -0.3953 -0.4106
   40SOL     hw  158   2.743   0.551   4.833 -0.7727 -0.0625 -0.7801
   40SOL     hw  159   2.838   0.644   4.904 -0.4178 -1.3874  0.5335
   40SOL     vw  160   2.774   0.631   4.846  0.1441 -0.4823 -0.3350
   41SOL     ow  161   6.791   5.551   2.238 -0.0317 -0.3573 -0.1086
   41SOL     hw  162   6.802   5.517   2.327  0.0497 -0.5788 -0.2023
   41SOL     hw  163   6.764   5.475   2.187 -0.0471 -0.2366 -0.2804
   41SOL     vw  164   6.789   5.537   2.243 -0.0229 -0.3705 -0.1435
   42SOL     ow  165   6.937   6.561   5.426 -0.2827 -0.2706  0.2694
   42SOL     hw  166   6.897   6.484   5.385  0.1900 -0.0281 -0.6604
   42SOL     hw  167   7.031   6.541   5.429 -0.1570  0.2692  0.0202
   42SOL     vw  168   6.944   6.548   5.421 -0.2036 -0.1676  0.1140
   43SOL     ow  169   5.323   4.144   6.946  0.2731 -0.2307  0.2118
   43SOL     hw  170   5.321   4.130   6.851  2.3736 -0.7644  0.2094
   43SOL     hw  171   5.380   4.075   6.979  0.6649  0.7823  1.7155
   43SOL     vw  172   5.330   4.133   6.938  0.6018 -0.1674  0.4096
   44SOL     ow  173   3.079   4.868   2.744  0.1825 -0.1366 -0.3277
   44SOL     hw  174   3.142   4.810   2.700  1.2456 -1.4958  2.7269
   44SOL     hw  175   2.996   4.819   2.742  0.8512 -1.4717  1.3755
   44SOL     vw  176   3.076   4.854   2.738  0.4110 -0.4921  0.3000
   45SOL     ow  177   6.474   3.800   2.109  0.5842  0.1763  0.0441
   45SOL     hw  178   6.531   3.780   2.183  3.4107  1.6595 -1.5687
   45SOL     hw  179   6.411   3.863   2.143  0.1503 -1.1269  1.7703
   45SOL     vw  180   6.473   3.806   2.123  0.9000  0.2000  0.0590
   46SOL     ow  181   5.939   5.942   7.233  0.3778  0.6592  0.1804
   46SOL     hw  182   5.974   6.015   7.182 -1.8055  0.9581 -1.0220
   46SOL     hw  183   5.867   5.908   7.180 -0.5936 -0.4398  2.0925
   46SOL     vw  184   5.934   5.948   7.220 -0.0386  0.5534  0.2742
   47SOL     ow  185   3.335   2.720   3.384  0.4789 -0.3433 -0.6050
   47SOL     hw  186   3.380   2.712   3.300 -0.7079 -0.1268 -1.2705
   47SOL     hw  187   3.327   2.814   3.399  0.6812 -0.3800 -0.2464
   47SOL     vw  188   3.340   2.731   3.375  0.3490 -0.3196 -0.6456
   48SOL     ow  189   0.159   6.915   6.442 -0.1169 -0.1758  0.2822
   48SOL     hw  190   0.118   6.836   6.407 -1.8000 -0.0350  1.7765
   48SOL     hw  191   0.085   6.969   6.472  1.0356  1.6029  0.0479
   48SOL     vw  192   0.143   6.912   6.441 -0.1869  0.0772  0.4482
   49SOL     ow  193   2.159   3.903   6.815 -0.2052  0.4460 -0.9573
   49SOL     hw  194   2.122   3.916   6.903 -2.1391 -1.3673 -1.4119
   49SOL     hw  195   2.120   3.974   6.763 -2.8179 -1.1144 -1.3005
   49SOL     vw  196   2.149   3.914   6.820 -0.8051  0.0010 -1.0624
   50SOL     ow  197   4.035   6.053   6.331 -0.2433 -0.4975 -0.3819
   50SOL     hw  198   3.998   6.127   6.284 -1.8323 -1.7250 -1.1736
   50SOL     hw  199   4.069   5.995   6.263  0.0702 -0.9604  0.1577
   50SOL     vw  200   4.034   6.055   6.316 -0.4113 -0.7205 -0.4151
   51SOL     ow  201   5.259   6.965   5.046  0.1511  0.0479  0.2078
   51SOL     hw  202   5.191   6.918   4.997  0.8277 -2.4210  1.4666
   51SOL     hw  203   5.214   7.042   5.081 -0.8450  0.7951 -2.4896
   51SOL     vw  204   5.244   6.969   5.044  0.1090 -0.1793  0.0179
   52SOL     ow  205   6.682   2.783   1.715 -0.6293  0.0070 -0.5426
   52SOL     hw  206   6.772   2.758   1.695 -0.8799 -0.8467 -0.6452
   52SOL     hw  207   6.673   2.767   1.809 -1.2311 -1.8194 -0.8588
   52SOL     vw  208   6.692   2.777   1.725 -0.7417 -0.3465 -0.5978
   53SOL     ow  209   5.494   7.065   1.841  0.6545  0.0493 -0.5348
   53SOL     hw  210   5.460   7.145   1.802  2.5755 -0.3681 -3.3908
   53SOL     hw  211   5.417   7.019   1.874 -0.8577  1.6129 -1.7301
   53SOL     vw  212   5.479   7.069   1.841  0.7083  0.2005 -1.0693
   54SOL     ow  213   7.238   3.626   2.264  0.1244 -0.4942 -0.0750
   54SOL     hw  214   7.277   3.628   2.352 -1.0881  2.8362  0.5443
   54SOL     hw  215   7.270   3.706   2.223 -2.3961  0.0371 -1.1885
   54SOL     vw  216   7.247   3.637   2.270 -0.3679  0.0153 -0.1402
   55SOL     ow  217   6.164   3.696   2.066  0.2957 -1.2476  0.0984
   55SOL     hw  218   6.165   3.768   2.003  0.4833  0.2762  1.7650
   55SOL     hw  219   6.256   3.673   2.077  0.5642  0.4578  1.8982
   55SOL     vw  220   6.176   3.703   2.059  0.3560 -0.8215  0.5559
   56SOL     ow  221   5.193   3.562   6.574  0.0451  0.3625  0.3809
   56SOL     hw  222   5.217   3.546   6.665 -1.4400 -0.2215  0.6883
   56SOL     hw  223   5.273   3.599   6.535  0.5005  1.2744  2.0607
   56SOL     vw  224   5.207   3.565   6.581 -0.0911  0.4057  0.6430
   57SOL     ow  225   1.140   0.656   5.020 -0.4709  0.2922  0.4908
   57SOL     hw  226   1.151   0.562   5.007 -1.0599 -0.0477  2.1779
   57SOL     hw  227   1.217   0.682   5.071 -0.6766  0.5808  0.6555
   57SOL     vw  228   1.152   0.647   5.025 -0.5757  0.2854  0.7350
   58SOL     ow  229   4.756   1.700   5.765 -0.1034  0.2119 -0.0160
   58SOL     hw  230   4.753   1.607   5.742  1.2952 -0.2487  1.4984
   58SOL     hw  231   4.730   1.745   5.684  1.2189 -1.4106 -1.4236
   58SOL     vw  232   4.752   1.694   5.751  0.2556 -0.0629 -0.0019
   59SOL     ow  233   4.763   0.802   5.724 -0.0218 -0.4851  0.7410
   59SOL     hw  234   4.739   0.798   5.817 -2.2278  1.6984  0.3620
   59SOL     hw  235   4.798   0.890   5.712 -0.6452 -0.3977 -0.6472
   59SOL     vw  236   4.764   0.813   5.735 -0.3951 -0.1854  0.5081
   60SOL     ow  237   6.507   3.394   5.578 -0.3823  0.1731 -0.2329
   60SOL     hw  238   6.523   3.305   5.547 -2.1908 -0.7603  1.2783
   60SOL     hw  239   6.448   3.432   5.514 -0.4783 -0.1187 -0.3202
   60SOL     vw  240   6.501   3.387   5.566 -0.6337  0.0114 -0.0448
   61SOL     ow  241   2.115   5.027   6.178  0.0338 -0.0838  0.2563
   61SOL     hw  242   2.031   5.054   6.140 -0.4942 -1.6402  0.2699
   61SOL     hw  243   2.113   5.061   6.267  0.9494  2.9191 -0.7412
   61SOL     vw  244   2.104   5.035   6.184  0.0849  0.1070  0.1268
   62SOL     ow  245   2.124   2.915   4.055  0.2899  0.3136  0.2258
   62SOL     hw  246   2.156   2.897   4.144  1.2980  0.0951 -0.1757
   62SOL     hw  247   2.029   2.902   4.061  0.5120 -1.1827  0.9185
   62SOL     vw  248   2.116   2.911   4.068  0.4522  0.0875  0.2642
   63SOL     ow  249   0.383   5.408   6.614 -0.1811  0.1238 -0.5737
   63SOL     hw  250   0.294   5.422   6.646  0.8421  0.7212  2.3329
   63SOL     hw  251   0.394   5.313   6.613 -0.3366  0.0759  0.7509
   63SOL     vw  252   0.373   5.398   6.618 -0.0666  0.1960 -0.0157
   64SOL     ow  253   3.701   5.060   1.433 -0.5062 -0.1186 -0.4648
   64SOL     hw  254   3.748   4.976   1.439 -0.8236 -0.2237  0.9335
   64SOL     hw  255   3.768   5.122   1.404  0.5268 -0.2823  1.3955
   64SOL     vw  256   3.716   5.057   1.430 -0.4119 -0.1540 -0.0349
   65SOL     ow  257   4.829   2.532   5.439 -0.1299  0.2380 -0.3517
   65SOL     hw  258   4.779   2.598   5.487  1.1257  1.0030 -0.0565
   65SOL     hw  259   4.788   2.530   5.353 -1.3907  0.0084  0.2187
   65SOL     vw  260   4.817   2.541   5.434 -0.1307  0.3086 -0.2375
   66SOL     ow  261   3.614   6.179   0.271  0.0833  0.1406  0.3224
   66SOL     hw  262   3.549   6.247   0.253  0.3195  0.2615 -0.0938
   66SOL     hw  263   3.697   6.220   0.247  0.2533 -0.2087  0.3190
   66SOL     vw  264   3.616   6.194   0.265  0.1367  0.1106  0.2670
   67SOL     ow  265   4.030   4.344   6.481  0.3435  0.9091  0.2728
   67SOL     hw  266   4.080   4.263   6.488 -0.6463  0.2544  0.0946
   67SOL     hw  267   4.041   4.386   6.566 -1.6817 -1.0045  1.6136
   67SOL     vw  268   4.038   4.339   6.493 -0.0544  0.5705  0.4263
   68SOL     ow  269   5.472   1.509   2.734 -0.0254  0.1191 -0.3931
   68SOL     hw  270   5.521   1.427   2.739 -0.7886 -0.3909 -1.0377
   68SOL     hw  271   5.503   1.551   2.654 -1.2033 -0.6036 -1.2637
   68SOL     vw  272   5.482   1.504   2.724 -0.2816 -0.0435 -0.5931
   69SOL     ow  273   5.468   3.644   3.105 -0.1523 -0.0299  0.0890
   69SOL     hw  274   5.469   3.714   3.039 -0.5171 -0.4254 -0.3442
   69SOL     hw  275   5.489   3.688   3.187 -0.3478  0.5874 -0.1868
   69SOL     vw  276   5.471   3.659   3.107 -0.2263 -0.0006 -0.0046
   70SOL     ow  277   0.631   6.722   5.395 -0.2158  0.3409  0.4533
   70SOL     hw  278   0.722   6.750   5.401  0.2274 -1.0578  0.5268
   70SOL     hw  279   0.588   6.761   5.472  0.4868  0.3609  0.8391
   70SOL     vw  280   0.637   6.731   5.406 -0.0646  0.1590  0.5140
   71SOL     ow  281   5.069   0.859   1.044  0.0819 -0.0998 -0.0346
   71SOL     hw  282   5.154   0.845   1.087  0.1951 -1.5295 -0.6848
   71SOL     hw  283   5.005   0.830   1.108  0.2413 -1.9803 -0.6692
   71SOL     vw  284   5.072   0.853   1.058  0.1180 -0.5365 -0.2041
   72SOL     ow  285   2.044   2.713   5.460  0.4222  0.0231 -0.7928
   72SOL     hw  286   2.122   2.733   5.408 -0.1836  0.9095 -1.3718
   72SOL     hw  287   2.066   2.631   5.505  1.9452  0.6232 -0.3991
   72SOL     vw  288   2.057   2.705   5.459  0.5431  0.2191 -0.8173
   73SOL     ow  289   4.260   4.412   3.667 -0.0588  0.5838 -0.1521
   73SOL     hw  290   4.167   4.393   3.671 -0.3255  1.1661 -2.2364
   73SOL     hw  291   4.285   4.435   3.756 -1.8339  0.1494  0.4818
   73SOL     vw  292   4.251   4.412   3.679 -0.3281  0.6034 -0.3434
   74SOL     ow  293   3.002   0.838   2.787 -0.0260 -0.0402 -0.0708
   74SOL     hw  294   2.979   0.745   2.782 -1.0275  0.2240 -0.5263
   74SOL     hw  295   2.956   0.871   2.864  1.2545 -0.1578  0.7802
   74SOL     vw  296   2.993   0.830   2.797  0.0108 -0.0208 -0.0186
   75SOL     ow  297   0.171   2.670   6.643 -0.2231 -0.3307  0.1762
   75SOL     hw  298   0.199   2.583   6.615 -0.8304 -0.5365  0.2020
   75SOL     hw  299   0.214   2.682   6.728 -1.7563 -1.4791  1.1836
   75SOL     vw  300   0.180   2.660   6.651 -0.5055 -0.5094  0.3126
   76SOL     ow  301   3.324   2.715   6.705 -0.3867  0.2338  0.0156
   76SOL     hw  302   3.376   2.646   6.663 -1.8979 -1.3541  0.6128
   76SOL     hw  303   3.388   2.768   6.752  0.8589 -0.6016 -0.6520
   76SOL     vw  304   3.339   2.713   6.705 -0.4216 -0.0858  0.0062
   77SOL     ow  305   3.576   0.740   6.450 -0.0245 -0.4403  0.1315
   77SOL     hw  306   3.663   0.734   6.491  0.0633 -0.5828 -0.0691
   77SOL     hw  307   3.588   0.800   6.376  0.1798 -1.3136 -0.5696
   77SOL     vw  308   3.589   0.747   6.445  0.0142 -0.5744  0.0126
   78SOL     ow  309   5.323   0.110   3.044  0.1865  0.7604 -0.2127
   78SOL     hw  310   5.295   0.035   2.991 -0.1678  1.4104 -0.9542
   78SOL     hw  311   5.281   0.095   3.129 -0.5331  0.5188 -0.5979
   78SOL     vw  312   5.313   0.098   3.048  0.0448  0.8143 -0.3613
   79SOL     ow  313   3.845   4.308   2.335  0.0999 -0.0706  0.1670
   79SOL     hw  314   3.933   4.318   2.298  0.9992 -0.9000  1.9535
   79SOL     hw  315   3.801   4.249   2.274  0.3842  1.1983 -1.3308
   79SOL     vw  316   3.851   4.301   2.322  0.2561 -0.0126  0.2050
   80SOL     ow  317   4.725   1.677   0.841  0.0549 -0.4034 -0.0865
   80SOL     hw  318   4.799   1.729   0.872 -0.9559  0.5001  0.9408
   80SOL     hw  319   4.655   1.696   0.905 -0.5530 -2.5273 -0.0584
   80SOL     vw  320   4.725   1.687   0.854 -0.1588 -0.5645  0.0528
   81SOL     ow  321   6.159   4.187   2.024  0.2512 -0.1916  0.0234
   81SOL     hw  322   6.074   4.180   2.068 -0.1479  0.0588 -0.6923
   81SOL     hw  323   6.137   4.193   1.931  1.0138  0.6826 -0.1124
   81SOL     vw  324   6.145   4.187   2.018  0.2992 -0.0432 -0.0888
   82SOL     ow  325   4.922   5.329   4.391  0.2984 -0.0886 -0.0514
   82SOL     hw  326   4.851   5.323   4.456  0.9501  2.0285  0.9453
   82SOL     hw  327   4.963   5.242   4.393 -3.1376 -1.9659 -1.8418
   82SOL     vw  328   4.918   5.316   4.400 -0.0694 -0.0567 -0.1562
   83SOL     ow  329   5.597   3.040   3.264 -0.5532 -0.7394  0.0680
   83SOL     hw  330   5.627   3.110   3.206 -2.0439 -0.3422 -0.2646
   83SOL     hw  331   5.660   3.039   3.336 -0.9507  1.5272  0.5164
   83SOL     vw  332   5.609   3.049   3.266 -0.8023 -0.3879  0.0833
   84SOL     ow  333   5.452   0.627   6.041 -0.1134  0.0004 -0.2803
   84SOL     hw  334   5.450   0.672   6.126  1.3802 -0.8745  0.2567
   84SOL     hw  335   5.478   0.694   5.979 -1.9929  0.8503 -0.2280
   84SOL     vw  336   5.455   0.641   6.044 -0.1643 -0.0029 -0.2027
   85SOL     ow  337   3.114   0.876   7.233 -0.0323 -0.1994  0.5549
   85SOL     hw  338   3.161   0.834   7.305  0.8457 -0.3066 -0.0674
   85SOL     hw  339   3.173   0.944   7.202  0.1044 -0.8857 -0.7809
   85SOL     vw  340   3.128   0.879   7.238  0.1016 -0.3041  0.2966
   86SOL     ow  341   5.594   6.946   6.244 -0.3915 -0.1701  0.4653
   86SOL     hw  342   5.604   6.853   6.267 -0.2812 -0.3119 -0.1498
   86SOL     hw  343   5.559   6.945   6.155  1.4610  0.3676 -0.3290
   86SOL     vw  344   5.591   6.933   6.235 -0.1328 -0.1175  0.2797
   87SOL     ow  345   3.388   0.202   2.563 -0.2126 -0.5625 -0.5098
   87SOL     hw  346   3.429   0.194   2.649 -0.2048  0.9176 -0.3415
   87SOL     hw  347   3.294   0.203   2.582 -0.1930  0.8365 -0.3767
   87SOL     vw  348   3.381   0.201   2.577 -0.2090 -0.1826 -0.4702
   88SOL     ow  349   1.132   4.324   1.956  0.0721  0.3703  0.2917
   88SOL     hw  350   1.103   4.266   2.027  1.7552  0.0335  0.7387
   88SOL     hw  351   1.063   4.316   1.890 -0.8877 -0.3245  1.3236
   88SOL     vw  352   1.119   4.315   1.957  0.1676  0.2344  0.4869
   89SOL     ow  353   3.288   2.387   3.484 -0.4045 -0.0165 -0.1147
   89SOL     hw  354   3.224   2.345   3.426  0.2092  0.2417 -1.0021
   89SOL     hw  355   3.319   2.315   3.540  0.5544 -0.7691 -1.5440
   89SOL     vw  356   3.284   2.372   3.484 -0.1971 -0.0818 -0.4205
   90SOL     ow  357   6.478   0.490   0.455 -0.0453 -0.1119  0.1712
   90SOL     hw  358   6.491   0.585   0.447 -0.8128 -0.0737 -0.8194
   90SOL     hw  359   6.555   0.459   0.501 -0.1967  1.1254  1.3318
   90SOL     vw  360   6.490   0.499   0.460 -0.1667  0.0564  0.1936
   91SOL     ow  361   4.260   2.408   6.124 -0.1455 -0.3833 -0.2000
   91SOL     hw  362   4.175   2.452   6.134  0.2924  0.4015  0.1934
   91SOL     hw  363   4.271   2.398   6.030 -0.7784 -0.7067 -0.2461
   91SOL     vw  364   4.250   2.412   6.113 -0.1712 -0.3225 -0.1543
   92SOL     ow  365   3.713   5.122   3.295 -0.8696  0.6511  0.4155
   92SOL     hw  366   3.643   5.060   3.316 -1.1214  0.7541 -0.1144
   92SOL     hw  367   3.677   5.177   3.225 -0.5514  1.2206  0.6896
   92SOL     vw  368   3.699   5.121   3.289 -0.8608  0.7398  0.3818
   93SOL     ow  369   6.440   1.475   2.586 -0.4245  0.0231  0.3720
   93SOL     hw  370   6.430   1.567   2.561 -1.0708 -0.4140 -1.0865
   93SOL     hw  371   6.534   1.458   2.581 -0.4814  0.0930 -1.3664
   93SOL     vw  372   6.451   1.485   2.582 -0.5174 -0.0253 -0.0498
   94SOL     ow  373   0.905   3.473   5.888 -0.2933 -0.1016  0.1662
   94SOL     hw  374   0.912   3.435   5.801  0.8272 -1.7223  0.9237
   94SOL     hw  375   0.984   3.526   5.898 -0.3151 -0.0870  0.2709
   94SOL     vw  376   0.917   3.475   5.878 -0.1483 -0.3135  0.2797
   95SOL     ow  377   4.410   0.830   3.985  0.6480  0.1572 -0.1865
   95SOL     hw  378   4.444   0.817   3.897  1.5581  1.2612 -0.0295
   95SOL     hw  379   4.338   0.892   3.975  1.3535  1.0206 -0.0741
   95SOL     vw  380   4.405   0.836   3.972  0.8607  0.4168 -0.1510
   96SOL     ow  381   0.726   5.804   4.597 -0.0657  0.2903 -0.6211
   96SOL     hw  382   0.700   5.712   4.608  0.4385  0.2800  0.6362
   96SOL     hw  383   0.821   5.804   4.606 -0.0829  0.9723 -0.3658
   96SOL     vw  384   0.735   5.792   4.599 -0.0014  0.3786 -0.4218
   97SOL     ow  385   6.671   6.438   7.171 -0.4583 -0.0160 -0.8347
   97SOL     hw  386   6.701   6.386   7.096 -1.6632 -1.0192 -0.6690
   97SOL     hw  387   6.728   6.411   7.243  1.4251  1.7491 -1.5637
   97SOL     vw  388   6.682   6.427   7.170 -0.3686  0.0846 -0.9093
   98SOL     ow  389   2.244   3.952   2.556  0.4213  0.2612 -0.5514
   98SOL     hw  390   2.306   4.024   2.545 -0.2559  0.6756 -1.7847
   98SOL     hw  391   2.173   3.990   2.609 -0.3167  0.7727 -1.8582
   98SOL     vw  392   2.243   3.967   2.562  0.2345  0.3833 -0.8866
   99SOL     ow  393   4.604   5.027   2.016 -0.5171 -0.0886 -0.2703
   99SOL     hw  394   4.661   5.098   1.986  0.0150 -0.3066  0.1997
   99SOL     hw  395   4.633   4.950   1.967 -0.8976 -0.0429 -0.5669
   99SOL     vw  396   4.615   5.026   2.006 -0.4971 -0.1116 -0.2474
  100SOL     ow  397   2.534   3.403   5.495  0.8018 -0.3220 -0.5625
  100SOL     hw  398   2.579   3.481   5.528  1.0309 -0.1020 -1.3704
  100SOL     hw  399   2.598   3.360   5.438  0.1018 -0.1541 -1.5008
  100SOL     vw  400   2.548   3.408   5.492  0.7397 -0.2707 -0.7927
  101SOL     ow  401   5.117   2.968   5.431 -0.4933 -0.1106  0.2363
  101SOL     hw  402   5.181   2.901   5.407 -1.3569 -1.2716  1.0456
  101SOL     hw  403   5.082   2.939   5.515  0.0384  2.0630  1.2851
  101SOL     vw  404   5.121   2.955   5.439 -0.5374  0.0230  0.4816
  102SOL     ow  405   2.061   3.422   1.470  0.3436 -0.1760 -0.2592
  102SOL     hw  406   2.069   3.511   1.436  0.3320 -0.0483  0.0671
  102SOL     hw  407   2.036   3.433   1.562 -0.4606 -0.5234 -0.4229
  102SOL     vw  408   2.059   3.435   1.478  0.2360 -0.2050 -0.2377
  103SOL     ow  409   1.314   0.054   7.115 -0.0579 -0.4298  0.8848
  103SOL     hw  410   1.348   0.134   7.075  1.2614  0.1270  2.9890
  103SOL     hw  411   1.223   0.074   7.137 -0.1640 -0.0292  0.0904
  103SOL     vw  412   1.306   0.067   7.113  0.1022 -0.3035  1.0576
  104SOL     ow  413   5.661   6.051   0.627 -0.3482  0.3084  0.8815
  104SOL     hw  414   5.738   6.005   0.663 -1.0440  0.4939  2.7323
  104SOL     hw  415   5.587   5.994   0.649 -0.8100  0.2766 -0.6213
  104SOL     vw  416   5.661   6.037   0.635 -0.5007  0.3285  0.9274
  105SOL     ow  417   2.897   4.647   3.450  0.4070 -0.0841 -0.4404
  105SOL     hw  418   2.911   4.559   3.486 -1.2627 -0.0266  0.4247
  105SOL     hw  419   2.983   4.672   3.415  0.8919 -2.0897 -0.8078
  105SOL     vw  420   2.910   4.638   3.450  0.2507 -0.3412 -0.3748
  106SOL     ow  421   2.950   3.861   6.445 -0.3200 -0.0906 -0.0978
  106SOL     hw  422   2.870   3.913   6.447 -0.8574 -0.7574 -1.9193
  106SOL     hw  423   2.938   3.802   6.370  1.2435 -1.2336  0.5057
  106SOL     vw  424   2.938   3.860   6.435 -0.1847 -0.3294 -0.2584
  107SOL     ow  425   0.419   3.866   6.779  0.5560  0.0986  0.0671
  107SOL     hw  426   0.488   3.922   6.816 -0.6312  1.1861  0.7029
  107SOL     hw  427   0.422   3.884   6.685  0.5653  0.7976  0.1977
  107SOL     vw  428   0.429   3.876   6.771  0.4006  0.3343  0.1681
  108SOL     ow  429   3.885   0.275   1.401 -0.0718  0.8774 -0.0591
  108SOL     hw  430   3.899   0.349   1.459 -0.1428  1.4303 -0.7308
  108SOL     hw  431   3.792   0.256   1.408  0.0085  0.6329  0.3666
  108SOL     vw  432   3.875   0.282   1.410 -0.0707  0.9181 -0.0915
  109SOL     ow  433   1.180   2.021   2.867  0.0538  0.1983  0.1108
  109SOL     hw  434   1.127   2.070   2.930 -0.5246 -2.1728  1.6050
  109SOL     hw  435   1.120   2.002   2.795 -0.9918 -1.6826  1.3783
  109SOL     vw  436   1.165   2.025   2.866 -0.1605 -0.3626  0.4752
  110SOL     ow  437   3.513   0.092   2.790  0.1192 -0.1560  0.3675
  110SOL     hw  438   3.605   0.111   2.810 -0.2275  1.6179  0.4751
  110SOL     hw  439   3.516   0.025   2.721  1.4991  0.2275  0.0348
  110SOL     vw  440   3.525   0.086   2.783  0.2556  0.1286  0.3378
  111SOL     ow  441   0.119   3.487   0.742 -0.0678 -0.5760  0.3425
  111SOL     hw  442   0.167   3.413   0.778  1.3311  1.3122  2.5920
  111SOL     hw  443   0.185   3.540   0.699 -1.4085 -1.7678 -3.6608
  111SOL     vw  444   0.134   3.484   0.741 -0.0601 -0.4841  0.1111
  112SOL     ow  445   0.198   2.492   5.026  0.4986 -0.4519  0.3646
  112SOL     hw  446   0.152   2.409   5.010  0.1437  0.0178 -1.2730
  112SOL     hw  447   0.188   2.540   4.944  1.7879  0.7018  0.8622
  112SOL     vw  448   0.190   2.487   5.013  0.6219 -0.2377  0.2141
  113SOL     ow  449   4.272   6.536   3.207  0.1782 -0.5399  0.7271
  113SOL     hw  450   4.344   6.573   3.156 -0.8641  3.4634  1.7726
  113SOL     hw  451   4.304   6.539   3.298  0.3890 -3.4042  0.8293
  113SOL     vw  452   4.286   6.541   3.212  0.0684 -0.3898  0.8786
  114SOL     ow  453   3.788   1.741   4.285 -0.2070 -0.6292  0.2341
  114SOL     hw  454   3.842   1.662   4.277  0.6059 -0.1558  0.8336
  114SOL     hw  455   3.847   1.806   4.325 -1.2545 -0.1160  0.9740
  114SOL     vw  456   3.803   1.739   4.289 -0.2378 -0.4991  0.4110
  115SOL     ow  457   4.364   7.004   4.182  0.0495 -0.3254 -0.4711
  115SOL     hw  458   4.399   7.084   4.222  0.1896 -0.8944  0.5845
  115SOL     hw  459   4.323   7.034   4.101 -0.9024  1.0035  0.4488
  115SOL     vw  460   4.363   7.018   4.177 -0.0577 -0.2253 -0.2105
  116SOL     ow  461   5.783   7.154   3.728  0.3577 -0.4202 -0.7397
  116SOL     hw  462   5.826   7.090   3.671  0.3613  0.6754 -2.0187
  116SOL     hw  463   5.852   7.181   3.789  0.7945 -0.4927 -1.1920
  116SOL     vw  464   5.798   7.149   3.728  0.4160 -0.2854 -0.9681
  117SOL     ow  465   0.668   6.613   3.521  0.3764  0.6673  0.1774
  117SOL     hw  466   0.691   6.568   3.439  0.9848  0.1155  0.6440
  117SOL     hw  467   0.572   6.611   3.522  0.3481  1.0202 -0.7015
  117SOL     vw  468   0.658   6.606   3.510  0.4529  0.6411  0.1231
  118SOL     ow  469   2.763   5.941   4.764  0.1978  0.0115  0.0401
  118SOL     hw  470   2.780   5.953   4.857  0.4287  0.2397 -0.0314
  118SOL     hw  471   2.693   5.876   4.761  0.5381 -0.3779  0.3565
  118SOL     vw  472   2.756   5.934   4.776  0.2732 -0.0095  0.0727
  119SOL     ow  473   6.530   4.268   0.667  0.3182 -0.2695 -0.0629
  119SOL     hw  474   6.524   4.246   0.760 -1.5051 -2.1860 -0.5648
  119SOL     hw  475   6.462   4.334   0.654 -0.5728 -1.2078 -0.3105
  119SOL     vw  476   6.520   4.274   0.678 -0.0398 -0.6461 -0.1618
  120SOL     ow  477   4.250   4.870   4.814 -0.0885 -0.3639 -0.5963
  120SOL     hw  478   4.172   4.824   4.783  0.3480 -0.2142 -1.9850
  120SOL     hw  479   4.223   4.961   4.823 -0.9523 -0.7788  2.1481
  120SOL     vw  480   4.236   4.876   4.811 -0.1450 -0.3986 -0.4172
  121SOL     ow  481   0.476   6.803   6.593  0.5333 -0.3702 -0.5551
  121SOL     hw  482   0.533   6.797   6.517  1.7016 -0.2668  0.2794
  121SOL     hw  483   0.427   6.884   6.581  0.1753 -0.7166 -1.5294
  121SOL     vw  484   0.477   6.813   6.582  0.6402 -0.4022 -0.5734
  122SOL     ow  485   3.367   6.598   2.399 -0.8498 -0.4169  0.1403
  122SOL     hw  486   3.460   6.620   2.392 -0.9470  0.1597  0.6082
  122SOL     hw  487   3.327   6.675   2.439 -2.3858  1.5112 -4.4657
  122SOL     vw  488   3.374   6.611   2.404 -1.0651 -0.0863 -0.4057
  123SOL     ow  489   0.955   5.055   5.829 -0.1405 -0.4001 -0.5004
  123SOL     hw  490   0.987   5.046   5.919  1.0162  0.7574 -0.7531
  123SOL     hw  491   0.893   5.127   5.833  2.4606  2.0653 -1.1334
  123SOL     vw  492   0.951   5.063   5.841  0.3553  0.0780 -0.6175
  124SOL     ow  493   0.373   2.396   3.667 -0.3570  0.1006  0.7351
  124SOL     hw  494   0.306   2.459   3.641 -0.3374 -0.1953 -0.0396
  124SOL     hw  495   0.340   2.311   3.638  1.4775  0.2048 -2.0221
  124SOL     vw  496   0.360   2.393   3.660 -0.1124  0.0755  0.2692
  125SOL     ow  497   0.250   3.940   3.922  0.2432 -0.1555 -0.0788
  125SOL     hw  498   0.162   3.977   3.923  0.9037  1.5185  0.6203
  125SOL     hw  499   0.256   3.890   4.004  0.8153  2.1225  1.3804
  125SOL     vw  500   0.240   3.938   3.933  0.4058  0.3657  0.2060
  126SOL     ow  501   1.638   1.481   0.998 -0.3510  0.0986 -0.0350
  126SOL     hw  502   1.593   1.447   1.076 -0.0335  1.0958  0.5929
  126SOL     hw  503   1.705   1.540   1.032 -0.7651  1.2245 -1.0750
  126SOL     vw  504   1.641   1.484   1.013 -0.3637  0.3787 -0.0893
  127SOL     ow  505   0.037   0.150   2.065 -0.9435 -0.2439  0.2726
  127SOL     hw  506   0.095   0.204   2.011 -1.0718 -0.5374 -0.1570
  127SOL     hw  507   0.006   0.081   2.007 -0.4607 -1.0342  0.9200
  127SOL     vw  508   0.041   0.148   2.050 -0.8967 -0.3869  0.3014
  128SOL     ow  509   5.244   5.866   7.025  0.4393 -0.1326  0.1245
  128SOL     hw  510   5.289   5.781   7.021  0.3121 -0.2506  1.0102
  128SOL     hw  511   5.193   5.862   7.106  0.4471  0.8021  0.1817
  128SOL     vw  512   5.244   5.854   7.035  0.4237 -0.0248  0.2487
  129SOL     ow  513   2.546   4.959   0.097  0.7208 -0.1767 -0.7093
  129SOL     hw  514   2.528   4.888   0.036  1.8247 -0.7581 -0.4014
  129SOL     hw  515   2.463   5.005   0.107  0.4217 -0.3125 -2.3189
  129SOL     vw  516   2.533   4.956   0.090  0.8271 -0.2716 -0.8810
  130SOL     ow  517   3.806   5.849   0.901  0.0295 -0.1085 -0.2352
  130SOL     hw  518   3.858   5.928   0.891 -0.6850  0.4633  0.4381
  130SOL     hw  519   3.741   5.854   0.831 -2.8505  2.2077  2.3469
  130SOL     vw  520   3.804   5.860   0.891 -0.4447  0.2725  0.1943
  131SOL     ow  521   3.614   2.859   0.621 -0.7370 -0.0142  0.0290
  131SOL     hw  522   3.607   2.771   0.585  0.3642  0.0332 -0.3473
  131SOL     hw  523   3.692   2.896   0.578 -1.0956  1.0832  0.2904
  131SOL     vw  524   3.623   2.852   0.611 -0.6391  0.1369  0.0138
  132SOL     ow  525   4.616   0.994   0.905 -0.5599  0.5432  0.2251
  132SOL     hw  526   4.629   1.088   0.894  3.0741  0.2055  0.2025
  132SOL     hw  527   4.630   0.978   0.998  1.3683 -0.1458 -0.1240
  132SOL     vw  528   4.620   1.004   0.916  0.1740  0.4078  0.1760
  133SOL     ow  529   1.450   5.123   0.198  0.0406  0.1234 -0.5456
  133SOL     hw  530   1.389   5.155   0.264  2.4873  0.0124  1.9866
  133SOL     hw  531   1.444   5.027   0.205 -0.9557  0.0599 -1.8371
  133SOL     vw  532   1.441   5.114   0.208  0.2319  0.1006 -0.3819
  134SOL     ow  533   0.809   5.520   7.197 -0.6866 -0.4349  0.1303
  134SOL     hw  534   0.725   5.524   7.243 -0.3331 -1.6481  0.9685
  134SOL     hw  535   0.853   5.444   7.236  0.8136  0.1964 -0.2650
  134SOL     vw  536   0.804   5.510   7.208 -0.4420 -0.5114  0.1888
  135SOL     ow  537   3.671   0.061   1.688 -0.5340 -0.4780 -0.5564
  135SOL     hw  538   3.745   0.078   1.746  0.4334 -1.0256 -1.5759
  135SOL     hw  539   3.594   0.078   1.741  0.3221 -0.2620  0.6570
  135SOL     vw  540   3.671   0.066   1.703 -0.2934 -0.5218 -0.5308
  136SOL     ow  541   2.673   6.537   5.438  0.1412  0.0787 -0.1248
  136SOL     hw  542   2.587   6.501   5.459  0.4255 -0.0522  0.8718
  136SOL     hw  543   2.706   6.570   5.522  0.8766  0.5211 -0.5800
  136SOL     vw  544   2.666   6.536   5.452  0.2759  0.1199 -0.0532
  137SOL     ow  545   1.074   2.411   2.199  0.1387  0.2275 -0.3528
  137SOL     hw  546   1.062   2.498   2.236 -2.0946  0.2525 -1.0136
  137SOL     hw  547   1.095   2.356   2.274  4.2464  1.6459 -0.1801
  137SOL     vw  548   1.075   2.415   2.214  0.3860  0.4177 -0.4172
  138SOL     ow  549   6.534   6.411   5.174 -0.6424  0.2667  0.1916
  138SOL     hw  550   6.499   6.345   5.234 -2.1140  1.8937  1.2498
  138SOL     hw  551   6.497   6.494   5.206  1.8232  1.7452 -0.5134
  138SOL     vw  552   6.525   6.413   5.186 -0.5112  0.6764  0.2382
  139SOL     ow  553   2.615   5.951   0.909  0.3431 -0.2176 -0.2698
  139SOL     hw  554   2.629   6.032   0.958  1.3403  0.4628 -1.6454
  139SOL     hw  555   2.540   5.970   0.853  0.7070 -0.1790 -0.7427
  139SOL     vw  556   2.607   5.964   0.908  0.5226 -0.1228 -0.5137
  140SOL     ow  557   2.038   6.614   6.049  0.1326  0.3196 -0.3192
  140SOL     hw  558   1.959   6.648   6.008 -0.5731 -0.2008  0.5742
  140SOL     hw  559   2.012   6.529   6.084  1.4862 -0.5671 -1.3295
  140SOL     vw  560   2.024   6.607   6.048  0.2179  0.1340 -0.3347
  141SOL     ow  561   6.389   2.606   2.611 -0.1001  0.0611  0.6339
  141SOL     hw  562   6.332   2.679   2.586 -1.6771 -1.6657 -1.1183
  141SOL     hw  563   6.340   2.558   2.678  0.3003 -0.1991  0.7471
  141SOL     vw  564   6.375   2.610   2.617 -0.2556 -0.2010  0.4177
  142SOL     ow  565   5.189   4.300   7.136 -0.3783 -0.4036 -0.2775
  142SOL     hw  566   5.244   4.255   7.072 -0.5114 -1.6618  0.4760
  142SOL     hw  567   5.112   4.328   7.086  0.3986  0.3734 -1.0854
  142SOL     vw  568   5.186   4.298   7.121 -0.2935 -0.4671 -0.2847
  143SOL     ow  569   0.069   6.575   0.472  0.0145  0.6655 -0.1703
  143SOL     hw  570  -0.003   6.631   0.442 -0.0451  0.1468 -1.0408
  143SOL     hw  571   0.042   6.486   0.448  0.1523  0.2602  1.1057
  143SOL     vw  572   0.056   6.571   0.465  0.0248  0.5436 -0.1168
  144SOL     ow  573   0.708   1.477   7.179 -0.2080 -0.2925  0.6924
  144SOL     hw  574   0.679   1.549   7.123 -1.1950 -0.4290  1.0109
  144SOL     hw  575   0.801   1.493   7.193 -0.3568  0.7707  0.5335
  144SOL     vw  576   0.716   1.488   7.174 -0.3578 -0.1702  0.7133
  145SOL     ow  577   3.578   0.169   0.355  0.4013  0.1341  0.5935
  145SOL     hw  578   3.496   0.181   0.402  0.6335  2.6619  0.4975
  145SOL     hw  579   3.555   0.181   0.263  0.5073 -1.5435  0.3200
  145SOL     vw  580   3.564   0.172   0.349  0.4458  0.2463  0.5448
  146SOL     ow  581   4.800   3.469   4.656 -0.0399 -0.0288 -0.4425
  146SOL     hw  582   4.801   3.425   4.571  1.6853  0.6040 -0.7764
  146SOL     hw  583   4.882   3.518   4.659 -1.1870  1.9452  0.5582
  146SOL     vw  584   4.811   3.469   4.645  0.0360  0.3152 -0.3545
  147SOL     ow  585   1.115   4.363   6.451  0.4968 -0.3519  0.2857
  147SOL     hw  586   1.118   4.279   6.404  2.0076 -0.2389  0.1179
  147SOL     hw  587   1.182   4.416   6.408  0.1233  0.6563  0.9263
  147SOL     vw  588   1.125   4.359   6.439  0.6468 -0.2038  0.3479
  148SOL     ow  589   2.888   5.765   2.488 -0.1456  0.2308  0.0080
  148SOL     hw  590   2.878   5.861   2.485 -1.0085  0.1492  0.1137
  148SOL     hw  591   2.963   5.747   2.431 -0.0249  0.9625 -0.0787
  148SOL     vw  592   2.897   5.776   2.480 -0.2435  0.3166  0.0104
  149SOL     ow  593   3.020   2.911   5.059 -0.5178 -0.9976  0.0215
  149SOL     hw  594   3.040   2.818   5.051 -0.0656 -1.1611  2.4071
  149SOL     hw  595   3.016   2.927   5.153  1.8698  1.8652 -0.2102
  149SOL     vw  596   3.022   2.901   5.070 -0.1429 -0.6416  0.3054
  150SOL     ow  597   3.123   1.289   3.616  0.5387 -0.0114 -0.7857
  150SOL     hw  598   3.214   1.267   3.636 -0.3364 -2.9371  0.5315
  150SOL     hw  599   3.111   1.264   3.525  0.3681 -2.4512 -0.1478
  150SOL     vw  600   3.133   1.283   3.607  0.4008 -0.7193 -0.5276
  151SOL     ow  601   2.759   3.674   7.254 -0.5078  0.1472 -0.5128
  151SOL     hw  602   2.666   3.692   7.269 -0.3309  0.0424  0.8615
  151SOL     hw  603   2.783   3.614   7.325  1.0482  1.6378  0.2854
  151SOL     vw  604   2.750   3.668   7.265 -0.2792  0.3299 -0.2261
  152SOL     ow  605   1.152   3.891   4.891 -0.5358 -0.2178  0.4619
  152SOL     hw  606   1.221   3.824   4.894  0.9981  1.3015  1.6195
  152SOL     hw  607   1.197   3.972   4.916 -1.9674  1.5877 -2.3527
  152SOL     vw  608   1.167   3.892   4.895 -0.5223  0.2210  0.2437
  153SOL     ow  609   6.250   4.212   7.062  0.2007 -0.6232 -0.2374
  153SOL     hw  610   6.306   4.135   7.067  0.1403 -0.6827 -0.4793
  153SOL     hw  611   6.277   4.266   7.137 -0.4702 -1.3513  0.5593
  153SOL     vw  612   6.261   4.209   7.073  0.1044 -0.7272 -0.1640
  154SOL     ow  613   4.064   1.367   6.744  0.3017 -0.5449 -0.0954
  154SOL     hw  614   4.143   1.347   6.796  0.0070 -2.3001 -0.2596
  154SOL     hw  615   4.090   1.442   6.690  1.4849 -0.3619  0.6763
  154SOL     vw  616   4.078   1.374   6.744  0.4191 -0.7523 -0.0155
  155SOL     ow  617   2.635   6.527   5.106 -0.6641  0.3842 -0.4449
  155SOL     hw  618   2.671   6.443   5.079 -0.1647  1.2732 -2.8344
  155SOL     hw  619   2.541   6.518   5.098 -0.5423  0.6509 -2.9377
  155SOL     vw  620   2.628   6.515   5.101 -0.5822  0.5369 -1.0891
  156SOL     ow  621   4.278   1.947   0.555 -0.6213 -0.2864 -0.2895
  156SOL     hw  622   4.222   1.984   0.623 -0.7504 -1.3873  0.2308
  156SOL     hw  623   4.221   1.886   0.508 -0.7377  1.0018 -1.8901
  156SOL     vw  624   4.263   1.944   0.558 -0.6535 -0.2617 -0.4321
  157SOL     ow  625   6.106   3.268   3.946 -0.4175  0.7488  0.4304
  157SOL     hw  626   6.052   3.300   3.874 -0.0679 -1.2185 -0.7531
  157SOL     hw  627   6.181   3.228   3.904 -0.4194 -0.8384  1.8626
  157SOL     vw  628   6.109   3.267   3.931 -0.3717  0.2798  0.4634
  158SOL     ow  629   2.029   2.656   6.976 -0.2804  0.3621  0.1311
  158SOL     hw  630   2.066   2.717   7.041 -0.4160 -1.3377  1.8889
  158SOL     hw  631   1.938   2.683   6.966 -0.2355  0.6962  0.5950
  158SOL     vw  632   2.022   2.668   6.983 -0.2923  0.1819  0.4241
  159SOL     ow  633   5.520   6.283   0.506 -0.0705  0.2102 -0.1216
  159SOL     hw  634   5.438   6.247   0.540  0.1514  0.2758  0.4915
  159SOL     hw  635   5.502   6.377   0.495 -0.9672 -0.1996 -2.6587
  159SOL     vw  636   5.507   6.291   0.509 -0.1597  0.1650 -0.3754
  160SOL     ow  637   4.588   4.830   5.419 -0.6348  0.4631  0.2809
  160SOL     hw  638   4.552   4.794   5.501 -1.5496  1.3894  0.3063
  160SOL     hw  639   4.678   4.854   5.441 -1.5449  2.8977  1.7457
  160SOL     vw  640   4.595   4.828   5.433 -0.8755  0.9065  0.4773
  161SOL     ow  641   5.514   6.820   1.016 -0.2677 -0.5268  0.3581
  161SOL     hw  642   5.491   6.839   0.925 -2.9980 -2.4808  0.5182
  161SOL     hw  643   5.569   6.742   1.010 -1.5942 -1.5053  0.3703
  161SOL     vw  644   5.518   6.812   1.003 -0.8028 -0.9141  0.3809
  162SOL     ow  645   3.679   3.859   1.474  0.0563 -0.5208  0.3065
  162SOL     hw  646   3.645   3.819   1.554  0.2135 -1.0549  0.1110
  162SOL     hw  647   3.609   3.845   1.409 -0.0358 -0.1653  0.3275
  162SOL     vw  648   3.665   3.852   1.476  0.0648 -0.5444  0.2835
  163SOL     ow  649   0.447   2.078   6.761  0.0814  0.0410  0.1057
  163SOL     hw  650   0.456   2.046   6.671 -0.2656 -0.7263  0.3374
  163SOL     hw  651   0.481   2.007   6.816 -1.3297 -0.2316  0.6628
  163SOL     vw  652   0.453   2.065   6.756 -0.1505 -0.0962  0.2098
  164SOL     ow  653   5.803   6.022   2.164 -0.4319  0.2213  0.4379
  164SOL     hw  654   5.748   6.078   2.109 -1.0752 -0.8319 -0.0361
  164SOL     hw  655   5.888   6.065   2.165 -0.5840  0.6043 -0.8711
  164SOL     vw  656   5.807   6.035   2.157 -0.5372  0.1328  0.2028
  165SOL     ow  657   3.661   1.170   6.105 -0.4965 -0.3045  0.5699
  165SOL     hw  658   3.738   1.191   6.053 -0.3765 -1.6226  0.1615
  165SOL     hw  659   3.590   1.165   6.041 -0.4165 -1.5879  0.5533
  165SOL     vw  660   3.661   1.172   6.090 -0.4700 -0.6477  0.5140
  166SOL     ow  661   0.587   4.609   1.544  0.4541 -0.4311  0.2201
  166SOL     hw  662   0.535   4.596   1.624 -2.0605  1.5775 -0.9381
  166SOL     hw  663   0.586   4.523   1.502 -1.7903 -0.5588  0.3991
  166SOL     vw  664   0.580   4.596   1.549 -0.1737 -0.1829  0.0909
  167SOL     ow  665   3.316   4.096   6.063  0.4829 -1.0683  0.2302
  167SOL     hw  666   3.326   4.013   6.017 -0.1309 -0.1657 -1.6327
  167SOL     hw  667   3.406   4.128   6.075  0.6363 -0.9493 -1.1093
  167SOL     vw  668   3.329   4.089   6.059  0.4222 -0.9336 -0.1924
  168SOL     ow  669   6.262   5.263   3.190 -0.7256 -0.1988 -0.5710
  168SOL     hw  670   6.294   5.291   3.104  1.2989  1.6381  0.6664
  168SOL     hw  671   6.170   5.244   3.176 -0.6501  0.7868 -2.9995
  168SOL     vw  672   6.254   5.265   3.177 -0.4482  0.1736 -0.7281
  169SOL     ow  673   0.191   3.090   5.164 -0.2250  0.1254  0.0301
  169SOL     hw  674   0.189   3.134   5.078  0.4213 -1.6668 -0.9569
  169SOL     hw  675   0.282   3.060   5.173 -0.1555  0.7509  1.6087
  169SOL     vw  676   0.203   3.092   5.154 -0.1306 -0.0285  0.1078
  170SOL     ow  677   2.511   4.449   4.615  0.0593 -0.1986 -0.4075
  170SOL     hw  678   2.497   4.538   4.646 -0.2343  0.8351 -3.2038
  170SOL     hw  679   2.484   4.451   4.523 -2.4845 -3.8022  0.0236
  170SOL     vw  680   2.505   4.461   4.607 -0.3152 -0.5379 -0.7195
  171SOL     ow  681   7.243   4.778   3.616 -0.6031  0.0492 -0.0103
  171SOL     hw  682   7.151   4.798   3.628 -0.5761 -0.2562  0.7361
  171SOL     hw  683   7.290   4.844   3.667 -0.3309  1.2683 -1.7537
  171SOL     vw  684   7.237   4.789   3.624 -0.5636  0.1698 -0.1416
  172SOL     ow  685   3.880   0.204   0.477 -0.8854 -0.2156  0.2959
  172SOL     hw  686   3.866   0.294   0.450 -1.9033  0.1427  1.8857
  172SOL     hw  687   3.971   0.185   0.453 -0.8421  1.0304 -0.5700
  172SOL     vw  688   3.890   0.213   0.470 -1.0140 -0.0039  0.3914
  173SOL     ow  689   1.855   6.149   4.188 -0.0855 -0.2511  0.3257
  173SOL     hw  690   1.772   6.140   4.234  0.0233  0.1178  0.5991
  173SOL     hw  691   1.920   6.159   4.258  0.1004  0.1441  0.0971
  173SOL     vw  692   1.853   6.149   4.204 -0.0466 -0.1504  0.3316
  174SOL     ow  693   5.796   6.724   1.975 -0.8742  0.6528  0.1834
  174SOL     hw  694   5.855   6.651   1.990 -1.7170  0.0608  0.6932
  174SOL     hw  695   5.851   6.802   1.985  0.2374  0.0939 -1.2807
  174SOL     vw  696   5.811   6.725   1.978 -0.8388  0.5009  0.0575
  175SOL     ow  697   1.068   6.940   6.006 -0.0356  0.1436 -0.2156
  175SOL     hw  698   0.993   6.910   6.057 -1.2563  1.5236 -1.1300
  175SOL     hw  699   1.126   6.980   6.070 -1.6185  2.0004  0.1599
  175SOL     vw  700   1.066   6.941   6.021 -0.4055  0.5708 -0.2871
  176SOL     ow  701   3.293   4.380   2.392  0.0503 -0.0171 -0.1351
  176SOL     hw  702   3.300   4.458   2.338 -1.0185  1.2965  1.5116
  176SOL     hw  703   3.350   4.316   2.350  1.4188  1.8297 -1.2170
  176SOL     vw  704   3.301   4.382   2.379  0.0896  0.3998 -0.0606
  177SOL     ow  705   0.631   2.810   0.411 -0.1595 -0.2257 -0.0593
  177SOL     hw  706   0.651   2.761   0.490 -2.7533  1.0079  1.5027
  177SOL     hw  707   0.553   2.861   0.433  0.8880  2.7005 -2.3706
  177SOL     vw  708   0.623   2.810   0.424 -0.3635  0.3231 -0.1581
  178SOL     ow  709   6.495   2.467   1.292 -0.0020  0.8554  0.0198
  178SOL     hw  710   6.529   2.380   1.313 -0.7686  0.8180  1.2382
  178SOL     hw  711   6.447   2.456   1.210  1.2855  0.5078 -0.7158
  178SOL     vw  712   6.494   2.454   1.284  0.0665  0.8047  0.0835
  179SOL     ow  713   3.561   4.825   6.939  0.1398  0.2898  0.1571
  179SOL     hw  714   3.489   4.811   6.878  1.5043  1.1019 -1.7340
  179SOL     hw  715   3.570   4.742   6.985 -0.7592 -0.4513 -0.9432
  179SOL     vw  716   3.553   4.812   6.937  0.2012  0.2992 -0.2372
  180SOL     ow  717   1.396   0.113   0.877 -0.1953 -0.2304  0.3582
  180SOL     hw  718   1.413   0.207   0.880  0.6926 -0.2764 -1.8575
  180SOL     hw  719   1.388   0.088   0.969 -0.0787  1.9235  1.0201
  180SOL     vw  720   1.397   0.122   0.890 -0.0628  0.0477  0.1532
  181SOL     ow  721   5.696   2.941   6.985  0.9817  0.1976  0.1292
  181SOL     hw  722   5.740   2.945   6.900  0.8981 -0.6746  0.0370
  181SOL     hw  723   5.767   2.946   7.048  1.0624  0.6013  0.0133
  181SOL     vw  724   5.711   2.943   6.982  0.9813  0.1358  0.1016
  182SOL     ow  725   2.312   2.166   4.897  0.4718 -0.2414  1.1449
  182SOL     hw  726   2.221   2.156   4.870  0.1125 -1.6822  2.7291
  182SOL     hw  727   2.316   2.253   4.937  0.2592  0.5686 -0.5001
  182SOL     vw  728   2.301   2.177   4.898  0.3965 -0.3247  1.1368
  183SOL     ow  729   5.129   5.293   0.827 -0.5128  0.1358  0.3065
  183SOL     hw  730   5.077   5.357   0.874 -0.9392 -1.7548  2.6181
  183SOL     hw  731   5.219   5.309   0.856 -0.1884  1.3647 -1.2403
  183SOL     vw  732   5.134   5.303   0.837 -0.5264  0.0486  0.4074
  184SOL     ow  733   3.270   5.030   2.317 -0.4976 -0.2458 -0.4086
  184SOL     hw  734   3.352   5.080   2.315 -1.9428  2.3826  0.6229
  184SOL     hw  735   3.284   4.958   2.256  2.1832  0.7345 -1.0753
  184SOL     vw  736   3.283   5.027   2.309 -0.3347  0.2303 -0.3605
  185SOL     ow  737   7.207   4.179   0.005  0.2773 -0.1631  0.5810
  185SOL     hw  738   7.251   4.175  -0.080 -0.5085 -0.1937  0.1663
  185SOL     hw  739   7.170   4.092   0.018  0.4969 -0.1931  1.0088
  185SOL     vw  740   7.208   4.167  -0.005  0.2027 -0.1707  0.5829
  186SOL     ow  741   1.153   5.415   6.252  0.3813 -0.5831  0.1229
  186SOL     hw  742   1.123   5.454   6.334 -3.6378 -1.6632 -0.6036
  186SOL     hw  743   1.223   5.356   6.278  0.2999  0.2562  2.5236
  186SOL     vw  744   1.158   5.412   6.266 -0.1597 -0.6146  0.3438
  187SOL     ow  745   0.398   6.239   7.216 -0.4065 -0.0621  0.1460
  187SOL     hw  746   0.335   6.296   7.260  0.9084  1.9817 -0.4815
  187SOL     hw  747   0.454   6.206   7.286 -0.6219  0.1416  0.4144
  187SOL     vw  748   0.397   6.242   7.231 -0.2614  0.2346  0.0986
  188SOL     ow  749   4.426   5.268   2.088  0.1375  0.1393  1.4172
  188SOL     hw  750   4.408   5.357   2.118  1.1622  0.0680  2.2846
  188SOL     hw  751   4.411   5.272   1.993  0.1113  1.2197  1.4527
  188SOL     vw  752   4.422   5.281   2.079  0.2692  0.2725  1.5362
  189SOL     ow  753   0.036   5.524   2.855  0.1098 -0.2461 -0.0307
  189SOL     hw  754  -0.042   5.472   2.873  0.6627 -1.2867 -0.6228
  189SOL     hw  755   0.099   5.495   2.920  0.6306 -0.7758 -0.7697
  189SOL     vw  756   0.034   5.514   2.866  0.2514 -0.4532 -0.2064
  190SOL     ow  757   6.244   6.366   3.101 -0.5642  0.5253  0.1371
  190SOL     hw  758   6.218   6.299   3.164 -1.6439 -0.5682 -1.4227
  190SOL     hw  759   6.295   6.428   3.153 -0.6342 -0.8062  1.8937
  190SOL     vw  760   6.248   6.366   3.117 -0.7157  0.2055  0.1631
  191SOL     ow  761   0.597   6.976   6.207 -0.2096  1.0401 -0.0540
  191SOL     hw  762   0.685   7.008   6.226 -1.7479  4.0665  3.1811
  191SOL     hw  763   0.594   6.890   6.249  0.6213  1.8600  1.8327
  191SOL     vw  764   0.608   6.969   6.215 -0.3029  1.5476  0.6218
  192SOL     ow  765   5.830   6.398   4.187  0.9932  0.0157  0.0930
  192SOL     hw  766   5.845   6.398   4.093  0.3453 -0.2682 -0.0100
  192SOL     hw  767   5.851   6.487   4.215 -0.0539  0.4643 -0.5137
  192SOL     vw  768   5.835   6.410   4.179  0.7694  0.0374 -0.0007
  193SOL     ow  769   4.212   1.086   3.696 -0.1590 -0.5020  0.0440
  193SOL     hw  770   4.289   1.138   3.718 -0.7647  0.3314  0.2489
  193SOL     hw  771   4.189   1.041   3.777 -1.2119  1.0191  0.6329
  193SOL     vw  772   4.219   1.087   3.709 -0.3777 -0.1913  0.1485
  194SOL     ow  773   6.826   0.448   0.929  0.1989 -0.4572  0.2517
  194SOL     hw  774   6.858   0.378   0.872 -1.2085 -1.2802  0.4215
  194SOL     hw  775   6.845   0.529   0.882  3.2129 -0.8008  0.7061
  194SOL     vw  776   6.833   0.449   0.915  0.4108 -0.6111  0.3341
  195SOL     ow  777   5.741   1.799   4.691 -0.2999 -0.0718  0.0052
  195SOL     hw  778   5.692   1.737   4.636  0.1938 -0.6569  0.2173
  195SOL     hw  779   5.831   1.794   4.660 -0.1262  0.0278  0.4799
  195SOL     vw  780   5.746   1.790   4.680 -0.2120 -0.1358  0.0958
  196SOL     ow  781   4.450   6.889   0.499 -0.7054  0.8526  0.2753
  196SOL     hw  782   4.478   6.882   0.591  2.1158  0.1719 -0.5476
  196SOL     hw  783   4.417   6.802   0.477  1.3967  0.0925 -0.1088
  196SOL     vw  784   4.449   6.877   0.508 -0.0558  0.6626  0.1161
  197SOL     ow  785   0.467   7.134   4.577  0.5408 -0.0389  0.4841
  197SOL     hw  786   0.408   7.067   4.542  0.0534  0.8898 -0.5246
  197SOL     hw  787   0.488   7.189   4.502  1.6602  0.4143  1.1122
  197SOL     vw  788   0.462   7.133   4.563  0.6242  0.1433  0.4337
  198SOL     ow  789   3.118   4.705   3.300  0.5029  0.2221 -0.8040
  198SOL     hw  790   3.126   4.625   3.248 -0.8822  0.9694 -2.2305
  198SOL     hw  791   3.101   4.774   3.237  0.2565  1.4273  0.5251
  198SOL     vw  792   3.117   4.703   3.285  0.2875  0.4799 -0.8168
  199SOL     ow  793   7.070   1.461   4.096  0.1969  0.8438  0.3692
  199SOL     hw  794   7.052   1.454   4.002  2.8631  2.0926 -0.3257
  199SOL     hw  795   7.010   1.529   4.127 -0.4420  0.6928 -0.4986
  199SOL     vw  796   7.060   1.469   4.088  0.4644  0.9886  0.1628
  200SOL     ow  797   2.979   1.934   3.041 -0.4913  0.7648  0.5269
  200SOL     hw  798   2.885   1.919   3.047 -0.2391 -0.9447  0.8085
  200SOL     hw  799   3.001   1.919   2.949 -0.4940  1.2462  0.4436
  200SOL     vw  800   2.969   1.930   3.030 -0.4582  0.6028  0.5531
  201SOL     ow  801   6.051   1.102   5.320  0.6023  0.3638 -0.6398
  201SOL     hw  802   6.013   1.051   5.392  3.3307  1.0979  1.4843
  201SOL     hw  803   6.111   1.042   5.277  3.1815  1.3338  1.3388
  201SOL     vw  804   6.054   1.088   5.324  1.3025  0.5887 -0.0987
  202SOL     ow  805   1.298   6.239   2.673  0.0977 -0.0815  0.2418
  202SOL     hw  806   1.291   6.144   2.666  0.0684 -0.2312  1.8390
  202SOL     hw  807   1.364   6.253   2.742  1.0085  1.0787 -0.8017
  202SOL     vw  808   1.306   6.229   2.682  0.2140  0.0520  0.3148
  203SOL     ow  809   2.571   5.581   4.238  0.1090 -0.1054  0.5075
  203SOL     hw  810   2.563   5.534   4.321 -1.3136  0.3175  0.6257
  203SOL     hw  811   2.494   5.637   4.234  1.0609  1.2149 -0.2804
  203SOL     vw  812   2.560   5.582   4.248  0.0468  0.1247  0.4191
  204SOL     ow  813   1.342   4.823   1.862 -0.2673  0.0279 -0.4088
  204SOL     hw  814   1.343   4.909   1.819  0.4586  0.2068 -0.0606
  204SOL     hw  815   1.249   4.803   1.874 -0.4443  1.0064 -0.0271
  204SOL     vw  816   1.330   4.832   1.858 -0.1948  0.1805 -0.3125
  205SOL     ow  817   1.622   4.306   4.194 -0.1695 -0.0509  0.2592
  205SOL     hw  818   1.663   4.319   4.279 -2.0868  0.9785  1.0871
  205SOL     hw  819   1.636   4.388   4.147  0.4292 -0.4284 -0.2452
  205SOL     vw  820   1.629   4.319   4.199 -0.3434  0.0350  0.3016
  206SOL     ow  821   0.283   4.081   1.309  0.3707 -0.1824 -0.4161
  206SOL     hw  822   0.316   4.039   1.388 -1.4503  0.8947  0.9846
  206SOL     hw  823   0.349   4.061   1.242  1.8677 -1.2749  1.2967
  206SOL     vw  824   0.296   4.073   1.310  0.3280 -0.1848 -0.0053
  207SOL     ow  825   1.800   0.792   7.230  0.1828 -0.5073 -0.1812
  207SOL     hw  826   1.757   0.707   7.226  0.8599 -0.8982  0.6001
  207SOL     hw  827   1.890   0.773   7.257  0.6271  0.3687 -1.0003
  207SOL     vw  828   1.806   0.779   7.233  0.3307 -0.4433 -0.1862
  208SOL     ow  829   3.797   5.226   5.836 -0.2364 -0.4419  0.2068
  208SOL     hw  830   3.725   5.279   5.802 -0.9768 -2.6795 -2.0705
  208SOL     hw  831   3.772   5.205   5.925 -1.5836  0.1722 -0.0095
  208SOL     vw  832   3.785   5.230   5.843 -0.5119 -0.6559 -0.1223
  209SOL     ow  833   0.377   3.679   3.609  0.3502 -0.5608 -0.4398
  209SOL     hw  834   0.469   3.692   3.630  0.1289 -1.6064  1.4131
  209SOL     hw  835   0.336   3.762   3.629  0.6710 -0.5536  0.2184
  209SOL     vw  836   0.384   3.691   3.615  0.3633 -0.6977 -0.1085
  210SOL     ow  837   2.002   0.654   5.644  0.1820 -0.0384 -0.6232
  210SOL     hw  838   1.911   0.634   5.664  0.1205  0.0989 -0.7645
  210SOL     hw  839   2.044   0.664   5.730 -0.0062  0.2165 -0.5597
  210SOL     vw  840   1.996   0.653   5.658  0.1491  0.0133 -0.6335
  211SOL     ow  841   3.531   3.672   5.791 -0.2297  0.0728 -0.0795
  211SOL     hw  842   3.604   3.733   5.803  2.0367 -2.7422  1.5837
  211SOL     hw  843   3.550   3.627   5.709  0.1087 -0.8585  0.4928
  211SOL     vw  844   3.543   3.674   5.782  0.1140 -0.4214  0.2153
  212SOL     ow  845   6.615   2.406   0.973 -0.5218  0.1361 -0.4437
  212SOL     hw  846   6.536   2.438   1.018 -0.1026 -0.5522  0.8494
  212SOL     hw  847   6.637   2.326   1.020 -0.4331 -1.0069 -2.3588
  212SOL     vw  848   6.607   2.400   0.985 -0.4549 -0.1055 -0.5258
  213SOL     ow  849   2.831   4.337   3.837  0.3327  0.0515  0.1074
  213SOL     hw  850   2.769   4.404   3.809 -1.6179 -1.0079  1.6452
  213SOL     hw  851   2.882   4.379   3.906 -0.0845  0.3166  0.2587
  213SOL     vw  852   2.830   4.351   3.842  0.0201 -0.0532  0.3302
  214SOL     ow  853   1.772   2.016   4.219 -0.3135  0.2986  0.6927
  214SOL     hw  854   1.830   2.009   4.143 -0.2988  3.6965  0.2123
  214SOL     hw  855   1.830   2.022   4.294 -0.1352  0.7893  0.5215
  214SOL     vw  856   1.787   2.016   4.219 -0.2881  0.8117  0.6068
  215SOL     ow  857   6.101   6.480   7.120  0.6315  0.2691  0.5361
  215SOL     hw  858   6.054   6.554   7.081  0.3144  0.5272  1.3967
  215SOL     hw  859   6.110   6.503   7.212  0.6503 -0.7080  0.7884
  215SOL     vw  860   6.096   6.493   7.127  0.5922  0.1743  0.6826
  216SOL     ow  861   3.971   2.519   4.933  0.5240  0.3332  0.2641
  216SOL     hw  862   3.918   2.483   4.863  1.0678  0.1960 -0.0809
  216SOL     hw  863   4.053   2.471   4.929  1.2643  1.5734 -0.1975
  216SOL     vw  864   3.975   2.508   4.924  0.6933  0.4787  0.1578
  217SOL     ow  865   4.628   1.146   6.659  0.8976 -0.2997  0.7834
  217SOL     hw  866   4.547   1.144   6.609 -0.2851  0.0818  2.6146
  217SOL     hw  867   4.670   1.061   6.640  1.9123  0.8227 -2.9376
  217SOL     vw  868   4.623   1.134   6.650  0.8755 -0.1013  0.5341
  218SOL     ow  869   7.163   4.428   1.094  0.2773 -0.0167 -0.0857
  218SOL     hw  870   7.248   4.384   1.099  0.5784  0.7103  2.3015
  218SOL     hw  871   7.100   4.356   1.083  1.0154 -0.8235  0.7318
  218SOL     vw  872   7.166   4.413   1.094  0.4141 -0.0269  0.3372
  219SOL     ow  873   2.036   4.523   5.864 -0.7069 -0.5429 -0.4680
  219SOL     hw  874   2.125   4.522   5.829  0.2098 -0.5979  1.6799
  219SOL     hw  875   1.994   4.596   5.819  1.4913  1.6511  0.7783
  219SOL     vw  876   2.042   4.533   5.853 -0.2959 -0.2606 -0.0200
  220SOL     ow  877   6.043   2.740   0.649  0.7045  0.5744  0.7976
  220SOL     hw  878   6.126   2.718   0.692 -0.0691  0.1946  2.1659
  220SOL     hw  879   5.986   2.768   0.721 -0.8674 -0.7773  0.1492
  220SOL     vw  880   6.046   2.741   0.664  0.3948  0.3459  0.8926
  221SOL     ow  881   2.590   3.033   4.103  0.2256 -0.1825 -0.1872
  221SOL     hw  882   2.611   2.943   4.077 -0.9492 -1.4402  2.7092
  221SOL     hw  883   2.503   3.026   4.143 -0.2482  2.4316 -0.6017
  221SOL     vw  884   2.581   3.020   4.105  0.0082 -0.0036  0.1402
  222SOL     ow  885   5.231   6.441   3.817 -0.2310 -0.1156  0.3214
  222SOL     hw  886   5.266   6.424   3.730  3.3091 -0.9851  1.7582
  222SOL     hw  887   5.245   6.535   3.830  2.5862 -0.5483  1.1293
  222SOL     vw  888   5.237   6.451   3.807  0.6077 -0.2871  0.6175
  223SOL     ow  889   2.192   0.482   3.293 -0.1437 -0.4058  0.1594
  223SOL     hw  890   2.116   0.530   3.260 -0.5790 -0.2996  1.2827
  223SOL     hw  891   2.155   0.401   3.329  0.4335 -0.9582 -0.4469
  223SOL     vw  892   2.177   0.477   3.293 -0.1249 -0.4646  0.2277
  224SOL     ow  893   1.060   1.506   5.197  0.5784  0.0153 -0.1300
  224SOL     hw  894   1.097   1.522   5.284 -0.3269  0.1059  0.2517
  224SOL     hw  895   1.009   1.585   5.177 -2.4779 -1.4922  0.9994
  224SOL     vw  896   1.058   1.519   5.206  0.0557 -0.1716  0.0691
  225SOL     ow  897   4.992   6.153   0.141 -0.2492  0.4791  0.4499
  225SOL     hw  898   5.070   6.113   0.102 -0.1594 -1.1468  2.1746
  225SOL     hw  899   5.023   6.190   0.223 -1.1729  0.3425  0.8684
  225SOL     vw  900   5.007   6.152   0.146 -0.3591  0.2465  0.7327
  226SOL     ow  901   1.343   6.464   4.175  0.0840 -0.4548 -0.0003
  226SOL     hw  902   1.283   6.523   4.220  0.1211  0.9647 -1.7073
  226SOL     hw  903   1.288   6.420   4.110  0.8252  0.9046 -1.6264
  226SOL     vw  904   1.328   6.466   4.172  0.1867 -0.0882 -0.4404
  227SOL     ow  905   3.317   4.497   6.838  0.1371  0.0675  0.1065
  227SOL     hw  906   3.286   4.407   6.840 -0.0915  0.1423  0.0253
  227SOL     hw  907   3.312   4.527   6.929 -1.1675  0.4531 -0.0745
  227SOL     vw  908   3.312   4.489   6.851 -0.0651  0.1285  0.0720
  228SOL     ow  909   0.785   3.692   5.010  0.5457 -0.1669  0.5152
  228SOL     hw  910   0.691   3.696   5.027  0.6094  0.7054  0.6937
  228SOL     hw  911   0.800   3.601   4.981 -0.6574  0.1615 -1.3188
  228SOL     vw  912   0.775   3.680   5.008  0.3954 -0.0085  0.2966
  229SOL     ow  913   0.819   5.522   4.812 -0.0526  0.3658 -0.1056
  229SOL     hw  914   0.809   5.523   4.907  0.2496  0.2953 -0.0752
  229SOL     hw  915   0.911   5.503   4.797 -0.2742 -0.4946 -0.4287
  229SOL     vw  916   0.830   5.520   4.822 -0.0419  0.2427 -0.1440
  230SOL     ow  917   6.716   1.662   5.943 -0.6280  0.3551  0.3966
  230SOL     hw  918   6.640   1.619   5.982 -0.9475 -0.2851 -0.8786
  230SOL     hw  919   6.790   1.632   5.996 -0.8530 -1.7175 -0.3345
  230SOL     vw  920   6.715   1.652   5.955 -0.7002 -0.0028  0.1316
  231SOL     ow  921   2.724   6.784   5.288  0.0728 -0.2613 -0.2182
  231SOL     hw  922   2.723   6.834   5.206  1.0429  1.2009  0.6197
  231SOL     hw  923   2.655   6.824   5.341 -1.7806 -2.3573 -0.9199
  231SOL     vw  924   2.715   6.796   5.284 -0.0436 -0.3448 -0.2000
  232SOL     ow  925   6.098   5.718   0.119 -0.5047  0.0951 -0.0129
  232SOL     hw  926   6.171   5.672   0.078  0.6317  1.4855  0.3606
  232SOL     hw  927   6.080   5.669   0.199  1.2243  0.7111  0.7891
  232SOL     vw  928   6.105   5.706   0.124 -0.1268  0.3600  0.1422
  233SOL     ow  929   1.434   2.830   3.653  0.0599  0.3267 -0.0792
  233SOL     hw  930   1.474   2.804   3.736  2.8325  0.3182 -1.3217
  233SOL     hw  931   1.386   2.752   3.624  1.6184 -0.7234  0.0791
  233SOL     vw  932   1.433   2.816   3.660  0.6314  0.1870 -0.2222
  234SOL     ow  933   0.756   2.390   3.471  0.4477  0.3604 -0.2006
  234SOL     hw  934   0.810   2.467   3.488  0.1805  0.7697 -1.1648
  234SOL     hw  935   0.820   2.320   3.456  0.6932  0.1846  1.4592
  234SOL     vw  936   0.772   2.391   3.471  0.4448  0.3911 -0.1090
  235SOL     ow  937   2.819   3.384   7.006 -0.7352 -0.2821 -0.8404
  235SOL     hw  938   2.733   3.375   7.046 -0.0563 -0.6685  0.6072
  235SOL     hw  939   2.861   3.299   7.020  0.5614  0.4834  0.2049
  235SOL     vw  940   2.813   3.372   7.013 -0.4747 -0.2321 -0.5114
  236SOL     ow  941   2.487   0.551   7.048  0.7921  0.4608  0.6163
  236SOL     hw  942   2.440   0.605   6.984  0.8808  0.0028  0.1633
  236SOL     hw  943   2.488   0.464   7.010 -0.6688 -0.2224  2.0394
  236SOL     vw  944   2.481   0.547   7.034  0.6109  0.3102  0.7446
  237SOL     ow  945   6.633   1.187   0.405  0.3609  0.0685  0.6644
  237SOL     hw  946   6.694   1.114   0.389  1.0750  0.6723  0.5633
  237SOL     hw  947   6.596   1.169   0.491 -0.6251 -1.2048  0.0145
  237SOL     vw  948   6.636   1.175   0.414  0.3252 -0.0198  0.5653
  238SOL     ow  949   3.248   6.692   6.846  0.4724  0.2732 -0.4698
  238SOL     hw  950   3.319   6.751   6.823  2.0919 -1.8942 -1.3223
  238SOL     hw  951   3.190   6.693   6.770 -0.6107  2.1728  0.2950
  238SOL     vw  952   3.250   6.700   6.833  0.5431  0.2379 -0.4814
  239SOL     ow  953   2.352   2.948   4.198 -0.0121 -0.6456  0.0466
  239SOL     hw  954   2.370   2.862   4.236 -1.2386 -0.3296  1.4523
  239SOL     hw  955   2.344   3.007   4.273  0.7229  0.7022 -0.8842
  239SOL     vw  956   2.353   2.944   4.213 -0.0770 -0.4259  0.1094
  240SOL     ow  957   0.494   5.270   4.540  0.4164 -0.3498  0.4859
  240SOL     hw  958   0.430   5.201   4.524 -0.9623  0.3573  2.6197
  240SOL     hw  959   0.446   5.338   4.587  1.9372  1.7078 -0.7234
  240SOL     vw  960   0.480   5.270   4.544  0.4352  0.0148  0.6077
  241SOL     ow  961   6.059   1.470   1.785  0.0197 -0.2202 -0.2567
  241SOL     hw  962   6.081   1.536   1.852 -0.0728 -1.2116  0.7778
  241SOL     hw  963   6.103   1.502   1.706 -0.1586  1.1735  0.1674
  241SOL     vw  964   6.068   1.483   1.783 -0.0160 -0.1671 -0.0643
  242SOL     ow  965   7.247   3.612   4.746 -0.2526  0.5055  0.0213
  242SOL     hw  966   7.332   3.604   4.702 -0.2349 -0.6090  0.2248
  242SOL     hw  967   7.221   3.521   4.763 -1.3122  0.8540  0.2946
  242SOL     vw  968   7.255   3.599   4.743 -0.3901  0.4046  0.0842
  243SOL     ow  969   3.328   1.065   7.135  0.0946 -0.5192 -0.4566
  243SOL     hw  970   3.338   1.138   7.196 -2.5310  0.2840 -0.8779
  243SOL     hw  971   3.300   1.106   7.053 -1.0153 -1.9477 -0.8302
  243SOL     vw  972   3.326   1.080   7.132 -0.3983 -0.6017 -0.5617
  244SOL     ow  973   2.943   2.502   5.334  0.0853  0.4753 -0.0475
  244SOL     hw  974   2.978   2.578   5.288 -0.4064 -0.2388 -1.6812
  244SOL     hw  975   2.984   2.427   5.292 -0.4071 -0.2159  0.6691
  244SOL     vw  976   2.953   2.502   5.323 -0.0446  0.2898 -0.1686
  245SOL     ow  977   0.041   2.687   6.412  0.3811  0.1644  0.7937
  245SOL     hw  978   0.075   2.603   6.380  0.3473  1.1701 -2.1772
  245SOL     hw  979  -0.054   2.680   6.397  0.3778  0.7063  0.5608
  245SOL     vw  980   0.033   2.675   6.406  0.3762  0.3686  0.3710
  246SOL     ow  981   1.969   1.405   6.613 -0.0739  0.0229  0.5192
  246SOL     hw  982   1.977   1.456   6.532  1.4293 -0.8776  0.0570
  246SOL     hw  983   1.928   1.323   6.585 -0.0023 -0.0928  0.7533
  246SOL     vw  984   1.964   1.401   6.599  0.1339 -0.1112  0.4890
  247SOL     ow  985   5.547   0.487   6.773 -0.0560  0.3242  0.5590
  247SOL     hw  986   5.536   0.427   6.847  1.3580  0.0688  0.5754
  247SOL     hw  987   5.514   0.438   6.697  0.1026 -0.0611  0.7403
  247SOL     vw  988   5.541   0.473   6.772  0.1514  0.2397  0.5851
  248SOL     ow  989   1.798   4.840   3.636 -0.5282  0.8031  0.0252
  248SOL     hw  990   1.786   4.914   3.696 -0.4913 -0.2882  1.4435
  248SOL     hw  991   1.769   4.764   3.686  2.3418 -0.5797 -0.1787
  248SOL     vw  992   1.793   4.840   3.651 -0.1447  0.4766  0.1854
  249SOL     ow  993   2.066   2.397   6.871 -0.0400  0.0498  0.1641
  249SOL     hw  994   2.028   2.470   6.920 -0.7492 -0.6972  0.7696
  249SOL     hw  995   2.045   2.320   6.924  1.8342 -0.4733  0.2184
  249SOL     vw  996   2.058   2.396   6.885  0.1138 -0.1177  0.2511
  250SOL     ow  997   5.536   0.355   6.032  0.0489 -0.2335  0.0862
  250SOL     hw  998   5.503   0.303   6.105  0.6059  0.6003  0.9584
  250SOL     hw  999   5.492   0.440   6.041  0.9466  0.2383  0.1205
  250SOL     vw 1000   5.526   0.359   6.043  0.2406 -0.0613  0.2058
  251SOL     ow 1001   3.267   4.677   2.638 -0.0190  0.6147  0.5807
  251SOL     hw 1002   3.288   4.650   2.727 -1.3486  1.5259  1.1992
  251SOL     hw 1003   3.348   4.663   2.589  0.9017  0.6252  2.0456
  251SOL     vw 1004   3.281   4.672   2.643 -0.0728  0.7367  0.8554
  252SOL     ow 1005   2.520   0.906   6.008  0.2566  0.0311  0.5499
  252SOL     hw 1006   2.442   0.855   6.030  0.3126 -0.4776 -0.3632
  252SOL     hw 1007   2.513   0.922   5.913  0.6151  1.0963  0.6878
  252SOL     vw 1008   2.509   0.901   5.998  0.3114  0.1045  0.4475
  253SOL     ow 1009   6.425   3.921   0.729  0.0006 -0.2564 -0.1066
  253SOL     hw 1010   6.365   3.879   0.790 -0.4673 -0.6803 -0.8365
  253SOL     hw 1011   6.466   3.991   0.779  0.0874 -0.9859  0.8636
  253SOL     vw 1012   6.422   3.924   0.743 -0.0496 -0.4084 -0.0749
  254SOL     ow 1013   5.251   6.773   5.255  0.3003 -0.0822  0.4684
  254SOL     hw 1014   5.278   6.690   5.215 -1.1790 -0.8376  0.9743
  254SOL     hw 1015   5.242   6.833   5.181 -1.7262 -1.2683 -0.3392
  254SOL     vw 1016   5.253   6.770   5.240 -0.1626 -0.3381  0.4287
  255SOL     ow 1017   1.651   0.016   0.716  0.2286 -0.2411 -0.3080
  255SOL     hw 1018   1.712  -0.015   0.649  0.0757 -1.6934  0.1833
  255SOL     hw 1019   1.706   0.030   0.793  0.2309  0.3436 -0.4114
  255SOL     vw 1020   1.666   0.014   0.718  0.2087 -0.3556 -0.2568
  256SOL     ow 1021   0.408   0.144   4.738  0.1984 -0.2026 -0.1478
  256SOL     hw 1022   0.436   0.199   4.665 -0.1268 -0.0558 -0.1637
  256SOL     hw 1023   0.343   0.197   4.785  0.3662 -0.3156  0.2170
  256SOL     vw 1024   0.403   0.158   4.735  0.1776 -0.1981 -0.1018
  257SOL     ow 1025   2.126   5.600   4.393  0.1639 -0.1092 -0.2757
  257SOL     hw 1026   2.151   5.558   4.475  0.1840 -0.4164 -0.4355
  257SOL     hw 1027   2.207   5.640   4.361 -0.0803  0.9316  0.3819
  257SOL     vw 1028   2.140   5.600   4.399  0.1342 -0.0124 -0.2100
  258SOL     ow 1029   2.597   1.856   5.039  0.4039 -0.4325 -0.5968
  258SOL     hw 1030   2.521   1.884   4.988  0.0236  0.3611  0.3792
  258SOL     hw 1031   2.578   1.882   5.129  2.2588  0.7664 -0.4784
  258SOL     vw 1032   2.585   1.863   5.044  0.5984 -0.1696 -0.4523
  259SOL     ow 1033   4.420   2.569   6.608  0.1477  0.5762 -0.4543
  259SOL     hw 1034   4.434   2.658   6.577  0.6477  0.1856 -1.3843
  259SOL     hw 1035   4.508   2.534   6.623 -0.0563  0.4217  0.4673
  259SOL     vw 1036   4.434   2.576   6.606  0.1867  0.5043 -0.4556
  260SOL     ow 1037   0.248   1.838   6.468  0.1870 -0.5743  0.2614
  260SOL     hw 1038   0.295   1.762   6.435  1.8467  0.0081  1.1839
  260SOL     hw 1039   0.265   1.839   6.562  3.0477  2.6699 -0.0742
  260SOL     vw 1040   0.256   1.828   6.476  0.7834 -0.0694  0.3386
  261SOL     ow 1041   3.734   5.034   4.149  0.4824 -0.1313 -0.0459
  261SOL     hw 1042   3.690   4.990   4.076  1.9111  0.2061 -1.1425
  261SOL     hw 1043   3.796   4.969   4.183  0.7135  0.1390  0.0517
  261SOL     vw 1044   3.736   5.020   4.144  0.7014 -0.0513 -0.1779
  262SOL     ow 1045   3.706   0.959   6.306  0.1062 -0.4860 -0.7862
  262SOL     hw 1046   3.740   0.902   6.237  1.2109 -0.9628  0.1117
  262SOL     hw 1047   3.783   0.979   6.360 -0.5538  0.6363 -0.2281
  262SOL     vw 1048   3.721   0.954   6.304  0.1649 -0.4008 -0.5939
  263SOL     ow 1049   6.773   1.912   5.727 -0.2414  0.0060  0.1864
  263SOL     hw 1050   6.806   1.920   5.638  0.4722  0.0302  0.4474
  263SOL     hw 1051   6.849   1.930   5.783 -0.6587 -0.0912  0.7981
  263SOL     vw 1052   6.787   1.915   5.723 -0.2022 -0.0037  0.3018
  264SOL     ow 1053   3.880   6.124   6.594 -0.2748  0.4181  0.1913
  264SOL     hw 1054   3.805   6.066   6.611 -1.4417  2.2823  1.8450
  264SOL     hw 1055   3.841   6.206   6.563  1.1772  1.0311 -0.0996
  264SOL     vw 1056   3.865   6.127   6.593 -0.2372  0.7451  0.3712
  265SOL     ow 1057   2.852   1.681   6.517  0.4586  0.0479 -0.0236
  265SOL     hw 1058   2.785   1.711   6.578  0.1263 -0.8965  0.0923
  265SOL     hw 1059   2.805   1.630   6.452  0.9585  0.0838 -0.4239
  265SOL     vw 1060   2.837   1.678   6.516  0.4809 -0.0720 -0.0613
  266SOL     ow 1061   1.674   0.932   0.531  0.2938  0.5569  0.2286
  266SOL     hw 1062   1.638   0.930   0.442 -0.3331 -0.9038  0.4681
  266SOL     hw 1063   1.764   0.901   0.522 -0.1894 -0.9409  0.2285
  266SOL     vw 1064   1.681   0.927   0.518  0.1474  0.1666  0.2602
  267SOL     ow 1065   2.108   4.712   3.734  0.4385  0.4280 -0.7569
  267SOL     hw 1066   2.092   4.664   3.815  2.1956 -0.2354 -0.7586
  267SOL     hw 1067   2.039   4.683   3.675  0.7681 -1.2478 -0.3824
  267SOL     vw 1068   2.097   4.702   3.737  0.7138  0.1194 -0.7079
  268SOL     ow 1069   4.311   6.259   1.531  0.8306  0.4714  0.2951
  268SOL     hw 1070   4.372   6.185   1.528  0.8886  0.5238  0.1128
  268SOL     hw 1071   4.231   6.225   1.490  1.2220  0.8313 -0.8257
  268SOL     vw 1072   4.308   6.244   1.525  0.8900  0.5255  0.1232
  269SOL     ow 1073   5.249   1.407   4.880  0.0209  0.4722 -0.2764
  269SOL     hw 1074   5.194   1.484   4.895 -0.2814  0.2562 -0.2730
  269SOL     hw 1075   5.334   1.443   4.855  0.1713  0.8220  0.6909
  269SOL     vw 1076   5.253   1.422   4.879  0.0010  0.4898 -0.1483
  270SOL     ow 1077   5.500   6.889   5.268  0.0152  0.1104  0.6327
  270SOL     hw 1078   5.413   6.850   5.264  0.3358 -0.6823  1.1898
  270SOL     hw 1079   5.484   6.979   5.298 -0.7459  0.5196 -0.9062
  270SOL     vw 1080   5.487   6.896   5.272 -0.0429  0.0601  0.5033
  271SOL     ow 1081   2.979   3.719   6.721 -0.5667  0.3349  0.0578
  271SOL     hw 1082   2.975   3.802   6.675  1.1525  0.6925  0.5041
  271SOL     hw 1083   3.062   3.679   6.693  0.3571  0.3947  2.4833
  271SOL     vw 1084   2.989   3.724   6.711 -0.2180  0.3899  0.4365
  272SOL     ow 1085   4.178   7.096   6.884  0.1280  0.0473  0.3799
  272SOL     hw 1086   4.166   7.156   6.811  0.9028  0.1517  0.3275
  272SOL     hw 1087   4.121   7.130   6.953 -0.2767  0.1984 -0.0307
  272SOL     vw 1088   4.169   7.109   6.884  0.1769  0.0813  0.3190
  273SOL     ow 1089   7.201   6.594   1.782 -1.0598 -0.1542  0.1340
  273SOL     hw 1090   7.180   6.631   1.868 -0.5555  1.2117 -0.3060
  273SOL     hw 1091   7.132   6.627   1.724  0.3197  1.5868 -0.6191
  273SOL     vw 1092   7.189   6.603   1.786 -0.8113  0.2561 -0.0234
  274SOL     ow 1093   0.144   4.244   0.375  0.5577  0.2118 -0.3997
  274SOL     hw 1094   0.211   4.275   0.314  0.6906 -1.8252 -1.3427
  274SOL     hw 1095   0.142   4.312   0.443  1.3451  1.8816 -1.9371
  274SOL     vw 1096   0.152   4.257   0.376  0.6791  0.1633 -0.7270
  275SOL     ow 1097   6.223   2.814   2.550 -0.4318 -0.3897 -0.5476
  275SOL     hw 1098   6.195   2.905   2.565 -2.1796 -0.9512 -0.1417
  275SOL     hw 1099   6.144   2.762   2.565  0.6426 -2.0367 -0.3355
  275SOL     vw 1100   6.209   2.819   2.554 -0.5205 -0.6810 -0.4660
  276SOL     ow 1101   2.579   0.626   5.200 -0.0963  0.2477  0.1657
  276SOL     hw 1102   2.491   0.633   5.163 -0.6831 -0.5609  1.3416
  276SOL     hw 1103   2.608   0.538   5.175 -0.6729 -0.4785  1.9162
  276SOL     vw 1104   2.571   0.615   5.192 -0.2497  0.0452  0.5517
  277SOL     ow 1105   4.861   6.084   0.911  0.2458 -0.9021  0.1973
  277SOL     hw 1106   4.814   6.065   0.829  0.5009  0.1849 -0.2181
  277SOL     hw 1107   4.793   6.092   0.977 -0.2604  1.1773 -0.4977
  277SOL     vw 1108   4.846   6.083   0.909  0.2127 -0.4842  0.0508
  278SOL     ow 1109   3.027   0.701   4.146  0.6754  0.7294 -0.0503
  278SOL     hw 1110   3.109   0.699   4.197  0.8920 -0.5286 -0.4058
  278SOL     hw 1111   3.045   0.644   4.071 -0.8800 -0.4866  0.4347
  278SOL     vw 1112   3.040   0.693   4.143  0.4989  0.4030 -0.0331
  279SOL     ow 1113   4.532   4.462   3.577 -0.2848  0.3060  0.1782
  279SOL     hw 1114   4.535   4.420   3.491  0.9586 -0.0353  0.3745
  279SOL     hw 1115   4.439   4.483   3.590 -0.9548 -2.1324 -0.0547
  279SOL     vw 1116   4.520   4.459   3.568 -0.2093 -0.0608  0.1732
  280SOL     ow 1117   4.658   1.448   2.744  0.0898  0.5844  0.2479
  280SOL     hw 1118   4.633   1.404   2.825  0.0466 -1.6451 -0.9101
  280SOL     hw 1119   4.576   1.484   2.710 -0.2603 -0.2205  0.2119
  280SOL     vw 1120   4.644   1.447   2.750  0.0377  0.1841  0.0905
  281SOL     ow 1121   3.544   2.464   3.761  0.1825  0.1205  0.4106
  281SOL     hw 1122   3.575   2.485   3.673 -2.1917  0.3772 -0.4420
  281SOL     hw 1123   3.578   2.376   3.779  0.8389  0.1399 -0.6799
  281SOL     vw 1124   3.553   2.455   3.752 -0.0442  0.1569  0.1543
  282SOL     ow 1125   1.107   0.950   2.585 -0.0577  0.6544 -0.8155
  282SOL     hw 1126   1.110   1.032   2.536  0.3543 -0.6776 -3.1730
  282SOL     hw 1127   1.024   0.910   2.560  0.3713 -0.2669 -0.8091
  282SOL     vw 1128   1.097   0.956   2.575  0.0533  0.3571 -1.1258
  283SOL     ow 1129   5.897   3.677   3.320  0.9610 -0.0902  0.4613
  283SOL     hw 1130   5.842   3.614   3.368  1.7809  0.1598  1.7927
  283SOL     hw 1131   5.939   3.728   3.389  3.7830 -1.0391 -0.4101
  283SOL     vw 1132   5.895   3.675   3.336  1.4420 -0.1824  0.5219
  284SOL     ow 1133   5.158   3.137   4.777  0.1669  0.1815 -0.0708
  284SOL     hw 1134   5.196   3.155   4.691  1.9982 -2.3113  0.0856
  284SOL     hw 1135   5.083   3.081   4.759  0.7406 -0.6027 -0.0426
  284SOL     vw 1136   5.153   3.132   4.763  0.4845 -0.2508 -0.0465
  285SOL     ow 1137   5.506   2.121   7.250 -0.0872  0.4091 -0.0277
  285SOL     hw 1138   5.558   2.157   7.178 -0.5563  1.0435 -0.0601
  285SOL     hw 1139   5.559   2.137   7.328  0.8756 -1.1782 -0.3258
  285SOL     vw 1140   5.520   2.128   7.251 -0.0222  0.2832 -0.0713
  286SOL     ow 1141   0.069   7.053   3.537 -0.0998 -0.2769 -0.2939
  286SOL     hw 1142   0.064   6.962   3.510  1.1772 -0.5319  0.2277
  286SOL     hw 1143   0.039   7.053   3.628  1.0631 -0.4033  0.1052
  286SOL     vw 1144   0.064   7.041   3.546  0.2221 -0.3271 -0.1724
  287SOL     ow 1145   6.917   3.160   3.060 -0.1052  0.2871 -0.5266
  287SOL     hw 1146   6.859   3.234   3.040 -0.4177 -0.2377 -1.6390
  287SOL     hw 1147   6.884   3.126   3.143 -1.4496 -0.0254 -1.1490
  287SOL     vw 1148   6.905   3.166   3.068 -0.3238  0.1767 -0.7554
  288SOL     ow 1149   5.500   2.268   1.266 -0.3508 -0.5063  0.3245
  288SOL     hw 1150   5.453   2.291   1.346 -1.4460 -1.2551 -0.0786
  288SOL     hw 1151   5.581   2.228   1.297 -1.4318 -2.1880  1.1133
  288SOL     vw 1152   5.504   2.266   1.280 -0.6382 -0.8270  0.3754
  289SOL     ow 1153   4.037   0.090   1.142 -0.4887 -0.1381 -0.8801
  289SOL     hw 1154   4.112   0.048   1.100  0.3209 -2.0652  2.1086
  289SOL     hw 1155   3.961   0.039   1.112  0.3614 -3.3819  1.7713
  289SOL     vw 1156   4.037   0.077   1.133 -0.2697 -0.8203 -0.1359
  290SOL     ow 1157   6.901   5.100   6.067  0.0276  0.0699 -0.2092
  290SOL     hw 1158   6.967   5.145   6.119 -1.0179 -0.3942  1.5821
  290SOL     hw 1159   6.922   5.007   6.075  0.1730  0.0153 -1.0927
  290SOL     vw 1160   6.912   5.094   6.075 -0.0913  0.0019 -0.0894
  291SOL     ow 1161   2.401   4.476   3.631  0.1923  0.6992 -0.2488
  291SOL     hw 1162   2.328   4.420   3.657  3.2079 -2.4816  2.3969
  291SOL     hw 1163   2.446   4.427   3.562 -0.2011  2.7510 -2.0695
  291SOL     vw 1164   2.397   4.462   3.626  0.5383  0.5503 -0.1402
  292SOL     ow 1165   3.532   4.606   1.578  0.0673 -0.2741 -0.6119
  292SOL     hw 1166   3.604   4.666   1.559  0.7143 -0.3546  1.3073
  292SOL     hw 1167   3.544   4.584   1.671 -2.5346 -0.1900 -0.2055
  292SOL     vw 1168   3.543   4.611   1.588 -0.1905 -0.2735 -0.3051
  293SOL     ow 1169   3.517   6.282   5.400 -0.2395  0.4191 -0.0097
  293SOL     hw 1170   3.565   6.350   5.446 -0.3583 -0.7894  2.0205
  293SOL     hw 1171   3.535   6.202   5.450 -1.4654 -0.7274 -1.3083
  293SOL     vw 1172   3.526   6.280   5.412 -0.4168  0.1082  0.0865
  294SOL     ow 1173   1.802   3.565   6.414 -0.0279  0.2559 -0.6474
  294SOL     hw 1174   1.743   3.533   6.481  0.4452  0.5035 -0.1052
  294SOL     hw 1175   1.766   3.649   6.388  2.5584  2.8544  3.1276
  294SOL     vw 1176   1.789   3.572   6.419  0.3758  0.6313 -0.0780
  295SOL     ow 1177   5.829   6.828   6.934  0.1821  0.4461 -0.0548
  295SOL     hw 1178   5.853   6.772   7.009 -2.1632  2.3991  2.3714
  295SOL     hw 1179   5.806   6.766   6.865 -0.5700 -1.6065  1.8847
  295SOL     vw 1180   5.829   6.812   6.935 -0.2267  0.4330  0.5209
  296SOL     ow 1181   5.731   4.115   1.637  0.4592 -0.1704  0.0282
  296SOL     hw 1182   5.801   4.102   1.573 -0.4515  1.8858 -1.4920
  296SOL     hw 1183   5.731   4.034   1.688  2.4366 -1.1521 -1.3626
  296SOL     vw 1184   5.740   4.102   1.635  0.5999 -0.0286 -0.3558
  297SOL     ow 1185   0.861   4.070   3.413 -0.7244 -0.8836 -0.4016
  297SOL     hw 1186   0.943   4.061   3.461 -1.1379 -1.3194  0.2590
  297SOL     hw 1187   0.794   4.076   3.481 -1.2822 -1.0025 -0.9223
  297SOL     vw 1188   0.863   4.069   3.428 -0.8525 -0.9565 -0.3830
  298SOL     ow 1189   1.820   4.225   0.674  0.2609  0.1794  0.1639
  298SOL     hw 1190   1.773   4.141   0.678  1.3082 -0.4478 -0.2346
  298SOL     hw 1191   1.909   4.201   0.646  0.2712  1.5475 -1.0826
  298SOL     vw 1192   1.826   4.211   0.671  0.4004  0.2770 -0.0532
  299SOL     ow 1193   2.838   6.668   6.712 -0.3829 -0.1405  0.3290
  299SOL     hw 1194   2.749   6.645   6.686 -0.5574  1.6769 -0.9259
  299SOL     hw 1195   2.894   6.623   6.648 -0.6736  1.9100 -1.5166
  299SOL     vw 1196   2.834   6.659   6.700 -0.4442  0.3695 -0.0799
  300SOL     ow 1197   2.884   3.341   4.291 -0.4079 -0.4102 -0.1817
  300SOL     hw 1198   2.808   3.309   4.242  0.3935 -0.1772 -1.6368
  300SOL     hw 1199   2.922   3.262   4.331  0.2919 -1.0223 -1.9420
  300SOL     vw 1200   2.879   3.326   4.290 -0.2097 -0.4604 -0.6058
  301SOL     ow 1201   5.363   5.709   4.289 -0.1120  0.1256  0.3170
  301SOL     hw 1202   5.412   5.724   4.207  0.2809  0.2974  0.5779
  301SOL     hw 1203   5.274   5.692   4.261  0.5233 -2.4997 -0.3260
  301SOL     vw 1204   5.358   5.709   4.274  0.0236 -0.1979  0.2668
  302SOL     ow 1205   2.364   3.416   0.497 -0.1796 -0.3605  0.2784
  302SOL     hw 1206   2.442   3.425   0.441  0.4636 -0.6602  1.0972
  302SOL     hw 1207   2.293   3.396   0.436  0.7277 -1.8922 -0.3508
  302SOL     vw 1208   2.365   3.415   0.482  0.0250 -0.6024  0.3034
  303SOL     ow 1209   0.473   4.213   5.445  0.6089  0.0857 -0.0980
  303SOL     hw 1210   0.515   4.139   5.400  0.2441 -0.6750  0.7990
  303SOL     hw 1211   0.401   4.238   5.388 -1.0068 -2.0645  0.8675
  303SOL     vw 1212   0.469   4.206   5.431  0.3476 -0.2985  0.1481
  304SOL     ow 1213   0.736   6.331   3.496 -0.2538 -0.0473 -0.2146
  304SOL     hw 1214   0.751   6.328   3.401 -2.0022 -1.2162 -0.4884
  304SOL     hw 1215   0.764   6.245   3.527  0.4406  0.3811  0.3831
  304SOL     vw 1216   0.742   6.320   3.488 -0.3929 -0.1450 -0.1719
  305SOL     ow 1217   5.308   4.091   0.311  0.4613 -0.2587 -0.3809
  305SOL     hw 1218   5.381   4.043   0.271 -1.5847 -2.1349 -2.1217
  305SOL     hw 1219   5.270   4.141   0.239 -1.1594 -0.9158 -0.0302
  305SOL     vw 1220   5.313   4.091   0.297 -0.0226 -0.5932 -0.5643
  306SOL     ow 1221   1.386   1.878   2.946 -0.9257  0.6848  0.2906
  306SOL     hw 1222   1.313   1.928   2.911 -0.2590  0.7553 -1.0732
  306SOL     hw 1223   1.421   1.830   2.871 -0.1942 -0.1302  1.1156
  306SOL     vw 1224   1.381   1.878   2.932 -0.7413  0.5866  0.2196
  307SOL     ow 1225   2.810   0.632   5.626 -0.6422 -0.3474 -0.1736
  307SOL     hw 1226   2.721   0.605   5.602 -0.0723 -2.3579 -0.1957
  307SOL     hw 1227   2.836   0.570   5.694  0.9580 -0.1771 -0.5973
  307SOL     vw 1228   2.802   0.620   5.632 -0.3560 -0.5902 -0.2325
  308SOL     ow 1229   2.143   3.466   5.688 -1.0531  0.1989 -0.5602
  308SOL     hw 1230   2.049   3.475   5.674 -1.2579 -0.0109  0.5803
  308SOL     hw 1231   2.157   3.496   5.777 -0.3100 -1.4464 -0.0827
  308SOL     vw 1232   2.132   3.471   5.698 -0.9820 -0.0458 -0.3467
  309SOL     ow 1233   1.562   5.704   6.415 -0.6128  0.6815  0.0314
  309SOL     hw 1234   1.619   5.651   6.470  0.1055  2.5545  1.1819
  309SOL     hw 1235   1.533   5.644   6.346  1.6382 -0.7082  0.1838
  309SOL     vw 1236   1.566   5.689   6.413 -0.2210  0.7455  0.2034
  310SOL     ow 1237   6.090   4.319   6.817  0.2564  0.3252  0.1893
  310SOL     hw 1238   6.007   4.357   6.788 -0.8140 -0.6855  1.7439
  310SOL     hw 1239   6.140   4.305   6.737 -0.3830  2.4512 -0.6525
  310SOL     vw 1240   6.086   4.322   6.803  0.0308  0.4725  0.2832
  311SOL     ow 1241   5.750   5.266   3.607 -0.4617 -0.3247 -0.3937
  311SOL     hw 1242   5.767   5.335   3.672  0.0994 -0.8922  0.0753
  311SOL     hw 1243   5.658   5.244   3.619 -1.3909  2.0719 -2.2550
  311SOL     vw 1244   5.740   5.272   3.617 -0.5105 -0.0832 -0.5773
  312SOL     ow 1245   5.246   3.243   5.488  0.4662 -0.1958  0.1917
  312SOL     hw 1246   5.334   3.257   5.524  0.5524 -1.4758  0.5294
  312SOL     hw 1247   5.194   3.214   5.563  0.0087 -0.4192 -0.2046
  312SOL     vw 1248   5.251   3.241   5.503  0.4170 -0.3941  0.1841
  313SOL     ow 1249   4.769   5.233   1.933 -0.1219  0.1687  0.0726
  313SOL     hw 1250   4.778   5.253   1.840  1.5956  1.5157  0.4835
  313SOL     hw 1251   4.757   5.318   1.975  0.0036 -0.3392  1.1788
  313SOL     vw 1252   4.768   5.247   1.926  0.1214  0.2794  0.2726
  314SOL     ow 1253   5.546   3.878   4.257 -0.4890 -0.2067  0.0049
  314SOL     hw 1254   5.584   3.852   4.173  2.4353  0.3158  1.0543
  314SOL     hw 1255   5.526   3.971   4.247  1.4459  0.2882  0.3382
  314SOL     vw 1256   5.549   3.887   4.245  0.1519 -0.0725  0.1874
  315SOL     ow 1257   4.954   4.130   5.678  0.5786 -0.6873 -0.3041
  315SOL     hw 1258   5.011   4.092   5.611  0.4891 -0.2957 -0.6052
  315SOL     hw 1259   4.871   4.083   5.669  0.7599 -1.0566 -0.0600
  315SOL     vw 1260   4.950   4.119   5.668  0.5910 -0.6843 -0.3114
  316SOL     ow 1261   5.302   3.101   5.229 -0.2143 -0.5544  0.2741
  316SOL     hw 1262   5.295   3.098   5.133 -1.0270 -3.1359  0.3462
  316SOL     hw 1263   5.383   3.055   5.249  0.2560  0.4809  0.8465
  316SOL     vw 1264   5.312   3.094   5.219 -0.2596 -0.7584  0.3591
  317SOL     ow 1265   1.589   6.096   2.104  0.1531 -0.4550  0.8703
  317SOL     hw 1266   1.588   6.006   2.071 -1.1576  0.5129 -2.0731
  317SOL     hw 1267   1.679   6.125   2.092 -0.1798 -0.2902 -1.7018
  317SOL     vw 1268   1.601   6.088   2.098 -0.0638 -0.3052  0.1426
  318SOL     ow 1269   2.475   6.405   3.466  0.7179 -0.0902 -0.2766
  318SOL     hw 1270   2.409   6.358   3.517 -0.3956  2.8278  1.2446
  318SOL     hw 1271   2.428   6.480   3.429  2.2078 -0.4710 -3.2105
  318SOL     vw 1272   2.460   6.409   3.468  0.7676  0.2446 -0.4630
  319SOL     ow 1273   1.093   5.991   2.483  0.5007 -0.1576  0.4015
  319SOL     hw 1274   1.169   6.008   2.428  0.9462 -2.3017  0.2650
  319SOL     hw 1275   1.063   5.905   2.455 -1.9266  0.5687  0.5419
  319SOL     vw 1276   1.099   5.982   2.472  0.2391 -0.3448  0.4021
  320SOL     ow 1277   0.190   0.318   5.448  0.1085  0.2846  0.0261
  320SOL     hw 1278   0.192   0.223   5.439  1.6288  0.1455  1.4358
  320SOL     hw 1279   0.106   0.344   5.411  0.0423 -1.5102 -1.1990
  320SOL     vw 1280   0.179   0.309   5.442  0.3003  0.0294  0.0505
  321SOL     ow 1281   1.025   5.749   3.678 -0.5034  0.1253  0.9362
  321SOL     hw 1282   0.964   5.821   3.692 -1.4971 -0.4071 -0.3911
  321SOL     hw 1283   1.007   5.688   3.749  0.0897  1.0002  1.8551
  321SOL     vw 1284   1.014   5.751   3.689 -0.5562  0.1702  0.8824
  322SOL     ow 1285   5.606   0.322   0.482 -0.3320 -0.4365 -0.0097
  322SOL     hw 1286   5.634   0.282   0.399 -1.1170 -0.8582 -0.0902
  322SOL     hw 1287   5.531   0.268   0.509 -0.8650  0.4608  0.3311
  322SOL     vw 1288   5.600   0.309   0.475 -0.5057 -0.3737  0.0246
  323SOL     ow 1289   4.492   3.816   3.162 -0.4432  0.4397  0.1651
  323SOL     hw 1290   4.405   3.778   3.169 -0.1216 -0.4189 -0.4058
  323SOL     hw 1291   4.507   3.857   3.248 -1.8421  1.5899 -0.0791
  323SOL     vw 1292   4.482   3.817   3.174 -0.5853  0.4783  0.0576
  324SOL     ow 1293   4.131   0.177   4.788  0.0174 -0.4952 -0.1057
  324SOL     hw 1294   4.092   0.244   4.732 -0.5536 -2.9193 -2.8554
  324SOL     hw 1295   4.222   0.205   4.798 -0.4445  1.1936 -0.3069
  324SOL     vw 1296   4.138   0.190   4.782 -0.1190 -0.5922 -0.4952
  325SOL     ow 1297   2.822   6.322   3.054  0.8625 -0.0003  0.0604
  325SOL     hw 1298   2.769   6.281   2.986  0.0000 -1.0185  1.2926
  325SOL     hw 1299   2.896   6.360   3.008  0.0504 -0.2187 -1.4916
  325SOL     vw 1300   2.825   6.322   3.039  0.6417 -0.1636  0.0181
  326SOL     ow 1301   1.069   2.375   7.022  0.2884 -0.1695 -0.0383
  326SOL     hw 1302   1.005   2.412   7.083 -2.2968 -2.1517 -1.3523
  326SOL     hw 1303   1.142   2.437   7.024 -2.7200  3.8068 -0.4965
  326SOL     vw 1304   1.070   2.388   7.030 -0.4495  0.0937 -0.2720
  327SOL     ow 1305   7.013   4.860   6.126  0.1049  0.4182 -0.1183
  327SOL     hw 1306   7.086   4.819   6.171  1.2881  0.7912 -1.6170
  327SOL     hw 1307   6.972   4.789   6.076  0.2545  0.4623 -0.3040
  327SOL     vw 1308   7.017   4.845   6.125  0.2806  0.4733 -0.3405
  328SOL     ow 1309   3.024   4.178   6.028  0.1371  0.5954  0.4531
  328SOL     hw 1310   3.010   4.264   5.988  0.8886  0.0887 -0.9364
  328SOL     hw 1311   2.966   4.119   5.980  2.0164 -0.2654 -0.8742
  328SOL     vw 1312   3.014   4.182   6.017  0.4842  0.4153  0.0947
  329SOL     ow 1313   4.735   2.017   7.125 -0.3484 -0.4767  0.3465
  329SOL     hw 1314   4.785   2.078   7.071 -0.3300 -1.1061 -0.3451
  329SOL     hw 1315   4.653   2.064   7.143 -0.2187 -0.1329  0.0592
  329SOL     vw 1316   4.730   2.031   7.121 -0.3290 -0.5144  0.2172
  330SOL     ow 1317   3.358   4.164   4.273 -0.0294 -0.3505 -0.0257
  330SOL     hw 1318   3.276   4.126   4.243 -0.2376  0.7409 -0.9335
  330SOL     hw 1319   3.422   4.141   4.205  0.1778 -0.3520  0.1684
  330SOL     vw 1320   3.356   4.156   4.260 -0.0294 -0.2067 -0.1199
  331SOL     ow 1321   6.662   6.246   2.456  0.0066 -0.4977  0.1573
  331SOL     hw 1322   6.724   6.183   2.491 -0.5407 -2.8812 -2.8455
  331SOL     hw 1323   6.585   6.194   2.432 -2.0276  1.9056  0.9646
  331SOL     vw 1324   6.660   6.231   2.458 -0.3340 -0.4952 -0.1322
  332SOL     ow 1325   3.192   7.226   5.543 -0.3922  0.1826  0.7470
  332SOL     hw 1326   3.280   7.195   5.564  0.3264  2.0480  0.6140
  332SOL     hw 1327   3.194   7.320   5.561 -1.6633  0.7104 -1.4594
  332SOL     vw 1328   3.204   7.234   5.548 -0.4653  0.4983  0.4385
  333SOL     ow 1329   0.046   5.279   1.506 -0.6762  0.2170 -0.2898
  333SOL     hw 1330   0.095   5.251   1.429 -0.9537  0.1506 -0.4449
  333SOL     hw 1331   0.098   5.350   1.544 -1.4082  1.4866 -1.5693
  333SOL     vw 1332   0.059   5.285   1.501 -0.8094  0.3757 -0.4791
  334SOL     ow 1333   6.413   0.480   6.266 -0.7160 -0.5258 -0.6616
  334SOL     hw 1334   6.507   0.467   6.273 -0.5864  0.9607  1.0046
  334SOL     hw 1335   6.398   0.498   6.173  1.0533  1.8542 -0.5754
  334SOL     vw 1336   6.423   0.480   6.255 -0.4654 -0.0157 -0.4303
  335SOL     ow 1337   6.727   0.362   1.918 -0.1735 -0.7399  0.7651
  335SOL     hw 1338   6.768   0.448   1.909  0.0121 -0.8673  0.3377
  335SOL     hw 1339   6.640   0.380   1.954 -0.8802 -0.1779 -1.0999
  335SOL     vw 1340   6.721   0.375   1.921 -0.2420 -0.6825  0.4627
  336SOL     ow 1341   6.239   4.291   4.055  0.2433  0.1219 -0.2992
  336SOL     hw 1342   6.174   4.266   4.120 -0.7879  2.5083 -0.3098
  336SOL     hw 1343   6.226   4.230   3.983  0.8769 -2.0681  1.3252
  336SOL     vw 1344   6.229   4.279   4.054  0.1907  0.1478 -0.0863
  337SOL     ow 1345   5.000   0.690   3.437 -0.3287  0.5224  0.0127
  337SOL     hw 1346   5.012   0.753   3.366  0.8896 -0.9987 -1.2132
  337SOL     hw 1347   4.906   0.693   3.457 -0.4331  2.0485 -0.6192
  337SOL     vw 1348   4.989   0.699   3.430 -0.1817  0.5230 -0.2325
  338SOL     ow 1349   4.155   5.903   6.551  0.7602 -0.5232  0.2255
  338SOL     hw 1350   4.243   5.908   6.514  0.6311 -0.5342 -0.0956
  338SOL     hw 1351   4.111   5.836   6.498  0.2196  0.2763 -0.3531
  338SOL     vw 1352   4.161   5.895   6.539  0.6719 -0.4194  0.1068
  339SOL     ow 1353   2.459   4.698   2.476  0.1903 -0.0111 -0.3168
  339SOL     hw 1354   2.461   4.617   2.526 -0.1548  0.0840 -0.1400
  339SOL     hw 1355   2.413   4.760   2.533 -0.9206 -0.1159 -1.0695
  339SOL     vw 1356   2.453   4.696   2.490 -0.0018 -0.0122 -0.3928
  340SOL     ow 1357   5.750   5.978   0.206  0.9036  0.5308  0.2118
  340SOL     hw 1358   5.845   5.982   0.193  0.8983  0.5724  0.1845
  340SOL     hw 1359   5.729   5.885   0.201  1.2060  0.3272  2.1063
  340SOL     vw 1360   5.760   5.966   0.204  0.9427  0.5095  0.4582
  341SOL     ow 1361   3.849   4.031   3.719 -0.5893  0.4953  0.1425
  341SOL     hw 1362   3.831   3.990   3.635  0.8382  0.1138 -0.0129
  341SOL     hw 1363   3.764   4.064   3.749 -1.6589 -1.8208 -0.1306
  341SOL     vw 1364   3.836   4.030   3.712 -0.5422  0.1395  0.0861
  342SOL     ow 1365   1.380   3.124   6.033 -0.2275 -0.5851  0.5118
  342SOL     hw 1366   1.350   3.155   5.947  1.2286  0.4268  0.3400
  342SOL     hw 1367   1.300   3.114   6.084 -1.1453 -1.3336 -0.9922
  342SOL     vw 1368   1.365   3.127   6.028 -0.1566 -0.5503  0.2909
  343SOL     ow 1369   6.363   2.429   1.065  0.7059 -0.0663 -0.0665
  343SOL     hw 1370   6.335   2.504   1.013 -0.9328 -0.3305  0.3841
  343SOL     hw 1371   6.289   2.368   1.062  1.0203 -0.5817  1.5940
  343SOL     vw 1372   6.349   2.431   1.058  0.5310 -0.1690  0.2121
  344SOL     ow 1373   0.172   6.142   6.696  0.2042  0.1045 -0.1599
  344SOL     hw 1374   0.147   6.091   6.773 -1.6270 -0.2833 -0.9794
  344SOL     hw 1375   0.267   6.129   6.689  0.3239 -0.3089  1.6816
  344SOL     vw 1376   0.181   6.134   6.705 -0.0216 -0.0012 -0.0250
  345SOL     ow 1377   7.148   6.269   0.603 -0.2212  0.6111 -0.6968
  345SOL     hw 1378   7.215   6.303   0.662  0.1517 -0.1342 -0.6852
  345SOL     hw 1379   7.156   6.174   0.609 -0.6868  0.5208 -1.3743
  345SOL     vw 1380   7.158   6.261   0.611 -0.2334  0.5007 -0.7847
  346SOL     ow 1381   4.501   6.222   0.727 -0.3214 -0.1896 -0.0321
  346SOL     hw 1382   4.520   6.155   0.661 -0.1431  0.6614 -0.8598
  346SOL     hw 1383   4.445   6.177   0.790  1.0107 -1.5452  0.2378
  346SOL     vw 1384   4.496   6.207   0.726 -0.1221 -0.2561 -0.1057
  347SOL     ow 1385   6.246   3.151   1.239 -0.4247 -0.4399  0.3074
  347SOL     hw 1386   6.251   3.246   1.248  0.1473 -0.4058 -0.2741
  347SOL     hw 1387   6.175   3.125   1.298 -1.7342  0.5245 -0.7815
  347SOL     vw 1388   6.237   3.160   1.248 -0.5221 -0.3080  0.0870
  348SOL     ow 1389   0.719   2.923   0.156 -0.0376 -0.0295  0.4846
  348SOL     hw 1390   0.726   3.012   0.122 -0.0426 -0.4416 -0.6132
  348SOL     hw 1391   0.660   2.878   0.096 -0.2466 -0.7063  1.1784
  348SOL     vw 1392   0.712   2.928   0.144 -0.0659 -0.1731  0.4313
  349SOL     ow 1393   0.266   1.711   1.920 -0.2008  0.0229 -0.2628
  349SOL     hw 1394   0.292   1.620   1.934 -1.9688 -0.6640 -1.1502
  349SOL     hw 1395   0.290   1.755   2.001  1.7040 -0.9706 -0.2362
  349SOL     vw 1396   0.272   1.705   1.933 -0.1828 -0.1988 -0.3765
  350SOL     ow 1397   3.182   4.019   5.284  0.0052 -0.5285 -0.1807
  350SOL     hw 1398   3.243   4.046   5.216 -0.0482 -1.4912 -0.6273
  350SOL     hw 1399   3.225   4.041   5.366 -0.9662  2.9863 -0.4586
  350SOL     vw 1400   3.196   4.026   5.286 -0.1299 -0.1917 -0.2761
  351SOL     ow 1401   1.192   0.474   3.873  0.3134 -0.0129 -0.8551
  351SOL     hw 1402   1.268   0.416   3.874 -0.5434 -1.3194 -3.3907
  351SOL     hw 1403   1.207   0.534   3.800 -0.8949 -0.0441 -1.1590
  351SOL     vw 1404   1.204   0.475   3.864  0.0409 -0.1894 -1.2298
  352SOL     ow 1405   4.280   2.253   2.829  0.3214 -0.3385  0.3743
  352SOL     hw 1406   4.215   2.253   2.758 -1.3977 -1.6491  1.8369
  352SOL     hw 1407   4.302   2.345   2.841 -1.3321  0.1641 -0.1500
  352SOL     vw 1408   4.274   2.265   2.821 -0.1235 -0.4451  0.4981
  353SOL     ow 1409   5.931   0.617   6.500  0.4471 -0.1861  0.1001
  353SOL     hw 1410   5.977   0.655   6.575  0.2741 -1.6666  1.0200
  353SOL     hw 1411   5.979   0.537   6.480  1.7155  1.1574 -2.7580
  353SOL     vw 1412   5.943   0.611   6.508  0.5915 -0.2041 -0.1557
  354SOL     ow 1413   5.781   5.264   6.996  0.7110  0.3209 -0.4667
  354SOL     hw 1414   5.811   5.254   6.906 -1.7125 -0.7021 -1.2417
  354SOL     hw 1415   5.716   5.335   6.992  0.6393  0.3246  0.4875
  354SOL     vw 1416   5.776   5.272   6.984  0.3819  0.1864 -0.4432
  355SOL     ow 1417   2.639   5.091   2.418  0.1123  0.5122 -0.3590
  355SOL     hw 1418   2.676   5.095   2.506 -1.7454 -1.6005  0.6243
  355SOL     hw 1419   2.590   5.172   2.408  0.6474  0.9404  0.3853
  355SOL     vw 1420   2.637   5.102   2.428 -0.0622  0.2902 -0.1310
  356SOL     ow 1421   3.958   6.399   2.016  0.3292  0.6413 -0.8387
  356SOL     hw 1422   3.978   6.401   2.110 -0.2789 -0.8767 -0.6442
  356SOL     hw 1423   4.029   6.347   1.978 -1.1835 -1.7379 -0.6566
  356SOL     vw 1424   3.970   6.392   2.023  0.0495  0.1273 -0.7890
  357SOL     ow 1425   5.705   3.354   4.172  0.4564 -0.2451 -0.0951
  357SOL     hw 1426   5.681   3.263   4.189  1.6865 -0.0441  3.4665
  357SOL     hw 1427   5.799   3.352   4.155  0.4430  0.3359 -0.2761
  357SOL     vw 1428   5.714   3.342   4.172  0.6173 -0.1420  0.3512
  358SOL     ow 1429   6.390   3.246   0.328  0.0728  0.0189 -0.6034
  358SOL     hw 1430   6.345   3.198   0.398 -1.2544  1.3035 -0.5341
  358SOL     hw 1431   6.343   3.222   0.249  0.6654 -0.3099 -0.8643
  358SOL     vw 1432   6.378   3.236   0.327 -0.0241  0.1451 -0.6287
  359SOL     ow 1433   5.265   6.357   4.108 -0.3294  0.0059  0.7760
  359SOL     hw 1434   5.337   6.295   4.119 -0.1836 -0.1994 -1.1440
  359SOL     hw 1435   5.235   6.374   4.198  2.9626  1.1910  1.8191
  359SOL     vw 1436   5.270   6.351   4.122  0.1242  0.1354  0.6602
  360SOL     ow 1437   5.253   6.768   5.525  0.6862  0.3758 -0.2425
  360SOL     hw 1438   5.162   6.745   5.543  1.3870 -1.3005  1.5400
  360SOL     hw 1439   5.256   6.781   5.430 -1.3719  0.3602 -0.3593
  360SOL     vw 1440   5.242   6.767   5.515  0.5071  0.1523 -0.0229
  361SOL     ow 1441   1.817   4.098   6.506  0.0401 -0.6800 -0.3398
  361SOL     hw 1442   1.880   4.051   6.452  1.8868 -0.4788  1.5246
  361SOL     hw 1443   1.870   4.149   6.567 -1.9250 -0.3665  1.2354
  361SOL     vw 1444   1.832   4.099   6.507  0.0244 -0.6123  0.1140
  362SOL     ow 1445   3.459   4.907   1.326  0.4440 -0.7538  0.8734
  362SOL     hw 1446   3.457   4.865   1.240 -1.2759 -0.8857  0.9416
  362SOL     hw 1447   3.455   4.834   1.388 -1.3735 -0.5923  1.0034
  362SOL     vw 1448   3.458   4.892   1.323 -0.0228 -0.7501  0.8995
  363SOL     ow 1449   2.879   2.400   5.582 -0.2307 -0.5630  0.0703
  363SOL     hw 1450   2.895   2.445   5.499  0.8302  0.4043  0.7658
  363SOL     hw 1451   2.810   2.337   5.562  2.7880 -3.3883 -2.6211
  363SOL     vw 1452   2.872   2.398   5.568  0.3074 -0.8081 -0.1931
  364SOL     ow 1453   6.277   5.918   1.749 -0.0114  0.1312 -0.0749
  364SOL     hw 1454   6.289   6.007   1.715 -1.5911  1.1373  1.7868
  364SOL     hw 1455   6.184   5.915   1.774 -0.3606 -2.5394 -1.3487
  364SOL     vw 1456   6.266   5.930   1.748 -0.2658 -0.0885  0.0027
  365SOL     ow 1457   6.978   5.712   2.727 -0.2180  0.3818  0.2619
  365SOL     hw 1458   6.992   5.642   2.790  0.2477  1.0930  0.9550
  365SOL     hw 1459   6.916   5.771   2.769  0.8368  1.3717  0.4892
  365SOL     vw 1460   6.972   5.711   2.741 -0.0172  0.6065  0.3833
  366SOL     ow 1461   4.140   7.215   2.317 -0.8417 -0.3922  0.1389
  366SOL     hw 1462   4.102   7.288   2.269 -0.2632 -0.4150 -0.3651
  366SOL     hw 1463   4.070   7.186   2.375 -1.4200 -0.1050 -0.3978
  366SOL     vw 1464   4.126   7.221   2.318 -0.8419 -0.3572  0.0017
  367SOL     ow 1465   3.667   3.478   5.936  0.0914 -0.4765  0.4099
  367SOL     hw 1466   3.608   3.546   5.904 -1.6538 -1.9473  0.3890
  367SOL     hw 1467   3.713   3.447   5.858 -0.8597 -0.9576  0.0307
  367SOL     vw 1468   3.666   3.483   5.922 -0.2644 -0.7341  0.3572
  368SOL     ow 1469   6.356   3.814   5.857 -0.7324 -0.4237  0.1742
  368SOL     hw 1470   6.359   3.721   5.880 -1.1711 -0.2684  0.9017
  368SOL     hw 1471   6.298   3.853   5.922  0.6369  0.6294  0.8144
  368SOL     vw 1472   6.349   3.807   5.869 -0.6096 -0.2644  0.3545
  369SOL     ow 1473   3.233   1.243   2.970 -0.1109 -0.0286 -0.2894
  369SOL     hw 1474   3.304   1.193   3.009  0.8280  2.1821  1.0132
  369SOL     hw 1475   3.157   1.223   3.025  0.8591  1.9081  1.8888
  369SOL     vw 1476   3.232   1.234   2.983  0.1410  0.5186  0.1698
  370SOL     ow 1477   1.381   3.388   0.976 -0.2881 -0.3659  0.4967
  370SOL     hw 1478   1.397   3.473   0.934 -0.3351 -0.2205  0.7694
  370SOL     hw 1479   1.387   3.406   1.069 -0.5796 -0.6058  0.5637
  370SOL     vw 1480   1.384   3.402   0.982 -0.3327 -0.3783  0.5415
  371SOL     ow 1481   5.728   1.975   4.941  0.6104  0.0967 -0.5107
  371SOL     hw 1482   5.798   2.011   4.995 -1.2256 -0.0055  2.1050
  371SOL     hw 1483   5.760   1.889   4.914  1.4957  0.0427  0.6488
  371SOL     vw 1484   5.742   1.968   4.944  0.4849  0.0761 -0.0124
  372SOL     ow 1485   7.005   5.827   6.200  0.2093  0.3070 -0.4195
  372SOL     hw 1486   6.974   5.902   6.251  0.4296  0.4669 -0.5165
  372SOL     hw 1487   6.959   5.835   6.116 -0.5395 -0.2411 -0.0751
  372SOL     vw 1488   6.994   5.838   6.196  0.1397  0.2556 -0.3867
  373SOL     ow 1489   5.130   2.082   5.633 -0.6172 -0.0057 -0.3620
  373SOL     hw 1490   5.222   2.057   5.636 -0.7337 -0.3892  0.1023
  373SOL     hw 1491   5.126   2.163   5.683 -0.2096  1.0897 -2.0081
  373SOL     vw 1492   5.142   2.090   5.640 -0.5789  0.0882 -0.5178
  374SOL     ow 1493   5.077   4.654   0.486 -0.0180  0.5771  0.3118
  374SOL     hw 1494   5.119   4.647   0.572 -1.6070  0.0113  1.0849
  374SOL     hw 1495   5.027   4.735   0.491  1.0422  1.3102 -0.6424
  374SOL     vw 1496   5.076   4.664   0.498 -0.0880  0.5991  0.2879
  375SOL     ow 1497   4.694   4.574   3.867 -0.1863  0.1053  0.2153
  375SOL     hw 1498   4.675   4.499   3.924  1.1627  0.7356  1.5592
  375SOL     hw 1499   4.770   4.616   3.906  0.3851  0.9894 -1.6952
  375SOL     vw 1500   4.701   4.570   3.879  0.0670  0.3052  0.1405
  376SOL     ow 1501   0.754   6.471   6.867 -0.4990 -0.2801 -0.3843
  376SOL     hw 1502   0.813   6.546   6.871  1.1788 -1.5881  1.4805
  376SOL     hw 1503   0.793   6.413   6.802  0.9424 -1.5563  1.4896
  376SOL     vw 1504   0.767   6.473   6.859 -0.0875 -0.6208  0.1090
  377SOL     ow 1505   6.279   5.953   0.027  0.1693 -0.4308 -0.4057
  377SOL     hw 1506   6.328   5.934  -0.053  1.1588 -0.9055  0.2754
  377SOL     hw 1507   6.316   6.036   0.058  1.1611 -1.1825  0.5295
  377SOL     vw 1508   6.291   5.961   0.021  0.4306 -0.5927 -0.1924
  378SOL     ow 1509   4.813   0.017   0.179 -0.5105 -0.4829  0.1251
  378SOL     hw 1510   4.759  -0.040   0.124  0.9252 -0.6633 -1.1816
  378SOL     hw 1511   4.796   0.105   0.147  0.2338 -0.5767 -0.5611
  378SOL     vw 1512   4.804   0.021   0.168 -0.2232 -0.5190 -0.1379
  379SOL     ow 1513   3.290   4.594   6.544 -0.0838 -0.2489  0.3648
  379SOL     hw 1514   3.235   4.586   6.466 -1.4698  1.9628  1.0301
  379SOL     hw 1515   3.370   4.637   6.513  0.3557 -1.4227 -0.1960
  379SOL     vw 1516   3.293   4.598   6.530 -0.2087 -0.1121  0.3786
  380SOL     ow 1517   3.366   6.574   2.098 -0.1439  0.5286  0.1710
  380SOL     hw 1518   3.460   6.596   2.092 -0.4695  1.8257 -0.6569
  380SOL     hw 1519   3.327   6.615   2.021 -1.7080  1.7665  1.5476
  380SOL     vw 1520   3.374   6.583   2.087 -0.3932  0.8628  0.2434
  381SOL     ow 1521   2.739   3.449   6.200  0.4044  0.1518  0.6807
  381SOL     hw 1522   2.722   3.478   6.111 -0.5611 -0.1874  0.7439
  381SOL     hw 1523   2.785   3.522   6.241  1.1884  0.1682 -0.1902
  381SOL     vw 1524   2.743   3.462   6.194  0.3803  0.1091  0.5741
  382SOL     ow 1525   0.982   5.562   1.059 -0.7389  0.0844  0.5633
  382SOL     hw 1526   0.969   5.472   1.090 -1.5961  0.5381  1.5860
  382SOL     hw 1527   0.922   5.615   1.112  0.0056  1.3158  0.2217
  382SOL     vw 1528   0.972   5.557   1.070 -0.7538  0.3064  0.6531
  383SOL     ow 1529   0.414   1.529   0.838 -0.4201 -0.3234  0.4742
  383SOL     hw 1530   0.406   1.445   0.884  2.3043 -0.4194  0.9724
  383SOL     hw 1531   0.360   1.520   0.760 -0.5191 -2.3987  0.7361
  383SOL     vw 1532   0.406   1.517   0.834 -0.0738 -0.6099  0.5745
  384SOL     ow 1533   4.005   3.061   0.212  0.0956 -0.0675 -0.2302
  384SOL     hw 1534   3.926   3.019   0.247 -0.2250  1.7641  1.3998
  384SOL     hw 1535   4.025   3.011   0.133 -1.7922 -1.5549  0.1477
  384SOL     vw 1536   3.997   3.048   0.206 -0.1956 -0.0221  0.0347
  385SOL     ow 1537   2.184   5.925   4.277  0.5469  0.1370  0.2270
  385SOL     hw 1538   2.249   5.980   4.320 -0.2929  1.7539 -0.4977
  385SOL     hw 1539   2.109   5.926   4.337  0.0672  0.8515 -0.3678
  385SOL     vw 1540   2.183   5.932   4.291  0.3729  0.4447  0.0529
  386SOL     ow 1541   5.647   6.565   1.737  1.4002  0.2403  0.0763
  386SOL     hw 1542   5.710   6.530   1.674 -1.0080 -1.6492 -1.4569
  386SOL     hw 1543   5.603   6.488   1.772 -2.1871  1.4561 -1.2800
  386SOL     vw 1544   5.649   6.550   1.733  0.6094  0.1514 -0.3049
  387SOL     ow 1545   5.634   2.059   4.709 -0.6198 -0.4748 -0.0191
  387SOL     hw 1546   5.673   1.992   4.653 -3.7260 -2.7044  0.2175
  387SOL     hw 1547   5.666   2.038   4.797  1.6578  1.0120 -0.4122
  387SOL     vw 1548   5.643   2.047   4.713 -0.7291 -0.5728 -0.0398
  388SOL     ow 1549   5.598   0.730   0.427 -0.7151 -0.4383  0.2623
  388SOL     hw 1550   5.591   0.670   0.501  2.4005  1.3488  2.2474
  388SOL     hw 1551   5.541   0.803   0.450 -0.8921 -0.5483  0.1710
  388SOL     vw 1552   5.590   0.732   0.440 -0.3271 -0.2170  0.5121
  389SOL     ow 1553   6.944   1.424   2.974 -0.5568 -0.2601 -0.1051
  389SOL     hw 1554   6.969   1.511   3.005 -2.2035  0.3706 -0.4104
  389SOL     hw 1555   6.990   1.413   2.892 -2.4975  1.6098 -1.5720
  389SOL     vw 1556   6.953   1.434   2.968 -1.0302  0.0699 -0.3390
  390SOL     ow 1557   5.087   2.345   2.927  0.2001  0.1312  0.0789
  390SOL     hw 1558   5.043   2.402   2.989 -0.0812  1.6674 -1.4651
  390SOL     hw 1559   5.049   2.258   2.944  1.3816  0.0997  3.1544
  390SOL     vw 1560   5.076   2.341   2.937  0.3190  0.3297  0.2810
  391SOL     ow 1561   4.514   0.796   3.757 -0.2898 -0.0017  0.1569
  391SOL     hw 1562   4.605   0.767   3.753 -0.5211 -1.1374  2.0550
  391SOL     hw 1563   4.484   0.794   3.666  1.4945  0.1957 -0.4745
  391SOL     vw 1564   4.522   0.792   3.745 -0.0849 -0.1255  0.3240
  392SOL     ow 1565   1.919   0.079   4.084 -0.0368  0.3008  0.2170
  392SOL     hw 1566   2.001   0.101   4.129  0.5825 -0.4310 -0.5181
  392SOL     hw 1567   1.912  -0.016   4.093 -0.4160  0.2712 -0.3818
  392SOL     vw 1568   1.929   0.070   4.092 -0.0051  0.2003  0.0410
  393SOL     ow 1569   5.361   6.104   2.951 -0.8364  0.4919  0.8188
  393SOL     hw 1570   5.371   6.197   2.971 -2.7515  1.0803 -0.5797
  393SOL     hw 1571   5.266   6.091   2.946 -0.5949 -1.4322  0.5470
  393SOL     vw 1572   5.350   6.115   2.953 -1.0571  0.3157  0.5984
  394SOL     ow 1573   1.529   1.741   3.170 -0.4767 -0.3531 -0.0715
  394SOL     hw 1574   1.621   1.755   3.148 -0.4974 -0.3660 -0.1667
  394SOL     hw 1575   1.528   1.657   3.216 -0.4038 -0.2222  0.1681
  394SOL     vw 1576   1.541   1.732   3.173 -0.4699 -0.3375 -0.0525
  395SOL     ow 1577   4.972   1.595   5.943 -0.5925  0.2766 -1.0574
  395SOL     hw 1578   5.011   1.549   5.868  0.5634  0.6839 -0.7152
  395SOL     hw 1579   4.949   1.525   6.004 -0.7632  0.0033 -1.4304
  395SOL     vw 1580   4.974   1.580   5.941 -0.4625  0.2942 -1.0614
  396SOL     ow 1581   2.311   7.126   2.126  0.0870 -0.4958  0.0539
  396SOL     hw 1582   2.268   7.142   2.210 -0.8286  0.6690 -0.5954
  396SOL     hw 1583   2.404   7.123   2.147 -0.1397 -0.4682  1.1413
  396SOL     vw 1584   2.318   7.128   2.140 -0.0638 -0.3386  0.1117
  397SOL     ow 1585   6.455   3.448   6.604  0.2586 -0.5697  0.2036
  397SOL     hw 1586   6.515   3.417   6.671  0.4021  0.0756  0.3782
  397SOL     hw 1587   6.505   3.512   6.554  1.1916 -3.2002 -2.5068
  397SOL     vw 1588   6.469   3.452   6.606  0.4005 -0.8315 -0.1309
  398SOL     ow 1589   3.166   0.966   4.178 -0.6256 -0.0067  0.0832
  398SOL     hw 1590   3.123   0.916   4.109 -0.3301  0.2970 -0.3241
  398SOL     hw 1591   3.190   1.049   4.137 -1.8282  0.8030  0.9683
  398SOL     vw 1592   3.164   0.970   4.163 -0.7452  0.1402  0.1462
  399SOL     ow 1593   6.832   1.046   4.170 -0.2849  0.6217 -0.4549
  399SOL     hw 1594   6.841   1.136   4.201 -1.1346  1.0335 -1.3333
  399SOL     hw 1595   6.858   0.992   4.244 -0.7240  1.5797  0.4246
  399SOL     vw 1596   6.836   1.051   4.184 -0.4547  0.8025 -0.4547
  400SOL     ow 1597   1.153   3.280   0.908  0.2689 -0.1423 -0.2392
  400SOL     hw 1598   1.179   3.212   0.846  0.6954 -1.0127  0.8645
  400SOL     hw 1599   1.236   3.317   0.938  0.1062 -0.3287  0.4543
  400SOL     vw 1600   1.167   3.276   0.904  0.3037 -0.2816 -0.0021
  401SOL     ow 1601   4.292   2.227   3.151 -0.2193 -0.4237 -0.6791
  401SOL     hw 1602   4.366   2.206   3.208 -0.3059 -3.9200 -1.5960
  401SOL     hw 1603   4.300   2.321   3.134  1.1768  0.2898  3.0549
  401SOL     vw 1604   4.303   2.236   3.156 -0.0467 -0.7908 -0.3073
  402SOL     ow 1605   4.131   2.040   2.966  0.2783 -0.1472  0.1985
  402SOL     hw 1606   4.091   1.985   3.033  0.3185  0.7489  0.9630
  402SOL     hw 1607   4.111   1.995   2.883  0.1795 -1.2238  0.7933
  402SOL     vw 1608   4.123   2.027   2.964  0.2706 -0.1711  0.3779
  403SOL     ow 1609   1.965   6.283   5.996 -0.2480  0.3119  0.2332
  403SOL     hw 1610   2.007   6.204   6.029 -0.8405  0.3687  1.1657
  403SOL     hw 1611   1.880   6.284   6.040 -0.8553  0.6715 -0.9254
  403SOL     vw 1612   1.959   6.273   6.006 -0.4064  0.3667  0.2034
  404SOL     ow 1613   2.869   1.202   5.549 -0.3557 -0.2400 -0.2733
  404SOL     hw 1614   2.878   1.127   5.489 -0.9264  0.1832 -0.9060
  404SOL     hw 1615   2.797   1.176   5.607 -1.9326  0.5918 -1.7492
  404SOL     vw 1616   2.860   1.189   5.548 -0.6390 -0.0744 -0.5515
  405SOL     ow 1617   6.705   3.963   2.068  0.6202  0.1095  0.4706
  405SOL     hw 1618   6.787   3.944   2.022  0.4692 -2.3198  1.0550
  405SOL     hw 1619   6.712   4.055   2.092  2.6013  0.3069 -0.5950
  405SOL     vw 1620   6.717   3.973   2.065  0.8616 -0.1850  0.4071
  406SOL     ow 1621   0.663   6.382   7.129  0.3090  0.1297  0.1793
  406SOL     hw 1622   0.659   6.436   7.209  2.1653  1.0716 -0.3045
  406SOL     hw 1623   0.687   6.444   7.060 -2.5588 -0.4045 -1.4444
  406SOL     vw 1624   0.666   6.397   7.131  0.1755  0.1833 -0.0987
  407SOL     ow 1625   2.747   3.605   6.838  0.1990 -0.2762 -0.3893
  407SOL     hw 1626   2.776   3.531   6.892 -1.1646  0.2220  1.0946
  407SOL     hw 1627   2.827   3.654   6.819  0.6398  0.0321  1.9714
  407SOL     vw 1628   2.761   3.601   6.843  0.0774 -0.1698  0.1178
  408SOL     ow 1629   4.976   1.506   2.983 -0.5415  0.4949 -0.0652
  408SOL     hw 1630   4.974   1.472   2.894 -2.1581  0.8383 -0.1833
  408SOL     hw 1631   4.935   1.438   3.036 -1.6385  1.2193  0.0539
  408SOL     vw 1632   4.970   1.493   2.978 -0.8996  0.6357 -0.0651
  409SOL     ow 1633   2.831   5.348   3.045  0.1341  1.1306  0.4181
  409SOL     hw 1634   2.823   5.407   2.970 -0.1451 -0.5454 -0.9179
  409SOL     hw 1635   2.919   5.365   3.079 -0.2192  2.8446  0.5653
  409SOL     vw 1636   2.842   5.358   3.040  0.0507  1.1353  0.2612
  410SOL     ow 1637   1.411   6.560   4.606 -0.6673  0.4078 -0.2164
  410SOL     hw 1638   1.400   6.601   4.692  2.5572 -0.7831  0.9606
  410SOL     hw 1639   1.416   6.632   4.545 -0.3719  1.4773  1.0224
  410SOL     vw 1640   1.410   6.575   4.610 -0.2030  0.3920  0.1025
  411SOL     ow 1641   2.022   2.397   3.752  0.1811 -0.2594  0.0814
  411SOL     hw 1642   1.971   2.472   3.720 -0.1203  0.0149  1.1305
  411SOL     hw 1643   2.036   2.342   3.676  0.6221  0.9881 -0.7827
  411SOL     vw 1644   2.017   2.400   3.738  0.1996 -0.0587  0.1059
  412SOL     ow 1645   6.990   0.223   1.862 -0.5189 -0.3474  0.4395
  412SOL     hw 1646   7.028   0.287   1.923  0.9212 -1.2085  0.4890
  412SOL     hw 1647   7.040   0.143   1.876 -1.6029 -1.2103 -0.3584
  412SOL     vw 1648   7.001   0.221   1.872 -0.4718 -0.5749  0.3408
  413SOL     ow 1649   1.475   2.150   1.566 -0.2797  0.0523  0.2182
  413SOL     hw 1650   1.528   2.194   1.632  0.6405  1.2994 -1.2638
  413SOL     hw 1651   1.483   2.057   1.586  1.6391  0.2805  0.6769
  413SOL     vw 1652   1.483   2.144   1.577  0.0949  0.2470  0.0831
  414SOL     ow 1653   1.652   6.099   4.697 -0.1315  0.1195 -0.3754
  414SOL     hw 1654   1.661   6.039   4.771  2.0180  0.8098 -0.0250
  414SOL     hw 1655   1.639   6.041   4.621  2.1655 -0.8571 -0.0865
  414SOL     vw 1656   1.651   6.084   4.697  0.4551  0.0815 -0.2913
  415SOL     ow 1657   5.387   5.010   1.185 -0.3727  0.3446 -0.2602
  415SOL     hw 1658   5.429   4.924   1.185 -0.2096  0.4234  0.1511
  415SOL     hw 1659   5.408   5.047   1.271 -0.1904  0.9151 -0.5465
  415SOL     vw 1660   5.395   5.004   1.196 -0.3273  0.4303 -0.2437
  416SOL     ow 1661   4.060   5.666   2.884 -0.5212 -0.0980  0.2752
  416SOL     hw 1662   4.106   5.598   2.835 -1.8706 -0.1483 -0.9860
  416SOL     hw 1663   3.967   5.646   2.871 -0.9619 -0.3873  3.2679
  416SOL     vw 1664   4.054   5.654   2.876 -0.7572 -0.1428  0.5038
  417SOL     ow 1665   2.610   5.100   2.729 -0.0887 -0.7854  0.4229
  417SOL     hw 1666   2.664   5.160   2.781  0.8687 -1.3141  0.0643
  417SOL     hw 1667   2.526   5.146   2.719  0.8216  0.7835 -0.3714
  417SOL     vw 1668   2.606   5.114   2.735  0.1577 -0.6483  0.2707
  418SOL     ow 1669   1.466   1.384   4.055  0.2815 -0.1459 -0.4204
  418SOL     hw 1670   1.485   1.461   4.108  1.1893 -2.1773  2.3805
  418SOL     hw 1671   1.373   1.394   4.032 -0.0627  1.0025  1.2597
  418SOL     vw 1672   1.456   1.395   4.059  0.3560 -0.2625  0.1705
  419SOL     ow 1673   1.478   5.535   2.397 -0.7359 -0.1927 -0.3351
  419SOL     hw 1674   1.537   5.576   2.334  0.3270  1.1217  1.4143
  419SOL     hw 1675   1.507   5.568   2.482 -2.9214 -0.8623  0.7590
  419SOL     vw 1676   1.489   5.545   2.400 -0.8840 -0.1080  0.0402
  420SOL     ow 1677   5.133   0.070   7.037  0.3748 -0.2505 -0.7920
  420SOL     hw 1678   5.099   0.053   7.125 -0.5756  1.5169 -0.7658
  420SOL     hw 1679   5.070   0.131   6.999  2.8643  2.2455 -1.2102
  420SOL     vw 1680   5.120   0.076   7.044  0.5779  0.3120 -0.8435
  421SOL     ow 1681   1.851   1.106   7.159  0.0956 -1.2565 -0.2470
  421SOL     hw 1682   1.938   1.090   7.196  0.1861  1.1471  0.7919
  421SOL     hw 1683   1.803   1.150   7.230 -1.0610 -0.1209 -1.6720
  421SOL     vw 1684   1.856   1.110   7.173 -0.0450 -0.7896 -0.2978
  422SOL     ow 1685   5.738   3.525   3.096 -0.4343  0.9541 -0.2400
  422SOL     hw 1686   5.751   3.524   3.001 -0.4750 -0.2766 -0.2490
  422SOL     hw 1687   5.653   3.567   3.108 -1.8711 -1.5511 -0.9851
  422SOL     vw 1688   5.729   3.530   3.085 -0.6289  0.4612 -0.3395
  423SOL     ow 1689   2.011   4.837   0.950 -0.3397  0.2273  0.1380
  423SOL     hw 1690   1.976   4.924   0.933 -0.2167  0.2768  0.1322
  423SOL     hw 1691   2.017   4.797   0.863 -0.9574 -0.0052  0.2015
  423SOL     vw 1692   2.007   4.843   0.936 -0.4052  0.2034  0.1456
  424SOL     ow 1693   1.357   5.230   2.085 -0.0870 -0.2400  0.3647
  424SOL     hw 1694   1.362   5.326   2.087 -1.1586 -0.1705 -0.0592
  424SOL     hw 1695   1.411   5.205   2.010  4.3907 -0.3307  3.2012
  424SOL     vw 1696   1.365   5.240   2.076  0.3624 -0.2432  0.6829
  425SOL     ow 1697   6.978   2.797   3.944 -0.0597  0.2801  0.0045
  425SOL     hw 1698   6.930   2.758   4.017  0.4788  1.1466  0.8320
  425SOL     hw 1699   6.948   2.748   3.867  1.8918 -3.0368  1.1678
  425SOL     vw 1700   6.968   2.785   3.943  0.2687 -0.0432  0.2673
  426SOL     ow 1701   1.578   0.089   3.905 -0.3831 -0.2291 -0.3412
  426SOL     hw 1702   1.641   0.132   3.963 -0.1922 -2.0382  0.8655
  426SOL     hw 1703   1.631   0.030   3.852 -0.7427  0.3755 -1.4119
  426SOL     vw 1704   1.593   0.087   3.906 -0.4054 -0.3880 -0.3234
  427SOL     ow 1705   6.027   2.089   2.669  0.3567 -0.0015  0.0014
  427SOL     hw 1706   6.031   2.071   2.763  1.3329 -0.9926 -0.2102
  427SOL     hw 1707   5.978   2.015   2.633  0.4113  0.1276 -0.3345
  427SOL     vw 1708   6.021   2.077   2.677  0.4928 -0.1153 -0.0708
  428SOL     ow 1709   4.480   2.150   4.372  0.2140  0.0426  0.1838
  428SOL     hw 1710   4.450   2.240   4.386  0.5485 -0.0109  1.3703
  428SOL     hw 1711   4.576   2.157   4.373  0.3227 -0.6213  2.8972
  428SOL     vw 1712   4.489   2.163   4.374  0.2725 -0.0521  0.6983
  429SOL     ow 1713   0.228   5.960   4.511  0.7887 -0.1246 -0.5676
  429SOL     hw 1714   0.245   5.869   4.535  0.0278 -0.4652 -1.2848
  429SOL     hw 1715   0.315   6.001   4.509  1.1924 -0.9752 -0.8333
  429SOL     vw 1716   0.242   5.954   4.514  0.7416 -0.2818 -0.6974
  430SOL     ow 1717   3.597   5.533   2.356 -0.1267  0.2482  0.3025
  430SOL     hw 1718   3.581   5.483   2.436  0.0263  0.8191  0.6983
  430SOL     hw 1719   3.510   5.550   2.321 -0.1725 -3.1615 -1.7034
  430SOL     vw 1720   3.583   5.529   2.362 -0.1125 -0.1264  0.0902
  431SOL     ow 1721   1.404   3.305   0.086  0.8596 -0.0969 -0.1406
  431SOL     hw 1722   1.395   3.395   0.119  0.5855  0.2359 -1.0946
  431SOL     hw 1723   1.483   3.307   0.032  0.6623 -0.3434 -0.4403
  431SOL     vw 1724   1.413   3.317   0.083  0.7975 -0.0854 -0.3060
  432SOL     ow 1725   0.977   0.016   1.934 -0.0203  0.0280 -0.2622
  432SOL     hw 1726   0.887  -0.016   1.927  0.4232 -1.1744 -0.6649
  432SOL     hw 1727   1.031  -0.056   1.902  1.0891  0.7713 -0.1245
  432SOL     vw 1728   0.972   0.002   1.929  0.1846 -0.0326 -0.2971
  433SOL     ow 1729   1.317   5.757   2.474  0.5053 -0.3133  0.2932
  433SOL     hw 1730   1.323   5.808   2.554 -0.3249  2.2640 -1.1724
  433SOL     hw 1731   1.328   5.821   2.403 -1.4886 -2.0106 -1.7063
  433SOL     vw 1732   1.319   5.772   2.475  0.1326 -0.1972 -0.1640
  434SOL     ow 1733   2.393   2.825   3.934 -0.6389 -0.4564  0.4350
  434SOL     hw 1734   2.484   2.848   3.952 -0.4901 -0.3080 -0.4362
  434SOL     hw 1735   2.395   2.788   3.845 -1.3312 -1.0449  0.6605
  434SOL     vw 1736   2.405   2.823   3.924 -0.7106 -0.5145  0.3498
  435SOL     ow 1737   5.363   1.329   5.726 -0.2288 -0.0913 -0.0718
  435SOL     hw 1738   5.375   1.339   5.632 -0.0646  0.6150  0.0185
  435SOL     hw 1739   5.380   1.236   5.743  0.1156 -0.1441 -0.6788
  435SOL     vw 1740   5.367   1.318   5.716 -0.1619 -0.0051 -0.1400
  436SOL     ow 1741   0.288   1.812   0.791  0.4082 -0.0481  0.2170
  436SOL     hw 1742   0.318   1.797   0.702  0.3620  1.7097 -0.1179
  436SOL     hw 1743   0.215   1.873   0.783  1.3324  1.3171  1.5253
  436SOL     vw 1744   0.282   1.818   0.778  0.5240  0.3639  0.3454
  437SOL     ow 1745   6.979   0.942   3.936 -0.1161  0.5324 -0.3412
  437SOL     hw 1746   7.039   0.973   3.869 -1.9774  1.0090 -1.8718
  437SOL     hw 1747   7.033   0.889   3.994  1.2376 -1.7319 -3.4054
  437SOL     vw 1748   6.994   0.939   3.935 -0.1831  0.2965 -0.9475
  438SOL     ow 1749   4.188   4.029   3.641  0.1616 -0.4200  0.0084
  438SOL     hw 1750   4.240   4.054   3.717  0.8458 -1.1997 -0.1871
  438SOL     hw 1751   4.097   4.038   3.669  0.4100 -0.9334  0.9937
  438SOL     vw 1752   4.183   4.034   3.655  0.2844 -0.5906  0.1127
  439SOL     ow 1753   6.638   5.733   3.894  0.0480  0.0204 -0.6608
  439SOL     hw 1754   6.588   5.780   3.827 -0.4896  0.3424 -0.0518
  439SOL     hw 1755   6.632   5.641   3.869 -1.7370 -0.0661 -0.0765
  439SOL     vw 1756   6.630   5.727   3.882 -0.2582  0.0515 -0.5034
  440SOL     ow 1757   5.492   6.427   6.131 -0.4725 -0.4464 -0.0995
  440SOL     hw 1758   5.503   6.378   6.050  0.4361 -2.3391  1.0964
  440SOL     hw 1759   5.420   6.488   6.113  0.0252 -0.4685 -2.4428
  440SOL     vw 1760   5.484   6.428   6.118 -0.2868 -0.6990 -0.2511
  441SOL     ow 1761   0.212   5.478   2.321  0.4398 -0.4830  0.0730
  441SOL     hw 1762   0.184   5.438   2.403  1.6021 -2.0275 -0.2418
  441SOL     hw 1763   0.264   5.411   2.278  0.6723  0.6448 -1.4934
  441SOL     vw 1764   0.215   5.464   2.326  0.6238 -0.5381 -0.1754
  442SOL     ow 1765   2.392   2.663   2.832  0.2602  0.2328 -0.7158
  442SOL     hw 1766   2.404   2.757   2.819 -3.7840  0.8449 -1.2466
  442SOL     hw 1767   2.375   2.654   2.926  0.3875  0.0630 -0.7087
  442SOL     vw 1768   2.391   2.675   2.843 -0.2565  0.2912 -0.7849
  443SOL     ow 1769   3.239   3.725   6.560  0.0884  0.3264  0.2715
  443SOL     hw 1770   3.274   3.808   6.528 -1.2647  1.4233  1.5348
  443SOL     hw 1771   3.166   3.705   6.501  0.1131  0.2756  0.2578
  443SOL     vw 1772   3.234   3.733   6.548 -0.0869  0.4643  0.4363
  444SOL     ow 1773   1.013   4.587   3.434  0.0103  0.0762 -0.4826
  444SOL     hw 1774   1.046   4.571   3.522 -3.9976 -1.0668  0.9935
  444SOL     hw 1775   1.019   4.683   3.424  1.7063  0.1135  0.4010
  444SOL     vw 1776   1.018   4.598   3.444 -0.2947 -0.0699 -0.1712
  445SOL     ow 1777   3.579   1.538   7.049 -0.2275  0.2908 -0.6009
  445SOL     hw 1778   3.485   1.552   7.044 -0.4551 -0.1968  1.4438
  445SOL     hw 1779   3.608   1.594   7.121  0.9215 -0.1883 -0.6645
  445SOL     vw 1780   3.571   1.547   7.058 -0.1060  0.1633 -0.3395
  446SOL     ow 1781   2.980   1.183   5.815  0.4433 -0.2130  0.1147
  446SOL     hw 1782   2.973   1.093   5.783  2.2621 -0.2694 -0.2228
  446SOL     hw 1783   2.913   1.189   5.883  0.9511 -2.1530  0.8768
  446SOL     vw 1784   2.970   1.172   5.820  0.7503 -0.4764  0.1707
  447SOL     ow 1785   1.256   0.825   2.874  0.6193 -0.1696 -0.5038
  447SOL     hw 1786   1.275   0.847   2.966  0.8615  1.5338 -0.9228
  447SOL     hw 1787   1.281   0.733   2.866 -1.5521 -1.0907  1.7116
  447SOL     vw 1788   1.262   0.816   2.885  0.3648 -0.0664 -0.2668
  448SOL     ow 1789   5.280   2.739   5.407 -0.9157  0.0012  0.0704
  448SOL     hw 1790   5.336   2.723   5.482  1.5898  2.3401 -1.1386
  448SOL     hw 1791   5.282   2.658   5.357  3.3744  0.5528 -1.0382
  448SOL     vw 1792   5.287   2.726   5.410 -0.0193  0.3825 -0.2356
  449SOL     ow 1793   5.170   4.663   7.026  0.7092 -0.2286  0.3993
  449SOL     hw 1794   5.211   4.637   7.109  1.6312 -0.1012 -0.0020
  449SOL     hw 1795   5.079   4.681   7.048  1.2899  1.3339  1.7025
  449SOL     vw 1796   5.163   4.662   7.040  0.9077 -0.0055  0.5183
  450SOL     ow 1797   6.346   3.207   3.765  1.0974  0.1534  0.3853
  450SOL     hw 1798   6.284   3.230   3.696 -2.1889 -2.2877  2.2083
  450SOL     hw 1799   6.369   3.116   3.746  2.4391  0.3588  0.9584
  450SOL     vw 1800   6.341   3.198   3.753  0.8407 -0.1416  0.7014
  451SOL     ow 1801   6.287   1.239   2.434  0.2051  0.2487  0.0154
  451SOL     hw 1802   6.204   1.207   2.398  0.7810  0.3608 -1.4677
  451SOL     hw 1803   6.337   1.160   2.454 -0.6933  0.1403  2.0916
  451SOL     vw 1804   6.282   1.224   2.432  0.1626  0.2492  0.0937
  452SOL     ow 1805   6.466   5.041   6.741  0.6032  0.1308  0.0866
  452SOL     hw 1806   6.399   4.982   6.706  1.2151 -0.2308 -0.5104
  452SOL     hw 1807   6.519   4.985   6.798  0.8111  0.2532  0.0144
  452SOL     vw 1808   6.464   5.026   6.744  0.7114  0.0989 -0.0019
  453SOL     ow 1809   6.224   3.241   3.520 -0.2250 -0.0728 -0.3649
  453SOL     hw 1810   6.170   3.215   3.445 -1.3539 -0.0416  0.4092
  453SOL     hw 1811   6.296   3.291   3.481 -0.1448 -1.0449 -1.5208
  453SOL     vw 1812   6.226   3.244   3.505 -0.3633 -0.1968 -0.4153
  454SOL     ow 1813   2.085   2.472   5.582  0.4486 -0.6533  0.2486
  454SOL     hw 1814   2.175   2.441   5.586 -0.0905 -2.1728  1.6229
  454SOL     hw 1815   2.035   2.397   5.548 -0.5807 -0.5940  1.5221
  454SOL     vw 1816   2.090   2.458   5.578  0.2416 -0.8460  0.5980
  455SOL     ow 1817   7.138   1.503   5.111 -0.1423  0.4000 -0.0813
  455SOL     hw 1818   7.141   1.586   5.159 -0.4209 -0.2115  1.0209
  455SOL     hw 1819   7.064   1.455   5.149  1.1602 -1.1398  0.6401
  455SOL     vw 1820   7.128   1.508   5.123 -0.0072  0.1162  0.1593
  456SOL     ow 1821   3.332   0.195   0.495 -0.2736  0.6298 -0.4731
  456SOL     hw 1822   3.330   0.272   0.551  1.2406  0.8336 -0.6739
  456SOL     hw 1823   3.256   0.205   0.438 -1.2736  0.9132  0.8531
  456SOL     vw 1824   3.322   0.206   0.495 -0.2058  0.6941 -0.3246
  457SOL     ow 1825   5.403   2.423   2.529 -0.0132  0.3123  0.3983
  457SOL     hw 1826   5.416   2.475   2.450 -0.5691 -1.3921 -0.8819
  457SOL     hw 1827   5.319   2.452   2.564  0.2564  1.1111  0.3998
  457SOL     vw 1828   5.394   2.434   2.523 -0.0510  0.1929  0.2295
  458SOL     ow 1829   2.800   4.617   1.173  0.1378 -0.1973 -0.4585
  458SOL     hw 1830   2.875   4.600   1.117 -0.0108  0.6463 -0.9309
  458SOL     hw 1831   2.739   4.545   1.154  1.6890 -2.1818  1.5795
  458SOL     vw 1832   2.802   4.605   1.163  0.3228 -0.3479 -0.2519
  459SOL     ow 1833   0.717   2.680   0.634  0.1405  0.2561  0.2712
  459SOL     hw 1834   0.795   2.678   0.690  0.0213  0.2910  0.4389
  459SOL     hw 1835   0.719   2.596   0.588  0.9706  0.7866 -0.6795
  459SOL     vw 1836   0.727   2.669   0.636  0.2343  0.3307  0.1679
  460SOL     ow 1837   4.008   5.429   5.856 -0.3166  0.0905  0.0472
  460SOL     hw 1838   3.948   5.356   5.839  0.7495 -0.8058  0.0462
  460SOL     hw 1839   4.054   5.443   5.773  1.5865 -1.2210  0.8230
  460SOL     vw 1840   4.006   5.421   5.842  0.0753 -0.2007  0.1495
  461SOL     ow 1841   6.334   4.463   0.635 -0.1372  0.4236  0.3239
  461SOL     hw 1842   6.375   4.509   0.562  1.3615  1.5973  1.8245
  461SOL     hw 1843   6.266   4.523   0.665  0.8796  1.0925  1.3885
  461SOL     vw 1844   6.330   4.477   0.630  0.1948  0.6666  0.6624
  462SOL     ow 1845   6.365   3.287   0.995  0.1452  0.4621 -0.0570
  462SOL     hw 1846   6.417   3.321   1.067  0.5508  0.6766 -0.4441
  462SOL     hw 1847   6.320   3.363   0.959 -1.9636  0.0070  1.4674
  462SOL     vw 1848   6.366   3.301   0.999 -0.0796  0.4303  0.0930
  463SOL     ow 1849   2.866   3.683   6.240  0.3070 -0.0456  0.5059
  463SOL     hw 1850   2.943   3.671   6.184 -0.4279 -2.2652 -0.1199
  463SOL     hw 1851   2.800   3.720   6.183  0.4868  0.5860  0.7017
  463SOL     vw 1852   2.867   3.686   6.225  0.2338 -0.2549  0.4494
  464SOL     ow 1853   4.727   1.131   0.577 -0.2621 -0.4054 -0.2269
  464SOL     hw 1854   4.711   1.111   0.485  0.1180  1.3092 -0.7048
  464SOL     hw 1855   4.771   1.054   0.611 -0.2797 -1.0109 -1.5141
  464SOL     vw 1856   4.731   1.118   0.569 -0.2143 -0.2590 -0.4597
  465SOL     ow 1857   6.473   6.423   1.041 -0.1780 -1.1811  0.7999
  465SOL     hw 1858   6.493   6.411   0.948 -0.0934 -0.0437  0.6528
  465SOL     hw 1859   6.468   6.518   1.052 -2.2167 -1.3256  1.5384
  465SOL     vw 1860   6.475   6.434   1.030 -0.4358 -1.0505  0.8779
  466SOL     ow 1861   2.820   7.124   6.288 -0.3155 -1.1240  0.5737
  466SOL     hw 1862   2.889   7.189   6.304  1.1910 -2.7068  0.7214
  466SOL     hw 1863   2.838   7.093   6.199 -0.1159 -2.3865  1.0475
  466SOL     vw 1864   2.831   7.129   6.278 -0.0904 -1.4992  0.6557
  467SOL     ow 1865   4.502   4.756   5.925 -0.3165 -0.1768 -0.8501
  467SOL     hw 1866   4.432   4.808   5.885 -0.2274 -0.4278 -1.3443
  467SOL     hw 1867   4.466   4.668   5.932 -0.0211 -0.3303 -1.2030
  467SOL     vw 1868   4.488   4.752   5.920 -0.2654 -0.2303 -0.9620
  468SOL     ow 1869   1.399   2.533   2.499  0.0175 -0.0549  0.2642
  468SOL     hw 1870   1.365   2.558   2.585  0.0101  0.3586  0.1471
  468SOL     hw 1871   1.322   2.531   2.443  0.1038  0.3270  0.1249
  468SOL     vw 1872   1.384   2.536   2.503  0.0280  0.0501  0.2304
  469SOL     ow 1873   1.955   2.064   4.677 -0.2228  0.8017  0.5855
  469SOL     hw 1874   1.987   2.116   4.751 -1.1198  0.7823  0.9993
  469SOL     hw 1875   1.861   2.084   4.673 -0.3679  0.0372  0.0708
  469SOL     vw 1876   1.947   2.074   4.686 -0.3604  0.6983  0.5724
  470SOL     ow 1877   0.197   3.191   4.466 -0.2587  0.7811 -0.2716
  470SOL     hw 1878   0.105   3.178   4.488  0.4696 -1.5962  1.9077
  470SOL     hw 1879   0.199   3.184   4.370 -2.2578  0.1734 -0.3247
  470SOL     vw 1880   0.185   3.188   4.456 -0.4264  0.3873  0.0091
  471SOL     ow 1881   1.397   2.119   5.483 -0.3185 -0.0727 -0.3302
  471SOL     hw 1882   1.478   2.099   5.436  0.7712 -0.3050  1.5253
  471SOL     hw 1883   1.375   2.209   5.458  0.9516  0.2612 -0.2962
  471SOL     vw 1884   1.405   2.128   5.474 -0.0072 -0.0592 -0.0811
  472SOL     ow 1885   5.113   5.091   0.621 -0.3301  0.7170  0.5243
  472SOL     hw 1886   5.206   5.101   0.598 -0.0828 -0.0218  1.1802
  472SOL     hw 1887   5.101   5.148   0.697 -0.1360 -0.0565  1.1405
  472SOL     vw 1888   5.124   5.100   0.628 -0.2718  0.5174  0.6922
  473SOL     ow 1889   4.868   3.674   2.361 -0.3708  0.1619 -0.8904
  473SOL     hw 1890   4.906   3.675   2.273 -0.5519  1.3671 -0.9598
  473SOL     hw 1891   4.937   3.635   2.415 -1.0341 -2.5979 -1.8709
  473SOL     vw 1892   4.882   3.669   2.357 -0.4821 -0.0433 -1.0289
  474SOL     ow 1893   4.579   3.838   5.946 -0.3066 -0.2899  0.1138
  474SOL     hw 1894   4.604   3.914   5.998  1.6691 -2.3602  2.4420
  474SOL     hw 1895   4.493   3.813   5.980 -0.3538  0.0948  0.2822
  474SOL     vw 1896   4.571   3.844   5.958 -0.0520 -0.5124  0.4432
  475SOL     ow 1897   5.111   2.343   1.282 -0.3537 -0.3770 -0.6644
  475SOL     hw 1898   5.166   2.413   1.247  1.6491 -1.0083  1.0732
  475SOL     hw 1899   5.062   2.384   1.353 -0.9124 -0.2280 -1.1227
  475SOL     vw 1900   5.112   2.358   1.287 -0.1628 -0.4407 -0.4956
  476SOL     ow 1901   4.696   3.996   6.938 -0.0839  0.3341  0.1722
  476SOL     hw 1902   4.685   4.074   6.994  2.1158  0.9288 -0.1311
  476SOL     hw 1903   4.787   4.001   6.908 -0.6162 -1.0546 -1.8612
  476SOL     vw 1904   4.706   4.007   6.942  0.1361  0.2291 -0.1361
  477SOL     ow 1905   1.851   3.719   4.148  0.1558  0.0099 -0.1764
  477SOL     hw 1906   1.870   3.654   4.081 -1.4028 -0.4658 -0.1833
  477SOL     hw 1907   1.767   3.693   4.185 -0.6660  2.1440 -0.3616
  477SOL     vw 1908   1.843   3.707   4.144 -0.1583  0.2288 -0.2019
  478SOL     ow 1909   1.579   6.397   4.437 -0.6419  0.1305  0.4690
  478SOL     hw 1910   1.665   6.358   4.456  0.0538 -0.2674 -2.9112
  478SOL     hw 1911   1.594   6.491   4.440 -0.9186  0.1675  2.8830
  478SOL     vw 1912   1.592   6.404   4.440 -0.5866  0.0830  0.3414
  479SOL     ow 1913   3.714   4.307   2.559  0.0454  0.4534 -0.0073
  479SOL     hw 1914   3.761   4.314   2.476 -0.1985  2.4434 -0.0197
  479SOL     hw 1915   3.623   4.296   2.534  0.1041 -0.1491  0.0195
  479SOL     vw 1916   3.708   4.306   2.545  0.0210  0.6363 -0.0054
  480SOL     ow 1917   2.485   6.958   0.097  0.5206  0.1130  0.3160
  480SOL     hw 1918   2.530   6.916   0.171  0.9041  2.8763  1.7808
  480SOL     hw 1919   2.403   6.990   0.134 -0.8133 -1.2069 -1.3280
  480SOL     vw 1920   2.480   6.956   0.112  0.3952  0.3035  0.2923
  481SOL     ow 1921   5.241   3.686   1.056  0.0902  0.0011  0.0754
  481SOL     hw 1922   5.179   3.726   0.995 -0.4278  0.2755  0.7667
  481SOL     hw 1923   5.222   3.592   1.051  0.7350 -0.0876 -0.9217
  481SOL     vw 1924   5.230   3.679   1.047  0.1068  0.0254  0.0350
  482SOL     ow 1925   1.914   0.105   6.191 -0.0970 -0.2418  0.9568
  482SOL     hw 1926   1.983   0.156   6.234  0.0526  0.6989 -0.3617
  482SOL     hw 1927   1.961   0.039   6.140 -0.2619 -1.0443  1.8097
  482SOL     vw 1928   1.929   0.103   6.190 -0.0990 -0.2236  0.8953
  483SOL     ow 1929   3.342   2.667   6.405 -0.3737  0.4379 -0.5202
  483SOL     hw 1930   3.342   2.760   6.431 -0.6267  0.6811 -1.3583
  483SOL     hw 1931   3.432   2.650   6.377 -0.8619  1.1121 -2.6522
  483SOL     vw 1932   3.354   2.677   6.405 -0.4715  0.5590 -0.9122
  484SOL     ow 1933   1.029   0.760   6.137 -0.4595 -0.3209  0.1315
  484SOL     hw 1934   1.118   0.759   6.103 -1.1165 -0.5521 -1.6578
  484SOL     hw 1935   0.974   0.783   6.062 -1.8595  0.5493  1.3528
  484SOL     vw 1936   1.033   0.763   6.123 -0.7309 -0.2366  0.0563
  485SOL     ow 1937   2.982   1.183   3.399  0.1185  0.8101 -0.6275
  485SOL     hw 1938   2.912   1.221   3.452 -0.0774  1.8676 -1.6043
  485SOL     hw 1939   2.949   1.187   3.309  1.1250  0.6115 -1.0162
  485SOL     vw 1940   2.969   1.188   3.394  0.2254  0.9235 -0.8078
  486SOL     ow 1941   2.433   3.070   4.564  0.1635  0.1856 -0.3941
  486SOL     hw 1942   2.429   2.974   4.563 -1.5891  0.2144 -1.3869
  486SOL     hw 1943   2.347   3.097   4.597  1.1591  1.4359  1.2901
  486SOL     vw 1944   2.421   3.061   4.568  0.0637  0.3543 -0.3028
  487SOL     ow 1945   3.337   5.555   0.531 -0.3075 -0.1206  0.4780
  487SOL     hw 1946   3.318   5.633   0.478 -1.4653 -0.1183  0.8703
  487SOL     hw 1947   3.348   5.588   0.620 -0.4606 -0.3623  0.5884
  487SOL     vw 1948   3.336   5.570   0.536 -0.4804 -0.1523  0.5444
  488SOL     ow 1949   0.027   3.853   7.203 -0.0896 -0.0157  0.2510
  488SOL     hw 1950   0.090   3.855   7.276  0.2872 -1.0383 -0.0277
  488SOL     hw 1951  -0.044   3.797   7.235  0.7918 -1.7553 -0.6941
  488SOL     vw 1952   0.026   3.846   7.217  0.0765 -0.3802  0.0896
  489SOL     ow 1953   6.272   3.872   0.191 -0.2341  0.2707  0.1681
  489SOL     hw 1954   6.228   3.789   0.211 -0.0498 -0.2989 -1.6729
  489SOL     hw 1955   6.219   3.911   0.123  0.7612  0.7424 -0.3528
  489SOL     vw 1956   6.259   3.866   0.185 -0.0782  0.2578 -0.1435
  490SOL     ow 1957   2.987   4.570   2.799 -0.1896  0.0209 -0.7239
  490SOL     hw 1958   3.054   4.510   2.766  2.1739  1.5860  0.8862
  490SOL     hw 1959   2.905   4.520   2.794  1.6895 -3.6720  1.1892
  490SOL     vw 1960   2.985   4.555   2.794  0.3700 -0.2596 -0.2590
  491SOL     ow 1961   1.587   0.865   1.442  0.2609  0.0451 -0.2205
  491SOL     hw 1962   1.551   0.937   1.390 -1.3701  0.2928  1.1274
  491SOL     hw 1963   1.545   0.787   1.406  2.6346 -0.4319 -2.2097
  491SOL     vw 1964   1.576   0.864   1.431  0.3588  0.0148 -0.3052
  492SOL     ow 1965   2.573   5.290   2.987  0.0011 -0.3685  0.3962
  492SOL     hw 1966   2.653   5.319   3.032  0.2216 -0.6516  0.1895
  492SOL     hw 1967   2.503   5.343   3.027  0.5886  1.6395 -1.0773
  492SOL     vw 1968   2.574   5.301   2.999  0.1075 -0.1411  0.1745
  493SOL     ow 1969   1.490   1.238   5.732 -0.4701 -0.0667  0.0302
  493SOL     hw 1970   1.468   1.151   5.699 -0.9039 -0.0188  0.1874
  493SOL     hw 1971   1.540   1.222   5.812 -2.3499 -0.1854  1.2439
  493SOL     vw 1972   1.494   1.224   5.738 -0.7753 -0.0760  0.2110
  494SOL     ow 1973   6.171   1.069   1.728 -0.2821 -0.7316  0.0184
  494SOL     hw 1974   6.229   0.993   1.733  0.1013 -0.4066  0.6374
  494SOL     hw 1975   6.164   1.100   1.819  0.6108  0.7401 -0.3708
  494SOL     vw 1976   6.178   1.063   1.741 -0.1137 -0.4945  0.0488
  495SOL     ow 1977   2.973   6.620   6.945  0.0568  0.2448 -0.2770
  495SOL     hw 1978   2.924   6.657   6.871 -0.5888  1.0385  0.5174
  495SOL     hw 1979   2.929   6.537   6.964 -0.2407  0.3901 -0.3224
  495SOL     vw 1980   2.961   6.614   6.937 -0.0677  0.3686 -0.1783
  496SOL     ow 1981   0.019   3.328   4.767 -0.3900  0.0718  0.0604
  496SOL     hw 1982  -0.036   3.286   4.832 -0.0572  0.8996  0.8852
  496SOL     hw 1983   0.013   3.270   4.690 -2.3451  0.1208  0.1360
  496SOL     vw 1984   0.011   3.315   4.765 -0.6039  0.1874  0.1793
  497SOL     ow 1985   0.320   5.374   1.822  0.0604 -0.1184 -0.6643
  497SOL     hw 1986   0.271   5.430   1.761  1.7549  1.8896 -0.2600
  497SOL     hw 1987   0.388   5.431   1.858  0.3869 -1.8201  1.5846
  497SOL     vw 1988   0.322   5.389   1.819  0.3270 -0.0782 -0.3143
  498SOL     ow 1989   1.745   0.631   5.764 -0.3746 -0.1309  0.4935
  498SOL     hw 1990   1.784   0.617   5.851  0.0810 -1.4292  0.1023
  498SOL     hw 1991   1.728   0.725   5.760 -0.9270 -0.1210  2.2109
  498SOL     vw 1992   1.748   0.642   5.775 -0.3874 -0.3009  0.6688
  499SOL     ow 1993   4.718   4.829   0.650 -0.2849 -0.3364  0.0171
  499SOL     hw 1994   4.639   4.869   0.686 -0.6958  0.2839 -1.4857
  499SOL     hw 1995   4.698   4.735   0.645 -0.3391 -0.3874  1.0363
  499SOL     vw 1996   4.705   4.822   0.654 -0.3462 -0.2611 -0.0467
  500SOL     ow 1997   0.778   4.660   6.795  1.1544  0.3762 -0.7999
  500SOL     hw 1998   0.809   4.705   6.873  0.8091 -1.0080  0.1658
  500SOL     hw 1999   0.730   4.585   6.828 -0.0480  0.4222 -2.3363
  500SOL     vw 2000   0.776   4.656   6.809  0.9502  0.1996 -0.8752
  501SOL     ow 2001   6.121   5.941   4.452  0.2621  0.3831 -0.0868
  501SOL     hw 2002   6.207   5.959   4.414  0.6718 -1.9115 -0.4173
  501SOL     hw 2003   6.092   5.861   4.409 -0.5914 -0.6821  2.2714
  501SOL     vw 2004   6.129   5.933   4.441  0.2034 -0.0598  0.1807
  502SOL     ow 2005   2.796   4.905   2.727 -0.0808 -0.1075 -0.0275
  502SOL     hw 2006   2.734   4.978   2.731 -0.0855 -0.1558  1.0988
  502SOL     hw 2007   2.759   4.845   2.662  0.3934  1.2990 -1.6478
  502SOL     vw 2008   2.783   4.907   2.719 -0.0188  0.0718 -0.0925
  503SOL     ow 2009   3.886   3.809   3.852 -0.3907  0.3896 -0.0829
  503SOL     hw 2010   3.881   3.891   3.802  0.2281  0.5208  0.0674
  503SOL     hw 2011   3.938   3.751   3.797 -0.0443  0.4040  0.2272
  503SOL     vw 2012   3.892   3.812   3.838 -0.2633  0.4088 -0.0222
  504SOL     ow 2013   5.090   3.448   1.136 -0.4302  0.5087 -0.4976
  504SOL     hw 2014   5.154   3.426   1.204 -1.5659 -0.3737  0.3188
  504SOL     hw 2015   5.038   3.519   1.175 -2.4281 -1.3743  0.4802
  504SOL     vw 2016   5.092   3.455   1.150 -0.8438  0.1439 -0.2609
  505SOL     ow 2017   6.907   4.375   3.050 -0.2129  0.2679 -0.2428
  505SOL     hw 2018   6.813   4.387   3.065  0.1637  1.7505  1.1814
  505SOL     hw 2019   6.929   4.297   3.102 -0.3200  1.0275  0.9670
  505SOL     vw 2020   6.898   4.366   3.059 -0.1771  0.5639  0.1048
  506SOL     ow 2021   0.045   2.922   5.361 -0.0872  0.1401 -0.0194
  506SOL     hw 2022  -0.033   2.871   5.339  1.3628 -1.9067 -0.6772
  506SOL     hw 2023   0.052   2.915   5.457 -0.8574  0.6231  0.0834
  506SOL     vw 2024   0.036   2.914   5.371  0.0026 -0.0663 -0.0927
  507SOL     ow 2025   2.346   4.732   3.539 -0.5935 -0.0406 -0.2744
  507SOL     hw 2026   2.349   4.642   3.572 -2.0624 -0.3764 -0.9734
  507SOL     hw 2027   2.434   4.747   3.505  0.0265 -0.7803  0.9184
  507SOL     vw 2028   2.358   4.722   3.539 -0.7055 -0.1826 -0.2093
  508SOL     ow 2029   0.974   1.586   6.853  0.2463 -0.2412 -0.0406
  508SOL     hw 2030   0.973   1.503   6.901  0.9962 -1.0318 -1.3471
  508SOL     hw 2031   1.064   1.617   6.861  0.8635 -1.2583 -2.3305
  508SOL     vw 2032   0.986   1.579   6.861  0.4267 -0.4796 -0.5152
  509SOL     ow 2033   5.008   4.753   5.846  0.7081  0.2205  0.1355
  509SOL     hw 2034   5.050   4.809   5.910 -0.2380  1.6341 -0.4363
  509SOL     hw 2035   4.954   4.812   5.794  0.6536 -1.0348 -1.3073
  509SOL     vw 2036   5.007   4.768   5.847  0.5760  0.2413 -0.1302
  510SOL     ow 2037   1.774   2.468   5.888  0.8131 -1.5588 -0.1133
  510SOL     hw 2038   1.866   2.477   5.862  1.0279  0.5987  1.1032
  510SOL     hw 2039   1.724   2.500   5.813  1.1178 -1.4075 -0.2510
  510SOL     vw 2040   1.779   2.474   5.875  0.8817 -1.2542  0.0291
  511SOL     ow 2041   1.047   6.317   2.320 -0.0566 -0.3285  0.8419
  511SOL     hw 2042   1.022   6.406   2.295 -2.0131 -0.7732  1.0819
  511SOL     hw 2043   1.013   6.261   2.250  0.2541 -0.9835  1.1991
  511SOL     vw 2044   1.040   6.321   2.308 -0.2738 -0.4735  0.9207
  512SOL     ow 2045   2.596   0.620   1.474  0.2415 -0.2098 -0.3221
  512SOL     hw 2046   2.666   0.672   1.512  2.3035 -4.0430  1.6801
  512SOL     hw 2047   2.636   0.580   1.396 -0.4422 -0.7651 -0.3968
  512SOL     vw 2048   2.610   0.621   1.469  0.4233 -0.7888 -0.0678
  513SOL     ow 2049   7.167   2.190   6.145 -0.2464  0.4431 -0.5091
  513SOL     hw 2050   7.101   2.230   6.087 -1.4056  2.1664  1.8339
  513SOL     hw 2051   7.121   2.176   6.227  0.8820 -3.4967 -0.3545
  513SOL     vw 2052   7.152   2.194   6.148 -0.2506  0.1507 -0.1798
  514SOL     ow 2053   0.849   3.312   2.558  0.6305  0.4141  0.6788
  514SOL     hw 2054   0.815   3.398   2.584 -0.2344  0.1531  0.4507
  514SOL     hw 2055   0.782   3.250   2.587  0.6271 -0.0714 -0.3240
  514SOL     vw 2056   0.836   3.315   2.565  0.5159  0.3157  0.5164
  515SOL     ow 2057   0.188   3.495   3.427  0.4054 -0.2168 -0.2438
  515SOL     hw 2058   0.115   3.557   3.418  0.0217 -0.6922 -0.5068
  515SOL     hw 2059   0.158   3.416   3.381  1.5982  0.0039 -1.4588
  515SOL     vw 2060   0.174   3.492   3.419  0.5122 -0.2505 -0.4389
  516SOL     ow 2061   7.160   1.796   7.181 -0.7124  0.3233  0.3708
  516SOL     hw 2062   7.123   1.842   7.106  1.6401  0.9939 -0.4627
  516SOL     hw 2063   7.223   1.858   7.218 -0.4619 -0.7106  1.7685
  516SOL     vw 2064   7.163   1.810   7.176 -0.3691  0.2754  0.4454
  517SOL     ow 2065   2.279   3.619   5.417 -0.7691  0.1480  0.4455
  517SOL     hw 2066   2.205   3.629   5.357 -0.9627 -1.3326  0.4037
  517SOL     hw 2067   2.240   3.591   5.499 -0.3600  0.5660  0.7856
  517SOL     vw 2068   2.264   3.617   5.420 -0.7406  0.0079  0.4847
  518SOL     ow 2069   6.567   4.163   0.218  0.1672  0.3940 -0.2898
  518SOL     hw 2070   6.487   4.214   0.232  1.0712  2.3080 -1.7022
  518SOL     hw 2071   6.540   4.092   0.160 -0.0969  2.6118 -3.1300
  518SOL     vw 2072   6.553   4.160   0.212  0.2518  0.9391 -0.8509
  519SOL     ow 2073   4.763   4.635   6.006 -0.5307 -0.1306  0.3392
  519SOL     hw 2074   4.722   4.560   6.050 -0.0443 -0.4097  0.3268
  519SOL     hw 2075   4.692   4.696   5.991 -0.9173 -0.5531  0.4362
  519SOL     vw 2076   4.748   4.633   6.010 -0.5176 -0.2232  0.3502
  520SOL     ow 2077   1.456   3.167   1.571 -0.6022 -0.0222 -0.7396
  520SOL     hw 2078   1.489   3.085   1.607  0.5334  0.9806  0.6062
  520SOL     hw 2079   1.458   3.228   1.645 -2.3946  0.9640 -1.4422
  520SOL     vw 2080   1.460   3.164   1.586 -0.6888  0.2402 -0.6547
  521SOL     ow 2081   1.046   0.532   4.770 -0.1303 -0.1452 -0.4822
  521SOL     hw 2082   1.020   0.441   4.754  0.3342 -0.2862 -0.4410
  521SOL     hw 2083   1.032   0.576   4.686  0.1316 -0.3731 -0.6477
  521SOL     vw 2084   1.041   0.526   4.757 -0.0345 -0.1939 -0.4988
  522SOL     ow 2085   0.835   0.598   5.032 -0.3964 -0.0177 -0.1974
  522SOL     hw 2086   0.767   0.580   5.097 -2.5183  1.3535 -1.9046
  522SOL     hw 2087   0.835   0.520   4.976 -1.5268  0.5020 -0.9497
  522SOL     vw 2088   0.826   0.585   5.034 -0.8255  0.2318 -0.5221
  523SOL     ow 2089   5.133   3.815   5.026  0.1683  0.3156 -0.7992
  523SOL     hw 2090   5.066   3.881   5.004 -0.0468  0.2297 -0.4259
  523SOL     hw 2091   5.135   3.757   4.951  1.0110  1.2602 -1.5310
  523SOL     vw 2092   5.124   3.816   5.013  0.2511  0.4288 -0.8464
  524SOL     ow 2093   4.464   2.286   0.889 -0.4973  0.0199 -0.1283
  524SOL     hw 2094   4.408   2.332   0.827 -0.0893  1.7339  0.7169
  524SOL     hw 2095   4.413   2.283   0.970  0.4927  1.4706  0.6096
  524SOL     vw 2096   4.450   2.292   0.892 -0.3130  0.4375  0.0806
  525SOL     ow 2097   5.677   6.275   6.239  0.2458  0.0705  0.4617
  525SOL     hw 2098   5.716   6.285   6.326  1.8729  0.9934 -0.3299
  525SOL     hw 2099   5.603   6.335   6.239  0.5835  0.4964  1.0195
  525SOL     vw 2100   5.673   6.284   6.250  0.5050  0.2484  0.4308
  526SOL     ow 2101   1.012   5.748   2.441  0.0672 -0.4946 -0.7862
  526SOL     hw 2102   0.966   5.750   2.357 -0.7180 -0.7842 -0.3647
  526SOL     hw 2103   0.944   5.731   2.506  0.4612  0.9574  0.0526
  526SOL     vw 2104   0.997   5.746   2.439  0.0156 -0.3414 -0.6199
  527SOL     ow 2105   5.281   4.802   6.741 -0.2266  0.5657  0.5283
  527SOL     hw 2106   5.301   4.863   6.670 -2.2543  0.2749 -0.3636
  527SOL     hw 2107   5.280   4.716   6.699  1.6490 -0.0209  1.5805
  527SOL     vw 2108   5.284   4.799   6.726 -0.2468  0.4499  0.5498
  528SOL     ow 2109   5.757   1.570   5.215 -0.2476 -0.3000  0.4669
  528SOL     hw 2110   5.713   1.610   5.290 -1.9395  1.3713 -1.3455
  528SOL     hw 2111   5.805   1.641   5.174 -0.8970 -0.7504 -1.1293
  528SOL     vw 2112   5.758   1.584   5.220 -0.5562 -0.1389  0.0172
  529SOL     ow 2113   6.081   1.825   4.620  0.2519  0.8873  0.3032
  529SOL     hw 2114   6.037   1.741   4.613 -1.1754  1.6242 -0.0316
  529SOL     hw 2115   6.093   1.838   4.714 -1.1160  1.0634  0.4750
  529SOL     vw 2116   6.077   1.816   4.632 -0.1171  1.0077  0.2818
  530SOL     ow 2117   3.330   5.064   3.754 -1.0164 -0.7406 -0.6689
  530SOL     hw 2118   3.249   5.013   3.762 -3.0085  2.3955  1.9657
  530SOL     hw 2119   3.323   5.129   3.823  3.6973 -0.0389 -0.5843
  530SOL     vw 2120   3.318   5.066   3.764 -0.6573 -0.2341 -0.3101
  531SOL     ow 2121   3.660   2.995   2.125  0.3529  0.3839 -0.2710
  531SOL     hw 2122   3.695   2.906   2.118  1.9788  1.0054 -0.4562
  531SOL     hw 2123   3.734   3.048   2.156 -1.1994  1.2845  2.2365
  531SOL     vw 2124   3.674   2.990   2.128  0.3625  0.5847  0.0354
  532SOL     ow 2125   4.799   5.758   5.657  0.1976 -0.2184 -0.0776
  532SOL     hw 2126   4.762   5.746   5.745  1.3057 -0.6546  0.3423
  532SOL     hw 2127   4.826   5.850   5.655  0.8778 -0.4099  0.3150
  532SOL     vw 2128   4.797   5.769   5.668  0.4332 -0.3011  0.0293
  533SOL     ow 2129   6.083   2.922   0.397  0.7529  0.0130  0.0732
  533SOL     hw 2130   6.145   2.993   0.416  1.5392 -0.4207 -0.7700
  533SOL     hw 2131   6.055   2.939   0.307  1.6657 -1.2282 -0.4803
  533SOL     vw 2132   6.088   2.934   0.388  0.9770 -0.2080 -0.1110
  534SOL     ow 2133   2.182   7.117   1.810 -0.1032 -0.3220  0.4121
  534SOL     hw 2134   2.110   7.180   1.814  1.2554  1.3512 -0.4763
  534SOL     hw 2135   2.153   7.051   1.747 -0.3942  0.9905 -0.8659
  534SOL     vw 2136   2.169   7.116   1.802  0.0377  0.0718  0.1263
  535SOL     ow 2137   3.721   7.070   4.973  0.5602  0.2895  0.0066
  535SOL     hw 2138   3.754   7.009   5.039 -0.4694  0.0162  0.2841
  535SOL     hw 2139   3.661   7.017   4.920 -0.8537  1.2002  0.6491
  535SOL     vw 2140   3.718   7.055   4.974  0.2377  0.3736  0.1280
  536SOL     ow 2141   0.008   5.203   5.653 -0.1366  0.3656 -0.7738
  536SOL     hw 2142   0.016   5.110   5.677  0.7487  0.3036 -1.2666
  536SOL     hw 2143   0.096   5.228   5.625 -0.1712  1.5963  0.1655
  536SOL     vw 2144   0.021   5.194   5.652 -0.0243  0.5200 -0.7150
  537SOL     ow 2145   2.393   1.889   0.745  0.1876 -0.1456  0.7972
  537SOL     hw 2146   2.437   1.882   0.830 -0.9256  1.0112  1.5071
  537SOL     hw 2147   2.392   1.982   0.726  1.6885 -0.4648 -1.2350
  537SOL     vw 2148   2.399   1.900   0.754  0.2387 -0.0351  0.6227
  538SOL     ow 2149   3.205   4.338   3.485 -0.0382  0.4758 -0.3808
  538SOL     hw 2150   3.291   4.345   3.443  0.6908 -1.5125  0.6612
  538SOL     hw 2151   3.201   4.412   3.544  0.1144  1.6907 -1.8272
  538SOL     vw 2152   3.216   4.348   3.487  0.0781  0.3736 -0.4340
  539SOL     ow 2153   4.222   5.369   6.609  0.4376 -0.4114  0.8714
  539SOL     hw 2154   4.299   5.424   6.614  0.1271  0.0083  1.1398
  539SOL     hw 2155   4.154   5.418   6.656 -0.9661  0.8148 -2.1757
  539SOL     vw 2156   4.223   5.382   6.616  0.2112 -0.1943  0.5050
  540SOL     ow 2157   1.160   5.520   2.450 -0.1946 -0.2038 -0.0107
  540SOL     hw 2158   1.103   5.595   2.469 -1.4782 -1.1006 -0.1523
  540SOL     hw 2159   1.099   5.450   2.424  0.9472 -1.3572  0.3073
  540SOL     vw 2160   1.144   5.520   2.449 -0.2134 -0.4745  0.0125
  541SOL     ow 2161   4.628   6.104   1.051 -0.0549 -0.1372 -0.2074
  541SOL     hw 2162   4.547   6.155   1.060 -0.4566 -0.5857 -1.0973
  541SOL     hw 2163   4.598   6.018   1.022  0.8074  0.1062 -1.9646
  541SOL     vw 2164   4.613   6.099   1.048  0.0060 -0.1643 -0.5567
  542SOL     ow 2165   6.619   7.033   3.148  0.4549  0.0080  0.1476
  542SOL     hw 2166   6.653   7.030   3.237 -0.6969 -0.2924  0.6004
  542SOL     hw 2167   6.694   7.013   3.093  0.8869 -1.2667  1.1390
  542SOL     vw 2168   6.633   7.030   3.153  0.3603 -0.1998  0.3382
  543SOL     ow 2169   5.846   6.283   0.587 -0.6644  0.6378 -0.7054
  543SOL     hw 2170   5.907   6.230   0.638 -0.7151 -0.8761 -2.1493
  543SOL     hw 2171   5.899   6.320   0.517 -0.7966  1.9179 -0.1639
  543SOL     vw 2172   5.861   6.281   0.585 -0.6883  0.6068 -0.8245
  544SOL     ow 2173   2.314   5.066   0.023 -0.0365 -0.2127 -0.5079
  544SOL     hw 2174   2.269   5.012  -0.042  0.0819 -1.3267  0.3216
  544SOL     hw 2175   2.244   5.107   0.073 -0.3727 -3.9731  2.5216
  544SOL     vw 2176   2.299   5.064   0.021 -0.0652 -0.8559  0.0013
  545SOL     ow 2177   1.875   3.974   4.386 -0.2291 -0.2112 -0.6725
  545SOL     hw 2178   1.849   4.049   4.439  1.6264  0.2448 -0.3467
  545SOL     hw 2179   1.812   3.905   4.410  0.8686 -0.2424  2.6961
  545SOL     vw 2180   1.863   3.975   4.396  0.1606 -0.1551 -0.1848
  546SOL     ow 2181   0.645   4.866   1.380 -0.7062  0.3663  0.1134
  546SOL     hw 2182   0.656   4.959   1.358  0.1302  0.4648  0.8910
  546SOL     hw 2183   0.595   4.830   1.307 -2.0794  1.6774  0.3469
  546SOL     vw 2184   0.640   4.874   1.367 -0.7770  0.5524  0.2468
  547SOL     ow 2185   6.049   4.904   3.287 -0.3954 -0.5398  0.2394
  547SOL     hw 2186   6.023   4.837   3.225  0.3718 -0.1218 -0.5537
  547SOL     hw 2187   5.970   4.923   3.337 -1.1682 -0.4901 -0.9799
  547SOL     vw 2188   6.035   4.898   3.286 -0.3958 -0.4783 -0.0262
  548SOL     ow 2189   2.153   6.699   3.574  0.0881  0.0859 -0.0116
  548SOL     hw 2190   2.184   6.689   3.664 -0.0912  1.9753  0.3061
  548SOL     hw 2191   2.231   6.686   3.520  0.1795 -1.1555  0.3892
  548SOL     vw 2192   2.167   6.696   3.579  0.0765  0.1714  0.0833
  549SOL     ow 2193   3.022   1.858   2.793  0.5810  0.2124  0.0119
  549SOL     hw 2194   3.055   1.769   2.799 -0.3804 -0.0753  1.3064
  549SOL     hw 2195   3.067   1.895   2.716  2.2935 -0.8100  0.4636
  549SOL     vw 2196   3.033   1.851   2.783  0.6801  0.0395  0.2425
  550SOL     ow 2197   6.600   2.194   6.194  0.2320 -0.1480 -0.6155
  550SOL     hw 2198   6.556   2.121   6.237 -0.5108  0.5393 -0.1894
  550SOL     hw 2199   6.674   2.215   6.251 -0.7195  0.7271  0.3315
  550SOL     vw 2200   6.604   2.187   6.207  0.0083  0.0582 -0.4344
  551SOL     ow 2201   5.342   0.288   2.832  0.4104  0.1340 -0.1222
  551SOL     hw 2202   5.257   0.326   2.853  0.4341  0.9547 -1.3769
  551SOL     hw 2203   5.356   0.221   2.899 -1.6054 -0.6340 -0.3964
  551SOL     vw 2204   5.333   0.284   2.844  0.1476  0.1409 -0.3239
  552SOL     ow 2205   6.639   1.965   1.478  0.7402 -0.0620 -0.3520
  552SOL     hw 2206   6.732   1.971   1.458  0.4819 -0.6848 -1.9151
  552SOL     hw 2207   6.635   1.938   1.570  2.1011 -0.2016 -0.3224
  552SOL     vw 2208   6.651   1.962   1.487  0.8857 -0.1626 -0.5543
  553SOL     ow 2209   6.851   4.160   4.921 -0.2587  0.2942 -0.0024
  553SOL     hw 2210   6.806   4.123   4.845  0.0144 -0.6376  0.2777
  553SOL     hw 2211   6.828   4.102   4.993  2.5968 -1.1708 -0.1388
  553SOL     vw 2212   6.842   4.148   4.920  0.1543 -0.0219  0.0167
  554SOL     ow 2213   2.749   4.612   0.789 -0.1645  0.6079  0.7993
  554SOL     hw 2214   2.840   4.634   0.772  0.1409 -0.9746  0.1604
  554SOL     hw 2215   2.705   4.625   0.706  0.4131 -2.7537 -0.2026
  554SOL     vw 2216   2.755   4.616   0.776 -0.0480 -0.0446  0.5828
  555SOL     ow 2217   0.987   0.690   4.009  0.1198  0.1373 -0.0176
  555SOL     hw 2218   1.054   0.755   4.032 -1.9388  1.7732  1.9079
  555SOL     hw 2219   0.939   0.730   3.936  0.8571 -0.7731 -1.0225
  555SOL     vw 2220   0.989   0.704   4.003 -0.0545  0.2330  0.1040
  556SOL     ow 2221   1.918   3.597   3.934  0.5528  0.0882 -0.5307
  556SOL     hw 2222   2.008   3.564   3.935  0.9423  1.0849  1.1775
  556SOL     hw 2223   1.882   3.565   3.851  2.2345 -0.9547 -0.9123
  556SOL     vw 2224   1.925   3.589   3.923  0.8261  0.0821 -0.3557
  557SOL     ow 2225   0.586   4.061   6.887  0.2187 -0.2617  0.7449
  557SOL     hw 2226   0.616   4.071   6.978  0.3767  1.2273  0.5485
  557SOL     hw 2227   0.665   4.035   6.839  0.5524  0.6860  0.7522
  557SOL     vw 2228   0.601   4.059   6.893  0.2835  0.0596  0.7200
  558SOL     ow 2229   1.668   0.213   6.201  0.4359 -0.5717  0.3090
  558SOL     hw 2230   1.635   0.205   6.112 -0.0089  2.2905  0.1358
  558SOL     hw 2231   1.757   0.179   6.197 -0.0857 -1.9211 -0.8108
  558SOL     vw 2232   1.675   0.207   6.189  0.3084 -0.3721  0.1385
  559SOL     ow 2233   4.791   0.708   3.733  0.0939 -1.2101  0.0398
  559SOL     hw 2234   4.827   0.788   3.770 -1.5613  0.2904 -1.3896
  559SOL     hw 2235   4.858   0.641   3.747  1.3198  0.3104  1.6795
  559SOL     vw 2236   4.804   0.709   3.740  0.0372 -0.8115  0.0676
  560SOL     ow 2237   5.700   1.993   1.009  0.7360  0.1545 -0.2092
  560SOL     hw 2238   5.706   1.952   0.923 -2.8355  2.6113 -1.8472
  560SOL     hw 2239   5.774   2.053   1.013  1.1555 -0.2713 -1.3846
  560SOL     vw 2240   5.711   1.995   0.998  0.3202  0.4225 -0.5804
  561SOL     ow 2241   3.128   4.462   2.583 -0.2954 -0.1476  0.5090
  561SOL     hw 2242   3.152   4.413   2.505 -1.9823  1.4744 -1.1293
  561SOL     hw 2243   3.191   4.534   2.587  0.8925 -1.1905  1.7342
  561SOL     vw 2244   3.140   4.465   2.573 -0.3611 -0.0713  0.4545
  562SOL     ow 2245   0.327   1.267   0.896 -0.3848  0.2556 -0.5033
  562SOL     hw 2246   0.407   1.241   0.943 -0.7953  1.1923  0.7831
  562SOL     hw 2247   0.256   1.247   0.958 -1.0291  0.6740 -1.0994
  562SOL     vw 2248   0.328   1.261   0.911 -0.5240  0.4344 -0.4122
  563SOL     ow 2249   3.265   2.933   1.423  0.0126 -0.5087  0.1230
  563SOL     hw 2250   3.256   2.926   1.518 -0.5498  0.0553  0.1134
  563SOL     hw 2251   3.254   2.843   1.392 -1.1114 -0.5123  0.4942
  563SOL     vw 2252   3.262   2.920   1.432 -0.2097 -0.4348  0.1707
  564SOL     ow 2253   6.570   0.394   1.014 -0.2070  0.5970  0.6717
  564SOL     hw 2254   6.548   0.317   1.066 -0.2680 -1.3743 -1.9991
  564SOL     hw 2255   6.665   0.401   1.019 -0.1892  0.2444  0.8256
  564SOL     vw 2256   6.580   0.385   1.021 -0.2127  0.2904  0.3396
  565SOL     ow 2257   5.836   3.067   3.435  0.1210  0.0641 -0.3758
  565SOL     hw 2258   5.910   3.105   3.388  0.6479  0.5244  0.7889
  565SOL     hw 2259   5.869   2.984   3.469 -1.3325 -2.1158 -3.8007
  565SOL     vw 2260   5.850   3.061   3.434 -0.0012 -0.1630 -0.6740
  566SOL     ow 2261   1.880   0.998   3.279 -0.0448  0.1308 -0.8862
  566SOL     hw 2262   1.926   0.958   3.205 -1.5017 -1.5746 -0.9582
  566SOL     hw 2263   1.794   1.020   3.243 -0.7507 -0.6749  0.2506
  566SOL     vw 2264   1.875   0.995   3.264 -0.3302 -0.2005 -0.7455
  567SOL     ow 2265   0.232   2.779   5.117 -0.0644 -1.0981  0.0623
  567SOL     hw 2266   0.210   2.871   5.129 -1.3173 -1.5511  1.4379
  567SOL     hw 2267   0.325   2.780   5.092  0.5048  0.4276  2.0234
  567SOL     vw 2268   0.242   2.791   5.115 -0.1546 -0.9568  0.5026
  568SOL     ow 2269   6.308   0.383   4.733  0.6229  0.4314 -0.2867
  568SOL     hw 2270   6.276   0.296   4.711  3.1156 -0.3484 -1.1797
  568SOL     hw 2271   6.235   0.425   4.777 -0.6224 -2.1474  0.2911
  568SOL     vw 2272   6.295   0.377   4.736  0.7873 -0.0118 -0.3285
  569SOL     ow 2273   1.515   6.597   2.274  0.3334 -0.4790 -0.3546
  569SOL     hw 2274   1.608   6.615   2.289  0.1341  0.9064 -0.6583
  569SOL     hw 2275   1.486   6.668   2.216 -0.8871 -0.9656 -0.3669
  569SOL     vw 2276   1.523   6.609   2.268  0.1462 -0.3605 -0.3964
  570SOL     ow 2277   0.930   5.332   0.301 -0.0934 -0.5716 -0.0815
  570SOL     hw 2278   1.010   5.385   0.296 -0.1412 -0.1689  2.3182
  570SOL     hw 2279   0.925   5.288   0.216  2.7728 -0.7642 -0.2274
  570SOL     vw 2280   0.940   5.333   0.289  0.2785 -0.5438  0.2159
  571SOL     ow 2281   5.054   4.768   2.517 -0.0634 -0.1026 -0.0719
  571SOL     hw 2282   5.146   4.758   2.545 -0.6777  0.3511  2.3534
  571SOL     hw 2283   5.027   4.680   2.493  0.9536 -0.2648 -0.6988
  571SOL     vw 2284   5.063   4.755   2.518 -0.0103 -0.0641  0.1655
  572SOL     ow 2285   6.639   2.499   2.511 -0.4617 -0.2822 -0.2181
  572SOL     hw 2286   6.562   2.533   2.557 -1.2901 -1.2681 -0.8462
  572SOL     hw 2287   6.676   2.576   2.468 -3.0005 -0.2534 -2.6155
  572SOL     vw 2288   6.634   2.514   2.511 -0.9060 -0.4085 -0.6174
  573SOL     ow 2289   0.357   4.828   0.275 -0.1422 -0.3724  0.6392
  573SOL     hw 2290   0.383   4.739   0.250  1.6853 -0.0810  1.2885
  573SOL     hw 2291   0.380   4.882   0.200  0.2085 -0.2467  0.8336
  573SOL     vw 2292   0.364   4.824   0.262  0.1452 -0.3171  0.7505
  574SOL     ow 2293   5.489   6.214   4.113  0.1121 -0.8640  0.5708
  574SOL     hw 2294   5.501   6.286   4.174 -0.6588 -2.2225  2.4083
  574SOL     hw 2295   5.549   6.233   4.041  1.6056  0.4346  2.0928
  574SOL     vw 2296   5.499   6.226   4.111  0.2074 -0.8719  1.0140
  575SOL     ow 2297   5.537   2.197   0.952  0.1740 -0.2851 -0.6364
  575SOL     hw 2298   5.509   2.190   0.860 -0.1104 -1.6732 -0.4712
  575SOL     hw 2299   5.589   2.118   0.967 -0.3577 -0.4279  0.5806
  575SOL     vw 2300   5.540   2.185   0.942  0.0665 -0.4872 -0.4540
  576SOL     ow 2301   4.011   3.752   7.056  0.3163  0.5718  0.1500
  576SOL     hw 2302   3.974   3.821   7.111  0.2528  0.7959 -0.1708
  576SOL     hw 2303   4.026   3.679   7.116 -1.4293  0.1630  0.1678
  576SOL     vw 2304   4.008   3.751   7.071  0.0772  0.5476  0.1101
  577SOL     ow 2305   0.115   6.779   3.492 -0.3337  0.5501 -0.1596
  577SOL     hw 2306   0.210   6.785   3.499 -0.1325 -0.1857 -1.7951
  577SOL     hw 2307   0.088   6.728   3.568  0.5416  0.9969  0.4676
  577SOL     vw 2308   0.124   6.773   3.503 -0.1917  0.5119 -0.2928
  578SOL     ow 2309   6.438   6.644   6.769 -0.2348 -0.6015 -0.6227
  578SOL     hw 2310   6.422   6.736   6.791 -0.5951 -0.7261 -0.3506
  578SOL     hw 2311   6.533   6.634   6.771 -0.1619 -0.0939 -1.2204
  578SOL     vw 2312   6.448   6.655   6.772 -0.2728 -0.5510 -0.6659
  579SOL     ow 2313   2.597   0.781   5.749 -0.2881  0.1474 -0.6017
  579SOL     hw 2314   2.688   0.762   5.727 -0.5898 -0.9753 -0.9850
  579SOL     hw 2315   2.547   0.740   5.678 -1.0620  1.4682 -0.8455
  579SOL     vw 2316   2.602   0.773   5.737 -0.4300  0.1735 -0.6843
  580SOL     ow 2317   6.306   6.584   2.629 -0.4395 -0.1698 -0.2073
  580SOL     hw 2318   6.234   6.604   2.569  0.3384 -0.9769 -1.4484
  580SOL     hw 2319   6.371   6.652   2.612 -0.0073 -0.6832 -0.6765
  580SOL     vw 2320   6.305   6.595   2.619 -0.2797 -0.3440 -0.4328
  581SOL     ow 2321   0.034   6.351   1.922  0.5469 -0.0676 -0.0425
  581SOL     hw 2322  -0.059   6.332   1.908  0.8824 -1.6467 -0.2849
  581SOL     hw 2323   0.044   6.350   2.017  0.4811 -0.8142 -0.0370
  581SOL     vw 2324   0.023   6.348   1.933  0.5824 -0.3746 -0.0737
  582SOL     ow 2325   2.236   2.666   5.268 -0.1857  0.3032  0.8002
  582SOL     hw 2326   2.311   2.664   5.327  0.0733  1.3429  0.5344
  582SOL     hw 2327   2.223   2.575   5.242  0.3476 -0.0246  1.6381
  582SOL     vw 2328   2.244   2.654   5.272 -0.0812  0.3972  0.8757
  583SOL     ow 2329   6.777   1.466   0.299 -0.2414 -0.2855 -0.5217
  583SOL     hw 2330   6.856   1.413   0.313 -1.4835 -2.3072 -0.8203
  583SOL     hw 2331   6.809   1.545   0.257  1.9479  0.1091  1.6180
  583SOL     vw 2332   6.792   1.469   0.296 -0.1161 -0.5001 -0.2787
  584SOL     ow 2333   5.490   6.748   1.928 -0.2108 -0.2751  0.1839
  584SOL     hw 2334   5.456   6.831   1.960  2.8112  1.1783 -0.0369
  584SOL     hw 2335   5.495   6.692   2.005  2.2157  1.4523  1.3935
  584SOL     vw 2336   5.486   6.751   1.942  0.5081  0.1445  0.3144
  585SOL     ow 2337   1.655   1.319   7.073  0.3862  0.4601  0.4333
  585SOL     hw 2338   1.575   1.340   7.025 -0.0004  0.3215  1.0119
  585SOL     hw 2339   1.625   1.281   7.155  1.0590 -0.3173  0.3322
  585SOL     vw 2340   1.641   1.317   7.077  0.4239  0.3392  0.4961
  586SOL     ow 2341   7.045   3.990   0.471 -0.0744  0.2268 -0.2781
  586SOL     hw 2342   7.046   4.077   0.510  0.6242  0.6315 -1.1714
  586SOL     hw 2343   7.019   3.932   0.543  0.0287  1.0878  0.4751
  586SOL     vw 2344   7.041   3.994   0.486  0.0312  0.3940 -0.2966
  587SOL     ow 2345   5.624   5.013   1.685 -0.1384  0.0309  0.7023
  587SOL     hw 2346   5.599   5.012   1.777  1.6015 -0.7710  1.2139
  587SOL     hw 2347   5.613   4.922   1.656  4.0049 -0.9812  1.5974
  587SOL     vw 2348   5.619   5.001   1.693  0.6378 -0.2084  0.8879
  588SOL     ow 2349   7.136   1.038   1.730 -0.7163 -0.2501 -0.2125
  588SOL     hw 2350   7.070   0.976   1.760 -1.9013  0.5678 -1.0307
  588SOL     hw 2351   7.183   0.992   1.660  1.6837 -1.9556  2.3239
  588SOL     vw 2352   7.133   1.024   1.725 -0.5562 -0.3672  0.0142
  589SOL     ow 2353   4.139   5.716   7.035  0.2545 -0.9802 -0.3973
  589SOL     hw 2354   4.162   5.623   7.039 -1.3726 -1.3764  0.4310
  589SOL     hw 2355   4.178   5.747   6.953  2.7708 -1.8102  0.3852
  589SOL     vw 2356   4.147   5.708   7.025  0.3715 -1.1420 -0.1845
  590SOL     ow 2357   1.239   7.243   1.112  0.2229  0.3101 -0.3330
  590SOL     hw 2358   1.170   7.177   1.105  0.4806  0.2023 -2.2117
  590SOL     hw 2359   1.191   7.326   1.116 -0.0421  0.1964 -1.0170
  590SOL     vw 2360   1.223   7.246   1.112  0.2220  0.2809 -0.6712
  591SOL     ow 2361   0.276   5.264   2.078 -0.5816 -0.1954 -0.4475
  591SOL     hw 2362   0.288   5.308   1.994 -1.4029  0.1188 -0.4101
  591SOL     hw 2363   0.181   5.259   2.089 -0.5117  0.8722  1.0246
  591SOL     vw 2364   0.265   5.269   2.068 -0.6807 -0.0131 -0.2484
  592SOL     ow 2365   6.136   1.173   3.138 -0.3782 -0.3914 -0.1212
  592SOL     hw 2366   6.198   1.239   3.107  1.0691 -1.9694 -0.6769
  592SOL     hw 2367   6.078   1.221   3.198  0.9220  1.2679 -0.1376
  592SOL     vw 2368   6.136   1.188   3.142 -0.0157 -0.3806 -0.1966
  593SOL     ow 2369   2.688   3.520   6.596 -0.2803  0.6844  0.7799
  593SOL     hw 2370   2.713   3.561   6.679  2.6154  0.2918  0.2366
  593SOL     hw 2371   2.672   3.594   6.537 -0.1095  0.9988  1.1189
  593SOL     vw 2372   2.689   3.535   6.599  0.1243  0.6740  0.7529
  594SOL     ow 2373   0.759   5.840   4.870 -0.8586  0.4295  0.1845
  594SOL     hw 2374   0.764   5.850   4.775 -1.6170  1.3321  0.2194
  594SOL     hw 2375   0.770   5.747   4.885 -1.1084  0.2237 -0.8191
  594SOL     vw 2376   0.761   5.829   4.859 -0.9916  0.5212  0.0565
  595SOL     ow 2377   5.414   2.816   3.235 -0.3874  0.0114 -0.5146
  595SOL     hw 2378   5.457   2.799   3.152 -1.1547 -3.9160 -0.2779
  595SOL     hw 2379   5.341   2.754   3.238 -2.3324  2.1467  1.7851
  595SOL     vw 2380   5.410   2.806   3.225 -0.7453 -0.2252 -0.1799
  596SOL     ow 2381   0.293   3.627   0.604  0.4860 -0.2033 -0.1615
  596SOL     hw 2382   0.353   3.626   0.680  0.5486 -0.2559 -0.2123
  596SOL     hw 2383   0.326   3.559   0.546 -0.0567 -0.7336  0.1389
  596SOL     vw 2384   0.305   3.618   0.607  0.4227 -0.2803 -0.1286
  597SOL     ow 2385   4.314   4.747   1.806  0.5730  0.2356 -0.0077
  597SOL     hw 2386   4.245   4.812   1.819  1.2880  1.1235 -0.5190
  597SOL     hw 2387   4.350   4.734   1.894 -0.8221 -0.9391  0.4307
  597SOL     vw 2388   4.310   4.754   1.820  0.4835  0.1976 -0.0173
  598SOL     ow 2389   6.716   0.251   7.122 -0.4681  0.0437  0.1157
  598SOL     hw 2390   6.692   0.324   7.065 -2.3447 -0.1743  0.5667
  598SOL     hw 2391   6.775   0.197   7.069 -1.2290  0.4553 -1.1839
  598SOL     vw 2392   6.721   0.254   7.107 -0.8161  0.0693  0.0036
  599SOL     ow 2393   5.475   4.888   5.495 -0.2898  0.2723 -0.5979
  599SOL     hw 2394   5.387   4.852   5.485 -0.3044 -0.8307  2.5380
  599SOL     hw 2395   5.532   4.821   5.458 -0.6430 -0.2146 -0.2769
  599SOL     vw 2396   5.471   4.875   5.489 -0.3381  0.0629 -0.1419
  600SOL     ow 2397   1.413   3.000   0.059 -1.1830  0.9864 -0.6272
  600SOL     hw 2398   1.443   2.916   0.024 -1.2981  0.2422  0.9855
  600SOL     hw 2399   1.357   3.036  -0.010 -0.5580  0.0814 -1.6343
  600SOL     vw 2400   1.410   2.993   0.045 -1.1157  0.7689 -0.5473
  601SOL     ow 2401   3.024   5.338   2.496 -0.3777 -0.3384  0.6513
  601SOL     hw 2402   3.078   5.318   2.420 -0.5316 -1.4311  0.8185
  601SOL     hw 2403   3.087   5.354   2.566 -0.2178  1.2786  0.1748
  601SOL     vw 2404   3.039   5.338   2.495 -0.3769 -0.2694  0.6105
  602SOL     ow 2405   6.320   5.432   3.715 -0.2035 -0.0927  0.6158
  602SOL     hw 2406   6.232   5.403   3.692 -0.3429  0.9738 -0.3176
  602SOL     hw 2407   6.307   5.514   3.764  0.2000 -1.1316  2.5394
  602SOL     vw 2408   6.307   5.439   3.718 -0.1683 -0.0892  0.7465
  603SOL     ow 2409   7.115   3.955   2.530  0.0386  0.3849 -0.3727
  603SOL     hw 2410   7.198   3.914   2.552  0.1655  0.3093 -0.9775
  603SOL     hw 2411   7.065   3.886   2.485 -0.1016  0.6180 -0.5788
  603SOL     vw 2412   7.119   3.941   2.527  0.0370  0.4057 -0.4796
  604SOL     ow 2413   4.184   0.066   3.829 -0.1625  0.0188  0.3421
  604SOL     hw 2414   4.112   0.037   3.773 -0.0013 -2.0062  1.1078
  604SOL     hw 2415   4.215  -0.013   3.872  1.3270  1.1330  1.4514
  604SOL     vw 2416   4.179   0.052   3.827  0.0553 -0.1013  0.5895
  605SOL     ow 2417   1.335   0.859   3.116 -0.5399  0.3238 -0.1228
  605SOL     hw 2418   1.374   0.795   3.176  1.1668  1.1575 -0.2867
  605SOL     hw 2419   1.340   0.942   3.164  1.7164  1.1915 -1.6717
  605SOL     vw 2420   1.341   0.862   3.130 -0.0170  0.5482 -0.3488
  606SOL     ow 2421   5.715   4.359   1.489 -0.3242 -0.3812 -0.6499
  606SOL     hw 2422   5.619   4.357   1.481 -0.5568  0.0875  1.5690
  606SOL     hw 2423   5.736   4.281   1.540  0.4801 -0.4075 -1.0092
  606SOL     vw 2424   5.705   4.348   1.494 -0.2489 -0.3228 -0.4046
  607SOL     ow 2425   1.814   2.319   5.566  0.5979  0.1098  0.0048
  607SOL     hw 2426   1.828   2.255   5.496  2.5678  0.0760  0.3477
  607SOL     hw 2427   1.754   2.383   5.529 -2.5294 -2.5422  0.0854
  607SOL     vw 2428   1.808   2.319   5.552  0.4452 -0.2446  0.0608
  608SOL     ow 2429   4.838   2.328   5.704 -1.1056 -0.0712 -0.7186
  608SOL     hw 2430   4.795   2.388   5.764  0.7872  0.4098  0.2495
  608SOL     hw 2431   4.801   2.242   5.726 -0.4670  0.0798  1.2354
  608SOL     vw 2432   4.827   2.324   5.715 -0.7713  0.0123 -0.3331
  609SOL     ow 2433   5.667   2.105   5.978 -0.5029 -0.3772  0.7781
  609SOL     hw 2434   5.631   2.193   5.969  1.3865  0.2950 -1.1772
  609SOL     hw 2435   5.661   2.068   5.891  0.6717 -1.3714  1.0923
  609SOL     vw 2436   5.662   2.112   5.966 -0.0989 -0.4197  0.5617
  610SOL     ow 2437   2.870   1.707   5.630 -0.2022 -0.4332 -0.8235
  610SOL     hw 2438   2.888   1.773   5.563  1.3572 -0.1560 -0.1575
  610SOL     hw 2439   2.787   1.667   5.602 -0.1455  0.4196 -2.3110
  610SOL     vw 2440   2.861   1.711   5.617  0.0111 -0.2841 -0.9317
  611SOL     ow 2441   1.193   0.613   0.708 -0.5416 -0.4798 -0.6174
  611SOL     hw 2442   1.215   0.635   0.799  0.9534  0.6757 -1.2221
  611SOL     hw 2443   1.098   0.603   0.709 -0.7340  1.0511  0.7849
  611SOL     vw 2444   1.183   0.615   0.720 -0.3697 -0.1253 -0.5122
  612SOL     ow 2445   4.583   0.881   4.181  0.0240  0.4130 -0.4957
  612SOL     hw 2446   4.640   0.929   4.120 -0.1978 -0.0992 -1.1240
  612SOL     hw 2447   4.503   0.864   4.131 -0.8367  1.4157  0.4843
  612SOL     vw 2448   4.580   0.885   4.166 -0.1187  0.4777 -0.4492
  613SOL     ow 2449   3.657   0.461   6.494 -0.2650 -0.7040 -0.0120
  613SOL     hw 2450   3.679   0.388   6.436  0.3198 -0.2181 -0.4209
  613SOL     hw 2451   3.741   0.488   6.531 -0.3721  0.2025 -0.4004
  613SOL     vw 2452   3.671   0.455   6.492 -0.2019 -0.5203 -0.1168
  614SOL     ow 2453   6.157   4.097   5.244 -0.1092  0.5746 -0.0589
  614SOL     hw 2454   6.128   4.117   5.332  1.9113 -1.3302  1.1380
  614SOL     hw 2455   6.189   4.007   5.249  1.4224  0.9077 -2.3671
  614SOL     vw 2456   6.157   4.088   5.256  0.3593  0.3674 -0.2055
  615SOL     ow 2457   0.794   3.090   0.415  0.6682  0.1844 -0.0947
  615SOL     hw 2458   0.716   3.142   0.437 -1.2088 -1.7159 -1.7728
  615SOL     hw 2459   0.868   3.143   0.446 -1.1950  2.7140  0.3726
  615SOL     vw 2460   0.793   3.104   0.422  0.1747  0.2674 -0.2544
  616SOL     ow 2461   4.604   1.264   4.814 -0.5124 -0.0901  0.1703
  616SOL     hw 2462   4.543   1.231   4.879 -0.5503  1.6781  1.0859
  616SOL     hw 2463   4.568   1.235   4.730 -0.9419 -1.6367  0.8587
  616SOL     vw 2464   4.592   1.256   4.811 -0.5741 -0.0609  0.3817
  617SOL     ow 2465   6.131   1.838   1.197 -0.1955 -0.2585 -0.0046
  617SOL     hw 2466   6.039   1.864   1.191  0.1902  1.1146 -0.3821
  617SOL     hw 2467   6.134   1.753   1.153 -1.4006 -0.6620  0.6405
  617SOL     vw 2468   6.119   1.830   1.190 -0.3037 -0.1306  0.0308
  618SOL     ow 2469   6.654   2.397   0.612  0.1020  0.0494 -0.0782
  618SOL     hw 2470   6.698   2.337   0.551 -1.7112 -1.6631  0.2169
  618SOL     hw 2471   6.603   2.455   0.556 -0.8834 -0.9692 -0.2651
  618SOL     vw 2472   6.653   2.396   0.596 -0.2670 -0.3109 -0.0639
  619SOL     ow 2473   5.335   1.115   4.992 -0.1755  0.4449  0.7235
  619SOL     hw 2474   5.396   1.053   4.952 -0.7206 -0.2577  0.9742
  619SOL     hw 2475   5.309   1.075   5.075 -1.6681  0.2963  0.2171
  619SOL     vw 2476   5.339   1.102   4.997 -0.4444  0.3326  0.6897
  620SOL     ow 2477   5.697   6.706   5.425 -0.2885  0.2549 -0.1064
  620SOL     hw 2478   5.785   6.668   5.425 -0.0700  0.6856  1.3837
  620SOL     hw 2479   5.639   6.631   5.441  0.0304  0.2853  1.3949
  620SOL     vw 2480   5.701   6.691   5.427 -0.2177  0.3157  0.2885
  621SOL     ow 2481   4.481   3.766   4.378  0.5716  0.1184  0.5171
  621SOL     hw 2482   4.404   3.714   4.356  1.5177 -2.7869  3.2693
  621SOL     hw 2483   4.555   3.712   4.349  1.7156  2.3273 -1.0560
  621SOL     vw 2484   4.481   3.752   4.371  0.8473  0.0266  0.6726
  622SOL     ow 2485   5.091   6.245   1.055 -0.2918 -0.6683  0.0629
  622SOL     hw 2486   5.031   6.318   1.040  2.5295  1.7671 -0.4851
  622SOL     hw 2487   5.118   6.255   1.146 -0.2256 -1.3279  0.1176
  622SOL     vw 2488   5.087   6.256   1.065  0.0892 -0.4339 -0.0021
  623SOL     ow 2489   7.104   2.788   0.102  0.0883  0.3237 -0.0741
  623SOL     hw 2490   7.074   2.757   0.016  1.0433  0.5159 -0.4924
  623SOL     hw 2491   7.164   2.720   0.132 -1.5668 -0.6032  1.2643
  623SOL     vw 2492   7.108   2.775   0.094 -0.0041  0.2267  0.0473
  624SOL     ow 2493   1.645   4.136   0.976  0.5155 -0.0323  0.3322
  624SOL     hw 2494   1.589   4.079   0.923  0.3370  0.6023 -0.1774
  624SOL     hw 2495   1.609   4.130   1.064 -0.3911  0.4056 -0.0030
  624SOL     vw 2496   1.633   4.128   0.980  0.3723  0.1092  0.2207
  625SOL     ow 2497   5.282   6.991   3.590  0.1520  0.3273  0.0462
  625SOL     hw 2498   5.262   7.084   3.591 -2.1036 -0.1258  0.7762
  625SOL     hw 2499   5.204   6.948   3.626  0.0720 -2.0357 -2.5960
  625SOL     vw 2500   5.269   6.998   3.595 -0.1564 -0.0441 -0.2060
  626SOL     ow 2501   7.084   3.572   0.697  0.7000  0.5897  0.5680
  626SOL     hw 2502   7.116   3.661   0.682 -0.4217  0.7158 -1.4129
  626SOL     hw 2503   7.011   3.583   0.759  1.5691  0.8329  1.5680
  626SOL     vw 2504   7.078   3.585   0.703  0.6664  0.6384  0.4386
  627SOL     ow 2505   2.982   1.472   6.591 -0.7917 -0.4576 -0.5022
  627SOL     hw 2506   3.037   1.434   6.522 -2.7638 -2.1933 -1.2167
  627SOL     hw 2507   2.949   1.553   6.553  0.1127 -0.1114 -0.5924
  627SOL     vw 2508   2.985   1.478   6.577 -0.9326 -0.6409 -0.6082
  628SOL     ow 2509   2.825   2.154   2.051 -0.6459 -0.5035 -0.1804
  628SOL     hw 2510   2.801   2.246   2.049 -0.8711 -0.5742 -1.4984
  628SOL     hw 2511   2.854   2.139   2.141  0.3745  1.0978 -0.1940
  628SOL     vw 2512   2.826   2.164   2.063 -0.5411 -0.3016 -0.3562
  629SOL     ow 2513   7.162   5.785   3.776 -0.3989 -0.5372 -0.3621
  629SOL     hw 2514   7.172   5.854   3.710  0.1609  0.9275  1.1613
  629SOL     hw 2515   7.099   5.822   3.839 -0.0847 -1.4193  0.4902
  629SOL     vw 2516   7.155   5.799   3.775 -0.2835 -0.4604 -0.0488
  630SOL     ow 2517   5.152   4.571   0.756  0.2848  0.6498  0.4414
  630SOL     hw 2518   5.062   4.536   0.751 -0.4816  2.5081  0.6225
  630SOL     hw 2519   5.185   4.540   0.840  0.1974 -0.8556 -0.0415
  630SOL     vw 2520   5.144   4.562   0.766  0.1721  0.6962  0.4016
  631SOL     ow 2521   7.099   3.197   4.930  0.6030 -0.0016 -0.0383
  631SOL     hw 2522   7.008   3.213   4.958 -0.1923  0.0682 -2.3936
  631SOL     hw 2523   7.120   3.111   4.966 -0.4852 -0.1122  0.3933
  631SOL     vw 2524   7.090   3.188   4.938  0.3543 -0.0069 -0.2923
  632SOL     ow 2525   0.710   0.522   7.243  0.1975 -0.7631 -0.4209
  632SOL     hw 2526   0.790   0.483   7.279  0.3471 -0.9037 -0.9015
  632SOL     hw 2527   0.738   0.564   7.162 -0.0653 -0.0975 -0.1668
  632SOL     vw 2528   0.725   0.522   7.237  0.1826 -0.6938 -0.4506
  633SOL     ow 2529   4.801   7.059   1.146 -0.1560 -0.4941  0.1325
  633SOL     hw 2530   4.786   7.096   1.059  2.9637 -0.7986 -0.6816
  633SOL     hw 2531   4.779   6.966   1.137  1.1923 -0.7698 -0.7571
  633SOL     vw 2532   4.796   7.051   1.133  0.4337 -0.5708 -0.0922
  634SOL     ow 2533   7.055   1.552   0.069 -0.1760 -0.1573  0.3790
  634SOL     hw 2534   7.031   1.626   0.125 -0.8259  0.7620 -1.0773
  634SOL     hw 2535   6.985   1.488   0.084  1.1049 -1.1274  2.6958
  634SOL     vw 2536   7.042   1.553   0.079 -0.0927 -0.1640  0.4925
  635SOL     ow 2537   2.620   5.874   1.206 -0.4508 -0.2789 -0.3106
  635SOL     hw 2538   2.538   5.915   1.234 -0.4633  0.5268 -1.4743
  635SOL     hw 2539   2.668   5.860   1.288 -0.6440  1.6720  0.1857
  635SOL     vw 2540   2.616   5.877   1.221 -0.4778  0.0844 -0.3987
  636SOL     ow 2541   2.661   5.635   1.020 -0.1145  0.2022 -0.2900
  636SOL     hw 2542   2.646   5.593   0.935 -0.7694  0.5648 -0.3611
  636SOL     hw 2543   2.739   5.592   1.054 -0.1650 -0.3371 -0.8277
  636SOL     vw 2544   2.669   5.624   1.013 -0.2075  0.1791 -0.3703
  637SOL     ow 2545   0.219   4.921   2.445  0.3474  0.1191 -0.4568
  637SOL     hw 2546   0.224   4.884   2.533 -0.1031 -0.5546 -0.7069
  637SOL     hw 2547   0.201   5.014   2.459  2.3176  0.4448  0.1968
  637SOL     vw 2548   0.217   4.928   2.458  0.5479  0.0732 -0.4035
  638SOL     ow 2549   5.821   1.294   5.183 -0.0937  0.0808  0.2123
  638SOL     hw 2550   5.797   1.386   5.188 -0.6522 -0.0841  0.6659
  638SOL     hw 2551   5.739   1.246   5.198 -0.3726 -0.5168 -2.7037
  638SOL     vw 2552   5.807   1.300   5.186 -0.2043 -0.0198 -0.1128
  639SOL     ow 2553   6.082   6.236   4.411  0.6653  0.1274  0.1309
  639SOL     hw 2554   6.134   6.305   4.450 -1.5894  2.0692 -0.0916
  639SOL     hw 2555   6.029   6.279   4.344  1.4929 -2.3980 -2.3667
  639SOL     vw 2556   6.082   6.251   4.407  0.4768  0.0503 -0.2279
  640SOL     ow 2557   4.678   1.661   0.581 -0.5268  0.1110 -0.4137
  640SOL     hw 2558   4.679   1.665   0.677  0.9863  1.6499 -0.4530
  640SOL     hw 2559   4.586   1.668   0.558 -0.8399  0.6058  0.9077
  640SOL     vw 2560   4.666   1.662   0.591 -0.3686  0.3793 -0.2445
  641SOL     ow 2561   3.518   2.975   1.839  0.3538 -0.5601  0.3096
  641SOL     hw 2562   3.470   2.987   1.758 -0.0366 -0.0829  0.6011
  641SOL     hw 2563   3.549   2.885   1.837  0.7324 -0.4167 -0.5694
  641SOL     vw 2564   3.516   2.965   1.828  0.3523 -0.4783  0.2320
  642SOL     ow 2565   3.012   2.661   6.554 -0.5844 -0.2531  0.2291
  642SOL     hw 2566   2.928   2.627   6.524  0.1744 -1.5082 -0.5756
  642SOL     hw 2567   3.039   2.722   6.485  0.4269 -1.9628 -0.9799
  642SOL     vw 2568   3.004   2.664   6.541 -0.3508 -0.6442 -0.0367
  643SOL     ow 2569   1.785   4.526   0.615  0.8499  0.7083  0.6465
  643SOL     hw 2570   1.824   4.592   0.672  3.2774  0.3911 -0.5195
  643SOL     hw 2571   1.821   4.545   0.528 -1.6181  0.3225 -0.5414
  643SOL     vw 2572   1.795   4.537   0.611  0.8446  0.6156  0.3359
  644SOL     ow 2573   3.305   2.581   3.697 -0.5565  0.0812 -0.4218
  644SOL     hw 2574   3.231   2.532   3.734 -0.9978 -0.4456 -1.8974
  644SOL     hw 2575   3.383   2.538   3.731 -0.8781  1.0635  1.7032
  644SOL     vw 2576   3.305   2.569   3.706 -0.6572  0.1413 -0.3362
  645SOL     ow 2577   1.368   1.793   5.483  0.1105  0.2117  0.6385
  645SOL     hw 2578   1.447   1.797   5.428 -0.4415 -0.7671 -0.2602
  645SOL     hw 2579   1.336   1.703   5.473 -0.9073  0.4810  1.3030
  645SOL     vw 2580   1.374   1.781   5.474 -0.0967  0.1181  0.6075
  646SOL     ow 2581   0.413   5.709   3.298 -0.2327 -0.3767 -0.0239
  646SOL     hw 2582   0.478   5.723   3.367 -1.1780  0.0563  0.8114
  646SOL     hw 2583   0.458   5.732   3.217  1.4950 -2.6203  0.1918
  646SOL     vw 2584   0.427   5.714   3.296 -0.1295 -0.6158  0.1147
  647SOL     ow 2585   7.113   1.453   4.365 -0.4062 -0.8333  0.0621
  647SOL     hw 2586   7.124   1.449   4.460 -1.7696 -0.0668  0.2808
  647SOL     hw 2587   7.023   1.485   4.352  0.2023  0.3900 -1.4856
  647SOL     vw 2588   7.102   1.457   4.376 -0.5062 -0.5708 -0.1132
  648SOL     ow 2589   1.305   6.355   2.247 -0.1044  0.3003 -0.7038
  648SOL     hw 2590   1.319   6.299   2.171  0.9766  0.4057 -0.6034
  648SOL     hw 2591   1.217   6.332   2.279  1.0176 -2.7864  0.5435
  648SOL     vw 2592   1.295   6.345   2.241  0.1863 -0.0930 -0.5260
  649SOL     ow 2593   7.229   1.090   5.175 -0.2822 -0.5430 -0.0073
  649SOL     hw 2594   7.310   1.053   5.210 -1.6746 -1.5386  2.3825
  649SOL     hw 2595   7.228   1.180   5.209 -1.7827 -1.5940  3.1636
  649SOL     vw 2596   7.239   1.097   5.185 -0.6640 -0.8129  0.7265
  650SOL     ow 2597   0.120   5.772   3.202 -0.6585 -0.3642  0.6060
  650SOL     hw 2598   0.026   5.787   3.192 -0.4811 -0.6202 -2.2258
  650SOL     hw 2599   0.160   5.857   3.188 -0.4398 -0.3717  1.1797
  650SOL     vw 2600   0.113   5.785   3.199 -0.6062 -0.3989  0.3082
  651SOL     ow 2601   0.080   5.559   3.776 -0.1397  0.0574 -0.4237
  651SOL     hw 2602   0.009   5.622   3.789  1.0372  1.7304 -1.5421
  651SOL     hw 2603   0.114   5.542   3.864 -1.7889 -0.6634  0.1068
  651SOL     vw 2604   0.075   5.565   3.789 -0.2020  0.1831 -0.5013
  652SOL     ow 2605   1.506   7.035   3.577  0.1184  0.1794 -0.1265
  652SOL     hw 2606   1.433   7.086   3.544 -0.0729 -0.4070 -0.6108
  652SOL     hw 2607   1.482   6.944   3.562  1.8170 -0.0080 -2.2271
  652SOL     vw 2608   1.493   7.030   3.571  0.3173  0.0772 -0.4674
  653SOL     ow 2609   3.763   6.653   1.962  0.5348 -0.3891 -0.4077
  653SOL     hw 2610   3.810   6.734   1.984  1.3720 -1.0828  0.4200
  653SOL     hw 2611   3.699   6.680   1.896  0.6171  1.0017  0.0459
  653SOL     vw 2612   3.761   6.667   1.957  0.6562 -0.2971 -0.2387
  654SOL     ow 2613   2.513   6.308   6.286 -0.6834  0.3346  0.2551
  654SOL     hw 2614   2.493   6.215   6.280  0.5636  0.1539 -2.0825
  654SOL     hw 2615   2.595   6.318   6.239 -1.4581  2.8160 -0.7329
  654SOL     vw 2616   2.521   6.297   6.279 -0.6211  0.6382 -0.1836
  655SOL     ow 2617   1.414   5.616   1.060 -0.4753 -0.0371 -0.1245
  655SOL     hw 2618   1.507   5.598   1.072 -0.1719  0.2896 -1.6753
  655SOL     hw 2619   1.370   5.566   1.128  0.8550  0.0934  0.8580
  655SOL     vw 2620   1.420   5.607   1.070 -0.2598  0.0234 -0.1995
  656SOL     ow 2621   6.821   4.409   4.781 -0.0923  0.4329  0.4886
  656SOL     hw 2622   6.883   4.380   4.714  1.4718 -0.3989  2.1726
  656SOL     hw 2623   6.778   4.485   4.743 -2.0445 -2.1058 -2.9137
  656SOL     vw 2624   6.824   4.415   4.768 -0.1440 -0.0119  0.2618
  657SOL     ow 2625   1.779   7.096   3.545  0.5076  0.3490 -0.1109
  657SOL     hw 2626   1.760   7.188   3.523 -1.0016 -0.3578 -2.0505
  657SOL     hw 2627   1.694   7.057   3.561  1.1565 -0.6762  0.9549
  657SOL     vw 2628   1.766   7.103   3.544  0.3942  0.1202 -0.2263
  658SOL     ow 2629   4.750   1.249   1.897 -0.3844 -0.0003  0.0351
  658SOL     hw 2630   4.846   1.250   1.888 -0.2852 -2.5359  0.2259
  658SOL     hw 2631   4.721   1.326   1.847  1.6472 -0.1830 -1.5747
  658SOL     vw 2632   4.759   1.259   1.889 -0.1032 -0.3589 -0.1522
  659SOL     ow 2633   0.045   3.323   1.801  0.2052  0.5434  0.6269
  659SOL     hw 2634  -0.028   3.314   1.740  1.2471  2.0339 -0.9456
  659SOL     hw 2635   0.105   3.384   1.758  1.8156  0.3241  2.4037
  659SOL     vw 2636   0.044   3.330   1.787  0.5552  0.7110  0.6539
  660SOL     ow 2637   0.865   5.757   1.187 -0.0941 -0.6719 -0.1215
  660SOL     hw 2638   0.915   5.769   1.267  1.2194 -1.6967 -0.7510
  660SOL     hw 2639   0.900   5.823   1.127  1.3131 -2.0794 -0.9071
  660SOL     vw 2640   0.876   5.767   1.190  0.2649 -0.9925 -0.3082
  661SOL     ow 2641   3.082   2.628   3.522  0.1485  0.0307  0.1543
  661SOL     hw 2642   3.034   2.622   3.605  1.5416  2.9156  1.3229
  661SOL     hw 2643   3.019   2.666   3.461  0.1368  1.3671  0.9629
  661SOL     vw 2644   3.067   2.632   3.525  0.3307  0.5876  0.4153
  662SOL     ow 2645   2.868   5.558   4.869  0.4815 -0.4550 -0.5450
  662SOL     hw 2646   2.831   5.610   4.796  0.6676  0.4977  0.0231
  662SOL     hw 2647   2.922   5.620   4.918  1.7935 -1.5146 -0.5930
  662SOL     vw 2648   2.870   5.573   4.866  0.6791 -0.4692 -0.4764
  663SOL     ow 2649   4.492   6.549   0.767  0.4699 -0.7183  0.8684
  663SOL     hw 2650   4.414   6.603   0.754  0.2064 -1.2676  0.0993
  663SOL     hw 2651   4.566   6.608   0.748  0.1593 -1.2792 -2.9634
  663SOL     vw 2652   4.492   6.564   0.763  0.3941 -0.8650  0.2614
  664SOL     ow 2653   6.085   1.603   6.794 -0.5263  0.0279  0.1228
  664SOL     hw 2654   6.153   1.630   6.733  0.0736 -0.3973  0.5954
  664SOL     hw 2655   6.037   1.684   6.814 -1.2268  0.0484 -1.4951
  664SOL     vw 2656   6.087   1.617   6.789 -0.5398 -0.0255 -0.0284
  665SOL     ow 2657   1.678   3.525   6.186  0.4428  0.7375 -0.2124
  665SOL     hw 2658   1.726   3.591   6.136  3.3268 -1.7592 -1.0415
  665SOL     hw 2659   1.728   3.516   6.267  0.6299 -0.9335 -0.4723
  665SOL     vw 2660   1.691   3.533   6.190  0.8480  0.1876 -0.3562
  666SOL     ow 2661   3.169   0.849   1.161  0.3051 -0.0126  0.2833
  666SOL     hw 2662   3.179   0.922   1.099 -0.2425 -0.5037 -0.3944
  666SOL     hw 2663   3.219   0.777   1.122  1.1445  0.0847  1.1288
  666SOL     vw 2664   3.177   0.849   1.148  0.3437 -0.0645  0.3055
  667SOL     ow 2665   6.125   0.601   3.415 -0.0446  0.2590 -0.4966
  667SOL     hw 2666   6.179   0.522   3.416  1.4223  1.2288  0.9932
  667SOL     hw 2667   6.047   0.575   3.364  1.3704 -1.4382 -1.9579
  667SOL     vw 2668   6.122   0.587   3.408  0.3357  0.1630 -0.4929
  668SOL     ow 2669   3.360   0.962   6.433  0.5694  0.2292  0.2788
  668SOL     hw 2670   3.427   0.900   6.462 -1.1133 -1.6111  0.4383
  668SOL     hw 2671   3.308   0.979   6.511 -0.7756 -0.5522 -0.4063
  668SOL     vw 2672   3.362   0.956   6.447  0.1700 -0.1167  0.2096
  669SOL     ow 2673   0.292   3.497   3.909 -0.5008 -0.3018  0.3364
  669SOL     hw 2674   0.212   3.466   3.950 -1.2113 -0.7227 -1.3056
  669SOL     hw 2675   0.323   3.567   3.967 -1.8945 -0.3132  1.1268
  669SOL     vw 2676   0.286   3.502   3.922 -0.7784 -0.3589  0.2240
  670SOL     ow 2677   4.679   6.044   0.016 -0.4100  0.3408  0.0197
  670SOL     hw 2678   4.613   6.034  -0.052 -0.3699 -0.1675  0.0457
  670SOL     hw 2679   4.630   6.040   0.099 -0.3218 -0.3978  0.0497
  670SOL     vw 2680   4.664   6.042   0.018 -0.3932  0.1764  0.0272
  671SOL     ow 2681   5.234   6.662   1.852  0.3567  0.0378 -0.7176
  671SOL     hw 2682   5.319   6.707   1.861  0.0559  0.9092 -2.0437
  671SOL     hw 2683   5.229   6.638   1.760 -1.0344  0.4175 -0.7641
  671SOL     vw 2684   5.245   6.665   1.841  0.1335  0.2029 -0.8988
  672SOL     ow 2685   6.530   5.704   3.468  0.3863 -0.2397 -0.2090
  672SOL     hw 2686   6.446   5.750   3.468 -0.4033 -1.5003 -2.6310
  672SOL     hw 2687   6.573   5.734   3.389  1.3240 -1.1300 -0.0558
  672SOL     vw 2688   6.524   5.714   3.458  0.4058 -0.5233 -0.5083
  673SOL     ow 2689   0.071   0.908   0.728 -0.0560 -0.4733  0.4353
  673SOL     hw 2690   0.020   0.916   0.809 -1.1709  2.9555 -0.4591
  673SOL     hw 2691   0.004   0.901   0.660  0.5906  2.4567 -0.6199
  673SOL     vw 2692   0.055   0.908   0.730 -0.1178  0.3657  0.1781
  674SOL     ow 2693   3.512   4.817   3.101  0.1307 -0.2878  0.4139
  674SOL     hw 2694   3.607   4.817   3.090  0.0021 -0.1474 -0.7808
  674SOL     hw 2695   3.499   4.806   3.196  1.2923 -3.6934  0.3373
  674SOL     vw 2696   3.523   4.815   3.112  0.2669 -0.7186  0.2462
  675SOL     ow 2697   2.712   5.739   2.240  0.3500 -0.0752  0.0649
  675SOL     hw 2698   2.669   5.825   2.240 -1.2975 -0.8517  0.2672
  675SOL     hw 2699   2.763   5.737   2.160  1.6848  1.6663  0.8038
  675SOL     vw 2700   2.713   5.750   2.230  0.3089  0.0522  0.1889
  676SOL     ow 2701   4.777   1.465   5.677 -0.1629  0.0789  0.3481
  676SOL     hw 2702   4.709   1.447   5.742 -1.0218 -0.0902 -0.5832
  676SOL     hw 2703   4.733   1.458   5.593  1.3402 -1.5566 -0.3640
  676SOL     vw 2704   4.763   1.461   5.674 -0.0780 -0.1592  0.1311
  677SOL     ow 2705   1.368   4.246   6.593 -0.9388  0.3756  0.1232
  677SOL     hw 2706   1.285   4.258   6.547 -0.1788  1.3898 -1.0552
  677SOL     hw 2707   1.404   4.335   6.601  0.1030 -0.0605  0.4697
  677SOL     vw 2708   1.362   4.259   6.588 -0.7011  0.4518  0.0134
  678SOL     ow 2709   4.697   1.620   2.323  0.1637  0.0108  0.1376
  678SOL     hw 2710   4.639   1.549   2.297  1.7990 -1.0611 -0.7409
  678SOL     hw 2711   4.785   1.589   2.302  0.9944  2.0174  0.3711
  678SOL     vw 2712   4.701   1.607   2.317  0.4890  0.1341  0.0525
  679SOL     ow 2713   2.854   6.951   2.799 -0.5813  0.0854 -0.0698
  679SOL     hw 2714   2.872   7.040   2.829  0.2886 -0.1695  0.2083
  679SOL     hw 2715   2.923   6.933   2.735 -0.8948 -0.3080 -0.3057
  679SOL     vw 2716   2.866   6.960   2.794 -0.5078  0.0000 -0.0641
  680SOL     ow 2717   6.481   0.174   2.137 -0.8768  0.1369 -0.1236
  680SOL     hw 2718   6.539   0.212   2.204 -1.6150  2.8159 -0.8918
  680SOL     hw 2719   6.523   0.091   2.114  0.6780  0.2699  1.9216
  680SOL     vw 2720   6.494   0.168   2.143 -0.7691  0.5079  0.0448
  681SOL     ow 2721   3.312   5.913   5.357 -0.6037  0.5032 -0.3779
  681SOL     hw 2722   3.298   5.828   5.399  0.8178 -0.0376 -0.9327
  681SOL     hw 2723   3.274   5.903   5.270  1.7734 -0.4789 -1.3709
  681SOL     vw 2724   3.305   5.900   5.351 -0.1026  0.3026 -0.5820
  682SOL     ow 2725   5.815   2.818   0.450 -0.1777  0.4272  0.0209
  682SOL     hw 2726   5.741   2.802   0.391 -0.1229 -0.1798  0.1116
  682SOL     hw 2727   5.806   2.910   0.475 -0.8790  0.3708 -0.0020
  682SOL     vw 2728   5.804   2.828   0.445 -0.2630  0.3396  0.0299
  683SOL     ow 2729   1.468   3.591   3.244 -0.1913 -0.0069 -0.0430
  683SOL     hw 2730   1.532   3.568   3.311 -0.8612 -0.4295  0.4657
  683SOL     hw 2731   1.424   3.509   3.223 -1.2342  0.4271  0.3393
  683SOL     vw 2732   1.471   3.577   3.250 -0.4173 -0.0055  0.0746
  684SOL     ow 2733   1.633   6.792   2.969  0.0407  0.1100  0.4122
  684SOL     hw 2734   1.588   6.708   2.982  1.1579 -0.5950 -0.0533
  684SOL     hw 2735   1.717   6.780   3.014  0.8741  0.3788 -1.0147
  684SOL     vw 2736   1.638   6.779   2.977  0.2981  0.0525  0.1625
  685SOL     ow 2737   6.101   1.750   4.230 -0.1720  0.4072  0.1375
  685SOL     hw 2738   6.096   1.714   4.141  1.2269 -0.1569  0.2636
  685SOL     hw 2739   6.019   1.798   4.241 -0.4654  0.2970 -1.3766
  685SOL     vw 2740   6.090   1.751   4.220 -0.0260  0.3182 -0.0455
  686SOL     ow 2741   3.476   6.578   0.089  0.2743 -0.1845 -0.3715
  686SOL     hw 2742   3.571   6.586   0.093  0.3605 -1.1415 -0.2131
  686SOL     hw 2743   3.445   6.619   0.170  0.5706 -0.1259 -0.2879
  686SOL     vw 2744   3.484   6.584   0.101  0.3248 -0.3033 -0.3396
  687SOL     ow 2745   5.056   5.090   4.432  0.4095 -0.1436  0.2083
  687SOL     hw 2746   5.083   5.054   4.347 -1.0769 -0.8410 -0.0070
  687SOL     hw 2747   5.038   5.012   4.485 -0.8588  0.2695  0.4117
  687SOL     vw 2748   5.057   5.075   4.428  0.0460 -0.1812  0.2067
  688SOL     ow 2749   3.383   4.772   3.379  0.2476 -0.5420  0.8426
  688SOL     hw 2750   3.375   4.721   3.460  0.0517  0.2656  1.3451
  688SOL     hw 2751   3.294   4.776   3.345  0.5670 -2.2618 -0.3028
  688SOL     vw 2752   3.370   4.765   3.385  0.2638 -0.6623  0.7578
  689SOL     ow 2753   4.930   5.617   1.400 -0.5069  0.4472  0.7239
  689SOL     hw 2754   4.993   5.643   1.467  0.0805  0.7461  0.0792
  689SOL     hw 2755   4.972   5.641   1.317 -0.8225 -0.7090  0.1958
  689SOL     vw 2756   4.944   5.623   1.398 -0.4709  0.3343  0.5692
  690SOL     ow 2757   3.003   6.366   1.292 -0.6384 -0.4172  0.3250
  690SOL     hw 2758   3.069   6.305   1.257 -0.3850 -0.1120  0.2651
  690SOL     hw 2759   2.959   6.316   1.361  1.5049  0.2145  2.2900
  690SOL     vw 2760   3.006   6.351   1.297 -0.3222 -0.2935  0.5763
  691SOL     ow 2761   6.924   3.641   3.462  0.5383 -0.0505 -0.4964
  691SOL     hw 2762   7.010   3.664   3.427  0.9050 -1.0562 -0.3018
  691SOL     hw 2763   6.905   3.555   3.424 -0.7896  0.5315 -1.2384
  691SOL     vw 2764   6.933   3.633   3.452  0.4115 -0.1065 -0.5686
  692SOL     ow 2765   6.437   6.557   7.035  0.2151 -0.0884  0.2154
  692SOL     hw 2766   6.444   6.560   6.940 -0.7147  0.5833  0.1564
  692SOL     hw 2767   6.404   6.469   7.054 -1.1477  0.2981 -0.2163
  692SOL     vw 2768   6.433   6.545   7.025 -0.0875  0.0513  0.1504
  693SOL     ow 2769   5.863   6.158   4.591  0.4206  0.2511  0.3072
  693SOL     hw 2770   5.818   6.116   4.664 -0.0072  0.8400  0.3892
  693SOL     hw 2771   5.848   6.252   4.604  0.8336  0.3955 -0.2165
  693SOL     vw 2772   5.855   6.165   4.602  0.4187  0.3479  0.2489
  694SOL     ow 2773   0.012   6.205   4.445  0.1441  0.2342 -0.4269
  694SOL     hw 2774   0.084   6.257   4.409 -1.0015  1.6760 -0.7422
  694SOL     hw 2775  -0.042   6.268   4.492 -0.0010 -1.1182  1.3259
  694SOL     vw 2776   0.014   6.220   4.446 -0.0262  0.2458 -0.2375
  695SOL     ow 2777   1.681   1.660   0.747 -0.1122 -0.3431 -0.6556
  695SOL     hw 2778   1.644   1.728   0.803 -0.4977 -1.0725  0.0014
  695SOL     hw 2779   1.688   1.700   0.661  1.9702  1.3429  0.2002
  695SOL     vw 2780   1.677   1.674   0.743  0.1118 -0.2168 -0.4560
  696SOL     ow 2781   2.149   2.409   5.190 -0.1354  0.0273  0.3909
  696SOL     hw 2782   2.137   2.334   5.249 -1.1429 -0.1216  0.0198
  696SOL     hw 2783   2.064   2.453   5.191  0.7210  1.7430  1.3568
  696SOL     vw 2784   2.136   2.405   5.198 -0.1553  0.2340  0.4694
  697SOL     ow 2785   3.174   6.181   3.049  0.0891 -0.0218  0.2055
  697SOL     hw 2786   3.169   6.124   3.125  1.0330 -0.3518  0.0407
  697SOL     hw 2787   3.159   6.123   2.974 -1.0332  0.3364  0.1387
  697SOL     vw 2788   3.172   6.166   3.049  0.0656 -0.0181  0.1750
  698SOL     ow 2789   0.891   3.384   0.781 -0.0496  0.5423  0.0617
  698SOL     hw 2790   0.922   3.358   0.695  1.9652 -2.2825  1.5124
  698SOL     hw 2791   0.798   3.361   0.781 -0.4749  2.0466 -1.8067
  698SOL     vw 2792   0.883   3.378   0.770  0.1601  0.3681  0.0066
  699SOL     ow 2793   3.824   1.732   6.702  0.2481 -0.3300  0.1109
  699SOL     hw 2794   3.772   1.719   6.622  0.0104  0.1124  0.1888
  699SOL     hw 2795   3.911   1.755   6.671  0.1776 -0.2430 -0.0226
  699SOL     vw 2796   3.828   1.734   6.687  0.2074 -0.2601  0.1035
  700SOL     ow 2797   0.272   4.838   2.159 -0.0752  0.0152  0.5315
  700SOL     hw 2798   0.306   4.812   2.073 -1.7939 -0.7624  0.0229
  700SOL     hw 2799   0.177   4.843   2.146 -0.6097 -2.0733  2.8319
  700SOL     vw 2800   0.264   4.835   2.146 -0.3725 -0.3631  0.7679
  701SOL     ow 2801   6.265   2.602   6.388  0.1621 -0.4593  0.7625
  701SOL     hw 2802   6.184   2.562   6.419 -0.6270 -0.3620 -1.0533
  701SOL     hw 2803   6.255   2.696   6.406 -0.5492 -0.3226 -0.2781
  701SOL     vw 2804   6.253   2.609   6.394 -0.0360 -0.4283  0.3858
  702SOL     ow 2805   5.507   2.346   3.189 -0.1246 -0.4974  0.4210
  702SOL     hw 2806   5.562   2.413   3.148 -0.8976 -1.5883 -2.6562
  702SOL     hw 2807   5.558   2.266   3.180 -0.7736 -0.9349  0.6640
  702SOL     vw 2808   5.521   2.345   3.182 -0.3121 -0.6990  0.0471
  703SOL     ow 2809   3.593   6.413   2.834 -0.0411  0.3949 -0.5742
  703SOL     hw 2810   3.544   6.392   2.755  0.4436  2.4580 -1.4663
  703SOL     hw 2811   3.680   6.376   2.819 -0.2777 -0.2049 -0.4987
  703SOL     vw 2812   3.598   6.405   2.822 -0.0082  0.5879 -0.6820
  704SOL     ow 2813   1.156   3.605   5.864 -0.2261 -0.2258  0.0457
  704SOL     hw 2814   1.155   3.664   5.789  0.5813 -1.4648 -0.9902
  704SOL     hw 2815   1.229   3.545   5.846 -0.7318 -1.2548  1.2747
  704SOL     vw 2816   1.166   3.605   5.852 -0.1863 -0.5249  0.0713
  705SOL     ow 2817   0.540   0.121   5.884 -0.4741  0.5061  0.5313
  705SOL     hw 2818   0.510   0.212   5.877 -1.4442  0.1209 -0.5157
  705SOL     hw 2819   0.538   0.087   5.795 -1.8596 -1.0731  1.1003
  705SOL     vw 2820   0.536   0.128   5.871 -0.7849  0.2469  0.4680
  706SOL     ow 2821   0.115   1.522   4.175  0.4988  0.3203 -0.4348
  706SOL     hw 2822   0.177   1.487   4.112  0.1801 -1.1811  0.0300
  706SOL     hw 2823   0.168   1.555   4.247  0.8677  2.1002 -1.4561
  706SOL     vw 2824   0.130   1.522   4.176  0.5054  0.3571 -0.5083
  707SOL     ow 2825   7.038   3.066   4.040 -0.0499 -0.3563  0.1357
  707SOL     hw 2826   7.063   2.982   4.003  1.1803 -0.8047  1.8515
  707SOL     hw 2827   6.986   3.044   4.118  1.7802  0.3448  1.6439
  707SOL     vw 2828   7.035   3.052   4.046  0.3538 -0.3229  0.5612
  708SOL     ow 2829   3.999   5.793   1.111  0.0334 -0.3956  0.1484
  708SOL     hw 2830   4.045   5.833   1.038  0.1604 -1.2580 -0.2567
  708SOL     hw 2831   4.058   5.725   1.143  0.2239  0.3291  1.4233
  708SOL     vw 2832   4.013   5.789   1.106  0.0753 -0.4137  0.2632
  709SOL     ow 2833   2.850   7.175   5.595  0.1477  0.2121  0.3255
  709SOL     hw 2834   2.873   7.100   5.540 -0.4491  0.7057 -0.6275
  709SOL     hw 2835   2.934   7.214   5.618  0.4261 -0.2233  0.0647
  709SOL     vw 2836   2.864   7.170   5.591  0.1056  0.2198  0.1655
  710SOL     ow 2837   0.854   4.354   3.425 -0.3511  0.0505 -0.2047
  710SOL     hw 2838   0.908   4.433   3.423 -0.7953  0.3595 -0.1423
  710SOL     hw 2839   0.840   4.338   3.519  0.3843 -0.5551 -0.1876
  710SOL     vw 2840   0.860   4.363   3.437 -0.3127  0.0112 -0.1942
  711SOL     ow 2841   2.259   4.690   0.916  0.1535  0.1176  0.3764
  711SOL     hw 2842   2.248   4.612   0.862 -0.7401  0.7404 -0.3668
  711SOL     hw 2843   2.354   4.701   0.921  0.2711 -0.4575 -0.3243
  711SOL     vw 2844   2.270   4.681   0.909  0.0511  0.1240  0.1859
  712SOL     ow 2845   4.792   2.722   0.011  0.2672  0.3238  0.3447
  712SOL     hw 2846   4.823   2.754   0.096 -0.7125  0.5696  0.6269
  712SOL     hw 2847   4.866   2.737  -0.048  1.7357 -1.7420  1.5319
  712SOL     vw 2848   4.806   2.728   0.014  0.3316  0.0837  0.5386
  713SOL     ow 2849   5.154   2.961   1.615  0.0384 -0.2122  1.0211
  713SOL     hw 2850   5.146   2.871   1.648 -1.3261 -0.5677 -0.1687
  713SOL     hw 2851   5.123   2.956   1.525 -0.5489  1.5599  1.0898
  713SOL     vw 2852   5.149   2.948   1.608 -0.2191 -0.0253  0.8732
  714SOL     ow 2853   2.734   1.404   6.711 -0.5633  0.1697 -0.1075
  714SOL     hw 2854   2.752   1.370   6.624 -1.9018 -0.9512  0.0123
  714SOL     hw 2855   2.639   1.399   6.719 -0.5647  1.4126  0.9628
  714SOL     vw 2856   2.724   1.399   6.701 -0.7402  0.1858  0.0496
  715SOL     ow 2857   2.730   3.884   6.868  0.0763 -0.3612 -0.8304
  715SOL     hw 2858   2.730   3.789   6.867  0.6440 -0.3671 -2.1994
  715SOL     hw 2859   2.669   3.909   6.799 -0.3300  0.2720 -0.2510
  715SOL     vw 2860   2.722   3.875   6.859  0.0976 -0.2786 -0.9344
  716SOL     ow 2861   2.447   7.057   7.018 -0.4255 -0.0745  0.4198
  716SOL     hw 2862   2.354   7.046   6.999 -0.4148 -0.0937  0.3780
  716SOL     hw 2863   2.481   7.109   6.945  0.1516 -2.3485 -1.0501
  716SOL     vw 2864   2.439   7.062   7.006 -0.3479 -0.3769  0.2203
  717SOL     ow 2865   4.140   6.772   4.245 -0.0639  0.2302  0.3963
  717SOL     hw 2866   4.095   6.781   4.329 -2.8530  1.2722 -1.0871
  717SOL     hw 2867   4.070   6.756   4.181  1.8084  0.5934 -1.9058
  717SOL     vw 2868   4.125   6.771   4.247 -0.1850  0.4156 -0.1028
  718SOL     ow 2869   6.010   1.320   6.959  0.7859 -0.3554 -0.0952
  718SOL     hw 2870   5.984   1.230   6.939  0.0166  0.1062 -1.2975
  718SOL     hw 2871   5.940   1.353   7.016  1.0475 -0.5002  0.3135
  718SOL     vw 2872   5.997   1.313   6.964  0.7188 -0.3136 -0.1996
  719SOL     ow 2873   6.425   1.881   4.203  0.8145  0.3799 -0.0227
  719SOL     hw 2874   6.519   1.863   4.194  0.7243  0.6551 -2.2158
  719SOL     hw 2875   6.398   1.905   4.114 -0.9556  2.1385  0.9272
  719SOL     vw 2876   6.434   1.882   4.190  0.5691  0.6482 -0.1867
  720SOL     ow 2877   4.774   3.708   6.903  0.0526  0.5549 -0.0669
  720SOL     hw 2878   4.750   3.632   6.955 -0.1458  0.4998 -0.2325
  720SOL     hw 2879   4.758   3.783   6.960  2.0970  0.3854  0.7733
  720SOL     vw 2880   4.769   3.708   6.917  0.2959  0.5252  0.0222
  721SOL     ow 2881   1.519   1.441   3.779  0.0983 -0.1761 -0.6916
  721SOL     hw 2882   1.505   1.418   3.871 -2.2484  1.2716 -0.6121
  721SOL     hw 2883   1.451   1.391   3.732  0.6238 -0.1188 -1.5248
  721SOL     vw 2884   1.508   1.431   3.785 -0.1420  0.0225 -0.7911
  722SOL     ow 2885   5.238   2.125   4.349 -0.0305  0.1596 -0.1756
  722SOL     hw 2886   5.254   2.048   4.295  0.4740  0.0894  0.0654
  722SOL     hw 2887   5.193   2.186   4.291  0.0227 -0.1217 -0.5181
  722SOL     vw 2888   5.234   2.123   4.334  0.0432  0.1132 -0.1888
  723SOL     ow 2889   4.936   3.719   6.682 -0.1942 -0.1835  0.4688
  723SOL     hw 2890   4.894   3.719   6.768  2.3908 -0.3371  1.8198
  723SOL     hw 2891   4.906   3.800   6.641 -2.0333 -0.4532  1.1917
  723SOL     vw 2892   4.926   3.730   6.688 -0.0956 -0.2394  0.7424
  724SOL     ow 2893   4.065   0.561   7.199 -0.6342 -0.6300  0.2418
  724SOL     hw 2894   3.985   0.548   7.250 -1.3665 -1.0239 -0.9642
  724SOL     hw 2895   4.070   0.655   7.186 -2.2992 -0.7390 -1.7539
  724SOL     vw 2896   4.055   0.571   7.204 -0.9503 -0.6963 -0.1805
  725SOL     ow 2897   6.397   0.025   6.488 -0.0104  0.0720  0.3584
  725SOL     hw 2898   6.427  -0.014   6.570  0.7201 -1.1041 -0.4396
  725SOL     hw 2899   6.303   0.034   6.499  0.3134  1.8488  2.0971
  725SOL     vw 2900   6.389   0.021   6.500  0.1285  0.1512  0.4826
  726SOL     ow 2901   1.754   4.257   1.397 -0.0510 -0.0179 -0.4263
  726SOL     hw 2902   1.721   4.258   1.487 -0.5336  0.0015 -0.6026
  726SOL     hw 2903   1.676   4.257   1.343  0.2291 -0.8645 -0.8445
  726SOL     vw 2904   1.740   4.257   1.402 -0.0777 -0.1273 -0.5047
  727SOL     ow 2905   5.096   7.113   4.419 -0.0976  0.1408 -0.1315
  727SOL     hw 2906   5.098   7.073   4.506  1.0514  0.1278 -0.1478
  727SOL     hw 2907   5.103   7.039   4.358  0.3859  0.2362 -0.1977
  727SOL     vw 2908   5.097   7.098   4.422  0.1175  0.1516 -0.1421
  728SOL     ow 2909   4.967   2.217   5.451  0.0697 -0.2271  0.5282
  728SOL     hw 2910   4.962   2.177   5.364  1.4659  0.8674 -0.0906
  728SOL     hw 2911   5.006   2.149   5.506  1.5876 -0.0536 -0.3055
  728SOL     vw 2912   4.971   2.203   5.447  0.4542 -0.0598  0.3366
  729SOL     ow 2913   5.874   1.319   3.652  0.1470 -0.5099 -0.0824
  729SOL     hw 2914   5.942   1.376   3.618 -0.8916  1.0306  0.3165
  729SOL     hw 2915   5.839   1.274   3.575  1.7445 -1.5117 -0.2524
  729SOL     vw 2916   5.878   1.320   3.638  0.2208 -0.4389 -0.0521
  730SOL     ow 2917   2.490   1.087   6.893 -0.0350  0.4359  0.5533
  730SOL     hw 2918   2.489   1.182   6.894 -0.4388  0.4501 -0.2866
  730SOL     hw 2919   2.558   1.064   6.830 -0.6662  0.1859 -0.0448
  730SOL     vw 2920   2.499   1.096   6.885 -0.1715  0.4048  0.3636
  731SOL     ow 2921   2.652   4.922   1.082  0.6326  0.1104 -0.0048
  731SOL     hw 2922   2.591   4.878   1.023  0.2429  1.1086 -0.3592
  731SOL     hw 2923   2.635   5.015   1.070  0.3663  0.3464  1.8550
  731SOL     vw 2924   2.641   4.928   1.073  0.5460  0.2732  0.1938
  732SOL     ow 2925   2.497   2.869   1.564  0.9911 -0.3672  0.5020
  732SOL     hw 2926   2.466   2.907   1.646 -2.6635  0.5000 -1.0687
  732SOL     hw 2927   2.511   2.945   1.507  0.8174 -1.0448 -0.4641
  732SOL     vw 2928   2.495   2.884   1.567  0.4859 -0.3422  0.1674
  733SOL     ow 2929   0.070   0.343   2.286  0.0032  0.1310 -0.2089
  733SOL     hw 2930   0.065   0.357   2.381 -2.8524  0.2004 -0.2774
  733SOL     hw 2931   0.071   0.431   2.249  0.0040  0.1096 -0.2595
  733SOL     vw 2932   0.069   0.356   2.294 -0.3734  0.1373 -0.2246
  734SOL     ow 2933   5.153   7.232   6.763  0.3337 -0.5673 -0.0746
  734SOL     hw 2934   5.155   7.180   6.683 -0.7418  0.3041 -0.6946
  734SOL     hw 2935   5.063   7.264   6.769  1.1717  2.0265 -0.2625
  734SOL     vw 2936   5.141   7.229   6.753  0.3026 -0.1099 -0.1812
  735SOL     ow 2937   2.554   6.024   2.880 -0.6692  0.4638 -0.0567
  735SOL     hw 2938   2.485   6.084   2.909  0.4036  1.1558  1.1955
  735SOL     hw 2939   2.629   6.081   2.862  0.7463 -0.5200  2.2611
  735SOL     vw 2940   2.554   6.039   2.882 -0.3409  0.4253  0.4145
  736SOL     ow 2941   6.179   0.090   0.387 -0.5847  0.1366  0.0731
  736SOL     hw 2942   6.171   0.001   0.354  0.9709  0.2594 -0.7494
  736SOL     hw 2943   6.092   0.128   0.375 -0.8930 -0.8245 -0.9110
  736SOL     vw 2944   6.166   0.083   0.381 -0.4199  0.0260 -0.1652
  737SOL     ow 2945   1.449   1.473   5.353 -0.2207  0.3686 -0.3702
  737SOL     hw 2946   1.507   1.458   5.427  1.2976  3.9428 -0.6873
  737SOL     hw 2947   1.485   1.419   5.283 -0.3958 -1.3680  0.8124
  737SOL     vw 2948   1.461   1.464   5.354 -0.0435  0.6110 -0.2558
  738SOL     ow 2949   6.398   6.247   6.696  0.0082  0.4213  0.4504
  738SOL     hw 2950   6.377   6.213   6.783  0.6773  0.1242  0.5026
  738SOL     hw 2951   6.456   6.181   6.658 -0.6219  0.3361 -0.3929
  738SOL     vw 2952   6.403   6.233   6.703  0.0134  0.3710  0.3462
  739SOL     ow 2953   4.839   2.782   2.712  0.1058  0.3414 -0.0787
  739SOL     hw 2954   4.906   2.734   2.761  0.1033 -0.3552 -0.7407
  739SOL     hw 2955   4.756   2.753   2.751  0.0889 -0.4300 -0.6710
  739SOL     vw 2956   4.836   2.771   2.724  0.1032  0.1476 -0.2441
  740SOL     ow 2957   5.049   0.851   3.246  0.2871 -0.2797 -0.2451
  740SOL     hw 2958   4.998   0.927   3.217 -0.4705 -0.4244  0.6747
  740SOL     hw 2959   5.014   0.778   3.195  2.1724  0.2015 -2.4197
  740SOL     vw 2960   5.038   0.851   3.235  0.4361 -0.2353 -0.4107
  741SOL     ow 2961   6.498   1.818   5.823 -0.1953  0.4610 -0.4067
  741SOL     hw 2962   6.418   1.777   5.855  0.0703 -0.0413 -0.3736
  741SOL     hw 2963   6.471   1.865   5.744 -1.0599  2.5056  1.0035
  741SOL     vw 2964   6.484   1.819   5.817 -0.2742  0.6645 -0.2162
  742SOL     ow 2965   1.637   3.058   6.130 -0.5550 -0.3024  0.2038
  742SOL     hw 2966   1.717   3.040   6.081  0.5434  1.8026  1.1145
  742SOL     hw 2967   1.591   2.973   6.133  1.3937 -1.4592 -0.7137
  742SOL     vw 2968   1.642   3.044   6.124 -0.1531 -0.1773  0.2029
  743SOL     ow 2969   5.965   3.692   1.720 -0.0547  0.1677  0.3650
  743SOL     hw 2970   6.042   3.679   1.664  0.3402  1.2899  0.6142
  743SOL     hw 2971   5.954   3.609   1.765  0.9066 -0.0706  0.1904
  743SOL     vw 2972   5.974   3.680   1.718  0.1242  0.2844  0.3749
  744SOL     ow 2973   4.518   3.389   4.588  0.2313  0.5348  0.5520
  744SOL     hw 2974   4.490   3.389   4.496  2.1045  1.5992 -0.0647
  744SOL     hw 2975   4.530   3.297   4.610  2.0244  0.3426 -1.0372
  744SOL     vw 2976   4.516   3.377   4.579  0.7150  0.6499  0.2608
  745SOL     ow 2977   3.503   2.652   3.182  0.7946  0.2256 -0.1614
  745SOL     hw 2978   3.579   2.599   3.156  0.0518 -0.1914 -1.5520
  745SOL     hw 2979   3.506   2.728   3.125 -0.2459 -0.1578 -0.7484
  745SOL     vw 2980   3.514   2.655   3.171  0.5593  0.1200 -0.4222
  746SOL     ow 2981   0.224   4.057   1.652  0.0421 -0.0787 -0.5562
  746SOL     hw 2982   0.243   4.115   1.726  0.0762 -0.1836 -0.4823
  746SOL     hw 2983   0.197   3.974   1.692  3.4362 -1.3650 -0.5287
  746SOL     vw 2984   0.223   4.054   1.667  0.4944 -0.2620 -0.5428
  747SOL     ow 2985   0.999   3.246   0.549 -0.1864  0.2105  0.3366
  747SOL     hw 2986   1.044   3.296   0.481  0.4082  1.0433  1.3249
  747SOL     hw 2987   1.067   3.191   0.587 -0.3960  0.1518  0.6269
  747SOL     vw 2988   1.014   3.245   0.545 -0.1357  0.3127  0.5053
  748SOL     ow 2989   7.046   3.956   0.135  0.3981  0.4005 -0.7505
  748SOL     hw 2990   7.031   3.875   0.086  2.1997  0.0894 -0.8799
  748SOL     hw 2991   6.960   3.997   0.141 -0.4919 -1.3343 -1.0054
  748SOL     vw 2992   7.033   3.950   0.129  0.5181  0.1307 -0.8012
  749SOL     ow 2993   1.480   4.155   6.376 -0.0838 -0.3060 -0.0977
  749SOL     hw 2994   1.444   4.189   6.459 -0.2948 -1.6241  0.3851
  749SOL     hw 2995   1.407   4.106   6.338 -0.5361  1.6807 -1.9452
  749SOL     vw 2996   1.465   4.153   6.382 -0.1713 -0.2177 -0.2782
  750SOL     ow 2997   5.360   0.139   6.861  0.1787  0.0066  0.3354
  750SOL     hw 2998   5.296   0.178   6.802  0.1989 -0.9347 -0.3275
  750SOL     hw 2999   5.399   0.213   6.907  0.2535  0.7743 -0.9280
  750SOL     vw 3000   5.357   0.154   6.859  0.1912 -0.0163  0.0813
  751SOL     ow 3001   4.642   4.661   4.797 -0.2129 -0.0763  0.5663
  751SOL     hw 3002   4.708   4.648   4.865 -0.3469  2.4197  1.2829
  751SOL     hw 3003   4.692   4.672   4.716  0.1099 -0.2937  0.7353
  751SOL     vw 3004   4.657   4.661   4.795 -0.1879  0.2244  0.6828
  752SOL     ow 3005   4.334   2.510   3.131  0.1702 -0.0873  0.2301
  752SOL     hw 3006   4.342   2.514   3.035  3.1922 -0.8141  0.3303
  752SOL     hw 3007   4.242   2.529   3.149 -0.2293  1.3251 -2.7294
  752SOL     vw 3008   4.323   2.513   3.121  0.5162  0.0031 -0.1472
  753SOL     ow 3009   5.971   6.440   3.934 -0.5712  1.1792  0.7376
  753SOL     hw 3010   6.045   6.471   3.987 -2.0344  0.3443  3.5077
  753SOL     hw 3011   5.935   6.519   3.893  2.3648  1.4759 -1.5769
  753SOL     vw 3012   5.976   6.455   3.936 -0.3767  1.1082  0.7977
  754SOL     ow 3013   6.138   1.478   2.548  0.0544  0.0956 -0.0683
  754SOL     hw 3014   6.069   1.485   2.614 -1.8517 -0.4794 -1.8670
  754SOL     hw 3015   6.127   1.557   2.495 -0.5758 -0.9373 -1.5405
  754SOL     vw 3016   6.127   1.489   2.550 -0.2801 -0.1164 -0.5001
  755SOL     ow 3017   2.783   6.331   0.288 -0.2265 -0.6344 -0.1661
  755SOL     hw 3018   2.855   6.394   0.284 -0.5399 -0.0390  2.2833
  755SOL     hw 3019   2.704   6.384   0.286 -0.4929 -0.8460  2.1866
  755SOL     vw 3020   2.782   6.346   0.287 -0.3029 -0.5839  0.4675
  756SOL     ow 3021   5.346   3.045   3.436 -0.4473  0.2068 -0.1900
  756SOL     hw 3022   5.297   2.999   3.504  1.0355  1.3926  1.7869
  756SOL     hw 3023   5.313   3.135   3.439  0.7961  0.6731  0.1906
  756SOL     vw 3024   5.335   3.051   3.446 -0.0875  0.4247  0.1210
  757SOL     ow 3025   1.375   3.575   1.718 -0.1657 -0.0379  0.2014
  757SOL     hw 3026   1.471   3.578   1.717 -0.1856  1.2541 -0.6334
  757SOL     hw 3027   1.352   3.573   1.811  0.6678 -1.7647  0.4152
  757SOL     vw 3028   1.385   3.575   1.730 -0.0584 -0.0952  0.1194
  758SOL     ow 3029   0.506   5.193   1.928  0.3530  0.0574 -0.4454
  758SOL     hw 3030   0.600   5.210   1.941  0.0642  0.7781  0.8355
  758SOL     hw 3031   0.467   5.209   2.014 -0.6694 -2.3263 -0.3804
  758SOL     vw 3032   0.513   5.197   1.941  0.1800 -0.1619 -0.2678
  759SOL     ow 3033   5.456   2.697   4.840  0.5422  0.4994  0.2689
  759SOL     hw 3034   5.477   2.790   4.832  1.1702  0.3850  0.4609
  759SOL     hw 3035   5.536   2.652   4.811  0.3474  0.0279  0.4526
  759SOL     vw 3036   5.469   2.704   4.835  0.5991  0.4222  0.3185
  760SOL     ow 3037   1.576   5.897   6.681  0.3138  0.2594  0.2062
  760SOL     hw 3038   1.671   5.884   6.675  0.2554 -0.1739  0.2418
  760SOL     hw 3039   1.542   5.815   6.715 -0.3382 -0.4720 -2.0346
  760SOL     vw 3040   1.584   5.885   6.685  0.2200  0.1056 -0.0846
  761SOL     ow 3041   2.119   6.613   1.095 -0.5873 -0.4345  0.3990
  761SOL     hw 3042   2.105   6.599   1.188 -0.3632 -3.0288  0.1282
  761SOL     hw 3043   2.031   6.621   1.058 -0.6657  1.1129  0.8397
  761SOL     vw 3044   2.105   6.612   1.102 -0.5679 -0.5727  0.4215
  762SOL     ow 3045   0.154   0.377   6.918 -0.3092  0.1458 -0.5224
  762SOL     hw 3046   0.111   0.303   6.875  2.2865 -0.9005 -1.5249
  762SOL     hw 3047   0.166   0.349   7.008 -2.7040  0.9575  0.1136
  762SOL     vw 3048   0.150   0.364   6.924 -0.2827  0.1148 -0.5708
  763SOL     ow 3049   5.575   5.935   2.358 -0.2605  0.2151  0.2884
  763SOL     hw 3050   5.583   5.984   2.440  0.5589 -1.7348  1.4452
  763SOL     hw 3051   5.488   5.894   2.363 -0.9437  1.4851 -0.6738
  763SOL     vw 3052   5.565   5.936   2.369 -0.2425  0.1256  0.3140
  764SOL     ow 3053   7.114   3.832   0.730  0.1616 -0.2844 -0.4756
  764SOL     hw 3054   7.094   3.910   0.781  0.4722 -1.2025  1.1151
  764SOL     hw 3055   7.203   3.846   0.698  0.7966 -0.5902  1.0662
  764SOL     vw 3056   7.123   3.844   0.732  0.2863 -0.4461 -0.0623
  765SOL     ow 3057   6.070   1.282   4.127 -0.2353 -0.8468  0.3566
  765SOL     hw 3058   6.150   1.299   4.178 -1.9572  2.0476  2.3665
  765SOL     hw 3059   6.039   1.197   4.159 -0.8925  0.5566  3.8624
  765SOL     vw 3060   6.077   1.273   4.138 -0.5491 -0.2798  1.0843
  766SOL     ow 3061   5.844   1.159   2.644 -0.0570 -0.0146  0.0147
  766SOL     hw 3062   5.772   1.205   2.689  0.7926  1.5306 -0.1350
  766SOL     hw 3063   5.806   1.075   2.619 -1.5079  0.3510  0.8325
  766SOL     vw 3064   5.829   1.154   2.647 -0.1364  0.2375  0.1028
  767SOL     ow 3065   0.884   3.341   1.070 -0.2121  0.0199 -0.0183
  767SOL     hw 3066   0.844   3.258   1.046  0.4680 -0.8692  1.7515
  767SOL     hw 3067   0.866   3.350   1.164 -0.1327  1.8003 -0.1438
  767SOL     vw 3068   0.877   3.331   1.079 -0.1119  0.1374  0.1987
  768SOL     ow 3069   2.493   4.191   5.377 -0.3814  0.2439 -0.0801
  768SOL     hw 3070   2.475   4.241   5.457 -2.6093  0.0393 -0.3918
  768SOL     hw 3071   2.476   4.100   5.402  1.9402 -0.2316  0.0043
  768SOL     vw 3072   2.488   4.185   5.391 -0.3690  0.1543 -0.1101
  769SOL     ow 3073   2.301   2.777   6.583 -0.3362  0.1280 -0.2193
  769SOL     hw 3074   2.250   2.850   6.619 -1.1879  0.3652 -1.8116
  769SOL     hw 3075   2.258   2.698   6.616 -0.2717  0.3274  0.3581
  769SOL     vw 3076   2.289   2.776   6.592 -0.4400  0.1856 -0.3533
  770SOL     ow 3077   5.968   5.189   3.133 -0.4264  0.1878  0.5262
  770SOL     hw 3078   5.903   5.208   3.065 -0.8429 -0.2269  0.8009
  770SOL     hw 3079   5.964   5.094   3.144 -0.3960  0.2564  1.1633
  770SOL     vw 3080   5.959   5.179   3.125 -0.4773  0.1423  0.6466
  771SOL     ow 3081   1.429   0.982   6.534 -1.0566 -0.3277 -0.1045
  771SOL     hw 3082   1.446   1.077   6.531  0.1064 -0.5278 -0.1367
  771SOL     hw 3083   1.415   0.964   6.627  2.4995 -0.7145  0.4716
  771SOL     vw 3084   1.429   0.992   6.546 -0.4339 -0.4052 -0.0329
  772SOL     ow 3085   6.287   3.855   0.451  0.6659  0.3523  0.1622
  772SOL     hw 3086   6.295   3.891   0.363  2.1269  0.6420  0.3843
  772SOL     hw 3087   6.222   3.785   0.442 -1.3382  2.1847 -0.5174
  772SOL     vw 3088   6.279   3.850   0.438  0.5944  0.6323  0.1018
  773SOL     ow 3089   4.869   5.096   6.530 -0.2982  0.3362  0.1707
  773SOL     hw 3090   4.832   5.141   6.453  2.2657  0.9597 -0.8059
  773SOL     hw 3091   4.923   5.027   6.493 -0.5437 -0.6182  1.5310
  773SOL     vw 3092   4.871   5.093   6.515  0.0079  0.2928  0.2213
  774SOL     ow 3093   1.387   5.885   2.743 -0.4088 -0.6086  1.0467
  774SOL     hw 3094   1.400   5.810   2.802  0.7099  0.4093  2.1464
  774SOL     hw 3095   1.472   5.896   2.700 -1.4110 -1.8692 -1.5205
  774SOL     vw 3096   1.400   5.876   2.745 -0.3935 -0.6404  0.8531
  775SOL     ow 3097   7.071   4.754   3.276 -0.7088 -0.5845  0.3281
  775SOL     hw 3098   6.978   4.773   3.280 -0.6906  0.0144 -1.4344
  775SOL     hw 3099   7.113   4.837   3.301 -0.6661 -0.0898 -1.2737
  775SOL     vw 3100   7.065   4.768   3.280 -0.7005 -0.4401 -0.1159
  776SOL     ow 3101   4.733   0.679   3.473 -0.8133 -0.0135  0.2724
  776SOL     hw 3102   4.724   0.694   3.567 -2.4442 -0.7759  0.2779
  776SOL     hw 3103   4.702   0.760   3.432 -1.1127 -0.0682  0.3884
  776SOL     vw 3104   4.728   0.692   3.480 -1.0676 -0.1214  0.2885
  777SOL     ow 3105   7.090   5.715   2.408 -0.3783  0.5722  0.6379
  777SOL     hw 3106   7.016   5.765   2.375 -0.1203  1.5145  1.4518
  777SOL     hw 3107   7.125   5.671   2.331  0.5043  3.0806 -0.5007
  777SOL     vw 3108   7.085   5.716   2.393 -0.2279  1.0273  0.5950
  778SOL     ow 3109   2.498   3.600   1.716  0.3609 -0.0117  0.1769
  778SOL     hw 3110   2.413   3.640   1.700  0.9300  1.3871  0.4925
  778SOL     hw 3111   2.487   3.508   1.692 -1.4845 -0.0615  1.0555
  778SOL     vw 3112   2.485   3.593   1.711  0.1924  0.1662  0.3344
  779SOL     ow 3113   0.455   3.348   4.597 -0.0834  0.5353  0.2759
  779SOL     hw 3114   0.531   3.331   4.653 -0.4465 -0.2900  0.5310
  779SOL     hw 3115   0.464   3.440   4.572  1.1847  0.3614  0.0211
  779SOL     vw 3116   0.466   3.358   4.601  0.0360  0.4034  0.2759
  780SOL     ow 3117   4.236   3.189   0.361  0.3054  0.2660  0.0532
  780SOL     hw 3118   4.265   3.098   0.353  0.9645  0.5412 -0.8629
  780SOL     hw 3119   4.308   3.240   0.325  0.2250  1.2065  1.1598
  780SOL     vw 3120   4.249   3.184   0.356  0.3819  0.4263  0.0784
  781SOL     ow 3121   5.273   6.698   3.802 -0.0617 -0.0949 -0.5204
  781SOL     hw 3122   5.205   6.758   3.772  0.7283  0.4450 -1.2768
  781SOL     hw 3123   5.318   6.745   3.872  0.9861  0.4892 -1.5627
  781SOL     vw 3124   5.270   6.712   3.808  0.1807  0.0536 -0.7577
  782SOL     ow 3125   4.930   2.972   2.538 -0.4063  0.3513  0.2699
  782SOL     hw 3126   4.955   3.060   2.567  1.6724 -0.2252  0.4154
  782SOL     hw 3127   4.935   2.918   2.616 -0.7169 -0.0927 -0.0107
  782SOL     vw 3128   4.934   2.977   2.552 -0.1731  0.2166  0.2521
  783SOL     ow 3129   6.685   5.838   2.257  0.1427  1.2398 -0.3455
  783SOL     hw 3130   6.773   5.859   2.287  0.5535  0.0732 -0.6917
  783SOL     hw 3131   6.646   5.923   2.237  1.6423  1.7222 -1.4131
  783SOL     vw 3132   6.691   5.852   2.258  0.3946  1.1497 -0.5322
  784SOL     ow 3133   0.710   4.460   3.947  0.0861  0.0659 -0.5810
  784SOL     hw 3134   0.749   4.518   4.012 -1.9937  0.2483  0.6055
  784SOL     hw 3135   0.733   4.500   3.863  2.5491  0.0141 -0.0085
  784SOL     vw 3136   0.718   4.473   3.944  0.1366  0.0832 -0.3488
  785SOL     ow 3137   4.698   2.181   0.748  0.4080  0.3345  0.7475
  785SOL     hw 3138   4.726   2.260   0.703 -2.3101  1.0935  0.2403
  785SOL     hw 3139   4.640   2.212   0.818  0.3913 -1.1507  1.4302
  785SOL     vw 3140   4.694   2.195   0.752  0.0470  0.2388  0.7706
  786SOL     ow 3141   1.192   0.159   3.670 -0.0143  0.1624 -0.1616
  786SOL     hw 3142   1.097   0.161   3.679  0.0373 -0.4934  0.6554
  786SOL     hw 3143   1.213   0.239   3.622 -0.7780  1.5348  1.6808
  786SOL     vw 3144   1.182   0.170   3.665 -0.1083  0.2569  0.1892
  787SOL     ow 3145   2.894   0.998   5.372  0.0551  0.2194  0.4962
  787SOL     hw 3146   2.902   0.912   5.413  0.0647  1.3358  3.0105
  787SOL     hw 3147   2.984   1.020   5.347 -0.1273 -1.0361 -1.4996
  787SOL     vw 3148   2.907   0.989   5.374  0.0322  0.2011  0.5648
  788SOL     ow 3149   0.315   1.211   7.176 -0.3710 -0.3481  0.4734
  788SOL     hw 3150   0.298   1.183   7.266  1.6469 -0.8519  0.7539
  788SOL     hw 3151   0.272   1.145   7.122 -0.2820 -0.9323  1.0924
  788SOL     vw 3152   0.307   1.199   7.181 -0.0931 -0.4916  0.5920
  789SOL     ow 3153   7.212   5.747   6.379  0.2602  0.0710 -0.0383
  789SOL     hw 3154   7.297   5.706   6.398  0.0352 -0.4198 -0.0798
  789SOL     hw 3155   7.212   5.826   6.432  1.1111  0.5314 -0.6857
  789SOL     vw 3156   7.223   5.752   6.388  0.3428  0.0668 -0.1290
  790SOL     ow 3157   2.244   1.951   4.401  0.3183 -0.3065  0.3736
  790SOL     hw 3158   2.304   2.023   4.422  0.4951 -0.5513  0.7139
  790SOL     hw 3159   2.299   1.873   4.400  0.0447 -0.5017  0.4514
  790SOL     vw 3160   2.259   1.950   4.403  0.3054 -0.3645  0.4289
  791SOL     ow 3161   6.528   0.771   6.850 -0.2100 -0.2776 -0.4189
  791SOL     hw 3162   6.509   0.812   6.935 -1.2686 -0.6042 -0.4847
  791SOL     hw 3163   6.600   0.823   6.815  0.4266 -0.3066  0.7948
  791SOL     vw 3164   6.535   0.784   6.857 -0.2661 -0.3245 -0.2677
  792SOL     ow 3165   1.980   3.145   1.343  0.2457  0.1640  0.5631
  792SOL     hw 3166   2.005   3.055   1.321 -1.3230  0.0606 -0.9102
  792SOL     hw 3167   1.928   3.136   1.423 -1.2684 -0.4412 -0.4631
  792SOL     vw 3168   1.977   3.132   1.351 -0.1612  0.0706  0.2332
  793SOL     ow 3169   5.514   0.126   6.653 -0.2395 -0.0150 -0.0675
  793SOL     hw 3170   5.589   0.155   6.704 -0.1141  0.6295 -0.6042
  793SOL     hw 3171   5.446   0.108   6.718  0.2054 -0.0875  0.3835
  793SOL     vw 3172   5.515   0.127   6.668 -0.1645  0.0605 -0.0789
  794SOL     ow 3173   5.602   3.383   5.335  0.1235 -0.0219  0.4837
  794SOL     hw 3174   5.557   3.424   5.409 -1.1881 -0.1140 -0.2336
  794SOL     hw 3175   5.673   3.332   5.375  0.0011  0.6474  1.5959
  794SOL     vw 3176   5.606   3.382   5.350 -0.0653  0.0544  0.5362
  795SOL     ow 3177   4.180   5.923   2.805 -0.0966  0.2501 -0.5374
  795SOL     hw 3178   4.164   5.956   2.717  1.7747  0.4383 -0.8566
  795SOL     hw 3179   4.270   5.890   2.802  1.0711  2.7586  2.0054
  795SOL     vw 3180   4.190   5.923   2.793  0.3045  0.6058 -0.2441
  796SOL     ow 3181   4.140   2.469   6.516 -0.0120 -0.1649 -0.5599
  796SOL     hw 3182   4.114   2.558   6.490  2.9459  0.3466 -2.2887
  796SOL     hw 3183   4.082   2.447   6.589 -1.9501  2.5088 -1.1447
  796SOL     vw 3184   4.129   2.478   6.523  0.1228  0.2553 -0.8652
  797SOL     ow 3185   6.446   3.498   5.879  0.1129  0.1724 -0.0423
  797SOL     hw 3186   6.386   3.431   5.846 -0.2227  0.6548 -0.4239
  797SOL     hw 3187   6.478   3.462   5.962 -1.4032  0.2994  0.6372
  797SOL     vw 3188   6.442   3.484   5.885 -0.1314  0.2528 -0.0031
  798SOL     ow 3189   1.564   6.086   2.369 -0.0863  0.5187 -0.0751
  798SOL     hw 3190   1.572   6.107   2.276 -1.2535  1.5702  0.0340
  798SOL     hw 3191   1.652   6.060   2.396  0.2350  0.0608 -1.4972
  798SOL     vw 3192   1.576   6.086   2.361 -0.1979  0.5972 -0.2484
  799SOL     ow 3193   0.871   5.802   7.080 -0.5518  0.1403  0.2389
  799SOL     hw 3194   0.844   5.871   7.140 -0.9899 -0.4069  0.6806
  799SOL     hw 3195   0.903   5.849   7.003 -2.1712  0.8458 -0.0568
  799SOL     vw 3196   0.871   5.817   7.077 -0.8233  0.1609  0.2584
  800SOL     ow 3197   1.527   5.072   1.966  0.4150  0.7869 -0.0067
  800SOL     hw 3198   1.525   4.978   1.984  2.8721  0.8661  1.0928
  800SOL     hw 3199   1.595   5.083   1.901  0.2518  1.8235 -0.0172
  800SOL     vw 3200   1.536   5.061   1.960  0.7177  0.9341  0.1370
  801SOL     ow 3201   1.661   3.888   4.923  0.4833  0.0073  0.6044
  801SOL     hw 3202   1.743   3.840   4.933 -0.8147 -2.4384  0.1411
  801SOL     hw 3203   1.680   3.955   4.857  1.4710 -2.1291 -1.3984
  801SOL     vw 3204   1.674   3.891   4.916  0.4424 -0.5972  0.2789
  802SOL     ow 3205   0.235   4.957   6.793  0.1108  0.1955  0.1554
  802SOL     hw 3206   0.256   4.987   6.705 -0.2513  0.1198  0.0402
  802SOL     hw 3207   0.197   5.033   6.836  1.5887  0.6455  0.7153
  802SOL     vw 3208   0.233   4.971   6.787  0.2580  0.2449  0.2141
  803SOL     ow 3209   0.893   4.646   0.603 -0.8469 -0.0209  0.2273
  803SOL     hw 3210   0.926   4.708   0.538 -0.6804  0.9819  1.2377
  803SOL     hw 3211   0.801   4.632   0.580 -0.6117 -0.1937 -0.6098
  803SOL     vw 3212   0.885   4.652   0.592 -0.7939  0.0889  0.2502
  804SOL     ow 3213   5.539   5.927   6.768 -0.4948 -0.6045  0.2477
  804SOL     hw 3214   5.560   5.854   6.826  1.7242 -1.0516 -0.9851
  804SOL     hw 3215   5.609   5.991   6.783 -0.4610 -0.2744 -1.1284
  804SOL     vw 3216   5.551   5.926   6.777 -0.1979 -0.6204 -0.0966
  805SOL     ow 3217   3.914   2.637   5.210 -0.2205 -0.7635 -0.3576
  805SOL     hw 3218   3.996   2.681   5.190 -0.9024  0.9615  0.4269
  805SOL     hw 3219   3.923   2.611   5.302 -1.0656  0.7466  0.1881
  805SOL     vw 3220   3.926   2.640   5.220 -0.4219 -0.3368 -0.1822
  806SOL     ow 3221   3.523   1.841   4.175  0.0554 -0.9626 -0.1240
  806SOL     hw 3222   3.437   1.875   4.202  1.3639  2.0071  0.6524
  806SOL     hw 3223   3.537   1.877   4.088  0.9668 -0.4730  0.2136
  806SOL     vw 3224   3.513   1.850   4.167  0.3483 -0.5062  0.0229
  807SOL     ow 3225   4.631   5.926   4.926 -0.4112 -0.3706 -0.2702
  807SOL     hw 3226   4.539   5.926   4.951  0.2743  1.0736  2.6786
  807SOL     hw 3227   4.639   6.001   4.866 -1.0284 -0.0760  0.0100
  807SOL     vw 3228   4.620   5.936   4.921 -0.4025 -0.1411  0.1559
  808SOL     ow 3229   3.479   0.848   0.017 -0.3595 -0.6485 -0.1410
  808SOL     hw 3230   3.533   0.892   0.083  1.7903 -2.1369 -0.7908
  808SOL     hw 3231   3.493   0.899  -0.063  0.8460 -1.5017 -0.5093
  808SOL     vw 3232   3.488   0.861   0.015  0.0831 -0.9575 -0.2753
  809SOL     ow 3233   2.316   2.563   0.344  0.1382  0.3075 -0.8048
  809SOL     hw 3234   2.326   2.499   0.273 -1.4906  0.1718 -0.9545
  809SOL     hw 3235   2.258   2.519   0.407 -0.7307  1.4928 -0.7480
  809SOL     vw 3236   2.309   2.549   0.343 -0.1913  0.4460 -0.8171
  810SOL     ow 3237   1.535   2.165   4.361 -0.0672 -0.5436 -0.0815
  810SOL     hw 3238   1.595   2.234   4.390  0.9788 -0.2203 -2.7080
  810SOL     hw 3239   1.448   2.202   4.372  0.3486  0.2014  0.8840
  810SOL     vw 3240   1.532   2.179   4.366  0.1256 -0.4026 -0.3004
  811SOL     ow 3241   3.131   0.386   3.959 -0.1136  0.1179  0.5898
  811SOL     hw 3242   3.154   0.353   4.046 -0.2104  0.9996  0.9604
  811SOL     hw 3243   3.185   0.336   3.899  0.0087 -0.4497  1.1671
  811SOL     vw 3244   3.141   0.375   3.963 -0.1103  0.1593  0.7148
  812SOL     ow 3245   5.169   6.157   3.926 -0.2151 -0.5497  0.7914
  812SOL     hw 3246   5.149   6.102   4.001  2.3284 -0.4225  1.6664
  812SOL     hw 3247   5.194   6.095   3.857 -0.9871 -0.5968  0.5405
  812SOL     vw 3248   5.170   6.141   3.927  0.0184 -0.5391  0.8736
  813SOL     ow 3249   4.732   2.713   6.753 -0.1582 -0.2510  0.2017
  813SOL     hw 3250   4.821   2.740   6.773 -0.5418 -0.2532  2.1173
  813SOL     hw 3251   4.741   2.633   6.701  0.9513 -0.6990  1.0597
  813SOL     vw 3252   4.745   2.706   6.749 -0.0622 -0.3103  0.5679
  814SOL     ow 3253   2.721   7.169   4.381 -0.0206 -0.5697  0.4065
  814SOL     hw 3254   2.774   7.094   4.357  1.1902  0.2692  0.3785
  814SOL     hw 3255   2.768   7.211   4.453 -0.0724  0.7698 -0.2946
  814SOL     vw 3256   2.734   7.165   4.387  0.1323 -0.2823  0.3102
  815SOL     ow 3257   7.094   6.655   1.036 -0.6012  0.5101 -0.6891
  815SOL     hw 3258   7.162   6.591   1.059 -1.3275 -0.0894 -0.1779
  815SOL     hw 3259   7.138   6.715   0.975  0.7082  0.7827  0.4692
  815SOL     vw 3260   7.109   6.654   1.031 -0.5245  0.4668 -0.4688
  816SOL     ow 3261   0.630   6.466   0.135 -0.0847 -0.1986  0.6593
  816SOL     hw 3262   0.663   6.440   0.221 -1.4090 -0.0771  1.2297
  816SOL     hw 3263   0.542   6.500   0.153 -0.3699 -0.1555 -0.7408
  816SOL     vw 3264   0.623   6.467   0.149 -0.2971 -0.1769  0.5499
  817SOL     ow 3265   0.726   3.965   4.112 -0.7207 -0.6377 -0.5264
  817SOL     hw 3266   0.684   4.051   4.110  0.3563 -0.0927 -0.3087
  817SOL     hw 3267   0.660   3.908   4.152 -1.8996 -0.1921 -1.7179
  817SOL     vw 3268   0.712   3.969   4.117 -0.7341 -0.5071 -0.6547
  818SOL     ow 3269   1.624   1.503   2.389 -0.1604 -0.0055  0.0805
  818SOL     hw 3270   1.628   1.591   2.426  2.9753 -0.7674  1.9283
  818SOL     hw 3271   1.620   1.445   2.465  1.1850 -1.5224 -0.9240
  818SOL     vw 3272   1.624   1.507   2.404  0.4308 -0.3062  0.1917
  819SOL     ow 3273   0.554   4.087   3.669 -0.2100 -0.1708 -0.0366
  819SOL     hw 3274   0.461   4.071   3.685  0.2439 -0.7475  2.6102
  819SOL     hw 3275   0.592   4.000   3.656  0.0784  0.0035 -0.3830
  819SOL     vw 3276   0.546   4.074   3.670 -0.1121 -0.2236  0.2669
  820SOL     ow 3277   1.101   4.535   4.121  0.5069  0.0533 -0.0154
  820SOL     hw 3278   1.032   4.549   4.185  0.5400  0.0413  0.0230
  820SOL     hw 3279   1.056   4.535   4.036  0.1731 -1.8560  0.1258
  820SOL     vw 3280   1.086   4.537   4.118  0.4672 -0.2003  0.0083
  821SOL     ow 3281   4.748   4.555   3.117  0.0029 -0.0692  0.0492
  821SOL     hw 3282   4.762   4.462   3.137  1.3318 -0.4827 -2.3481
  821SOL     hw 3283   4.653   4.565   3.118 -0.2084 -1.6700 -0.3917
  821SOL     vw 3284   4.737   4.544   3.120  0.1504 -0.3352 -0.3253
  822SOL     ow 3285   0.374   1.515   4.069  0.3296 -0.5866  0.2053
  822SOL     hw 3286   0.311   1.577   4.034 -1.4760 -1.2471  2.1065
  822SOL     hw 3287   0.444   1.569   4.106 -0.3319  0.2630  0.2293
  822SOL     vw 3288   0.375   1.530   4.070  0.0041 -0.5617  0.4592
  823SOL     ow 3289   3.408   6.354   0.222 -0.4534 -0.0152  0.3491
  823SOL     hw 3290   3.355   6.319   0.150  0.0168  0.9729 -0.5119
  823SOL     hw 3291   3.445   6.435   0.187  0.9432 -0.2351  1.2172
  823SOL     vw 3292   3.406   6.360   0.208 -0.2071  0.0865  0.3500
  824SOL     ow 3293   6.893   6.215   5.190  0.0959 -0.3592 -0.1921
  824SOL     hw 3294   6.961   6.271   5.154  0.4971 -0.8685 -0.2367
  824SOL     hw 3295   6.848   6.270   5.254 -0.6783  0.5858 -1.5016
  824SOL     vw 3296   6.896   6.229   5.194  0.0470 -0.3018 -0.3707
  825SOL     ow 3297   2.983   5.788   4.073 -0.1466  0.0033 -0.2472
  825SOL     hw 3298   2.945   5.710   4.113  0.0562 -1.3318 -2.4374
  825SOL     hw 3299   3.064   5.803   4.121  1.3326 -2.9864 -1.4938
  825SOL     vw 3300   2.989   5.779   4.084  0.0752 -0.5674 -0.7007
  826SOL     ow 3301   5.554   5.532   4.859  0.6657 -0.0167 -0.2606
  826SOL     hw 3302   5.642   5.556   4.889  0.3542 -0.9580  1.5266
  826SOL     hw 3303   5.495   5.583   4.914  0.0557  0.2465 -1.1260
  826SOL     vw 3304   5.558   5.542   4.870  0.5441 -0.1063 -0.1392
  827SOL     ow 3305   3.565   0.805   2.958 -0.6667 -0.0848  0.3068
  827SOL     hw 3306   3.531   0.833   2.873 -1.6708  1.2560  1.1101
  827SOL     hw 3307   3.659   0.820   2.953 -0.8466  0.9382 -0.2345
  827SOL     vw 3308   3.573   0.811   2.946 -0.8230  0.2270  0.3414
  828SOL     ow 3309   5.448   3.362   4.011  0.3548 -0.3429 -0.2000
  828SOL     hw 3310   5.504   3.332   4.083  0.3103 -2.0510 -0.8115
  828SOL     hw 3311   5.409   3.281   3.977  0.0719  0.4667 -1.8838
  828SOL     vw 3312   5.450   3.347   4.016  0.3116 -0.4613 -0.5026
  829SOL     ow 3313   0.510   1.348   3.892  0.0023 -0.6499  0.3303
  829SOL     hw 3314   0.438   1.394   3.936  0.1269 -0.2913  0.1632
  829SOL     hw 3315   0.504   1.377   3.801  0.3475 -0.6299  0.3134
  829SOL     vw 3316   0.500   1.358   3.886  0.0643 -0.6000  0.3059
  830SOL     ow 3317   1.911   6.776   3.082 -0.4151  0.0463 -0.0314
  830SOL     hw 3318   1.946   6.823   3.006  1.4356  1.4195  1.5393
  830SOL     hw 3319   1.954   6.691   3.079  2.7119  1.3795  1.3509
  830SOL     vw 3320   1.921   6.771   3.071  0.2416  0.4036  0.3583
  831SOL     ow 3321   0.737   3.939   3.030  1.0314  0.3054 -0.5797
  831SOL     hw 3322   0.736   3.909   2.939  0.5953 -1.1866 -0.1040
  831SOL     hw 3323   0.746   3.859   3.082 -0.6194  0.9369  0.7713
  831SOL     vw 3324   0.738   3.924   3.025  0.7560  0.1919 -0.3387
  832SOL     ow 3325   5.620   7.166   3.989  0.0143  0.6436 -0.0638
  832SOL     hw 3326   5.681   7.213   4.046 -1.7932  1.1666  1.5650
  832SOL     hw 3327   5.582   7.098   4.045 -0.7316  0.1871 -1.0815
  832SOL     vw 3328   5.623   7.163   4.004 -0.3226  0.6521  0.0169
  833SOL     ow 3329   4.744   1.732   6.048  0.3155  0.0844 -0.0861
  833SOL     hw 3330   4.719   1.796   6.115 -0.0407 -1.5728  1.4679
  833SOL     hw 3331   4.664   1.683   6.031  1.3474 -2.5140  1.7869
  833SOL     vw 3332   4.730   1.734   6.055  0.4046 -0.4771  0.3662
  834SOL     ow 3333   0.628   6.150   2.372 -0.2711 -0.3747 -0.3353
  834SOL     hw 3334   0.693   6.211   2.406 -0.2289 -0.4192 -0.3352
  834SOL     hw 3335   0.670   6.112   2.294 -0.0844 -0.7964 -0.0322
  834SOL     vw 3336   0.643   6.153   2.366 -0.2409 -0.4365 -0.2953
  835SOL     ow 3337   5.780   2.557   2.518  0.5373  0.5980 -0.3896
  835SOL     hw 3338   5.756   2.502   2.444  0.7191  0.6201 -0.4642
  835SOL     hw 3339   5.715   2.628   2.516 -0.2921 -0.1167  0.2797
  835SOL     vw 3340   5.768   2.559   2.508  0.4518  0.5066 -0.3111
  836SOL     ow 3341   5.010   2.100   2.981 -0.4279  0.0256 -0.6289
  836SOL     hw 3342   5.079   2.051   2.937  0.1716  2.4510 -2.6142
  836SOL     hw 3343   4.987   2.047   3.058 -0.4210 -3.7053 -2.9683
  836SOL     vw 3344   5.016   2.086   2.986 -0.3479 -0.1465 -1.1994
  837SOL     ow 3345   6.119   3.146   4.334  0.3922 -1.0321 -0.1855
  837SOL     hw 3346   6.134   3.054   4.310  3.2207 -0.7246  0.1475
  837SOL     hw 3347   6.201   3.190   4.313 -1.2890  1.7340 -1.4913
  837SOL     vw 3348   6.132   3.139   4.328  0.5434 -0.6264 -0.3140
  838SOL     ow 3349   2.754   5.480   5.398  0.1043  0.4953 -0.0409
  838SOL     hw 3350   2.728   5.420   5.468  0.2715 -1.4071 -1.5248
  838SOL     hw 3351   2.671   5.515   5.365 -0.0675  0.2408  0.1158
  838SOL     vw 3352   2.739   5.477   5.403  0.1037  0.2108 -0.2158
  839SOL     ow 3353   6.246   3.097   0.512 -0.0700 -0.4423  0.2448
  839SOL     hw 3354   6.277   3.028   0.571 -2.0542 -2.0607 -0.4635
  839SOL     hw 3355   6.167   3.131   0.554 -0.5571 -0.4473 -0.6334
  839SOL     vw 3356   6.240   3.092   0.525 -0.3960 -0.6566  0.0355
  840SOL     ow 3357   7.026   0.770   5.592 -0.0406 -0.0604  0.3261
  840SOL     hw 3358   7.000   0.699   5.650  0.2619  0.9425  1.7538
  840SOL     hw 3359   6.985   0.848   5.630  0.9933  0.7793 -0.2285
  840SOL     vw 3360   7.017   0.771   5.604  0.1357  0.1827  0.4411
  841SOL     ow 3361   7.196   1.252   4.966  0.2464 -0.1965  0.4180
  841SOL     hw 3362   7.213   1.175   5.020  1.1661 -0.4149 -0.1475
  841SOL     hw 3363   7.117   1.230   4.916 -1.6806  0.7007  2.8806
  841SOL     vw 3364   7.188   1.239   4.967  0.1135 -0.1070  0.6685
  842SOL     ow 3365   3.250   4.797   6.788  0.3609  0.8051 -0.5874
  842SOL     hw 3366   3.243   4.886   6.754 -0.5272  1.0122  0.0834
  842SOL     hw 3367   3.194   4.798   6.867 -0.2873 -0.5491 -1.0100
  842SOL     vw 3368   3.241   4.809   6.794  0.1582  0.6535 -0.5548
  843SOL     ow 3369   5.304   1.592   5.850 -0.1934 -0.0112 -0.4365
  843SOL     hw 3370   5.381   1.595   5.907 -0.2629 -2.1129 -0.1616
  843SOL     hw 3371   5.340   1.602   5.762  0.6835 -2.5209 -0.4532
  843SOL     vw 3372   5.319   1.594   5.846 -0.0868 -0.6196 -0.4025
  844SOL     ow 3373   3.761   6.719   4.385 -0.7381  0.0700  0.1523
  844SOL     hw 3374   3.841   6.771   4.397 -0.3090 -0.1551 -1.5388
  844SOL     hw 3375   3.713   6.764   4.315 -0.8938 -1.1860 -0.5712
  844SOL     vw 3376   3.765   6.732   4.377 -0.7019 -0.1256 -0.1662
  845SOL     ow 3377   4.216   7.164   4.866  0.0232 -0.0561 -0.5974
  845SOL     hw 3378   4.213   7.069   4.876 -0.0262 -0.0672 -0.7251
  845SOL     hw 3379   4.306   7.183   4.839 -0.0833 -0.1052 -0.9924
  845SOL     vw 3380   4.228   7.154   4.864  0.0026 -0.0641 -0.6666
  846SOL     ow 3381   2.443   0.778   0.000 -0.1226 -0.4614 -0.4340
  846SOL     hw 3382   2.461   0.856  -0.052 -0.6578  0.1456  0.2616
  846SOL     hw 3383   2.434   0.708  -0.064 -0.9016  0.2845 -1.1666
  846SOL     vw 3384   2.444   0.779  -0.015 -0.2959 -0.2829 -0.4389
  847SOL     ow 3385   1.141   2.856   4.453  0.7373 -0.0585 -0.1429
  847SOL     hw 3386   1.173   2.802   4.525  0.7904  0.3425  0.1389
  847SOL     hw 3387   1.075   2.912   4.493  1.1623  0.5558 -0.2829
  847SOL     vw 3388   1.136   2.856   4.468  0.8004  0.0753 -0.1242
  848SOL     ow 3389   2.070   2.548   6.642 -0.0364  0.4625 -0.4803
  848SOL     hw 3390   2.055   2.474   6.702  1.5388 -0.0250 -0.6423
  848SOL     hw 3391   2.072   2.625   6.699 -3.3309  0.6967 -0.4717
  848SOL     vw 3392   2.068   2.548   6.658 -0.2632  0.4290 -0.5004
  849SOL     ow 3393   3.035   4.598   6.765 -0.1781  0.0517 -0.3132
  849SOL     hw 3394   2.976   4.673   6.768 -0.1222  0.1282 -0.9995
  849SOL     hw 3395   2.990   4.533   6.711 -0.1205 -0.3231  0.0809
  849SOL     vw 3396   3.022   4.599   6.758 -0.1632  0.0124 -0.3519
  850SOL     ow 3397   3.311   2.807   2.718  0.2030 -0.4476 -0.7604
  850SOL     hw 3398   3.294   2.858   2.797 -1.6128 -0.8145 -0.8733
  850SOL     hw 3399   3.404   2.819   2.701 -0.3169  4.2801 -1.7359
  850SOL     vw 3400   3.321   2.816   2.726 -0.1053  0.1277 -0.9041
  851SOL     ow 3401   3.622   5.330   3.793  0.1428  0.1570 -0.0048
  851SOL     hw 3402   3.658   5.338   3.881  2.9349 -0.1227 -1.0471
  851SOL     hw 3403   3.550   5.394   3.791  0.1969  0.3762  2.3352
  851SOL     vw 3404   3.617   5.339   3.805  0.5182  0.1488  0.1663
  852SOL     ow 3405   2.102   1.960   0.198 -0.1605 -0.5719  0.1773
  852SOL     hw 3406   2.083   1.929   0.109  0.0695  1.4285 -0.6147
  852SOL     hw 3407   2.197   1.948   0.208  0.3533  1.9030 -1.0267
  852SOL     vw 3408   2.112   1.954   0.187 -0.0625  0.0185 -0.0860
  853SOL     ow 3409   0.216   2.268   0.013 -0.0200 -0.3333 -0.0342
  853SOL     hw 3410   0.307   2.286  -0.010  0.0779 -0.6151  0.1160
  853SOL     hw 3411   0.223   2.209   0.088 -0.3133  1.6889  1.6699
  853SOL     vw 3412   0.229   2.262   0.020 -0.0458 -0.1036  0.2104
  854SOL     ow 3413   1.787   1.863   3.189  0.6043  0.0894  0.5807
  854SOL     hw 3414   1.773   1.792   3.252 -0.8451 -1.1446 -1.0375
  854SOL     hw 3415   1.730   1.934   3.219  0.7777 -0.0398  1.2489
  854SOL     vw 3416   1.778   1.863   3.201  0.4359 -0.0905  0.4554
  855SOL     ow 3417   5.018   6.800   2.014  0.2886  0.2501 -0.0959
  855SOL     hw 3418   4.959   6.820   2.086 -0.4395 -1.2142 -0.2380
  855SOL     hw 3419   5.020   6.880   1.961 -1.1431  0.5140  0.2138
  855SOL     vw 3420   5.010   6.813   2.016  0.0033  0.0918 -0.0739
  856SOL     ow 3421   7.154   5.425   1.823  0.5668 -0.2922  0.4862
  856SOL     hw 3422   7.176   5.368   1.897 -1.9105  1.6244  2.9309
  856SOL     hw 3423   7.204   5.505   1.840 -0.0900  0.1992  0.1593
  856SOL     vw 3424   7.164   5.428   1.835  0.1531  0.0255  0.7656
  857SOL     ow 3425   6.331   5.055   3.722  0.1732  0.7494 -0.3606
  857SOL     hw 3426   6.314   5.067   3.628  0.7328  3.0010 -0.2293
  857SOL     hw 3427   6.258   5.100   3.765 -2.3248 -3.5905  0.4537
  857SOL     vw 3428   6.319   5.063   3.715 -0.0827  0.4742 -0.2359
  858SOL     ow 3429   0.995   2.207   4.938 -0.3943  0.3425  0.5354
  858SOL     hw 3430   0.933   2.258   4.886 -0.8897 -0.6813  0.0966
  858SOL     hw 3431   1.018   2.265   5.011 -0.7796  1.2647 -0.0506
  858SOL     vw 3432   0.990   2.222   4.941 -0.5105  0.3291  0.4003
  859SOL     ow 3433   5.505   5.962   4.319  0.3482  0.2979  1.2442
  859SOL     hw 3434   5.514   5.942   4.226 -1.4894  2.8693  0.3783
  859SOL     hw 3435   5.589   6.001   4.344  1.4380 -1.8815  1.1730
  859SOL     vw 3436   5.518   5.965   4.310  0.2496  0.3498  1.1208
  860SOL     ow 3437   3.180   3.730   3.785 -0.2934  0.6885  0.0986
  860SOL     hw 3438   3.242   3.747   3.855  2.1953  0.2365 -1.8627
  860SOL     hw 3439   3.165   3.635   3.789 -2.0720  0.9515  1.4087
  860SOL     vw 3440   3.186   3.719   3.795 -0.1999  0.6634  0.0128
  861SOL     ow 3441   1.343   0.570   2.825  0.1911 -0.2365 -0.1573
  861SOL     hw 3442   1.419   0.567   2.768 -0.3806  2.1605 -1.1834
  861SOL     hw 3443   1.271   0.537   2.772  0.0114  0.1967 -0.1912
  861SOL     vw 3444   1.344   0.565   2.811  0.0920  0.1369 -0.2972
  862SOL     ow 3445   6.186   4.631   5.121  0.0714  0.1285 -0.3400
  862SOL     hw 3446   6.130   4.684   5.064  0.0336 -0.8606 -1.2467
  862SOL     hw 3447   6.267   4.621   5.071 -0.4547 -1.9021 -0.8604
  862SOL     vw 3448   6.189   4.637   5.107 -0.0029 -0.2701 -0.5283
  863SOL     ow 3449   6.910   5.232   2.930 -0.2245 -0.0224 -0.2576
  863SOL     hw 3450   6.937   5.144   2.959  0.3609 -0.0050 -0.7385
  863SOL     hw 3451   6.814   5.227   2.927 -0.5123  0.5209  3.4451
  863SOL     vw 3452   6.901   5.220   2.934 -0.1850  0.0515  0.1676
  864SOL     ow 3453   7.130   2.948   0.388 -0.2254 -0.1386  0.1797
  864SOL     hw 3454   7.081   2.891   0.447 -1.2370 -1.1348 -1.5359
  864SOL     hw 3455   7.215   2.960   0.431 -1.0209 -0.5846  1.9423
  864SOL     vw 3456   7.135   2.942   0.401 -0.4637 -0.3288  0.1859
  865SOL     ow 3457   3.265   5.252   5.644 -0.5532 -0.0932  0.6808
  865SOL     hw 3458   3.325   5.325   5.655  1.4952 -1.5750 -0.0906
  865SOL     hw 3459   3.280   5.195   5.719  1.3560 -1.9794 -0.9918
  865SOL     vw 3460   3.275   5.254   5.655 -0.0310 -0.5376  0.3586
  866SOL     ow 3461   4.515   2.099   0.507 -0.5683 -0.1918 -0.0613
  866SOL     hw 3462   4.442   2.038   0.499 -1.0503  0.5673 -2.4198
  866SOL     hw 3463   4.474   2.186   0.497  0.1593  0.5379  2.6572
  866SOL     vw 3464   4.500   2.103   0.504 -0.5355  0.0045 -0.0138
  867SOL     ow 3465   4.461   4.974   0.709  0.2373 -0.3399 -0.3454
  867SOL     hw 3466   4.392   4.932   0.760 -0.1630  1.0478  0.3064
  867SOL     hw 3467   4.424   4.984   0.622 -0.5895  0.7886  0.1110
  867SOL     vw 3468   4.447   4.970   0.704  0.0756 -0.0079 -0.1992
  868SOL     ow 3469   3.367   2.804   4.843  0.0114 -0.2495  0.4789
  868SOL     hw 3470   3.298   2.738   4.843  0.5900 -0.8705  0.2038
  868SOL     hw 3471   3.419   2.785   4.765 -0.0012  0.7460  0.2064
  868SOL     vw 3472   3.365   2.793   4.833  0.0862 -0.2000  0.4067
  869SOL     ow 3473   6.491   6.795   2.571  0.1115  0.0959  1.0964
  869SOL     hw 3474   6.466   6.857   2.502  2.5430 -0.8378 -0.7611
  869SOL     hw 3475   6.535   6.849   2.637 -0.2686  0.6894  0.8768
  869SOL     vw 3476   6.493   6.810   2.571  0.3824  0.0510  0.8223
  870SOL     ow 3477   6.143   2.435   2.243 -0.6235 -0.3840  0.0257
  870SOL     hw 3478   6.126   2.437   2.149 -0.3568  0.2765 -0.0112
  870SOL     hw 3479   6.099   2.514   2.277  0.5142  0.1797  0.2393
  870SOL     vw 3480   6.135   2.446   2.235 -0.4380 -0.2226  0.0491
  871SOL     ow 3481   3.606   4.882   3.455 -0.3325 -0.1806  0.2635
  871SOL     hw 3482   3.680   4.821   3.458  0.5781  0.8955  0.3523
  871SOL     hw 3483   3.532   4.829   3.424  0.4859 -1.2636  0.1130
  871SOL     vw 3484   3.606   4.867   3.452 -0.1044 -0.1814  0.2553
  872SOL     ow 3485   7.254   0.926   1.511 -0.2716  0.4360 -0.3749
  872SOL     hw 3486   7.247   0.882   1.427  1.8299  1.2239 -1.0241
  872SOL     hw 3487   7.348   0.938   1.524 -0.6363  1.8593  1.2744
  872SOL     vw 3488   7.266   0.922   1.502 -0.0424  0.7277 -0.2430
  873SOL     ow 3489   0.182   6.404   6.962  0.0363 -0.1591  0.1026
  873SOL     hw 3490   0.130   6.469   7.010 -1.3938  1.1643 -2.9349
  873SOL     hw 3491   0.118   6.356   6.910  1.5997 -0.1223 -1.9708
  873SOL     vw 3492   0.166   6.406   6.961  0.0539  0.0200 -0.5717
  874SOL     ow 3493   6.206   3.247   6.619  0.2047 -0.3376 -0.1425
  874SOL     hw 3494   6.113   3.224   6.624 -0.3736  1.6174 -1.0068
  874SOL     hw 3495   6.239   3.237   6.708 -1.1441  0.1343  0.4214
  874SOL     vw 3496   6.198   3.243   6.631 -0.0496 -0.0175 -0.1822
  875SOL     ow 3497   0.030   3.426   6.560  0.2232  0.3575  0.0935
  875SOL     hw 3498   0.049   3.385   6.476 -1.9553 -1.1019  0.2437
  875SOL     hw 3499  -0.049   3.478   6.545  0.5624  1.1550  0.9310
  875SOL     vw 3500   0.022   3.428   6.547 -0.0195  0.2701  0.2239
  876SOL     ow 3501   3.660   5.301   3.500  0.8950 -0.1234 -0.1764
  876SOL     hw 3502   3.691   5.256   3.422  1.2740  1.6201 -1.0835
  876SOL     hw 3503   3.686   5.392   3.487 -0.2267  0.4615  1.3642
  876SOL     vw 3504   3.667   5.307   3.488  0.7970  0.1838 -0.0929
  877SOL     ow 3505   5.199   2.019   3.451 -0.2024  0.2082  0.3012
  877SOL     hw 3506   5.170   1.943   3.502 -0.6559  0.4787  0.4457
  877SOL     hw 3507   5.209   1.985   3.362 -0.5222  0.0042  0.3416
  877SOL     vw 3508   5.196   2.004   3.446 -0.3045  0.2170  0.3254
  878SOL     ow 3509   6.115   3.958   0.682  0.3688 -0.0722 -0.1238
  878SOL     hw 3510   6.079   3.922   0.763  0.2142  2.6708  1.1443
  878SOL     hw 3511   6.039   3.971   0.625 -0.1103  1.3887  0.7752
  878SOL     vw 3512   6.100   3.955   0.685  0.2849  0.4824  0.1621
  879SOL     ow 3513   0.927   6.017   4.985 -0.0128  0.0137  0.2259
  879SOL     hw 3514   0.888   5.949   4.931  0.6012  0.7013 -1.1226
  879SOL     hw 3515   0.988   5.970   5.042  0.6448 -0.5512 -0.9097
  879SOL     vw 3516   0.930   6.002   4.986  0.1550  0.0296 -0.1016
  880SOL     ow 3517   1.366   2.991   4.412 -0.0549  0.0058  0.6803
  880SOL     hw 3518   1.360   3.075   4.366 -0.3221  0.1192  0.9212
  880SOL     hw 3519   1.276   2.958   4.412 -0.5703  1.1684  3.3129
  880SOL     vw 3520   1.353   2.998   4.406 -0.1581  0.1739  1.0591
  881SOL     ow 3521   0.268   4.819   4.826  0.2089  0.9054  0.3239
  881SOL     hw 3522   0.295   4.810   4.735  0.2963 -2.6176  0.5549
  881SOL     hw 3523   0.172   4.818   4.823  0.2097  0.9592  0.2719
  881SOL     vw 3524   0.259   4.817   4.814  0.2205  0.4478  0.3474
  882SOL     ow 3525   4.775   7.184   0.893 -0.3096 -0.0548  0.0097
  882SOL     hw 3526   4.770   7.277   0.917  0.0740 -0.0004 -0.1156
  882SOL     hw 3527   4.700   7.171   0.835  0.8613  0.7288 -1.7674
  882SOL     vw 3528   4.764   7.195   0.888 -0.1044  0.0558 -0.2413
  883SOL     ow 3529   1.003   3.605   0.961  0.9766 -0.8268  0.0192
  883SOL     hw 3530   0.995   3.644   0.873 -0.2784 -0.5852  0.2236
  883SOL     hw 3531   0.930   3.641   1.010  2.0546 -0.4228  1.3971
  883SOL     vw 3532   0.992   3.615   0.956  0.9532 -0.7416  0.2280
  884SOL     ow 3533   1.930   1.854   2.973 -0.8771 -0.5214  0.2948
  884SOL     hw 3534   1.874   1.867   3.049 -3.6935 -1.1756 -1.5256
  884SOL     hw 3535   1.912   1.929   2.917  0.9230 -0.2004  0.0950
  884SOL     vw 3536   1.920   1.865   2.975 -1.0113 -0.5653  0.0283
  885SOL     ow 3537   2.559   5.332   0.132  0.1076 -0.0203 -0.3176
  885SOL     hw 3538   2.504   5.378   0.068 -0.1233  0.9106  0.5411
  885SOL     hw 3539   2.504   5.325   0.210  1.3229  1.2558  0.6820
  885SOL     vw 3540   2.544   5.337   0.134  0.2375  0.2711 -0.0724
  886SOL     ow 3541   5.300   7.078   7.022  0.0154  0.7540 -0.4524
  886SOL     hw 3542   5.372   7.016   7.018  0.6733  1.4387  0.4631
  886SOL     hw 3543   5.221   7.024   7.029  0.0322 -0.1731 -4.7792
  886SOL     vw 3544   5.299   7.063   7.022  0.1047  0.7219 -0.9024
  887SOL     ow 3545   3.785   5.566   1.009 -0.2940  0.5526 -0.5920
  887SOL     hw 3546   3.864   5.530   0.968 -0.5294  1.3310 -1.7822
  887SOL     hw 3547   3.713   5.514   0.974 -0.4935  1.1758 -1.1065
  887SOL     vw 3548   3.786   5.554   0.999 -0.3515  0.7374 -0.8170
  888SOL     ow 3549   2.770   4.964   5.352  0.5100  0.0208 -0.1659
  888SOL     hw 3550   2.708   5.034   5.331  1.3302  0.9274  0.3270
  888SOL     hw 3551   2.719   4.902   5.404  0.3104  1.4438  1.4610
  888SOL     vw 3552   2.755   4.965   5.356  0.5919  0.3281  0.1137
  889SOL     ow 3553   5.472   1.610   6.079 -0.4401 -0.0199 -0.4258
  889SOL     hw 3554   5.560   1.596   6.043 -0.5246 -0.9404 -0.2805
  889SOL     hw 3555   5.456   1.534   6.134 -1.6101 -0.1941 -0.9916
  889SOL     vw 3556   5.482   1.598   6.081 -0.6056 -0.1643 -0.4814
  890SOL     ow 3557   6.860   3.230   2.283  0.1236 -0.1057  0.0886
  890SOL     hw 3558   6.807   3.227   2.203 -0.4720 -1.8054  0.5239
  890SOL     hw 3559   6.888   3.140   2.297  0.7478  0.2809  1.4643
  890SOL     vw 3560   6.857   3.218   2.274  0.1273 -0.2789  0.3276
  891SOL     ow 3561   4.598   6.388   0.521 -0.9319 -0.5300  0.2591
  891SOL     hw 3562   4.672   6.330   0.502 -2.1962 -1.8118 -1.0272
  891SOL     hw 3563   4.588   6.441   0.442 -1.7393 -0.7974  0.1695
  891SOL     vw 3564   4.607   6.387   0.508 -1.2052 -0.7343  0.0777
  892SOL     ow 3565   4.350   7.065   2.363 -0.5076  0.1340 -0.0733
  892SOL     hw 3566   4.268   7.106   2.335 -1.2163 -1.3275 -0.2493
  892SOL     hw 3567   4.339   7.050   2.457 -0.1503  0.5640  0.0396
  892SOL     vw 3568   4.337   7.068   2.371 -0.5538 -0.0021 -0.0817
  893SOL     ow 3569   6.691   5.354   5.993 -0.1000  0.4340 -0.1058
  893SOL     hw 3570   6.770   5.308   5.965  0.1350  1.8941 -2.0997
  893SOL     hw 3571   6.629   5.285   6.016 -0.1596 -1.0253 -4.0229
  893SOL     vw 3572   6.693   5.339   5.993 -0.0770  0.4342 -0.8857
  894SOL     ow 3573   4.208   3.831   4.165  0.0983  0.4923  0.4130
  894SOL     hw 3574   4.271   3.902   4.151  0.4987  0.2035  0.7373
  894SOL     hw 3575   4.261   3.753   4.179 -0.3488  0.0172 -0.4649
  894SOL     vw 3576   4.223   3.830   4.165  0.0920  0.3915  0.3402
  895SOL     ow 3577   1.245   3.733   1.542  0.2828 -0.3570 -0.4236
  895SOL     hw 3578   1.308   3.805   1.547 -0.3871  0.1734  0.7407
  895SOL     hw 3579   1.279   3.668   1.604 -0.4116  0.0212  0.3675
  895SOL     vw 3580   1.258   3.734   1.551  0.1028 -0.2371 -0.1655
  896SOL     ow 3581   2.744   3.268   6.434 -0.0395 -0.6209  0.2543
  896SOL     hw 3582   2.746   3.176   6.407 -1.1933 -0.2756 -1.1311
  896SOL     hw 3583   2.728   3.316   6.353  1.2347  0.8752  0.8483
  896SOL     vw 3584   2.742   3.262   6.420 -0.0237 -0.3780  0.1497
  897SOL     ow 3585   1.778   7.157   3.795  0.0481  0.2976  0.4938
  897SOL     hw 3586   1.855   7.110   3.828  1.7397  0.9375 -2.1740
  897SOL     hw 3587   1.781   7.141   3.700 -2.9283  0.6948  0.2639
  897SOL     vw 3588   1.789   7.148   3.787 -0.1213  0.4346  0.1115
  898SOL     ow 3589   1.509   4.201   1.278  0.2271  0.0978  0.1501
  898SOL     hw 3590   1.511   4.107   1.259  0.3198 -0.0554  0.8975
  898SOL     hw 3591   1.430   4.232   1.233 -0.7496 -0.6533  1.2716
  898SOL     vw 3592   1.498   4.192   1.270  0.1104 -0.0215  0.3966
  899SOL     ow 3593   2.820   1.315   2.625 -0.3718  0.7632  0.5080
  899SOL     hw 3594   2.815   1.406   2.595 -1.3902  0.7753  0.6638
  899SOL     hw 3595   2.789   1.319   2.716  1.3331  0.5196  1.1300
  899SOL     vw 3596   2.815   1.328   2.633 -0.2812  0.7326  0.6106
  900SOL     ow 3597   4.542   0.703   0.995  0.2055  1.0308 -0.0663
  900SOL     hw 3598   4.547   0.607   0.995  0.6271  1.0416 -1.2549
  900SOL     hw 3599   4.519   0.725   1.086 -0.9719 -0.2493 -0.0047
  900SOL     vw 3600   4.539   0.693   1.007  0.1056  0.8633 -0.2150
  901SOL     ow 3601   3.040   5.509   5.995 -0.3742 -0.1910 -0.1598
  901SOL     hw 3602   3.125   5.553   5.994 -1.1233  1.6694  3.6310
  901SOL     hw 3603   2.981   5.570   5.951 -0.3561 -0.0090  0.0682
  901SOL     vw 3604   3.043   5.523   5.989 -0.4706  0.0784  0.3705
  902SOL     ow 3605   2.633   1.067   4.970 -0.3600  0.0394  0.1432
  902SOL     hw 3606   2.637   1.108   4.884 -0.9215 -0.2607 -0.0310
  902SOL     hw 3607   2.614   0.975   4.952 -0.4448 -0.0341  0.5875
  902SOL     vw 3608   2.631   1.060   4.956 -0.4451 -0.0098  0.1788
  903SOL     ow 3609   6.465   3.202   1.960 -0.6782 -0.8592  0.0102
  903SOL     hw 3610   6.501   3.267   1.900 -1.3632  0.2468  0.7606
  903SOL     hw 3611   6.371   3.221   1.961 -0.8006 -1.4785  0.7164
  903SOL     vw 3612   6.457   3.213   1.952 -0.7846 -0.7949  0.2024
  904SOL     ow 3613   3.231   6.866   0.659  0.4517  0.3448 -1.0430
  904SOL     hw 3614   3.250   6.906   0.574  1.1514  3.6257  0.5042
  904SOL     hw 3615   3.305   6.890   0.714 -0.2314 -1.2571  0.6824
  904SOL     vw 3616   3.243   6.874   0.655  0.4539  0.5660 -0.6112
  905SOL     ow 3617   5.486   4.132   5.498  0.5101  0.2086 -0.1861
  905SOL     hw 3618   5.509   4.208   5.444  3.0921 -2.2683 -2.9698
  905SOL     hw 3619   5.426   4.082   5.443 -0.1391 -0.4225  1.0654
  905SOL     vw 3620   5.481   4.136   5.483  0.7648 -0.2015 -0.3881
  906SOL     ow 3621   5.940   3.806   7.051 -0.6712 -0.0140  0.3847
  906SOL     hw 3622   5.874   3.758   7.100 -2.0693  1.2006 -0.2140
  906SOL     hw 3623   5.891   3.876   7.007  0.8806  0.3733 -0.8318
  906SOL     vw 3624   5.925   3.809   7.052 -0.6509  0.1973  0.1452
  907SOL     ow 3625   1.361   1.724   4.468 -0.6870 -0.4111  0.5016
  907SOL     hw 3626   1.318   1.713   4.383 -2.2663 -0.1846  1.2459
  907SOL     hw 3627   1.430   1.658   4.468 -1.4175 -1.2138 -0.4878
  907SOL     vw 3628   1.364   1.714   4.457 -0.9917 -0.4871  0.4694
  908SOL     ow 3629   7.044   4.450   3.430  0.4546 -0.0134 -0.2957
  908SOL     hw 3630   7.033   4.356   3.425  0.9903 -0.1811  1.0425
  908SOL     hw 3631   6.982   4.478   3.498 -0.6377  0.8064 -1.5710
  908SOL     vw 3632   7.034   4.442   3.439  0.3812  0.0727 -0.2875
  909SOL     ow 3633   1.644   0.942   1.720  0.0585  0.7743  0.1820
  909SOL     hw 3634   1.620   0.920   1.630  0.1050  0.1671  0.3074
  909SOL     hw 3635   1.668   1.034   1.718  2.1433  0.2638 -0.8753
  909SOL     vw 3636   1.644   0.951   1.708  0.3397  0.6268  0.0590
  910SOL     ow 3637   5.523   0.522   6.325 -0.2434 -0.4752  0.0579
  910SOL     hw 3638   5.472   0.527   6.244 -0.1138 -2.1473 -0.1664
  910SOL     hw 3639   5.471   0.466   6.382  1.4266 -2.5467 -0.3151
  910SOL     vw 3640   5.509   0.515   6.322 -0.0062 -0.9691 -0.0210
  911SOL     ow 3641   2.184   2.579   3.992 -0.2686 -0.1797  0.1307
  911SOL     hw 3642   2.257   2.583   4.054 -0.3884 -0.9816  0.3320
  911SOL     hw 3643   2.110   2.617   4.039 -0.8143 -2.3487  1.1680
  911SOL     vw 3644   2.184   2.585   4.006 -0.3564 -0.5717  0.2937
  912SOL     ow 3645   5.760   1.156   3.045  0.3811  0.0200 -0.1235
  912SOL     hw 3646   5.780   1.062   3.042 -1.7011 -0.5999  1.9211
  912SOL     hw 3647   5.834   1.195   3.091 -0.2553 -1.2570  2.1598
  912SOL     vw 3648   5.773   1.148   3.051  0.0224 -0.2303  0.4475
  913SOL     ow 3649   6.298   1.850   4.472  0.4921  0.5845  0.0307
  913SOL     hw 3650   6.215   1.842   4.518  0.3602 -3.0471 -0.6028
  913SOL     hw 3651   6.365   1.834   4.539  0.5358  0.2133 -0.1032
  913SOL     vw 3652   6.296   1.847   4.487  0.4804  0.0564 -0.0706
  914SOL     ow 3653   0.699   5.592   6.910  0.3318 -0.3154 -0.4179
  914SOL     hw 3654   0.611   5.554   6.903  0.3880 -0.2142 -1.8399
  914SOL     hw 3655   0.721   5.618   6.821  0.8049  1.9305  0.2871
  914SOL     vw 3656   0.690   5.590   6.898  0.4016 -0.0060 -0.5126
  915SOL     ow 3657   4.480   1.690   0.941  0.0316  0.2146 -0.0570
  915SOL     hw 3658   4.435   1.612   0.907  0.1060  0.6626 -1.2358
  915SOL     hw 3659   4.420   1.725   1.006 -0.3056 -0.4472  0.0026
  915SOL     vw 3660   4.466   1.684   0.945 -0.0031  0.1864 -0.2047
  916SOL     ow 3661   3.161   3.504   4.256 -0.0189 -0.7524 -0.1606
  916SOL     hw 3662   3.166   3.579   4.315  1.3813 -0.8680 -0.0950
  916SOL     hw 3663   3.239   3.512   4.201 -1.6235 -0.2399 -2.5218
  916SOL     vw 3664   3.172   3.515   4.256 -0.0460 -0.7000 -0.4632
  917SOL     ow 3665   3.816   4.558   6.430 -0.5572  0.3028  0.1333
  917SOL     hw 3666   3.730   4.522   6.450 -0.5238  0.7399  1.1189
  917SOL     hw 3667   3.849   4.590   6.515  0.0000  1.3630 -0.4604
  917SOL     vw 3668   3.809   4.557   6.444 -0.4793  0.5004  0.1853
  918SOL     ow 3669   2.459   5.379   4.096 -0.2184  0.4530 -0.2288
  918SOL     hw 3670   2.447   5.304   4.154 -1.2930  0.7888  0.0064
  918SOL     hw 3671   2.517   5.438   4.144 -0.6846  0.4971  0.2962
  918SOL     vw 3672   2.465   5.377   4.110 -0.4216  0.5031 -0.1285
  919SOL     ow 3673   0.507   2.456   3.464 -0.4655 -0.0066 -0.1491
  919SOL     hw 3674   0.471   2.447   3.553  0.4902 -0.8304  0.1679
  919SOL     hw 3675   0.598   2.427   3.471 -0.9412 -2.2117 -1.8166
  919SOL     vw 3676   0.514   2.451   3.477 -0.4022 -0.4061 -0.3273
  920SOL     ow 3677   3.556   3.272   2.014  0.6611  0.0195  0.1702
  920SOL     hw 3678   3.621   3.325   2.061  1.3373 -1.3452  0.8361
  920SOL     hw 3679   3.538   3.322   1.934  1.2183  1.2727  0.8003
  920SOL     vw 3680   3.562   3.286   2.009  0.8237  0.0049  0.3412
  921SOL     ow 3681   2.824   0.930   7.096 -0.2711  1.1933  0.3775
  921SOL     hw 3682   2.732   0.934   7.073  0.0635  0.5194 -1.1843
  921SOL     hw 3683   2.867   0.994   7.038  0.5747 -0.4526 -0.9025
  921SOL     vw 3684   2.818   0.939   7.085 -0.1153  0.8872  0.0029
  922SOL     ow 3685   0.488   6.560   4.972 -0.0863 -0.5496  0.2608
  922SOL     hw 3686   0.504   6.635   4.914  0.8195 -0.8185  0.1523
  922SOL     hw 3687   0.415   6.513   4.930 -1.5621  0.9566  1.0197
  922SOL     vw 3688   0.480   6.564   4.959 -0.1615 -0.3862  0.3469
  923SOL     ow 3689   5.351   6.308   3.580  0.8747  0.4563  0.0894
  923SOL     hw 3690   5.346   6.345   3.492  0.5647  0.4453  0.1018
  923SOL     hw 3691   5.392   6.377   3.632 -0.2370  1.0272  0.2408
  923SOL     vw 3692   5.355   6.322   3.575  0.6871  0.5300  0.1110
  924SOL     ow 3693   5.261   0.498   1.765  0.1800  0.0439 -0.0330
  924SOL     hw 3694   5.187   0.513   1.706 -2.3159 -0.7863  2.6731
  924SOL     hw 3695   5.245   0.412   1.803  1.6278  0.5557  1.9081
  924SOL     vw 3696   5.249   0.489   1.762  0.0417  0.0019  0.5801
  925SOL     ow 3697   6.456   3.917   1.065  0.2155  0.0566 -0.1557
  925SOL     hw 3698   6.541   3.929   1.107  0.2205  3.5719 -0.8481
  925SOL     hw 3699   6.395   3.906   1.138  1.0176 -1.0381  0.3930
  925SOL     vw 3700   6.459   3.917   1.080  0.3216  0.3760 -0.1746
  926SOL     ow 3701   1.801   1.867   5.889 -0.0352  0.3849 -0.2658
  926SOL     hw 3702   1.894   1.890   5.886  0.3672 -1.2210 -2.0892
  926SOL     hw 3703   1.800   1.773   5.870 -2.1463  0.7346 -2.1733
  926SOL     vw 3704   1.813   1.857   5.886 -0.2607  0.2192 -0.7579
  927SOL     ow 3705   5.462   0.050   1.671  0.2011  0.1468  0.3946
  927SOL     hw 3706   5.492   0.130   1.627 -0.2341 -1.0675 -2.2872
  927SOL     hw 3707   5.386   0.078   1.723 -0.3712  1.3689 -1.0370
  927SOL     vw 3708   5.456   0.064   1.672  0.0679  0.1479 -0.1482
  928SOL     ow 3709   0.467   3.213   1.712  0.2211  0.1574 -0.2583
  928SOL     hw 3710   0.550   3.221   1.665  0.6237  0.2905  0.4578
  928SOL     hw 3711   0.406   3.267   1.662  0.5879  0.1345 -0.7389
  928SOL     vw 3712   0.470   3.221   1.699  0.3226  0.1720 -0.2272
  929SOL     ow 3713   1.591   4.310   0.523 -0.2051  0.6028 -0.2468
  929SOL     hw 3714   1.589   4.230   0.471  0.6894  0.4738 -0.1028
  929SOL     hw 3715   1.536   4.372   0.474 -1.1534 -0.1784 -0.1967
  929SOL     vw 3716   1.584   4.308   0.510 -0.2122  0.4828 -0.2212
  930SOL     ow 3717   4.681   1.889   2.286  0.1234  0.3242 -0.6675
  930SOL     hw 3718   4.675   1.904   2.191 -1.5376  0.4770 -0.5613
  930SOL     hw 3719   4.679   1.794   2.295  1.1628  0.2717 -0.8093
  930SOL     vw 3720   4.680   1.879   2.275  0.0415  0.3374 -0.6722
  931SOL     ow 3721   2.721   3.231   6.737 -0.0068 -0.0866 -0.2179
  931SOL     hw 3722   2.755   3.141   6.735  1.3842  0.4242 -2.0900
  931SOL     hw 3723   2.759   3.268   6.817  0.0366 -0.9197  0.1644
  931SOL     vw 3724   2.731   3.224   6.747  0.1824 -0.1291 -0.4146
  932SOL     ow 3725   1.247   3.147   0.299  0.6134 -0.2455  0.5321
  932SOL     hw 3726   1.211   3.103   0.376 -0.8824  0.3607  0.2002
  932SOL     hw 3727   1.188   3.220   0.283  1.6892  0.4549 -0.3862
  932SOL     vw 3728   1.235   3.151   0.307  0.5580 -0.0731  0.3671
  933SOL     ow 3729   1.463   0.762   0.593  0.0106  0.1091 -0.0660
  933SOL     hw 3730   1.390   0.812   0.630 -0.2392 -1.2013  1.2942
  933SOL     hw 3731   1.539   0.821   0.602 -0.5933  0.9186 -0.1387
  933SOL     vw 3732   1.464   0.777   0.599 -0.1020  0.0430  0.1038
  934SOL     ow 3733   5.856   1.855   4.286 -0.6013 -0.0222  0.5589
  934SOL     hw 3734   5.809   1.853   4.202  0.3922 -0.7493  0.0051
  934SOL     hw 3735   5.850   1.766   4.319 -0.4756  0.1210  0.9722
  934SOL     vw 3736   5.849   1.843   4.279 -0.4535 -0.0992  0.5403
  935SOL     ow 3737   0.309   4.614   3.135 -0.2236 -0.1788 -0.3043
  935SOL     hw 3738   0.273   4.669   3.064  1.6941  1.8326  0.1522
  935SOL     hw 3739   0.310   4.672   3.211 -0.2683 -1.6348  0.8319
  935SOL     vw 3740   0.305   4.629   3.135  0.0235 -0.1056 -0.0942
  936SOL     ow 3741   6.272   0.091   3.258 -0.3162 -0.3061 -0.0929
  936SOL     hw 3742   6.351   0.135   3.289 -0.3310 -1.5052  1.7774
  936SOL     hw 3743   6.211   0.096   3.331 -0.9439 -1.8553 -0.4626
  936SOL     vw 3744   6.274   0.097   3.272 -0.4008 -0.6687  0.1050
  937SOL     ow 3745   7.203   4.395   6.514  0.3395  0.3027 -0.0031
  937SOL     hw 3746   7.264   4.442   6.457  0.9011 -0.5983 -0.1585
  937SOL     hw 3747   7.246   4.311   6.532  0.5391  0.8594  2.3936
  937SOL     vw 3748   7.217   4.390   6.509  0.4401  0.2573  0.2925
  938SOL     ow 3749   4.752   2.075   5.788 -0.6383 -0.1401 -0.6932
  938SOL     hw 3750   4.684   2.051   5.725 -1.9707  2.3730 -0.3317
  938SOL     hw 3751   4.704   2.111   5.863  1.0245 -0.4109  0.5690
  938SOL     vw 3752   4.737   2.077   5.790 -0.5949  0.1558 -0.4790
  939SOL     ow 3753   6.081   6.955   4.280 -0.1043  0.1104  0.0713
  939SOL     hw 3754   6.110   6.956   4.371 -1.9056 -0.5791  0.7064
  939SOL     hw 3755   6.052   7.044   4.263  1.7318  0.6567 -0.3881
  939SOL     vw 3756   6.081   6.967   4.290 -0.0997  0.0916  0.0947
  940SOL     ow 3757   3.357   6.186   0.430  0.6269  0.5233  1.1530
  940SOL     hw 3758   3.447   6.164   0.451  1.3408  1.5407 -0.5802
  940SOL     hw 3759   3.364   6.249   0.358 -1.4792 -1.0168 -0.5503
  940SOL     vw 3760   3.370   6.191   0.423  0.4432  0.4544  0.6996
  941SOL     ow 3761   3.979   3.950   4.094 -0.3598  0.3476 -0.1782
  941SOL     hw 3762   4.054   3.894   4.115  0.0895  0.3267 -1.7107
  941SOL     hw 3763   4.009   4.005   4.021 -1.0116  2.1290  0.8250
  941SOL     vw 3764   3.993   3.950   4.087 -0.3864  0.5800 -0.2480
  942SOL     ow 3765   3.024   1.398   3.858  0.2392  0.2696  0.2381
  942SOL     hw 3766   3.114   1.404   3.891  0.6023 -0.7132 -0.5157
  942SOL     hw 3767   3.031   1.341   3.781 -0.7399  1.6026 -0.8983
  942SOL     vw 3768   3.037   1.391   3.852  0.1580  0.3158 -0.0113
  943SOL     ow 3769   1.752   4.827   3.350  0.0039 -0.9860 -0.1467
  943SOL     hw 3770   1.837   4.795   3.318  0.5742 -0.0185  0.3407
  943SOL     hw 3771   1.761   4.825   3.445 -0.2509 -0.1890 -0.1024
  943SOL     vw 3772   1.764   4.822   3.358  0.0455 -0.7532 -0.0767
  944SOL     ow 3773   6.703   2.173   5.093 -0.3702 -0.0177  0.0624
  944SOL     hw 3774   6.728   2.086   5.061 -0.3034 -0.5280  1.4258
  944SOL     hw 3775   6.785   2.213   5.122 -0.3860  0.5510 -0.6739
  944SOL     vw 3776   6.717   2.167   5.093 -0.3636 -0.0100  0.1452
  945SOL     ow 3777   0.652   6.416   5.351 -0.6002  0.6303 -0.1742
  945SOL     hw 3778   0.741   6.441   5.378 -0.4718  1.8770 -1.6206
  945SOL     hw 3779   0.635   6.335   5.399  0.7496  1.1259  1.2575
  945SOL     vw 3780   0.662   6.409   5.361 -0.4052  0.8602 -0.1760
  946SOL     ow 3781   4.087   6.851   6.792 -0.0206  0.5473 -0.0785
  946SOL     hw 3782   4.120   6.936   6.820 -0.3488  0.7540 -0.3180
  946SOL     hw 3783   4.036   6.820   6.867  1.5447 -0.2532  0.7278
  946SOL     vw 3784   4.085   6.858   6.806  0.1423  0.4692 -0.0038
  947SOL     ow 3785   6.089   7.195   3.047  0.3336 -0.4335  0.4230
  947SOL     hw 3786   6.044   7.253   2.986 -0.4316 -1.6069 -0.1778
  947SOL     hw 3787   6.019   7.139   3.082  0.9700 -0.6594  1.3755
  947SOL     vw 3788   6.074   7.195   3.044  0.3166 -0.6180  0.4694
  948SOL     ow 3789   3.123   0.491   3.640 -0.0563  0.2659  0.8431
  948SOL     hw 3790   3.207   0.466   3.602  1.4236  2.7183  2.2406
  948SOL     hw 3791   3.061   0.427   3.605  1.7888  0.2012 -2.7048
  948SOL     vw 3792   3.126   0.479   3.631  0.3824  0.5809  0.5596
  949SOL     ow 3793   4.552   3.108   3.024 -0.6916 -0.0117 -0.1410
  949SOL     hw 3794   4.589   3.060   2.949 -0.4395  0.1825 -0.1410
  949SOL     hw 3795   4.498   3.176   2.984  1.8989  2.1503 -0.2672
  949SOL     vw 3796   4.550   3.111   3.008 -0.3164  0.2991 -0.1577
  950SOL     ow 3797   1.244   4.657   5.254 -0.2352 -0.8564 -0.7573
  950SOL     hw 3798   1.237   4.634   5.347 -0.1980  0.2234 -0.4846
  950SOL     hw 3799   1.154   4.659   5.223 -0.2977 -0.4020 -0.5456
  950SOL     vw 3800   1.232   4.654   5.263 -0.2385 -0.6535 -0.6936
  951SOL     ow 3801   3.356   1.433   1.520 -0.5956  0.0919 -0.1982
  951SOL     hw 3802   3.420   1.497   1.552 -0.3420  0.1710 -0.8531
  951SOL     hw 3803   3.350   1.450   1.426  1.2613 -2.3656 -0.8794
  951SOL     vw 3804   3.364   1.444   1.512 -0.3171 -0.2218 -0.3746
  952SOL     ow 3805   6.139   0.924   3.104 -0.0977 -0.4481  1.0054
  952SOL     hw 3806   6.195   0.878   3.167  0.7887 -0.1899  0.4372
  952SOL     hw 3807   6.131   1.013   3.139 -2.2791 -1.1296  2.3982
  952SOL     vw 3808   6.146   0.930   3.117 -0.2685 -0.5040  1.1142
  953SOL     ow 3809   3.946   5.904   3.020 -0.4148 -0.1442  0.0999
  953SOL     hw 3810   3.887   5.860   3.082  0.3912 -1.9845 -0.3835
  953SOL     hw 3811   3.889   5.962   2.970 -1.0880  1.4969  2.5786
  953SOL     vw 3812   3.930   5.906   3.022 -0.3972 -0.1705  0.3632
  954SOL     ow 3813   1.550   5.438   0.194 -0.1269  0.0477  0.3666
  954SOL     hw 3814   1.523   5.454   0.284 -1.0981 -0.0198  0.0935
  954SOL     hw 3815   1.535   5.520   0.149 -0.4338 -0.1604  0.0833
  954SOL     vw 3816   1.545   5.451   0.200 -0.2955  0.0112  0.2932
  955SOL     ow 3817   7.193   3.655   3.397 -0.5509  0.1073 -0.0802
  955SOL     hw 3818   7.200   3.615   3.311 -0.7761 -1.1477  0.4606
  955SOL     hw 3819   7.191   3.749   3.380 -1.0378 -0.1354 -1.4642
  955SOL     vw 3820   7.194   3.662   3.384 -0.6444 -0.0904 -0.1913
  956SOL     ow 3821   6.320   4.719   2.212 -0.5173 -0.0999 -0.3108
  956SOL     hw 3822   6.314   4.774   2.133  0.3138  0.6953  0.1561
  956SOL     hw 3823   6.256   4.757   2.272  2.1238  2.4065  1.1631
  956SOL     vw 3824   6.311   4.732   2.209 -0.0591  0.3357 -0.0547
  957SOL     ow 3825   4.955   3.725   1.206 -0.3235  0.0366 -0.1951
  957SOL     hw 3826   5.041   3.763   1.185 -0.8266  0.5826 -1.3195
  957SOL     hw 3827   4.911   3.791   1.259  0.4377 -0.8045  1.5988
  957SOL     vw 3828   4.961   3.738   1.211 -0.2894 -0.0023 -0.1068
  958SOL     ow 3829   1.798   6.295   4.588  0.0575  0.1479  0.3731
  958SOL     hw 3830   1.856   6.253   4.524 -3.1304 -0.4621 -2.3484
  958SOL     hw 3831   1.774   6.224   4.647  2.2403  0.4977  1.8159
  958SOL     vw 3832   1.803   6.280   4.587 -0.0752  0.1135  0.2041
  959SOL     ow 3833   3.070   4.898   5.295  0.7332  0.7157  0.2998
  959SOL     hw 3834   3.071   4.913   5.200  2.6802 -1.7775 -0.2008
  959SOL     hw 3835   3.141   4.835   5.309 -0.6024 -0.2845  3.2112
  959SOL     vw 3836   3.080   4.892   5.284  0.8138  0.2544  0.6180
  960SOL     ow 3837   0.450   3.343   4.047 -0.0646  0.0043 -0.1744
  960SOL     hw 3838   0.385   3.381   3.989 -0.1704 -0.7493 -0.5546
  960SOL     hw 3839   0.509   3.294   3.990  2.0331  2.2443 -0.1051
  960SOL     vw 3840   0.450   3.341   4.032  0.1982  0.2004 -0.2155
  961SOL     ow 3841   6.563   1.477   0.517 -0.9232 -0.4492 -0.3900
  961SOL     hw 3842   6.611   1.550   0.557  0.9164 -0.9663 -1.5357
  961SOL     hw 3843   6.479   1.514   0.492 -0.7752  0.7687  0.7860
  961SOL     vw 3844   6.558   1.492   0.519 -0.6609 -0.3567 -0.3860
  962SOL     ow 3845   3.398   2.107   7.229 -0.1533 -0.2951  0.1936
  962SOL     hw 3846   3.461   2.136   7.295 -0.1228 -0.3888  0.2048
  962SOL     hw 3847   3.327   2.066   7.278  0.0353 -0.6780  0.1444
  962SOL     vw 3848   3.397   2.106   7.244 -0.1245 -0.3579  0.1886
  963SOL     ow 3849   5.058   4.591   0.165  0.2774  0.1379 -0.6149
  963SOL     hw 3850   5.121   4.557   0.101  1.7685  1.9008 -0.1801
  963SOL     hw 3851   4.980   4.610   0.114  0.8198 -0.1208 -1.5795
  963SOL     vw 3852   5.056   4.589   0.150  0.5457  0.3366 -0.6848
  964SOL     ow 3853   2.663   5.802   2.703 -0.3885 -0.0025 -0.0328
  964SOL     hw 3854   2.715   5.872   2.665 -3.1208  1.3095 -1.7052
  964SOL     hw 3855   2.620   5.760   2.628 -3.0711  0.2154  1.2420
  964SOL     vw 3856   2.664   5.806   2.688 -1.1029  0.1993 -0.0852
  965SOL     ow 3857   4.570   7.231   6.077 -0.3555  0.6643  0.0580
  965SOL     hw 3858   4.662   7.254   6.060 -0.1656 -0.1247 -0.0556
  965SOL     hw 3859   4.520   7.292   6.024  0.1227  0.7682 -0.2840
  965SOL     vw 3860   4.576   7.242   6.068 -0.2673  0.5741 -0.0021
  966SOL     ow 3861   1.105   0.219   1.145 -0.3506 -1.0421 -0.5228
  966SOL     hw 3862   1.016   0.253   1.134 -0.0499  0.4826  1.2866
  966SOL     hw 3863   1.131   0.248   1.232  1.8198 -1.7150 -0.8996
  966SOL     vw 3864   1.096   0.227   1.155 -0.0246 -0.9297 -0.3337
  967SOL     ow 3865   6.912   5.829   5.928  0.1082 -0.7709 -0.5017
  967SOL     hw 3866   6.821   5.853   5.911  0.3027  1.1721  0.8365
  967SOL     hw 3867   6.957   5.845   5.846 -0.2372  1.2831 -0.3427
  967SOL     vw 3868   6.906   5.835   5.915  0.0885 -0.2437 -0.3042
  968SOL     ow 3869   1.886   1.389   7.239  0.3502  0.4869  0.2218
  968SOL     hw 3870   1.826   1.386   7.314  0.3264  0.2393  0.1904
  968SOL     hw 3871   1.951   1.456   7.264 -0.5534  1.5658 -0.2130
  968SOL     vw 3872   1.887   1.398   7.253  0.2279  0.5966  0.1602
  969SOL     ow 3873   3.109   4.322   1.356  0.0903 -0.2095  0.0290
  969SOL     hw 3874   3.141   4.267   1.428  1.1654  0.4304  0.0635
  969SOL     hw 3875   3.025   4.284   1.333  0.5155 -1.4814  0.4739
  969SOL     vw 3876   3.102   4.309   1.363  0.2880 -0.2928  0.0922
  970SOL     ow 3877   2.000   3.603   6.888 -0.4372  0.3585  0.2693
  970SOL     hw 3878   1.915   3.647   6.890 -0.4323  0.8493 -3.3470
  970SOL     hw 3879   1.979   3.510   6.884 -0.8177  0.4768 -0.5689
  970SOL     vw 3880   1.986   3.596   6.888 -0.4868  0.4388 -0.3185
  971SOL     ow 3881   3.497   1.602   3.052 -0.2421 -0.4437 -0.0011
  971SOL     hw 3882   3.408   1.588   3.020  0.1663  1.0430 -1.9325
  971SOL     hw 3883   3.547   1.528   3.016 -0.1834  0.1681 -1.2291
  971SOL     vw 3884   3.492   1.590   3.043 -0.1805 -0.1669 -0.4178
  972SOL     ow 3885   6.310   4.998   0.881  0.4875 -0.0718  0.2268
  972SOL     hw 3886   6.245   5.001   0.952 -1.3731 -0.0367 -1.3798
  972SOL     hw 3887   6.386   5.044   0.916 -1.8664  3.8390  0.7972
  972SOL     vw 3888   6.311   5.005   0.895 -0.0684  0.4489  0.0900
  973SOL     ow 3889   3.975   1.164   3.631 -0.5085 -0.2387  0.1734
  973SOL     hw 3890   4.064   1.145   3.659 -1.4439 -2.1122  2.1886
  973SOL     hw 3891   3.947   1.085   3.584 -0.6027  1.0059 -2.0333
  973SOL     vw 3892   3.983   1.151   3.628 -0.6443 -0.3217  0.1482
  974SOL     ow 3893   5.478   7.023   3.747 -0.6035 -0.2400  0.2239
  974SOL     hw 3894   5.423   6.992   3.675  0.6809 -2.1698  0.0049
  974SOL     hw 3895   5.478   6.952   3.811  3.3782 -1.4648 -0.8262
  974SOL     vw 3896   5.471   7.010   3.746  0.0913 -0.6561  0.0565
  975SOL     ow 3897   4.178   2.621   1.769 -0.2961 -0.4566  0.1390
  975SOL     hw 3898   4.165   2.646   1.861  1.0824  0.4025  0.1184
  975SOL     hw 3899   4.133   2.536   1.762  0.5423 -1.1078  1.9136
  975SOL     vw 3900   4.170   2.613   1.780 -0.0036 -0.4293  0.3704
  976SOL     ow 3901   6.803   4.827   3.285 -0.4312  0.0815 -0.9484
  976SOL     hw 3902   6.751   4.790   3.356  1.0200  2.0628  1.3321
  976SOL     hw 3903   6.739   4.859   3.222 -1.8433 -0.4269  0.1734
  976SOL     vw 3904   6.788   4.826   3.286 -0.4258  0.2759 -0.4996
  977SOL     ow 3905   0.127   4.218   1.078  0.2952 -0.3262 -0.4714
  977SOL     hw 3906   0.127   4.215   0.982  3.0562  0.7836 -0.5859
  977SOL     hw 3907   0.208   4.263   1.101 -0.7989  0.3904  2.3946
  977SOL     vw 3908   0.137   4.224   1.068  0.5151 -0.0854 -0.1084
  978SOL     ow 3909   1.207   3.106   6.222  0.3741 -0.0630  0.5057
  978SOL     hw 3910   1.160   3.022   6.223 -0.9748  0.6406 -0.5887
  978SOL     hw 3911   1.139   3.172   6.233  1.3088  0.9412  0.4396
  978SOL     vw 3912   1.192   3.104   6.224  0.3194  0.1622  0.3524
  979SOL     ow 3913   5.363   0.774   1.797 -0.8021 -0.3832  0.1036
  979SOL     hw 3914   5.268   0.765   1.802 -0.6955 -1.3905  0.4678
  979SOL     hw 3915   5.381   0.859   1.838 -1.4129 -0.9366  1.5638
  979SOL     vw 3916   5.353   0.784   1.803 -0.8686 -0.5891  0.3443
  980SOL     ow 3917   4.740   3.529   3.416  0.2242  0.2448 -0.0072
  980SOL     hw 3918   4.802   3.469   3.457 -0.1673  0.8084  1.4788
  980SOL     hw 3919   4.693   3.475   3.352 -1.1967 -1.5170  2.3676
  980SOL     vw 3920   4.742   3.514   3.413 -0.0150  0.0865  0.5022
  981SOL     ow 3921   6.078   4.371   5.129 -0.5678 -0.0709 -0.1576
  981SOL     hw 3922   5.983   4.373   5.130 -0.6340  0.2576 -2.2880
  981SOL     hw 3923   6.104   4.463   5.116 -0.1897 -0.5355 -3.7330
  981SOL     vw 3924   6.069   4.384   5.128 -0.5267 -0.0892 -0.9105
  982SOL     ow 3925   4.092   4.468   0.296 -0.1257 -0.1363  0.4339
  982SOL     hw 3926   4.069   4.526   0.368 -0.0432  0.7422 -0.2370
  982SOL     hw 3927   4.051   4.384   0.318  0.8381 -0.2253  2.0681
  982SOL     vw 3928   4.084   4.464   0.309  0.0129 -0.0319  0.5610
  983SOL     ow 3929   0.070   3.072   1.733  0.3742  0.3276 -0.3307
  983SOL     hw 3930   0.090   3.165   1.722  1.9635  0.1735  0.8834
  983SOL     hw 3931   0.132   3.028   1.675 -1.2047  0.0262 -1.8575
  983SOL     vw 3932   0.081   3.079   1.724  0.3756  0.2674 -0.3719
  984SOL     ow 3933   2.999   0.856   4.895  0.8854 -0.3492 -0.4854
  984SOL     hw 3934   3.050   0.920   4.944 -0.0143  0.7867 -1.0020
  984SOL     hw 3935   3.051   0.775   4.900  1.2781 -0.0321  1.5371
  984SOL     vw 3936   3.012   0.854   4.902  0.8185 -0.1575 -0.2868
  985SOL     ow 3937   3.437   5.970   0.149 -0.0586 -0.1809 -0.1964
  985SOL     hw 3938   3.456   5.989   0.057 -0.1396 -1.1638 -0.4219
  985SOL     hw 3939   3.363   5.910   0.146 -0.3720  0.1592  0.5358
  985SOL     vw 3940   3.430   5.965   0.137 -0.1106 -0.2658 -0.1295
  986SOL     ow 3941   5.543   3.702   4.457 -0.4475 -1.0272 -0.4364
  986SOL     hw 3942   5.526   3.764   4.386 -0.7044  3.0579  2.8912
  986SOL     hw 3943   5.458   3.660   4.472 -1.4179  0.9566 -0.0718
  986SOL     vw 3944   5.530   3.704   4.449 -0.6094 -0.2265  0.0505
  987SOL     ow 3945   2.074   2.002   1.818  0.1032 -0.0438 -0.1599
  987SOL     hw 3946   2.143   1.968   1.875  0.1818 -0.0336 -0.2493
  987SOL     hw 3947   2.063   2.093   1.845 -0.4485 -0.2702  0.4137
  987SOL     vw 3948   2.081   2.010   1.829  0.0408 -0.0724 -0.0960
  988SOL     ow 3949   6.231   4.471   2.129 -0.1151 -0.7316 -0.3217
  988SOL     hw 3950   6.293   4.420   2.078  1.1884 -1.3298  1.7287
  988SOL     hw 3951   6.279   4.550   2.153 -0.4085 -0.8158  0.5900
  988SOL     vw 3952   6.246   4.475   2.126  0.0179 -0.8216  0.0691
  989SOL     ow 3953   0.982   0.176   1.636  0.0754  0.0008  0.1481
  989SOL     hw 3954   0.934   0.240   1.583 -0.1453 -1.2381 -1.1805
  989SOL     hw 3955   0.968   0.093   1.592  2.5295 -0.5872  0.3743
  989SOL     vw 3956   0.974   0.174   1.623  0.3701 -0.2402  0.0026
  990SOL     ow 3957   6.282   2.106   1.264  0.4275 -0.0935  0.2032
  990SOL     hw 3958   6.372   2.128   1.286  0.5134 -1.2263  1.0758
  990SOL     hw 3959   6.257   2.170   1.197  1.9663  0.0310 -0.2791
  990SOL     vw 3960   6.290   2.117   1.258  0.6418 -0.2265  0.2548
  991SOL     ow 3961   1.926   2.535   6.380 -0.1934 -0.0143 -0.3133
  991SOL     hw 3962   1.878   2.552   6.299  1.9419 -0.4916 -1.7833
  991SOL     hw 3963   2.004   2.591   6.373  0.7837 -1.1948  0.6626
  991SOL     vw 3964   1.930   2.545   6.369  0.2172 -0.2332 -0.3786
  992SOL     ow 3965   1.105   5.395   4.803 -0.0332 -0.4871  0.1866
  992SOL     hw 3966   1.172   5.404   4.871  0.0165 -0.4035  0.1265
  992SOL     hw 3967   1.138   5.447   4.730 -0.3817 -0.0625  0.3216
  992SOL     vw 3968   1.118   5.403   4.803 -0.0726 -0.4201  0.1965
  993SOL     ow 3969   4.848   5.909   2.414  0.5941 -0.1822 -0.2733
  993SOL     hw 3970   4.807   5.994   2.396 -0.2067 -1.0018 -2.7799
  993SOL     hw 3971   4.861   5.870   2.327  0.9816 -2.6115  0.7941
  993SOL     vw 3972   4.844   5.915   2.400  0.5393 -0.6108 -0.4632
  994SOL     ow 3973   2.394   6.684   6.504  0.0986  0.9824  0.2062
  994SOL     hw 3974   2.467   6.660   6.560  0.4105 -0.2059 -0.6685
  994SOL     hw 3975   2.320   6.696   6.564  0.7272  1.0523  0.9814
  994SOL     vw 3976   2.394   6.683   6.519  0.2228  0.8347  0.1931
  995SOL     ow 3977   1.124   3.749   5.628  0.4145 -0.0621  0.3441
  995SOL     hw 3978   1.105   3.842   5.612  0.4406 -0.3956 -2.0395
  995SOL     hw 3979   1.063   3.702   5.571  1.9566 -1.4261 -0.2692
  995SOL     vw 3980   1.113   3.755   5.618  0.6214 -0.2861 -0.0515
  996SOL     ow 3981   7.208   6.034   4.647  0.0913 -0.1760 -0.2888
  996SOL     hw 3982   7.214   6.124   4.680  0.9109 -0.9373  1.7959
  996SOL     hw 3983   7.131   5.998   4.691 -0.5269 -0.3844 -1.4977
  996SOL     vw 3984   7.199   6.041   4.657  0.1175 -0.3037 -0.1733
  997SOL     ow 3985   1.027   3.063   6.496  0.0264 -0.3567  0.5420
  997SOL     hw 3986   0.991   2.981   6.463 -0.3239 -0.3390  0.8695
  997SOL     hw 3987   1.122   3.049   6.498  0.1588 -0.0122 -1.3961
  997SOL     vw 3988   1.035   3.051   6.492 -0.0024 -0.3089  0.3295
  998SOL     ow 3989   3.091   3.763   5.119  0.5298  1.1491  0.6048
  998SOL     hw 3990   3.140   3.698   5.069  0.0182  1.2715 -0.0595
  998SOL     hw 3991   3.158   3.822   5.153  1.1580 -0.4128  2.3091
  998SOL     vw 3992   3.106   3.762   5.117  0.5451  0.9592  0.7420
  999SOL     ow 3993   0.104   4.016   0.760  0.6088  0.6139 -0.3656
  999SOL     hw 3994   0.037   4.071   0.717 -0.7919  0.1425  1.1005
  999SOL     hw 3995   0.174   4.077   0.782 -0.3015  1.5757 -0.0153
  999SOL     vw 3996   0.104   4.031   0.757  0.3037  0.6785 -0.1259
 1000SOL     ow 3997   3.898   5.227   3.714 -0.2237 -0.2562 -0.3717
 1000SOL     hw 3998   3.961   5.160   3.688 -1.3078 -0.2777 -3.2785
 1000SOL     hw 3999   3.950   5.307   3.722  0.1877  0.0207 -3.9977
 1000SOL     vw 4000   3.913   5.229   3.712 -0.3124 -0.2224 -1.2336
 1001SOL     ow 4001   0.928   5.215   0.736  0.2144 -0.1780 -0.5830
 1001SOL     hw 4002   0.938   5.307   0.761  1.6330 -0.1122 -1.3066
 1001SOL     hw 4003   0.954   5.166   0.814  0.6043  0.0459 -0.5677
 1001SOL     vw 4004   0.933   5.220   0.750  0.4531 -0.1402 -0.6764
 1002SOL     ow 4005   3.185   5.495   6.262 -1.0145 -0.0352  0.2918
 1002SOL     hw 4006   3.204   5.526   6.351  0.9786  1.2278 -0.5174
 1002SOL     hw 4007   3.206   5.402   6.265  0.5805  0.3101  0.7726
 1002SOL     vw 4008   3.190   5.487   6.274 -0.5410  0.1771  0.2484
 1003SOL     ow 4009   2.267   5.462   4.605  0.0438 -0.3687 -0.2143
 1003SOL     hw 4010   2.200   5.400   4.633  0.5088 -0.8891 -0.2214
 1003SOL     hw 4011   2.272   5.527   4.675 -0.8726  0.0080 -0.4905
 1003SOL     vw 4012   2.259   5.463   4.618 -0.0157 -0.3879 -0.2515
 1004SOL     ow 4013   2.494   4.174   3.545 -0.1149  0.0748  0.1959
 1004SOL     hw 4014   2.413   4.164   3.495  0.2053 -1.6125 -0.0361
 1004SOL     hw 4015   2.547   4.234   3.493 -0.2350 -0.7814 -0.9667
 1004SOL     vw 4016   2.490   4.180   3.532 -0.0886 -0.2608  0.0118
 1005SOL     ow 4017   6.810   3.536   0.830  0.0398 -0.1484 -0.5050
 1005SOL     hw 4018   6.805   3.481   0.751 -0.1700  1.2456 -1.4857
 1005SOL     hw 4019   6.750   3.608   0.813 -1.4726 -0.7921  1.7643
 1005SOL     vw 4020   6.802   3.538   0.817 -0.1876 -0.0494 -0.3349
 1006SOL     ow 4021   4.863   6.840   5.135 -0.1355  0.4227  0.2904
 1006SOL     hw 4022   4.806   6.880   5.069 -0.5024  0.3347  0.5506
 1006SOL     hw 4023   4.925   6.909   5.159  0.5115  0.2198 -0.7189
 1006SOL     vw 4024   4.864   6.854   5.129 -0.0985  0.3846  0.1917
 1007SOL     ow 4025   6.134   6.313   3.721 -0.0561 -0.1506 -0.5481
 1007SOL     hw 4026   6.206   6.252   3.706 -1.0551 -2.0062  1.6004
 1007SOL     hw 4027   6.176   6.395   3.745  1.3251 -0.3700 -2.0567
 1007SOL     vw 4028   6.149   6.316   3.722 -0.0057 -0.4249 -0.4636
 1008SOL     ow 4029   1.695   7.052   2.794  1.2875 -0.3328 -0.2830
 1008SOL     hw 4030   1.778   7.073   2.838  1.1052 -1.2056  0.5189
 1008SOL     hw 4031   1.672   6.965   2.827  1.2781 -1.1682 -2.3523
 1008SOL     vw 4032   1.703   7.043   2.804  1.2622 -0.5584 -0.4501
 1009SOL     ow 4033   6.757   6.013   5.043 -0.1643  0.0120 -0.2476
 1009SOL     hw 4034   6.799   5.958   5.110 -0.1877 -0.0880 -0.3146
 1009SOL     hw 4035   6.668   5.979   5.037 -0.2950  0.3129 -0.0078
 1009SOL     vw 4036   6.751   6.001   5.051 -0.1848  0.0386 -0.2248
 1010SOL     ow 4037   4.844   4.019   2.737 -0.2102 -0.5247 -0.0587
 1010SOL     hw 4038   4.926   4.068   2.736  0.9329 -2.3255 -0.8083
 1010SOL     hw 4039   4.832   3.991   2.646 -0.3769 -2.2497  0.4553
 1010SOL     vw 4040   4.854   4.022   2.725 -0.0818 -0.9897 -0.0896
 1011SOL     ow 4041   3.249   6.086   6.007  0.5192  0.7024 -1.1664
 1011SOL     hw 4042   3.238   6.033   5.927 -0.1022 -0.2004 -0.5155
 1011SOL     hw 4043   3.343   6.087   6.022  0.5517 -0.1901 -1.2290
 1011SOL     vw 4044   3.260   6.079   5.998  0.4416  0.4659 -1.0889
 1012SOL     ow 4045   5.982   3.849   0.956 -0.4369  0.2358 -0.3449
 1012SOL     hw 4046   5.931   3.910   1.009  0.1488 -0.1458  0.6673
 1012SOL     hw 4047   5.917   3.789   0.918 -1.1218  1.9371 -2.0258
 1012SOL     vw 4048   5.966   3.849   0.958 -0.4501  0.4097 -0.4331
 1013SOL     ow 4049   6.597   1.594   5.680 -0.2582 -0.3548 -0.3877
 1013SOL     hw 4050   6.658   1.546   5.624 -0.0915 -1.4465  0.7013
 1013SOL     hw 4051   6.510   1.570   5.647 -0.1744 -1.3839  0.1216
 1013SOL     vw 4052   6.593   1.585   5.668 -0.2253 -0.6347 -0.1767
 1014SOL     ow 4053   5.443   5.501   4.443 -0.2434  0.3720  0.1355
 1014SOL     hw 4054   5.399   5.563   4.385  0.7690  1.5080  0.5440
 1014SOL     hw 4055   5.536   5.515   4.427  0.0153 -1.7412 -0.4591
 1014SOL     vw 4056   5.449   5.511   4.434 -0.0756  0.2434  0.1111
 1015SOL     ow 4057   3.591   2.012   2.075 -0.2535  0.0886 -0.0462
 1015SOL     hw 4058   3.624   2.087   2.025 -0.6887 -0.5144 -1.2578
 1015SOL     hw 4059   3.568   1.947   2.009 -1.1524 -0.6058  0.9213
 1015SOL     vw 4060   3.592   2.014   2.060 -0.4296 -0.0825 -0.0783
 1016SOL     ow 4061   6.503   5.924   1.900  0.0569 -0.2729 -0.2611
 1016SOL     hw 4062   6.573   5.936   1.835  0.8329  0.4399  0.6638
 1016SOL     hw 4063   6.422   5.925   1.849  0.7544 -2.2584 -1.4896
 1016SOL     vw 4064   6.502   5.926   1.884  0.2513 -0.4408 -0.3011
 1017SOL     ow 4065   2.314   5.768   3.841 -0.1902  0.2759 -0.1540
 1017SOL     hw 4066   2.328   5.863   3.839  0.4616  0.1927  0.2388
 1017SOL     hw 4067   2.243   5.754   3.779 -0.8564  1.1111  0.3965
 1017SOL     vw 4068   2.307   5.779   3.832 -0.1922  0.3750 -0.0296
 1018SOL     ow 4069   6.014   6.634   6.014 -0.0236  0.6692  0.0043
 1018SOL     hw 4070   5.977   6.672   6.094 -2.0073  2.0896 -1.4951
 1018SOL     hw 4071   6.080   6.697   5.986  1.2585 -0.2312  0.9091
 1018SOL     vw 4072   6.018   6.647   6.021 -0.1161  0.7379 -0.0741
 1019SOL     ow 4073   3.544   0.617   3.211  0.3572 -0.1292  0.2256
 1019SOL     hw 4074   3.630   0.614   3.251  0.8679 -0.5135 -0.8658
 1019SOL     hw 4075   3.496   0.683   3.262  1.5306  0.6271  0.3897
 1019SOL     vw 4076   3.549   0.626   3.223  0.5792 -0.0801  0.1032
 1020SOL     ow 4077   5.136   1.670   0.194 -0.5339  0.1409  0.6128
 1020SOL     hw 4078   5.176   1.584   0.181  2.4613  1.5578 -0.3715
 1020SOL     hw 4079   5.138   1.683   0.289  4.3772  1.2842  0.6015
 1020SOL     vw 4080   5.142   1.660   0.205  0.5090  0.4786  0.4814
 1021SOL     ow 4081   4.424   0.712   5.653 -0.1400  0.9086 -0.3818
 1021SOL     hw 4082   4.454   0.771   5.723 -0.8507  0.2819  0.4611
 1021SOL     hw 4083   4.488   0.640   5.654 -1.3685 -0.2297  1.1541
 1021SOL     vw 4084   4.437   0.711   5.663 -0.3960  0.6757 -0.0679
 1022SOL     ow 4085   5.360   1.996   6.123  0.1184 -0.3365  0.2688
 1022SOL     hw 4086   5.336   1.945   6.045  0.9396  1.9841 -1.6201
 1022SOL     hw 4087   5.292   2.064   6.129  0.6140  0.1094  0.9812
 1022SOL     vw 4088   5.348   1.998   6.114  0.2921  0.0285  0.1135
 1023SOL     ow 4089   4.575   3.208   3.445  0.7569  0.4933  0.4503
 1023SOL     hw 4090   4.523   3.288   3.436  0.2388  0.0542 -0.7093
 1023SOL     hw 4091   4.620   3.218   3.529 -0.8991  1.0698  1.3187
 1023SOL     vw 4092   4.574   3.220   3.455  0.4702  0.5113  0.4120
 1024SOL     ow 4093   2.179   1.845   2.009  0.2023 -0.7005  0.0710
 1024SOL     hw 4094   2.266   1.815   1.985  0.0141 -0.4687 -0.9586
 1024SOL     hw 4095   2.126   1.766   2.014 -0.1957 -0.6671 -2.2227
 1024SOL     vw 4096   2.183   1.831   2.006  0.1252 -0.6655 -0.3675
 1025SOL     ow 4097   4.836   3.386   4.387  0.3241 -0.1121 -0.9456
 1025SOL     hw 4098   4.859   3.297   4.361  2.5697 -0.1845  0.9097
 1025SOL     hw 4099   4.901   3.441   4.342  1.8291  0.0839  1.2670
 1025SOL     vw 4100   4.848   3.382   4.378  0.8190 -0.0958 -0.4086
 1026SOL     ow 4101   2.987   3.598   1.052  0.5919 -0.0765  0.6571
 1026SOL     hw 4102   2.940   3.535   1.106 -2.9989 -1.2878 -3.2853
 1026SOL     hw 4103   3.056   3.546   1.010  1.2926  0.0828  1.5832
 1026SOL     vw 4104   2.990   3.583   1.053  0.2106 -0.2153  0.2592
 1027SOL     ow 4105   4.559   1.539   1.773  0.5714 -0.7545 -0.2640
 1027SOL     hw 4106   4.512   1.515   1.693  1.1949  0.2862 -0.9630
 1027SOL     hw 4107   4.495   1.523   1.843 -0.9292  0.8166 -1.1991
 1027SOL     vw 4108   4.544   1.533   1.771  0.4556 -0.4099 -0.4796
 1028SOL     ow 4109   1.390   4.495   1.884  0.0829 -0.1373 -0.2694
 1028SOL     hw 4110   1.438   4.568   1.843 -1.1340  0.7550 -0.1553
 1028SOL     hw 4111   1.427   4.417   1.843  1.2565  0.5406 -0.5817
 1028SOL     vw 4112   1.401   4.495   1.873  0.0772  0.0699 -0.2956
 1029SOL     ow 4113   5.623   4.615   1.326 -0.8851  0.5097  1.1416
 1029SOL     hw 4114   5.578   4.646   1.248 -0.2968  0.0879  0.6224
 1029SOL     hw 4115   5.637   4.522   1.311 -1.6154  0.2174  2.1839
 1029SOL     vw 4116   5.619   4.607   1.314 -0.9041  0.4153  1.2106
 1030SOL     ow 4117   2.091   2.791   6.754 -0.7812 -0.4274  0.5045
 1030SOL     hw 4118   2.042   2.872   6.766 -0.0076  0.0535  0.5089
 1030SOL     hw 4119   2.075   2.741   6.834 -1.1942 -0.2475  0.5376
 1030SOL     vw 4120   2.082   2.795   6.766 -0.7335 -0.3402  0.5093
 1031SOL     ow 4121   1.562   3.941   1.214 -0.1448  0.4024 -0.2835
 1031SOL     hw 4122   1.548   3.887   1.136  0.8233  1.6514 -1.3689
 1031SOL     hw 4123   1.656   3.932   1.232 -0.7146 -1.8025  2.2649
 1031SOL     vw 4124   1.573   3.932   1.206 -0.0922  0.2763 -0.0904
 1032SOL     ow 4125   6.590   4.886   4.131 -0.2003  0.0871 -0.4642
 1032SOL     hw 4126   6.582   4.971   4.175 -2.7064  0.2952 -1.1542
 1032SOL     hw 4127   6.683   4.862   4.140  0.0165  1.5631  2.1700
 1032SOL     vw 4128   6.601   4.894   4.138 -0.5021  0.3092 -0.2077
 1033SOL     ow 4129   0.351   3.087   4.734  0.3568  0.3208  0.3205
 1033SOL     hw 4130   0.373   2.999   4.764 -1.2872 -0.3419 -0.2635
 1033SOL     hw 4131   0.303   3.126   4.807  0.3303  0.4104  0.2555
 1033SOL     vw 4132   0.347   3.080   4.748  0.1364  0.2451  0.2348
 1034SOL     ow 4133   7.126   7.242   1.894 -0.2210  0.6474 -0.2238
 1034SOL     hw 4134   7.136   7.156   1.935 -2.0366  1.1003  1.2795
 1034SOL     hw 4135   7.084   7.223   1.810  0.4131 -0.0015 -0.4102
 1034SOL     vw 4136   7.122   7.228   1.888 -0.3767  0.6216 -0.0501
 1035SOL     ow 4137   4.732   5.472   1.511  0.1895  0.3970  0.0165
 1035SOL     hw 4138   4.801   5.526   1.472 -0.9976 -0.0057 -2.9413
 1035SOL     hw 4139   4.775   5.389   1.531  1.0222  0.8868  0.2947
 1035SOL     vw 4140   4.747   5.468   1.508  0.1426  0.4084 -0.3371
 1036SOL     ow 4141   4.721   1.428   0.460  0.5647  0.3582 -0.2797
 1036SOL     hw 4142   4.634   1.419   0.422  0.2041 -0.4597  0.6762
 1036SOL     hw 4143   4.720   1.512   0.506  1.0932  1.4872 -2.2060
 1036SOL     vw 4144   4.710   1.438   0.461  0.5870  0.3992 -0.4077
 1037SOL     ow 4145   5.645   4.857   6.174  0.6163 -0.2085 -0.7936
 1037SOL     hw 4146   5.723   4.889   6.129  1.3318 -0.7555  0.0174
 1037SOL     hw 4147   5.625   4.925   6.238 -0.0431  0.2881 -1.5101
 1037SOL     vw 4148   5.653   4.870   6.176  0.6235 -0.2153 -0.7808
 1038SOL     ow 4149   5.277   0.976   3.209  0.3454  0.4082  0.0086
 1038SOL     hw 4150   5.281   1.027   3.290  0.2097 -0.0680  0.3203
 1038SOL     hw 4151   5.189   0.937   3.210 -0.4194  1.9717 -1.3394
 1038SOL     vw 4152   5.266   0.978   3.220  0.2263  0.5516 -0.1281
 1039SOL     ow 4153   3.835   2.429   7.216 -0.7019 -0.0918 -0.1417
 1039SOL     hw 4154   3.754   2.412   7.265 -0.9915  0.7557 -0.3055
 1039SOL     hw 4155   3.816   2.508   7.165  0.6592  0.8798  0.7864
 1039SOL     vw 4156   3.822   2.437   7.215 -0.5605  0.1483 -0.0410
 1040SOL     ow 4157   4.021   1.050   2.790 -0.4270 -0.0992  0.6104
 1040SOL     hw 4158   3.998   1.022   2.702 -0.1064 -0.2859  0.5852
 1040SOL     hw 4159   3.996   0.976   2.846  0.6016 -0.5228  0.5222
 1040SOL     vw 4160   4.014   1.037   2.786 -0.2489 -0.1797  0.5955
 1041SOL     ow 4161   2.304   2.925   5.801 -0.2515  0.9077 -0.5151
 1041SOL     hw 4162   2.307   2.835   5.834 -3.0855  0.8007 -0.2882
 1041SOL     hw 4163   2.283   2.978   5.878 -1.4660  1.3639 -1.1321
 1041SOL     vw 4164   2.302   2.920   5.816 -0.7857  0.9538 -0.5665
 1042SOL     ow 4165   6.337   1.984   3.946 -0.6563  0.1006 -0.6681
 1042SOL     hw 4166   6.276   1.940   3.886 -1.1516 -0.1135 -0.0240
 1042SOL     hw 4167   6.302   2.072   3.955 -0.7578  0.0392 -0.4567
 1042SOL     vw 4168   6.324   1.990   3.939 -0.7353  0.0643 -0.5552
 1043SOL     ow 4169   5.528   6.868   4.010  0.1831  0.7223  0.2714
 1043SOL     hw 4170   5.486   6.798   4.060 -1.9823  0.4230 -1.7784
 1043SOL     hw 4171   5.606   6.828   3.973 -1.1507 -0.7819 -1.0673
 1043SOL     vw 4172   5.532   6.854   4.011 -0.2787  0.4845 -0.1757
 1044SOL     ow 4173   2.970   3.631   5.311  0.6632 -0.0491  0.0581
 1044SOL     hw 4174   3.011   3.662   5.230 -0.0349  2.2152  0.4813
 1044SOL     hw 4175   2.882   3.604   5.284  0.0077  1.7979  0.1436
 1044SOL     vw 4176   2.964   3.632   5.297  0.4846  0.4933  0.1249
 1045SOL     ow 4177   5.561   4.095   0.832 -0.0298 -0.3908  0.4266
 1045SOL     hw 4178   5.641   4.145   0.844 -1.5945  1.9360  2.1353
 1045SOL     hw 4179   5.575   4.015   0.884  0.1324  1.3767  3.3085
 1045SOL     vw 4180   5.573   4.091   0.840 -0.2148  0.1497  1.0323
 1046SOL     ow 4181   2.248   6.799   5.998 -0.6479  0.6745 -0.6596
 1046SOL     hw 4182   2.289   6.876   5.958  0.0531 -0.0950 -1.4705
 1046SOL     hw 4183   2.164   6.831   6.031 -1.2457  1.3846 -2.7306
 1046SOL     vw 4184   2.242   6.814   5.997 -0.6343  0.6669 -1.0400
 1047SOL     ow 4185   5.282   1.911   1.022  0.3086 -0.4553 -0.8016
 1047SOL     hw 4186   5.340   1.838   1.001  3.2207  0.1224  3.8575
 1047SOL     hw 4187   5.203   1.869   1.058  1.6367 -1.4249  1.1318
 1047SOL     vw 4188   5.279   1.896   1.024  0.8678 -0.5071  0.0682
 1048SOL     ow 4189   3.006   1.706   3.856  0.7918  0.2250  0.4249
 1048SOL     hw 4190   3.089   1.714   3.810  1.0476 -0.0389  0.8366
 1048SOL     hw 4191   3.023   1.741   3.943  0.0094  1.7772 -0.0208
 1048SOL     vw 4192   3.019   1.711   3.861  0.7224  0.3949  0.4205
 1049SOL     ow 4193   2.705   0.538   1.750 -0.4376 -1.0007 -0.0665
 1049SOL     hw 4194   2.665   0.555   1.664  0.0724  1.1957  0.0602
 1049SOL     hw 4195   2.766   0.611   1.762 -2.6349  0.5246  3.4300
 1049SOL     vw 4196   2.708   0.550   1.740 -0.6602 -0.5096  0.4115
 1050SOL     ow 4197   4.369   5.156   6.723 -0.3705 -0.1756 -0.1452
 1050SOL     hw 4198   4.301   5.177   6.658 -1.4524  0.6216  1.1714
 1050SOL     hw 4199   4.337   5.196   6.804  1.4843 -0.1546  0.6302
 1050SOL     vw 4200   4.356   5.164   6.725 -0.2689 -0.0679  0.1309
 1051SOL     ow 4201   6.316   4.956   3.243 -0.1458  0.4279 -0.0146
 1051SOL     hw 4202   6.241   4.928   3.295 -2.0696  1.8374 -1.8678
 1051SOL     hw 4203   6.291   5.041   3.208  3.9655  2.9719  2.4597
 1051SOL     vw 4204   6.303   4.963   3.245  0.1426  0.9496  0.0675
 1052SOL     ow 4205   4.607   3.046   3.753  0.2143  0.0488  0.8018
 1052SOL     hw 4206   4.650   2.985   3.813  0.6491  1.2186  1.7196
 1052SOL     hw 4207   4.546   3.096   3.808 -1.6479 -0.8981 -0.2934
 1052SOL     vw 4208   4.604   3.045   3.768  0.0260  0.0782  0.7784
 1053SOL     ow 4209   5.660   7.151   6.632 -0.0559  0.3249 -0.0051
 1053SOL     hw 4210   5.584   7.206   6.616  0.3985  1.4525  1.5812
 1053SOL     hw 4211   5.734   7.203   6.602  0.3172  0.3066  0.8619
 1053SOL     vw 4212   5.660   7.165   6.626  0.0532  0.4714  0.3185
 1054SOL     ow 4213   1.980   2.049   4.401  0.0707 -0.4784  0.1308
 1054SOL     hw 4214   2.073   2.028   4.391  0.6610  1.8751  0.0398
 1054SOL     hw 4215   1.969   2.069   4.494  0.1428  1.0742 -0.1579
 1054SOL     vw 4216   1.991   2.049   4.412  0.1581  0.0370  0.0808
 1055SOL     ow 4217   5.908   3.559   4.034 -0.2197 -0.2473  0.6425
 1055SOL     hw 4218   5.897   3.534   3.942  2.2021  1.4397 -0.2133
 1055SOL     hw 4219   5.948   3.483   4.075  0.3689 -0.4024 -0.1816
 1055SOL     vw 4220   5.912   3.546   4.027  0.1774 -0.0452  0.4206
 1056SOL     ow 4221   2.397   0.529   6.106 -0.1676 -0.7725 -0.1840
 1056SOL     hw 4222   2.328   0.590   6.131  0.9993 -0.4309  2.6226
 1056SOL     hw 4223   2.437   0.568   6.029 -0.7633  0.9471  0.3336
 1056SOL     vw 4224   2.393   0.542   6.099 -0.0921 -0.5005  0.2544
 1057SOL     ow 4225   1.322   0.308   0.108 -0.2630  0.1173  0.3153
 1057SOL     hw 4226   1.417   0.302   0.111 -0.2063 -1.4574 -1.8380
 1057SOL     hw 4227   1.298   0.358   0.186  2.3394  1.0739  0.5891
 1057SOL     vw 4228   1.331   0.314   0.119  0.0879  0.0358  0.0673
 1058SOL     ow 4229   5.722   3.619   4.256  0.5082  0.4414  0.3545
 1058SOL     hw 4230   5.674   3.613   4.339  1.2398 -0.6919  0.7261
 1058SOL     hw 4231   5.720   3.530   4.221  2.4436  0.2896  0.4854
 1058SOL     vw 4232   5.715   3.606   4.263  0.8600  0.2718  0.4206
 1059SOL     ow 4233   3.322   2.936   0.600  0.1716  0.7507  0.2159
 1059SOL     hw 4234   3.239   2.958   0.641 -0.6473 -1.0963 -0.3946
 1059SOL     hw 4235   3.302   2.928   0.507  0.4163 -2.1943  0.3267
 1059SOL     vw 4236   3.309   2.938   0.593  0.0957  0.1186  0.1500
 1060SOL     ow 4237   5.005   0.383   3.526 -0.2239 -0.4244  0.0607
 1060SOL     hw 4238   5.010   0.400   3.620 -0.4437 -3.5641  0.7471
 1060SOL     hw 4239   4.914   0.403   3.502  0.3320  2.3946 -0.0394
 1060SOL     vw 4240   4.994   0.388   3.535 -0.1798 -0.4667  0.1380
 1061SOL     ow 4241   3.258   6.218   0.065  0.0890 -0.3629  1.2763
 1061SOL     hw 4242   3.252   6.244  -0.027 -1.7614 -0.1922  1.4038
 1061SOL     hw 4243   3.329   6.154   0.068  1.0783  0.6435 -0.0208
 1061SOL     vw 4244   3.266   6.213   0.053 -0.0246 -0.2077  1.1218
 1062SOL     ow 4245   6.975   7.189   1.662 -0.1444 -0.1665 -0.5320
 1062SOL     hw 4246   7.050   7.195   1.602  0.6913 -1.8554  0.2629
 1062SOL     hw 4247   6.930   7.110   1.634 -0.8100  0.0538 -0.0784
 1062SOL     vw 4248   6.979   7.180   1.650 -0.1221 -0.3600 -0.3673
 1063SOL     ow 4249   1.443   6.398   0.263 -0.0629  0.3508  0.3323
 1063SOL     hw 4250   1.470   6.368   0.176  0.2498  2.0964 -0.2038
 1063SOL     hw 4251   1.428   6.317   0.312 -0.5883 -0.6773 -1.4274
 1063SOL     vw 4252   1.445   6.383   0.258 -0.0910  0.4454  0.0294
 1064SOL     ow 4253   0.888   3.910   4.890 -0.0650  0.2027  0.4061
 1064SOL     hw 4254   0.855   3.841   4.948  1.2684  0.0352  0.9998
 1064SOL     hw 4255   0.982   3.912   4.907  0.2410  0.6859 -1.1956
 1064SOL     vw 4256   0.896   3.901   4.900  0.1512  0.2443  0.2732
 1065SOL     ow 4257   1.763   4.362   5.288 -0.0935 -0.1401 -0.5886
 1065SOL     hw 4258   1.834   4.303   5.315 -0.4911 -0.1034  0.5696
 1065SOL     hw 4259   1.719   4.387   5.369 -2.4504 -1.4035 -1.3834
 1065SOL     vw 4260   1.767   4.358   5.302 -0.4568 -0.3021 -0.5407
 1066SOL     ow 4261   6.501   3.701   5.631 -0.0372  0.3073  0.4847
 1066SOL     hw 4262   6.570   3.767   5.636  0.0792  0.1343  1.2760
 1066SOL     hw 4263   6.420   3.752   5.623  0.2105  0.5014 -1.0694
 1066SOL     vw 4264   6.499   3.716   5.631  0.0110  0.3099  0.3841
 1067SOL     ow 4265   2.339   6.565   6.231 -0.2523  0.4687  0.4455
 1067SOL     hw 4266   2.350   6.615   6.312 -1.4505  0.4232  0.6626
 1067SOL     hw 4267   2.341   6.473   6.260  1.2577  0.3781  0.1401
 1067SOL     vw 4268   2.341   6.559   6.246 -0.2112  0.4506  0.4337
 1068SOL     ow 4269   2.812   3.251   2.637  0.0359  0.1396 -0.1247
 1068SOL     hw 4270   2.849   3.223   2.554  2.5369 -0.7682  1.1925
 1068SOL     hw 4271   2.888   3.262   2.695 -1.7195 -1.6088  2.7497
 1068SOL     vw 4272   2.827   3.249   2.634  0.1342 -0.2108  0.4283
 1069SOL     ow 4273   1.407   5.900   0.869 -0.3329  0.3538 -0.0207
 1069SOL     hw 4274   1.486   5.946   0.897  0.3245 -0.9760  0.3820
 1069SOL     hw 4275   1.352   5.969   0.831  1.0958  1.2816 -0.5255
 1069SOL     vw 4276   1.410   5.915   0.867 -0.0576  0.3009 -0.0341
 1070SOL     ow 4277   5.813   5.037   3.411 -0.5344  0.0832  0.2103
 1070SOL     hw 4278   5.760   5.002   3.482 -1.5435  0.4640 -0.3301
 1070SOL     hw 4279   5.788   4.985   3.335 -1.4923  1.4227 -0.4365
 1070SOL     vw 4280   5.803   5.026   3.410 -0.7939  0.3104  0.0538
 1071SOL     ow 4281   5.107   2.164   1.504  0.6480 -0.2776 -0.4830
 1071SOL     hw 4282   5.037   2.149   1.442 -0.8326  1.6245  0.6168
 1071SOL     hw 4283   5.175   2.209   1.454  0.5879 -1.0441 -1.2765
 1071SOL     vw 4284   5.107   2.168   1.490  0.4447 -0.1278 -0.4427
 1072SOL     ow 4285   5.253   1.475   2.990 -0.7961  0.5146  0.5194
 1072SOL     hw 4286   5.248   1.379   2.991  0.2215  0.4365 -0.1209
 1072SOL     hw 4287   5.167   1.504   3.021 -0.7253 -0.6092  1.8722
 1072SOL     vw 4288   5.241   1.466   2.994 -0.6526  0.3560  0.6136
 1073SOL     ow 4289   0.039   2.831   1.871  0.3261  0.0817  0.2942
 1073SOL     hw 4290  -0.001   2.765   1.815 -0.2944 -0.3860  1.2661
 1073SOL     hw 4291   0.130   2.834   1.842  0.3047 -1.0142  0.0495
 1073SOL     vw 4292   0.046   2.823   1.860  0.2414 -0.1246  0.3901
 1074SOL     ow 4293   3.002   4.923   3.151  0.3544  0.3723  0.3003
 1074SOL     hw 4294   2.979   4.987   3.218  0.0940 -1.7434  2.3623
 1074SOL     hw 4295   2.923   4.913   3.098  0.1329  1.1218  0.4806
 1074SOL     vw 4296   2.989   4.930   3.153  0.2909  0.1924  0.5960
 1075SOL     ow 4297   1.372   6.231   2.023  0.1507 -0.4354 -0.5102
 1075SOL     hw 4298   1.455   6.190   2.047 -1.2775 -1.5753  3.3306
 1075SOL     hw 4299   1.320   6.159   1.985 -0.2156 -0.6541  0.3726
 1075SOL     vw 4300   1.376   6.216   2.021 -0.0861 -0.6146  0.1131
 1076SOL     ow 4301   0.628   4.448   2.757 -0.1411 -0.1035 -0.3148
 1076SOL     hw 4302   0.536   4.460   2.781  0.1325 -0.3771  0.9146
 1076SOL     hw 4303   0.635   4.354   2.737 -0.3519  0.1099 -1.4554
 1076SOL     vw 4304   0.616   4.437   2.757 -0.1328 -0.1116 -0.3031
 1077SOL     ow 4305   5.514   4.400   4.184 -0.3046 -0.0709 -0.4829
 1077SOL     hw 4306   5.583   4.465   4.197 -0.9747  0.9362 -1.7761
 1077SOL     hw 4307   5.548   4.321   4.227  0.9319  0.8551  0.3049
 1077SOL     vw 4308   5.528   4.398   4.191 -0.2298  0.1843 -0.5498
 1078SOL     ow 4309   3.030   2.610   6.843 -0.0755 -0.3902  1.2818
 1078SOL     hw 4310   3.013   2.548   6.914 -1.8870  0.3307  1.5450
 1078SOL     hw 4311   3.010   2.696   6.880 -1.8325 -0.0532 -0.2793
 1078SOL     vw 4312   3.025   2.613   6.857 -0.5463 -0.2506  1.1108
 1079SOL     ow 4313   0.500   4.802   0.516  0.9943  0.2923 -0.3669
 1079SOL     hw 4314   0.461   4.833   0.435  0.2383 -0.4504 -0.2999
 1079SOL     hw 4315   0.506   4.707   0.506  3.2043  0.3960 -0.5397
 1079SOL     vw 4316   0.495   4.794   0.504  1.1861  0.2079 -0.3808
 1080SOL     ow 4317   1.329   1.454   5.735  0.0001 -0.6861 -0.1793
 1080SOL     hw 4318   1.295   1.461   5.824  2.1026  0.0454  0.6408
 1080SOL     hw 4319   1.357   1.362   5.728 -0.7730 -0.9165 -0.3435
 1080SOL     vw 4320   1.328   1.443   5.746  0.1755 -0.6200 -0.0927
 1081SOL     ow 4321   5.280   6.954   1.982  0.2400  0.0551 -0.3773
 1081SOL     hw 4322   5.286   6.945   2.077  0.3465  0.1815 -0.3718
 1081SOL     hw 4323   5.187   6.965   1.964  0.2778  0.6142 -0.2377
 1081SOL     vw 4324   5.269   6.954   1.993  0.2592  0.1452 -0.3582
 1082SOL     ow 4325   1.490   3.721   5.046 -0.4427  0.6239 -0.2218
 1082SOL     hw 4326   1.408   3.675   5.064 -0.2310 -0.2618 -1.4137
 1082SOL     hw 4327   1.506   3.706   4.953 -0.2450  2.9540 -0.6365
 1082SOL     vw 4328   1.481   3.713   5.036 -0.3887  0.8146 -0.4339
 1083SOL     ow 4329   5.937   2.937   4.661  0.5704  0.0170  0.3966
 1083SOL     hw 4330   5.845   2.939   4.635  0.3865 -0.5432  0.9679
 1083SOL     hw 4331   5.981   2.892   4.589  0.1370 -1.1260  0.8158
 1083SOL     vw 4332   5.931   2.931   4.648  0.4890 -0.2077  0.5274
 1084SOL     ow 4333   0.432   2.953   4.153 -0.1937  0.2150  0.5426
 1084SOL     hw 4334   0.466   2.869   4.185  1.6023 -0.0113 -1.7754
 1084SOL     hw 4335   0.508   3.011   4.150 -0.9016  1.1269 -0.4352
 1084SOL     vw 4336   0.446   2.950   4.157 -0.0502  0.3055  0.1078
 1085SOL     ow 4337   6.456   1.274   4.005  0.0503 -1.1086  0.5563
 1085SOL     hw 4338   6.433   1.329   4.080 -0.9422  1.2669 -1.3629
 1085SOL     hw 4339   6.524   1.324   3.959 -0.4951 -1.7367 -0.9735
 1085SOL     vw 4340   6.462   1.288   4.009 -0.1526 -0.8780  0.1013
 1086SOL     ow 4341   4.327   3.973   3.358 -0.4911 -0.4532  0.1981
 1086SOL     hw 4342   4.403   3.966   3.416 -0.2862 -0.7090 -0.1000
 1086SOL     hw 4343   4.362   4.004   3.275 -0.9473  1.1017  0.5420
 1086SOL     vw 4344   4.342   3.976   3.355 -0.5243 -0.2818  0.2042
 1087SOL     ow 4345   0.449   6.389   6.954 -0.9060 -0.0041 -0.1719
 1087SOL     hw 4346   0.467   6.447   6.879 -1.2183 -0.6623 -0.7686
 1087SOL     hw 4347   0.354   6.391   6.964 -0.7689  1.3069  1.2263
 1087SOL     vw 4348   0.439   6.397   6.945 -0.9291  0.0820 -0.0663
 1088SOL     ow 4349   0.702   5.992   7.226 -0.7240 -0.5246 -0.4922
 1088SOL     hw 4350   0.642   5.920   7.243 -1.2798 -0.1262 -0.7672
 1088SOL     hw 4351   0.701   6.044   7.306  0.4499 -1.3564  0.0971
 1088SOL     vw 4352   0.694   5.989   7.239 -0.6424 -0.5820 -0.4511
 1089SOL     ow 4353   4.925   1.477   2.713  0.0463 -0.1562  0.0111
 1089SOL     hw 4354   4.979   1.402   2.686  1.9689 -0.0572  3.1105
 1089SOL     hw 4355   4.843   1.438   2.743  0.5803 -0.9102  0.5098
 1089SOL     vw 4356   4.921   1.462   2.713  0.3700 -0.2426  0.4857
 1090SOL     ow 4357   4.943   1.924   5.909 -0.3005 -0.0907 -0.4162
 1090SOL     hw 4358   5.031   1.963   5.915  0.3889 -1.7190  0.9999
 1090SOL     hw 4359   4.893   1.986   5.855  1.4428  1.3559 -0.4810
 1090SOL     vw 4360   4.948   1.937   5.902  0.0203 -0.1147 -0.2382
 1091SOL     ow 4361   6.270   0.810   3.428  0.2209  0.3901  0.6982
 1091SOL     hw 4362   6.357   0.773   3.411  0.6256  0.1214  2.9917
 1091SOL     hw 4363   6.214   0.734   3.444  0.3798  0.5853  2.4800
 1091SOL     vw 4364   6.274   0.795   3.428  0.2952  0.3804  1.2358
 1092SOL     ow 4365   4.816   3.877   2.976 -0.1038  0.1293 -0.0658
 1092SOL     hw 4366   4.806   3.932   2.898  2.8868  0.2302 -0.4991
 1092SOL     hw 4367   4.803   3.938   3.049  0.1710  0.7310 -0.5072
 1092SOL     vw 4368   4.813   3.893   2.976  0.3271  0.2220 -0.1814
 1093SOL     ow 4369   4.487   4.339   3.273 -0.5287  0.2891  0.3062
 1093SOL     hw 4370   4.488   4.404   3.203 -0.3001 -0.3393 -0.2789
 1093SOL     hw 4371   4.492   4.255   3.229  0.6738 -0.0946  1.1058
 1093SOL     vw 4372   4.488   4.336   3.258 -0.3400  0.1554  0.3345
 1094SOL     ow 4373   4.064   6.323   3.371 -0.1843  0.1325 -0.2250
 1094SOL     hw 4374   4.038   6.231   3.373  1.1150 -0.2523  0.0215
 1094SOL     hw 4375   4.146   6.326   3.421 -1.5712  1.8821  2.1374
 1094SOL     vw 4376   4.072   6.312   3.378 -0.1960  0.3126  0.1193
 1095SOL     ow 4377   3.122   5.429   3.110 -0.1182 -0.6454  0.1441
 1095SOL     hw 4378   3.107   5.523   3.102  1.1521 -0.5055 -0.7627
 1095SOL     hw 4379   3.191   5.420   3.175 -1.6150 -1.1106  1.7757
 1095SOL     vw 4380   3.129   5.440   3.117 -0.1482 -0.6886  0.2398
 1096SOL     ow 4381   5.876   6.661   4.300 -0.0249 -0.3362  0.0680
 1096SOL     hw 4382   5.873   6.617   4.385 -1.6638 -2.0011 -0.7746
 1096SOL     hw 4383   5.844   6.750   4.318 -1.9123 -1.1317  0.9879
 1096SOL     vw 4384   5.871   6.667   4.313 -0.4902 -0.6609  0.0782
 1097SOL     ow 4385   5.922   2.122   1.068  0.4696 -0.5463 -0.1536
 1097SOL     hw 4386   5.892   2.204   1.107 -0.3163 -1.3286  0.9515
 1097SOL     hw 4387   6.018   2.127   1.072  0.4177  0.0149  0.5769
 1097SOL     vw 4388   5.931   2.133   1.073  0.3593 -0.5754  0.0886
 1098SOL     ow 4389   5.397   2.267   3.423  0.0839  0.6910  0.3484
 1098SOL     hw 4390   5.477   2.248   3.474  0.6981  1.6573 -0.2179
 1098SOL     hw 4391   5.428   2.321   3.350 -0.9349  0.1211 -0.5203
 1098SOL     vw 4392   5.412   2.272   3.420  0.0308  0.7434  0.1590
 1099SOL     ow 4393   6.741   6.394   5.335 -0.1812 -0.0288  0.5491
 1099SOL     hw 4394   6.663   6.418   5.286  0.0756 -0.3717 -0.0373
 1099SOL     hw 4395   6.709   6.377   5.424 -0.7123  0.1993  0.4069
 1099SOL     vw 4396   6.727   6.395   5.340 -0.2174 -0.0439  0.4530
 1100SOL     ow 4397   3.820   1.484   6.491  0.3840 -0.1427 -0.2994
 1100SOL     hw 4398   3.778   1.444   6.567  2.2902  2.0255  2.0562
 1100SOL     hw 4399   3.781   1.571   6.485  0.3408 -0.2285 -1.8267
 1100SOL     vw 4400   3.809   1.490   6.500  0.6298  0.1320 -0.1900
 1101SOL     ow 4401   3.729   3.374   5.078  0.3842 -0.1496 -0.0193
 1101SOL     hw 4402   3.690   3.417   5.002  1.5276  0.1986 -0.4225
 1101SOL     hw 4403   3.693   3.421   5.153 -1.4359 -1.0580 -0.2713
 1101SOL     vw 4404   3.719   3.386   5.078  0.2950 -0.2235 -0.1056
 1102SOL     ow 4405   2.031   6.918   3.605  0.4836 -0.0845  0.5334
 1102SOL     hw 4406   2.054   6.934   3.696  0.7459  1.2650  0.2416
 1102SOL     hw 4407   2.072   6.833   3.585  0.2836 -0.4727  1.6963
 1102SOL     vw 4408   2.039   6.909   3.614  0.4920  0.0422  0.6483
 1103SOL     ow 4409   6.795   3.579   3.693  0.0787 -0.0249  0.3449
 1103SOL     hw 4410   6.829   3.610   3.608  0.1809  0.3110  0.5030
 1103SOL     hw 4411   6.841   3.634   3.757  0.6941 -0.8974  0.6704
 1103SOL     vw 4412   6.806   3.591   3.690  0.1733 -0.0957  0.4086
 1104SOL     ow 4413   0.960   0.839   5.157 -0.0434  0.7761  0.1632
 1104SOL     hw 4414   0.943   0.837   5.251  3.7125 -3.1936  1.0999
 1104SOL     hw 4415   1.040   0.890   5.148  0.0949  0.4251 -0.7175
 1104SOL     vw 4416   0.968   0.845   5.168  0.4704  0.2060  0.1709
 1105SOL     ow 4417   1.134   0.945   6.327 -0.0616 -0.9083  0.1161
 1105SOL     hw 4418   1.068   0.889   6.287 -0.2025 -0.5996 -0.0910
 1105SOL     hw 4419   1.133   1.025   6.274 -1.2682  0.0975  1.5628
 1105SOL     vw 4420   1.125   0.948   6.315 -0.2394 -0.7349  0.2794
 1106SOL     ow 4421   2.568   0.796   2.551 -0.6805 -0.3954  0.0098
 1106SOL     hw 4422   2.553   0.808   2.457 -2.0509  0.0060  0.2597
 1106SOL     hw 4423   2.606   0.709   2.558  0.1446 -0.1449 -0.9751
 1106SOL     vw 4424   2.571   0.786   2.539 -0.7524 -0.3094 -0.0871
 1107SOL     ow 4425   5.324   6.442   3.372  0.0721 -0.0225 -0.0691
 1107SOL     hw 4426   5.348   6.436   3.279 -1.3619 -0.4567 -0.4372
 1107SOL     hw 4427   5.322   6.536   3.390 -1.4658  0.1594 -1.0110
 1107SOL     vw 4428   5.327   6.454   3.362 -0.3200 -0.0558 -0.2420
 1108SOL     ow 4429   5.428   0.605   1.522  0.3621 -0.5134 -0.2142
 1108SOL     hw 4430   5.385   0.523   1.500  0.4823 -0.5971 -0.1406
 1108SOL     hw 4431   5.394   0.668   1.459  1.7306 -1.0470 -1.5532
 1108SOL     vw 4432   5.418   0.603   1.511  0.5584 -0.5949 -0.3811
 1109SOL     ow 4433   5.100   3.480   5.403  0.1479  0.3942 -0.0228
 1109SOL     hw 4434   5.131   3.548   5.463  1.2427 -0.1348  0.0348
 1109SOL     hw 4435   5.134   3.398   5.440 -1.5689 -0.2557  0.1841
 1109SOL     vw 4436   5.109   3.478   5.416  0.0660  0.2388  0.0122
 1110SOL     ow 4437   6.197   4.754   3.474 -0.2009 -0.3559  0.4879
 1110SOL     hw 4438   6.148   4.779   3.395  0.6204 -2.7504 -0.8719
 1110SOL     hw 4439   6.286   4.739   3.444  1.2096  2.5838  2.6800
 1110SOL     vw 4440   6.202   4.755   3.460  0.0935 -0.2840  0.5977
 1111SOL     ow 4441   0.643   6.797   2.764 -0.1209  0.2857  0.0893
 1111SOL     hw 4442   0.581   6.869   2.747 -1.4822 -0.6987  0.7463
 1111SOL     hw 4443   0.700   6.797   2.687 -2.6001 -0.4627 -1.8808
 1111SOL     vw 4444   0.642   6.807   2.751 -0.6276  0.0570 -0.0839
 1112SOL     ow 4445   6.855   3.375   0.609 -0.6965 -0.2002  0.3013
 1112SOL     hw 4446   6.829   3.284   0.614 -2.0339  0.0732 -1.0258
 1112SOL     hw 4447   6.904   3.382   0.527  0.4463  0.0534  0.9799
 1112SOL     vw 4448   6.858   3.364   0.599 -0.7224 -0.1307  0.2157
 1113SOL     ow 4449   6.562   6.059   2.142 -0.3310  0.1740 -0.2122
 1113SOL     hw 4450   6.529   6.029   2.057  1.1222  0.8531 -1.0732
 1113SOL     hw 4451   6.487   6.101   2.183 -0.6996  1.3549 -1.9381
 1113SOL     vw 4452   6.548   6.061   2.136 -0.1879  0.4194 -0.5535
 1114SOL     ow 4453   6.071   2.670   7.149 -0.3023 -1.0663  0.2813
 1114SOL     hw 4454   6.135   2.602   7.168  0.8423  0.2785  1.4001
 1114SOL     hw 4455   6.123   2.744   7.118 -1.4702 -0.4520 -0.2876
 1114SOL     vw 4456   6.086   2.671   7.147 -0.3057 -0.8078  0.3541
 1115SOL     ow 4457   2.086   1.537   0.153 -0.3983 -0.1318  0.2552
 1115SOL     hw 4458   2.133   1.474   0.208  0.1037  1.1868  1.4144
 1115SOL     hw 4459   2.153   1.602   0.130 -0.7529 -0.3247 -1.4343
 1115SOL     vw 4460   2.101   1.538   0.158 -0.3788  0.0167  0.1852
 1116SOL     ow 4461   0.978   4.531   3.889  0.5287 -0.6110 -0.1159
 1116SOL     hw 4462   1.021   4.486   3.816 -0.7794 -2.3524  0.1093
 1116SOL     hw 4463   0.958   4.618   3.856  0.6444 -1.1121 -1.5778
 1116SOL     vw 4464   0.981   4.536   3.875  0.3714 -0.9069 -0.2791
 1117SOL     ow 4465   1.402   3.944   1.446  0.1879  0.1653 -0.0135
 1117SOL     hw 4466   1.343   3.968   1.375 -0.3480 -3.2801 -0.9027
 1117SOL     hw 4467   1.485   3.923   1.403  1.1636  1.9216  0.8971
 1117SOL     vw 4468   1.405   3.944   1.431  0.2460 -0.0576 -0.0107
 1118SOL     ow 4469   4.760   3.936   5.746  0.5324  0.4962 -0.0768
 1118SOL     hw 4470   4.794   3.914   5.832  0.4751  1.1310  0.1113
 1118SOL     hw 4471   4.806   3.877   5.686  0.6224  0.1036  0.3738
 1118SOL     vw 4472   4.770   3.925   5.749  0.5364  0.5282  0.0074
 1119SOL     ow 4473   6.292   2.560   5.872  0.4762  0.1143 -0.6643
 1119SOL     hw 4474   6.322   2.643   5.908  2.1104 -0.9083  0.4760
 1119SOL     hw 4475   6.202   2.552   5.903  0.3041  1.4238 -0.7716
 1119SOL     vw 4476   6.284   2.570   5.881  0.6692  0.1522 -0.5281
 1120SOL     ow 4477   5.074   2.310   3.476 -0.3690 -0.0390 -0.8820
 1120SOL     hw 4478   4.998   2.258   3.450 -0.4611 -0.0366 -0.6233
 1120SOL     hw 4479   5.070   2.313   3.572 -2.1889  3.1157 -0.9057
 1120SOL     vw 4480   5.064   2.304   3.486 -0.6216  0.3777 -0.8510
 1121SOL     ow 4481   1.893   6.200   2.322  0.2632  0.0411 -0.2284
 1121SOL     hw 4482   1.964   6.265   2.320 -1.1134  1.6187 -0.1712
 1121SOL     hw 4483   1.874   6.182   2.230 -0.2611  0.8083 -0.2864
 1121SOL     vw 4484   1.900   6.207   2.310  0.0124  0.3502 -0.2285
 1122SOL     ow 4485   2.710   5.131   7.221  0.1372 -0.0307 -0.2210
 1122SOL     hw 4486   2.649   5.069   7.260  1.3778 -1.0545  0.1563
 1122SOL     hw 4487   2.662   5.171   7.148 -0.2055 -2.5743 -1.4835
 1122SOL     vw 4488   2.696   5.128   7.216  0.2556 -0.5014 -0.3376
 1123SOL     ow 4489   4.775   2.752   5.582 -0.3954  0.3125  0.0436
 1123SOL     hw 4490   4.728   2.836   5.577  0.3587  0.8105  1.0416
 1123SOL     hw 4491   4.867   2.777   5.590  0.0442 -0.6451 -1.4978
 1123SOL     vw 4492   4.781   2.767   5.582 -0.2379  0.2519 -0.0279
 1124SOL     ow 4493   3.742   5.122   6.076 -0.1848  0.4814 -0.3843
 1124SOL     hw 4494   3.822   5.069   6.086 -1.2069 -0.8638  1.1225
 1124SOL     hw 4495   3.674   5.058   6.053 -0.9167  1.5704 -1.3365
 1124SOL     vw 4496   3.744   5.106   6.074 -0.4163  0.4475 -0.3111
 1125SOL     ow 4497   2.768   2.579   6.471  0.3051 -0.6463 -0.2744
 1125SOL     hw 4498   2.693   2.523   6.487 -0.9986  0.9330 -0.5880
 1125SOL     hw 4499   2.752   2.618   6.385  2.0431 -1.0937 -0.8486
 1125SOL     vw 4500   2.756   2.577   6.462  0.3624 -0.4969 -0.3917
 1126SOL     ow 4501   1.434   7.027   1.655 -0.3699 -0.1794  0.1750
 1126SOL     hw 4502   1.482   7.104   1.685 -3.2330  1.2792  1.3938
 1126SOL     hw 4503   1.461   6.957   1.714 -1.9998  1.3942  3.0157
 1126SOL     vw 4504   1.444   7.028   1.667 -0.9627  0.2205  0.7106
 1127SOL     ow 4505   4.535   2.811   7.146 -0.3702 -0.2100  0.0991
 1127SOL     hw 4506   4.597   2.880   7.122  0.3183 -0.4707  1.0735
 1127SOL     hw 4507   4.454   2.857   7.168  0.2112  0.3356  1.1638
 1127SOL     vw 4508   4.532   2.826   7.145 -0.2027 -0.1725  0.3681
 1128SOL     ow 4509   2.736   1.559   3.885 -0.1932 -0.3993  0.3303
 1128SOL     hw 4510   2.713   1.565   3.978  0.7598 -2.3137  0.7378
 1128SOL     hw 4511   2.652   1.569   3.839 -0.5144  1.8824  1.2823
 1128SOL     vw 4512   2.722   1.561   3.892 -0.1097 -0.3508  0.5097
 1129SOL     ow 4513   2.634   1.121   5.228 -0.3751 -0.4420 -0.4797
 1129SOL     hw 4514   2.649   1.216   5.226  1.0415 -0.6391 -0.4047
 1129SOL     hw 4515   2.642   1.094   5.137 -1.1925 -0.4441 -0.5573
 1129SOL     vw 4516   2.637   1.130   5.216 -0.2961 -0.4682 -0.4799
 1130SOL     ow 4517   7.195   4.225   2.657  0.3652 -0.1436  0.4394
 1130SOL     hw 4518   7.176   4.287   2.728  2.0879  0.8915  0.0650
 1130SOL     hw 4519   7.290   4.214   2.661  0.4964 -0.0905 -1.6835
 1130SOL     vw 4520   7.205   4.231   2.667  0.6094 -0.0002  0.1099
 1131SOL     ow 4521   4.919   5.814   3.897 -0.3501 -0.0728  0.0951
 1131SOL     hw 4522   5.003   5.787   3.860  0.4138  0.2592  1.5082
 1131SOL     hw 4523   4.866   5.735   3.898 -0.2074 -0.2049 -1.1693
 1131SOL     vw 4524   4.923   5.800   3.892 -0.2303 -0.0465  0.1147
 1132SOL     ow 4525   3.033   6.040   0.067  0.2551  0.0368 -0.0440
 1132SOL     hw 4526   3.109   6.097   0.070  1.6044 -1.7137  0.7800
 1132SOL     hw 4527   3.033   6.004  -0.022  1.1117 -0.8436  0.2937
 1132SOL     vw 4528   3.043   6.043   0.056  0.5461 -0.3102  0.1093
 1133SOL     ow 4529   3.555   1.665   0.877 -0.6874  0.4525 -0.6025
 1133SOL     hw 4530   3.517   1.699   0.796 -2.6824  1.0488  0.5132
 1133SOL     hw 4531   3.589   1.742   0.922 -0.4362  0.2506 -0.4446
 1133SOL     vw 4532   3.555   1.679   0.873 -0.9174  0.5046 -0.4344
 1134SOL     ow 4533   5.765   1.231   3.450 -0.6809  0.3090  0.6436
 1134SOL     hw 4534   5.683   1.281   3.450 -1.2258 -0.5464  1.2220
 1134SOL     hw 4535   5.739   1.144   3.480  0.1734 -0.4471 -0.7376
 1134SOL     vw 4536   5.751   1.226   3.454 -0.6399  0.0963  0.5378
 1135SOL     ow 4537   5.714   1.864   3.441  0.0680 -0.1080  0.2876
 1135SOL     hw 4538   5.806   1.847   3.463  0.3460 -0.7124 -1.2498
 1135SOL     hw 4539   5.665   1.807   3.500  0.6955 -0.1833  0.7544
 1135SOL     vw 4540   5.720   1.854   3.452  0.1872 -0.1976  0.1462
 1136SOL     ow 4541   6.016   3.659   3.046  0.1518 -0.2946 -0.1303
 1136SOL     hw 4542   6.085   3.691   3.105 -0.0538  1.5497 -0.8406
 1136SOL     hw 4543   6.058   3.591   2.994  1.1307  0.0717  0.1718
 1136SOL     vw 4544   6.030   3.654   3.047  0.2539 -0.0027 -0.1841
 1137SOL     ow 4545   6.345   3.300   5.290  0.6874 -0.2927  0.4642
 1137SOL     hw 4546   6.386   3.216   5.268 -0.8833 -0.4855 -2.1850
 1137SOL     hw 4547   6.280   3.278   5.357  0.4700 -1.1916 -0.0192
 1137SOL     vw 4548   6.342   3.286   5.296  0.4513 -0.4367  0.0508
 1138SOL     ow 4549   4.267   3.367   5.032 -0.4492  0.0961 -0.0862
 1138SOL     hw 4550   4.283   3.353   4.939 -0.4992  0.5375 -0.1608
 1138SOL     hw 4551   4.308   3.451   5.051 -1.6842  0.6905 -0.0236
 1138SOL     vw 4552   4.275   3.376   5.023 -0.6187  0.2326 -0.0877
 1139SOL     ow 4553   5.280   4.005   0.821  0.1158  0.3429  0.3640
 1139SOL     hw 4554   5.287   4.036   0.911 -1.7228  3.3489 -0.3615
 1139SOL     hw 4555   5.195   3.960   0.817 -0.0639  0.7058  0.0314
 1139SOL     vw 4556   5.270   4.003   0.832 -0.1504  0.7870  0.2245
 1140SOL     ow 4557   5.124   6.532   2.123  0.2596  0.6167  0.0665
 1140SOL     hw 4558   5.198   6.500   2.175  0.4947 -0.5739 -0.9381
 1140SOL     hw 4559   5.054   6.545   2.186  0.9891  0.6980  0.8847
 1140SOL     vw 4560   5.125   6.530   2.138  0.3870  0.4702  0.0418
 1141SOL     ow 4561   7.170   4.193   0.261  0.4394 -0.3466  0.8693
 1141SOL     hw 4562   7.189   4.203   0.167 -0.7295  0.4420  0.7046
 1141SOL     hw 4563   7.254   4.207   0.304  0.5413  1.8465  0.0862
 1141SOL     vw 4564   7.184   4.196   0.254  0.2987  0.0467  0.7443
 1142SOL     ow 4565   3.609   5.070   3.654  0.6460  0.0475 -0.8681
 1142SOL     hw 4566   3.528   5.057   3.703  0.8228  1.8473 -0.0072
 1142SOL     hw 4567   3.602   5.012   3.579 -1.5522  0.3148 -0.9291
 1142SOL     vw 4568   3.597   5.061   3.650  0.3793  0.3200 -0.7626
 1143SOL     ow 4569   6.575   5.398   3.596 -0.2250  0.3288  0.1675
 1143SOL     hw 4570   6.601   5.307   3.583  3.5485  1.3014 -0.2941
 1143SOL     hw 4571   6.518   5.396   3.673  0.7358 -2.2638  0.9111
 1143SOL     vw 4572   6.571   5.386   3.605  0.3996  0.1154  0.2046
 1144SOL     ow 4573   5.743   3.926   1.834  0.1839 -0.4985 -0.0445
 1144SOL     hw 4574   5.713   3.837   1.816 -0.2863 -0.2105 -0.7419
 1144SOL     hw 4575   5.831   3.916   1.869 -0.2297 -1.2956  0.7911
 1144SOL     vw 4576   5.750   3.913   1.836  0.0672 -0.5658 -0.0262
 1145SOL     ow 4577   0.661   4.610   2.982 -0.1362 -0.0807  0.0408
 1145SOL     hw 4578   0.621   4.538   3.031 -0.3100 -0.7783 -1.0728
 1145SOL     hw 4579   0.607   4.686   3.002 -0.9991 -0.6455 -0.1086
 1145SOL     vw 4580   0.649   4.610   2.991 -0.2730 -0.2472 -0.1259
 1146SOL     ow 4581   2.196   0.812   5.565  0.2512  0.3446 -0.0376
 1146SOL     hw 4582   2.120   0.756   5.579  0.5130 -0.4146 -1.4499
 1146SOL     hw 4583   2.183   0.885   5.625 -1.2380 -0.1170  0.2474
 1146SOL     vw 4584   2.184   0.814   5.575  0.0892  0.1835 -0.1864
 1147SOL     ow 4585   0.511   4.455   3.114 -0.3194 -0.8892  0.2294
 1147SOL     hw 4586   0.499   4.382   3.176 -0.7126  1.5044  3.2124
 1147SOL     hw 4587   0.434   4.511   3.128  1.8035  2.0415  1.0111
 1147SOL     vw 4588   0.499   4.452   3.124 -0.0912 -0.1864  0.7260
 1148SOL     ow 4589   0.077   3.834   2.605 -0.3433 -0.0814  0.1860
 1148SOL     hw 4590   0.145   3.881   2.653  0.1589 -0.6345  0.0268
 1148SOL     hw 4591   0.118   3.752   2.579 -0.6958  0.0770 -0.9316
 1148SOL     vw 4592   0.091   3.830   2.608 -0.3235 -0.1335  0.0178
 1149SOL     ow 4593   5.024   2.827   5.638 -0.9064  0.3371  0.0301
 1149SOL     hw 4594   5.016   2.836   5.733  3.0369  2.2886  0.3819
 1149SOL     hw 4595   5.087   2.757   5.625 -3.1225 -1.5441 -1.3896
 1149SOL     vw 4596   5.031   2.819   5.649 -0.6785  0.3463 -0.1111
 1150SOL     ow 4597   1.371   3.693   2.978  0.1336 -0.7182 -0.1773
 1150SOL     hw 4598   1.448   3.678   2.924  0.8582 -0.5656  0.7791
 1150SOL     hw 4599   1.297   3.669   2.923  0.8885 -1.2529 -0.9724
 1150SOL     vw 4600   1.372   3.688   2.964  0.3288 -0.7687 -0.1560
 1151SOL     ow 4601   4.703   1.429   5.026 -0.0713  0.8697 -0.4845
 1151SOL     hw 4602   4.701   1.500   5.091  0.1279 -0.6640  1.2936
 1151SOL     hw 4603   4.748   1.358   5.071 -4.3890 -2.1268 -0.2495
 1151SOL     vw 4604   4.709   1.429   5.041 -0.6146  0.2720 -0.2191
 1152SOL     ow 4605   5.045   5.974   4.099  0.3616  0.0269 -0.1555
 1152SOL     hw 4606   4.963   5.996   4.142  0.6910 -0.2973  0.6533
 1152SOL     hw 4607   5.027   5.894   4.050  0.5769 -0.9043  1.2356
 1152SOL     vw 4608   5.032   5.967   4.098  0.4334 -0.1390  0.1347
 1153SOL     ow 4609   1.967   5.208   5.998 -0.0777  0.2458  0.6022
 1153SOL     hw 4610   1.997   5.285   6.047 -2.9663 -0.1376  3.2749
 1153SOL     hw 4611   1.922   5.243   5.922  3.8843  0.8687 -1.7712
 1153SOL     vw 4612   1.965   5.223   5.994  0.0640  0.2773  0.6413
 1154SOL     ow 4613   3.670   3.248   6.155  0.6875 -0.0792  0.6024
 1154SOL     hw 4614   3.662   3.169   6.102  0.6292  0.8274 -0.8071
 1154SOL     hw 4615   3.619   3.229   6.234 -0.5878 -0.9165 -0.3689
 1154SOL     vw 4616   3.662   3.235   6.158  0.5114 -0.0702  0.2885
 1155SOL     ow 4617   1.585   6.350   2.399 -0.1605  0.1807 -0.2805
 1155SOL     hw 4618   1.667   6.383   2.363  2.2288 -1.9709  2.5984
 1155SOL     hw 4619   1.587   6.256   2.380 -1.8855  0.0518  0.0340
 1155SOL     vw 4620   1.596   6.342   2.392 -0.0728 -0.1202  0.1409
 1156SOL     ow 4621   5.663   7.105   1.528  0.0805  0.3603  0.0673
 1156SOL     hw 4622   5.601   7.168   1.564  0.8031  0.7676  0.6065
 1156SOL     hw 4623   5.730   7.158   1.486  0.3717 -0.0676 -0.0086
 1156SOL     vw 4624   5.663   7.120   1.527  0.2143  0.3576  0.1284
 1157SOL     ow 4625   0.689   5.682   3.274 -0.4356 -0.2275 -0.0839
 1157SOL     hw 4626   0.664   5.602   3.320  0.5189 -1.8568 -2.2396
 1157SOL     hw 4627   0.655   5.670   3.186  0.1072  1.5773 -0.5761
 1157SOL     vw 4628   0.681   5.670   3.269 -0.2380 -0.2041 -0.4331
 1158SOL     ow 4629   5.874   1.950   1.462  0.6834 -0.4817  0.2838
 1158SOL     hw 4630   5.819   1.907   1.527 -0.5194 -0.4615 -0.6767
 1158SOL     hw 4631   5.859   1.901   1.381 -0.0694  1.1634 -0.6401
 1158SOL     vw 4632   5.865   1.938   1.460  0.4253 -0.2620  0.0352
 1159SOL     ow 4633   1.587   4.325   5.076 -0.9854 -0.5063  0.0403
 1159SOL     hw 4634   1.504   4.372   5.079  0.2932  1.9144  0.3863
 1159SOL     hw 4635   1.623   4.334   5.164  1.2691  1.8206 -0.9900
 1159SOL     vw 4636   1.581   4.333   5.088 -0.5193  0.1199 -0.0498
 1160SOL     ow 4637   1.427   4.996   2.261  0.3990  0.0479  0.5492
 1160SOL     hw 4638   1.494   5.050   2.303 -0.2320  1.7010 -0.4860
 1160SOL     hw 4639   1.476   4.928   2.214  1.1714 -0.8371  2.5260
 1160SOL     vw 4640   1.442   4.994   2.260  0.4175  0.1490  0.6734
 1161SOL     ow 4641   4.165   2.549   1.494  0.1177  0.4051  0.2973
 1161SOL     hw 4642   4.107   2.588   1.429  0.3530  0.1115 -0.0925
 1161SOL     hw 4643   4.173   2.457   1.468 -0.9584 -0.0848  1.5801
 1161SOL     vw 4644   4.159   2.542   1.482  0.0064  0.3016  0.4150
 1162SOL     ow 4645   3.821   1.229   6.355  0.1880 -0.0305  0.1469
 1162SOL     hw 4646   3.912   1.231   6.326  0.5018  0.4140  1.0893
 1162SOL     hw 4647   3.816   1.298   6.421 -0.0531 -1.9575  2.2925
 1162SOL     vw 4648   3.832   1.238   6.360  0.1976 -0.2261  0.5546
 1163SOL     ow 4649   2.502   2.018   4.534 -0.0303  0.3660  0.1309
 1163SOL     hw 4650   2.575   2.027   4.472 -0.1847  0.0932 -0.0917
 1163SOL     hw 4651   2.504   2.099   4.585  0.0699  0.6113 -0.2618
 1163SOL     vw 4652   2.512   2.030   4.533 -0.0374  0.3624  0.0496
 1164SOL     ow 4653   3.985   4.208   2.617  0.5089 -0.0626  0.0331
 1164SOL     hw 4654   4.062   4.153   2.603  0.5535 -0.4949  1.6783
 1164SOL     hw 4655   4.015   4.297   2.599  1.3287 -0.2579  0.3620
 1164SOL     vw 4656   3.999   4.213   2.613  0.6229 -0.1452  0.2936
 1165SOL     ow 4657   4.642   1.998   2.038 -0.1517  1.0372 -0.9746
 1165SOL     hw 4658   4.697   2.074   2.024 -0.4736  1.3264 -0.6735
 1165SOL     hw 4659   4.567   2.031   2.087 -1.1033  0.8661 -2.2585
 1165SOL     vw 4660   4.639   2.012   2.042 -0.3200  1.0530 -1.1044
 1166SOL     ow 4661   6.725   2.194   3.550 -0.2918 -0.4648  0.1564
 1166SOL     hw 4662   6.747   2.147   3.470  2.5776  1.3227 -0.2544
 1166SOL     hw 4663   6.770   2.278   3.542 -2.7771  1.2305  2.1315
 1166SOL     vw 4664   6.734   2.199   3.539 -0.2413 -0.0052  0.3628
 1167SOL     ow 4665   5.944   0.650   3.833  0.3982 -0.3452 -0.4244
 1167SOL     hw 4666   5.931   0.555   3.837  0.7900 -0.3825  0.1007
 1167SOL     hw 4667   5.939   0.679   3.924 -1.7417  0.4302 -0.7300
 1167SOL     vw 4668   5.941   0.641   3.846  0.1674 -0.2478 -0.3955
 1168SOL     ow 4669   2.019   3.987   4.175 -0.0691 -0.2845  0.3204
 1168SOL     hw 4670   1.973   3.998   4.258  0.5519 -1.1868  0.7996
 1168SOL     hw 4671   2.084   3.918   4.192  1.9698  1.4074 -0.0887
 1168SOL     vw 4672   2.022   3.980   4.188  0.2818 -0.1802  0.3297
 1169SOL     ow 4673   0.270   4.639   6.741  0.1037 -0.3056  0.7055
 1169SOL     hw 4674   0.204   4.591   6.791 -0.1570 -0.4616  0.2171
 1169SOL     hw 4675   0.234   4.646   6.652  0.0857  0.8982  0.7906
 1169SOL     vw 4676   0.257   4.633   6.736  0.0669 -0.1674  0.6523
 1170SOL     ow 4677   4.091   3.096   5.110 -0.1597 -1.0563  0.1000
 1170SOL     hw 4678   4.047   3.034   5.168 -1.5384 -1.6159 -1.4598
 1170SOL     hw 4679   4.132   3.042   5.043 -2.2646 -0.3720 -1.8991
 1170SOL     vw 4680   4.091   3.081   5.109 -0.6194 -1.0397 -0.3700
 1171SOL     ow 4681   6.260   3.543   0.911 -0.0932  0.3747 -0.4224
 1171SOL     hw 4682   6.168   3.518   0.901 -0.6478  1.5333  1.2515
 1171SOL     hw 4683   6.260   3.638   0.899  0.7840  0.4605  0.1782
 1171SOL     vw 4684   6.247   3.552   0.908 -0.0508  0.5388 -0.1222
 1172SOL     ow 4685   1.877   3.027   3.076 -0.1313  0.1445  0.3303
 1172SOL     hw 4686   1.917   3.034   3.163  0.4032 -0.7018  0.1647
 1172SOL     hw 4687   1.864   2.933   3.063 -0.4210  0.2794 -0.4116
 1172SOL     vw 4688   1.881   3.016   3.086 -0.0990  0.0505  0.2105
 1173SOL     ow 4689   0.120   1.936   1.713 -0.0452  0.1184  0.5096
 1173SOL     hw 4690   0.081   1.987   1.783 -0.2108 -0.0790  0.5618
 1173SOL     hw 4691   0.074   1.965   1.634  0.5637  0.7833  0.3904
 1173SOL     vw 4692   0.109   1.946   1.711  0.0133  0.1801  0.5007
 1174SOL     ow 4693   3.426   5.290   0.384 -0.5143 -0.7272  0.8146
 1174SOL     hw 4694   3.469   5.248   0.458  0.4518 -0.5500  0.3623
 1174SOL     hw 4695   3.443   5.232   0.309  1.2620  0.6755  0.0808
 1174SOL     vw 4696   3.434   5.277   0.384 -0.1525 -0.5188  0.6581
 1175SOL     ow 4697   0.022   3.252   3.994 -0.3714 -1.0926  0.2800
 1175SOL     hw 4698   0.085   3.203   3.941 -0.5365 -1.8880  0.8102
 1175SOL     hw 4699   0.075   3.289   4.064 -0.2938 -0.7167  0.0303
 1175SOL     vw 4700   0.038   3.250   3.996 -0.3830 -1.1479  0.3171
 1176SOL     ow 4701   0.255   2.257   2.814 -0.1712 -0.1295 -0.1206
 1176SOL     hw 4702   0.290   2.345   2.827  1.9894 -0.9443 -0.0317
 1176SOL     hw 4703   0.295   2.227   2.732 -2.3882 -0.3662 -1.1991
 1176SOL     vw 4704   0.264   2.265   2.805 -0.1786 -0.2682 -0.2513
 1177SOL     ow 4705   0.554   5.082   0.583 -0.1274 -0.0598  0.1380
 1177SOL     hw 4706   0.532   5.096   0.676 -0.4281 -0.7600  0.1796
 1177SOL     hw 4707   0.554   4.987   0.573 -1.9909  0.0196 -1.0219
 1177SOL     vw 4708   0.551   5.072   0.594 -0.4129 -0.1419 -0.0095
 1178SOL     ow 4709   2.526   0.298   1.696  0.2624  0.7051 -0.5650
 1178SOL     hw 4710   2.431   0.286   1.693  0.5530 -3.1764  0.1327
 1178SOL     hw 4711   2.557   0.260   1.614  1.2592  2.7653 -1.2177
 1178SOL     vw 4712   2.517   0.291   1.685  0.4321  0.4648 -0.5590
 1179SOL     ow 4713   6.527   2.194   1.296 -0.6274 -0.3857  0.1153
 1179SOL     hw 4714   6.552   2.170   1.385 -0.0746 -1.1204 -0.2350
 1179SOL     hw 4715   6.599   2.163   1.242 -0.7479  0.4571 -0.5493
 1179SOL     vw 4716   6.540   2.187   1.301 -0.5705 -0.3715 -0.0186
 1180SOL     ow 4717   6.042   3.416   5.699  0.7944 -0.0019 -0.0017
 1180SOL     hw 4718   5.984   3.459   5.762  0.1267  0.3564 -0.8412
 1180SOL     hw 4719   6.060   3.483   5.633  1.3748 -0.4139 -0.2738
 1180SOL     vw 4720   6.037   3.430   5.699  0.7830 -0.0091 -0.1485
 1181SOL     ow 4721   4.570   5.054   3.958 -0.0569  0.4124  0.4895
 1181SOL     hw 4722   4.529   5.039   4.043 -0.3963  1.0195  0.4324
 1181SOL     hw 4723   4.664   5.043   3.974 -0.1913 -0.5213  0.7128
 1181SOL     vw 4724   4.577   5.050   3.971 -0.1194  0.3693  0.5114
 1182SOL     ow 4725   2.529   0.474   0.615 -0.0281 -0.1985 -0.2539
 1182SOL     hw 4726   2.436   0.468   0.595 -0.0809 -1.1771  0.2622
 1182SOL     hw 4727   2.547   0.400   0.672  0.8724  0.5269  0.4325
 1182SOL     vw 4728   2.519   0.463   0.620  0.0836 -0.2319 -0.0952
 1183SOL     ow 4729   6.359   3.286   6.828  0.4286 -0.0307  0.0274
 1183SOL     hw 4730   6.444   3.242   6.828 -0.3735 -1.7302 -1.3194
 1183SOL     hw 4731   6.319   3.261   6.911  1.4547  1.3344  0.9847
 1183SOL     vw 4732   6.365   3.277   6.839  0.4582 -0.0747 -0.0241
 1184SOL     ow 4733   2.131   1.099   7.006 -0.0222  0.5481 -0.3080
 1184SOL     hw 4734   2.060   1.134   6.951 -0.1533 -0.9172 -1.1466
 1184SOL     hw 4735   2.194   1.064   6.943 -0.5408 -1.8827  0.4088
 1184SOL     vw 4736   2.130   1.099   6.990 -0.1078  0.0341 -0.3242
 1185SOL     ow 4737   5.776   4.236   1.888  0.7337  0.0296  0.2467
 1185SOL     hw 4738   5.763   4.179   1.812  0.2313  0.4781 -0.0134
 1185SOL     hw 4739   5.801   4.177   1.959  0.9873 -0.4209 -0.2150
 1185SOL     vw 4740   5.778   4.221   1.887  0.7007  0.0293  0.1515
 1186SOL     ow 4741   0.391   6.590   0.485  0.2442 -0.3366  0.1253
 1186SOL     hw 4742   0.376   6.605   0.392 -1.6688  0.2513  0.4852
 1186SOL     hw 4743   0.460   6.653   0.508  3.2914 -2.7674 -1.5084
 1186SOL     vw 4744   0.398   6.601   0.476  0.3938 -0.5794 -0.0428
 1187SOL     ow 4745   3.322   5.591   6.003  0.0017 -0.2509  0.0719
 1187SOL     hw 4746   3.378   5.611   6.078  0.5375 -2.3540  0.3083
 1187SOL     hw 4747   3.367   5.520   5.958 -0.6100  0.5548 -1.9438
 1187SOL     vw 4748   3.335   5.584   6.007 -0.0083 -0.4220 -0.1628
 1188SOL     ow 4749   0.137   3.105   2.331 -0.4618 -0.3393 -0.4660
 1188SOL     hw 4750   0.142   3.010   2.328  1.6752 -0.3175  0.2491
 1188SOL     hw 4751   0.091   3.124   2.413  0.6048 -0.7878  0.2618
 1188SOL     vw 4752   0.132   3.095   2.341 -0.0391 -0.3957 -0.2755
 1189SOL     ow 4753   0.122   2.079   6.337  0.1474  0.3024  0.1327
 1189SOL     hw 4754   0.203   2.079   6.389 -0.0334  1.7665  0.4575
 1189SOL     hw 4755   0.088   1.990   6.346  0.3406  0.3875  2.2193
 1189SOL     vw 4756   0.128   2.067   6.345  0.1490  0.5069  0.4508
 1190SOL     ow 4757   4.271   0.312   3.978  0.3678  0.4458  0.3475
 1190SOL     hw 4758   4.282   0.270   4.064  0.6151  0.7591  0.4706
 1190SOL     hw 4759   4.324   0.392   3.984  1.8577 -0.4224 -0.7229
 1190SOL     vw 4760   4.280   0.317   3.990  0.5968  0.3726  0.2224
 1191SOL     ow 4761   0.236   0.360   0.351 -0.0563 -0.7657  0.0863
 1191SOL     hw 4762   0.189   0.336   0.431 -0.4643  0.5833  0.2775
 1191SOL     hw 4763   0.168   0.368   0.285  0.3194 -2.2399 -0.5129
 1191SOL     vw 4764   0.221   0.358   0.353 -0.0605 -0.7822  0.0325
 1192SOL     ow 4765   1.099   0.237   2.747 -0.3733 -0.7544 -0.1400
 1192SOL     hw 4766   1.149   0.158   2.727  1.5410  0.2641  0.3715
 1192SOL     hw 4767   1.150   0.308   2.708 -0.5876  0.5037  1.7374
 1192SOL     vw 4768   1.112   0.236   2.739 -0.1490 -0.4540  0.1751
 1193SOL     ow 4769   3.962   3.209   6.256 -0.3135 -0.0730 -0.0576
 1193SOL     hw 4770   4.018   3.209   6.179 -1.2660  0.4598 -0.7739
 1193SOL     hw 4771   3.878   3.242   6.225 -1.0061 -0.7489  1.0085
 1193SOL     vw 4772   3.958   3.213   6.242 -0.5307 -0.0919 -0.0114
 1194SOL     ow 4773   4.641   0.565   2.822 -0.3121  0.0179 -0.2605
 1194SOL     hw 4774   4.616   0.513   2.898 -0.1832  2.4028  1.5359
 1194SOL     hw 4775   4.702   0.509   2.773 -0.9316 -1.8472  0.9903
 1194SOL     vw 4776   4.646   0.551   2.825 -0.3769  0.0865  0.1414
 1195SOL     ow 4777   0.503   3.067   4.472  0.2902  0.3621 -0.0236
 1195SOL     hw 4778   0.569   3.056   4.540  0.1215  0.4250  0.1496
 1195SOL     hw 4779   0.480   2.978   4.447  0.3822  0.3397 -0.0286
 1195SOL     vw 4780   0.509   3.054   4.477  0.2801  0.3675 -0.0012
 1196SOL     ow 4781   5.269   1.943   7.110 -0.4016 -0.5247 -0.1218
 1196SOL     hw 4782   5.217   1.868   7.079  0.1597 -0.6111 -0.8779
 1196SOL     hw 4783   5.205   2.014   7.118 -0.5442 -0.4429 -1.6935
 1196SOL     vw 4784   5.254   1.942   7.107 -0.3464 -0.5252 -0.4289
 1197SOL     ow 4785   2.842   2.059   1.795 -0.3885 -0.3056  0.6023
 1197SOL     hw 4786   2.836   2.117   1.870  1.7807  1.0846 -0.2047
 1197SOL     hw 4787   2.935   2.034   1.791 -0.6613 -1.2033 -0.9781
 1197SOL     vw 4788   2.854   2.063   1.804 -0.1383 -0.2406  0.2873
 1198SOL     ow 4789   1.254   1.986   3.239 -0.0058  0.1000 -0.6311
 1198SOL     hw 4790   1.286   1.990   3.330 -1.8054  3.7264  0.0323
 1198SOL     hw 4791   1.186   1.919   3.241 -0.9104  0.9785  1.1335
 1198SOL     vw 4792   1.249   1.978   3.252 -0.3625  0.6944 -0.3107
 1199SOL     ow 4793   5.800   4.604   1.560  0.6160  0.5578  0.0432
 1199SOL     hw 4794   5.770   4.516   1.540 -1.7321  1.1565  0.6906
 1199SOL     hw 4795   5.806   4.607   1.655  0.1761  1.2523  0.0531
 1199SOL     vw 4796   5.797   4.593   1.570  0.2482  0.7284  0.1299
 1200SOL     ow 4797   1.785   0.238   5.160  0.3677 -0.6577 -0.9263
 1200SOL     hw 4798   1.725   0.217   5.089 -0.7385 -0.6654 -0.0327
 1200SOL     hw 4799   1.837   0.312   5.128 -0.7668 -0.0439 -1.4009
 1200SOL     vw 4800   1.784   0.245   5.147  0.0721 -0.5777 -0.8712
 1201SOL     ow 4801   4.433   2.009   2.257 -0.0819  0.3157 -0.3050
 1201SOL     hw 4802   4.375   2.026   2.331 -0.7981  1.6783 -1.1391
 1201SOL     hw 4803   4.505   1.957   2.294 -0.8231  0.2834  1.1613
 1201SOL     vw 4804   4.435   2.004   2.272 -0.2742  0.4913 -0.2216
 1202SOL     ow 4805   7.031   5.478   2.953 -0.2273  0.4865 -0.1512
 1202SOL     hw 4806   6.985   5.396   2.965  1.7125 -0.6814 -0.2105
 1202SOL     hw 4807   7.074   5.494   3.037 -1.9232  2.3933  0.4421
 1202SOL     vw 4808   7.031   5.469   2.966 -0.1953  0.5841 -0.0807
 1203SOL     ow 4809   2.617   0.873   4.776  0.5491  0.1887 -0.3021
 1203SOL     hw 4810   2.676   0.798   4.786  0.6740  0.2937 -0.2523
 1203SOL     hw 4811   2.568   0.854   4.696 -0.4560 -0.6575  0.4809
 1203SOL     vw 4812   2.619   0.860   4.767  0.4331  0.0910 -0.1922
 1204SOL     ow 4813   3.110   3.432   6.848  0.0599 -0.1943  0.3527
 1204SOL     hw 4814   3.146   3.357   6.896  0.1345  1.0285  2.3191
 1204SOL     hw 4815   3.187   3.476   6.812  0.1894  0.1046  0.9922
 1204SOL     vw 4816   3.125   3.428   6.850  0.0868  0.0064  0.6964
 1205SOL     ow 4817   1.586   6.221   6.604  0.3037 -0.3027 -0.2691
 1205SOL     hw 4818   1.520   6.289   6.596 -0.6642 -1.0308  1.0564
 1205SOL     hw 4819   1.662   6.266   6.641  0.4401  0.4630 -1.4306
 1205SOL     vw 4820   1.587   6.236   6.608  0.1940 -0.2978 -0.2475
 1206SOL     ow 4821   3.878   4.014   1.280 -0.0843 -0.0958  0.0527
 1206SOL     hw 4822   3.900   3.943   1.220 -0.5082 -0.3042  0.1347
 1206SOL     hw 4823   3.922   4.091   1.244  1.4551 -0.6459  0.6782
 1206SOL     vw 4824   3.886   4.015   1.267  0.0628 -0.1957  0.1460
 1207SOL     ow 4825   4.408   6.521   6.305 -0.1610  0.8124  0.4717
 1207SOL     hw 4826   4.458   6.532   6.224 -0.4475  1.8341  0.4259
 1207SOL     hw 4827   4.474   6.501   6.372 -0.0249 -1.2504 -0.2066
 1207SOL     vw 4828   4.423   6.520   6.303 -0.1807  0.6754  0.3762
 1208SOL     ow 4829   2.321   6.491   5.938  0.9666 -0.0467 -0.1185
 1208SOL     hw 4830   2.386   6.424   5.958 -1.3333 -1.8160  2.2056
 1208SOL     hw 4831   2.283   6.463   5.855  0.4741 -1.3466  0.5082
 1208SOL     vw 4832   2.324   6.479   5.930  0.5982 -0.4516  0.2706
 1209SOL     ow 4833   6.696   0.816   3.988 -0.1938  0.3508  0.7371
 1209SOL     hw 4834   6.639   0.763   3.933  0.4253  0.4664 -0.0341
 1209SOL     hw 4835   6.762   0.755   4.020 -0.5142  0.2978  1.3079
 1209SOL     vw 4836   6.697   0.801   3.985 -0.1543  0.3590  0.7106
 1210SOL     ow 4837   2.239   5.947   3.039 -0.4036 -0.4118 -0.2352
 1210SOL     hw 4838   2.237   5.917   3.130 -0.5886  0.8501  0.2048
 1210SOL     hw 4839   2.209   6.038   3.044  0.6163  0.0166 -1.4257
 1210SOL     vw 4840   2.235   5.955   3.052 -0.2934 -0.1886 -0.3341
 1211SOL     ow 4841   1.179   5.203   2.327 -0.1996 -0.3335 -0.3219
 1211SOL     hw 4842   1.091   5.213   2.291 -1.0923 -1.0481  1.5518
 1211SOL     hw 4843   1.166   5.193   2.421  1.9614  0.4121  0.1134
 1211SOL     vw 4844   1.166   5.203   2.334 -0.0322 -0.3293 -0.0173
 1212SOL     ow 4845   4.422   5.496   5.116  0.0596  0.2743 -0.7725
 1212SOL     hw 4846   4.352   5.488   5.182  0.5413  1.4866 -0.0782
 1212SOL     hw 4847   4.379   5.473   5.033 -0.8958 -0.0180 -0.2156
 1212SOL     vw 4848   4.407   5.492   5.114 -0.0033  0.3955 -0.6077
 1213SOL     ow 4849   2.123   2.734   6.377 -0.2976 -1.2851 -0.1979
 1213SOL     hw 4850   2.169   2.736   6.293 -0.6550 -0.7995 -0.3840
 1213SOL     hw 4851   2.191   2.749   6.442 -0.2925  0.2189 -0.5202
 1213SOL     vw 4852   2.138   2.736   6.374 -0.3440 -1.0226 -0.2651
 1214SOL     ow 4853   4.481   2.357   0.450 -0.8400 -0.0359 -0.1720
 1214SOL     hw 4854   4.453   2.447   0.464 -1.6591 -0.2343 -0.5122
 1214SOL     hw 4855   4.571   2.364   0.418 -0.7315  0.6342  0.2764
 1214SOL     vw 4856   4.489   2.369   0.448 -0.9336  0.0262 -0.1577
 1215SOL     ow 4857   0.488   2.422   3.164  0.1107 -0.6713 -0.3842
 1215SOL     hw 4858   0.541   2.346   3.189  0.3813 -0.5199 -0.4924
 1215SOL     hw 4859   0.521   2.447   3.078 -0.6313 -1.0158 -0.7773
 1215SOL     vw 4860   0.499   2.415   3.156  0.0485 -0.6968 -0.4503
 1216SOL     ow 4861   3.000   1.333   6.887  0.0386 -0.0670 -0.0530
 1216SOL     hw 4862   3.063   1.262   6.898 -0.8765 -0.8516  0.1583
 1216SOL     hw 4863   2.928   1.312   6.946  0.5042  1.9191  1.3295
 1216SOL     vw 4864   2.999   1.321   6.896 -0.0206  0.0915  0.1576
 1217SOL     ow 4865   4.716   0.731   5.994 -0.7332  0.2411 -0.1280
 1217SOL     hw 4866   4.802   0.757   6.027 -1.1127  1.3456  0.0380
 1217SOL     hw 4867   4.701   0.645   6.032 -0.1598  0.4970  0.7077
 1217SOL     vw 4868   4.725   0.723   6.003 -0.7076  0.4206  0.0041
 1218SOL     ow 4869   0.126   0.652   6.872 -0.4592 -0.8447 -0.4671
 1218SOL     hw 4870   0.073   0.650   6.951 -0.5510 -1.3587 -0.5400
 1218SOL     hw 4871   0.100   0.732   6.827 -0.7469 -0.7953 -0.2102
 1218SOL     vw 4872   0.116   0.662   6.877 -0.5093 -0.9060 -0.4430
 1219SOL     ow 4873   5.421   5.334   4.688  0.2537 -0.0331 -0.6217
 1219SOL     hw 4874   5.471   5.393   4.745  1.0674  0.4580 -1.8211
 1219SOL     hw 4875   5.364   5.286   4.749  0.8146  0.7453  0.5660
 1219SOL     vw 4876   5.420   5.336   4.704  0.4351  0.1347 -0.6232
 1220SOL     ow 4877   3.202   5.833   0.158 -0.4083 -0.4756  0.5602
 1220SOL     hw 4878   3.131   5.895   0.144  0.6077  0.4876 -0.5346
 1220SOL     hw 4879   3.193   5.769   0.087 -0.2372 -0.4062  0.4761
 1220SOL     vw 4880   3.192   5.833   0.147 -0.2517 -0.3390  0.4046
 1221SOL     ow 4881   2.543   5.040   3.057 -0.5473  0.3482 -0.7500
 1221SOL     hw 4882   2.473   5.006   3.001  0.6016 -1.0167 -1.3885
 1221SOL     hw 4883   2.552   5.132   3.030 -1.9893  0.5282 -0.7256
 1221SOL     vw 4884   2.535   5.048   3.046 -0.5860  0.1917 -0.8310
 1222SOL     ow 4885   6.955   4.280   6.696 -0.0389 -0.0541  0.2756
 1222SOL     hw 4886   6.913   4.269   6.782 -2.2963 -0.9730 -0.8584
 1222SOL     hw 4887   6.954   4.193   6.657  5.2190 -0.7523  0.9643
 1222SOL     vw 4888   6.949   4.267   6.703  0.3569 -0.2673  0.2167
 1223SOL     ow 4889   0.702   5.265   4.733  0.2849  0.2530 -0.8182
 1223SOL     hw 4890   0.717   5.199   4.801 -0.4107  0.3124 -0.6083
 1223SOL     hw 4891   0.748   5.343   4.765 -0.2253  0.3477 -0.3125
 1223SOL     vw 4892   0.710   5.266   4.747  0.1258  0.2735 -0.7238
 1224SOL     ow 4893   4.244   3.238   5.311 -0.2657 -0.7440 -0.0406
 1224SOL     hw 4894   4.315   3.179   5.285  0.2501 -0.0599 -0.2176
 1224SOL     hw 4895   4.261   3.257   5.403  0.7757  0.7305 -0.4883
 1224SOL     vw 4896   4.256   3.233   5.320 -0.0601 -0.4592 -0.1228
 1225SOL     ow 4897   4.471   0.287   7.002 -0.5453  0.4040 -0.3123
 1225SOL     hw 4898   4.519   0.311   7.082 -0.1630 -2.7280  0.5244
 1225SOL     hw 4899   4.540   0.261   6.940 -0.9454 -2.1294  0.1926
 1225SOL     vw 4900   4.487   0.287   7.004 -0.5476 -0.3435 -0.1354
 1226SOL     ow 4901   3.195   1.005   2.782  0.0798  0.0692  0.4674
 1226SOL     hw 4902   3.183   1.059   2.860 -1.3112  0.8180 -0.2209
 1226SOL     hw 4903   3.139   0.929   2.795  1.1835 -0.6845  0.9423
 1226SOL     vw 4904   3.186   1.002   2.794  0.0420  0.0684  0.4393
 1227SOL     ow 4905   2.144   5.432   7.151 -0.3492 -0.5990  0.2330
 1227SOL     hw 4906   2.233   5.467   7.161 -0.9589  1.5580 -1.2097
 1227SOL     hw 4907   2.087   5.504   7.175 -1.6886 -0.6522 -2.4477
 1227SOL     vw 4908   2.148   5.446   7.155 -0.6064 -0.3216 -0.3114
 1228SOL     ow 4909   4.891   3.437   7.212  0.4283 -0.1581 -0.3493
 1228SOL     hw 4910   4.807   3.464   7.174 -0.1706 -2.0044 -0.4506
 1228SOL     hw 4911   4.926   3.517   7.252 -2.0450  0.4128  0.9197
 1228SOL     vw 4912   4.884   3.451   7.212  0.0231 -0.3264 -0.1953
 1229SOL     ow 4913   5.119   3.279   0.947  0.1110 -0.1057  0.2883
 1229SOL     hw 4914   5.105   3.332   1.026  1.6655  0.7536  0.0360
 1229SOL     hw 4915   5.204   3.238   0.960 -0.0148 -0.6659 -0.5552
 1229SOL     vw 4916   5.128   3.281   0.959  0.2997 -0.0662  0.1437
 1230SOL     ow 4917   2.475   6.160   1.685  0.8435 -0.1823  0.1295
 1230SOL     hw 4918   2.555   6.145   1.635 -0.6019 -2.1824 -1.7878
 1230SOL     hw 4919   2.487   6.246   1.725  3.9867 -0.4831  0.0784
 1230SOL     vw 4920   2.487   6.169   1.684  1.0675 -0.4859 -0.1302
 1231SOL     ow 4921   4.816   6.544   5.090 -0.3255  0.4182  0.6747
 1231SOL     hw 4922   4.856   6.471   5.138 -0.5431  0.9273  1.6526
 1231SOL     hw 4923   4.835   6.525   4.998  1.0029 -0.0316  1.0217
 1231SOL     vw 4924   4.824   6.532   5.084 -0.1791  0.4258  0.8492
 1232SOL     ow 4925   1.670   1.894   5.623  0.3006  0.5937 -0.2850
 1232SOL     hw 4926   1.622   1.811   5.626 -0.0192  0.7876 -0.1062
 1232SOL     hw 4927   1.719   1.889   5.541  0.3465  0.1929 -0.2391
 1232SOL     vw 4928   1.670   1.882   5.613  0.2645  0.5664 -0.2556
 1233SOL     ow 4929   5.249   5.967   6.447  0.2177  0.3401 -0.8911
 1233SOL     hw 4930   5.177   6.017   6.485 -2.2417 -1.9685 -2.1437
 1233SOL     hw 4931   5.260   5.892   6.505  2.2479  1.0527 -0.2799
 1233SOL     vw 4932   5.241   5.964   6.459  0.1612  0.1295 -0.9758
 1234SOL     ow 4933   0.753   1.213   0.905 -0.3750  0.2918  0.9044
 1234SOL     hw 4934   0.674   1.207   0.959 -1.0334  1.6394  0.1464
 1234SOL     hw 4935   0.754   1.303   0.874  0.6593 -0.1062 -0.3229
 1234SOL     vw 4936   0.742   1.224   0.908 -0.3254  0.4171  0.6425
 1235SOL     ow 4937   5.246   2.154   1.123  0.1520  0.1873  0.4271
 1235SOL     hw 4938   5.219   2.071   1.084 -0.0903  0.5781 -0.2554
 1235SOL     hw 4939   5.170   2.182   1.174  0.5736 -0.4693  1.4475
 1235SOL     vw 4940   5.232   2.147   1.125  0.1755  0.1523  0.4716
 1236SOL     ow 4941   6.789   6.766   3.237 -0.5283  0.0400 -0.0007
 1236SOL     hw 4942   6.824   6.690   3.191  1.1368  0.5046  0.4142
 1236SOL     hw 4943   6.694   6.754   3.235 -0.4569 -0.6283 -2.3498
 1236SOL     vw 4944   6.781   6.754   3.231 -0.2995  0.0131 -0.2561
 1237SOL     ow 4945   5.552   1.583   3.017  0.2491  0.5288  0.0896
 1237SOL     hw 4946   5.535   1.544   3.102  0.2401  0.4818  0.0659
 1237SOL     hw 4947   5.606   1.660   3.037 -0.4951  1.0319  0.2220
 1237SOL     vw 4948   5.557   1.588   3.031  0.1497  0.5890  0.1040
 1238SOL     ow 4949   3.026   2.148   5.909  0.6099  0.1188  0.3312
 1238SOL     hw 4950   2.938   2.137   5.873  0.5696 -0.8657  0.6910
 1238SOL     hw 4951   3.064   2.220   5.860  0.4337 -0.9349 -1.4229
 1238SOL     vw 4952   3.019   2.156   5.898  0.5813 -0.1501  0.1471
 1239SOL     ow 4953   3.561   7.052   5.913 -0.1830  0.1492 -0.1181
 1239SOL     hw 4954   3.521   7.013   5.835 -0.6841 -0.6103  0.5068
 1239SOL     hw 4955   3.550   7.147   5.901 -0.3636  0.0368 -0.9068
 1239SOL     vw 4956   3.554   7.060   5.901 -0.2730  0.0341 -0.1397
 1240SOL     ow 4957   5.978   4.408   1.938 -0.3871  0.8872 -0.4294
 1240SOL     hw 4958   5.902   4.366   1.897  1.6619 -1.6813 -1.8783
 1240SOL     hw 4959   6.008   4.471   1.873 -1.8490  2.7771  0.6245
 1240SOL     vw 4960   5.972   4.411   1.924 -0.3097  0.7977 -0.4815
 1241SOL     ow 4961   4.595   4.130   3.804 -0.1337 -0.1143  0.1830
 1241SOL     hw 4962   4.615   4.124   3.710  0.0066 -1.3910  0.2750
 1241SOL     hw 4963   4.581   4.039   3.831  1.3037  0.0917  1.7346
 1241SOL     vw 4964   4.596   4.117   3.795  0.0744 -0.2558  0.3997
 1242SOL     ow 4965   2.374   3.943   5.469 -0.5612  0.5275  0.2787
 1242SOL     hw 4966   2.354   3.951   5.563 -0.1585 -0.7634  0.4892
 1242SOL     hw 4967   2.384   3.849   5.455  0.0268  0.7625 -0.9356
 1242SOL     vw 4968   2.373   3.932   5.480 -0.4306  0.3881  0.1466
 1243SOL     ow 4969   4.932   1.981   0.014 -0.0320 -0.1264  0.6037
 1243SOL     hw 4970   4.863   1.994  -0.051 -0.9678 -0.2752  1.5351
 1243SOL     hw 4971   4.985   2.061   0.009  0.3835 -0.4592 -0.8569
 1243SOL     vw 4972   4.930   1.993   0.005 -0.1006 -0.1900  0.5339
 1244SOL     ow 4973   0.490   4.262   3.267  0.1095 -0.2062 -0.0833
 1244SOL     hw 4974   0.419   4.228   3.213  0.0447  0.3985 -0.3859
 1244SOL     hw 4975   0.453   4.267   3.355  0.3580 -1.6391  0.1336
 1244SOL     vw 4976   0.476   4.258   3.272  0.1337 -0.3157 -0.0947
 1245SOL     ow 4977   0.364   1.624   6.314 -0.3863 -0.1218  0.3313
 1245SOL     hw 4978   0.436   1.662   6.263 -1.3601  2.0914  0.5008
 1245SOL     hw 4979   0.407   1.585   6.390  0.7165  0.3245 -0.0419
 1245SOL     vw 4980   0.379   1.624   6.318 -0.3693  0.2291  0.3047
 1246SOL     ow 4981   2.622   7.217   0.793  0.4100  0.3381 -0.2123
 1246SOL     hw 4982   2.600   7.307   0.819 -2.4164 -0.4460  0.4854
 1246SOL     hw 4983   2.593   7.211   0.702 -0.9619 -0.2822  0.2405
 1246SOL     vw 4984   2.615   7.228   0.784 -0.1439  0.1531 -0.0605
 1247SOL     ow 4985   0.193   7.075   3.271  0.0165  0.3908  0.6240
 1247SOL     hw 4986   0.187   7.118   3.185 -0.2520 -1.5300 -0.3780
 1247SOL     hw 4987   0.266   7.014   3.262 -1.3967 -1.4408  0.9678
 1247SOL     vw 4988   0.202   7.072   3.258 -0.2053 -0.1044  0.5372
 1248SOL     ow 4989   4.237   1.162   5.526 -0.1619 -0.9445 -0.1926
 1248SOL     hw 4990   4.311   1.207   5.487  0.9110 -0.8489  1.8515
 1248SOL     hw 4991   4.163   1.222   5.515  0.6327  0.0850  0.0153
 1248SOL     vw 4992   4.237   1.176   5.520  0.0846 -0.7960  0.1049
 1249SOL     ow 4993   5.008   3.193   5.265 -0.0184 -0.1005  0.1678
 1249SOL     hw 4994   4.920   3.210   5.300 -0.9399 -2.3320 -0.8816
 1249SOL     hw 4995   5.003   3.220   5.173  0.8268  0.9465  0.4032
 1249SOL     vw 4996   4.996   3.199   5.258 -0.0284 -0.2568  0.0603
 1250SOL     ow 4997   2.605   2.424   2.816 -0.1324 -0.0215  0.4512
 1250SOL     hw 4998   2.610   2.330   2.803  0.5192 -0.1452  1.5005
 1250SOL     hw 4999   2.614   2.436   2.910  0.4583  1.1270  0.2737
 1250SOL     vw 5000   2.607   2.413   2.826  0.0317  0.1137  0.5661
 1251SOL     ow 5001   4.439   5.562   2.088  0.4168  0.4038 -0.4400
 1251SOL     hw 5002   4.436   5.623   2.162 -1.2815  1.7078 -1.5085
 1251SOL     hw 5003   4.393   5.607   2.018 -0.5967 -1.9760 -1.4162
 1251SOL     vw 5004   4.433   5.576   2.089  0.0591  0.2618 -0.7098
 1252SOL     ow 5005   0.690   4.246   6.603 -0.7293  0.5762  0.7909
 1252SOL     hw 5006   0.647   4.169   6.566  0.5060  0.1182  0.2576
 1252SOL     hw 5007   0.629   4.277   6.670 -1.2902 -0.8236  0.9667
 1252SOL     vw 5008   0.677   4.240   6.607 -0.6403  0.3312  0.7439
 1253SOL     ow 5009   5.397   0.865   2.974  0.5764 -0.1240 -0.1410
 1253SOL     hw 5010   5.428   0.805   3.042 -0.3721 -2.0239 -1.2898
 1253SOL     hw 5011   5.329   0.815   2.928 -1.2621  2.3578 -0.3025
 1253SOL     vw 5012   5.392   0.850   2.977  0.2086 -0.0472 -0.3138
 1254SOL     ow 5013   0.882   4.405   2.940  0.1048 -0.5592 -0.2119
 1254SOL     hw 5014   0.882   4.312   2.962 -0.7089 -0.5366 -0.1187
 1254SOL     hw 5015   0.975   4.428   2.936  0.3003 -0.9520  1.5030
 1254SOL     vw 5016   0.895   4.395   2.942  0.0232 -0.6080  0.0266
 1255SOL     ow 5017   6.402   5.931   7.045 -0.6634 -0.0752 -0.4485
 1255SOL     hw 5018   6.436   5.872   6.977 -0.6522 -0.1544 -0.3742
 1255SOL     hw 5019   6.353   5.998   6.997 -0.6562 -0.1318 -0.5347
 1255SOL     vw 5020   6.400   5.932   7.030 -0.6609 -0.0930 -0.4501
 1256SOL     ow 5021   5.054   5.633   5.610 -0.7757 -0.6631  0.1093
 1256SOL     hw 5022   4.966   5.661   5.637 -0.5573 -0.3024  0.4646
 1256SOL     hw 5023   5.059   5.654   5.517  0.0125  2.1966  0.7176
 1256SOL     vw 5024   5.043   5.639   5.601 -0.6428 -0.2379  0.2365
 1257SOL     ow 5025   3.424   0.836   2.721 -0.1469 -0.1625 -0.0492
 1257SOL     hw 5026   3.496   0.882   2.678  1.5779  0.1273  2.8743
 1257SOL     hw 5027   3.360   0.905   2.741  0.0668  0.0787 -0.1984
 1257SOL     vw 5028   3.425   0.851   2.718  0.1088 -0.0924  0.3169
 1258SOL     ow 5029   2.069   0.790   0.028  0.4580 -0.1516  0.4968
 1258SOL     hw 5030   2.128   0.863   0.043  1.2567 -0.4712 -0.9390
 1258SOL     hw 5031   2.110   0.716   0.073  0.6529 -0.1662  0.2905
 1258SOL     vw 5032   2.082   0.790   0.036  0.5891 -0.1957  0.2802
 1259SOL     ow 5033   2.591   3.667   1.040 -0.3436  0.2179 -0.3306
 1259SOL     hw 5034   2.506   3.701   1.067 -0.4588  0.2558 -0.7430
 1259SOL     hw 5035   2.602   3.587   1.090 -0.7758  0.0319 -0.5332
 1259SOL     vw 5036   2.582   3.661   1.050 -0.4159  0.1982 -0.4117
 1260SOL     ow 5037   3.009   4.765   2.194  0.1924  0.2564 -0.0967
 1260SOL     hw 5038   2.981   4.715   2.117 -1.1779  1.2362 -0.2830
 1260SOL     hw 5039   3.090   4.723   2.223  0.1898 -0.7460 -1.4767
 1260SOL     vw 5040   3.016   4.753   2.188  0.0112  0.2530 -0.3033
 1261SOL     ow 5041   4.341   6.843   0.039  0.1934 -0.5667 -0.1461
 1261SOL     hw 5042   4.427   6.818   0.074 -0.2698  0.6439  2.0356
 1261SOL     hw 5043   4.335   6.797  -0.044  2.9799 -0.6305 -0.4061
 1261SOL     vw 5044   4.351   6.834   0.033  0.5002 -0.4153  0.1074
 1262SOL     ow 5045   3.692   1.876   6.109  0.1576  0.1623 -0.0421
 1262SOL     hw 5046   3.603   1.847   6.128  0.4306 -0.9440 -0.3739
 1262SOL     hw 5047   3.704   1.955   6.162 -1.1467  0.5531 -0.3060
 1262SOL     vw 5048   3.682   1.883   6.118  0.0215  0.0678 -0.1206
 1263SOL     ow 5049   3.664   0.091   5.097 -0.2766  0.3056  0.1423
 1263SOL     hw 5050   3.705   0.019   5.050  0.7794  0.5576  0.6521
 1263SOL     hw 5051   3.700   0.085   5.186 -2.8239 -0.6569  1.1924
 1263SOL     vw 5052   3.674   0.081   5.103 -0.4733  0.2118  0.3481
 1264SOL     ow 5053   5.833   6.457   5.807 -0.5398  0.4075  0.0271
 1264SOL     hw 5054   5.821   6.394   5.736  2.1585 -0.2758  0.0925
 1264SOL     hw 5055   5.824   6.542   5.765  3.6121  0.1097 -1.8784
 1264SOL     vw 5056   5.830   6.460   5.792  0.3643  0.2782 -0.2160
 1265SOL     ow 5057   0.641   3.087   4.216 -0.4487 -0.6688 -0.1380
 1265SOL     hw 5058   0.624   3.086   4.310 -2.7710  1.3067 -0.4366
 1265SOL     hw 5059   0.726   3.132   4.209  0.1312 -1.5226  1.0088
 1265SOL     vw 5060   0.650   3.093   4.228 -0.6786 -0.5208 -0.0265
 1266SOL     ow 5061   5.863   1.497   2.057  0.1693  0.1046 -0.4979
 1266SOL     hw 5062   5.799   1.534   1.996 -0.9451 -2.0435 -0.7361
 1266SOL     hw 5063   5.862   1.557   2.132  0.2151  1.7895 -1.7944
 1266SOL     vw 5064   5.854   1.510   2.059  0.0286  0.0436 -0.7005
 1267SOL     ow 5065   7.250   5.984   6.570  0.3723 -0.5521 -1.0039
 1267SOL     hw 5066   7.171   5.985   6.623  1.4225 -0.9843  0.6283
 1267SOL     hw 5067   7.311   6.041   6.616  1.4905 -1.3310 -1.4733
 1267SOL     vw 5068   7.248   5.992   6.583  0.6584 -0.7117 -0.8507
 1268SOL     ow 5069   0.856   2.144   7.040  0.1239 -0.5742  0.1431
 1268SOL     hw 5070   0.826   2.060   7.008  0.3904 -0.9039  0.7449
 1268SOL     hw 5071   0.880   2.128   7.131  0.4456  0.0854  0.1807
 1268SOL     vw 5072   0.855   2.131   7.048  0.2015 -0.5307  0.2277
 1269SOL     ow 5073   4.087   2.425   3.900 -0.0754 -0.0333 -0.3546
 1269SOL     hw 5074   4.049   2.348   3.857  1.4699 -1.2585  0.3995
 1269SOL     hw 5075   4.173   2.436   3.859 -0.2305  1.2544 -0.3842
 1269SOL     vw 5076   4.093   2.416   3.889  0.1080 -0.0250 -0.2589
 1270SOL     ow 5077   5.151   5.984   0.875 -0.1539  0.0380  0.1196
 1270SOL     hw 5078   5.214   5.914   0.886  0.0343  0.0470 -0.8215
 1270SOL     hw 5079   5.170   6.020   0.788 -1.1031  0.3863  0.0454
 1270SOL     vw 5080   5.162   5.980   0.865 -0.2542  0.0854 -0.0143
 1271SOL     ow 5081   0.889   4.667   2.795  0.6142 -0.2764  0.4623
 1271SOL     hw 5082   0.927   4.675   2.882  0.7117 -0.2221  0.4156
 1271SOL     hw 5083   0.889   4.757   2.761  2.2310 -0.5221 -0.2869
 1271SOL     vw 5084   0.894   4.680   2.802  0.8403 -0.3016  0.3574
 1272SOL     ow 5085   3.080   3.732   5.533  0.0318 -0.1198 -0.4835
 1272SOL     hw 5086   3.013   3.798   5.551 -0.7988 -0.8841 -0.6918
 1272SOL     hw 5087   3.157   3.783   5.508  0.0836  0.8447  1.4221
 1272SOL     vw 5088   3.081   3.747   5.532 -0.0710 -0.0932 -0.2594
 1273SOL     ow 5089   4.695   1.970   2.552 -0.7438  0.3059  0.9248
 1273SOL     hw 5090   4.668   1.987   2.462  0.4121  1.5739  0.7763
 1273SOL     hw 5091   4.614   1.949   2.598 -1.3566 -0.3193 -0.3963
 1273SOL     vw 5092   4.681   1.970   2.546 -0.6721  0.3906  0.7310
 1274SOL     ow 5093   2.511   4.531   0.096  0.2782 -0.1064  0.0959
 1274SOL     hw 5094   2.493   4.590   0.023  3.0262 -1.1396 -1.5423
 1274SOL     hw 5095   2.591   4.564   0.135  0.7203 -1.5359  0.4660
 1274SOL     vw 5096   2.519   4.543   0.091  0.6992 -0.4313 -0.0714
 1275SOL     ow 5097   4.141   0.607   5.537  0.2505  0.0241  0.6859
 1275SOL     hw 5098   4.108   0.545   5.601  0.7989 -0.3065  0.6568
 1275SOL     hw 5099   4.072   0.614   5.472 -0.7219  1.0928  1.7897
 1275SOL     vw 5100   4.128   0.600   5.537  0.1948  0.1214  0.8276
 1276SOL     ow 5101   1.389   0.773   2.600 -0.2715 -0.5608  0.4605
 1276SOL     hw 5102   1.416   0.727   2.521  0.1806 -1.1860  0.9723
 1276SOL     hw 5103   1.470   0.792   2.646 -0.5193 -0.0549  0.7037
 1276SOL     vw 5104   1.403   0.770   2.596 -0.2446 -0.5765  0.5602
 1277SOL     ow 5105   1.814   6.260   2.051  0.5639 -0.2076 -0.1739
 1277SOL     hw 5106   1.808   6.214   1.967 -0.6419 -1.1262  0.3815
 1277SOL     hw 5107   1.792   6.351   2.030 -2.8389 -0.9330 -0.4879
 1277SOL     vw 5108   1.810   6.266   2.037 -0.0441 -0.4244 -0.1419
 1278SOL     ow 5109   3.426   1.363   5.625  0.3211  0.5001 -0.3118
 1278SOL     hw 5110   3.481   1.315   5.563  1.6448  1.5731 -0.0135
 1278SOL     hw 5111   3.451   1.455   5.612 -1.2882  1.0062 -0.0312
 1278SOL     vw 5112   3.437   1.369   5.615  0.2835  0.7085 -0.2356
 1279SOL     ow 5113   3.014   4.953   2.364  0.0461 -0.2298 -0.5035
 1279SOL     hw 5114   3.007   4.901   2.284  1.5094 -2.5746  0.7713
 1279SOL     hw 5115   3.106   4.980   2.367 -0.4548  1.6400 -0.5956
 1279SOL     vw 5116   3.025   4.950   2.354  0.1730 -0.2925 -0.3475
 1280SOL     ow 5117   2.004   5.834   2.955  0.0816  0.0394 -0.0689
 1280SOL     hw 5118   2.086   5.883   2.949 -0.0571  0.3194  0.2712
 1280SOL     hw 5119   2.015   5.761   2.895  1.2168 -0.8697  1.1915
 1280SOL     vw 5120   2.016   5.831   2.946  0.2130 -0.0436  0.1422
 1281SOL     ow 5121   4.690   3.087   2.426 -0.1566  0.0946  0.5031
 1281SOL     hw 5122   4.719   3.156   2.486  0.6789 -0.5416  0.8619
 1281SOL     hw 5123   4.699   3.124   2.339  0.9394  0.2203  0.6556
 1281SOL     vw 5124   4.695   3.101   2.423  0.0985  0.0273  0.5707
 1282SOL     ow 5125   4.016   7.171   7.086  0.3493 -0.2056  0.2234
 1282SOL     hw 5126   3.940   7.217   7.049  0.5234 -0.3849 -0.3804
 1282SOL     hw 5127   3.982   7.086   7.112  0.5921 -0.8115 -1.3005
 1282SOL     vw 5128   4.002   7.166   7.084  0.4046 -0.3092 -0.0575
 1283SOL     ow 5129   5.052   1.434   5.727 -0.2642 -0.4070  0.2745
 1283SOL     hw 5130   4.960   1.409   5.734 -0.2830 -0.1227  1.2156
 1283SOL     hw 5131   5.064   1.459   5.636 -0.4344 -3.0655 -0.5445
 1283SOL     vw 5132   5.042   1.434   5.716 -0.2892 -0.7204  0.2906
 1284SOL     ow 5133   3.864   6.576   3.420 -0.1463 -0.1940  0.1486
 1284SOL     hw 5134   3.828   6.578   3.509  0.4518  0.0511  0.3880
 1284SOL     hw 5135   3.910   6.493   3.414  1.3029  0.5302  0.6773
 1284SOL     vw 5136   3.865   6.566   3.431  0.1239 -0.0658  0.2500
 1285SOL     ow 5137   5.969   4.355   2.240  0.9139 -0.1921  0.6429
 1285SOL     hw 5138   5.977   4.341   2.334  1.4417  1.4925  0.8833
 1285SOL     hw 5139   5.934   4.272   2.206 -2.3852  0.1916  2.7216
 1285SOL     vw 5140   5.965   4.342   2.248  0.5484  0.0806  0.9489
 1286SOL     ow 5141   1.611   1.554   1.799 -0.0861 -0.0780  0.8091
 1286SOL     hw 5142   1.609   1.511   1.713  0.8918  1.2981  0.0558
 1286SOL     hw 5143   1.529   1.528   1.841 -0.3338 -1.2274 -0.3096
 1286SOL     vw 5144   1.600   1.545   1.793  0.0102 -0.0481  0.5621
 1287SOL     ow 5145   6.495   0.202   0.811 -0.3089 -1.0939  0.0211
 1287SOL     hw 5146   6.548   0.263   0.861 -1.7675 -0.7679  1.2260
 1287SOL     hw 5147   6.529   0.115   0.834  2.2556 -0.8372 -2.2487
 1287SOL     vw 5148   6.506   0.199   0.820 -0.1631 -1.0170 -0.1194
 1288SOL     ow 5149   4.345   2.806   3.691  0.0925 -0.0713  0.4421
 1288SOL     hw 5150   4.308   2.730   3.647  1.0002 -0.2471 -0.0312
 1288SOL     hw 5151   4.275   2.837   3.748 -0.7191 -0.5068 -0.2950
 1288SOL     vw 5152   4.331   2.800   3.693  0.1051 -0.1519  0.2824
 1289SOL     ow 5153   0.926   6.503   3.661 -0.3174  0.5090  0.2815
 1289SOL     hw 5154   0.992   6.532   3.598  0.5660  0.3657  1.1120
 1289SOL     hw 5155   0.976   6.460   3.731 -1.3973 -0.9363  0.2312
 1289SOL     vw 5156   0.941   6.501   3.662 -0.3434  0.2995  0.3843
 1290SOL     ow 5157   6.954   4.622   1.113  0.0677  1.5147 -0.0836
 1290SOL     hw 5158   6.878   4.573   1.144 -0.8065  1.8781 -1.5652
 1290SOL     hw 5159   7.023   4.556   1.102 -0.0076  1.1811  1.2522
 1290SOL     vw 5160   6.953   4.607   1.116 -0.0575  1.5185 -0.1028
 1291SOL     ow 5161   5.865   6.958   6.631  0.0648 -0.1378  0.4334
 1291SOL     hw 5162   5.875   6.962   6.536  1.4471  0.2912  0.5843
 1291SOL     hw 5163   5.793   7.018   6.650  0.5523  0.6764 -0.2400
 1291SOL     vw 5164   5.857   6.966   6.621  0.3116  0.0262  0.3643
 1292SOL     ow 5165   1.943   0.315   3.185  0.4169  0.4139 -0.3673
 1292SOL     hw 5166   1.852   0.302   3.159  0.5982 -3.7910  0.2857
 1292SOL     hw 5167   1.993   0.268   3.118  2.0418  1.7765 -0.1591
 1292SOL     vw 5168   1.938   0.307   3.173  0.6552  0.0389 -0.2536
 1293SOL     ow 5169   0.392   3.395   3.671 -0.3254 -0.4355 -0.2480
 1293SOL     hw 5170   0.335   3.440   3.733 -0.7053  0.4464 -1.2144
 1293SOL     hw 5171   0.476   3.388   3.717 -1.0788 -1.4022  1.0372
 1293SOL     vw 5172   0.396   3.400   3.685 -0.4750 -0.4467 -0.2058
 1294SOL     ow 5173   3.898   5.776   6.951  0.5308 -0.2748  0.9607
 1294SOL     hw 5174   3.889   5.870   6.968 -0.2806 -0.2454  0.4539
 1294SOL     hw 5175   3.982   5.752   6.990  0.2180  0.4254  2.1101
 1294SOL     vw 5176   3.908   5.785   6.958  0.3825 -0.1788  1.0455
 1295SOL     ow 5177   2.007   6.244   4.414  0.5596  0.3483 -0.0379
 1295SOL     hw 5178   2.065   6.316   4.391 -0.7010  1.3390 -0.2587
 1295SOL     hw 5179   2.058   6.189   4.472  1.2368  1.9775  0.9850
 1295SOL     vw 5180   2.021   6.246   4.419  0.4828  0.6940  0.0679
 1296SOL     ow 5181   7.009   1.603   4.795 -0.5971  0.2004  0.1818
 1296SOL     hw 5182   7.014   1.699   4.799  1.0917  0.1150  1.0246
 1296SOL     hw 5183   6.948   1.580   4.865 -0.5255  0.6329  0.3908
 1296SOL     vw 5184   7.001   1.613   4.805 -0.3648  0.2462  0.3207
 1297SOL     ow 5185   6.059   6.493   6.389  0.1645  0.6499  0.0221
 1297SOL     hw 5186   6.004   6.566   6.360 -0.7220  0.0801  0.2400
 1297SOL     hw 5187   6.066   6.437   6.312  0.6132  0.8237 -0.0640
 1297SOL     vw 5188   6.053   6.495   6.375  0.1066  0.5977  0.0396
 1298SOL     ow 5189   3.254   4.680   1.433 -0.4357  0.4048  0.0127
 1298SOL     hw 5190   3.248   4.697   1.339  0.2305  0.7151  0.0179
 1298SOL     hw 5191   3.332   4.624   1.442 -0.0688  0.9685  0.4435
 1298SOL     vw 5192   3.264   4.675   1.421 -0.2995  0.5202  0.0702
 1299SOL     ow 5193   4.160   6.303   5.550  0.9526  0.8345 -0.2903
 1299SOL     hw 5194   4.161   6.398   5.547  1.6468  0.9725  2.1064
 1299SOL     hw 5195   4.253   6.278   5.548  0.8313  0.3012  0.1389
 1299SOL     vw 5196   4.173   6.312   5.550  1.0283  0.7823  0.0825
 1300SOL     ow 5197   4.201   5.067   2.431  0.9367  0.1269 -0.1868
 1300SOL     hw 5198   4.215   4.979   2.465  1.8147 -0.2837 -1.5488
 1300SOL     hw 5199   4.233   5.125   2.500 -0.4819 -0.5549  1.1164
 1300SOL     vw 5200   4.207   5.063   2.445  0.8655 -0.0176 -0.1945
 1301SOL     ow 5201   0.814   1.204   2.405  0.0590 -0.1954  0.4105
 1301SOL     hw 5202   0.764   1.123   2.408  0.3335 -0.3803  0.0498
 1301SOL     hw 5203   0.842   1.218   2.495  0.7562 -0.9764  0.3243
 1301SOL     vw 5204   0.811   1.195   2.417  0.1872 -0.3229  0.3514
 1302SOL     ow 5205   2.596   6.592   6.674 -0.2418 -0.0495  0.0090
 1302SOL     hw 5206   2.615   6.510   6.628 -0.3278 -0.3281  0.4718
 1302SOL     hw 5207   2.582   6.567   6.765 -2.0958  0.2356 -0.1534
 1302SOL     vw 5208   2.597   6.578   6.680 -0.4976 -0.0486  0.0484
 1303SOL     ow 5209   4.401   5.018   2.275  0.0609  1.0750  0.6520
 1303SOL     hw 5210   4.447   4.965   2.341 -1.7050  1.4675  2.3048
 1303SOL     hw 5211   4.316   5.038   2.316 -0.7615  2.0882 -1.4249
 1303SOL     vw 5212   4.396   5.014   2.289 -0.2806  1.2605  0.5960
 1304SOL     ow 5213   5.091   3.421   3.081 -0.2750  0.5328 -0.6348
 1304SOL     hw 5214   5.186   3.430   3.079 -0.3296  1.0646 -1.3448
 1304SOL     hw 5215   5.069   3.418   3.174  0.6024 -1.7358 -0.4450
 1304SOL     vw 5216   5.100   3.422   3.093 -0.1667  0.3036 -0.7035
 1305SOL     ow 5217   5.728   6.070   4.362  0.1693 -0.2055 -0.0771
 1305SOL     hw 5218   5.780   6.106   4.433 -0.8141 -0.1063  0.6236
 1305SOL     hw 5219   5.701   6.147   4.310 -1.2184  0.0411  0.9290
 1305SOL     vw 5220   5.731   6.085   4.364 -0.1435 -0.1600  0.1483
 1306SOL     ow 5221   2.104   2.931   5.200  0.1511  0.0759  0.2888
 1306SOL     hw 5222   2.109   3.027   5.199  2.4151  0.0071 -0.0674
 1306SOL     hw 5223   2.013   2.912   5.179  0.2242  2.1544 -2.6115
 1306SOL     vw 5224   2.093   2.942   5.197  0.4596  0.3411 -0.1409
 1307SOL     ow 5225   4.485   7.229   4.329  0.0459  0.4102 -0.2901
 1307SOL     hw 5226   4.502   7.256   4.420  0.3190  0.9351 -0.4936
 1307SOL     hw 5227   4.551   7.276   4.278  0.8685 -1.0205 -0.6101
 1307SOL     vw 5228   4.496   7.239   4.334  0.1905  0.2907 -0.3593
 1308SOL     ow 5229   6.719   0.235   1.631 -0.4205 -0.2233  0.3308
 1308SOL     hw 5230   6.673   0.176   1.570  0.2553 -1.2297  0.7765
 1308SOL     hw 5231   6.684   0.322   1.610 -0.1783 -0.5262 -1.5361
 1308SOL     vw 5232   6.708   0.239   1.620 -0.2995 -0.3961  0.1433
 1309SOL     ow 5233   4.543   5.613   1.743  0.2754  0.3975  0.0459
 1309SOL     hw 5234   4.561   5.703   1.772 -0.8390  0.6599 -0.0539
 1309SOL     hw 5235   4.472   5.583   1.800  0.5527 -0.3792 -0.0079
 1309SOL     vw 5236   4.536   5.621   1.754  0.1645  0.3295  0.0256
 1310SOL     ow 5237   2.510   4.546   1.911 -0.0675  0.2190 -0.1010
 1310SOL     hw 5238   2.538   4.460   1.943 -0.1509 -0.1060 -0.8658
 1310SOL     hw 5239   2.485   4.530   1.820  0.4302  1.1710 -0.4120
 1310SOL     vw 5240   2.510   4.532   1.903 -0.0128  0.3021 -0.2430
 1311SOL     ow 5241   3.960   1.377   3.787  0.0101 -0.3204  0.6578
 1311SOL     hw 5242   3.867   1.372   3.809 -0.4743  0.0438 -1.1433
 1311SOL     hw 5243   3.976   1.299   3.734  0.2648  0.5067 -0.5280
 1311SOL     vw 5244   3.950   1.366   3.783 -0.0201 -0.1633  0.2637
 1312SOL     ow 5245   1.918   5.880   4.008  0.2587 -0.6678  0.2283
 1312SOL     hw 5246   1.950   5.803   4.055  0.3637 -1.0465 -0.4596
 1312SOL     hw 5247   1.841   5.849   3.961 -1.5556  0.3542  2.3111
 1312SOL     vw 5248   1.912   5.866   4.008  0.0331 -0.5827  0.4127
 1313SOL     ow 5249   2.082   0.185   4.788  0.1186  0.1526 -0.3532
 1313SOL     hw 5250   2.154   0.218   4.842 -0.1345 -0.8909  0.6659
 1313SOL     hw 5251   2.041   0.118   4.842  0.7130 -1.9547 -2.3592
 1313SOL     vw 5252   2.086   0.180   4.802  0.1634 -0.2631 -0.4833
 1314SOL     ow 5253   3.313   4.666   2.894  0.0675  0.0564 -0.4219
 1314SOL     hw 5254   3.383   4.601   2.901 -0.9524 -1.2816 -1.8023
 1314SOL     hw 5255   3.237   4.622   2.932 -1.1164 -0.4223 -3.0798
 1314SOL     vw 5256   3.312   4.651   2.900 -0.2232 -0.1833 -0.9547
 1315SOL     ow 5257   3.366   2.372   0.847  0.2879  0.3206  0.3168
 1315SOL     hw 5258   3.437   2.421   0.888  0.4625  0.1099  0.2650
 1315SOL     hw 5259   3.301   2.362   0.917 -0.9510  2.9073 -0.3356
 1315SOL     vw 5260   3.367   2.378   0.862  0.1475  0.6342  0.2239
 1316SOL     ow 5261   1.757   3.246   1.119 -1.0730  0.3402 -0.7123
 1316SOL     hw 5262   1.736   3.227   1.028 -1.2666  1.2311 -0.8677
 1316SOL     hw 5263   1.827   3.184   1.142 -1.5697 -0.4140 -1.2161
 1316SOL     vw 5264   1.764   3.236   1.110 -1.1641  0.3581 -0.7992
 1317SOL     ow 5265   4.590   0.596   4.138 -0.2655  0.5567  0.7167
 1317SOL     hw 5266   4.532   0.609   4.063  0.0170  1.7374  0.6812
 1317SOL     hw 5267   4.633   0.512   4.122 -0.8671  0.3801  0.0062
 1317SOL     vw 5268   4.588   0.587   4.126 -0.3076  0.6892  0.6182
 1318SOL     ow 5269   4.630   5.208   2.282 -0.5599  0.3101  0.6311
 1318SOL     hw 5270   4.595   5.242   2.364  0.5861  1.4072  0.6975
 1318SOL     hw 5271   4.720   5.184   2.303 -0.6382 -0.5852 -0.0094
 1318SOL     vw 5272   4.637   5.209   2.296 -0.4191  0.3366  0.5553
 1319SOL     ow 5273   3.396   5.095   2.629  0.9253  0.1730  0.8138
 1319SOL     hw 5274   3.423   5.035   2.559 -1.7279  0.2101 -0.3737
 1319SOL     hw 5275   3.434   5.179   2.605  1.4639 -0.1960  0.3584
 1319SOL     vw 5276   3.404   5.098   2.616  0.6462  0.1292  0.5971
 1320SOL     ow 5277   0.443   6.509   5.532 -0.5216  0.1471  0.0540
 1320SOL     hw 5278   0.407   6.528   5.619  0.2855 -1.1215  0.7075
 1320SOL     hw 5279   0.461   6.415   5.534 -1.0597 -0.0253 -1.7226
 1320SOL     vw 5280   0.441   6.499   5.544 -0.4861 -0.0432 -0.0942
 1321SOL     ow 5281   2.303   4.247   4.750  0.1275  0.0107 -0.2747
 1321SOL     hw 5282   2.255   4.324   4.721  1.0717 -0.1795 -2.5517
 1321SOL     hw 5283   2.258   4.173   4.709 -0.2700 -0.6039  1.2093
 1321SOL     vw 5284   2.291   4.248   4.741  0.1996 -0.0956 -0.3796
 1322SOL     ow 5285   5.622   3.162   6.452 -0.4414 -0.2969 -0.1481
 1322SOL     hw 5286   5.662   3.249   6.449  0.6362 -0.8007 -1.4343
 1322SOL     hw 5287   5.621   3.139   6.545  1.6887  0.0350  0.0044
 1322SOL     vw 5288   5.627   3.170   6.464 -0.0184 -0.3196 -0.2978
 1323SOL     ow 5289   0.490   4.457   5.632 -0.2632 -0.5631  0.5255
 1323SOL     hw 5290   0.474   4.501   5.549  0.8928  0.4417  0.8111
 1323SOL     hw 5291   0.576   4.487   5.659 -1.3459  0.6011  3.0046
 1323SOL     vw 5292   0.499   4.467   5.625 -0.2535 -0.2770  0.8903
 1324SOL     ow 5293   7.060   1.405   5.873 -0.2520  0.2601  0.2909
 1324SOL     hw 5294   7.102   1.370   5.795 -1.3167 -2.5632  0.8580
 1324SOL     hw 5295   7.047   1.329   5.930 -2.7339  1.5689  1.6879
 1324SOL     vw 5296   7.064   1.391   5.870 -0.7198  0.0603  0.5500
 1325SOL     ow 5297   6.294   3.315   5.784 -0.3422  0.4676 -0.2690
 1325SOL     hw 5298   6.202   3.332   5.761 -0.4270  1.6806  0.8731
 1325SOL     hw 5299   6.308   3.224   5.760 -2.2997 -0.2051  0.9244
 1325SOL     vw 5300   6.284   3.305   5.778 -0.6118  0.5389  0.0393
 1326SOL     ow 5301   1.365   4.570   4.307  0.9802  0.1938 -0.6239
 1326SOL     hw 5302   1.310   4.588   4.384 -2.1200 -2.0721 -2.0717
 1326SOL     hw 5303   1.426   4.502   4.336  2.5045  2.0259  0.7455
 1326SOL     vw 5304   1.366   4.564   4.321  0.7722  0.1364 -0.6342
 1327SOL     ow 5305   4.295   6.431   0.598 -0.2587  0.1610 -0.2682
 1327SOL     hw 5306   4.222   6.432   0.660 -0.4491 -1.2355 -0.4192
 1327SOL     hw 5307   4.275   6.500   0.535  0.5117  2.3871  1.8153
 1327SOL     vw 5308   4.282   6.440   0.598 -0.1822  0.2704 -0.0132
 1328SOL     ow 5309   5.482   2.309   4.742  0.1550  0.0683 -0.1568
 1328SOL     hw 5310   5.454   2.394   4.708  1.4287  0.5896  0.0108
 1328SOL     hw 5311   5.497   2.324   4.835 -1.4953 -0.8708  0.3047
 1328SOL     vw 5312   5.481   2.322   4.750  0.1054  0.0132 -0.0739
 1329SOL     ow 5313   1.481   3.906   7.148 -0.0348 -0.0817  0.0447
 1329SOL     hw 5314   1.552   3.845   7.164 -1.9379 -2.4750  0.0117
 1329SOL     hw 5315   1.465   3.901   7.054 -1.3919 -1.0324  0.2882
 1329SOL     vw 5316   1.488   3.897   7.138 -0.4650 -0.5230  0.0725
 1330SOL     ow 5317   1.921   3.887   3.892 -0.0026  0.1729 -0.0089
 1330SOL     hw 5318   1.931   3.935   3.810  0.4505 -0.8897 -0.5999
 1330SOL     hw 5319   1.895   3.799   3.865 -0.7507  0.0487  1.0437
 1330SOL     vw 5320   1.919   3.882   3.877 -0.0415  0.0163  0.0521
 1331SOL     ow 5321   1.566   3.358   6.014  0.3762 -0.0378  0.7948
 1331SOL     hw 5322   1.594   3.423   6.078  0.3799  0.1269  0.6284
 1331SOL     hw 5323   1.508   3.406   5.955  2.2898  0.4741 -0.7972
 1331SOL     vw 5324   1.562   3.373   6.015  0.6291  0.0515  0.5629
 1332SOL     ow 5325   4.390   5.363   1.836  0.1702 -0.3252 -0.0170
 1332SOL     hw 5326   4.295   5.364   1.823  0.0729  0.6706  0.6631
 1332SOL     hw 5327   4.426   5.350   1.748 -0.5878 -0.0247 -0.3787
 1332SOL     vw 5328   4.383   5.361   1.823  0.0577 -0.1543  0.0251
 1333SOL     ow 5329   3.048   6.365   5.365  0.1097  0.1586 -0.3363
 1333SOL     hw 5330   2.971   6.359   5.422  0.0934 -2.3016 -0.5230
 1333SOL     hw 5331   3.032   6.301   5.296  0.9618  1.7869 -2.1507
 1333SOL     vw 5332   3.036   6.356   5.364  0.2199  0.0489 -0.6003
 1334SOL     ow 5333   2.932   5.244   5.301 -0.2023 -0.3539  0.2812
 1334SOL     hw 5334   2.866   5.175   5.305 -0.6908  0.1753  2.1005
 1334SOL     hw 5335   3.004   5.210   5.355  0.8277 -0.6789 -1.2165
 1334SOL     vw 5336   2.933   5.230   5.309 -0.1308 -0.3271  0.3235
 1335SOL     ow 5337   2.894   3.612   4.214  0.3506  0.5462  0.1565
 1335SOL     hw 5338   2.812   3.595   4.261  0.0681  0.6101 -0.3089
 1335SOL     hw 5339   2.916   3.703   4.237 -1.1020  1.4430 -1.7749
 1335SOL     vw 5340   2.886   3.622   4.223  0.1218  0.6729 -0.1600
 1336SOL     ow 5341   3.795   2.009   0.000 -0.1080  0.0762  1.0404
 1336SOL     hw 5342   3.860   2.076  -0.022 -0.7329  0.4675  0.3341
 1336SOL     hw 5343   3.842   1.946   0.055  1.3103 -0.5094 -0.7718
 1336SOL     vw 5344   3.810   2.009   0.005 -0.0031  0.0507  0.7081
 1337SOL     ow 5345   0.319   4.766   7.015  0.0436 -1.0394 -0.5871
 1337SOL     hw 5346   0.228   4.741   7.033 -1.9290  3.6561 -2.4055
 1337SOL     hw 5347   0.348   4.811   7.095 -0.3337 -0.1378 -0.9372
 1337SOL     vw 5348   0.311   4.769   7.028 -0.2664 -0.3011 -0.8731
 1338SOL     ow 5349   5.761   4.896   3.199 -0.0644 -0.8204  0.2005
 1338SOL     hw 5350   5.684   4.892   3.142 -0.4989  0.1030  0.7010
 1338SOL     hw 5351   5.754   4.817   3.253 -1.3956 -0.0882  1.1449
 1338SOL     vw 5352   5.750   4.885   3.198 -0.2975 -0.6020  0.3911
 1339SOL     ow 5353   0.583   2.707   3.276  0.1252  0.2904 -0.4239
 1339SOL     hw 5354   0.672   2.699   3.241  0.0969  1.7814 -0.9272
 1339SOL     hw 5355   0.574   2.801   3.295 -0.7103 -0.1305  1.3754
 1339SOL     vw 5356   0.594   2.719   3.274  0.0112  0.4315 -0.2528
 1340SOL     ow 5357   4.432   2.521   6.322 -0.1619  0.5677 -0.0828
 1340SOL     hw 5358   4.513   2.562   6.291  0.1139  0.5192  0.5646
 1340SOL     hw 5359   4.379   2.510   6.242 -0.0320  1.6970 -0.3559
 1340SOL     vw 5360   4.436   2.525   6.307 -0.1082  0.7102 -0.0334
 1341SOL     ow 5361   6.506   1.124   5.871 -0.2439  0.4450  0.1618
 1341SOL     hw 5362   6.594   1.111   5.906  0.4033 -0.1719 -1.5833
 1341SOL     hw 5363   6.489   1.217   5.880 -0.9300  0.1062  3.8366
 1341SOL     vw 5364   6.515   1.134   5.877 -0.2489  0.3189  0.4168
 1342SOL     ow 5365   3.448   4.198   4.005  0.3288 -0.4762 -0.1981
 1342SOL     hw 5366   3.409   4.286   4.000  1.6178  0.0581 -1.8212
 1342SOL     hw 5367   3.540   4.212   3.984  0.6851 -2.1538  0.1548
 1342SOL     vw 5368   3.455   4.212   4.001  0.5460 -0.6268 -0.3657
 1343SOL     ow 5369   4.207   6.732   0.253 -0.4582  0.0624 -0.0589
 1343SOL     hw 5370   4.116   6.709   0.234 -0.6829 -0.3302  1.4468
 1343SOL     hw 5371   4.237   6.776   0.173 -2.0592  0.4823 -0.4677
 1343SOL     vw 5372   4.199   6.735   0.240 -0.6993  0.0656  0.0859
 1344SOL     ow 5373   5.034   2.970   1.355  0.1902  0.1355 -0.6524
 1344SOL     hw 5374   5.108   2.977   1.294 -0.5797  1.1752 -1.4997
 1344SOL     hw 5375   4.965   2.929   1.303 -0.2720  0.4427 -0.2795
 1344SOL     vw 5376   5.035   2.966   1.340  0.0277  0.3132 -0.7149
 1345SOL     ow 5377   7.052   5.133   5.844  0.3361  0.6063 -0.5088
 1345SOL     hw 5378   7.018   5.122   5.933  1.7553  0.4599  0.0425
 1345SOL     hw 5379   7.021   5.057   5.797  0.3252  0.2145  0.1209
 1345SOL     vw 5380   7.044   5.122   5.850  0.5219  0.5355 -0.3533
 1346SOL     ow 5381   0.263   4.876   0.662  0.7229 -0.3894  0.8399
 1346SOL     hw 5382   0.211   4.797   0.648  1.0903 -0.6067  0.6829
 1346SOL     hw 5383   0.350   4.853   0.628  0.9081 -0.0178  1.0640
 1346SOL     vw 5384   0.267   4.862   0.656  0.7958 -0.3688  0.8488
 1347SOL     ow 5385   6.050   4.738   3.710  0.3293 -0.2484  0.4380
 1347SOL     hw 5386   6.002   4.821   3.719  1.9007  0.6144  1.4306
 1347SOL     hw 5387   6.108   4.753   3.635 -1.2074 -1.4668 -1.0768
 1347SOL     vw 5388   6.051   4.751   3.701  0.3338 -0.2954  0.3691
 1348SOL     ow 5389   5.631   6.632   6.261 -0.2463 -0.5568 -0.0343
 1348SOL     hw 5390   5.570   6.572   6.218 -2.1137  0.9770  0.2886
 1348SOL     hw 5391   5.615   6.619   6.355 -1.9363  1.5067  0.0490
 1348SOL     vw 5392   5.621   6.622   6.268 -0.7160 -0.0820  0.0191
 1349SOL     ow 5393   4.791   6.020   5.644 -0.5004 -0.1552  0.7980
 1349SOL     hw 5394   4.726   6.050   5.580 -0.0402 -0.5038  0.1626
 1349SOL     hw 5395   4.812   6.098   5.695 -0.6027  0.2057  0.2954
 1349SOL     vw 5396   4.785   6.034   5.642 -0.4530 -0.1533  0.6480
 1350SOL     ow 5397   1.344   0.477   0.544 -0.1760 -0.8998  0.0446
 1350SOL     hw 5398   1.285   0.522   0.604 -1.9987 -3.6906  0.5290
 1350SOL     hw 5399   1.298   0.475   0.460  0.8598 -0.0056 -0.5709
 1350SOL     vw 5400   1.331   0.483   0.541 -0.2798 -1.1500  0.0273
 1351SOL     ow 5401   2.006   6.132   5.454  0.1906  0.5662 -0.4837
 1351SOL     hw 5402   2.056   6.050   5.451 -1.1540 -0.2696 -1.2363
 1351SOL     hw 5403   2.038   6.182   5.379 -0.4960 -0.2311 -1.3334
 1351SOL     vw 5404   2.017   6.127   5.444 -0.0774  0.3507 -0.6952
 1352SOL     ow 5405   3.866   5.484   6.902 -0.0238  0.3577 -0.3443
 1352SOL     hw 5406   3.905   5.537   6.831 -2.0580  0.8427 -1.1587
 1352SOL     hw 5407   3.912   5.400   6.897  1.1272  0.9916 -1.0314
 1352SOL     vw 5408   3.877   5.480   6.892 -0.1403  0.5052 -0.5422
 1353SOL     ow 5409   4.827   2.976   4.951  0.1681 -0.0762 -0.0537
 1353SOL     hw 5410   4.823   2.885   4.982 -1.3717  0.0780  0.2533
 1353SOL     hw 5411   4.799   2.972   4.860 -0.9336  0.2004  0.2550
 1353SOL     vw 5412   4.823   2.963   4.943 -0.1805 -0.0192  0.0274
 1354SOL     ow 5413   1.081   4.681   0.908  0.1501  0.0801 -0.1231
 1354SOL     hw 5414   1.112   4.607   0.960  1.8109  0.7649 -0.0815
 1354SOL     hw 5415   1.103   4.758   0.960 -1.3281  0.6500 -0.2801
 1354SOL     vw 5416   1.088   4.681   0.922  0.1742  0.2458 -0.1383
 1355SOL     ow 5417   0.447   5.780   5.535 -0.2961 -0.5823 -0.4733
 1355SOL     hw 5418   0.541   5.769   5.549 -0.4874 -2.3077 -0.3360
 1355SOL     hw 5419   0.409   5.769   5.622 -0.6808 -0.4093 -0.6192
 1355SOL     vw 5420   0.455   5.777   5.548 -0.3721 -0.7870 -0.4742
 1356SOL     ow 5421   0.996   4.547   6.688  0.0038 -0.9928  0.1235
 1356SOL     hw 5422   1.062   4.561   6.756  0.6036  1.2007 -0.8049
 1356SOL     hw 5423   0.921   4.597   6.718 -0.4056 -1.5588  0.0514
 1356SOL     vw 5424   0.995   4.556   6.701  0.0289 -0.7784 -0.0083
 1357SOL     ow 5425   2.371   0.941   2.720 -0.1237 -0.2632  0.1828
 1357SOL     hw 5426   2.354   1.010   2.655 -0.6251 -1.2563 -0.7768
 1357SOL     hw 5427   2.318   0.966   2.796  0.6498  1.0429  0.3172
 1357SOL     vw 5428   2.362   0.954   2.721 -0.0877 -0.2219  0.0740
 1358SOL     ow 5429   6.283   1.331   4.331 -0.1956  0.0259  0.4787
 1358SOL     hw 5430   6.377   1.330   4.319 -0.2183 -3.5399 -0.5492
 1358SOL     hw 5431   6.266   1.265   4.399 -2.0132 -0.5219 -0.4294
 1358SOL     vw 5432   6.293   1.322   4.339 -0.4385 -0.5168  0.2232
 1359SOL     ow 5433   4.919   3.337   2.888 -0.2233 -0.1365  0.1041
 1359SOL     hw 5434   4.956   3.281   2.820  1.9792  1.3105  0.0206
 1359SOL     hw 5435   4.990   3.348   2.951 -1.2994  0.8332  1.1949
 1359SOL     vw 5436   4.933   3.331   2.887 -0.0746  0.1825  0.2370
 1360SOL     ow 5437   6.553   4.978   3.866 -0.3259 -0.2088 -0.4920
 1360SOL     hw 5438   6.576   4.947   3.954 -2.1748  0.1839  0.1610
 1360SOL     hw 5439   6.519   5.066   3.879 -0.9619 -0.2782 -1.5662
 1360SOL     vw 5440   6.552   4.985   3.879 -0.6537 -0.1659 -0.5475
 1361SOL     ow 5441   1.731   6.308   0.382 -0.2193 -0.1444 -0.4184
 1361SOL     hw 5442   1.765   6.386   0.426  0.4265 -0.8007  0.2809
 1361SOL     hw 5443   1.639   6.328   0.365 -0.6176 -0.0192  1.6331
 1361SOL     vw 5444   1.723   6.321   0.386 -0.1866 -0.2143 -0.0555
 1362SOL     ow 5445   0.990   4.131   2.973 -0.5652  0.1473  0.1435
 1362SOL     hw 5446   1.083   4.130   2.948 -1.4404 -0.5129 -3.8156
 1362SOL     hw 5447   0.960   4.042   2.956 -2.1029  0.5372  0.6929
 1362SOL     vw 5448   0.999   4.120   2.967 -0.8835  0.1116 -0.3064
 1363SOL     ow 5449   0.238   2.528   5.332  0.1434  0.4243 -0.6129
 1363SOL     hw 5450   0.318   2.567   5.369 -0.2087  0.2646  0.3460
 1363SOL     hw 5451   0.196   2.485   5.406  1.2224 -3.0660 -1.8437
 1363SOL     vw 5452   0.243   2.528   5.347  0.2393 -0.0573 -0.6485
 1364SOL     ow 5453   5.364   3.215   1.604  0.0807  0.1167  0.1889
 1364SOL     hw 5454   5.422   3.184   1.534 -1.2999  1.2663 -1.5382
 1364SOL     hw 5455   5.401   3.299   1.632 -1.1466  1.2776 -1.5185
 1364SOL     vw 5456   5.377   3.222   1.599 -0.2635  0.4215 -0.2642
 1365SOL     ow 5457   1.603   4.798   3.093  0.4669 -0.0142 -0.3190
 1365SOL     hw 5458   1.522   4.834   3.056 -0.5219 -1.2405  0.5719
 1365SOL     hw 5459   1.613   4.713   3.050  0.5876 -0.4215  0.4982
 1365SOL     vw 5460   1.593   4.792   3.082  0.3523 -0.2301 -0.0936
 1366SOL     ow 5461   7.058   3.173   2.796  0.6484 -0.7429 -0.3716
 1366SOL     hw 5462   7.025   3.254   2.757  0.2227 -0.6843  0.1002
 1366SOL     hw 5463   7.152   3.175   2.779  0.6157 -0.2331 -0.5158
 1366SOL     vw 5464   7.066   3.184   2.789  0.5879 -0.6678 -0.3283
 1367SOL     ow 5465   5.651   2.059   6.239 -0.6847 -0.2041 -0.3203
 1367SOL     hw 5466   5.677   2.143   6.277 -0.0078 -0.3037 -0.5590
 1367SOL     hw 5467   5.684   2.061   6.150 -1.7052 -0.2454 -0.7129
 1367SOL     vw 5468   5.658   2.070   6.232 -0.7303 -0.2227 -0.4036
 1368SOL     ow 5469   3.170   5.571   0.004 -0.7805  0.2254 -0.3565
 1368SOL     hw 5470   3.241   5.545  -0.054 -0.2292 -1.6103  1.0620
 1368SOL     hw 5471   3.091   5.561  -0.049 -0.1113  1.3570 -1.6479
 1368SOL     vw 5472   3.169   5.566  -0.011 -0.6194  0.1328 -0.3397
 1369SOL     ow 5473   3.666   2.135   2.610 -0.4849 -0.7009 -0.5253
 1369SOL     hw 5474   3.604   2.091   2.669 -0.5392  0.0193 -0.0299
 1369SOL     hw 5475   3.707   2.202   2.665  0.7437 -1.1615 -0.8455
 1369SOL     vw 5476   3.663   2.138   2.625 -0.3299 -0.6667 -0.5021
 1370SOL     ow 5477   3.682   1.723   6.482  0.7326  0.2584  0.5891
 1370SOL     hw 5478   3.673   1.818   6.491  0.8786  0.1998  1.5126
 1370SOL     hw 5479   3.603   1.696   6.436  0.8045  0.8519  0.0958
 1370SOL     vw 5480   3.671   1.732   6.477  0.7615  0.3290  0.6459
 1371SOL     ow 5481   6.418   0.630   4.568  0.7471 -0.3302  0.3646
 1371SOL     hw 5482   6.375   0.623   4.483 -0.7546 -1.1074  1.1349
 1371SOL     hw 5483   6.481   0.701   4.557  1.1576 -0.9428 -1.6061
 1371SOL     vw 5484   6.420   0.639   4.556  0.6030 -0.5136  0.2062
 1372SOL     ow 5485   7.114   1.241   3.166  0.0588 -0.2287 -0.0052
 1372SOL     hw 5486   7.101   1.230   3.260 -0.7141 -1.7540 -0.2614
 1372SOL     hw 5487   7.199   1.284   3.159  0.2147 -0.2475  1.3779
 1372SOL     vw 5488   7.124   1.245   3.178 -0.0224 -0.4324  0.1435
 1373SOL     ow 5489   5.847   7.166   2.084 -0.4825  0.0447 -0.0352
 1373SOL     hw 5490   5.751   7.170   2.090 -0.5360  0.2661 -0.8886
 1373SOL     hw 5491   5.876   7.145   2.173 -1.3597 -0.6733  0.0958
 1373SOL     vw 5492   5.838   7.164   2.096 -0.6051 -0.0207 -0.1305
 1374SOL     ow 5493   0.877   6.139   1.549  0.2375  0.0891  0.1272
 1374SOL     hw 5494   0.804   6.092   1.590 -0.3978  0.5941 -0.4094
 1374SOL     hw 5495   0.928   6.172   1.623  1.3266 -2.3354  0.5614
 1374SOL     vw 5496   0.874   6.137   1.565  0.2974 -0.1640  0.1137
 1375SOL     ow 5497   2.825   5.490   2.375  0.0643  0.4625 -0.1632
 1375SOL     hw 5498   2.814   5.450   2.289  0.5123  1.2038 -0.5814
 1375SOL     hw 5499   2.902   5.447   2.411 -2.2639 -2.6332  1.5429
 1375SOL     vw 5500   2.834   5.479   2.368 -0.1838  0.1519  0.0068
 1376SOL     ow 5501   4.843   4.613   4.968 -0.4441  0.1082 -0.2865
 1376SOL     hw 5502   4.908   4.682   4.953 -1.0595  0.9787  0.9526
 1376SOL     hw 5503   4.887   4.533   4.939  1.4025  0.5820  1.0384
 1376SOL     vw 5504   4.858   4.611   4.962 -0.2816  0.2856  0.0517
 1377SOL     ow 5505   2.039   0.848   3.121  0.3107 -0.1155  0.0783
 1377SOL     hw 5506   2.040   0.753   3.133  2.1153 -0.0737  0.5755
 1377SOL     hw 5507   1.974   0.862   3.052 -1.5238 -1.4814  1.4364
 1377SOL     vw 5508   2.031   0.837   3.113  0.3067 -0.2902  0.3229
 1378SOL     ow 5509   4.339   4.621   4.979 -0.2972 -0.2019  0.7103
 1378SOL     hw 5510   4.328   4.708   4.941 -0.5701 -1.0730 -1.3197
 1378SOL     hw 5511   4.256   4.578   4.965  1.1451 -2.3091 -2.6096
 1378SOL     vw 5512   4.327   4.627   4.972 -0.1428 -0.5949  0.0043
 1379SOL     ow 5513   0.371   7.050   5.989 -0.0692 -0.0191  0.2109
 1379SOL     hw 5514   0.310   6.982   6.018  0.3637 -1.3392 -1.7360
 1379SOL     hw 5515   0.373   7.041   5.893  2.3904  0.6401  0.1233
 1379SOL     vw 5516   0.363   7.040   5.980  0.3124 -0.1063 -0.0577
 1380SOL     ow 5517   1.998   1.603   4.843 -0.5479  0.5014 -0.0859
 1380SOL     hw 5518   1.947   1.524   4.828  1.2274 -0.4396 -1.6208
 1380SOL     hw 5519   1.962   1.667   4.782  0.4443 -0.3638 -1.6501
 1380SOL     vw 5520   1.986   1.601   4.833 -0.1828  0.2631 -0.4947
 1381SOL     ow 5521   4.027   3.026   6.464  0.1365 -0.2919  0.2118
 1381SOL     hw 5522   4.027   3.100   6.403  0.2493 -1.1118 -0.8002
 1381SOL     hw 5523   3.942   2.983   6.450  0.0632 -0.3576  0.8091
 1381SOL     vw 5524   4.016   3.030   6.454  0.1416 -0.4088  0.1574
 1382SOL     ow 5525   5.728   5.716   0.258  0.1789 -0.5025  0.1070
 1382SOL     hw 5526   5.764   5.640   0.212 -0.9408 -0.6014 -0.6335
 1382SOL     hw 5527   5.678   5.679   0.331 -0.1431 -0.4613 -0.0935
 1382SOL     vw 5528   5.726   5.701   0.262 -0.0112 -0.5102 -0.0172
 1383SOL     ow 5529   0.568   4.792   4.829  0.3347  0.0581  0.6021
 1383SOL     hw 5530   0.614   4.871   4.801 -0.8095  0.0197 -1.6760
 1383SOL     hw 5531   0.638   4.729   4.849  1.2556  0.9823  0.3597
 1383SOL     vw 5532   0.583   4.794   4.828  0.3053  0.1750  0.2699
 1384SOL     ow 5533   2.277   3.347   5.393  0.1763 -0.1029 -0.1634
 1384SOL     hw 5534   2.296   3.441   5.395 -2.6346  0.5568  1.5555
 1384SOL     hw 5535   2.242   3.331   5.306  1.3162  0.2630 -0.7049
 1384SOL     vw 5536   2.275   3.357   5.382 -0.0441  0.0324 -0.0081
 1385SOL     ow 5537   2.899   0.807   4.650 -0.2266  0.1347  0.0887
 1385SOL     hw 5538   2.875   0.715   4.662 -1.1731  0.3435 -0.1227
 1385SOL     hw 5539   2.944   0.830   4.732  2.2233 -1.1515 -0.7736
 1385SOL     vw 5540   2.902   0.798   4.663 -0.0281 -0.0074 -0.0529
 1386SOL     ow 5541   3.454   7.103   3.706 -0.0541  0.0425 -0.1190
 1386SOL     hw 5542   3.544   7.125   3.729 -0.0099 -0.9082  0.7005
 1386SOL     hw 5543   3.429   7.034   3.768 -1.0772 -0.2691 -0.8389
 1386SOL     vw 5544   3.462   7.097   3.717 -0.1832 -0.1237 -0.1060
 1387SOL     ow 5545   3.811   6.385   1.762 -0.5953  0.0054  0.2881
 1387SOL     hw 5546   3.819   6.399   1.668  1.5538 -0.8985  0.2835
 1387SOL     hw 5547   3.810   6.290   1.773 -0.7512  0.0965  1.1692
 1387SOL     vw 5548   3.812   6.374   1.751 -0.3325 -0.1016  0.4036
 1388SOL     ow 5549   2.119   4.133   2.265 -0.4570 -0.0992  0.2789
 1388SOL     hw 5550   2.132   4.042   2.289  2.1006  0.6846  2.3136
 1388SOL     hw 5551   2.207   4.166   2.246 -1.3450  1.8845 -0.7694
 1388SOL     vw 5552   2.133   4.125   2.265 -0.2367  0.2661  0.4089
 1389SOL     ow 5553   0.700   1.473   0.240 -0.0037 -0.1328 -0.2634
 1389SOL     hw 5554   0.789   1.450   0.267 -0.1213 -1.3289 -0.8581
 1389SOL     hw 5555   0.683   1.557   0.284  1.2512 -0.0993  0.1954
 1389SOL     vw 5556   0.710   1.481   0.250  0.1464 -0.2862 -0.2813
 1390SOL     ow 5557   3.461   3.857   3.630  0.1079 -0.0810  0.1198
 1390SOL     hw 5558   3.480   3.906   3.550  0.3704  0.3716  0.4493
 1390SOL     hw 5559   3.494   3.769   3.613 -1.9998 -0.6915 -1.1561
 1390SOL     vw 5560   3.468   3.852   3.618 -0.1354 -0.1018 -0.0051
 1391SOL     ow 5561   3.385   3.144   1.596  0.0261  0.2310 -0.1534
 1391SOL     hw 5562   3.291   3.139   1.613  0.0303  0.9695  0.0818
 1391SOL     hw 5563   3.417   3.210   1.657  0.7567 -0.2548 -0.0050
 1391SOL     vw 5564   3.377   3.152   1.606  0.1230  0.2645 -0.1028
 1392SOL     ow 5565   0.653   0.734   0.314 -0.3971 -0.5032  0.7479
 1392SOL     hw 5566   0.668   0.780   0.397 -1.5251  0.3046  0.5181
 1392SOL     hw 5567   0.706   0.782   0.251 -1.2392  0.2509  0.5925
 1392SOL     vw 5568   0.662   0.746   0.317 -0.6571 -0.2971  0.6971
 1393SOL     ow 5569   6.823   4.456   5.107 -0.8235 -0.4860 -0.3451
 1393SOL     hw 5570   6.758   4.525   5.119 -2.3062 -1.3437 -2.7728
 1393SOL     hw 5571   6.829   4.413   5.193 -1.4032  1.2961  0.6335
 1393SOL     vw 5572   6.815   4.459   5.120 -1.0958 -0.3643 -0.5362
 1394SOL     ow 5573   5.478   1.193   3.106 -0.0222 -0.7049  0.4919
 1394SOL     hw 5574   5.572   1.193   3.087  0.1998  1.1320  1.4479
 1394SOL     hw 5575   5.458   1.283   3.132 -2.5896 -0.2936 -2.2611
 1394SOL     vw 5576   5.488   1.205   3.107 -0.3316 -0.4082  0.2549
 1395SOL     ow 5577   5.519   0.346   3.801 -0.3283  0.2183 -0.3796
 1395SOL     hw 5578   5.566   0.329   3.883 -1.0842 -0.4544 -0.0625
 1395SOL     hw 5579   5.587   0.348   3.734  0.0343 -2.6096 -0.2184
 1395SOL     vw 5580   5.534   0.344   3.803 -0.3803 -0.2436 -0.3166
 1396SOL     ow 5581   0.400   5.930   1.146  0.1334  0.7788  0.5272
 1396SOL     hw 5582   0.334   5.998   1.158  0.8880  1.2264  2.4873
 1396SOL     hw 5583   0.455   5.935   1.224  1.7156 -0.4419 -0.4354
 1396SOL     vw 5584   0.399   5.939   1.158  0.4417  0.6769  0.6588
 1397SOL     ow 5585   1.021   3.071   2.449 -0.1936 -0.5199  0.0915
 1397SOL     hw 5586   0.930   3.054   2.475 -0.0564  0.0260  0.9325
 1397SOL     hw 5587   1.072   3.006   2.497  0.0010  0.1125  0.7498
 1397SOL     vw 5588   1.015   3.060   2.458 -0.1499 -0.3644  0.2894
 1398SOL     ow 5589   0.621   4.469   6.901  0.6638 -0.2441  0.4956
 1398SOL     hw 5590   0.582   4.475   6.988  1.1331  0.2491  0.6805
 1398SOL     hw 5591   0.564   4.409   6.853  0.8588 -1.1719  1.3876
 1398SOL     vw 5592   0.608   4.462   6.906  0.7514 -0.3011  0.6375
 1399SOL     ow 5593   4.523   2.673   3.057  0.2702  0.1547  0.0295
 1399SOL     hw 5594   4.460   2.614   3.098 -0.7778 -0.1457 -1.8809
 1399SOL     hw 5595   4.604   2.660   3.105 -0.0120 -2.6304 -0.1137
 1399SOL     vw 5596   4.525   2.664   3.069  0.0947 -0.2524 -0.2415
 1400SOL     ow 5597   2.220   6.914   1.132 -0.1024 -0.3106 -0.0427
 1400SOL     hw 5598   2.154   6.930   1.200 -0.1724  0.7119 -0.3453
 1400SOL     hw 5599   2.244   7.001   1.101 -0.4795 -0.7718 -1.7259
 1400SOL     vw 5600   2.214   6.928   1.137 -0.1614 -0.2365 -0.3047
 1401SOL     ow 5601   6.582   4.735   2.320 -0.0513  0.1326 -0.0420
 1401SOL     hw 5602   6.631   4.653   2.314  0.7002  0.2529  2.9137
 1401SOL     hw 5603   6.496   4.714   2.282  1.2221 -0.9090 -2.6255
 1401SOL     vw 5604   6.577   4.721   2.314  0.2162  0.0112  0.0072
 1402SOL     ow 5605   1.425   7.129   4.043  0.1804 -0.0844  0.1259
 1402SOL     hw 5606   1.484   7.193   4.001  0.0362  1.3675  2.0087
 1402SOL     hw 5607   1.484   7.065   4.082  0.3682 -0.4083 -0.6557
 1402SOL     vw 5608   1.441   7.129   4.042  0.1861  0.0646  0.2711
 1403SOL     ow 5609   1.159   3.313   2.522 -0.3759  0.0462  0.0563
 1403SOL     hw 5610   1.213   3.392   2.520 -1.4470  0.8254  0.7922
 1403SOL     hw 5611   1.221   3.242   2.537  0.7060  0.6372 -1.3354
 1403SOL     vw 5612   1.174   3.314   2.523 -0.3744  0.2271 -0.0302
 1404SOL     ow 5613   2.896   2.467   5.888  0.0007 -0.0454  0.0283
 1404SOL     hw 5614   2.964   2.444   5.952  0.0840 -0.2739 -0.1390
 1404SOL     hw 5615   2.815   2.471   5.939  0.2065  0.6567  0.3058
 1404SOL     vw 5616   2.894   2.464   5.903  0.0387  0.0170  0.0427
 1405SOL     ow 5617   2.547   4.154   4.598  0.4021  0.8123 -0.0938
 1405SOL     hw 5618   2.520   4.067   4.627  1.1337  0.0062 -1.7236
 1405SOL     hw 5619   2.619   4.137   4.537  1.5771  2.6427  0.7200
 1405SOL     vw 5620   2.553   4.140   4.594  0.6536  0.9475 -0.2015
 1406SOL     ow 5621   1.725   4.018   4.121  0.5402 -0.0639 -0.0157
 1406SOL     hw 5622   1.738   4.107   4.088  1.8392 -0.0112  0.6049
 1406SOL     hw 5623   1.633   4.016   4.148  0.0294  0.5396 -1.6127
 1406SOL     vw 5624   1.714   4.029   4.120  0.6442  0.0224 -0.1447
 1407SOL     ow 5625   4.943   1.363   6.095  0.1624 -0.5726  0.0934
 1407SOL     hw 5626   4.967   1.298   6.162 -1.8055 -2.4427 -0.9079
 1407SOL     hw 5627   4.847   1.361   6.093 -0.0751  3.1784  0.7184
 1407SOL     vw 5628   4.933   1.354   6.104 -0.1287 -0.3244  0.0436
 1408SOL     ow 5629   6.016   2.653   2.617 -0.3742  0.1917 -0.1571
 1408SOL     hw 5630   6.067   2.573   2.631  0.7083  0.0873 -3.7922
 1408SOL     hw 5631   5.939   2.625   2.567 -2.3784  0.8796  2.3247
 1408SOL     vw 5632   6.012   2.639   2.612 -0.4957  0.2686 -0.3092
 1409SOL     ow 5633   2.251   0.950   5.333 -0.5114  0.0934 -0.2302
 1409SOL     hw 5634   2.223   0.892   5.404 -0.2023 -0.7858 -0.8174
 1409SOL     hw 5635   2.188   1.022   5.335 -1.5965 -0.8305 -0.2244
 1409SOL     vw 5636   2.239   0.952   5.343 -0.6138 -0.1445 -0.3066
 1410SOL     ow 5637   4.973   3.224   5.007 -0.4756  0.0914 -0.0634
 1410SOL     hw 5638   4.914   3.149   5.012 -1.4010  0.7824 -0.4699
 1410SOL     hw 5639   5.055   3.188   4.973 -1.6932 -0.3290 -2.7741
 1410SOL     vw 5640   4.976   3.209   5.003 -0.7582  0.1271 -0.4745
 1411SOL     ow 5641   0.204   1.098   0.375 -0.0988 -0.3974  0.5163
 1411SOL     hw 5642   0.114   1.113   0.405 -0.2513  1.8157 -0.8430
 1411SOL     hw 5643   0.213   1.154   0.298  2.4110 -0.6913  0.5273
 1411SOL     vw 5644   0.193   1.108   0.369  0.2122 -0.1443  0.3384
 1412SOL     ow 5645   0.931   5.629   3.460  0.6796 -0.3042  0.0456
 1412SOL     hw 5646   0.945   5.535   3.473  0.5517 -0.2079  0.9499
 1412SOL     hw 5647   0.972   5.670   3.535 -0.9733  0.2242  0.7123
 1412SOL     vw 5648   0.938   5.622   3.471  0.4446 -0.2215  0.2528
 1413SOL     ow 5649   5.426   0.366   6.571  0.1278 -0.1374  0.7410
 1413SOL     hw 5650   5.459   0.276   6.573  0.9059  0.1214 -0.1423
 1413SOL     hw 5651   5.331   0.357   6.579  0.0217 -1.1638 -1.2260
 1413SOL     vw 5652   5.418   0.353   6.572  0.2162 -0.2387  0.3650
 1414SOL     ow 5653   5.186   1.349   5.998 -1.1509  0.5336 -0.7428
 1414SOL     hw 5654   5.096   1.372   6.020 -1.1408 -0.5122  0.4675
 1414SOL     hw 5655   5.229   1.337   6.082 -0.8949 -2.7902 -1.1981
 1414SOL     vw 5656   5.180   1.350   6.012 -1.1156 -0.0429 -0.6433
 1415SOL     ow 5657   5.974   0.708   6.745  0.0247 -0.5762  0.0407
 1415SOL     hw 5658   5.907   0.757   6.698 -0.2370 -0.0616  0.9203
 1415SOL     hw 5659   5.927   0.635   6.785 -0.4929  0.9393  2.4186
 1415SOL     vw 5660   5.959   0.705   6.744 -0.0780 -0.3083  0.4706
 1416SOL     ow 5661   2.586   5.609   2.499 -0.2341  0.1986 -0.0729
 1416SOL     hw 5662   2.505   5.650   2.471 -0.5686 -0.8148 -0.6370
 1416SOL     hw 5663   2.571   5.515   2.489  0.7577 -0.0431  0.4884
 1416SOL     vw 5664   2.574   5.602   2.494 -0.1473  0.0331 -0.0733
 1417SOL     ow 5665   0.881   2.580   0.831  0.9722 -0.4691 -0.4866
 1417SOL     hw 5666   0.922   2.534   0.904  0.6014  0.0013  0.0209
 1417SOL     hw 5667   0.933   2.660   0.821 -0.3054  0.5560  0.7234
 1417SOL     vw 5668   0.894   2.584   0.839  0.7547 -0.2719 -0.2600
 1418SOL     ow 5669   5.101   2.197   1.777 -0.2170  0.0675 -0.3971
 1418SOL     hw 5670   5.088   2.188   1.683 -0.5371 -1.2257 -0.2433
 1418SOL     hw 5671   5.194   2.219   1.786  0.0674 -0.8503 -0.9644
 1418SOL     vw 5672   5.112   2.199   1.766 -0.2217 -0.2242 -0.4518
 1419SOL     ow 5673   0.482   4.271   6.759  0.2374 -0.6459 -0.5680
 1419SOL     hw 5674   0.517   4.186   6.786 -1.8902 -1.1237  1.0106
 1419SOL     hw 5675   0.413   4.249   6.695 -0.6512 -0.1946  0.2047
 1419SOL     vw 5676   0.477   4.257   6.754 -0.1606 -0.6495 -0.2577
 1420SOL     ow 5677   3.191   4.365   4.333 -0.2203  0.6638  0.1488
 1420SOL     hw 5678   3.115   4.306   4.342 -1.6920  2.4829  0.2106
 1420SOL     hw 5679   3.266   4.306   4.330 -1.4055 -1.1554  2.4132
 1420SOL     vw 5680   3.191   4.349   4.334 -0.5709  0.6640  0.4556
 1421SOL     ow 5681   0.978   1.794   5.273 -0.1272  0.1728 -0.0382
 1421SOL     hw 5682   0.986   1.752   5.358 -0.5418  0.4257  0.1290
 1421SOL     hw 5683   0.898   1.846   5.279 -0.1108  0.2663 -0.5494
 1421SOL     vw 5684   0.969   1.795   5.285 -0.1798  0.2185 -0.0834
 1422SOL     ow 5685   1.006   4.776   6.945 -0.1839  0.7536 -0.7668
 1422SOL     hw 5686   1.066   4.841   6.910 -0.7690  1.2624 -0.8381
 1422SOL     hw 5687   0.963   4.820   7.018 -0.1026  0.2222 -0.3929
 1422SOL     vw 5688   1.008   4.790   6.950 -0.2505  0.7508 -0.7269
 1423SOL     ow 5689   2.235   6.632   3.820  0.3018  0.0320  0.5143
 1423SOL     hw 5690   2.258   6.664   3.907  2.5272 -2.0330  0.7977
 1423SOL     hw 5691   2.231   6.537   3.829 -0.7650 -0.1614 -1.3700
 1423SOL     vw 5692   2.238   6.623   3.833  0.4548 -0.2658  0.3030
 1424SOL     ow 5693   1.466   5.976   6.422  0.4289 -0.3789  0.2801
 1424SOL     hw 5694   1.475   5.881   6.425 -1.4350 -0.6419 -0.4427
 1424SOL     hw 5695   1.459   5.996   6.328  0.7322  0.4699  0.4283
 1424SOL     vw 5696   1.466   5.966   6.410  0.2229 -0.3014  0.2041
 1425SOL     ow 5697   0.844   5.930   2.693  0.0607 -0.1885 -0.2747
 1425SOL     hw 5698   0.778   5.949   2.761 -0.3221  1.4531 -1.0787
 1425SOL     hw 5699   0.833   5.836   2.676 -0.1415 -0.5549  1.5874
 1425SOL     vw 5700   0.834   5.920   2.700 -0.0165 -0.0205 -0.1352
 1426SOL     ow 5701   7.066   0.503   0.205  0.0206  0.4583 -0.3076
 1426SOL     hw 5702   7.159   0.483   0.197 -0.3640 -1.0641 -1.3964
 1426SOL     hw 5703   7.060   0.597   0.188  1.5719  1.0417  1.9351
 1426SOL     vw 5704   7.078   0.513   0.202  0.1745  0.3344 -0.1553
 1427SOL     ow 5705   2.037   5.441   0.193 -0.4618  0.1825 -0.2371
 1427SOL     hw 5706   2.114   5.495   0.176 -0.4227  0.1844 -0.0614
 1427SOL     hw 5707   2.007   5.469   0.279 -0.1786 -0.3823  0.0510
 1427SOL     vw 5708   2.043   5.452   0.202 -0.4193  0.1082 -0.1759
 1428SOL     ow 5709   1.523   3.165   1.990 -0.3258  0.3816 -0.1251
 1428SOL     hw 5710   1.595   3.153   2.052  1.3793  1.6013 -1.7700
 1428SOL     hw 5711   1.524   3.085   1.936 -1.0078 -0.1288  0.5996
 1428SOL     vw 5712   1.533   3.153   1.991 -0.1907  0.4752 -0.2465
 1429SOL     ow 5713   4.434   4.851   4.621  0.4871 -0.1217 -1.2462
 1429SOL     hw 5714   4.398   4.932   4.583  0.0592 -0.5157 -1.6993
 1429SOL     hw 5715   4.392   4.844   4.706  2.0807  1.2140 -0.2927
 1429SOL     vw 5716   4.424   4.861   4.627  0.6409  0.0026 -1.1802
 1430SOL     ow 5717   1.558   2.021   3.240 -0.0877  0.3001  0.7504
 1430SOL     hw 5718   1.568   2.013   3.335  1.7367 -1.1436  0.5049
 1430SOL     hw 5719   1.541   2.114   3.226 -0.7488  0.4824  2.5092
 1430SOL     vw 5720   1.557   2.033   3.251  0.0659  0.1336  0.9500
 1431SOL     ow 5721   2.245   5.576   4.030 -0.1291 -0.4331  1.0500
 1431SOL     hw 5722   2.265   5.645   3.967 -0.1898  1.1817  2.6936
 1431SOL     hw 5723   2.159   5.601   4.066 -1.6312 -3.0578 -0.4328
 1431SOL     vw 5724   2.236   5.589   4.027 -0.3353 -0.5665  1.0712
 1432SOL     ow 5725   3.880   3.568   0.438  0.2671 -0.0382  0.4622
 1432SOL     hw 5726   3.907   3.479   0.459 -0.9447 -0.3626  0.7114
 1432SOL     hw 5727   3.943   3.624   0.484 -1.0937 -0.7425  3.4352
 1432SOL     vw 5728   3.892   3.564   0.447 -0.0724 -0.1738  0.8873
 1433SOL     ow 5729   4.340   3.568   3.172 -0.2120  0.4463  0.2291
 1433SOL     hw 5730   4.250   3.588   3.198  0.3730  3.4512  0.3108
 1433SOL     hw 5731   4.333   3.490   3.118 -3.3183  2.1307 -2.1380
 1433SOL     vw 5732   4.328   3.561   3.168 -0.5445  1.0650 -0.0724
 1434SOL     ow 5733   0.015   5.696   2.631  0.0012  0.6076 -0.6271
 1434SOL     hw 5734   0.033   5.787   2.656 -0.0686  0.1542  1.2411
 1434SOL     hw 5735   0.017   5.648   2.714 -1.3275 -0.8715 -1.3947
 1434SOL     vw 5736   0.017   5.702   2.646 -0.1833  0.3526 -0.4818
 1435SOL     ow 5737   4.401   4.003   4.121  0.0355  0.5843  0.0135
 1435SOL     hw 5738   4.489   3.967   4.116  0.6182  1.9494  0.0538
 1435SOL     hw 5739   4.411   4.086   4.169 -1.3570  0.4792  0.5532
 1435SOL     vw 5740   4.414   4.009   4.127 -0.0713  0.7503  0.0899
 1436SOL     ow 5741   6.184   2.238   1.037 -0.4872  0.6953 -0.2786
 1436SOL     hw 5742   6.115   2.292   1.000 -1.2881  0.3400  0.6612
 1436SOL     hw 5743   6.235   2.208   0.961 -1.2809  1.0715 -0.9686
 1436SOL     vw 5744   6.182   2.241   1.022 -0.6979  0.6981 -0.2456
 1437SOL     ow 5745   3.647   0.050   0.615 -0.1675 -0.0120  0.7860
 1437SOL     hw 5746   3.598   0.127   0.642 -1.9275 -0.8132  0.0673
 1437SOL     hw 5747   3.647  -0.007   0.692  0.0552  0.1785  0.9293
 1437SOL     vw 5748   3.640   0.052   0.629 -0.3704 -0.0926  0.7101
 1438SOL     ow 5749   2.030   4.192   5.960 -0.8484  0.3693  0.4881
 1438SOL     hw 5750   1.991   4.140   5.889  0.5320 -0.0027 -0.0326
 1438SOL     hw 5751   2.124   4.172   5.955 -0.3640  2.3897  0.7291
 1438SOL     vw 5752   2.037   4.182   5.950 -0.6025  0.5867  0.4513
 1439SOL     ow 5753   5.468   0.303   2.553  0.7419  0.3445  0.1803
 1439SOL     hw 5754   5.498   0.244   2.483 -0.2842 -0.5308  0.4478
 1439SOL     hw 5755   5.548   0.338   2.591  1.4226 -1.3756  0.4220
 1439SOL     vw 5756   5.482   0.300   2.549  0.6962  0.0021  0.2475
 1440SOL     ow 5757   3.780   4.156   5.127  0.5516 -0.2940  0.7219
 1440SOL     hw 5758   3.859   4.158   5.074 -1.1232 -0.8220 -2.0255
 1440SOL     hw 5759   3.751   4.247   5.132 -0.5557 -0.4536 -1.5195
 1440SOL     vw 5760   3.786   4.168   5.121  0.1844 -0.3848  0.0637
 1441SOL     ow 5761   6.287   0.082   0.619  0.1205  0.4623 -0.4954
 1441SOL     hw 5762   6.255   0.092   0.530  2.9122  0.0562 -1.6582
 1441SOL     hw 5763   6.334  -0.001   0.619 -1.8872 -0.8364  2.1199
 1441SOL     vw 5764   6.289   0.072   0.608  0.2239  0.2374 -0.3037
 1442SOL     ow 5765   1.438   1.442   0.750  0.0555 -0.1095 -0.0664
 1442SOL     hw 5766   1.401   1.365   0.706 -1.1538  0.6773 -0.4708
 1442SOL     hw 5767   1.416   1.515   0.694 -1.9563  1.0145  2.0126
 1442SOL     vw 5768   1.431   1.441   0.737 -0.3695  0.1426  0.1546
 1443SOL     ow 5769   3.394   1.419   0.952  0.3806 -0.4759 -0.1589
 1443SOL     hw 5770   3.415   1.348   0.890  2.0141  0.0642 -0.2505
 1443SOL     hw 5771   3.298   1.426   0.947  0.3224 -1.5870 -1.3497
 1443SOL     vw 5772   3.384   1.410   0.943  0.5885 -0.5512 -0.3281
 1444SOL     ow 5773   4.661   4.339   3.956 -0.0026  0.2443 -0.5633
 1444SOL     hw 5774   4.663   4.317   4.049 -1.8032  1.1793 -0.2601
 1444SOL     hw 5775   4.646   4.256   3.911 -2.5920  0.2071  0.2547
 1444SOL     vw 5776   4.660   4.325   3.962 -0.5820  0.3629 -0.4154
 1445SOL     ow 5777   3.132   1.364   1.718  0.3013 -0.0936 -0.0162
 1445SOL     hw 5778   3.075   1.341   1.645  0.7238 -0.6424 -0.1808
 1445SOL     hw 5779   3.154   1.281   1.759  1.4152  0.0517 -0.2810
 1445SOL     vw 5780   3.127   1.350   1.714  0.5041 -0.1469 -0.0728
 1446SOL     ow 5781   3.799   2.547   3.858 -0.5265  0.0585 -0.4792
 1446SOL     hw 5782   3.758   2.465   3.829 -0.3507 -0.4171  0.5471
 1446SOL     hw 5783   3.757   2.615   3.806 -0.2610 -0.7374 -1.7667
 1446SOL     vw 5784   3.788   2.545   3.847 -0.4683 -0.1092 -0.5137
 1447SOL     ow 5785   3.347   3.587   6.780 -1.0542 -0.6399  0.2246
 1447SOL     hw 5786   3.322   3.643   6.707 -0.3827 -0.0336  0.4424
 1447SOL     hw 5787   3.411   3.526   6.743  0.1909  0.4262  0.5314
 1447SOL     vw 5788   3.352   3.587   6.765 -0.8014 -0.4193  0.2937
 1448SOL     ow 5789   6.397   0.020   2.943  0.3871 -0.5487  0.5220
 1448SOL     hw 5790   6.462   0.014   2.873 -0.5118  0.5017 -0.4470
 1448SOL     hw 5791   6.369   0.112   2.942  0.5036 -0.4585  2.4242
 1448SOL     vw 5792   6.402   0.031   2.934  0.2837 -0.3982  0.6453
 1449SOL     ow 5793   6.836   6.793   0.989  0.2256 -0.1052 -0.3715
 1449SOL     hw 5794   6.830   6.872   0.935 -1.3495 -1.2818 -2.0482
 1449SOL     hw 5795   6.845   6.826   1.078  1.2051  1.9405 -1.1674
 1449SOL     vw 5796   6.836   6.808   0.994  0.1471  0.0095 -0.6977
 1450SOL     ow 5797   1.948   6.145   5.755  0.3376  0.7892 -0.1173
 1450SOL     hw 5798   2.042   6.144   5.736  0.7224 -2.0073  1.2956
 1450SOL     hw 5799   1.942   6.156   5.850 -0.9232  3.0575 -0.4003
 1450SOL     vw 5800   1.959   6.146   5.765  0.2220  0.7198  0.0317
 1451SOL     ow 5801   4.853   6.256   7.137  0.1695  0.5859 -0.2396
 1451SOL     hw 5802   4.819   6.206   7.063 -1.0463 -0.1620  0.7775
 1451SOL     hw 5803   4.830   6.347   7.118  1.1283  0.6056 -1.4253
 1451SOL     vw 5804   4.846   6.261   7.125  0.1357  0.4897 -0.2618
 1452SOL     ow 5805   6.494   1.420   0.219  0.4144  0.1480 -0.3213
 1452SOL     hw 5806   6.464   1.354   0.156  0.0650  1.1306 -1.2096
 1452SOL     hw 5807   6.414   1.447   0.266  0.4588  0.3624 -0.3680
 1452SOL     vw 5808   6.479   1.415   0.217  0.3741  0.3060 -0.4446
 1453SOL     ow 5809   6.939   0.302   0.095  0.2363 -0.1083 -0.5375
 1453SOL     hw 5810   6.979   0.379   0.134 -1.9886  0.9548 -0.2225
 1453SOL     hw 5811   6.995   0.281   0.021  0.8859  1.8129 -0.6409
 1453SOL     vw 5812   6.952   0.309   0.091  0.0288  0.2854 -0.5096
 1454SOL     ow 5813   3.123   0.905   4.460 -0.4429 -0.4134 -0.3136
 1454SOL     hw 5814   3.151   0.939   4.375 -1.5045  4.2760  0.9139
 1454SOL     hw 5815   3.201   0.911   4.515 -0.1718 -1.8794 -0.5117
 1454SOL     vw 5816   3.137   0.911   4.456 -0.5471  0.0119 -0.1779
 1455SOL     ow 5817   0.669   1.348   2.184  0.0959 -0.6030 -0.3043
 1455SOL     hw 5818   0.594   1.404   2.207 -0.1353 -0.2762 -1.7920
 1455SOL     hw 5819   0.629   1.269   2.148  0.4602 -0.4935 -0.9558
 1455SOL     vw 5820   0.654   1.345   2.183  0.1135 -0.5455 -0.5866
 1456SOL     ow 5821   3.978   0.289   3.787  0.2930 -0.1127  0.1835
 1456SOL     hw 5822   3.962   0.356   3.720  2.1176 -0.4560 -0.6599
 1456SOL     hw 5823   3.928   0.213   3.758  0.5148 -0.0285 -0.4499
 1456SOL     vw 5824   3.970   0.288   3.774  0.5630 -0.1469 -0.0112
 1457SOL     ow 5825   3.739   5.900   0.211  0.3385  0.0828  0.2181
 1457SOL     hw 5826   3.783   5.819   0.234  0.5311 -0.4476 -1.8634
 1457SOL     hw 5827   3.810   5.959   0.184 -0.0008  0.1057 -0.6386
 1457SOL     vw 5828   3.754   5.897   0.210  0.3192  0.0157 -0.1696
 1458SOL     ow 5829   3.161   5.272   2.268  0.4627  0.0428 -0.2105
 1458SOL     hw 5830   3.196   5.183   2.266 -0.3038 -0.3730  1.8218
 1458SOL     hw 5831   3.220   5.324   2.214  1.3917 -1.5444 -0.7558
 1458SOL     vw 5832   3.173   5.267   2.260  0.4841 -0.2215 -0.0143
 1459SOL     ow 5833   3.465   3.373   1.731  0.1839  0.1130  0.0696
 1459SOL     hw 5834   3.382   3.408   1.696 -0.2502 -1.2182 -0.3021
 1459SOL     hw 5835   3.532   3.410   1.674 -0.4109 -0.9836 -1.4088
 1459SOL     vw 5836   3.463   3.382   1.719  0.0482 -0.2073 -0.1745
 1460SOL     ow 5837   5.015   7.067   5.192 -0.7485  0.0329 -0.1103
 1460SOL     hw 5838   4.937   7.110   5.159  0.4920  0.4740 -2.7684
 1460SOL     hw 5839   5.045   7.122   5.264 -2.2189  0.4640  0.2076
 1460SOL     vw 5840   5.009   7.080   5.197 -0.7792  0.1478 -0.4189
 1461SOL     ow 5841   1.045   0.328   0.012  0.1101  0.4221  0.2622
 1461SOL     hw 5842   1.027   0.273   0.089  2.1866 -1.5850 -0.5726
 1461SOL     hw 5843   0.987   0.294  -0.056 -0.7383  1.2980  0.5180
 1461SOL     vw 5844   1.035   0.316   0.013  0.2721  0.2729  0.1857
 1462SOL     ow 5845   4.514   3.842   5.599 -0.0709  0.3764 -0.4452
 1462SOL     hw 5846   4.532   3.893   5.520 -0.2424  1.3699  0.1405
 1462SOL     hw 5847   4.419   3.848   5.611 -0.7090 -3.2056 -2.4189
 1462SOL     vw 5848   4.504   3.850   5.590 -0.1779  0.0348 -0.6285
 1463SOL     ow 5849   1.425   1.559   2.159  0.2844 -0.3744  0.0290
 1463SOL     hw 5850   1.384   1.602   2.234 -0.0141 -0.5605 -0.0298
 1463SOL     hw 5851   1.392   1.607   2.083  0.5979 -0.1768  0.0153
 1463SOL     vw 5852   1.415   1.571   2.158  0.2865 -0.3729  0.0194
 1464SOL     ow 5853   6.180   4.720   5.382 -0.1113 -0.4770 -0.2845
 1464SOL     hw 5854   6.185   4.696   5.289 -1.1138  2.5056 -1.2282
 1464SOL     hw 5855   6.268   4.748   5.404 -0.1573  0.0945 -0.7825
 1464SOL     vw 5856   6.192   4.720   5.373 -0.2496 -0.0081 -0.4745
 1465SOL     ow 5857   6.041   3.183   3.335  0.0322 -0.0394  0.9987
 1465SOL     hw 5858   6.034   3.278   3.326  0.6101  0.1679  2.5021
 1465SOL     hw 5859   6.047   3.151   3.245 -1.1226  1.2559  0.4287
 1465SOL     vw 5860   6.041   3.191   3.322 -0.0439  0.1589  1.1219
 1466SOL     ow 5861   3.078   3.363   4.022  0.0210 -0.1419  0.4981
 1466SOL     hw 5862   3.163   3.320   4.008  0.4816  1.1783 -1.0745
 1466SOL     hw 5863   3.037   3.365   3.935 -0.7495  0.9699  0.8605
 1466SOL     vw 5864   3.084   3.358   4.009 -0.0200  0.1791  0.3381
 1467SOL     ow 5865   1.697   3.302   2.593  0.0665  0.0063  0.3802
 1467SOL     hw 5866   1.633   3.249   2.641  1.6946 -1.7909  0.6873
 1467SOL     hw 5867   1.645   3.373   2.555 -1.4646  1.1159  4.0959
 1467SOL     vw 5868   1.682   3.305   2.594  0.0793 -0.0844  0.9109
 1468SOL     ow 5869   3.635   2.047   7.028  0.3193 -0.4847 -0.4469
 1468SOL     hw 5870   3.659   2.033   7.120 -0.0592  0.3062 -0.2181
 1468SOL     hw 5871   3.708   2.010   6.978  1.2539  0.4015  0.2069
 1468SOL     vw 5872   3.648   2.040   7.034  0.3926 -0.2633 -0.3304
 1469SOL     ow 5873   2.579   4.300   4.890 -0.0105 -0.2663 -0.6533
 1469SOL     hw 5874   2.674   4.286   4.889  0.2216  0.5516  1.6477
 1469SOL     hw 5875   2.561   4.331   4.979 -2.0739  2.0975 -1.7433
 1469SOL     vw 5876   2.589   4.303   4.902 -0.2520  0.1538 -0.4935
 1470SOL     ow 5877   1.582   1.309   2.160  0.1759  0.0790 -0.4660
 1470SOL     hw 5878   1.606   1.233   2.212 -1.3502 -0.0199  0.1545
 1470SOL     hw 5879   1.621   1.294   2.074  0.3943 -1.1127 -0.1663
 1470SOL     vw 5880   1.590   1.297   2.156  0.0035 -0.0913 -0.3445
 1471SOL     ow 5881   2.532   4.757   0.894 -1.1362  0.2239 -0.1719
 1471SOL     hw 5882   2.542   4.825   0.828 -2.8555 -0.6123 -1.3625
 1471SOL     hw 5883   2.596   4.691   0.870 -0.0492  0.9936  0.4939
 1471SOL     vw 5884   2.542   4.757   0.883 -1.2196  0.2151 -0.2411
 1472SOL     ow 5885   6.557   4.973   2.536  0.1325  0.3999 -0.6106
 1472SOL     hw 5886   6.483   4.921   2.567  1.0543 -0.3626  0.3887
 1472SOL     hw 5887   6.557   5.051   2.591  0.4466  0.0913 -0.1639
 1472SOL     vw 5888   6.547   4.976   2.547  0.2956  0.2587 -0.4196
 1473SOL     ow 5889   2.298   1.011   4.213 -0.2187 -0.9094 -0.1981
 1473SOL     hw 5890   2.240   0.936   4.224 -4.2960  1.5843 -2.2274
 1473SOL     hw 5891   2.289   1.035   4.121  2.7202  0.7831 -0.1587
 1473SOL     vw 5892   2.289   1.004   4.202 -0.3690 -0.3571 -0.4606
 1474SOL     ow 5893   2.022   2.209   4.897 -0.6885  0.1236 -0.2502
 1474SOL     hw 5894   1.952   2.166   4.947  0.6269 -0.1303  1.4677
 1474SOL     hw 5895   2.017   2.301   4.922 -0.6608  0.1797 -0.4445
 1474SOL     vw 5896   2.012   2.215   4.907 -0.5114  0.0975 -0.0491
 1475SOL     ow 5897   1.594   5.276   7.217  0.2555 -0.4165  0.0938
 1475SOL     hw 5898   1.548   5.236   7.144  0.0010  0.6114 -0.3320
 1475SOL     hw 5899   1.674   5.311   7.179  0.0495  0.2614  0.2584
 1475SOL     vw 5900   1.598   5.276   7.202  0.1947 -0.1915  0.0594
 1476SOL     ow 5901   2.551   0.849   0.243 -0.2123  0.2530  0.5543
 1476SOL     hw 5902   2.524   0.812   0.158  1.1377  0.1490  0.1568
 1476SOL     hw 5903   2.526   0.941   0.237  0.3760  0.3781 -0.1886
 1476SOL     vw 5904   2.544   0.856   0.231  0.0434  0.2558  0.4038
 1477SOL     ow 5905   0.027   6.331   0.358  0.5406  0.3755  0.4206
 1477SOL     hw 5906  -0.008   6.302   0.442 -1.0887 -0.3256 -0.4354
 1477SOL     hw 5907  -0.045   6.381   0.319  1.8275  2.0251  0.0872
 1477SOL     vw 5908   0.013   6.333   0.364  0.4954  0.5007  0.2636
 1478SOL     ow 5909   1.370   1.216   0.597  0.5084  0.3614 -0.1966
 1478SOL     hw 5910   1.326   1.211   0.512  0.9669  0.9363 -0.4776
 1478SOL     hw 5911   1.462   1.200   0.576  0.3450 -1.7544  0.5049
 1478SOL     vw 5912   1.377   1.213   0.583  0.5473  0.1581 -0.1411
 1479SOL     ow 5913   4.582   2.741   2.783  0.5425  0.9324 -0.4030
 1479SOL     hw 5914   4.582   2.694   2.867  2.4458  0.5407 -0.5626
 1479SOL     hw 5915   4.492   2.770   2.771 -0.0863 -0.2905  1.0573
 1479SOL     vw 5916   4.570   2.739   2.793  0.7105  0.7193 -0.2315
 1480SOL     ow 5917   7.235   2.616   5.214  0.8698 -0.0273 -0.4390
 1480SOL     hw 5918   7.193   2.531   5.202 -0.1605  0.7501 -2.8532
 1480SOL     hw 5919   7.192   2.653   5.291 -1.6567 -0.0425 -1.7447
 1480SOL     vw 5920   7.224   2.609   5.223  0.4005  0.0731 -0.9298
 1481SOL     ow 5921   1.743   1.610   5.838 -0.0649  0.0246 -0.1202
 1481SOL     hw 5922   1.810   1.545   5.817  2.5692  2.5907 -0.3880
 1481SOL     hw 5923   1.691   1.569   5.908  2.4648 -1.7658  0.8779
 1481SOL     vw 5924   1.745   1.596   5.845  0.6164  0.1270 -0.0238
 1482SOL     ow 5925   5.604   0.982   2.027 -0.1558 -0.7849  0.0437
 1482SOL     hw 5926   5.509   0.991   2.021 -0.2222 -0.5693  1.2048
 1482SOL     hw 5927   5.618   0.889   2.045 -0.1886 -0.6732  0.6409
 1482SOL     vw 5928   5.593   0.971   2.028 -0.1688 -0.7417  0.2757
 1483SOL     ow 5929   1.639   2.617   5.672  0.4047  0.1326 -0.2105
 1483SOL     hw 5930   1.586   2.674   5.727  0.6364 -0.6189  0.8162
 1483SOL     hw 5931   1.578   2.587   5.604  0.2953  1.6136 -0.8164
 1483SOL     vw 5932   1.624   2.621   5.670  0.4209  0.2289 -0.1550
 1484SOL     ow 5933   1.163   6.945   1.434 -0.8674 -0.1392 -0.4122
 1484SOL     hw 5934   1.126   6.886   1.368  0.9555 -1.4936 -0.2917
 1484SOL     hw 5935   1.096   6.950   1.502 -1.7105 -0.7983 -1.1752
 1484SOL     vw 5936   1.149   6.938   1.435 -0.7381 -0.4048 -0.4969
 1485SOL     ow 5937   3.184   5.484   0.267 -0.5636  1.0178 -0.2810
 1485SOL     hw 5938   3.191   5.483   0.171 -1.0324 -3.2082 -0.4849
 1485SOL     hw 5939   3.089   5.489   0.283 -0.8647 -2.2410 -0.3714
 1485SOL     vw 5940   3.172   5.484   0.256 -0.6653  0.0305 -0.3198
 1486SOL     ow 5941   6.341   5.507   3.341  0.4365  0.1164  0.0191
 1486SOL     hw 5942   6.276   5.545   3.400 -0.4314  0.7084 -1.2403
 1486SOL     hw 5943   6.293   5.438   3.294 -0.4449  2.6305 -3.2488
 1486SOL     vw 5944   6.326   5.503   3.342  0.2058  0.5262 -0.5782
 1487SOL     ow 5945   5.369   3.164   4.967 -0.1819  0.2233  0.0896
 1487SOL     hw 5946   5.300   3.181   4.903  0.1121  1.3993  0.0660
 1487SOL     hw 5947   5.380   3.247   5.014 -0.0171 -0.4582  1.3094
 1487SOL     vw 5948   5.361   3.177   4.965 -0.1214  0.2885  0.2472
 1488SOL     ow 5949   3.800   1.970   6.838 -0.9740  0.0389  0.1152
 1488SOL     hw 5950   3.746   2.029   6.785 -2.5137  1.3019  2.8320
 1488SOL     hw 5951   3.782   1.883   6.803 -1.3357  0.8307 -1.8372
 1488SOL     vw 5952   3.790   1.967   6.826 -1.2249  0.3100  0.2160
 1489SOL     ow 5953   0.392   1.465   1.942 -0.3136 -0.0204  0.8266
 1489SOL     hw 5954   0.382   1.401   1.872 -0.9252 -0.1947  1.0655
 1489SOL     hw 5955   0.433   1.416   2.014 -1.7448 -0.4299  1.3862
 1489SOL     vw 5956   0.396   1.450   1.942 -0.5831 -0.0974  0.9319
 1490SOL     ow 5957   2.733   4.670   3.717  0.3496  0.4897  0.1253
 1490SOL     hw 5958   2.812   4.664   3.771  0.5119  2.2784  0.1435
 1490SOL     hw 5959   2.665   4.628   3.770  1.5674 -2.6675 -0.6177
 1490SOL     vw 5960   2.734   4.664   3.731  0.5317  0.3092  0.0298
 1491SOL     ow 5961   0.788   4.271   3.657 -0.3489  0.0340  0.1430
 1491SOL     hw 5962   0.845   4.215   3.710  0.4870  0.0550 -0.6971
 1491SOL     hw 5963   0.702   4.230   3.662 -0.0404 -0.5724  0.6275
 1491SOL     vw 5964   0.784   4.258   3.665 -0.1979 -0.0434  0.0961
 1492SOL     ow 5965   5.298   6.063   6.787  0.1808 -0.6522  0.0635
 1492SOL     hw 5966   5.384   6.022   6.793  0.9015  0.9135  0.9202
 1492SOL     hw 5967   5.243   5.998   6.743  1.0812 -2.8024  1.9288
 1492SOL     vw 5968   5.302   6.049   6.782  0.3948 -0.7293  0.4227
 1493SOL     ow 5969   0.645   2.374   0.799 -0.0084 -0.8955  0.0167
 1493SOL     hw 5970   0.629   2.354   0.706 -0.7887  0.9877 -0.2955
 1493SOL     hw 5971   0.707   2.446   0.798  1.4067 -2.0529  1.0446
 1493SOL     vw 5972   0.651   2.381   0.786  0.0754 -0.7998  0.1111
 1494SOL     ow 5973   4.225   7.071   3.935  0.1269  0.5697  0.0281
 1494SOL     hw 5974   4.132   7.074   3.915  0.3815  2.6142 -1.1141
 1494SOL     hw 5975   4.264   7.023   3.862  0.0695  0.3617  0.1323
 1494SOL     vw 5976   4.218   7.065   3.923  0.1531  0.8118 -0.1088
 1495SOL     ow 5977   2.657   4.522   2.329  0.9593  0.2505 -0.1576
 1495SOL     hw 5978   2.603   4.445   2.346  1.9229  0.0020  2.0717
 1495SOL     hw 5979   2.731   4.513   2.389  1.8018  2.2391 -0.8280
 1495SOL     vw 5980   2.660   4.510   2.339  1.1977  0.4802  0.0479
 1496SOL     ow 5981   3.419   1.848   7.085  0.5780 -0.3788  0.1428
 1496SOL     hw 5982   3.501   1.799   7.090  1.3744  0.9933  0.9164
 1496SOL     hw 5983   3.360   1.790   7.036  1.4830 -2.0742  0.9756
 1496SOL     vw 5984   3.422   1.834   7.079  0.8025 -0.4215  0.3550
 1497SOL     ow 5985   1.199   4.107   5.047  0.0983  0.5167 -0.0859
 1497SOL     hw 5986   1.137   4.162   4.998 -0.4208 -0.7172 -0.8745
 1497SOL     hw 5987   1.160   4.100   5.134 -0.8637 -0.1693 -0.5470
 1497SOL     vw 5988   1.185   4.113   5.052 -0.0972  0.2635 -0.2508
 1498SOL     ow 5989   5.896   4.456   6.712  0.0877  0.2671 -0.5985
 1498SOL     hw 5990   5.924   4.546   6.727 -1.0390  0.5662 -0.2511
 1498SOL     hw 5991   5.869   4.453   6.620 -0.0777  0.3378 -0.5524
 1498SOL     vw 5992   5.896   4.467   6.702 -0.0825  0.3159 -0.5467
 1499SOL     ow 5993   3.115   5.439   4.821 -0.6175  0.1567  0.0096
 1499SOL     hw 5994   3.112   5.345   4.838  0.3413  0.0383 -0.4221
 1499SOL     hw 5995   3.023   5.467   4.824 -0.8552 -0.6758  0.7396
 1499SOL     vw 5996   3.102   5.431   4.823 -0.5224  0.0315  0.0489
 1500SOL     ow 5997   1.398   2.372   1.371 -0.2737 -0.2480 -0.5067
 1500SOL     hw 5998   1.303   2.378   1.365 -0.4140 -0.5707  0.9894
 1500SOL     hw 5999   1.426   2.456   1.407 -0.7373 -2.2406  5.4826
 1500SOL     vw 6000   1.389   2.384   1.375 -0.3534 -0.5535  0.4808
 1501SOL     ow 6001   5.924   3.438   3.779  0.2370  0.0616  0.6797
 1501SOL     hw 6002   5.935   3.361   3.724  2.8510  0.6914  0.1591
 1501SOL     hw 6003   5.957   3.511   3.725  0.0682  1.1619  2.0004
 1501SOL     vw 6004   5.930   3.438   3.765  0.5596  0.2897  0.7852
 1502SOL     ow 6005   0.823   1.312   3.951  0.0220 -0.1932 -0.0669
 1502SOL     hw 6006   0.878   1.348   4.021  0.5804  2.1982 -1.5920
 1502SOL     hw 6007   0.884   1.270   3.891  0.1255  1.2972 -1.0811
 1502SOL     vw 6008   0.838   1.311   3.952  0.1093  0.3190 -0.4019
 1503SOL     ow 6009   3.821   5.491   2.115 -0.1789  0.0202 -0.3467
 1503SOL     hw 6010   3.819   5.400   2.084  1.4833 -0.1421 -0.0894
 1503SOL     hw 6011   3.884   5.535   2.057  0.2739  0.5852  0.5401
 1503SOL     vw 6012   3.829   5.485   2.103  0.1000  0.0732 -0.1956
 1504SOL     ow 6013   2.641   0.087   6.371 -0.3847 -0.4180 -0.3966
 1504SOL     hw 6014   2.626   0.103   6.464  0.2540 -2.1111  0.0446
 1504SOL     hw 6015   2.718   0.140   6.350  0.5818 -1.3746  0.5430
 1504SOL     vw 6016   2.649   0.096   6.380 -0.1730 -0.7676 -0.2146
 1505SOL     ow 6017   5.198   1.153   3.014 -0.1672 -0.6742 -0.2066
 1505SOL     hw 6018   5.199   1.180   3.106  1.6167 -1.1408 -0.0535
 1505SOL     hw 6019   5.125   1.091   3.009 -2.3962  1.7363  0.1015
 1505SOL     vw 6020   5.188   1.148   3.026 -0.2260 -0.4178 -0.1457
 1506SOL     ow 6021   4.467   4.588   5.261  0.3313  0.3097  0.0499
 1506SOL     hw 6022   4.377   4.557   5.274  0.3668 -0.5066 -1.4359
 1506SOL     hw 6023   4.504   4.529   5.195  1.2755  1.9093 -0.9258
 1506SOL     vw 6024   4.460   4.576   5.254  0.4606  0.4132 -0.2749
 1507SOL     ow 6025   4.430   1.316   5.345  0.3630 -0.2329  0.5098
 1507SOL     hw 6026   4.362   1.360   5.293  2.1002  3.0284  0.7437
 1507SOL     hw 6027   4.440   1.231   5.303 -3.0925 -0.4617 -0.1436
 1507SOL     vw 6028   4.422   1.311   5.332  0.1364  0.1671  0.4544
 1508SOL     ow 6029   6.951   5.268   5.611 -0.5938 -0.0408 -0.0506
 1508SOL     hw 6030   6.926   5.197   5.551  0.6402 -0.7600  0.2586
 1508SOL     hw 6031   6.926   5.348   5.564 -0.1691 -0.6096 -1.2981
 1508SOL     vw 6032   6.944   5.269   5.597 -0.3750 -0.2105 -0.1748
 1509SOL     ow 6033   5.635   1.252   2.801 -0.3833  0.2800 -0.4904
 1509SOL     hw 6034   5.668   1.209   2.880  0.2947  0.1638 -0.8330
 1509SOL     hw 6035   5.550   1.212   2.785  0.7703 -1.9066 -1.5456
 1509SOL     vw 6036   5.628   1.241   2.810 -0.1416 -0.0238 -0.6748
 1510SOL     ow 6037   4.078   4.449   2.543  0.2332  1.0421 -0.6692
 1510SOL     hw 6038   4.117   4.429   2.458  1.4331 -2.3565  0.5348
 1510SOL     hw 6039   4.145   4.498   2.590 -0.0167  1.9601 -1.2335
 1510SOL     vw 6040   4.092   4.453   2.538  0.3583  0.7148 -0.5847
 1511SOL     ow 6041   3.325   0.942   4.667  0.5244 -0.1816  0.3091
 1511SOL     hw 6042   3.259   1.008   4.687 -0.1411 -0.3866 -1.0515
 1511SOL     hw 6043   3.353   0.909   4.752  1.0206  1.9606  1.0488
 1511SOL     vw 6044   3.320   0.946   4.681  0.5021  0.0740  0.2272
 1512SOL     ow 6045   1.402   4.894   5.147  0.2281  0.1542 -0.2222
 1512SOL     hw 6046   1.388   4.973   5.199 -1.4723  0.3706 -0.9348
 1512SOL     hw 6047   1.351   4.826   5.193  1.8118 -0.6128  0.4846
 1512SOL     vw 6048   1.393   4.895   5.160  0.2128  0.0818 -0.2232
 1513SOL     ow 6049   0.172   2.825   3.257 -0.4003 -0.3755 -0.2900
 1513SOL     hw 6050   0.087   2.818   3.302 -0.8122  0.4583 -0.8912
 1513SOL     hw 6051   0.194   2.918   3.264  3.0593 -1.2181  4.4361
 1513SOL     vw 6052   0.164   2.837   3.264  0.0018 -0.3766  0.2543
 1514SOL     ow 6053   5.532   0.966   4.942  0.3988  0.2066 -0.1497
 1514SOL     hw 6054   5.494   0.886   4.979  0.5306 -0.3803 -1.2706
 1514SOL     hw 6055   5.626   0.958   4.960  0.2057  1.0840  1.5232
 1514SOL     vw 6056   5.540   0.955   4.949  0.3908  0.2449 -0.0770
 1515SOL     ow 6057   7.211   1.243   4.638 -0.4837 -0.2807 -0.1258
 1515SOL     hw 6058   7.125   1.227   4.677 -0.7373 -0.5222 -0.7724
 1515SOL     hw 6059   7.273   1.219   4.706 -0.9085 -1.1926 -0.0412
 1515SOL     vw 6060   7.208   1.238   4.652 -0.5732 -0.4328 -0.1998
 1516SOL     ow 6061   1.275   3.196   5.799  0.3440 -0.1885  0.0318
 1516SOL     hw 6062   1.284   3.100   5.797 -0.1559 -0.3359  2.1125
 1516SOL     hw 6063   1.246   3.219   5.711  0.7655 -1.9175 -0.6143
 1516SOL     vw 6064   1.272   3.186   5.787  0.3337 -0.4359  0.2213
 1517SOL     ow 6065   1.448   5.477   0.429  0.1315  0.0639 -0.4049
 1517SOL     hw 6066   1.499   5.480   0.509  2.0830  1.1103 -1.5998
 1517SOL     hw 6067   1.371   5.531   0.447 -0.2780 -1.0101  1.2370
 1517SOL     vw 6068   1.444   5.484   0.442  0.3349  0.0603 -0.3459
 1518SOL     ow 6069   3.594   5.870   0.684 -0.1631 -0.1557  0.0960
 1518SOL     hw 6070   3.510   5.835   0.713  1.0387 -2.5620  0.9222
 1518SOL     hw 6071   3.602   5.954   0.729 -2.1278  0.1471 -0.0552
 1518SOL     vw 6072   3.584   5.876   0.694 -0.2638 -0.4330  0.1850
 1519SOL     ow 6073   5.350   4.073   1.075  0.3523 -0.4380 -0.7434
 1519SOL     hw 6074   5.300   4.031   1.145 -1.6132  3.4079  0.4113
 1519SOL     hw 6075   5.441   4.056   1.098 -0.2143  0.4686  2.7087
 1519SOL     vw 6076   5.355   4.065   1.087  0.0181  0.1893 -0.1356
 1520SOL     ow 6077   0.850   6.263   5.151  0.2675  0.7851 -0.1810
 1520SOL     hw 6078   0.902   6.223   5.221 -1.3513 -0.8471  0.1751
 1520SOL     hw 6079   0.802   6.334   5.194 -0.3452  0.1006  0.3102
 1520SOL     vw 6080   0.850   6.267   5.166 -0.0269  0.4795 -0.0691
 1521SOL     ow 6081   2.945   1.536   3.604 -0.4576  0.7855 -0.3904
 1521SOL     hw 6082   3.001   1.458   3.607 -1.2507  0.1992 -0.5434
 1521SOL     hw 6083   2.984   1.591   3.535  0.4160  0.7778  0.0831
 1521SOL     vw 6084   2.957   1.533   3.595 -0.4469  0.7071 -0.3481
 1522SOL     ow 6085   4.050   5.550   6.700 -0.0025  0.2250  0.1269
 1522SOL     hw 6086   4.118   5.613   6.722 -0.4993  1.0742 -0.6579
 1522SOL     hw 6087   4.024   5.573   6.610  0.5013 -1.7507 -0.5709
 1522SOL     vw 6088   4.055   5.561   6.691 -0.0017  0.0768 -0.0687
 1523SOL     ow 6089   5.079   4.435   1.095  0.3749 -0.1141  0.8728
 1523SOL     hw 6090   5.062   4.403   1.184 -1.0356 -1.5884  0.1139
 1523SOL     hw 6091   5.003   4.488   1.074  1.1371  1.0060  0.8519
 1523SOL     vw 6092   5.067   4.438   1.104  0.2892 -0.1612  0.7699
 1524SOL     ow 6093   4.084   1.967   3.215  0.6118 -0.1832  0.6040
 1524SOL     hw 6094   4.089   2.061   3.198  1.5287 -0.2957  0.1988
 1524SOL     hw 6095   4.158   1.948   3.272  1.3500 -0.8994 -0.5380
 1524SOL     vw 6096   4.094   1.977   3.220  0.8302 -0.2925  0.3999
 1525SOL     ow 6097   1.485   1.156   4.188  0.5444 -0.8300 -0.2509
 1525SOL     hw 6098   1.564   1.110   4.160  1.2033 -0.5038  0.9693
 1525SOL     hw 6099   1.480   1.233   4.131  1.6791 -0.3332  0.2880
 1525SOL     vw 6100   1.495   1.160   4.177  0.7809 -0.7215 -0.0188
 1526SOL     ow 6101   3.197   6.846   7.079 -0.0178 -0.0776  0.2327
 1526SOL     hw 6102   3.205   6.920   7.019 -0.4002 -2.2842 -2.7759
 1526SOL     hw 6103   3.279   6.848   7.130  0.7111  1.4502 -0.9164
 1526SOL     vw 6104   3.209   6.856   7.078  0.0280 -0.1674 -0.3159
 1527SOL     ow 6105   2.261   0.284   6.018  0.6617  0.1780  0.1004
 1527SOL     hw 6106   2.206   0.210   5.995 -0.4515  0.7771  0.7628
 1527SOL     hw 6107   2.275   0.331   5.935 -0.3527  0.3702  0.0345
 1527SOL     vw 6108   2.256   0.281   6.004  0.3811  0.2824  0.1791
 1528SOL     ow 6109   0.910   1.506   2.252 -0.2489 -0.6120 -0.0559
 1528SOL     hw 6110   0.871   1.588   2.282  1.8829  0.4805 -0.0203
 1528SOL     hw 6111   0.967   1.532   2.179 -0.2120 -2.2188 -0.6474
 1528SOL     vw 6112   0.913   1.521   2.246  0.0373 -0.6798 -0.1293
 1529SOL     ow 6113   0.434   2.617   5.497 -0.0221 -0.0804  0.1532
 1529SOL     hw 6114   0.496   2.690   5.484 -1.2556  0.9156 -0.4114
 1529SOL     hw 6115   0.400   2.630   5.585  0.2206 -0.3362  0.2824
 1529SOL     vw 6116   0.438   2.629   5.507 -0.1528  0.0172  0.0956
 1530SOL     ow 6117   3.306   5.829   0.680 -0.5836  0.2710  0.0575
 1530SOL     hw 6118   3.217   5.802   0.704 -0.8543  1.6745  0.7511
 1530SOL     hw 6119   3.315   5.918   0.716  1.4618 -0.2263  0.9527
 1530SOL     vw 6120   3.296   5.837   0.688 -0.3494  0.3903  0.2671
 1531SOL     ow 6121   0.607   6.727   6.312  0.0215 -0.4594 -0.2379
 1531SOL     hw 6122   0.536   6.665   6.297 -0.0455 -0.7415  1.1352
 1531SOL     hw 6123   0.680   6.674   6.344  1.1003 -0.2626 -2.2127
 1531SOL     vw 6124   0.607   6.712   6.314  0.1550 -0.4706 -0.3173
 1532SOL     ow 6125   6.841   4.043   0.291 -0.3211 -0.2086 -0.3085
 1532SOL     hw 6126   6.879   3.998   0.367 -0.9225 -0.9414 -0.4317
 1532SOL     hw 6127   6.802   3.973   0.239 -1.3143  0.4607 -0.4901
 1532SOL     vw 6128   6.841   4.028   0.294 -0.5314 -0.2170 -0.3487
 1533SOL     ow 6129   5.319   4.556   1.058  0.0387  1.0763  0.4113
 1533SOL     hw 6130   5.235   4.518   1.085  1.1299  0.1430  2.8608
 1533SOL     hw 6131   5.380   4.482   1.061  1.3045  2.0899  0.5011
 1533SOL     vw 6132   5.316   4.541   1.062  0.3495  1.0870  0.7463
 1534SOL     ow 6133   1.393   6.240   4.659  0.2368 -0.3093 -0.1389
 1534SOL     hw 6134   1.340   6.162   4.646 -0.1653  0.0374 -0.6362
 1534SOL     hw 6135   1.483   6.208   4.664  0.0924 -0.7885 -0.5311
 1534SOL     vw 6136   1.398   6.226   4.658  0.1647 -0.3269 -0.2561
 1535SOL     ow 6137   0.437   0.977   0.405 -0.3645 -0.5734  0.4951
 1535SOL     hw 6138   0.443   0.998   0.312  0.8046 -1.0283  0.4419
 1535SOL     hw 6139   0.378   0.903   0.410  1.5212 -2.2234 -0.2211
 1535SOL     vw 6140   0.430   0.970   0.394  0.0385 -0.8511  0.3936
 1536SOL     ow 6141   5.115   3.176   5.725 -0.0868  0.1672 -0.1700
 1536SOL     hw 6142   5.080   3.125   5.799  0.4468  0.5422  0.3506
 1536SOL     hw 6143   5.171   3.242   5.766  0.9013 -0.1542 -0.9691
 1536SOL     vw 6144   5.117   3.178   5.740  0.1142  0.1743 -0.2069
 1537SOL     ow 6145   7.189   5.296   2.401  0.7530 -0.1856 -0.0877
 1537SOL     hw 6146   7.136   5.219   2.419  1.9147 -0.6434  1.5337
 1537SOL     hw 6147   7.154   5.364   2.459 -0.7454  0.8028 -2.0211
 1537SOL     vw 6148   7.177   5.295   2.411  0.7086 -0.1156 -0.1289
 1538SOL     ow 6149   2.377   3.762   2.220 -0.2487  0.0988  0.3378
 1538SOL     hw 6150   2.327   3.693   2.177  1.8479 -2.3078  1.4955
 1538SOL     hw 6151   2.311   3.826   2.248 -2.1592 -0.8105 -1.7864
 1538SOL     vw 6152   2.362   3.761   2.218 -0.2244 -0.3388  0.2103
 1539SOL     ow 6153   2.920   4.877   4.457  0.4249 -0.3761  0.5973
 1539SOL     hw 6154   2.875   4.953   4.493 -0.4019 -1.6524  2.3812
 1539SOL     hw 6155   2.854   4.830   4.407  1.3264  0.8507 -1.9385
 1539SOL     vw 6156   2.906   4.881   4.456  0.4348 -0.3824  0.4983
 1540SOL     ow 6157   4.696   5.169   3.745  0.1595  0.3618 -0.3403
 1540SOL     hw 6158   4.776   5.121   3.766  0.2721  0.2902 -0.9073
 1540SOL     hw 6159   4.726   5.256   3.720 -0.1175  1.0928  1.6954
 1540SOL     vw 6160   4.711   5.174   3.744  0.1378  0.4487 -0.1465
 1541SOL     ow 6161   1.735   1.363   0.722 -0.0446  0.7696  0.0302
 1541SOL     hw 6162   1.701   1.317   0.645  0.0639  1.6897 -0.5797
 1541SOL     hw 6163   1.765   1.293   0.781 -0.0957  0.0599 -0.7716
 1541SOL     vw 6164   1.734   1.348   0.720 -0.0370  0.7973 -0.1560
 1542SOL     ow 6165   2.373   5.788   2.849  0.0097 -0.6617 -0.1671
 1542SOL     hw 6166   2.310   5.766   2.781  0.7642 -2.2121 -0.4143
 1542SOL     hw 6167   2.320   5.820   2.922 -0.8309  0.6527 -1.3149
 1542SOL     vw 6168   2.358   5.789   2.850 -0.0015 -0.6928 -0.3512
 1543SOL     ow 6169   4.720   1.955   2.959  0.2052  0.0475 -0.0086
 1543SOL     hw 6170   4.743   1.966   3.051  1.0861 -1.2905 -0.0530
 1543SOL     hw 6171   4.778   2.014   2.912  0.0119  0.4531  0.2548
 1543SOL     vw 6172   4.731   1.964   2.965  0.2959 -0.0756  0.0203
 1544SOL     ow 6173   5.997   2.589   0.380 -0.3579  0.2669  0.7955
 1544SOL     hw 6174   5.953   2.515   0.422  1.3489 -0.9341  0.5759
 1544SOL     hw 6175   5.943   2.608   0.303 -2.0931  0.8131  2.0794
 1544SOL     vw 6176   5.984   2.582   0.375 -0.3619  0.1807  0.9360
 1545SOL     ow 6177   4.853   3.927   2.411  0.4080  0.0102 -0.2433
 1545SOL     hw 6178   4.885   3.839   2.389  0.0959  0.0923 -1.0607
 1545SOL     hw 6179   4.929   3.984   2.397  1.3587 -0.3899  2.6379
 1545SOL     vw 6180   4.867   3.923   2.406  0.4923 -0.0317  0.0290
 1546SOL     ow 6181   3.444   4.226   2.544  0.1774 -1.1915 -0.0096
 1546SOL     hw 6182   3.393   4.180   2.611 -0.5585 -2.2619 -1.2448
 1546SOL     hw 6183   3.386   4.296   2.514  1.3373  0.7126  1.9429
 1546SOL     vw 6184   3.429   4.229   2.549  0.2332 -1.0812  0.0851
 1547SOL     ow 6185   2.960   5.676   6.219 -0.1126  0.6458  0.4910
 1547SOL     hw 6186   2.975   5.676   6.313 -3.5499 -4.0549  1.3785
 1547SOL     hw 6187   2.890   5.739   6.204 -0.9571 -0.0265  1.5084
 1547SOL     vw 6188   2.953   5.684   6.229 -0.6776 -0.0629  0.7422
 1548SOL     ow 6189   6.410   6.146   1.126  0.2811 -0.5769 -0.2608
 1548SOL     hw 6190   6.478   6.114   1.186 -0.9169 -2.3487  0.2180
 1548SOL     hw 6191   6.399   6.075   1.063 -2.4593 -1.2184  0.8256
 1548SOL     vw 6192   6.418   6.133   1.126 -0.2384 -0.8953 -0.0542
 1549SOL     ow 6193   6.017   1.217   1.489 -0.2657  0.2387  1.0178
 1549SOL     hw 6194   6.017   1.215   1.393 -0.9045 -0.2819  1.0219
 1549SOL     hw 6195   6.002   1.309   1.511  1.5408  0.6658  0.6368
 1549SOL     vw 6196   6.015   1.229   1.479 -0.1116  0.2263  0.9680
 1550SOL     ow 6197   1.213   7.061   3.829 -0.1092 -0.4855  0.0989
 1550SOL     hw 6198   1.254   6.974   3.834 -1.0817 -0.9941 -0.5514
 1550SOL     hw 6199   1.147   7.053   3.760 -1.1126  0.3967  0.9154
 1550SOL     vw 6200   1.210   7.048   3.820 -0.3699 -0.4363  0.1208
 1551SOL     ow 6201   2.916   4.573   2.448 -0.5297 -0.4671 -0.8439
 1551SOL     hw 6202   2.964   4.632   2.389  0.2123 -1.1798 -0.9728
 1551SOL     hw 6203   2.983   4.533   2.502 -1.1466 -0.3195  0.0496
 1551SOL     vw 6204   2.931   4.575   2.447 -0.5133 -0.5417 -0.7429
 1552SOL     ow 6205   7.137   2.929   5.037 -0.4151  0.1368  0.3789
 1552SOL     hw 6206   7.051   2.935   5.080 -0.2119  0.9445  0.6909
 1552SOL     hw 6207   7.136   2.844   4.993 -0.5432 -0.8443  2.1744
 1552SOL     vw 6208   7.125   2.919   5.037 -0.4055  0.1138  0.6571
 1553SOL     ow 6209   2.944   4.882   5.587  0.3824  0.2609  0.8166
 1553SOL     hw 6210   3.023   4.877   5.641  0.5917 -2.1382  0.3767
 1553SOL     hw 6211   2.872   4.876   5.650  0.5750  0.3543  1.0484
 1553SOL     vw 6212   2.945   4.881   5.603  0.4354 -0.0434  0.7894
 1554SOL     ow 6213   0.253   0.269   1.870  0.5131  0.1625  0.1183
 1554SOL     hw 6214   0.319   0.277   1.801  0.3030 -0.0041 -0.1041
 1554SOL     hw 6215   0.282   0.330   1.938  0.9118  0.0685  0.0356
 1554SOL     vw 6216   0.265   0.278   1.870  0.5380  0.1281  0.0780
 1555SOL     ow 6217   6.558   2.684   1.455  0.7183  0.1177  0.8675
 1555SOL     hw 6218   6.507   2.617   1.411  1.1956  0.9317 -1.0235
 1555SOL     hw 6219   6.649   2.658   1.441  0.9000  0.9562  0.4063
 1555SOL     vw 6220   6.564   2.672   1.447  0.8054  0.3358  0.5571
 1556SOL     ow 6221   6.978   6.175   4.902 -0.0838  0.2279  0.1647
 1556SOL     hw 6222   7.037   6.100   4.909 -0.7473 -0.3119  0.0453
 1556SOL     hw 6223   6.967   6.188   4.807 -0.2654  0.2488  0.1895
 1556SOL     vw 6224   6.985   6.167   4.890 -0.1953  0.1597  0.1523
 1557SOL     ow 6225   1.179   5.775   1.046  0.5549  0.3791  0.2577
 1557SOL     hw 6226   1.134   5.690   1.045  0.5398  0.3694  1.2508
 1557SOL     hw 6227   1.127   5.829   1.106  0.9904  0.8563  0.2098
 1557SOL     vw 6228   1.166   5.771   1.054  0.6104  0.4408  0.3825
 1558SOL     ow 6229   2.068   2.986   5.624  0.4522  0.4886 -0.3062
 1558SOL     hw 6230   2.113   3.061   5.584  1.1786  0.1060 -0.2227
 1558SOL     hw 6231   2.127   2.957   5.694  0.3223 -0.3501 -0.5329
 1558SOL     vw 6232   2.082   2.992   5.628  0.5308  0.3275 -0.3254
 1559SOL     ow 6233   4.863   6.479   4.829 -0.3215 -0.6002  0.0772
 1559SOL     hw 6234   4.921   6.515   4.762 -1.8063  0.9459 -0.4409
 1559SOL     hw 6235   4.843   6.390   4.798 -0.3185 -0.2054 -1.0762
 1559SOL     vw 6236   4.868   6.472   4.816 -0.5169 -0.3440 -0.1433
 1560SOL     ow 6237   0.083   1.744   4.535 -0.7597  0.0722 -0.0047
 1560SOL     hw 6238   0.171   1.720   4.507 -1.4345 -0.7635 -1.5654
 1560SOL     hw 6239   0.050   1.666   4.580 -0.5717  0.5345  0.9616
 1560SOL     vw 6240   0.090   1.730   4.537 -0.8239  0.0228 -0.0834
 1561SOL     ow 6241   0.199   6.335   0.133  0.5637 -0.7336 -0.2769
 1561SOL     hw 6242   0.152   6.334   0.217  0.6929 -0.3583 -0.1970
 1561SOL     hw 6243   0.131   6.352   0.068  0.5808 -0.2223 -0.1641
 1561SOL     vw 6244   0.184   6.337   0.136  0.5830 -0.6166 -0.2515
 1562SOL     ow 6245   4.684   1.747   1.891 -0.2969 -0.0980 -0.0199
 1562SOL     hw 6246   4.772   1.711   1.902  0.1734  0.2911 -2.0643
 1562SOL     hw 6247   4.688   1.834   1.930 -0.1263 -0.5193  0.9221
 1562SOL     vw 6248   4.696   1.753   1.898 -0.2124 -0.1023 -0.1653
 1563SOL     ow 6249   1.844   5.309   7.107 -0.2431 -0.1129 -0.3268
 1563SOL     hw 6250   1.845   5.218   7.080 -1.2078 -0.0845 -0.4728
 1563SOL     hw 6251   1.836   5.358   7.025  1.2916  0.1598 -0.3445
 1563SOL     vw 6252   1.843   5.304   7.093 -0.1679 -0.0732 -0.3486
 1564SOL     ow 6253   4.054   6.692   3.214 -0.3006  0.2097  0.3674
 1564SOL     hw 6254   4.134   6.639   3.204 -0.4778 -0.0922  0.5383
 1564SOL     hw 6255   4.019   6.699   3.125 -0.1856  0.1831  0.3188
 1564SOL     vw 6256   4.060   6.686   3.201 -0.3090  0.1662  0.3835
 1565SOL     ow 6257   3.455   6.406   2.600 -0.3458 -0.3425  0.2618
 1565SOL     hw 6258   3.432   6.474   2.536  2.8350 -2.0112 -3.0259
 1565SOL     hw 6259   3.392   6.335   2.583  0.9057 -1.0556 -1.6826
 1565SOL     vw 6260   3.443   6.405   2.589  0.2390 -0.6566 -0.4284
 1566SOL     ow 6261   2.754   0.784   1.579  0.4896  0.1038 -0.8138
 1566SOL     hw 6262   2.839   0.764   1.619 -0.3883 -0.8756  0.6560
 1566SOL     hw 6263   2.699   0.811   1.652 -0.9213 -0.8074 -1.4925
 1566SOL     vw 6264   2.758   0.785   1.594  0.1876 -0.1456 -0.7094
 1567SOL     ow 6265   4.642   6.747   3.302 -0.5025  0.5844  0.1289
 1567SOL     hw 6266   4.640   6.741   3.398 -0.0082  0.5845  0.1408
 1567SOL     hw 6267   4.644   6.841   3.284 -0.7144  0.5860  0.1161
 1567SOL     vw 6268   4.642   6.759   3.312 -0.4656  0.5846  0.1287
 1568SOL     ow 6269   2.494   3.122   5.459 -0.3598  0.3660  0.3768
 1568SOL     hw 6270   2.548   3.123   5.380 -1.3831  2.3179 -0.3819
 1568SOL     hw 6271   2.537   3.060   5.517  1.5726  0.3847 -0.9346
 1568SOL     vw 6272   2.507   3.114   5.456 -0.2398  0.6260  0.1035
 1569SOL     ow 6273   4.417   1.186   6.513 -0.3736 -0.1962 -0.3149
 1569SOL     hw 6274   4.448   1.221   6.430  0.4695 -0.2273 -0.0295
 1569SOL     hw 6275   4.334   1.144   6.493 -0.8324  0.9412 -0.8869
 1569SOL     vw 6276   4.410   1.185   6.500 -0.3228 -0.0502 -0.3526
 1570SOL     ow 6277   5.750   5.998   4.795  0.7362  0.0881  0.5313
 1570SOL     hw 6278   5.791   5.948   4.865  0.2315 -0.5833  0.3659
 1570SOL     hw 6279   5.663   6.021   4.829 -0.4135 -2.1508 -0.6221
 1570SOL     vw 6280   5.744   5.994   4.809  0.5178 -0.2959  0.3572
 1571SOL     ow 6281   3.728   5.854   1.171 -0.4545  0.1267 -0.3745
 1571SOL     hw 6282   3.689   5.930   1.128 -0.4871  0.5026  0.2995
 1571SOL     hw 6283   3.655   5.811   1.215 -0.3075  0.1739 -0.0781
 1571SOL     vw 6284   3.713   5.858   1.171 -0.4393  0.1826 -0.2465
 1572SOL     ow 6285   1.964   5.524   5.685  0.3177  0.4821  0.1218
 1572SOL     hw 6286   1.924   5.494   5.767  0.9038 -0.4968  0.0628
 1572SOL     hw 6287   2.050   5.555   5.710  1.1701 -1.3687 -0.3092
 1572SOL     vw 6288   1.970   5.524   5.699  0.5075  0.1087  0.0570
 1573SOL     ow 6289   1.683   5.809   2.909  0.2302 -0.1044 -0.2680
 1573SOL     hw 6290   1.659   5.843   2.823 -0.2290  0.6137  0.1306
 1573SOL     hw 6291   1.632   5.728   2.918 -1.9462  1.2334  0.4360
 1573SOL     vw 6292   1.673   5.803   2.899 -0.1175  0.1667 -0.1224
 1574SOL     ow 6293   6.969   1.203   4.770 -0.0973  0.3029 -0.7213
 1574SOL     hw 6294   6.882   1.234   4.795 -1.7007 -2.3139 -2.5734
 1574SOL     hw 6295   6.981   1.122   4.820  1.3751  0.6608 -0.4324
 1574SOL     vw 6296   6.959   1.197   4.780 -0.1147  0.0048 -0.9277
 1575SOL     ow 6297   1.154   1.916   5.620  0.1798 -0.0086 -0.2552
 1575SOL     hw 6298   1.150   1.920   5.715  0.6192  2.6764 -0.2592
 1575SOL     hw 6299   1.097   1.843   5.596 -0.5959 -0.2280  2.0246
 1575SOL     vw 6300   1.146   1.907   5.629  0.1354  0.3167  0.0451
 1576SOL     ow 6301   6.827   3.560   4.116 -0.0313  0.1419 -0.5550
 1576SOL     hw 6302   6.796   3.629   4.056 -1.5234 -0.8046 -0.9330
 1576SOL     hw 6303   6.760   3.557   4.184  1.0727  0.4213  0.5575
 1576SOL     vw 6304   6.814   3.569   4.117 -0.0825  0.0539 -0.4580
 1577SOL     ow 6305   1.526   2.124   1.225  0.2274  0.1195 -0.7166
 1577SOL     hw 6306   1.588   2.170   1.169 -0.5825  0.0917 -1.6565
 1577SOL     hw 6307   1.494   2.052   1.171  0.6861 -0.9302  0.3711
 1577SOL     vw 6308   1.530   2.121   1.210  0.1811 -0.0225 -0.6971
 1578SOL     ow 6309   4.447   2.052   2.988 -0.4426  0.1524 -0.1941
 1578SOL     hw 6310   4.526   2.094   3.023  0.9451 -1.7875 -0.8684
 1578SOL     hw 6311   4.479   1.991   2.922 -2.5869 -0.2371 -0.9658
 1578SOL     vw 6312   4.461   2.050   2.984 -0.5426 -0.1550 -0.3849
 1579SOL     ow 6313   1.295   6.592   0.046  0.6012  0.1045  0.7285
 1579SOL     hw 6314   1.356   6.611  -0.025  0.3562 -2.2690 -0.2047
 1579SOL     hw 6315   1.227   6.538   0.005 -0.3573 -0.0608  2.4548
 1579SOL     vw 6316   1.294   6.587   0.031  0.4424 -0.2306  0.8332
 1580SOL     ow 6317   4.031   5.698   6.027  0.5710  0.3928 -0.8318
 1580SOL     hw 6318   4.091   5.770   6.046 -0.0419  1.0267 -1.2719
 1580SOL     hw 6319   3.950   5.741   5.999 -1.2821 -0.2788  2.8398
 1580SOL     vw 6320   4.028   5.713   6.026  0.2458  0.3879 -0.4055
 1581SOL     ow 6321   6.338   2.480   4.747  0.4532 -0.0390 -0.0481
 1581SOL     hw 6322   6.282   2.403   4.738  1.4728 -0.7848 -0.1651
 1581SOL     hw 6323   6.311   2.538   4.676 -1.0305  0.1836  0.6600
 1581SOL     vw 6324   6.327   2.477   4.737  0.3922 -0.1080  0.0298
 1582SOL     ow 6325   3.393   3.796   0.625  0.3601  0.1110  0.0327
 1582SOL     hw 6326   3.300   3.780   0.639  0.6440 -0.1135  1.9708
 1582SOL     hw 6327   3.437   3.742   0.691  1.8513  0.4362 -0.6477
 1582SOL     vw 6328   3.387   3.787   0.636  0.5944  0.1242  0.1986
 1583SOL     ow 6329   0.350   2.961   3.901 -0.1839  0.2865 -0.0550
 1583SOL     hw 6330   0.378   2.875   3.869  1.7161  1.5293 -1.9615
 1583SOL     hw 6331   0.398   2.972   3.984  0.3275 -0.0840 -0.2948
 1583SOL     vw 6332   0.360   2.951   3.908  0.1343  0.4016 -0.3382
 1584SOL     ow 6333   5.860   7.054   7.155  0.3578  0.1046  0.0241
 1584SOL     hw 6334   5.827   7.130   7.203  1.3195  0.1002  0.7009
 1584SOL     hw 6335   5.802   6.983   7.180 -1.8448  0.9666 -2.1528
 1584SOL     vw 6336   5.848   7.055   7.165  0.1941  0.2177 -0.1738
 1585SOL     ow 6337   5.626   0.725   2.116  0.4710  0.1480 -0.2002
 1585SOL     hw 6338   5.578   0.656   2.162  3.2417  0.4783  3.6721
 1585SOL     hw 6339   5.691   0.679   2.063  0.1319 -0.2323 -0.2868
 1585SOL     vw 6340   5.628   0.710   2.115  0.7918  0.1414  0.2993
 1586SOL     ow 6341   6.446   1.857   4.687 -0.8869  0.3773 -0.0215
 1586SOL     hw 6342   6.485   1.775   4.717  0.3342  0.0484 -2.2979
 1586SOL     hw 6343   6.425   1.904   4.768 -1.8427 -2.2225  1.3831
 1586SOL     vw 6344   6.448   1.852   4.702 -0.8519 -0.0091 -0.1366
 1587SOL     ow 6345   0.121   4.908   0.399  0.1014  0.1312  0.6783
 1587SOL     hw 6346   0.092   4.936   0.312 -0.4901  1.8218  1.3680
 1587SOL     hw 6347   0.192   4.846   0.382 -0.2783  0.1068 -1.0018
 1587SOL     vw 6348   0.127   4.904   0.385 -0.0268  0.3510  0.5476
 1588SOL     ow 6349   3.975   2.376   6.996  0.0941 -0.0029  0.1520
 1588SOL     hw 6350   4.008   2.459   6.963  0.8641 -1.1491 -2.2244
 1588SOL     hw 6351   3.905   2.400   7.057 -0.0279  2.3743 -0.8222
 1588SOL     vw 6352   3.970   2.390   7.000  0.1795  0.1596 -0.2902
 1589SOL     ow 6353   6.863   4.351   0.245  0.7425  0.4130  0.2567
 1589SOL     hw 6354   6.841   4.391   0.161  0.1765  1.2096  0.7695
 1589SOL     hw 6355   6.951   4.317   0.233  2.0034  3.3196  0.2734
 1589SOL     vw 6356   6.871   4.352   0.233  0.8342  0.9015  0.3265
 1590SOL     ow 6357   4.850   5.303   4.094 -0.0360 -0.3080  0.4180
 1590SOL     hw 6358   4.926   5.247   4.079  1.2603  2.0174 -2.6369
 1590SOL     hw 6359   4.868   5.346   4.177  0.5687 -1.8301  1.1183
 1590SOL     vw 6360   4.862   5.301   4.103  0.2146 -0.2019  0.1078
 1591SOL     ow 6361   6.485   2.301   4.959 -0.1027 -0.3967 -0.1465
 1591SOL     hw 6362   6.418   2.233   4.952  0.2231 -0.6762 -0.6670
 1591SOL     hw 6363   6.552   2.263   5.016  0.4454 -0.8358 -1.0569
 1591SOL     vw 6364   6.485   2.287   4.965  0.0124 -0.4915 -0.3355
 1592SOL     ow 6365   4.377   2.985   0.031 -0.1272 -0.1655 -0.0980
 1592SOL     hw 6366   4.326   3.064   0.017 -2.1145 -1.3800 -0.0938
 1592SOL     hw 6367   4.463   3.016   0.058 -0.1482  2.0013 -2.2517
 1592SOL     vw 6368   4.382   2.999   0.033 -0.3922 -0.0401 -0.3816
 1593SOL     ow 6369   2.193   2.934   3.744 -0.6179 -0.2371 -0.0287
 1593SOL     hw 6370   2.268   2.942   3.685 -0.8418  0.6056 -0.2217
 1593SOL     hw 6371   2.118   2.923   3.686 -1.3093  3.7866 -0.2239
 1593SOL     vw 6372   2.193   2.934   3.729 -0.7387  0.4050 -0.0799
 1594SOL     ow 6373   3.671   1.753   7.184 -0.4173  0.2318  0.0420
 1594SOL     hw 6374   3.666   1.724   7.275  0.8075  0.9711  0.3741
 1594SOL     hw 6375   3.734   1.826   7.185 -2.0833  1.7678 -1.0253
 1594SOL     vw 6376   3.679   1.759   7.196 -0.4754  0.5320 -0.0551
 1595SOL     ow 6377   4.452   1.983   0.798  0.2865 -0.1451 -0.1244
 1595SOL     hw 6378   4.359   1.989   0.778  0.0795  2.2556  1.1910
 1595SOL     hw 6379   4.457   1.916   0.866 -0.7613  0.9018  1.0334
 1595SOL     vw 6380   4.440   1.975   0.805  0.1209  0.3098  0.2019
 1596SOL     ow 6381   0.408   4.930   5.099  0.1135 -0.0815  0.1575
 1596SOL     hw 6382   0.375   4.947   5.188  1.3276 -1.8552  1.0217
 1596SOL     hw 6383   0.492   4.975   5.095  1.1045 -1.7512  0.7696
 1596SOL     vw 6384   0.415   4.938   5.110  0.4044 -0.5362  0.3524
 1597SOL     ow 6385   4.832   7.057   0.399 -0.1163 -0.1711  0.1685
 1597SOL     hw 6386   4.889   7.056   0.476  0.7694  1.1025 -0.4218
 1597SOL     hw 6387   4.805   6.966   0.387  0.8458 -0.6080  1.1571
 1597SOL     vw 6388   4.836   7.045   0.408  0.1276 -0.0608  0.2210
 1598SOL     ow 6389   5.686   4.233   2.204 -0.4021 -0.3754 -0.0034
 1598SOL     hw 6390   5.613   4.173   2.185 -0.4291 -0.4092  0.2066
 1598SOL     hw 6391   5.644   4.313   2.235 -0.3439 -0.4370  0.2324
 1598SOL     vw 6392   5.671   4.236   2.205 -0.3979 -0.3881  0.0554
 1599SOL     ow 6393   5.035   1.753   2.758  0.2790  1.2871  0.2036
 1599SOL     hw 6394   5.085   1.770   2.679 -0.1067 -1.1176 -0.6435
 1599SOL     hw 6395   5.096   1.707   2.816 -0.9044 -2.1576 -1.0489
 1599SOL     vw 6396   5.050   1.749   2.755  0.0722  0.5153 -0.0734
 1600SOL     ow 6397   2.386   0.263   3.290 -0.3621  0.3090 -0.0865
 1600SOL     hw 6398   2.292   0.247   3.300  0.1578 -4.0800 -0.1790
 1600SOL     hw 6399   2.427   0.181   3.319  3.5153  2.2637  0.5665
 1600SOL     vw 6400   2.379   0.250   3.295  0.2179 -0.0122 -0.0126
 1601SOL     ow 6401   4.540   3.269   4.996 -0.0705 -0.0455  0.7257
 1601SOL     hw 6402   4.619   3.274   5.049 -0.0769  0.5481  0.6839
 1601SOL     hw 6403   4.476   3.224   5.052  0.0014  0.3378  1.1158
 1601SOL     vw 6404   4.542   3.263   5.010 -0.0622  0.0834  0.7715
 1602SOL     ow 6405   5.804   1.229   1.996 -0.4913  0.1240 -0.3195
 1602SOL     hw 6406   5.852   1.202   1.918 -2.9623 -1.2181 -1.5105
 1602SOL     hw 6407   5.838   1.316   2.017  1.1499 -0.0184 -2.1132
 1602SOL     vw 6408   5.815   1.237   1.989 -0.6006 -0.0719 -0.7133
 1603SOL     ow 6409   4.780   4.595   5.714  0.1329  0.1699 -0.6294
 1603SOL     hw 6410   4.704   4.648   5.687 -0.1016  1.1430  1.6885
 1603SOL     hw 6411   4.771   4.514   5.665 -1.6338  0.8199 -1.4742
 1603SOL     vw 6412   4.769   4.591   5.704 -0.1311  0.3841 -0.4354
 1604SOL     ow 6413   4.563   3.519   4.874 -0.1808  0.4388  0.9457
 1604SOL     hw 6414   4.553   3.434   4.916 -0.6188  0.0265  0.0290
 1604SOL     hw 6415   4.489   3.571   4.906  0.9222  1.0069  2.6991
 1604SOL     vw 6416   4.552   3.515   4.884 -0.0927  0.4593  1.0560
 1605SOL     ow 6417   2.383   4.524   4.099 -0.5582  0.1778 -0.0021
 1605SOL     hw 6418   2.364   4.430   4.098 -1.0482  0.2760 -0.9762
 1605SOL     hw 6419   2.297   4.565   4.112 -0.5315  0.5256 -0.8628
 1605SOL     vw 6420   2.369   4.517   4.101 -0.6193  0.2367 -0.2444
 1606SOL     ow 6421   3.240   6.320   5.617  0.3797  0.0123 -0.3515
 1606SOL     hw 6422   3.163   6.298   5.670  0.6429  1.6485  0.7728
 1606SOL     hw 6423   3.312   6.276   5.662  0.4356  0.4456 -0.0123
 1606SOL     vw 6424   3.239   6.311   5.630  0.4218  0.2854 -0.1583
 1607SOL     ow 6425   6.361   1.598   4.345  0.2375  0.1110  0.2468
 1607SOL     hw 6426   6.328   1.508   4.346  1.3108 -0.2935  1.2578
 1607SOL     hw 6427   6.455   1.589   4.360  0.3820  1.3959  0.1968
 1607SOL     vw 6428   6.369   1.585   4.347  0.3984  0.2272  0.3738
 1608SOL     ow 6429   0.624   5.558   4.604 -0.0181  0.0998  0.5000
 1608SOL     hw 6430   0.542   5.522   4.640  0.1317 -0.7527  0.0054
 1608SOL     hw 6431   0.685   5.554   4.678  0.0656 -0.9066  0.3972
 1608SOL     vw 6432   0.621   5.553   4.619  0.0127 -0.1454  0.4210
 1609SOL     ow 6433   3.120   6.279   6.839 -0.2504  0.5146 -0.1230
 1609SOL     hw 6434   3.104   6.325   6.757 -2.5606  2.1466  1.1082
 1609SOL     hw 6435   3.037   6.234   6.858  0.1323  0.3920  1.4225
 1609SOL     vw 6436   3.107   6.279   6.831 -0.5046  0.7138  0.2434
 1610SOL     ow 6437   0.436   0.362   5.719  0.2275  0.5913  0.0187
 1610SOL     hw 6438   0.526   0.388   5.697  0.8350 -2.0303 -0.9572
 1610SOL     hw 6439   0.430   0.375   5.814  1.4725  1.2668  0.0288
 1610SOL     vw 6440   0.447   0.367   5.729  0.4719  0.3346 -0.1090
 1611SOL     ow 6441   5.564   0.715   6.590 -0.1713  0.7371  0.1144
 1611SOL     hw 6442   5.564   0.634   6.642  2.0962 -0.3135 -1.3590
 1611SOL     hw 6443   5.643   0.761   6.617 -0.8017  1.9083  0.0498
 1611SOL     vw 6444   5.574   0.710   6.601  0.0443  0.7530 -0.0885
 1612SOL     ow 6445   5.508   0.524   0.612  0.2717 -0.4352  0.1176
 1612SOL     hw 6446   5.474   0.487   0.694  1.1324 -1.4505  0.0373
 1612SOL     hw 6447   5.549   0.450   0.568 -1.1719 -0.1722 -1.7952
 1612SOL     vw 6448   5.509   0.510   0.617  0.1950 -0.5344 -0.1453
 1613SOL     ow 6449   3.992   2.207   7.238 -0.3719  0.6584 -0.0349
 1613SOL     hw 6450   4.031   2.190   7.324  1.9203  2.4625 -0.6058
 1613SOL     hw 6451   3.947   2.290   7.247  1.1683  1.6479 -0.8606
 1613SOL     vw 6452   3.991   2.215   7.250  0.1338  1.0270 -0.2191
 1614SOL     ow 6453   5.315   5.216   4.429  0.2706 -0.7218 -0.2899
 1614SOL     hw 6454   5.243   5.154   4.420  0.5890 -1.3996  1.4468
 1614SOL     hw 6455   5.391   5.171   4.393 -0.0732 -0.1239 -1.8401
 1614SOL     vw 6456   5.316   5.202   4.423  0.2673 -0.7322 -0.2654
 1615SOL     ow 6457   1.632   2.874   4.536  0.2359  0.1905  0.1337
 1615SOL     hw 6458   1.711   2.833   4.569 -0.6634 -1.4924  0.3251
 1615SOL     hw 6459   1.660   2.923   4.458  1.2279 -1.6620 -0.7220
 1615SOL     vw 6460   1.646   2.875   4.530  0.2481 -0.2759  0.0463
 1616SOL     ow 6461   5.014   5.989   1.164  0.0154  0.2937  0.5471
 1616SOL     hw 6462   4.936   5.998   1.219 -0.4439  1.0422 -0.2014
 1616SOL     hw 6463   5.087   5.981   1.227 -0.6213 -0.0694  1.2496
 1616SOL     vw 6464   5.014   5.989   1.180 -0.1292  0.3443  0.5411
 1617SOL     ow 6465   2.098   5.160   6.996 -0.2463  0.6924 -0.5946
 1617SOL     hw 6466   2.178   5.200   6.962 -0.5222  1.5415 -0.2625
 1617SOL     hw 6467   2.043   5.146   6.919 -0.5832  1.9563 -0.6002
 1617SOL     vw 6468   2.101   5.163   6.981 -0.3272  0.9708 -0.5517
 1618SOL     ow 6469   0.107   3.427   6.873 -0.1757  0.3457  0.2430
 1618SOL     hw 6470   0.012   3.420   6.882  0.0848 -2.3117  1.7274
 1618SOL     hw 6471   0.134   3.480   6.948 -0.1819 -2.6465  2.5422
 1618SOL     vw 6472   0.098   3.433   6.884 -0.1421 -0.3996  0.7422
 1619SOL     ow 6473   1.949   2.974   2.792  0.1389 -0.4657 -0.0624
 1619SOL     hw 6474   1.924   2.964   2.701  1.7536 -0.6067 -0.5235
 1619SOL     hw 6475   1.979   2.887   2.818  1.0272 -0.1057  0.1556
 1619SOL     vw 6476   1.950   2.961   2.784  0.4691 -0.4367 -0.0944
 1620SOL     ow 6477   3.682   3.902   4.007 -0.2567 -0.5011 -0.2753
 1620SOL     hw 6478   3.669   3.945   4.091  2.1205  0.9373 -0.5505
 1620SOL     hw 6479   3.667   3.970   3.942 -0.4095 -1.1504 -0.9292
 1620SOL     vw 6480   3.678   3.916   4.009  0.0368 -0.3970 -0.3977
 1621SOL     ow 6481   5.512   2.825   2.976 -0.5582  0.5750  0.5090
 1621SOL     hw 6482   5.510   2.913   2.939 -0.8146 -0.0996 -1.1616
 1621SOL     hw 6483   5.454   2.774   2.920  0.0770 -0.8002  1.0630
 1621SOL     vw 6484   5.504   2.830   2.964 -0.5081  0.3046  0.3616
 1622SOL     ow 6485   4.432   4.565   4.633 -0.2160  0.0133  0.5246
 1622SOL     hw 6486   4.348   4.573   4.586 -0.9726 -0.1063  1.8179
 1622SOL     hw 6487   4.458   4.656   4.649  0.4389  0.0793 -0.7510
 1622SOL     vw 6488   4.424   4.578   4.629 -0.2294  0.0060  0.5269
 1623SOL     ow 6489   2.051   6.968   2.026  0.1410 -0.0236  0.1245
 1623SOL     hw 6490   1.957   6.978   2.009  0.4055 -0.1398 -1.6042
 1623SOL     hw 6491   2.071   6.878   1.999  1.2933  0.9580 -2.6368
 1623SOL     vw 6492   2.041   6.958   2.020  0.3278  0.0906 -0.4679
 1624SOL     ow 6493   5.549   6.512   3.883 -0.3942  0.3892  0.1681
 1624SOL     hw 6494   5.501   6.545   3.807  1.0424 -1.6773 -1.7549
 1624SOL     hw 6495   5.500   6.545   3.958 -3.0061  0.9054 -1.6317
 1624SOL     vw 6496   5.536   6.521   3.883 -0.5491  0.1843 -0.3231
 1625SOL     ow 6497   1.616   0.535   0.412  0.2791  0.2963  0.4484
 1625SOL     hw 6498   1.705   0.507   0.437 -0.0942  0.3154  1.8816
 1625SOL     hw 6499   1.627   0.576   0.326  1.7516  0.7939  0.8481
 1625SOL     vw 6500   1.629   0.536   0.404  0.4241  0.3645  0.6902
 1626SOL     ow 6501   0.358   6.587   0.196  0.2218 -0.3277  0.1902
 1626SOL     hw 6502   0.297   6.545   0.136  1.5139  0.8561 -2.0654
 1626SOL     hw 6503   0.333   6.679   0.196  0.7597 -0.1719  0.8480
 1626SOL     vw 6504   0.347   6.593   0.188  0.4633 -0.1507 -0.0206
 1627SOL     ow 6505   1.124   7.094   4.091  0.3519 -0.2109 -0.0391
 1627SOL     hw 6506   1.034   7.120   4.071  1.0058  0.2825 -2.7438
 1627SOL     hw 6507   1.120   6.999   4.102 -0.7310 -0.0174  1.7837
 1627SOL     vw 6508   1.111   7.085   4.090  0.2952 -0.1204 -0.1554
 1628SOL     ow 6509   6.709   6.340   4.968 -0.0045  0.3515 -0.1110
 1628SOL     hw 6510   6.658   6.369   5.044 -2.8014 -0.5652 -1.5096
 1628SOL     hw 6511   6.704   6.414   4.907 -0.4546 -0.0772 -0.6021
 1628SOL     vw 6512   6.702   6.354   4.970 -0.4330  0.1740 -0.3605
 1629SOL     ow 6513   0.167   3.606   7.062  0.3367  0.6443 -0.2180
 1629SOL     hw 6514   0.117   3.575   7.137  1.2949 -1.0089 -0.1976
 1629SOL     hw 6515   0.254   3.568   7.075  0.5361  0.3631 -2.1254
 1629SOL     vw 6516   0.172   3.597   7.074  0.4894  0.3891 -0.4668
 1630SOL     ow 6517   1.619   1.405   5.557 -0.0840  0.2187  0.1330
 1630SOL     hw 6518   1.574   1.351   5.622 -2.1060  1.4019 -0.2065
 1630SOL     hw 6519   1.599   1.495   5.582  0.6623  0.7459 -1.0630
 1630SOL     vw 6520   1.610   1.410   5.568 -0.2523  0.4444 -0.0694
 1631SOL     ow 6521   2.616   0.642   5.975  0.1890 -0.2935  0.6800
 1631SOL     hw 6522   2.655   0.555   5.966 -0.1605 -0.5296  1.3933
 1631SOL     hw 6523   2.588   0.665   5.887 -1.4747 -1.7479  0.7736
 1631SOL     vw 6524   2.617   0.633   5.962 -0.0767 -0.5166  0.7863
 1632SOL     ow 6525   1.561   1.643   5.658  0.0044  0.3322 -0.3778
 1632SOL     hw 6526   1.631   1.614   5.715  0.8105 -1.4110 -2.1337
 1632SOL     hw 6527   1.480   1.616   5.703  0.5821 -0.3825  0.2573
 1632SOL     vw 6528   1.559   1.636   5.671  0.1870  0.0079 -0.5260
 1633SOL     ow 6529   2.409   1.048   5.546  0.4535 -0.3693  0.7568
 1633SOL     hw 6530   2.442   1.137   5.536  1.6087 -0.9786 -1.7388
 1633SOL     hw 6531   2.353   1.034   5.470 -0.0165 -1.6591  1.2995
 1633SOL     vw 6532   2.406   1.058   5.535  0.5440 -0.6198  0.4990
 1634SOL     ow 6533   4.418   2.837   2.565  0.2590  0.3378  0.3803
 1634SOL     hw 6534   4.352   2.769   2.556 -0.0974  0.5521  1.2634
 1634SOL     hw 6535   4.369   2.917   2.584  0.7326  0.6367  0.3928
 1634SOL     vw 6536   4.403   2.839   2.566  0.2747  0.4055  0.4985
 1635SOL     ow 6537   5.912   4.120   2.100  0.0780 -0.0775 -0.5204
 1635SOL     hw 6538   5.835   4.113   2.156  0.4830 -0.2025  0.0313
 1635SOL     hw 6539   5.975   4.059   2.138 -0.0271 -1.0147 -1.7838
 1635SOL     vw 6540   5.910   4.111   2.113  0.1178 -0.2179 -0.6142
 1636SOL     ow 6541   6.179   6.371   0.997 -0.5174  0.3840  0.4344
 1636SOL     hw 6542   6.228   6.432   0.941 -0.5572  0.2518  0.2575
 1636SOL     hw 6543   6.116   6.330   0.938  0.6193 -1.0777  0.1672
 1636SOL     vw 6544   6.177   6.374   0.982 -0.3729  0.1733  0.3758
 1637SOL     ow 6545   6.849   6.259   2.204 -0.2232 -0.1172 -0.1866
 1637SOL     hw 6546   6.938   6.233   2.228 -0.4947 -0.5107  0.4182
 1637SOL     hw 6547   6.839   6.227   2.114  0.8715  1.5565 -0.9463
 1637SOL     vw 6548   6.859   6.251   2.195 -0.1147  0.0517 -0.2069
 1638SOL     ow 6549   4.832   4.546   0.350 -0.2395 -0.2441  0.8317
 1638SOL     hw 6550   4.780   4.543   0.431 -0.8008 -1.6480  0.4406
 1638SOL     hw 6551   4.804   4.469   0.301  1.0943 -0.1591 -0.0961
 1638SOL     vw 6552   4.821   4.535   0.355 -0.1376 -0.4179  0.6577
 1639SOL     ow 6553   0.394   2.130   5.840  0.6861 -1.1784 -0.1041
 1639SOL     hw 6554   0.405   2.050   5.788  1.6719 -1.6393  0.7689
 1639SOL     hw 6555   0.476   2.138   5.888  0.9474  0.8153 -0.7687
 1639SOL     vw 6556   0.407   2.121   5.839  0.8506 -0.9761 -0.0768
 1640SOL     ow 6557   5.566   3.535   4.957 -0.4966 -0.1692  0.4221
 1640SOL     hw 6558   5.643   3.562   5.007  0.9258 -1.1837 -1.1350
 1640SOL     hw 6559   5.520   3.475   5.015 -0.2553  0.6038  1.4563
 1640SOL     vw 6560   5.570   3.531   4.971 -0.2770 -0.2011  0.3533
 1641SOL     ow 6561   5.595   3.541   4.691  0.7426 -0.9730 -0.1715
 1641SOL     hw 6562   5.561   3.460   4.652  1.1062 -1.1001 -0.2226
 1641SOL     hw 6563   5.572   3.534   4.784  1.0600 -1.2866 -0.1139
 1641SOL     vw 6564   5.587   3.529   4.698  0.8326 -1.0312 -0.1705
 1642SOL     ow 6565   7.195   1.510   4.629 -0.3002 -0.2540 -0.3563
 1642SOL     hw 6566   7.118   1.528   4.684 -0.4989  0.9572 -0.9967
 1642SOL     hw 6567   7.214   1.417   4.644  0.2286  0.2250  2.4592
 1642SOL     vw 6568   7.187   1.500   4.638 -0.2568 -0.0311 -0.0691
 1643SOL     ow 6569   0.386   2.089   2.603 -0.0571 -0.0991 -0.5175
 1643SOL     hw 6570   0.409   2.045   2.521  0.7514 -0.7638  0.0551
 1643SOL     hw 6571   0.464   2.081   2.657 -0.5848  0.3413  0.3257
 1643SOL     vw 6572   0.399   2.082   2.599 -0.0201 -0.1287 -0.3309
 1644SOL     ow 6573   6.494   4.125   0.908  0.2477  0.2326 -0.1880
 1644SOL     hw 6574   6.473   4.209   0.950 -0.6314  0.0094 -0.1564
 1644SOL     hw 6575   6.459   4.059   0.967 -0.5980 -0.0944 -1.0190
 1644SOL     vw 6576   6.486   4.128   0.921  0.0200  0.1600 -0.2935
 1645SOL     ow 6577   6.416   1.853   1.343  0.7097  0.5135  0.5292
 1645SOL     hw 6578   6.455   1.849   1.256  1.1902  2.0007  0.6446
 1645SOL     hw 6579   6.486   1.885   1.400 -0.4931  2.8324  0.8203
 1645SOL     vw 6580   6.430   1.857   1.339  0.6144  1.0157  0.5828
 1646SOL     ow 6581   3.779   1.504   6.846  0.3700 -0.2455 -0.6711
 1646SOL     hw 6582   3.789   1.589   6.802  0.5120  0.6718  1.0091
 1646SOL     hw 6583   3.696   1.513   6.894  0.0157 -1.3551 -1.0633
 1646SOL     vw 6584   3.769   1.517   6.847  0.3419 -0.2708 -0.5012
 1647SOL     ow 6585   5.352   5.691   5.749  0.0642  0.3042  0.4943
 1647SOL     hw 6586   5.436   5.647   5.762  0.4524  1.2254  1.1604
 1647SOL     hw 6587   5.374   5.783   5.738 -0.9007  0.6476  1.3028
 1647SOL     vw 6588   5.366   5.697   5.749 -0.0119  0.4709  0.6888
 1648SOL     ow 6589   6.591   4.599   5.530  0.1087 -0.1887  0.3791
 1648SOL     hw 6590   6.644   4.616   5.608  1.1718  2.4277 -0.8201
 1648SOL     hw 6591   6.641   4.533   5.482  0.0030 -1.0035  1.3427
 1648SOL     vw 6592   6.605   4.593   5.534  0.2351  0.0491  0.3481
 1649SOL     ow 6593   6.264   6.118   6.930  0.2556  0.0012  0.1941
 1649SOL     hw 6594   6.174   6.129   6.901  0.4833  1.3352 -0.0775
 1649SOL     hw 6595   6.269   6.169   7.011  0.0145 -2.4786  1.8756
 1649SOL     vw 6596   6.253   6.126   6.937  0.2537 -0.1500  0.3800
 1650SOL     ow 6597   4.928   3.595   2.943  0.0497  0.7435  0.2677
 1650SOL     hw 6598   4.911   3.509   2.905  1.1436  1.0209 -0.9636
 1650SOL     hw 6599   4.998   3.580   3.007 -0.5196  0.5536  0.8464
 1650SOL     vw 6600   4.935   3.582   2.947  0.1190  0.7551  0.1814
 1651SOL     ow 6601   2.231   3.226   1.280 -0.0553 -0.6999  0.2226
 1651SOL     hw 6602   2.232   3.144   1.330  0.9025 -0.9265 -0.1450
 1651SOL     hw 6603   2.318   3.263   1.292  0.0635 -0.5599 -0.9491
 1651SOL     vw 6604   2.242   3.220   1.288  0.0868 -0.7114  0.0194
 1652SOL     ow 6605   3.383   2.201   6.934  0.7726 -0.2030 -0.2509
 1652SOL     hw 6606   3.377   2.296   6.937  1.2055 -0.1638 -0.5254
 1652SOL     hw 6607   3.424   2.182   6.849 -1.1464 -0.7270 -1.1164
 1652SOL     vw 6608   3.388   2.211   6.923  0.5765 -0.2671 -0.4013
 1653SOL     ow 6609   3.182   2.429   6.652  0.0184  0.7841  0.5614
 1653SOL     hw 6610   3.142   2.344   6.669 -0.0396  0.4808 -0.9158
 1653SOL     hw 6611   3.273   2.408   6.628 -0.5185  0.8873 -1.8466
 1653SOL     vw 6612   3.189   2.415   6.651 -0.0601  0.7577  0.0489
 1654SOL     ow 6613   0.511   2.637   0.816 -0.2141 -0.4330  0.2675
 1654SOL     hw 6614   0.451   2.686   0.761  0.0018  0.6747  0.9879
 1654SOL     hw 6615   0.598   2.673   0.795 -0.1054 -0.1618  1.1446
 1654SOL     vw 6616   0.515   2.648   0.806 -0.1713 -0.2511  0.4783
 1655SOL     ow 6617   3.638   3.656   0.501 -0.0722 -0.1030 -0.2208
 1655SOL     hw 6618   3.583   3.588   0.538 -0.9411 -0.0335 -1.3411
 1655SOL     hw 6619   3.717   3.610   0.472 -0.1845 -0.4482  0.0253
 1655SOL     vw 6620   3.641   3.641   0.502 -0.2016 -0.1394 -0.3361
 1656SOL     ow 6621   0.282   6.223   2.406 -0.5886 -0.1943 -0.6150
 1656SOL     hw 6622   0.276   6.247   2.498 -0.7145 -0.7490 -0.4747
 1656SOL     hw 6623   0.277   6.306   2.359 -3.6849 -0.1038 -0.2853
 1656SOL     vw 6624   0.281   6.237   2.412 -1.0137 -0.2556 -0.5530
 1657SOL     ow 6625   0.053   0.405   0.179 -0.0434  0.4142 -0.3330
 1657SOL     hw 6626   0.116   0.407   0.107  0.0321 -1.4503 -0.3513
 1657SOL     hw 6627   0.009   0.321   0.171 -1.4558  1.0167  0.6265
 1657SOL     vw 6628   0.055   0.394   0.168 -0.2198  0.2477 -0.2088
 1658SOL     ow 6629   4.600   3.742   1.183 -0.1038 -0.2190  0.1308
 1658SOL     hw 6630   4.527   3.792   1.219 -2.0752 -0.8698 -2.6065
 1658SOL     hw 6631   4.588   3.653   1.217 -0.9747 -0.4456 -0.7060
 1658SOL     vw 6632   4.589   3.737   1.192 -0.4790 -0.3349 -0.3408
 1659SOL     ow 6633   2.689   0.676   0.376  0.6304  0.3068  0.1521
 1659SOL     hw 6634   2.695   0.596   0.324  1.2606  0.6412 -0.2922
 1659SOL     hw 6635   2.630   0.732   0.326 -0.3086 -0.0990  0.7688
 1659SOL     vw 6636   2.682   0.673   0.363  0.5896  0.2974  0.1749
 1660SOL     ow 6637   5.393   2.116   6.396 -0.0887 -0.1499 -0.3919
 1660SOL     hw 6638   5.443   2.161   6.465 -3.1324  1.3627  0.9944
 1660SOL     hw 6639   5.366   2.186   6.337 -1.3084 -0.7818 -0.6078
 1660SOL     vw 6640   5.396   2.131   6.397 -0.6509 -0.0337 -0.2377
 1661SOL     ow 6641   3.207   3.033   4.921 -0.6351  0.6943 -0.3084
 1661SOL     hw 6642   3.125   2.994   4.952 -0.4635 -0.1385 -0.8786
 1661SOL     hw 6643   3.183   3.123   4.899 -0.8426  1.2091  1.8521
 1661SOL     vw 6644   3.193   3.040   4.922 -0.6399  0.6524 -0.0985
 1662SOL     ow 6645   3.223   2.787   3.848 -0.1284  0.3581  0.0473
 1662SOL     hw 6646   3.207   2.857   3.785 -0.5236  0.1770 -0.0554
 1662SOL     hw 6647   3.273   2.722   3.799  2.8596  1.8140  0.8990
 1662SOL     vw 6648   3.228   2.788   3.833  0.2137  0.5262  0.1462
 1663SOL     ow 6649   6.109   6.423   5.873  0.0883  0.2464  0.4987
 1663SOL     hw 6650   6.115   6.340   5.825 -0.1884  1.1402 -1.1363
 1663SOL     hw 6651   6.166   6.483   5.825  0.6605  0.9005  1.9367
 1663SOL     vw 6652   6.117   6.420   5.861  0.1271  0.4506  0.4728
 1664SOL     ow 6653   1.359   3.437   5.854  0.2744  0.3300  0.0275
 1664SOL     hw 6654   1.300   3.361   5.851  0.9649 -0.2304  0.3315
 1664SOL     hw 6655   1.381   3.454   5.763  1.2119 -0.7214  0.0375
 1664SOL     vw 6656   1.354   3.429   5.842  0.4892  0.1174  0.0689
 1665SOL     ow 6657   7.169   4.908   4.331 -0.2751 -0.8443  0.0605
 1665SOL     hw 6658   7.172   4.997   4.294 -0.5089 -0.0657  1.8239
 1665SOL     hw 6659   7.103   4.914   4.400 -0.1250 -2.3510  0.3493
 1665SOL     vw 6660   7.161   4.921   4.335 -0.2861 -0.9403  0.3314
 1666SOL     ow 6661   4.964   6.657   5.344 -0.2867  0.4310  0.3064
 1666SOL     hw 6662   4.970   6.590   5.411 -1.8799  0.7524  0.8110
 1666SOL     hw 6663   5.054   6.685   5.329  0.2181 -0.5931  1.3360
 1666SOL     vw 6664   4.976   6.652   5.350 -0.4303  0.3383  0.5090
 1667SOL     ow 6665   2.945   1.055   2.602 -0.1761  0.2649 -0.4882
 1667SOL     hw 6666   2.927   0.987   2.666 -1.7839  1.3842  0.3173
 1667SOL     hw 6667   3.026   1.096   2.632  1.0420 -1.4998 -1.2192
 1667SOL     vw 6668   2.953   1.051   2.614 -0.2276  0.1798 -0.4784
 1668SOL     ow 6669   4.568   0.319   3.274 -0.0252 -0.4517 -0.1006
 1668SOL     hw 6670   4.556   0.227   3.254 -4.3454 -0.0931 -0.1545
 1668SOL     hw 6671   4.486   0.346   3.315  0.8548  3.4858 -0.4686
 1668SOL     vw 6672   4.556   0.311   3.277 -0.4795  0.1151 -0.1563
 1669SOL     ow 6673   3.985   1.544   3.503 -0.0308  0.0967  0.5186
 1669SOL     hw 6674   4.077   1.565   3.483 -0.6306  2.7883  0.1788
 1669SOL     hw 6675   3.967   1.463   3.455  1.6995  0.4189 -0.7637
 1669SOL     vw 6676   3.995   1.536   3.494  0.1185  0.4943  0.3045
 1670SOL     ow 6677   1.384   3.997   0.174  0.0523  0.2918  0.5468
 1670SOL     hw 6678   1.396   3.976   0.267  0.4125 -1.2960  0.1711
 1670SOL     hw 6679   1.300   3.956   0.151  1.2529 -1.8065 -0.4540
 1670SOL     vw 6680   1.374   3.988   0.183  0.2583 -0.1945  0.3652
 1671SOL     ow 6681   1.375   4.641   4.016  0.3082  0.6325  0.4141
 1671SOL     hw 6682   1.345   4.633   3.926  1.9461 -2.5562  0.0146
 1671SOL     hw 6683   1.468   4.618   4.012  0.0621 -1.3070  3.0961
 1671SOL     vw 6684   1.384   4.637   4.004  0.4919 -0.0439  0.7153
 1672SOL     ow 6685   5.315   1.890   0.167  0.3683 -0.1526 -0.3024
 1672SOL     hw 6686   5.341   1.883   0.259 -0.5209 -0.5307 -0.0685
 1672SOL     hw 6687   5.274   1.805   0.148 -2.2013  0.9757 -0.1565
 1672SOL     vw 6688   5.313   1.878   0.176 -0.0880 -0.0536 -0.2523
 1673SOL     ow 6689   2.128   0.138   2.031 -0.2512  0.0314 -0.4673
 1673SOL     hw 6690   2.198   0.123   2.095 -0.1870 -1.2205 -0.8016
 1673SOL     hw 6691   2.049   0.110   2.077 -0.7194  2.3916  0.2747
 1673SOL     vw 6692   2.127   0.132   2.046 -0.3046  0.1776 -0.4135
 1674SOL     ow 6693   4.367   0.576   3.936 -0.2892  0.1418 -0.3171
 1674SOL     hw 6694   4.357   0.671   3.948  2.4977  0.5376 -0.6438
 1674SOL     hw 6695   4.403   0.566   3.848  1.6090 -1.0200  0.5330
 1674SOL     vw 6696   4.370   0.587   3.926  0.3290  0.0407 -0.2480
 1675SOL     ow 6697   3.234   1.511   2.976  0.2298  0.4819 -0.5950
 1675SOL     hw 6698   3.241   1.418   2.997  1.2774  0.2834 -1.6630
 1675SOL     hw 6699   3.192   1.513   2.890 -1.1246  1.0907  0.0536
 1675SOL     vw 6700   3.229   1.499   2.967  0.1893  0.5361 -0.6502
 1676SOL     ow 6701   4.849   1.893   0.903  0.4664 -0.4369 -0.2163
 1676SOL     hw 6702   4.932   1.871   0.946  0.0842 -0.0394  0.7491
 1676SOL     hw 6703   4.787   1.902   0.975 -0.1712  0.3427 -0.8525
 1676SOL     vw 6704   4.852   1.891   0.919  0.3319 -0.2816 -0.1729
 1677SOL     ow 6705   4.645   5.502   5.474  0.4187 -0.0342 -0.4222
 1677SOL     hw 6706   4.599   5.425   5.505 -0.4821  0.9969  0.9285
 1677SOL     hw 6707   4.695   5.472   5.398 -0.4104 -1.7739 -0.3141
 1677SOL     vw 6708   4.645   5.488   5.468  0.1907 -0.1276 -0.2298
 1678SOL     ow 6709   3.504   5.943   0.442  0.3181 -0.7853 -0.1311
 1678SOL     hw 6710   3.427   5.890   0.422 -0.0279 -0.0784 -0.7325
 1678SOL     hw 6711   3.524   5.924   0.533 -3.7477  2.8633  1.8970
 1678SOL     vw 6712   3.497   5.934   0.451 -0.2639 -0.2110  0.0572
 1679SOL     ow 6713   5.836   6.339   0.106  0.0111 -0.2761  0.0835
 1679SOL     hw 6714   5.807   6.365   0.019  0.0741  0.0956  0.1709
 1679SOL     hw 6715   5.915   6.287   0.090  0.3699  0.2982 -0.0528
 1679SOL     vw 6716   5.843   6.336   0.092  0.0668 -0.1509  0.0770
 1680SOL     ow 6717   0.636   4.124   7.128 -0.3180 -0.3545 -0.1109
 1680SOL     hw 6718   0.722   4.090   7.153 -0.1923 -1.1378 -1.5131
 1680SOL     hw 6719   0.594   4.144   7.211  1.7741  1.5590  0.5746
 1680SOL     vw 6720   0.642   4.122   7.142 -0.0254 -0.2050 -0.2055
 1681SOL     ow 6721   6.648   3.563   4.312  0.5161 -0.4840 -0.2102
 1681SOL     hw 6722   6.657   3.485   4.365  1.3734 -1.4927 -1.7683
 1681SOL     hw 6723   6.673   3.635   4.370 -1.2038 -1.2132  1.5412
 1681SOL     vw 6724   6.652   3.562   4.327  0.4025 -0.7132 -0.1848
 1682SOL     ow 6725   6.303   4.137   0.527 -0.2373  0.1640 -0.5624
 1682SOL     hw 6726   6.249   4.201   0.482 -0.9814 -0.0632 -0.0064
 1682SOL     hw 6727   6.391   4.176   0.527 -0.3629  0.4639 -1.5943
 1682SOL     vw 6728   6.308   4.151   0.521 -0.3519  0.1736 -0.6251
 1683SOL     ow 6729   5.387   0.390   6.971 -0.6170  0.3463  0.4264
 1683SOL     hw 6730   5.399   0.484   6.956  1.2113  0.3169  1.4423
 1683SOL     hw 6731   5.335   0.385   7.051 -3.3073  0.4448 -1.1942
 1683SOL     vw 6732   5.382   0.402   6.979 -0.7308  0.3554  0.3467
 1684SOL     ow 6733   1.740   5.979   5.605 -0.4228  0.2732 -0.1952
 1684SOL     hw 6734   1.704   5.957   5.691 -1.4941  0.8514 -0.4764
 1684SOL     hw 6735   1.663   5.996   5.550  0.2537  0.3297 -1.1566
 1684SOL     vw 6736   1.725   5.978   5.609 -0.4749  0.3569 -0.3591
 1685SOL     ow 6737   5.745   6.212   0.322  0.0788 -0.3440 -0.1854
 1685SOL     hw 6738   5.751   6.130   0.274 -0.3797  0.1069 -1.0388
 1685SOL     hw 6739   5.771   6.279   0.259  0.6164  0.1519  0.5513
 1685SOL     vw 6740   5.749   6.210   0.307  0.0892 -0.2193 -0.2008
 1686SOL     ow 6741   2.115   1.061   0.002 -0.0028  0.1595  0.0737
 1686SOL     hw 6742   2.195   1.087   0.048  1.5242 -1.9180 -1.2464
 1686SOL     hw 6743   2.134   1.079  -0.090  0.8081 -4.2809 -0.8504
 1686SOL     vw 6744   2.128   1.067  -0.004  0.3057 -0.7005 -0.2224
 1687SOL     ow 6745   5.763   3.840   3.067 -0.1611  0.1732  0.0858
 1687SOL     hw 6746   5.685   3.876   3.109 -0.4227 -0.7294  0.3779
 1687SOL     hw 6747   5.799   3.914   3.017 -1.8507  0.2898 -1.0176
 1687SOL     vw 6748   5.758   3.855   3.066 -0.4187  0.0695 -0.0212
 1688SOL     ow 6749   4.793   6.006   2.682 -0.4007 -0.1548  0.0441
 1688SOL     hw 6750   4.697   6.002   2.682 -0.4375 -0.3465  2.0639
 1688SOL     hw 6751   4.815   6.047   2.766  1.3023 -0.8087 -0.0553
 1688SOL     vw 6752   4.783   6.011   2.693 -0.1810 -0.2663  0.2974
 1689SOL     ow 6753   1.914   6.191   3.873  0.3103  0.0488  0.2141
 1689SOL     hw 6754   1.878   6.155   3.792 -1.1437  1.3607  0.2245
 1689SOL     hw 6755   1.879   6.280   3.877  5.1615  2.2946 -0.7871
 1689SOL     vw 6756   1.904   6.198   3.863  0.7584  0.5181  0.0834
 1690SOL     ow 6757   5.866   6.693   5.192  0.3065 -0.0535  0.3742
 1690SOL     hw 6758   5.953   6.722   5.166  0.1382 -0.0494 -0.1997
 1690SOL     hw 6759   5.863   6.601   5.168  0.5650 -0.3651  1.4841
 1690SOL     vw 6760   5.877   6.685   5.186  0.3183 -0.0942  0.4447
 1691SOL     ow 6761   4.978   7.096   1.404  0.3655 -0.2553 -0.2353
 1691SOL     hw 6762   5.003   7.004   1.397  1.6055  0.1207 -0.9462
 1691SOL     hw 6763   5.018   7.126   1.486  2.4563  0.3648 -1.4068
 1691SOL     vw 6764   4.986   7.088   1.414  0.8051 -0.1240 -0.4836
 1692SOL     ow 6765   1.574   2.821   5.844  0.1457  0.1769  0.1228
 1692SOL     hw 6766   1.497   2.823   5.901 -1.0876 -1.6115 -1.3636
 1692SOL     hw 6767   1.567   2.901   5.792 -0.0962  0.5609  0.7317
 1692SOL     vw 6768   1.563   2.832   5.845 -0.0489 -0.0083  0.0069
 1693SOL     ow 6769   4.507   0.854   5.857  0.1190 -0.1492  0.0433
 1693SOL     hw 6770   4.557   0.791   5.909 -0.4209  0.3193  1.1794
 1693SOL     hw 6771   4.491   0.927   5.917 -1.5678 -0.1191 -0.3928
 1693SOL     vw 6772   4.511   0.855   5.872 -0.1750 -0.0834  0.1352
 1694SOL     ow 6773   6.076   0.767   2.807  0.1217 -0.5788 -0.7016
 1694SOL     hw 6774   6.156   0.756   2.755  0.8422 -0.8634  0.4272
 1694SOL     hw 6775   6.013   0.708   2.766  0.4421 -0.2737 -1.6705
 1694SOL     vw 6776   6.078   0.758   2.795  0.2589 -0.5761 -0.6804
 1695SOL     ow 6777   6.214   2.696   5.471  0.0255  0.1893  0.0343
 1695SOL     hw 6778   6.125   2.730   5.463  0.4335  1.4367  0.6656
 1695SOL     hw 6779   6.259   2.759   5.527  2.0340  1.0369 -2.3577
 1695SOL     vw 6780   6.208   2.709   5.477  0.3443  0.4658 -0.1979
 1696SOL     ow 6781   4.887   3.483   0.267 -0.2170 -0.0528 -0.4671
 1696SOL     hw 6782   4.969   3.534   0.274  1.1158 -1.9491 -1.4648
 1696SOL     hw 6783   4.838   3.506   0.346  2.3727 -0.6564  1.4484
 1696SOL     vw 6784   4.892   3.493   0.278  0.3004 -0.3828 -0.3460
 1697SOL     ow 6785   0.990   5.560   6.940 -0.0628 -0.5990 -0.1265
 1697SOL     hw 6786   0.952   5.487   6.890  1.5017 -1.2849 -0.3629
 1697SOL     hw 6787   1.077   5.571   6.903  0.6120 -0.1810  1.5199
 1697SOL     vw 6788   0.996   5.552   6.929  0.2327 -0.6344  0.0594
 1698SOL     ow 6789   3.390   6.941   3.899  0.3199  0.0919 -0.5978
 1698SOL     hw 6790   3.299   6.914   3.896  0.1106  0.3419  1.7636
 1698SOL     hw 6791   3.433   6.874   3.952  1.0434  1.1000  0.1355
 1698SOL     vw 6792   3.384   6.929   3.906  0.3878  0.2580 -0.1895
 1699SOL     ow 6793   3.412   7.058   4.157  0.2131 -0.1721  0.4207
 1699SOL     hw 6794   3.422   7.015   4.072  1.1377 -1.3666  1.1009
 1699SOL     hw 6795   3.473   7.132   4.154  2.2407 -1.7299  0.9487
 1699SOL     vw 6796   3.421   7.062   4.145  0.6025 -0.5352  0.5805
 1700SOL     ow 6797   5.061   5.212   0.380  0.5050 -0.0862 -0.0752
 1700SOL     hw 6798   5.068   5.169   0.466 -0.9845 -1.6882 -0.7056
 1700SOL     hw 6799   5.008   5.290   0.397  2.5241  1.1533  0.9240
 1700SOL     vw 6800   5.055   5.217   0.394  0.5748 -0.1340 -0.0265
 1701SOL     ow 6801   3.121   2.075   6.200 -0.6398  0.3161  0.1053
 1701SOL     hw 6802   3.029   2.094   6.220 -1.5593 -2.5685 -0.8509
 1701SOL     hw 6803   3.147   2.011   6.267 -0.8477 -2.2886 -2.1011
 1701SOL     vw 6804   3.112   2.069   6.212 -0.7885 -0.4082 -0.3119
 1702SOL     ow 6805   5.024   3.117   3.882  0.2174  0.2015 -0.0751
 1702SOL     hw 6806   5.000   3.033   3.843  0.5067 -0.1326  0.4565
 1702SOL     hw 6807   5.118   3.111   3.897  0.0536  0.1596  1.0477
 1702SOL     vw 6808   5.033   3.105   3.879  0.2339  0.1519  0.1433
 1703SOL     ow 6809   0.367   1.537   5.081  0.9882  0.2787 -0.2671
 1703SOL     hw 6810   0.369   1.633   5.077  1.5792  0.2490 -0.9065
 1703SOL     hw 6811   0.364   1.517   5.174 -0.0951  0.9227 -0.1360
 1703SOL     vw 6812   0.367   1.547   5.093  0.9232  0.3598 -0.3340
 1704SOL     ow 6813   1.409   7.090   1.358 -0.5438 -0.0662 -0.1754
 1704SOL     hw 6814   1.360   7.125   1.283  1.1455  1.5922 -0.5661
 1704SOL     hw 6815   1.495   7.131   1.352 -0.0507 -0.6185  2.1537
 1704SOL     vw 6816   1.414   7.100   1.348 -0.2559  0.0796  0.0803
 1705SOL     ow 6817   7.176   2.203   2.912  0.5964 -0.7238  0.4866
 1705SOL     hw 6818   7.127   2.283   2.889  2.2744  0.4899  0.9443
 1705SOL     hw 6819   7.147   2.184   3.002 -1.4012 -1.9286 -0.3472
 1705SOL     vw 6820   7.165   2.211   2.921  0.5541 -0.7225  0.4370
 1706SOL     ow 6821   2.290   0.982   6.804 -0.4239 -0.2200  0.2816
 1706SOL     hw 6822   2.373   1.028   6.817 -0.1797  0.1586 -2.1145
 1706SOL     hw 6823   2.311   0.889   6.814 -0.3124 -0.0112  2.3073
 1706SOL     vw 6824   2.304   0.976   6.807 -0.3771 -0.1425  0.2327
 1707SOL     ow 6825   0.409   3.946   1.502 -0.5675 -0.3523  0.7886
 1707SOL     hw 6826   0.343   3.987   1.558 -1.4331 -3.0806  1.9922
 1707SOL     hw 6827   0.374   3.858   1.484  2.1332 -1.4717  0.4109
 1707SOL     vw 6828   0.396   3.940   1.507 -0.3253 -0.8600  0.8975
 1708SOL     ow 6829   1.999   5.656   4.157 -0.6298 -0.4643 -0.6793
 1708SOL     hw 6830   1.937   5.583   4.147 -2.2189  0.5650  0.9701
 1708SOL     hw 6831   2.029   5.650   4.247  1.6046 -0.8184 -1.3940
 1708SOL     vw 6832   1.995   5.646   4.167 -0.5446 -0.3755 -0.5560
 1709SOL     ow 6833   0.357   0.091   1.508  0.0722  0.0738  0.0818
 1709SOL     hw 6834   0.381   0.173   1.552 -1.1021  0.6733 -0.3731
 1709SOL     hw 6835   0.406   0.092   1.426  0.4170  0.0989  0.2876
 1709SOL     vw 6836   0.367   0.102   1.503 -0.0372  0.1562  0.0489
 1710SOL     ow 6837   6.831   5.645   0.262  0.5865  0.0614 -0.0341
 1710SOL     hw 6838   6.773   5.641   0.338  1.0124  0.7300  0.3434
 1710SOL     hw 6839   6.813   5.565   0.213  1.3355 -1.1205  1.5353
 1710SOL     vw 6840   6.821   5.634   0.266  0.7415 -0.0062  0.2228
 1711SOL     ow 6841   2.648   1.061   2.579 -0.1303 -0.5263 -0.1331
 1711SOL     hw 6842   2.612   1.096   2.661  2.6343 -1.3493  1.5539
 1711SOL     hw 6843   2.627   0.967   2.582 -1.4420 -0.3045 -1.2389
 1711SOL     vw 6844   2.640   1.053   2.590  0.0613 -0.6056 -0.0564
 1712SOL     ow 6845   3.170   5.806   6.112 -0.0190  0.6180 -0.1990
 1712SOL     hw 6846   3.100   5.746   6.136  0.9156 -0.4210 -0.0025
 1712SOL     hw 6847   3.226   5.756   6.053  1.1235  1.0789  0.4522
 1712SOL     vw 6848   3.168   5.792   6.107  0.2549  0.5417 -0.0873
 1713SOL     ow 6849   1.974   6.379   7.060 -0.3208 -0.1524 -0.4487
 1713SOL     hw 6850   1.879   6.389   7.064 -0.2752  0.1123  0.0008
 1713SOL     hw 6851   1.988   6.291   7.026 -0.7267 -0.1684 -0.5743
 1713SOL     vw 6852   1.964   6.369   7.056 -0.3684 -0.1197 -0.4058
 1714SOL     ow 6853   6.533   2.070   5.967  0.2333 -0.3340  0.3799
 1714SOL     hw 6854   6.550   2.008   5.897 -0.1656  0.0808 -0.0951
 1714SOL     hw 6855   6.460   2.032   6.016  1.1702 -1.1172  1.1867
 1714SOL     vw 6856   6.525   2.057   5.964  0.3042 -0.3827  0.4239
 1715SOL     ow 6857   7.253   2.482   7.227  0.4471 -0.1274  0.8091
 1715SOL     hw 6858   7.283   2.572   7.212  0.9194 -0.4465 -0.3479
 1715SOL     hw 6859   7.168   2.491   7.270 -0.2475  0.9181 -0.6921
 1715SOL     vw 6860   7.246   2.495   7.230  0.4179 -0.0315  0.4585
 1716SOL     ow 6861   4.065   4.132   3.909  0.1316 -0.7069  0.0052
 1716SOL     hw 6862   4.032   4.186   3.838 -2.5183 -1.0358  0.8822
 1716SOL     hw 6863   4.160   4.133   3.898  0.1058  2.6148 -1.0706
 1716SOL     vw 6864   4.073   4.139   3.898 -0.2213 -0.3121 -0.0210
 1717SOL     ow 6865   0.647   7.227   4.806 -0.3935  0.4388 -0.6438
 1717SOL     hw 6866   0.718   7.198   4.749 -0.6155 -0.2806 -0.5638
 1717SOL     hw 6867   0.690   7.283   4.870  0.4110 -1.2735  0.3979
 1717SOL     vw 6868   0.662   7.230   4.807 -0.3166  0.1178 -0.4959
 1718SOL     ow 6869   0.400   1.926   1.768  0.0979 -0.1568 -0.0526
 1718SOL     hw 6870   0.446   2.007   1.745 -0.8325  0.5718  0.5908
 1718SOL     hw 6871   0.449   1.890   1.842 -0.2334  0.5059  0.4954
 1718SOL     vw 6872   0.413   1.932   1.775 -0.0686  0.0268  0.1045
 1719SOL     ow 6873   4.246   0.884   5.452 -0.5051 -0.3351 -0.0999
 1719SOL     hw 6874   4.236   0.978   5.466 -0.5729 -0.0276 -1.9236
 1719SOL     hw 6875   4.221   0.870   5.361 -0.8867 -2.1994  0.2436
 1719SOL     vw 6876   4.242   0.894   5.442 -0.5643 -0.5405 -0.2952
 1720SOL     ow 6877   3.555   1.026   4.569 -0.1781  0.1846  0.5795
 1720SOL     hw 6878   3.481   0.985   4.612  0.3845 -0.6756  0.7432
 1720SOL     hw 6879   3.521   1.110   4.537 -2.0264 -1.3344 -1.8082
 1720SOL     vw 6880   3.541   1.032   4.570 -0.3479 -0.1293  0.2861
 1721SOL     ow 6881   4.956   4.899   0.497 -0.6739 -0.4524 -0.0236
 1721SOL     hw 6882   4.879   4.884   0.552 -0.9754  0.8207 -0.0804
 1721SOL     hw 6883   5.008   4.962   0.545  0.2822 -1.1829 -0.0604
 1721SOL     vw 6884   4.953   4.905   0.510 -0.5875 -0.3808 -0.0359
 1722SOL     ow 6885   0.951   3.367   2.298  0.3126  0.1741  0.1102
 1722SOL     hw 6886   0.976   3.375   2.206 -1.2968 -1.0395 -0.4777
 1722SOL     hw 6887   0.891   3.440   2.312  0.4033  0.2427  0.1432
 1722SOL     vw 6888   0.946   3.378   2.288  0.1122  0.0230  0.0371
 1723SOL     ow 6889   5.928   1.243   1.767  0.0376 -0.6188 -0.0059
 1723SOL     hw 6890   5.982   1.319   1.787  0.7751 -0.2133 -3.0159
 1723SOL     hw 6891   5.843   1.280   1.742  0.5225 -0.6758 -1.8818
 1723SOL     vw 6892   5.924   1.258   1.766  0.1986 -0.5728 -0.6506
 1724SOL     ow 6893   3.037   4.850   1.521  0.0639 -0.1920 -0.2923
 1724SOL     hw 6894   2.980   4.865   1.446  1.9627  0.9337 -1.6153
 1724SOL     hw 6895   3.009   4.915   1.585 -0.2672  0.2409 -0.8610
 1724SOL     vw 6896   3.026   4.861   1.519  0.2707  0.0138 -0.5419
 1725SOL     ow 6897   3.596   4.050   3.796 -0.0243  0.1933  0.2496
 1725SOL     hw 6898   3.558   4.120   3.743  1.6757  2.2976  1.6715
 1725SOL     hw 6899   3.562   3.969   3.757 -0.5307  1.7018 -2.6947
 1725SOL     vw 6900   3.587   4.048   3.783  0.1332  0.6700  0.0490
 1726SOL     ow 6901   2.906   5.108   2.575  0.1384 -0.2232 -0.1064
 1726SOL     hw 6902   2.942   5.054   2.504 -1.4478 -1.8368  0.2326
 1726SOL     hw 6903   2.933   5.197   2.553  2.0449 -0.9981 -1.2293
 1726SOL     vw 6904   2.915   5.113   2.563  0.1806 -0.5383 -0.2098
 1727SOL     ow 6905   6.209   0.752   6.888  0.5791  0.0399 -0.3716
 1727SOL     hw 6906   6.196   0.817   6.957  2.0812 -0.5647  0.5295
 1727SOL     hw 6907   6.124   0.743   6.847 -0.2949  0.6145  1.2425
 1727SOL     vw 6908   6.196   0.759   6.892  0.6621  0.0359 -0.0393
 1728SOL     ow 6909   4.765   3.419   2.242 -0.1772  0.2099 -0.1315
 1728SOL     hw 6910   4.847   3.430   2.194 -0.8545  1.3316 -1.0865
 1728SOL     hw 6911   4.733   3.508   2.257 -0.9572 -0.1934  0.7051
 1728SOL     vw 6912   4.772   3.432   2.237 -0.3695  0.3046 -0.1471
 1729SOL     ow 6913   2.749   0.835   5.118 -0.5323  0.4096 -0.2195
 1729SOL     hw 6914   2.695   0.758   5.105  1.3255 -0.6432 -2.3462
 1729SOL     hw 6915   2.810   0.835   5.044  2.0009  1.8068  1.6736
 1729SOL     vw 6916   2.750   0.825   5.107  0.0470  0.4551 -0.2503
 1730SOL     ow 6917   5.900   4.052   2.961 -0.3419  0.8013  0.1186
 1730SOL     hw 6918   5.926   4.086   3.046 -0.5295  1.8933 -0.2509
 1730SOL     hw 6919   5.932   4.116   2.897 -0.9293  0.4329 -0.5729
 1730SOL     vw 6920   5.908   4.065   2.964 -0.4439  0.8967 -0.0215
 1731SOL     ow 6921   6.481   5.605   2.332  0.4117  0.8664  0.2154
 1731SOL     hw 6922   6.505   5.560   2.412 -0.8280  1.4889  0.9560
 1731SOL     hw 6923   6.416   5.670   2.359  1.2750  2.3032 -0.9927
 1731SOL     vw 6924   6.476   5.608   2.346  0.3622  1.1380  0.1538
 1732SOL     ow 6925   2.549   2.583   2.561  0.2185 -0.1873  0.8327
 1732SOL     hw 6926   2.567   2.666   2.516 -1.0138 -0.1497  0.3640
 1732SOL     hw 6927   2.619   2.525   2.533 -0.0444  0.0961 -0.4858
 1732SOL     vw 6928   2.561   2.587   2.552  0.0212 -0.1450  0.5969
 1733SOL     ow 6929   0.932   2.015   3.830 -0.1456 -0.3570 -0.0913
 1733SOL     hw 6930   0.973   2.007   3.916 -0.1063 -1.5814 -0.2030
 1733SOL     hw 6931   0.878   2.094   3.836 -0.3406 -0.5670  1.1371
 1733SOL     vw 6932   0.931   2.024   3.842 -0.1661 -0.5462  0.0560
 1734SOL     ow 6933   3.120   6.597   1.285  0.1946  0.1080  0.0453
 1734SOL     hw 6934   3.120   6.652   1.364  1.9571  0.0197  0.1407
 1734SOL     hw 6935   3.077   6.516   1.312 -0.0626  0.4341  0.6422
 1734SOL     vw 6936   3.114   6.594   1.299  0.3932  0.1392  0.1367
 1735SOL     ow 6937   3.335   6.390   5.161  0.1094  0.1645 -0.0572
 1735SOL     hw 6938   3.316   6.441   5.083 -1.3654  1.4601  1.0807
 1735SOL     hw 6939   3.297   6.303   5.143  0.2319  0.2851 -0.9492
 1735SOL     vw 6940   3.327   6.385   5.148 -0.0690  0.3514 -0.0248
 1736SOL     ow 6941   1.321   0.344   7.056 -0.5116  0.5277 -0.0710
 1736SOL     hw 6942   1.385   0.400   7.012 -0.5812  0.5817 -0.1045
 1736SOL     hw 6943   1.262   0.317   6.986 -0.8284  0.8983  0.0492
 1736SOL     vw 6944   1.322   0.348   7.041 -0.5625  0.5837 -0.0598
 1737SOL     ow 6945   4.452   6.552   1.490 -0.0752  0.3651  0.2241
 1737SOL     hw 6946   4.395   6.616   1.449 -1.9506 -1.5367 -0.3256
 1737SOL     hw 6947   4.476   6.492   1.418  0.5943 -0.2476  0.9428
 1737SOL     vw 6948   4.448   6.552   1.475 -0.2344  0.0334  0.2464
 1738SOL     ow 6949   5.919   6.820   0.918  0.2835 -0.0209  0.0268
 1738SOL     hw 6950   5.909   6.899   0.971 -0.5272 -0.0627 -0.0482
 1738SOL     hw 6951   5.909   6.748   0.980  0.5088 -0.0658  0.0106
 1738SOL     vw 6952   5.916   6.821   0.933  0.2062 -0.0324  0.0148
 1739SOL     ow 6953   5.708   1.776   3.149  0.2871  0.0696  0.0169
 1739SOL     hw 6954   5.795   1.808   3.126  2.4279 -3.5089  2.2043
 1739SOL     hw 6955   5.702   1.789   3.243 -1.9383  0.8453 -0.1642
 1739SOL     vw 6956   5.718   1.782   3.158  0.2759 -0.3002  0.2817
 1740SOL     ow 6957   5.178   0.760   0.835  0.3559  0.5723  0.3342
 1740SOL     hw 6958   5.194   0.667   0.851  0.7387  0.2634 -1.5422
 1740SOL     hw 6959   5.122   0.788   0.907 -0.0296 -1.1889  0.7593
 1740SOL     vw 6960   5.173   0.751   0.846  0.3555  0.2992  0.1427
 1741SOL     ow 6961   5.353   3.400   3.146 -0.3893  0.5671  0.0451
 1741SOL     hw 6962   5.378   3.492   3.136  1.4485 -0.0176 -1.2137
 1741SOL     hw 6963   5.372   3.380   3.237  0.6872  1.0533 -0.0498
 1741SOL     vw 6964   5.359   3.410   3.156 -0.0048  0.5542 -0.1336
 1742SOL     ow 6965   0.674   2.484   0.104  0.2581  0.5273  0.0190
 1742SOL     hw 6966   0.615   2.424   0.058 -0.0730  1.8730 -1.4156
 1742SOL     hw 6967   0.634   2.570   0.091  2.2252  1.4107 -0.4721
 1742SOL     vw 6968   0.661   2.487   0.096  0.4740  0.8215 -0.2351
 1743SOL     ow 6969   5.104   5.047   2.528  0.1033  0.7774 -0.6471
 1743SOL     hw 6970   5.077   5.133   2.561 -0.3001  1.0959 -1.7760
 1743SOL     hw 6971   5.196   5.040   2.554  0.0146  1.3451 -0.1384
 1743SOL     vw 6972   5.113   5.058   2.536  0.0386  0.8941 -0.7290
 1744SOL     ow 6973   3.324   6.523   5.372  0.0690 -0.1778  0.5300
 1744SOL     hw 6974   3.334   6.485   5.285 -0.4344  1.0911 -0.1226
 1744SOL     hw 6975   3.413   6.534   5.405  0.5461  2.5789 -1.3430
 1744SOL     vw 6976   3.337   6.520   5.365  0.0656  0.3533  0.1967
 1745SOL     ow 6977   7.061   5.086   2.474  0.1310  0.3410  0.0512
 1745SOL     hw 6978   7.112   5.005   2.481  1.9151  1.2395 -1.6988
 1745SOL     hw 6979   7.052   5.117   2.564  0.7755 -0.9802  0.5933
 1745SOL     vw 6980   7.067   5.079   2.487  0.4513  0.2849 -0.1080
 1746SOL     ow 6981   3.698   4.243   0.516  0.2529  0.3127  0.0199
 1746SOL     hw 6982   3.722   4.264   0.426  0.1578 -1.1096 -0.3735
 1746SOL     hw 6983   3.737   4.156   0.532 -1.1836 -0.2415  0.7427
 1746SOL     vw 6984   3.707   4.234   0.507  0.0509  0.0515  0.0634
 1747SOL     ow 6985   4.804   3.202   2.648  0.2130  0.0972  0.0502
 1747SOL     hw 6986   4.750   3.280   2.663  1.3563  1.0269 -0.5282
 1747SOL     hw 6987   4.771   3.138   2.711  0.0020  1.4257  1.3412
 1747SOL     vw 6988   4.792   3.204   2.659  0.3359  0.3953  0.1441
 1748SOL     ow 6989   5.067   2.583   2.762 -0.2760  0.5071  0.0407
 1748SOL     hw 6990   5.084   2.496   2.796  0.3607  0.8767  0.7073
 1748SOL     hw 6991   5.154   2.621   2.748 -0.5392  1.3047  0.4876
 1748SOL     vw 6992   5.081   2.577   2.765 -0.2267  0.6611  0.1876
 1749SOL     ow 6993   5.320   7.079   5.493  0.0523 -0.2962 -0.2397
 1749SOL     hw 6994   5.250   7.130   5.453 -0.8965 -2.4744 -1.5822
 1749SOL     hw 6995   5.398   7.134   5.484 -1.1616  1.5333 -0.1380
 1749SOL     vw 6996   5.321   7.093   5.486 -0.2332 -0.3424 -0.4036
 1750SOL     ow 6997   2.820   2.018   5.157 -0.1326  0.1509  0.0333
 1750SOL     hw 6998   2.866   2.101   5.172 -3.8166  2.2897  0.7208
 1750SOL     hw 6999   2.815   1.978   5.243 -2.9492  2.0108  0.8717
 1750SOL     vw 7000   2.826   2.024   5.170 -0.9904  0.6785  0.2346
 1751SOL     ow 7001   0.727   4.700   6.469  0.2875  0.2589  0.0290
 1751SOL     hw 7002   0.743   4.694   6.564 -0.5447 -1.2763  0.1112
 1751SOL     hw 7003   0.696   4.790   6.456  0.9235  0.6657  1.1202
 1751SOL     vw 7004   0.725   4.711   6.480  0.2616  0.1099  0.1838
 1752SOL     ow 7005   0.407   1.060   0.144 -0.3696 -0.2717 -0.7426
 1752SOL     hw 7006   0.423   0.972   0.111  1.4233  0.3697 -1.7265
 1752SOL     hw 7007   0.488   1.108   0.126 -1.3350  1.6189 -0.3543
 1752SOL     vw 7008   0.420   1.055   0.137 -0.2604  0.0623 -0.8212
 1753SOL     ow 7009   6.052   3.867   1.894  0.3404 -0.0647 -0.2787
 1753SOL     hw 7010   6.006   3.804   1.839 -3.1042  1.7493  0.2345
 1753SOL     hw 7011   6.068   3.942   1.836  2.3209 -0.4722 -0.3076
 1753SOL     vw 7012   6.048   3.869   1.879  0.1473  0.1208 -0.2148
 1754SOL     ow 7013   6.783   0.035   1.820 -0.3029  1.0348  0.4112
 1754SOL     hw 7014   6.844  -0.001   1.756  1.0012  3.3566  0.2322
 1754SOL     hw 7015   6.718  -0.034   1.834 -0.1776  0.1474 -2.7843
 1754SOL     vw 7016   6.783   0.022   1.814 -0.1142  1.2241 -0.0340
 1755SOL     ow 7017   3.743   4.779   1.525 -0.5406  0.2908 -0.2624
 1755SOL     hw 7018   3.831   4.761   1.491 -0.7724 -0.2201 -0.6094
 1755SOL     hw 7019   3.753   4.779   1.620 -0.2318 -0.1365 -0.2922
 1755SOL     vw 7020   3.756   4.777   1.533 -0.5302  0.1671 -0.3121
 1756SOL     ow 7021   6.738   2.222   2.572 -0.0573  0.2846 -0.4976
 1756SOL     hw 7022   6.818   2.176   2.597  2.1065  4.0084  0.2238
 1756SOL     hw 7023   6.684   2.220   2.650 -0.4575 -1.6915 -0.7731
 1756SOL     vw 7024   6.742   2.216   2.585  0.1752  0.5152 -0.4386
 1757SOL     ow 7025   6.483   0.799   3.652  0.5507  0.2079  0.6294
 1757SOL     hw 7026   6.536   0.876   3.671 -0.5122  0.9106  0.8464
 1757SOL     hw 7027   6.471   0.756   3.736  1.2488 -0.2800  0.4887
 1757SOL     vw 7028   6.488   0.803   3.666  0.5026  0.2362  0.6393
 1758SOL     ow 7029   0.113   0.402   1.656  0.9211  0.0745 -0.7874
 1758SOL     hw 7030   0.070   0.435   1.735 -0.4626 -4.9564  0.9670
 1758SOL     hw 7031   0.071   0.450   1.584 -0.7680  1.9610  1.3027
 1758SOL     vw 7032   0.101   0.413   1.657  0.5157 -0.3404 -0.2802
 1759SOL     ow 7033   4.691   5.467   5.156 -0.4602  0.1734 -0.1939
 1759SOL     hw 7034   4.756   5.409   5.196 -0.5711 -0.3881 -0.7911
 1759SOL     hw 7035   4.636   5.408   5.105 -1.4139  0.6498  0.2639
 1759SOL     vw 7036   4.693   5.451   5.154 -0.6006  0.1621 -0.2124
 1760SOL     ow 7037   3.652   4.943   5.787 -0.7186 -0.5895  0.4855
 1760SOL     hw 7038   3.718   4.877   5.806 -0.3073 -0.1685  0.5333
 1760SOL     hw 7039   3.701   5.025   5.779 -1.3056 -0.1618  1.1464
 1760SOL     vw 7040   3.667   4.945   5.788 -0.7417 -0.4776  0.5791
 1761SOL     ow 7041   5.115   4.369   0.402 -0.3908  0.0217 -0.1929
 1761SOL     hw 7042   5.180   4.368   0.473 -0.1022 -1.3772 -0.4434
 1761SOL     hw 7043   5.165   4.340   0.325 -1.2328 -0.7462 -0.4590
 1761SOL     vw 7044   5.130   4.365   0.401 -0.4637 -0.2644 -0.2610
 1762SOL     ow 7045   4.500   4.157   6.758  0.6408 -0.2703 -0.0481
 1762SOL     hw 7046   4.457   4.177   6.842  0.1346  0.1236 -0.3958
 1762SOL     hw 7047   4.490   4.238   6.707 -1.5379 -1.3954 -1.5403
 1762SOL     vw 7048   4.493   4.171   6.762  0.2866 -0.3667 -0.2909
 1763SOL     ow 7049   2.140   2.370   0.432 -0.4426 -0.1004  0.0431
 1763SOL     hw 7050   2.071   2.312   0.401 -1.5501  1.3916 -0.4369
 1763SOL     hw 7051   2.156   2.343   0.522 -1.4525 -0.6748  0.0664
 1763SOL     vw 7052   2.133   2.359   0.440 -0.7218  0.0205 -0.0172
 1764SOL     ow 7053   2.990   3.652   7.017 -0.8023 -0.2589 -0.3369
 1764SOL     hw 7054   3.013   3.559   7.018  0.4495  0.0198  1.6992
 1764SOL     hw 7055   3.013   3.681   6.929  1.2877 -1.3384 -0.2145
 1764SOL     vw 7056   2.996   3.644   7.005 -0.3613 -0.3647 -0.0522
 1765SOL     ow 7057   5.575   4.196   4.359  0.4009 -0.7787  0.2948
 1765SOL     hw 7058   5.665   4.171   4.380  0.5770 -0.2140  0.2335
 1765SOL     hw 7059   5.547   4.249   4.434  0.6183  0.2331 -0.3097
 1765SOL     vw 7060   5.583   4.200   4.372  0.4530 -0.5710  0.2069
 1766SOL     ow 7061   5.989   0.978   0.380  0.1551  0.6520  0.2363
 1766SOL     hw 7062   6.050   1.042   0.344 -1.6838  2.2947 -0.1190
 1766SOL     hw 7063   5.993   0.992   0.475  2.5087 -1.3915  0.5729
 1766SOL     vw 7064   5.998   0.988   0.388  0.2232  0.5991  0.2338
 1767SOL     ow 7065   4.597   0.693   4.438  0.6280 -0.1838 -0.1171
 1767SOL     hw 7066   4.641   0.643   4.507  1.7163 -0.2306 -0.8198
 1767SOL     hw 7067   4.505   0.691   4.462  0.8482 -1.1900  0.7148
 1767SOL     vw 7068   4.591   0.686   4.450  0.8006 -0.3228 -0.1001
 1768SOL     ow 7069   0.158   3.418   4.139  0.0861  0.4403 -0.4385
 1768SOL     hw 7070   0.129   3.483   4.203 -0.7973  1.1803 -1.5566
 1768SOL     hw 7071   0.211   3.356   4.190 -0.7874  0.8670  1.0429
 1768SOL     vw 7072   0.161   3.418   4.154 -0.1457  0.5941 -0.3905
 1769SOL     ow 7073   1.097   3.384   0.310  0.3699  0.1624 -0.1789
 1769SOL     hw 7074   1.143   3.453   0.358 -2.1870  1.2603  0.8978
 1769SOL     hw 7075   1.051   3.431   0.240  0.3260 -0.7734 -0.7879
 1769SOL     vw 7076   1.097   3.399   0.307  0.0268  0.1838 -0.1172
 1770SOL     ow 7077   3.538   6.162   3.060 -0.0534 -0.1541 -0.1232
 1770SOL     hw 7078   3.481   6.140   3.134 -2.3310  0.7705 -1.4931
 1770SOL     hw 7079   3.553   6.078   3.016 -0.6982 -0.3587  0.0369
 1770SOL     vw 7080   3.533   6.148   3.064 -0.4390 -0.0589 -0.2828
 1771SOL     ow 7081   2.634   5.722   3.001 -0.2814 -0.1657 -0.1381
 1771SOL     hw 7082   2.623   5.739   3.095 -1.8747  0.6826 -0.4385
 1771SOL     hw 7083   2.678   5.637   2.997  0.5484  0.1491  1.3703
 1771SOL     vw 7084   2.638   5.713   3.013 -0.3822 -0.0119  0.0215
 1772SOL     ow 7085   0.103   3.223   5.448  0.4623 -0.7584  0.3167
 1772SOL     hw 7086   0.143   3.307   5.425 -1.5308  1.1406  3.0763
 1772SOL     hw 7087   0.174   3.172   5.487  1.9333 -0.8611 -2.2544
 1772SOL     vw 7088   0.118   3.227   5.450  0.3934 -0.5214  0.3414
 1773SOL     ow 7089   2.956   6.995   5.433 -0.1408  0.2910 -0.4974
 1773SOL     hw 7090   2.952   6.900   5.445 -0.3448  0.2760 -0.6839
 1773SOL     hw 7091   3.047   7.013   5.410 -0.2700  0.0486 -1.2351
 1773SOL     vw 7092   2.967   6.985   5.432 -0.1849  0.2570 -0.6194
 1774SOL     ow 7093   2.437   3.604   2.434  0.3322 -0.1970  0.5662
 1774SOL     hw 7094   2.356   3.555   2.448 -1.3458  2.5255  1.0220
 1774SOL     hw 7095   2.418   3.658   2.357  1.3440  1.2256  1.2958
 1774SOL     vw 7096   2.423   3.604   2.425  0.2444  0.3499  0.7225
 1775SOL     ow 7097   5.969   4.641   2.177 -0.2979  0.3007  0.4185
 1775SOL     hw 7098   5.877   4.629   2.202 -0.4438 -2.8173 -1.1032
 1775SOL     hw 7099   6.008   4.686   2.251 -3.5732  4.6559 -0.0770
 1775SOL     vw 7100   5.962   4.645   2.190 -0.7496  0.4640  0.1522
 1776SOL     ow 7101   4.175   6.242   6.544 -0.3733  0.8763  0.0041
 1776SOL     hw 7102   4.219   6.298   6.608 -0.3439  1.5252 -0.5755
 1776SOL     hw 7103   4.211   6.269   6.460 -2.4669  2.0156 -0.5893
 1776SOL     vw 7104   4.185   6.253   6.541 -0.6459  1.1122 -0.1504
 1777SOL     ow 7105   6.908   3.726   3.869  0.3091 -0.2328 -0.0498
 1777SOL     hw 7106   6.912   3.789   3.796  1.4338 -0.2284 -0.0037
 1777SOL     hw 7107   6.993   3.735   3.912 -1.0172  1.1459  2.4652
 1777SOL     vw 7108   6.920   3.736   3.865  0.2825 -0.0503  0.2881
 1778SOL     ow 7109   1.945   6.626   6.880 -0.7294 -0.6002  0.0087
 1778SOL     hw 7110   1.964   6.719   6.888 -0.9581 -0.6389  1.4312
 1778SOL     hw 7111   1.853   6.623   6.854 -0.4326 -0.4422 -1.1084
 1778SOL     vw 7112   1.935   6.638   6.878 -0.7204 -0.5846  0.0489
 1779SOL     ow 7113   4.132   4.619   1.563  0.2487  0.0662  0.1231
 1779SOL     hw 7114   4.109   4.696   1.513 -1.9058 -1.0717 -0.7585
 1779SOL     hw 7115   4.115   4.545   1.504  2.6119 -1.1364  0.7734
 1779SOL     vw 7116   4.127   4.619   1.549  0.2761 -0.2427  0.0926
 1780SOL     ow 7117   0.386   5.217   0.379  0.6574  0.0554  0.3616
 1780SOL     hw 7118   0.432   5.167   0.446  2.9847  0.1897 -1.0345
 1780SOL     hw 7119   0.418   5.180   0.296 -1.8224  0.1430 -0.7215
 1780SOL     vw 7120   0.396   5.205   0.377  0.6373  0.0849  0.0345
 1781SOL     ow 7121   1.953   0.876   6.991  0.4467 -0.1462  0.0369
 1781SOL     hw 7122   2.035   0.926   6.988  0.8762 -0.8378 -2.5200
 1781SOL     hw 7123   1.981   0.784   6.991 -0.2649 -0.3995 -1.5260
 1781SOL     vw 7124   1.967   0.870   6.991  0.4095 -0.2709 -0.5069
 1782SOL     ow 7125   4.374   1.023   1.642  0.8398  0.0710 -0.0208
 1782SOL     hw 7126   4.418   0.963   1.582 -0.5672 -1.8136  0.6985
 1782SOL     hw 7127   4.325   1.083   1.586  3.1238  1.3144 -0.7850
 1782SOL     vw 7128   4.373   1.023   1.627  0.9558 -0.0136 -0.0268
 1783SOL     ow 7129   6.261   1.277   2.763 -0.0519  0.0528 -0.3822
 1783SOL     hw 7130   6.329   1.213   2.784 -0.2761  0.2634  1.1035
 1783SOL     hw 7131   6.257   1.334   2.840 -1.8700  0.0769 -0.4421
 1783SOL     vw 7132   6.269   1.276   2.776 -0.3214  0.0838 -0.1940
 1784SOL     ow 7133   6.272   2.463   5.634  0.1532  0.5474 -0.2537
 1784SOL     hw 7134   6.287   2.489   5.725  0.4617 -0.2546 -0.0619
 1784SOL     hw 7135   6.198   2.403   5.638 -1.7575  2.7254 -0.9205
 1784SOL     vw 7136   6.264   2.458   5.646 -0.0579  0.7290 -0.3164
 1785SOL     ow 7137   5.475   0.817   6.259 -0.1280 -0.2324  0.3498
 1785SOL     hw 7138   5.399   0.874   6.270  0.5472  1.0704 -1.2583
 1785SOL     hw 7139   5.544   0.875   6.227  1.5987 -1.3600  1.8275
 1785SOL     vw 7140   5.474   0.832   6.256  0.1888 -0.2093  0.3324
 1786SOL     ow 7141   7.176   3.219   5.197 -0.7123  0.1371 -0.4959
 1786SOL     hw 7142   7.151   3.243   5.107 -3.8581 -0.2091  0.1535
 1786SOL     hw 7143   7.107   3.256   5.251 -0.0025 -1.4185  1.5919
 1786SOL     vw 7144   7.164   3.227   5.192 -1.0338 -0.1140 -0.1347
 1787SOL     ow 7145   6.500   3.919   0.031 -0.2387 -0.2371  0.9255
 1787SOL     hw 7146   6.454   3.928  -0.053  0.6029 -0.0909  0.4749
 1787SOL     hw 7147   6.432   3.890   0.092 -0.7711 -0.7544  0.1035
 1787SOL     vw 7148   6.485   3.917   0.028 -0.1976 -0.2860  0.7576
 1788SOL     ow 7149   4.980   4.753   3.153 -0.5377  1.1835 -0.7018
 1788SOL     hw 7150   4.981   4.844   3.183  0.4966  1.3878 -1.3110
 1788SOL     hw 7151   5.043   4.708   3.208 -3.8039 -0.1524  2.3325
 1788SOL     vw 7152   4.988   4.759   3.164 -0.8323  1.0345 -0.3817
 1789SOL     ow 7153   2.871   5.362   0.139  0.6657  0.1107  0.5937
 1789SOL     hw 7154   2.840   5.451   0.120 -1.6315 -0.5528  0.9940
 1789SOL     hw 7155   2.956   5.357   0.095  1.1905  2.7199  1.1275
 1789SOL     vw 7156   2.878   5.373   0.130  0.4319  0.3674  0.7169
 1790SOL     ow 7157   2.471   2.260   4.677 -0.1308 -0.0082  0.3912
 1790SOL     hw 7158   2.443   2.343   4.641  1.1719  0.5598  0.6264
 1790SOL     hw 7159   2.408   2.241   4.747 -0.8110  0.4430 -0.0887
 1790SOL     vw 7160   2.459   2.268   4.682 -0.0486  0.1264  0.3591
 1791SOL     ow 7161   2.778   4.899   2.997  0.0696 -0.4052 -0.8090
 1791SOL     hw 7162   2.758   4.886   2.905 -0.3707 -1.8891 -0.5329
 1791SOL     hw 7163   2.707   4.954   3.030  0.4391  0.4539 -1.4276
 1791SOL     vw 7164   2.766   4.905   2.989  0.0603 -0.4876 -0.8543
 1792SOL     ow 7165   0.290   2.601   3.318 -0.7366 -0.0539 -0.2008
 1792SOL     hw 7166   0.249   2.678   3.281 -0.8328  0.0121  0.0402
 1792SOL     hw 7167   0.220   2.536   3.322 -0.7321 -0.0549 -0.1232
 1792SOL     vw 7168   0.276   2.602   3.314 -0.7487 -0.0454 -0.1588
 1793SOL     ow 7169   4.561   5.672   4.893 -0.1139  0.8227 -0.0573
 1793SOL     hw 7170   4.477   5.689   4.851 -1.0771  2.3989  2.3245
 1793SOL     hw 7171   4.608   5.755   4.885  0.9935  0.1641 -0.7515
 1793SOL     vw 7172   4.556   5.685   4.886 -0.0949  0.9437  0.1655
 1794SOL     ow 7173   5.644   2.318   2.581  0.4626  1.0558 -0.1696
 1794SOL     hw 7174   5.657   2.225   2.562 -0.1501  0.5827  1.5128
 1794SOL     hw 7175   5.554   2.336   2.555  0.3813  1.0113  0.0775
 1794SOL     vw 7176   5.634   2.308   2.575  0.3712  0.9875  0.0851
 1795SOL     ow 7177   0.069   5.036   0.669  0.3680  0.1466 -0.3324
 1795SOL     hw 7178   0.059   5.085   0.750  3.0250  0.9771 -0.4118
 1795SOL     hw 7179   0.148   4.983   0.682 -0.6158 -1.7038 -1.4476
 1795SOL     vw 7180   0.078   5.035   0.681  0.5888  0.0122 -0.4900
 1796SOL     ow 7181   3.593   1.897   4.465 -0.6875  0.5684 -0.7009
 1796SOL     hw 7182   3.687   1.914   4.468 -0.8195  1.3174  2.7057
 1796SOL     hw 7183   3.554   1.983   4.450 -0.8979  0.2099 -2.4641
 1796SOL     vw 7184   3.600   1.911   4.463 -0.7328  0.6199 -0.4842
 1797SOL     ow 7185   6.315   0.245   6.272  0.3896  0.0323  0.4341
 1797SOL     hw 7186   6.359   0.330   6.266  0.8997 -0.0508  2.2742
 1797SOL     hw 7187   6.222   0.265   6.258  0.6326  0.6999 -0.2956
 1797SOL     vw 7188   6.308   0.259   6.269  0.4890  0.1094  0.5810
 1798SOL     ow 7189   2.451   3.773   2.671 -0.1342 -1.3631 -0.4398
 1798SOL     hw 7190   2.412   3.753   2.756  2.5663  1.5926  1.7347
 1798SOL     hw 7191   2.384   3.826   2.627 -1.4143 -2.5733 -0.0333
 1798SOL     vw 7192   2.437   3.777   2.677  0.0532 -1.1328 -0.0992
 1799SOL     ow 7193   2.427   0.266   6.322 -0.0081 -0.2070 -0.3919
 1799SOL     hw 7194   2.485   0.192   6.338 -1.8175 -2.0259 -1.6949
 1799SOL     hw 7195   2.384   0.283   6.406  1.0821 -0.0031  0.1342
 1799SOL     vw 7196   2.429   0.259   6.335 -0.1030 -0.4201 -0.4942
 1800SOL     ow 7197   0.894   3.768   1.574 -0.3125 -0.4417  0.1742
 1800SOL     hw 7198   0.838   3.844   1.558  0.4198 -0.4382 -3.0591
 1800SOL     hw 7199   0.837   3.693   1.561 -0.1765 -0.4224 -0.6018
 1800SOL     vw 7200   0.879   3.768   1.570 -0.1979 -0.4387 -0.3548
 1801SOL     ow 7201   5.532   5.978   6.498  0.0238 -0.3111  0.3690
 1801SOL     hw 7202   5.611   5.934   6.464  0.9194  0.0953  1.8532
 1801SOL     hw 7203   5.537   5.967   6.593 -0.6175  1.5218  0.6502
 1801SOL     vw 7204   5.543   5.971   6.506  0.0575 -0.0157  0.6020
 1802SOL     ow 7205   3.375   3.142   4.713 -0.2407  0.4144 -0.4730
 1802SOL     hw 7206   3.311   3.213   4.704 -0.5551  0.0243 -1.5216
 1802SOL     hw 7207   3.453   3.174   4.667 -1.8006 -1.5287 -5.0954
 1802SOL     vw 7208   3.377   3.156   4.706 -0.4879  0.1067 -1.2212
 1803SOL     ow 7209   0.815   4.105   4.628  1.1791  0.4209 -0.3073
 1803SOL     hw 7210   0.766   4.179   4.593  0.2006  0.3785  0.9205
 1803SOL     hw 7211   0.901   4.141   4.649  0.7525  1.1799  0.1519
 1803SOL     vw 7212   0.820   4.119   4.626  0.9937  0.5155 -0.0846
 1804SOL     ow 7213   5.884   6.379   6.117  0.4349 -0.1431 -0.2098
 1804SOL     hw 7214   5.956   6.320   6.139 -0.5850 -0.8169  1.5622
 1804SOL     hw 7215   5.805   6.326   6.131 -0.4408  0.6591 -1.8160
 1804SOL     vw 7216   5.883   6.364   6.121  0.1843 -0.1261 -0.1881
 1805SOL     ow 7217   3.446   5.582   3.743 -0.0970 -0.5061  0.7615
 1805SOL     hw 7218   3.438   5.665   3.696 -1.0477 -0.4427  1.0151
 1805SOL     hw 7219   3.375   5.529   3.710  1.6382 -1.9737 -0.8375
 1805SOL     vw 7220   3.436   5.586   3.733  0.0066 -0.6912  0.5841
 1806SOL     ow 7221   6.405   0.863   5.711  0.2196  0.3986 -0.0178
 1806SOL     hw 7222   6.377   0.913   5.635 -3.6692  1.6631  1.9551
 1806SOL     hw 7223   6.372   0.775   5.696  0.3369  0.3908 -0.2251
 1806SOL     vw 7224   6.397   0.858   5.699 -0.2780  0.5644  0.2151
 1807SOL     ow 7225   2.236   2.824   0.507 -0.5718  0.6948  0.2542
 1807SOL     hw 7226   2.267   2.824   0.597  0.3142  0.9132 -0.0416
 1807SOL     hw 7227   2.142   2.838   0.514 -0.4222  1.3639  1.1130
 1807SOL     vw 7228   2.228   2.826   0.520 -0.4351  0.8117  0.3285
 1808SOL     ow 7229   4.524   2.552   0.005  0.5061  0.3176 -0.6710
 1808SOL     hw 7230   4.490   2.463  -0.008  1.1022 -0.0607  0.2458
 1808SOL     hw 7231   4.494   2.576   0.093  0.7850  0.8259 -0.7124
 1808SOL     vw 7232   4.515   2.543   0.015  0.6218  0.3347 -0.5555
 1809SOL     ow 7233   2.755   2.403   2.064 -0.7212  0.5070 -0.0954
 1809SOL     hw 7234   2.795   2.456   2.133 -0.6626 -0.5430  0.6998
 1809SOL     hw 7235   2.666   2.386   2.095 -1.0069  0.7955 -0.7248
 1809SOL     vw 7236   2.748   2.408   2.077 -0.7511  0.4065 -0.0736
 1810SOL     ow 7237   4.751   1.664   1.595 -0.6819 -0.2918  0.0482
 1810SOL     hw 7238   4.786   1.699   1.513  1.8670 -1.4248  0.5719
 1810SOL     hw 7239   4.724   1.575   1.573 -1.5407 -0.0605  0.1084
 1810SOL     vw 7240   4.752   1.657   1.581 -0.4590 -0.4107  0.1253
 1811SOL     ow 7241   6.445   1.184   1.641  0.3354 -0.2937 -0.1554
 1811SOL     hw 7242   6.350   1.169   1.642  0.2695 -0.1036 -1.6423
 1811SOL     hw 7243   6.469   1.179   1.549  2.1745 -2.8227  0.3357
 1811SOL     vw 7244   6.435   1.181   1.629  0.5693 -0.6022 -0.2868
 1812SOL     ow 7245   0.925   4.284   6.727 -0.4872 -0.1563  0.3496
 1812SOL     hw 7246   0.833   4.266   6.707 -0.5736  1.8899 -1.4106
 1812SOL     hw 7247   0.925   4.317   6.817 -1.3741 -0.6099  0.5232
 1812SOL     vw 7248   0.913   4.286   6.736 -0.6156  0.0536  0.1402
 1813SOL     ow 7249   0.114   1.982   4.365  0.0962 -0.0837  0.2462
 1813SOL     hw 7250   0.141   2.072   4.381 -0.2346  0.1120 -0.2617
 1813SOL     hw 7251   0.196   1.932   4.363  0.2014 -0.0269  1.8583
 1813SOL     vw 7252   0.128   1.988   4.366  0.0664 -0.0504  0.3917
 1814SOL     ow 7253   1.239   2.154   1.339  0.5095 -0.0077  0.2505
 1814SOL     hw 7254   1.192   2.211   1.279  1.6817  0.0066 -0.6968
 1814SOL     hw 7255   1.184   2.075   1.345  1.0093 -0.5875 -1.9693
 1814SOL     vw 7256   1.226   2.151   1.332  0.7301 -0.0824 -0.1674
 1815SOL     ow 7257   1.851   6.022   0.476  0.1883 -0.4829  0.2582
 1815SOL     hw 7258   1.765   5.981   0.482  0.3156 -0.8854 -0.5679
 1815SOL     hw 7259   1.901   5.984   0.548 -0.5296  0.2991  1.2066
 1815SOL     vw 7260   1.847   6.012   0.486  0.1104 -0.4327  0.2744
 1816SOL     ow 7261   7.198   5.893   4.360 -0.2058 -0.2205 -0.7797
 1816SOL     hw 7262   7.198   5.890   4.264  0.6671  1.2994 -0.8472
 1816SOL     hw 7263   7.176   5.803   4.386 -1.4296 -0.4352 -2.3838
 1816SOL     vw 7264   7.195   5.880   4.351 -0.2520 -0.0484 -1.0002
 1817SOL     ow 7265   3.990   2.729   3.783  0.5519 -0.1981  0.1842
 1817SOL     hw 7266   3.922   2.795   3.795  0.6809  0.0389 -0.3693
 1817SOL     hw 7267   4.007   2.728   3.689  0.5887 -0.9863  0.1934
 1817SOL     vw 7268   3.984   2.737   3.772  0.5738 -0.2707  0.1122
 1818SOL     ow 7269   4.239   2.837   1.514  0.0470  0.4677 -0.6022
 1818SOL     hw 7270   4.151   2.871   1.495  0.2900  1.5325  0.0804
 1818SOL     hw 7271   4.291   2.865   1.439  0.5704  2.9897  0.5716
 1818SOL     vw 7272   4.234   2.845   1.502  0.1483  0.9409 -0.3573
 1819SOL     ow 7273   1.533   1.290   1.898 -0.0487  0.2327  0.6957
 1819SOL     hw 7274   1.593   1.291   1.824  1.6520  1.6122  1.9869
 1819SOL     hw 7275   1.459   1.238   1.869 -0.4467  2.4010 -2.7251
 1819SOL     vw 7276   1.531   1.283   1.885  0.1231  0.7008  0.4148
 1820SOL     ow 7277   0.435   4.623   5.007 -0.1738  0.8231  0.4566
 1820SOL     hw 7278   0.372   4.559   5.040  1.4669  0.1140  2.4277
 1820SOL     hw 7279   0.488   4.574   4.944  0.3552  0.5144  1.1223
 1820SOL     vw 7280   0.434   4.608   5.003  0.1125  0.6888  0.8047
 1821SOL     ow 7281   4.406   2.301   7.245 -0.1227  0.3090  0.6480
 1821SOL     hw 7282   4.334   2.355   7.277 -1.4543 -0.6616 -0.6148
 1821SOL     hw 7283   4.454   2.276   7.325 -1.2712  0.8397  1.5336
 1821SOL     vw 7284   4.403   2.305   7.260 -0.4499  0.2511  0.5982
 1822SOL     ow 7285   5.927   5.485   0.218  0.0488  0.1796  0.4768
 1822SOL     hw 7286   5.881   5.431   0.283 -1.3334 -0.2455 -0.8052
 1822SOL     hw 7287   6.018   5.456   0.223 -0.2052 -0.4773  1.5847
 1822SOL     vw 7288   5.933   5.474   0.227 -0.1669  0.0372  0.4538
 1823SOL     ow 7289   4.593   3.116   6.547 -0.4381  0.0798  0.4172
 1823SOL     hw 7290   4.647   3.094   6.471 -0.5089 -0.8842  0.6325
 1823SOL     hw 7291   4.655   3.124   6.619 -0.4543  0.2028  0.4170
 1823SOL     vw 7292   4.608   3.114   6.546 -0.4497 -0.0310  0.4454
 1824SOL     ow 7293   1.126   2.155   4.645 -0.2178  0.0331 -0.0734
 1824SOL     hw 7294   1.053   2.130   4.589 -0.7600 -0.3140  0.7692
 1824SOL     hw 7295   1.180   2.212   4.590 -0.3187 -0.9156 -1.1836
 1824SOL     vw 7296   1.123   2.159   4.631 -0.3026 -0.1379 -0.1085
 1825SOL     ow 7297   3.146   6.879   4.154  0.2547  0.2543 -0.1603
 1825SOL     hw 7298   3.164   6.790   4.184  3.1892  1.2809  1.5466
 1825SOL     hw 7299   3.128   6.869   4.060  0.1756 -2.1282  0.0430
 1825SOL     vw 7300   3.146   6.866   4.146  0.6315  0.0756  0.0916
 1826SOL     ow 7301   2.826   6.368   6.546  0.3022 -0.3736 -0.0575
 1826SOL     hw 7302   2.913   6.389   6.512 -0.1034 -0.5892 -1.2502
 1826SOL     hw 7303   2.842   6.309   6.619  1.1353 -0.7877 -0.5668
 1826SOL     vw 7304   2.839   6.363   6.551  0.3586 -0.4566 -0.2820
 1827SOL     ow 7305   5.954   3.211   3.641  0.2108 -0.8494  0.5645
 1827SOL     hw 7306   5.906   3.164   3.573 -0.0874 -0.1381  0.2783
 1827SOL     hw 7307   6.035   3.239   3.599  0.0495 -0.4528  0.5167
 1827SOL     vw 7308   5.958   3.208   3.627  0.1502 -0.7032  0.5203
 1828SOL     ow 7309   6.969   4.766   4.149  0.3292 -0.4224  0.3025
 1828SOL     hw 7310   6.927   4.735   4.069  1.4411 -1.1401 -0.0177
 1828SOL     hw 7311   6.902   4.757   4.216 -0.5089 -0.1384 -0.4688
 1828SOL     vw 7312   6.954   4.761   4.147  0.3653 -0.4795  0.1585
 1829SOL     ow 7313   1.427   5.924   1.175 -0.0419  0.4172 -0.6768
 1829SOL     hw 7314   1.468   5.912   1.261  0.2175 -1.9036 -1.0604
 1829SOL     hw 7315   1.453   6.012   1.148 -1.2167  1.7826  2.1694
 1829SOL     vw 7316   1.435   5.934   1.183 -0.1627  0.2909 -0.3518
 1830SOL     ow 7317   6.590   3.505   5.230  0.2954 -0.6056  0.3596
 1830SOL     hw 7318   6.627   3.438   5.172 -0.7613  0.2789 -1.4281
 1830SOL     hw 7319   6.666   3.547   5.270  1.1497 -0.4431 -1.3403
 1830SOL     vw 7320   6.605   3.501   5.228  0.2685 -0.4675 -0.1004
 1831SOL     ow 7321   2.300   4.969   1.028  0.1429  0.1237 -0.4734
 1831SOL     hw 7322   2.285   5.010   0.943 -1.1521  1.6169  0.4335
 1831SOL     hw 7323   2.342   5.037   1.081  0.7450 -0.7161  0.1678
 1831SOL     vw 7324   2.304   4.984   1.024  0.0514  0.2100 -0.2692
 1832SOL     ow 7325   6.323   4.004   2.156  0.0632  0.5919  0.3363
 1832SOL     hw 7326   6.313   4.046   2.071 -0.6539  1.6680  0.9290
 1832SOL     hw 7327   6.354   4.074   2.214 -0.5717  0.1776  1.2057
 1832SOL     vw 7328   6.326   4.019   2.152 -0.1152  0.6795  0.5292
 1833SOL     ow 7329   5.843   2.926   6.696 -0.3204  0.5213 -0.9251
 1833SOL     hw 7330   5.818   2.874   6.620 -0.8519  2.0270 -1.8185
 1833SOL     hw 7331   5.894   2.866   6.751  0.6143 -0.4251 -2.7501
 1833SOL     vw 7332   5.846   2.911   6.693 -0.2673  0.5951 -1.2836
 1834SOL     ow 7333   0.122   5.209   0.442  0.0800  0.2093  0.2705
 1834SOL     hw 7334   0.119   5.295   0.485  0.5067 -0.4181  1.6253
 1834SOL     hw 7335   0.213   5.200   0.413  0.3805 -0.3090  1.3140
 1834SOL     vw 7336   0.133   5.219   0.444  0.1760  0.0582  0.5870
 1835SOL     ow 7337   6.755   2.203   0.797 -0.0788  0.6989  0.2246
 1835SOL     hw 7338   6.824   2.181   0.859  0.9552  2.5633 -0.2020
 1835SOL     hw 7339   6.789   2.177   0.712 -1.0511 -0.8569  0.2786
 1835SOL     vw 7340   6.768   2.197   0.794 -0.0706  0.7397  0.1754
 1836SOL     ow 7341   2.627   3.497   2.644  0.8023  0.7261  0.1869
 1836SOL     hw 7342   2.677   3.538   2.715  1.1141  0.5781  0.0553
 1836SOL     hw 7343   2.661   3.407   2.640  0.4209  0.5797  0.1924
 1836SOL     vw 7344   2.638   3.490   2.653  0.7931  0.6872  0.1701
 1837SOL     ow 7345   2.090   1.537   6.820  0.4168  0.3628  0.1875
 1837SOL     hw 7346   2.047   1.489   6.749 -2.5004  0.3110  1.8167
 1837SOL     hw 7347   2.117   1.620   6.781  0.7144 -0.4678 -1.4213
 1837SOL     vw 7348   2.088   1.542   6.806  0.0710  0.2464  0.1900
 1838SOL     ow 7349   5.749   0.750   6.356  0.2025  0.5996  0.4851
 1838SOL     hw 7350   5.828   0.714   6.396  1.8703  1.3196 -1.9714
 1838SOL     hw 7351   5.770   0.841   6.336 -0.8639  0.5349 -1.1429
 1838SOL     vw 7352   5.762   0.757   6.359  0.2820  0.6860 -0.0539
 1839SOL     ow 7353   0.492   2.021   6.491  0.0053  0.1143  0.2458
 1839SOL     hw 7354   0.424   1.955   6.478  0.6342 -0.4584 -0.2072
 1839SOL     hw 7355   0.543   2.019   6.410 -0.2185  1.4628  0.0461
 1839SOL     vw 7356   0.490   2.012   6.478  0.0588  0.2166  0.1595
 1840SOL     ow 7357   0.127   2.803   6.102 -0.6791 -0.0999 -0.4715
 1840SOL     hw 7358   0.155   2.837   6.187  0.5037 -0.6276 -0.6268
 1840SOL     hw 7359   0.047   2.851   6.082 -0.6525  0.4511  0.6667
 1840SOL     vw 7360   0.121   2.814   6.110 -0.5195 -0.0969 -0.3417
 1841SOL     ow 7361   4.789   1.350   6.847 -0.4499  0.1108  0.4036
 1841SOL     hw 7362   4.874   1.374   6.884 -1.4174  1.3513  1.9192
 1841SOL     hw 7363   4.763   1.272   6.896 -1.0001  0.8066  1.2335
 1841SOL     vw 7364   4.797   1.343   6.858 -0.6504  0.3663  0.7131
 1842SOL     ow 7365   6.621   6.084   1.263  0.3710  0.4901  0.2629
 1842SOL     hw 7366   6.703   6.133   1.269 -0.3827  1.7521  0.5921
 1842SOL     hw 7367   6.649   5.994   1.244  1.7874  1.0509 -0.5245
 1842SOL     vw 7368   6.636   6.079   1.261  0.4585  0.7303  0.2024
 1843SOL     ow 7369   0.654   2.468   5.480  0.4164 -0.5404  0.7599
 1843SOL     hw 7370   0.582   2.529   5.492  1.5055  0.7028  1.2554
 1843SOL     hw 7371   0.723   2.520   5.438  0.1475 -2.3408 -2.2163
 1843SOL     vw 7372   0.654   2.483   5.476  0.5246 -0.6139  0.4327
 1844SOL     ow 7373   5.726   1.961   0.739  0.2125  0.2591 -0.6711
 1844SOL     hw 7374   5.647   1.998   0.699 -2.6059 -2.8661  1.3940
 1844SOL     hw 7375   5.736   1.876   0.697 -0.2435 -1.2210  1.9889
 1844SOL     vw 7376   5.717   1.955   0.729 -0.2196 -0.3486 -0.0477
 1845SOL     ow 7377   0.062   1.372   5.990  0.5955 -0.8921 -0.4273
 1845SOL     hw 7378  -0.018   1.398   5.944 -0.3895 -0.6556  1.3164
 1845SOL     hw 7379   0.130   1.373   5.923 -0.2376  1.8977 -1.3799
 1845SOL     vw 7380   0.060   1.376   5.975  0.3556 -0.4928 -0.3228
 1846SOL     ow 7381   2.407   5.483   7.180  0.0358 -0.1022  0.0982
 1846SOL     hw 7382   2.426   5.497   7.087 -0.7002 -0.1720 -0.0608
 1846SOL     hw 7383   2.404   5.571   7.217 -0.1470 -0.0551 -0.0322
 1846SOL     vw 7384   2.409   5.497   7.172 -0.0855 -0.1049  0.0598
 1847SOL     ow 7385   4.065   4.561   1.862  0.0177 -0.0501 -0.0217
 1847SOL     hw 7386   4.082   4.487   1.920 -1.2815  0.7335  1.4341
 1847SOL     hw 7387   3.976   4.589   1.885  0.9249  2.7356  0.3624
 1847SOL     vw 7388   4.055   4.555   1.873 -0.0339  0.4208  0.2211
 1848SOL     ow 7389   6.153   7.183   1.993  0.3933 -0.6376  0.6886
 1848SOL     hw 7390   6.176   7.253   1.932 -1.9080 -2.9324 -3.2869
 1848SOL     hw 7391   6.229   7.124   1.991 -0.4776 -1.8471 -2.1233
 1848SOL     vw 7392   6.166   7.184   1.985 -0.0253 -1.0998 -0.2068
 1849SOL     ow 7393   2.142   2.864   7.093 -0.3933 -0.1505  0.8677
 1849SOL     hw 7394   2.187   2.941   7.058 -1.5542 -0.1125 -0.6429
 1849SOL     hw 7395   2.179   2.852   7.180  1.5329  0.6852  0.2235
 1849SOL     vw 7396   2.153   2.872   7.100 -0.2923 -0.0352  0.5834
 1850SOL     ow 7397   1.750   2.489   6.163 -0.1331 -0.1539 -0.3113
 1850SOL     hw 7398   1.679   2.426   6.175  0.3916 -0.8592 -0.8415
 1850SOL     hw 7399   1.762   2.494   6.068  0.7711 -0.3286 -0.2145
 1850SOL     vw 7400   1.742   2.482   6.152  0.0554 -0.2701 -0.3688
 1851SOL     ow 7401   4.537   3.999   5.356 -0.2228  0.3639  0.0627
 1851SOL     hw 7402   4.482   4.062   5.310  0.1199 -0.8306 -2.1643
 1851SOL     hw 7403   4.623   4.007   5.314  0.5425  0.1977  1.5154
 1851SOL     vw 7404   4.541   4.008   5.344 -0.0770  0.1843 -0.0396
 1852SOL     ow 7405   2.664   5.681   4.717  0.3504 -0.3858 -0.3929
 1852SOL     hw 7406   2.595   5.682   4.784  0.4428 -1.0324 -0.2863
 1852SOL     hw 7407   2.625   5.636   4.642  0.2299  0.3844 -0.7994
 1852SOL     vw 7408   2.650   5.675   4.716  0.3468 -0.3695 -0.4325
 1853SOL     ow 7409   4.562   3.171   4.708  0.1217  0.1328 -0.1759
 1853SOL     hw 7410   4.594   3.081   4.701 -0.2192  0.0954 -1.7080
 1853SOL     hw 7411   4.579   3.196   4.798  1.5514 -0.9787 -0.1049
 1853SOL     vw 7412   4.568   3.162   4.719  0.2656 -0.0188 -0.3688
 1854SOL     ow 7413   0.216   3.276   0.885 -0.5135  0.3237 -0.0150
 1854SOL     hw 7414   0.183   3.296   0.973 -0.6887  0.5761 -0.1395
 1854SOL     hw 7415   0.175   3.193   0.862  1.8741 -1.3967  1.3995
 1854SOL     vw 7416   0.207   3.267   0.894 -0.2216  0.1299  0.1552
 1855SOL     ow 7417   2.125   0.242   3.372  0.2192 -0.4835  0.7703
 1855SOL     hw 7418   2.043   0.232   3.324 -0.6496 -1.8621  2.4294
 1855SOL     hw 7419   2.118   0.181   3.446  1.3684  1.6879  2.8187
 1855SOL     vw 7420   2.113   0.233   3.376  0.2562 -0.3789  1.2594
 1856SOL     ow 7421   1.330   5.970   2.304 -0.2220  0.5302 -0.2982
 1856SOL     hw 7422   1.337   5.970   2.209  2.1566 -1.1958 -0.1975
 1856SOL     hw 7423   1.408   6.017   2.334  1.0734 -2.1239  0.7797
 1856SOL     vw 7424   1.341   5.976   2.296  0.2627 -0.0477 -0.1427
 1857SOL     ow 7425   3.535   3.938   0.430 -0.1413  0.3274  0.0316
 1857SOL     hw 7426   3.488   3.901   0.504  0.8947 -0.5740  0.2628
 1857SOL     hw 7427   3.623   3.957   0.463 -0.2139  1.6730 -0.4778
 1857SOL     vw 7428   3.541   3.936   0.444 -0.0142  0.3861 -0.0051
 1858SOL     ow 7429   3.045   1.560   2.781 -0.4982 -0.2492  0.9919
 1858SOL     hw 7430   2.954   1.542   2.804 -1.6466  1.2995 -1.7783
 1858SOL     hw 7431   3.053   1.531   2.690  1.4363  0.7078  0.8008
 1858SOL     vw 7432   3.034   1.554   2.772 -0.3945  0.0814  0.6013
 1859SOL     ow 7433   3.239   4.943   3.034  0.1531  0.3597 -0.7080
 1859SOL     hw 7434   3.236   5.037   3.019 -0.1092  0.3512 -0.7105
 1859SOL     hw 7435   3.156   4.922   3.076  0.6839  0.3086  0.3503
 1859SOL     vw 7436   3.228   4.952   3.037  0.1886  0.3519 -0.5686
 1860SOL     ow 7437   2.185   1.902   4.657 -0.2386  0.1721  0.2197
 1860SOL     hw 7438   2.220   1.940   4.577 -0.2933  1.1399  0.6396
 1860SOL     hw 7439   2.107   1.954   4.676 -1.0364 -0.9509  0.1476
 1860SOL     vw 7440   2.179   1.914   4.649 -0.3510  0.1516  0.2658
 1861SOL     ow 7441   4.640   5.798   3.821 -0.6623  0.6607  0.1974
 1861SOL     hw 7442   4.570   5.782   3.884  0.0606 -3.8041  0.2239
 1861SOL     hw 7443   4.622   5.736   3.750  2.4250  0.3755 -0.4607
 1861SOL     vw 7444   4.628   5.787   3.820 -0.1597  0.0341  0.1141
 1862SOL     ow 7445   4.759   1.589   4.750 -0.1714  0.0365 -0.3464
 1862SOL     hw 7446   4.854   1.589   4.764 -0.2365 -0.1243  0.1244
 1862SOL     hw 7447   4.748   1.561   4.659  0.1766 -1.5860  0.0814
 1862SOL     vw 7448   4.770   1.585   4.740 -0.1340 -0.1988 -0.2279
 1863SOL     ow 7449   4.910   7.075   0.674 -0.2648  0.0322  0.8125
 1863SOL     hw 7450   4.888   7.124   0.753 -0.5208 -0.4652  1.0576
 1863SOL     hw 7451   5.005   7.064   0.678 -0.0868  1.2996  0.2785
 1863SOL     vw 7452   4.919   7.080   0.685 -0.2754  0.1335  0.7744
 1864SOL     ow 7453   2.111   5.891   5.445  0.2157  0.6073  0.0461
 1864SOL     hw 7454   2.194   5.901   5.491  0.6638 -4.2047  0.8450
 1864SOL     hw 7455   2.136   5.874   5.354 -0.2962  3.6947 -0.7525
 1864SOL     vw 7456   2.125   5.890   5.439  0.2073  0.3798  0.0463
 1865SOL     ow 7457   3.899   1.888   0.631  0.3106 -1.0961  0.2045
 1865SOL     hw 7458   3.911   1.928   0.717 -0.2162  1.6193 -0.8905
 1865SOL     hw 7459   3.896   1.794   0.648  0.6258 -0.6598  3.0796
 1865SOL     vw 7460   3.901   1.881   0.644  0.2826 -0.6803  0.4393
 1866SOL     ow 7461   5.654   4.537   6.121  0.0887 -0.0594  0.5324
 1866SOL     hw 7462   5.665   4.455   6.169 -0.4398  0.3720  1.4258
 1866SOL     hw 7463   5.729   4.542   6.062  1.7374  0.2137  2.5454
 1866SOL     vw 7464   5.665   4.527   6.119  0.2363  0.0336  0.9160
 1867SOL     ow 7465   4.959   6.351   4.019 -0.1307 -0.5001 -0.3301
 1867SOL     hw 7466   4.887   6.352   3.956 -0.0319 -1.1681 -0.4630
 1867SOL     hw 7467   4.928   6.404   4.092 -0.1567  0.4800 -1.0432
 1867SOL     vw 7468   4.945   6.358   4.020 -0.1211 -0.4590 -0.4416
 1868SOL     ow 7469   0.968   1.206   2.161 -0.1498 -0.0169  0.2148
 1868SOL     hw 7470   1.023   1.260   2.105 -0.1154  1.8062  1.9157
 1868SOL     hw 7471   0.938   1.135   2.104  2.6762 -0.2147 -1.1656
 1868SOL     vw 7472   0.971   1.204   2.146  0.2276  0.1976  0.2570
 1869SOL     ow 7473   3.525   2.521   4.034 -0.2346 -0.2164  0.2384
 1869SOL     hw 7474   3.524   2.499   3.941  0.1883  1.0876 -0.1060
 1869SOL     hw 7475   3.575   2.451   4.076  0.2672 -0.3870 -0.6392
 1869SOL     vw 7476   3.531   2.509   4.028 -0.1125 -0.0670  0.0772
 1870SOL     ow 7477   0.201   0.028   1.754 -0.0906 -0.1825  0.2508
 1870SOL     hw 7478   0.201   0.101   1.817 -1.3628 -1.0003  1.2629
 1870SOL     hw 7479   0.177  -0.049   1.807  0.1718 -1.1528 -0.9896
 1870SOL     vw 7480   0.198   0.027   1.770 -0.2239 -0.4184  0.2207
 1871SOL     ow 7481   4.735   1.912   0.662  0.5126  0.0927  0.1776
 1871SOL     hw 7482   4.734   1.822   0.628  2.3795 -0.0036  0.2461
 1871SOL     hw 7483   4.794   1.907   0.738  1.6505  1.5918 -0.5540
 1871SOL     vw 7484   4.743   1.899   0.668  0.9089  0.2778  0.0901
 1872SOL     ow 7485   4.358   3.184   1.475 -0.5408  0.6617 -0.0473
 1872SOL     hw 7486   4.406   3.127   1.415 -1.1294  0.1170 -0.0066
 1872SOL     hw 7487   4.268   3.183   1.442 -0.8220  0.5513  0.6954
 1872SOL     vw 7488   4.352   3.176   1.463 -0.6557  0.5754  0.0561
 1873SOL     ow 7489   1.429   0.332   3.930 -0.1065  0.0171 -0.0514
 1873SOL     hw 7490   1.498   0.277   3.892 -0.0239 -0.5835  0.9337
 1873SOL     hw 7491   1.439   0.321   4.024 -1.1611  0.4130  0.1181
 1873SOL     vw 7492   1.440   0.323   3.937 -0.2347 -0.0099  0.1009
 1874SOL     ow 7493   0.196   3.659   6.704  0.0526 -0.1015  0.3092
 1874SOL     hw 7494   0.183   3.728   6.769 -0.0855 -0.7399  0.9842
 1874SOL     hw 7495   0.248   3.700   6.635  1.1929  0.3082  1.3625
 1874SOL     vw 7496   0.201   3.673   6.704  0.1848 -0.1316  0.5372
 1875SOL     ow 7497   2.322   6.722   0.873 -0.8193  1.1692  0.2196
 1875SOL     hw 7498   2.256   6.752   0.811 -1.1799  1.5405  0.7692
 1875SOL     hw 7499   2.383   6.671   0.821 -1.4967  0.8862 -0.3140
 1875SOL     vw 7500   2.321   6.719   0.858 -0.9562  1.1809  0.2217
 1876SOL     ow 7501   1.538   4.811   2.065  0.7603 -0.3356  0.1850
 1876SOL     hw 7502   1.480   4.806   1.989  0.1994  0.5538  0.5320
 1876SOL     hw 7503   1.624   4.789   2.031  0.9094  1.9710 -1.1746
 1876SOL     vw 7504   1.542   4.808   2.051  0.7060  0.0861  0.0515
 1877SOL     ow 7505   6.257   4.819   3.867  0.0185 -0.7660  0.7104
 1877SOL     hw 7506   6.215   4.850   3.947 -0.8343 -1.9835  0.7695
 1877SOL     hw 7507   6.186   4.777   3.818  0.0300  1.8096 -1.7220
 1877SOL     vw 7508   6.242   4.817   3.871 -0.0920 -0.5870  0.3972
 1878SOL     ow 7509   4.458   5.387   1.577  0.0977 -0.5606  0.2456
 1878SOL     hw 7510   4.464   5.300   1.537  0.2896 -0.8041  0.7962
 1878SOL     hw 7511   4.366   5.411   1.567  0.1593 -0.5701 -0.4318
 1878SOL     vw 7512   4.446   5.378   1.570  0.1311 -0.5941  0.2288
 1879SOL     ow 7513   1.381   1.062   2.656 -0.5210 -0.2544  0.3296
 1879SOL     hw 7514   1.431   1.089   2.578  1.3389 -0.9340  1.2373
 1879SOL     hw 7515   1.387   1.138   2.715  2.0844 -1.3540  1.6351
 1879SOL     vw 7516   1.389   1.076   2.653  0.0681 -0.4891  0.6217
 1880SOL     ow 7517   0.430   2.266   5.556 -0.2708 -0.4101  0.3802
 1880SOL     hw 7518   0.349   2.316   5.569  1.3685  2.3405  0.9434
 1880SOL     hw 7519   0.440   2.214   5.635 -0.5752  0.6872  1.1656
 1880SOL     vw 7520   0.421   2.266   5.568 -0.0947  0.0976  0.5581
 1881SOL     ow 7521   5.802   4.872   1.411 -0.5884 -0.2624 -0.2294
 1881SOL     hw 7522   5.881   4.881   1.358  0.2380  0.8465  1.1120
 1881SOL     hw 7523   5.755   4.955   1.398 -0.2514  0.1242  0.9349
 1881SOL     vw 7524   5.806   4.884   1.402 -0.4349 -0.0648  0.1011
 1882SOL     ow 7525   2.823   0.876   0.114  0.1443 -0.4683  0.0389
 1882SOL     hw 7526   2.793   0.967   0.116 -1.0942 -0.8301 -0.8053
 1882SOL     hw 7527   2.758   0.828   0.165 -0.5079 -1.2008 -1.4195
 1882SOL     vw 7528   2.810   0.882   0.121 -0.1053 -0.6127 -0.2649
 1883SOL     ow 7529   6.026   6.174   7.139  0.1157  0.1346  0.1120
 1883SOL     hw 7530   5.939   6.190   7.103  0.3133  0.1192 -0.3760
 1883SOL     hw 7531   6.060   6.260   7.161  1.0544  0.4303 -2.2189
 1883SOL     vw 7532   6.019   6.187   7.137  0.2656  0.1717 -0.2599
 1884SOL     ow 7533   7.136   6.146   6.415 -0.0134  0.1004 -0.1672
 1884SOL     hw 7534   7.171   6.071   6.464  0.0512 -1.7785 -2.8440
 1884SOL     hw 7535   7.041   6.133   6.418  0.0359 -0.9750 -1.7569
 1884SOL     vw 7536   7.128   6.134   6.422  0.0017 -0.2894 -0.7300
 1885SOL     ow 7537   4.797   1.737   2.579  0.5702 -0.1097 -0.0740
 1885SOL     hw 7538   4.734   1.691   2.524 -2.2773 -0.0364  2.8229
 1885SOL     hw 7539   4.778   1.830   2.564  2.7221  0.1001 -1.9989
 1885SOL     vw 7540   4.786   1.744   2.570  0.4787 -0.0724  0.0542
 1886SOL     ow 7541   0.836   0.165   2.857  0.0735 -0.1671  0.0357
 1886SOL     hw 7542   0.753   0.155   2.904 -0.1224  1.5404  0.1085
 1886SOL     hw 7543   0.824   0.113   2.777  0.1357 -2.5020  1.4270
 1886SOL     vw 7544   0.823   0.157   2.852  0.0558 -0.2498  0.2289
 1887SOL     ow 7545   2.858   4.894   1.287  0.0517  0.2918 -0.5888
 1887SOL     hw 7546   2.934   4.914   1.233 -0.5927 -0.4083 -1.7974
 1887SOL     hw 7547   2.820   4.979   1.310  2.0818  0.7484  1.4104
 1887SOL     vw 7548   2.863   4.907   1.283  0.2345  0.2594 -0.4845
 1888SOL     ow 7549   4.805   3.701   3.207  0.3248 -0.5768 -0.1161
 1888SOL     hw 7550   4.887   3.702   3.257 -0.4065  0.8243  1.1355
 1888SOL     hw 7551   4.739   3.671   3.269 -0.4808  0.4503 -0.4406
 1888SOL     vw 7552   4.807   3.698   3.222  0.1223 -0.2565  0.0062
 1889SOL     ow 7553   0.872   7.116   4.704 -0.2555 -0.0112 -0.0934
 1889SOL     hw 7554   0.917   7.044   4.659  0.1929 -0.3951  0.9563
 1889SOL     hw 7555   0.941   7.163   4.750 -0.8966 -0.7373  1.7060
 1889SOL     vw 7556   0.887   7.113   4.704 -0.2809 -0.1578  0.2825
 1890SOL     ow 7557   3.561   3.978   5.187 -0.6911 -0.3380 -0.5570
 1890SOL     hw 7558   3.491   4.031   5.149  0.5651  0.3150 -2.1020
 1890SOL     hw 7559   3.580   4.021   5.271  0.1197  1.5856 -1.6550
 1890SOL     vw 7560   3.554   3.991   5.193 -0.4183  0.0018 -0.9055
 1891SOL     ow 7561   5.313   3.135   3.864  0.1010  0.0623  0.2387
 1891SOL     hw 7562   5.316   3.161   3.772  0.8140 -1.7174 -0.2840
 1891SOL     hw 7563   5.381   3.069   3.872  0.3243  0.4785  2.1687
 1891SOL     vw 7564   5.322   3.130   3.853  0.2248 -0.1175  0.4244
 1892SOL     ow 7565   6.980   3.469   2.284  0.0925 -0.5728 -0.5209
 1892SOL     hw 7566   6.932   3.387   2.281 -0.4100 -0.3491  0.6162
 1892SOL     hw 7567   6.924   3.527   2.335 -0.6891  1.2420 -3.2096
 1892SOL     vw 7568   6.966   3.466   2.290 -0.0768 -0.3037 -0.7256
 1893SOL     ow 7569   2.120   1.243   4.250  0.2818 -1.2944  0.2867
 1893SOL     hw 7570   2.029   1.213   4.252  0.5751 -2.2853 -0.4954
 1893SOL     hw 7571   2.114   1.338   4.236 -0.6234 -1.3826  0.0130
 1893SOL     vw 7572   2.107   1.252   4.248  0.2010 -1.4368  0.1473
 1894SOL     ow 7573   5.108   5.888   2.585 -0.1165  0.2907 -0.3188
 1894SOL     hw 7574   5.153   5.960   2.540  1.7595  0.1928  1.2855
 1894SOL     hw 7575   5.176   5.822   2.599 -1.3454 -0.9412  0.0391
 1894SOL     vw 7576   5.123   5.889   2.581 -0.0312  0.1152 -0.0598
 1895SOL     ow 7577   0.869   7.141   4.037 -0.1624 -0.8990 -0.0164
 1895SOL     hw 7578   0.831   7.063   4.078 -0.5320 -2.0532 -2.4068
 1895SOL     hw 7579   0.808   7.163   3.967  1.6925 -0.5634 -1.5921
 1895SOL     vw 7580   0.856   7.134   4.033  0.0336 -1.0068 -0.5398
 1896SOL     ow 7581   1.011   1.704   5.514 -0.0021  0.3326 -0.1840
 1896SOL     hw 7582   0.936   1.678   5.568 -0.1519 -0.5245 -0.7839
 1896SOL     hw 7583   1.076   1.635   5.529  0.5243  0.8578  0.0192
 1896SOL     vw 7584   1.010   1.691   5.523  0.0476  0.2888 -0.2365
 1897SOL     ow 7585   0.156   1.345   5.115 -0.4975 -0.5250  0.0145
 1897SOL     hw 7586   0.169   1.269   5.171 -2.0914  0.7595  2.2679
 1897SOL     hw 7587   0.235   1.398   5.126 -1.7398  0.9100  3.1850
 1897SOL     vw 7588   0.168   1.342   5.124 -0.8717 -0.1662  0.7300
 1898SOL     ow 7589   0.175   5.661   1.075 -0.1319  0.6650  0.0183
 1898SOL     hw 7590   0.101   5.712   1.108  0.7753  1.4202  0.9432
 1898SOL     hw 7591   0.183   5.588   1.136 -0.1942  0.5067 -0.1622
 1898SOL     vw 7592   0.166   5.658   1.087 -0.0205  0.7441  0.1165
 1899SOL     ow 7593   4.514   3.696   0.895 -0.4607 -0.8929  0.4154
 1899SOL     hw 7594   4.487   3.736   0.812 -0.9385 -0.0653  0.9542
 1899SOL     hw 7595   4.435   3.653   0.928 -0.2637 -1.2454  0.4394
 1899SOL     vw 7596   4.500   3.695   0.888 -0.4981 -0.8303  0.4897
 1900SOL     ow 7597   3.350   3.060   2.077  0.6171  0.0273  0.1466
 1900SOL     hw 7598   3.299   2.979   2.082 -0.6201  0.5378 -2.4774
 1900SOL     hw 7599   3.285   3.129   2.061  1.9176  1.0318 -1.0536
 1900SOL     vw 7600   3.335   3.059   2.076  0.6256  0.2273 -0.3579
 1901SOL     ow 7601   5.875   5.628   5.361 -0.5777 -0.2663 -0.7539
 1901SOL     hw 7602   5.829   5.700   5.405  0.9227 -0.8791  2.0837
 1901SOL     hw 7603   5.909   5.667   5.281 -2.0291  1.4289 -0.6235
 1901SOL     vw 7604   5.873   5.643   5.357 -0.5710 -0.1235 -0.3624
 1902SOL     ow 7605   4.497   3.372   1.672  0.4049 -0.3520 -0.5897
 1902SOL     hw 7606   4.495   3.445   1.734 -0.5920  0.1705 -1.1970
 1902SOL     hw 7607   4.589   3.364   1.647  0.5585  0.6169 -0.3942
 1902SOL     vw 7608   4.509   3.381   1.677  0.2935 -0.1553 -0.6440
 1903SOL     ow 7609   1.014   4.754   5.847 -0.5844 -0.3638  0.6055
 1903SOL     hw 7610   0.937   4.741   5.903 -1.4242  1.9898  0.1038
 1903SOL     hw 7611   1.084   4.775   5.909 -1.1785  0.8140  0.9294
 1903SOL     vw 7612   1.013   4.755   5.863 -0.7736  0.1020  0.5817
 1904SOL     ow 7613   5.410   3.389   5.101  0.6606  0.5128 -0.1398
 1904SOL     hw 7614   5.347   3.460   5.113 -1.5028 -1.5418  1.7266
 1904SOL     hw 7615   5.455   3.383   5.185  0.7188 -0.3807 -0.2242
 1904SOL     vw 7616   5.408   3.397   5.114  0.3827  0.1237  0.0954
 1905SOL     ow 7617   1.318   5.745   3.654  0.1870  0.1457  0.1195
 1905SOL     hw 7618   1.339   5.802   3.580  0.5169 -1.0075 -0.6908
 1905SOL     hw 7619   1.226   5.762   3.671 -0.3762 -0.8676 -1.7237
 1905SOL     vw 7620   1.309   5.755   3.646  0.1563 -0.1402 -0.2307
 1906SOL     ow 7621   2.526   0.246   0.756 -0.3378  0.0012  0.2975
 1906SOL     hw 7622   2.502   0.271   0.845 -0.7102 -0.6847  0.3908
 1906SOL     hw 7623   2.444   0.220   0.715 -0.2161  0.6033 -0.3454
 1906SOL     vw 7624   2.512   0.246   0.762 -0.3707 -0.0098  0.2250
 1907SOL     ow 7625   2.741   5.108   0.261 -0.2714 -0.4483 -0.3372
 1907SOL     hw 7626   2.730   5.020   0.224  1.4954  0.4082 -3.2478
 1907SOL     hw 7627   2.831   5.109   0.294 -1.1652 -0.5213  2.3459
 1907SOL     vw 7628   2.751   5.096   0.260 -0.1563 -0.3450 -0.3672
 1908SOL     ow 7629   4.751   4.829   1.934  0.0533  0.0069 -0.3984
 1908SOL     hw 7630   4.836   4.854   1.897  0.3047 -1.0645 -0.5578
 1908SOL     hw 7631   4.698   4.808   1.858 -0.6434  1.4596 -0.3579
 1908SOL     vw 7632   4.755   4.830   1.919 -0.0057  0.0570 -0.4141
 1909SOL     ow 7633   6.295   0.364   0.617  0.5322  0.0832  0.1766
 1909SOL     hw 7634   6.350   0.416   0.558  0.1096 -3.3408 -3.6441
 1909SOL     hw 7635   6.208   0.403   0.610  0.5758 -0.0244 -1.2277
 1909SOL     vw 7636   6.291   0.376   0.609  0.4821 -0.3828 -0.5128
 1910SOL     ow 7637   0.420   1.483   0.051 -0.2111  0.0049  0.5573
 1910SOL     hw 7638   0.351   1.460  -0.012 -2.2273  0.3416  2.5301
 1910SOL     hw 7639   0.423   1.578   0.050  1.4916 -0.0099 -0.7280
 1910SOL     vw 7640   0.411   1.492   0.043 -0.2525  0.0474  0.6480
 1911SOL     ow 7641   0.921   2.360   1.925  0.3757  0.5352  0.4672
 1911SOL     hw 7642   0.983   2.306   1.875 -0.1207  0.6646 -0.3066
 1911SOL     hw 7643   0.917   2.443   1.877 -0.9759  0.2516  0.0583
 1911SOL     vw 7644   0.929   2.364   1.912  0.1318  0.5147  0.3111
 1912SOL     ow 7645   5.384   5.596   1.380 -0.0153 -0.2695 -0.4128
 1912SOL     hw 7646   5.478   5.580   1.370  0.7381  0.8931  3.3450
 1912SOL     hw 7647   5.354   5.526   1.438 -1.0118  0.4449 -0.0344
 1912SOL     vw 7648   5.392   5.585   1.386 -0.0474 -0.0219  0.1329
 1913SOL     ow 7649   2.393   6.694   3.476 -0.2505 -0.8781 -0.3350
 1913SOL     hw 7650   2.446   6.725   3.402  1.1475  0.7289  1.2385
 1913SOL     hw 7651   2.444   6.719   3.554 -2.1102 -1.6368  1.1957
 1913SOL     vw 7652   2.407   6.702   3.477 -0.3115 -0.7660  0.0747
 1914SOL     ow 7653   3.494   3.971   3.394  0.7204  0.4987 -0.4729
 1914SOL     hw 7654   3.425   3.978   3.328  0.4260  0.0063 -0.2223
 1914SOL     hw 7655   3.567   4.023   3.359  0.7043 -0.0658 -1.3516
 1914SOL     vw 7656   3.495   3.979   3.381  0.6794  0.3592 -0.5558
 1915SOL     ow 7657   3.399   5.466   4.673  0.4388  0.0256  0.2486
 1915SOL     hw 7658   3.422   5.532   4.738 -1.6367  2.5495 -1.3713
 1915SOL     hw 7659   3.431   5.502   4.590 -1.0068 -0.8455 -0.7303
 1915SOL     vw 7660   3.407   5.480   4.671 -0.0257  0.2439 -0.0942
 1916SOL     ow 7661   3.879   5.047   4.796 -0.2577 -0.4209  0.1894
 1916SOL     hw 7662   3.922   4.972   4.755 -0.1173 -0.1260 -0.2007
 1916SOL     hw 7663   3.950   5.109   4.813 -0.8118  1.3154 -3.0519
 1916SOL     vw 7664   3.894   5.045   4.793 -0.3123 -0.1526 -0.2899
 1917SOL     ow 7665   3.555   5.217   1.243  0.5226  0.0603  0.0823
 1917SOL     hw 7666   3.636   5.199   1.196  0.3365  0.1968 -0.2958
 1917SOL     hw 7667   3.574   5.298   1.291  0.7746 -0.1808  0.3914
 1917SOL     vw 7668   3.568   5.226   1.243  0.5313  0.0465  0.0732
 1918SOL     ow 7669   3.167   4.299   6.280 -0.6126  0.0110 -0.3711
 1918SOL     hw 7670   3.122   4.380   6.306 -0.1149  0.7784 -1.8136
 1918SOL     hw 7671   3.244   4.296   6.336 -0.4989  0.6777 -0.4817
 1918SOL     vw 7672   3.171   4.309   6.291 -0.5320  0.2000 -0.5763
 1919SOL     ow 7673   2.294   2.428   4.957  0.1492  0.1454  0.0947
 1919SOL     hw 7674   2.238   2.440   5.035  0.4140  0.3201  0.2582
 1919SOL     hw 7675   2.237   2.450   4.884 -0.0655  0.1038  0.2469
 1919SOL     vw 7676   2.279   2.432   4.958  0.1557  0.1630  0.1366
 1920SOL     ow 7677   3.836   4.242   6.281 -0.1950 -0.5846  0.0126
 1920SOL     hw 7678   3.780   4.174   6.320 -1.9018  0.7971  0.0867
 1920SOL     hw 7679   3.799   4.254   6.193  1.8521 -1.6700 -1.0651
 1920SOL     vw 7680   3.823   4.234   6.274 -0.1502 -0.5455 -0.1197
 1921SOL     ow 7681   0.199   5.678   3.505  0.4319  0.5101  0.3649
 1921SOL     hw 7682   0.171   5.611   3.566 -2.0507  1.7495  0.6998
 1921SOL     hw 7683   0.239   5.746   3.560 -0.3293  0.8932  0.4600
 1921SOL     vw 7684   0.201   5.678   3.520  0.0039  0.7243  0.4216
 1922SOL     ow 7685   3.297   2.603   4.213  0.1954  0.2806 -0.3748
 1922SOL     hw 7686   3.268   2.626   4.302 -0.2348 -1.8349  0.0821
 1922SOL     hw 7687   3.219   2.613   4.159 -0.0018 -0.1254 -0.1709
 1922SOL     vw 7688   3.283   2.608   4.218  0.1127 -0.0522 -0.2878
 1923SOL     ow 7689   1.218   3.728   1.129 -0.3472  0.4271 -0.1661
 1923SOL     hw 7690   1.259   3.812   1.111  0.2035 -0.0406 -1.1936
 1923SOL     hw 7691   1.159   3.713   1.055 -2.0012  0.8304  1.0120
 1923SOL     vw 7692   1.216   3.737   1.117 -0.4928  0.4185 -0.1462
 1924SOL     ow 7693   3.808   4.015   0.533  0.1880 -0.1228 -0.1694
 1924SOL     hw 7694   3.863   3.956   0.480  1.2643  0.9797 -0.3177
 1924SOL     hw 7695   3.825   3.989   0.623  1.4001  0.5362 -0.1794
 1924SOL     vw 7696   3.818   4.004   0.538  0.4900  0.1094 -0.1903
 1925SOL     ow 7697   1.932   4.466   5.108  0.4157  0.0247 -0.1832
 1925SOL     hw 7698   1.855   4.449   5.162 -0.3773 -0.3150 -1.3945
 1925SOL     hw 7699   1.924   4.406   5.034  1.9517 -0.1551 -0.2409
 1925SOL     vw 7700   1.921   4.456   5.106  0.5137 -0.0436 -0.3507
 1926SOL     ow 7701   0.249   4.789   3.343  0.3977 -0.0838 -0.0719
 1926SOL     hw 7702   0.220   4.880   3.342  1.1960  0.1789 -1.2688
 1926SOL     hw 7703   0.339   4.793   3.375  1.6982  0.0141 -3.3761
 1926SOL     vw 7704   0.257   4.801   3.347  0.6746 -0.0360 -0.6659
 1927SOL     ow 7705   5.674   6.880   1.711  0.5441  0.0265 -0.6401
 1927SOL     hw 7706   5.617   6.957   1.714  1.0095  0.4705 -2.1879
 1927SOL     hw 7707   5.736   6.899   1.641  0.5924 -1.8177 -1.1571
 1927SOL     vw 7708   5.674   6.892   1.702  0.6118 -0.1583 -0.9125
 1928SOL     ow 7709   2.759   1.626   0.908 -0.4431  0.0418 -0.1434
 1928SOL     hw 7710   2.783   1.644   0.999  1.0097  0.6542 -0.6250
 1928SOL     hw 7711   2.810   1.548   0.884 -2.8607 -1.8325  0.3475
 1928SOL     vw 7712   2.768   1.618   0.917 -0.5705 -0.1246 -0.1422
 1929SOL     ow 7713   0.196   3.821   6.919 -0.0179  0.3369 -0.0025
 1929SOL     hw 7714   0.285   3.841   6.888  0.6917  0.2792  1.8857
 1929SOL     hw 7715   0.198   3.728   6.941 -0.0959  0.6430  1.3893
 1929SOL     vw 7716   0.208   3.812   6.918  0.0654  0.3697  0.4303
 1930SOL     ow 7717   7.215   1.968   4.656  0.7560 -0.7143 -0.0148
 1930SOL     hw 7718   7.298   2.011   4.673  1.6192 -1.4125 -2.1836
 1930SOL     hw 7719   7.170   1.968   4.741  0.3792  4.8527  0.1671
 1930SOL     vw 7720   7.220   1.973   4.669  0.8202 -0.0719 -0.2773
 1931SOL     ow 7721   1.358   0.745   6.368 -0.7192  0.1182 -0.3125
 1931SOL     hw 7722   1.308   0.669   6.340 -2.1711  0.5353  1.0271
 1931SOL     hw 7723   1.384   0.788   6.287 -4.2483  0.9647 -1.1582
 1931SOL     vw 7724   1.355   0.741   6.354 -1.3763  0.2849 -0.2472
 1932SOL     ow 7725   2.594   3.899   0.839 -0.2603  0.0735  0.5116
 1932SOL     hw 7726   2.643   3.912   0.758 -0.8419  0.8539  0.2739
 1932SOL     hw 7727   2.549   3.982   0.854 -1.3447 -0.5462  0.8290
 1932SOL     vw 7728   2.595   3.911   0.830 -0.4802  0.0945  0.5221
 1933SOL     ow 7729   5.669   3.257   3.105  0.0819 -0.0366  0.0309
 1933SOL     hw 7730   5.647   3.349   3.090  1.0692  0.3437  0.7961
 1933SOL     hw 7731   5.619   3.209   3.040 -0.6791  1.0234 -0.1811
 1933SOL     vw 7732   5.660   3.263   3.095  0.1121  0.1535  0.1040
 1934SOL     ow 7733   3.765   5.757   3.141 -0.0936  0.0827 -0.3413
 1934SOL     hw 7734   3.672   5.756   3.163 -0.3697 -0.0376 -1.4380
 1934SOL     hw 7735   3.796   5.669   3.163 -0.0831  0.3120  0.6025
 1934SOL     vw 7736   3.757   5.745   3.147 -0.1285  0.0973 -0.3614
 1935SOL     ow 7737   2.505   0.821   1.104  0.3257  0.9137 -0.6952
 1935SOL     hw 7738   2.564   0.880   1.057  0.8018  0.1310 -1.1028
 1935SOL     hw 7739   2.517   0.736   1.061 -1.0791  0.7342 -0.7666
 1935SOL     vw 7740   2.514   0.817   1.092  0.2034  0.7868 -0.7583
 1936SOL     ow 7741   6.699   3.556   5.788  0.4253 -0.3202  0.5613
 1936SOL     hw 7742   6.710   3.579   5.880  2.3190  2.2026 -0.1857
 1936SOL     hw 7743   6.761   3.484   5.774  0.2868 -0.5657  1.1882
 1936SOL     vw 7744   6.709   3.549   5.798  0.6568 -0.0197  0.5455
 1937SOL     ow 7745   5.705   2.157   3.367 -0.0574 -0.3646 -0.1551
 1937SOL     hw 7746   5.791   2.164   3.325 -1.0435 -0.9606 -2.4391
 1937SOL     hw 7747   5.689   2.063   3.373 -0.3354 -0.2695  0.7478
 1937SOL     vw 7748   5.714   2.145   3.362 -0.2244 -0.4308 -0.3374
 1938SOL     ow 7749   3.527   5.250   4.171  0.2997  0.8890 -0.0860
 1938SOL     hw 7750   3.467   5.249   4.097 -0.8702  1.2796  0.8250
 1938SOL     hw 7751   3.542   5.342   4.189 -0.0336  0.8105  0.6285
 1938SOL     vw 7752   3.521   5.262   4.164  0.1014  0.9303  0.1287
 1939SOL     ow 7753   0.164   0.484   6.614  0.5964 -0.7725 -0.2646
 1939SOL     hw 7754   0.213   0.547   6.561  0.6289 -1.0526 -0.5682
 1939SOL     hw 7755   0.086   0.465   6.563  0.2785 -0.4969  0.1169
 1939SOL     vw 7756   0.160   0.490   6.600  0.5587 -0.7731 -0.2544
 1940SOL     ow 7757   4.332   3.065   6.594  0.1962 -0.8149  0.6528
 1940SOL     hw 7758   4.300   3.102   6.676 -0.1218 -0.3274  0.3180
 1940SOL     hw 7759   4.414   3.112   6.577 -1.0091  0.9639 -0.5967
 1940SOL     vw 7760   4.339   3.076   6.603 -0.0048 -0.5158  0.4435
 1941SOL     ow 7761   6.942   5.560   5.922  0.1988 -0.2441  0.7592
 1941SOL     hw 7762   6.858   5.534   5.959 -0.4164  2.1008  1.2174
 1941SOL     hw 7763   6.936   5.656   5.915  2.2466 -0.1536 -0.6581
 1941SOL     vw 7764   6.930   5.569   5.926  0.3879  0.0772  0.6328
 1942SOL     ow 7765   1.718   5.531   6.637 -0.1846  0.4613  0.3851
 1942SOL     hw 7766   1.705   5.446   6.596  3.0660 -1.0790  2.1380
 1942SOL     hw 7767   1.702   5.515   6.730  1.9819  1.2918  0.9516
 1942SOL     vw 7768   1.714   5.518   6.644  0.5301  0.3676  0.6912
 1943SOL     ow 7769   5.439   0.501   0.016 -1.0854  0.6034 -0.7381
 1943SOL     hw 7770   5.503   0.432  -0.001 -0.4248  0.5582  1.6154
 1943SOL     hw 7771   5.354   0.456   0.012 -0.8277  0.1747 -1.6025
 1943SOL     vw 7772   5.436   0.486   0.013 -0.9642  0.5409 -0.5416
 1944SOL     ow 7773   5.466   0.170   4.437  0.1940 -0.3862  0.2090
 1944SOL     hw 7774   5.503   0.111   4.503  0.3615  0.7572  1.1708
 1944SOL     hw 7775   5.539   0.228   4.414 -0.7675  1.5951  1.7844
 1944SOL     vw 7776   5.480   0.170   4.443  0.0892  0.0260  0.5434
 1945SOL     ow 7777   6.173   0.684   3.653 -0.1320  0.1592  0.1287
 1945SOL     hw 7778   6.123   0.628   3.593 -0.4003 -0.2797  0.7529
 1945SOL     hw 7779   6.116   0.695   3.729  0.7482 -0.4281  0.8920
 1945SOL     vw 7780   6.159   0.678   3.655 -0.0513  0.0238  0.3117
 1946SOL     ow 7781   4.129   1.260   2.957 -0.6305  0.4512 -0.1320
 1946SOL     hw 7782   4.110   1.197   3.026  0.2918  0.5874  0.2589
 1946SOL     hw 7783   4.159   1.338   3.003 -2.8681  1.6587 -0.5297
 1946SOL     vw 7784   4.130   1.262   2.972 -0.8039  0.6285 -0.1329
 1947SOL     ow 7785   5.497   0.073   3.738  0.0124 -0.1007  0.6532
 1947SOL     hw 7786   5.493   0.168   3.750 -1.7424  0.3293 -2.3615
 1947SOL     hw 7787   5.435   0.055   3.668  1.7904 -3.2294 -0.3221
 1947SOL     vw 7788   5.488   0.083   3.730  0.0157 -0.4567  0.1267
 1948SOL     ow 7789   1.157   1.971   5.340 -0.0018  0.7146  0.3010
 1948SOL     hw 7790   1.104   2.050   5.335  0.6686  1.1342 -0.3479
 1948SOL     hw 7791   1.104   1.903   5.297 -0.2708  0.9888  0.2031
 1948SOL     vw 7792   1.143   1.972   5.333  0.0511  0.8061  0.2024
 1949SOL     ow 7793   3.559   0.428   5.048 -0.3388 -0.3797  0.3406
 1949SOL     hw 7794   3.514   0.475   5.118 -0.7007 -1.3686  0.7975
 1949SOL     hw 7795   3.648   0.463   5.050 -0.9939  1.4729 -0.4565
 1949SOL     vw 7796   3.565   0.439   5.058 -0.4730 -0.2657  0.2959
 1950SOL     ow 7797   3.698   1.669   5.079  0.0960  0.2890  0.0983
 1950SOL     hw 7798   3.790   1.668   5.052 -0.2184  1.1700 -1.0725
 1950SOL     hw 7799   3.702   1.675   5.175  1.2844  1.5553  0.0084
 1950SOL     vw 7800   3.711   1.670   5.088  0.2112  0.5723 -0.0679
 1951SOL     ow 7801   3.411   6.817   7.249  0.6994  0.2386  0.3547
 1951SOL     hw 7802   3.451   6.733   7.274  2.3832  0.8886  0.0071
 1951SOL     hw 7803   3.474   6.883   7.280 -0.0446  1.3240 -0.3715
 1951SOL     vw 7804   3.425   6.815   7.257  0.8234  0.4675  0.2129
 1952SOL     ow 7805   3.298   5.786   0.399 -0.3091 -0.0407  0.1302
 1952SOL     hw 7806   3.240   5.832   0.460  0.0684  1.6872 -0.7494
 1952SOL     hw 7807   3.254   5.792   0.315 -0.3348 -1.5183  0.0007
 1952SOL     vw 7808   3.284   5.793   0.396 -0.2625 -0.0074 -0.0030
 1953SOL     ow 7809   1.076   6.755   5.768  0.0392  0.2269  0.5504
 1953SOL     hw 7810   1.049   6.696   5.839  0.5114 -1.2294 -0.4438
 1953SOL     hw 7811   1.165   6.728   5.747  0.4492  1.6342  0.3821
 1953SOL     vw 7812   1.084   6.743   5.775  0.1556  0.2205  0.3970
 1954SOL     ow 7813   0.823   5.553   5.082 -0.3053  0.2453 -0.8120
 1954SOL     hw 7814   0.776   5.498   5.144  0.3759  0.4878 -0.0570
 1954SOL     hw 7815   0.911   5.562   5.119 -0.2736  1.4904 -1.1217
 1954SOL     vw 7816   0.828   5.547   5.095 -0.2113  0.4418 -0.7532
 1955SOL     ow 7817   5.982   5.402   7.210 -0.5345 -0.3369  0.3169
 1955SOL     hw 7818   5.963   5.435   7.298  2.2282 -0.8418  1.1829
 1955SOL     hw 7819   6.019   5.478   7.164 -1.5036 -0.2101 -0.2834
 1955SOL     vw 7820   5.984   5.417   7.215 -0.2983 -0.3867  0.3519
 1956SOL     ow 7821   2.647   3.589   4.319 -0.6098  0.4670  0.2941
 1956SOL     hw 7822   2.636   3.682   4.339 -2.6172  0.4942 -0.5900
 1956SOL     hw 7823   2.561   3.562   4.286  0.2506 -1.4328 -0.5487
 1956SOL     vw 7824   2.634   3.597   4.317 -0.7612  0.2199  0.0660
 1957SOL     ow 7825   3.541   1.266   7.085 -0.3360 -0.4220  0.5963
 1957SOL     hw 7826   3.552   1.361   7.084 -0.6671 -0.3860 -0.1030
 1957SOL     hw 7827   3.590   1.237   7.163  0.9064  0.1736  0.0610
 1957SOL     vw 7828   3.549   1.275   7.096 -0.2158 -0.3387  0.4337
 1958SOL     ow 7829   1.305   6.304   4.388  0.1796 -0.1127  0.3601
 1958SOL     hw 7830   1.323   6.347   4.304 -0.4613  0.3383  0.4430
 1958SOL     hw 7831   1.209   6.305   4.395  0.1149 -2.1074  0.0960
 1958SOL     vw 7832   1.294   6.310   4.378  0.0865 -0.3164  0.3362
 1959SOL     ow 7833   4.345   6.170   6.083  0.0024  0.1430 -0.9022
 1959SOL     hw 7834   4.431   6.197   6.052 -0.8255  4.8451  0.1404
 1959SOL     hw 7835   4.284   6.224   6.033 -2.2781 -1.7168 -0.3144
 1959SOL     vw 7836   4.348   6.181   6.072 -0.4075  0.5178 -0.6871
 1960SOL     ow 7837   2.936   4.364   3.565  0.1337 -0.0830  0.2958
 1960SOL     hw 7838   2.949   4.359   3.660  1.5159 -0.0148  0.1325
 1960SOL     hw 7839   3.023   4.350   3.528 -0.2056  0.8755 -0.9409
 1960SOL     vw 7840   2.949   4.362   3.573  0.2712  0.0525  0.1110
 1961SOL     ow 7841   1.964   4.522   1.455  0.2494  0.3572 -0.0342
 1961SOL     hw 7842   1.920   4.595   1.499 -1.3167 -0.6436  0.1679
 1961SOL     hw 7843   2.039   4.503   1.510 -0.2076  0.8173  0.7756
 1961SOL     vw 7844   1.968   4.529   1.468 -0.0175  0.2861  0.0992
 1962SOL     ow 7845   0.144   5.187   2.529 -0.4488 -0.1801  0.1115
 1962SOL     hw 7846   0.165   5.259   2.589 -0.4541  0.4729 -0.6622
 1962SOL     hw 7847   0.064   5.215   2.485 -0.9676 -1.0644  0.4485
 1962SOL     vw 7848   0.136   5.200   2.531 -0.5180 -0.2108  0.0539
 1963SOL     ow 7849   3.780   4.605   2.383  0.3537 -0.0922 -0.3764
 1963SOL     hw 7850   3.772   4.510   2.374  1.9549 -0.3274  0.3123
 1963SOL     hw 7851   3.855   4.628   2.329  0.2757  0.7262 -0.1508
 1963SOL     vw 7852   3.789   4.596   2.375  0.5547 -0.0150 -0.2557
 1964SOL     ow 7853   0.757   5.784   0.383  0.6699 -0.0873 -0.1725
 1964SOL     hw 7854   0.677   5.836   0.390  0.0183 -1.1050  0.2981
 1964SOL     hw 7855   0.827   5.848   0.369 -0.4235  0.7403 -2.4176
 1964SOL     vw 7856   0.755   5.799   0.382  0.4397 -0.1123 -0.4066
 1965SOL     ow 7857   5.826   1.228   3.964 -0.4645 -0.1421  0.5113
 1965SOL     hw 7858   5.773   1.194   4.036 -0.1764  1.8251  1.7293
 1965SOL     hw 7859   5.910   1.248   4.004 -0.0620  0.3321 -0.5404
 1965SOL     vw 7860   5.830   1.226   3.979 -0.3734  0.1799  0.5332
 1966SOL     ow 7861   0.253   6.524   1.813  0.6754  0.0847 -0.0737
 1966SOL     hw 7862   0.286   6.466   1.882  1.7580 -1.1966 -1.6134
 1966SOL     hw 7863   0.250   6.610   1.854 -1.4729 -1.0419  2.4584
 1966SOL     vw 7864   0.257   6.527   1.828  0.5348 -0.2329  0.0573
 1967SOL     ow 7865   3.491   0.869   1.588 -0.0078  0.5747 -0.5662
 1967SOL     hw 7866   3.550   0.912   1.649 -0.8189 -0.5815  1.1017
 1967SOL     hw 7867   3.423   0.830   1.643 -0.1821 -1.4619 -2.0821
 1967SOL     vw 7868   3.490   0.869   1.603 -0.1379  0.1534 -0.5462
 1968SOL     ow 7869   2.556   4.339   5.149  0.8871 -0.2023 -0.8534
 1968SOL     hw 7870   2.463   4.358   5.163  0.8339 -1.9847  1.8743
 1968SOL     hw 7871   2.600   4.424   5.162 -0.2501  0.4342 -1.0613
 1968SOL     vw 7872   2.550   4.353   5.153  0.7300 -0.3533 -0.5207
 1969SOL     ow 7873   1.771   5.235   0.210 -0.0044 -0.0865  0.1753
 1969SOL     hw 7874   1.806   5.311   0.256 -0.1659  0.6594 -0.9210
 1969SOL     hw 7875   1.763   5.168   0.278 -3.1926  1.8737  1.9660
 1969SOL     vw 7876   1.775   5.236   0.225 -0.4464  0.2701  0.2669
 1970SOL     ow 7877   5.715   4.539   2.209 -0.4848 -0.2665 -0.3650
 1970SOL     hw 7878   5.762   4.466   2.167 -0.5607 -1.3793  1.3886
 1970SOL     hw 7879   5.730   4.526   2.303  0.3633  2.5886 -0.0140
 1970SOL     vw 7880   5.723   4.527   2.216 -0.3827 -0.0367 -0.0874
 1971SOL     ow 7881   5.488   0.785   0.719 -0.0260  0.3674 -0.5145
 1971SOL     hw 7882   5.481   0.700   0.677 -0.0426 -0.4797  1.1490
 1971SOL     hw 7883   5.577   0.814   0.699  0.7777 -1.0855  0.7493
 1971SOL     vw 7884   5.499   0.778   0.711  0.0780  0.0640 -0.1283
 1972SOL     ow 7885   6.432   3.975   1.878  0.1472 -0.0623  0.0140
 1972SOL     hw 7886   6.464   4.064   1.894 -1.6547  0.3149  1.9091
 1972SOL     hw 7887   6.340   3.986   1.854 -0.3645 -1.4341  1.2025
 1972SOL     vw 7888   6.424   3.988   1.877 -0.1581 -0.1937  0.4209
 1973SOL     ow 7889   7.180   7.212   3.742 -0.1401 -0.4216  0.1053
 1973SOL     hw 7890   7.173   7.287   3.801  1.7526  0.1324 -0.3119
 1973SOL     hw 7891   7.090   7.195   3.715 -0.6084  1.9004 -0.0259
 1973SOL     vw 7892   7.167   7.220   3.746  0.0479 -0.0422  0.0330
 1974SOL     ow 7893   4.661   2.783   2.495 -0.9551  0.3476 -0.4616
 1974SOL     hw 7894   4.568   2.789   2.515 -1.6861 -2.2696 -2.4675
 1974SOL     hw 7895   4.696   2.721   2.558 -1.4711 -1.5924 -2.0038
 1974SOL     vw 7896   4.653   2.776   2.506 -1.1194 -0.2536 -0.9297
 1975SOL     ow 7897   1.188   0.388   0.334 -0.0607 -0.0622  0.2969
 1975SOL     hw 7898   1.149   0.301   0.321 -0.0476 -0.1731  0.9834
 1975SOL     hw 7899   1.116   0.443   0.364  0.9438 -1.2882  6.0640
 1975SOL     vw 7900   1.173   0.383   0.336  0.0736 -0.2385  1.1483
 1976SOL     ow 7901   1.596   3.877   5.275  0.1893  0.2180 -0.4054
 1976SOL     hw 7902   1.616   3.802   5.331 -1.0318 -0.7512 -1.2216
 1976SOL     hw 7903   1.551   3.939   5.333 -0.1766 -0.3437 -0.0854
 1976SOL     vw 7904   1.593   3.875   5.290 -0.0201  0.0160 -0.4709
 1977SOL     ow 7905   0.325   3.934   3.674 -0.6401 -0.1247 -0.9277
 1977SOL     hw 7906   0.242   3.970   3.644 -1.2724 -0.1889  0.6604
 1977SOL     hw 7907   0.317   3.930   3.769  1.5543  0.7787 -0.6303
 1977SOL     vw 7908   0.313   3.938   3.683 -0.4340 -0.0139 -0.6789
 1978SOL     ow 7909   6.617   4.883   3.108  0.7360 -0.2622 -0.5382
 1978SOL     hw 7910   6.536   4.858   3.153  0.3068 -1.7803 -2.0618
 1978SOL     hw 7911   6.600   4.971   3.076 -0.6476 -0.8530 -1.5202
 1978SOL     vw 7912   6.604   4.891   3.110  0.4969 -0.5405 -0.8688
 1979SOL     ow 7913   2.557   4.518   3.848  0.0201 -0.1821  0.1231
 1979SOL     hw 7914   2.501   4.549   3.919  0.3730 -0.3829  0.4924
 1979SOL     hw 7915   2.496   4.493   3.779 -0.2855  0.9178 -0.0191
 1979SOL     vw 7916   2.542   4.519   3.848  0.0266 -0.0632  0.1529
 1980SOL     ow 7917   1.868   1.613   5.113  0.1608 -0.9860  0.4768
 1980SOL     hw 7918   1.804   1.682   5.097  0.6349 -0.7730 -0.5572
 1980SOL     hw 7919   1.815   1.534   5.124 -0.2611 -1.1529 -2.1513
 1980SOL     vw 7920   1.852   1.612   5.113  0.1677 -0.9798 -0.0067
 1981SOL     ow 7921   4.473   1.141   1.882  0.2559 -0.1213 -0.0404
 1981SOL     hw 7922   4.387   1.167   1.915  0.0425  4.0323 -3.0527
 1981SOL     hw 7923   4.459   1.119   1.790  2.4901  2.6463 -1.2153
 1981SOL     vw 7924   4.460   1.142   1.875  0.5226  0.7918 -0.5929
 1982SOL     ow 7925   6.899   5.932   3.940 -0.2223  0.3602  0.0571
 1982SOL     hw 7926   6.927   5.992   4.010  1.0258 -0.1309 -0.0067
 1982SOL     hw 7927   6.856   5.989   3.876  2.7768  1.5816 -1.0269
 1982SOL     vw 7928   6.897   5.947   3.941  0.3381  0.4566 -0.0943
 1983SOL     ow 7929   5.533   6.876   5.609 -0.1109 -0.4519  0.4346
 1983SOL     hw 7930   5.606   6.832   5.565  1.4367  2.2775  0.0462
 1983SOL     hw 7931   5.540   6.848   5.700  0.9706 -0.8622  0.2478
 1983SOL     vw 7932   5.544   6.867   5.615  0.2363 -0.1459  0.3588
 1984SOL     ow 7933   0.800   5.683   2.616  0.4629 -0.1231  0.0452
 1984SOL     hw 7934   0.705   5.691   2.615  0.5375  1.0006  0.3692
 1984SOL     hw 7935   0.817   5.594   2.645 -0.5131 -1.1286 -2.2454
 1984SOL     vw 7936   0.790   5.672   2.619  0.3440 -0.1075 -0.2143
 1985SOL     ow 7937   3.427   2.800   4.044 -0.3077  0.7842 -0.3771
 1985SOL     hw 7938   3.380   2.791   3.961  0.7882  0.1067 -0.9552
 1985SOL     hw 7939   3.428   2.894   4.061 -3.0404  0.7471  0.3873
 1985SOL     vw 7940   3.421   2.811   4.035 -0.5237  0.6900 -0.3524
 1986SOL     ow 7941   4.260   6.257   3.187 -0.0755  0.2444  0.3701
 1986SOL     hw 7942   4.258   6.351   3.173  1.7058  0.8815  3.4932
 1986SOL     hw 7943   4.177   6.238   3.232 -0.6211  0.1829 -0.6204
 1986SOL     vw 7944   4.249   6.267   3.191  0.0875  0.3207  0.6515
 1987SOL     ow 7945   2.090   4.950   3.600  0.3460 -1.0068  0.4065
 1987SOL     hw 7946   2.002   4.919   3.621 -0.6276  1.3204  0.0845
 1987SOL     hw 7947   2.088   4.965   3.505  0.2553  1.3578  0.7424
 1987SOL     vw 7948   2.078   4.948   3.590  0.2054 -0.3879  0.4084
 1988SOL     ow 7949   1.826   5.770   3.163 -0.7894 -0.0452  0.0859
 1988SOL     hw 7950   1.919   5.753   3.180 -0.5721  0.4693 -0.5641
 1988SOL     hw 7951   1.787   5.683   3.156 -0.4987 -0.2673  1.0962
 1988SOL     vw 7952   1.833   5.756   3.164 -0.7224 -0.0064  0.1334
 1989SOL     ow 7953   7.213   2.198   7.137 -0.6429  0.4374  0.1813
 1989SOL     hw 7954   7.118   2.196   7.128 -0.7313  0.2214  1.0331
 1989SOL     hw 7955   7.232   2.129   7.201 -0.0558  1.4687  1.1587
 1989SOL     vw 7956   7.203   2.189   7.144 -0.5772  0.5449  0.4227
 1990SOL     ow 7957   2.995   2.650   3.759  0.5188 -0.1607  0.0338
 1990SOL     hw 7958   3.052   2.703   3.814 -0.6051  0.7386  0.3556
 1990SOL     hw 7959   2.915   2.639   3.809 -0.0393 -0.4282 -0.8803
 1990SOL     vw 7960   2.992   2.655   3.773  0.2970 -0.0775 -0.0443
 1991SOL     ow 7961   2.086   0.432   4.611  0.7173 -0.0872  0.2203
 1991SOL     hw 7962   2.137   0.439   4.530  0.1516 -0.2283 -0.1527
 1991SOL     hw 7963   2.080   0.521   4.643  1.8673 -0.1565  0.6933
 1991SOL     vw 7964   2.092   0.444   4.604  0.7945 -0.1149  0.2334
 1992SOL     ow 7965   2.096   5.781   6.546  0.2619  0.0648 -0.2206
 1992SOL     hw 7966   2.144   5.700   6.563 -0.2256 -0.4244 -1.1063
 1992SOL     hw 7967   2.081   5.781   6.451 -1.7370  0.0473  0.0398
 1992SOL     vw 7968   2.100   5.770   6.535 -0.0660 -0.0017 -0.3030
 1993SOL     ow 7969   0.549   5.653   4.367  1.0387 -0.1372 -0.3070
 1993SOL     hw 7970   0.562   5.607   4.451 -0.7964  0.2157  0.2108
 1993SOL     hw 7971   0.584   5.593   4.301 -0.2355 -1.7835  0.4612
 1993SOL     vw 7972   0.555   5.639   4.370  0.6285 -0.3076 -0.1376
 1994SOL     ow 7973   5.589   1.160   5.216  0.3502 -0.6439 -0.0244
 1994SOL     hw 7974   5.586   1.096   5.145  0.5227 -0.9100  0.2074
 1994SOL     hw 7975   5.512   1.141   5.269  0.2947 -0.5310 -0.0641
 1994SOL     vw 7976   5.579   1.149   5.213  0.3655 -0.6641  0.0010
 1995SOL     ow 7977   3.808   0.919   4.373  0.1976  0.3263  0.1376
 1995SOL     hw 7978   3.746   0.873   4.317  0.5786  0.6307 -0.5499
 1995SOL     hw 7979   3.887   0.865   4.370  0.2964  0.4667  0.1903
 1995SOL     vw 7980   3.810   0.906   4.365  0.2608  0.3850  0.0536
 1996SOL     ow 7981   3.856   2.838   6.469  0.8221 -0.4140 -0.4000
 1996SOL     hw 7982   3.767   2.872   6.476  0.8439 -0.1741 -1.2535
 1996SOL     hw 7983   3.887   2.836   6.560  0.5701  1.1906 -0.2399
 1996SOL     vw 7984   3.849   2.843   6.482  0.7917 -0.1707 -0.4916
 1997SOL     ow 7985   0.072   0.163   1.522  0.6260  0.0257 -0.2097
 1997SOL     hw 7986   0.004   0.175   1.456  0.7835 -0.8996 -0.5578
 1997SOL     hw 7987   0.097   0.251   1.548 -1.1981  0.4091  0.4355
 1997SOL     vw 7988   0.066   0.176   1.517  0.4062 -0.0458 -0.1705
 1998SOL     ow 7989   3.246   6.561   7.127  0.4992  0.0193  0.3498
 1998SOL     hw 7990   3.317   6.579   7.187 -0.4596 -0.1423  1.5731
 1998SOL     hw 7991   3.268   6.477   7.087  3.2348  1.9728 -2.7505
 1998SOL     vw 7992   3.258   6.552   7.129  0.7336  0.2556  0.1023
 1999SOL     ow 7993   6.130   4.805   2.371 -0.3416 -0.6534  0.0295
 1999SOL     hw 7994   6.146   4.899   2.382 -2.2548 -0.2121 -0.6063
 1999SOL     hw 7995   6.084   4.779   2.451  1.4522 -1.4251  0.8750
 1999SOL     vw 7996   6.126   4.814   2.383 -0.3572 -0.6971  0.0573
 2000SOL     ow 7997   1.774   2.898   5.473  0.1062 -0.3571  0.1685
 2000SOL     hw 7998   1.724   2.830   5.429 -0.0940  0.2882 -0.6322
 2000SOL     hw 7999   1.710   2.965   5.494  0.3399 -0.3112  0.7355
 2000SOL     vw 8000   1.759   2.898   5.470  0.1106 -0.2658  0.1378
 2001SOL     ow 8001   0.441   6.122   2.631  0.4604 -0.1169  0.2268
 2001SOL     hw 8002   0.458   6.195   2.691  1.8184  0.1001 -0.3896
 2001SOL     hw 8003   0.403   6.054   2.687  2.3507 -0.1958  1.5298
 2001SOL     vw 8004   0.438   6.123   2.647  0.8890 -0.0987  0.3173
 2002SOL     ow 8005   3.490   1.172   6.360  0.4114 -0.2121 -0.1356
 2002SOL     hw 8006   3.431   1.100   6.381  0.0467  0.7683  2.5267
 2002SOL     hw 8007   3.439   1.231   6.304 -1.3639  0.7960  2.3960
 2002SOL     vw 8008   3.476   1.170   6.355  0.1291  0.0503  0.5498
 2003SOL     ow 8009   2.206   5.352   1.783 -0.4408  0.7316  0.0943
 2003SOL     hw 8010   2.172   5.265   1.800 -0.9522  1.2244  1.7320
 2003SOL     hw 8011   2.271   5.339   1.714 -0.9733 -0.8271 -0.1599
 2003SOL     vw 8012   2.210   5.339   1.776 -0.5784  0.5910  0.2768
 2004SOL     ow 8013   0.215   4.336   5.602  0.1824  0.4451 -0.2292
 2004SOL     hw 8014   0.172   4.395   5.541 -1.8666 -0.0380  0.6607
 2004SOL     hw 8015   0.159   4.336   5.679  0.2741 -2.3040 -0.0377
 2004SOL     vw 8016   0.202   4.344   5.604 -0.0759  0.0186 -0.0863
 2005SOL     ow 8017   6.555   5.051   2.259 -0.1067  0.3277  0.2828
 2005SOL     hw 8018   6.594   5.124   2.210  0.4334 -0.4618 -0.4872
 2005SOL     hw 8019   6.463   5.053   2.234  0.1712 -0.0986 -0.8321
 2005SOL     vw 8020   6.548   5.061   2.249  0.0012  0.1674  0.0341
 2006SOL     ow 8021   4.807   5.963   1.340 -0.1326  0.4753  0.1926
 2006SOL     hw 8022   4.886   5.942   1.390 -1.3649 -0.4020  1.9006
 2006SOL     hw 8023   4.776   5.878   1.308 -1.8404  0.3738  1.9242
 2006SOL     vw 8024   4.813   5.949   1.343 -0.5205  0.3462  0.6465
 2007SOL     ow 8025   1.984   4.746   0.705  0.5862 -0.3134  0.4505
 2007SOL     hw 8026   2.061   4.718   0.657  0.1887 -1.4029  0.4212
 2007SOL     hw 8027   1.952   4.823   0.658  0.4602 -1.0910 -0.7677
 2007SOL     vw 8028   1.990   4.753   0.693  0.5171 -0.5598  0.2859
 2008SOL     ow 8029   6.957   7.242   6.163  0.1272  0.0439 -0.4221
 2008SOL     hw 8030   6.953   7.185   6.086  0.4054 -0.6015  0.0336
 2008SOL     hw 8031   6.935   7.185   6.237 -1.9037  1.0492 -0.1848
 2008SOL     vw 8032   6.954   7.227   6.163 -0.1040  0.0913 -0.3304
 2009SOL     ow 8033   7.026   5.530   6.235  0.1052  0.4193 -0.3966
 2009SOL     hw 8034   6.931   5.519   6.224  0.3272 -1.2059 -1.0078
 2009SOL     hw 8035   7.064   5.465   6.176  1.5888  0.3926  0.5513
 2009SOL     vw 8036   7.019   5.520   6.225  0.3300  0.2015 -0.3519
 2010SOL     ow 8037   3.250   0.714   0.123 -0.3618 -0.1809  0.9695
 2010SOL     hw 8038   3.181   0.654   0.096 -1.7233  1.7006  0.0906
 2010SOL     hw 8039   3.233   0.730   0.216 -1.4714  0.7114  0.6223
 2010SOL     vw 8040   3.239   0.708   0.132 -0.6877  0.1851  0.8077
 2011SOL     ow 8041   5.332   6.619   1.154 -0.6509 -0.3534 -0.2102
 2011SOL     hw 8042   5.344   6.549   1.090 -2.2155  1.7173 -3.0453
 2011SOL     hw 8043   5.264   6.586   1.213  0.2203 -2.0172 -0.0731
 2011SOL     vw 8044   5.324   6.605   1.153 -0.7424 -0.2997 -0.5662
 2012SOL     ow 8045   3.176   5.170   2.721  0.5509 -0.4292 -0.2905
 2012SOL     hw 8046   3.256   5.145   2.676  0.3952  0.5497 -1.1349
 2012SOL     hw 8047   3.203   5.235   2.785  0.5629 -0.8054  0.0937
 2012SOL     vw 8048   3.190   5.175   2.724  0.5318 -0.3498 -0.3513
 2013SOL     ow 8049   5.336   2.448   4.934  0.4550 -0.4770 -0.2870
 2013SOL     hw 8050   5.332   2.378   4.998  1.7800 -2.0370 -1.8145
 2013SOL     hw 8051   5.248   2.450   4.895 -0.3735  0.5269  1.5364
 2013SOL     vw 8052   5.324   2.439   4.937  0.5205 -0.5504 -0.2480
 2014SOL     ow 8053   2.040   1.699   0.396 -0.1222 -0.2897  0.5752
 2014SOL     hw 8054   2.066   1.630   0.457  0.8356 -0.1617  0.3330
 2014SOL     hw 8055   2.036   1.779   0.450 -1.3799 -0.5452  0.8856
 2014SOL     vw 8056   2.043   1.701   0.412 -0.1618 -0.3065  0.5842
 2015SOL     ow 8057   7.127   5.151   6.292  0.7336  0.8553 -0.2321
 2015SOL     hw 8058   7.102   5.219   6.355  1.3136  0.6108  0.2669
 2015SOL     hw 8059   7.219   5.132   6.313  0.3920 -0.5494  0.0625
 2015SOL     vw 8060   7.136   5.157   6.303  0.7651  0.6373 -0.1273
 2016SOL     ow 8061   1.800   6.055   3.095  0.7703  0.5644 -0.6003
 2016SOL     hw 8062   1.799   6.147   3.068  0.2111  0.8831  0.4410
 2016SOL     hw 8063   1.848   6.055   3.178 -2.1665  0.5068  1.2630
 2016SOL     vw 8064   1.806   6.067   3.102  0.3091  0.5989 -0.2171
 2017SOL     ow 8065   0.896   2.511   7.173  0.3445 -0.3373 -0.7710
 2017SOL     hw 8066   0.851   2.538   7.093  0.8957 -0.6760 -1.1993
 2017SOL     hw 8067   0.825   2.500   7.237 -0.0403  0.5195 -1.0371
 2017SOL     vw 8068   0.881   2.513   7.171  0.3665 -0.2691 -0.8624
 2018SOL     ow 8069   2.314   0.563   5.554  0.2164  0.7071 -0.4155
 2018SOL     hw 8070   2.265   0.525   5.480  0.0324 -1.2409  0.6276
 2018SOL     hw 8071   2.278   0.651   5.564 -0.3180  0.7272 -2.1264
 2018SOL     vw 8072   2.303   0.569   5.545  0.1216  0.4528 -0.5038
 2019SOL     ow 8073   6.003   1.268   2.429  0.0475 -0.0895 -0.1034
 2019SOL     hw 8074   6.033   1.350   2.466 -0.6798 -0.0126  0.3332
 2019SOL     hw 8075   5.958   1.224   2.501 -1.6608  0.1990 -0.9581
 2019SOL     vw 8076   6.001   1.273   2.443 -0.2739 -0.0413 -0.1585
 2020SOL     ow 8077   2.073   3.221   3.008  0.3183 -0.1477  0.1270
 2020SOL     hw 8078   2.039   3.289   3.066 -1.0629  1.4379 -2.3603
 2020SOL     hw 8079   2.148   3.185   3.054  0.7646  2.6767  1.8052
 2020SOL     vw 8080   2.078   3.225   3.021  0.1950  0.4342  0.0203
 2021SOL     ow 8081   2.150   1.530   5.135  0.2314  0.1656 -0.5176
 2021SOL     hw 8082   2.187   1.453   5.091  1.9353  0.7077 -0.1113
 2021SOL     hw 8083   2.145   1.504   5.227  1.7715  0.8426 -0.2113
 2021SOL     vw 8084   2.154   1.516   5.141  0.6595  0.3265 -0.4237
 2022SOL     ow 8085   5.832   2.802   2.763  0.3485 -0.3010  0.5268
 2022SOL     hw 8086   5.909   2.766   2.719 -0.6539 -3.1992  0.8825
 2022SOL     hw 8087   5.867   2.872   2.819  2.8172 -1.7246  0.9460
 2022SOL     vw 8088   5.847   2.806   2.765  0.5422 -0.8712  0.6288
 2023SOL     ow 8089   4.631   2.204   4.130 -0.1223  0.6318  0.6234
 2023SOL     hw 8090   4.670   2.283   4.091  0.2601 -0.1649 -0.6508
 2023SOL     hw 8091   4.701   2.167   4.183  0.6011 -0.2974 -0.9326
 2023SOL     vw 8092   4.645   2.210   4.132  0.0236  0.4040  0.2501
 2024SOL     ow 8093   6.786   4.357   5.362  0.4595  0.8012 -0.2584
 2024SOL     hw 8094   6.766   4.266   5.340  0.7446  0.8553 -0.7724
 2024SOL     hw 8095   6.881   4.358   5.373  0.5408  1.1777 -0.9571
 2024SOL     vw 8096   6.796   4.345   5.360  0.5076  0.8583 -0.4187
 2025SOL     ow 8097   0.248   1.690   1.622  0.4014  0.0772  0.3256
 2025SOL     hw 8098   0.277   1.603   1.594 -1.3105 -1.1227  1.9979
 2025SOL     hw 8099   0.188   1.719   1.553  0.9609 -0.0761 -0.2326
 2025SOL     vw 8100   0.244   1.682   1.610  0.2494 -0.1014  0.4726
 2026SOL     ow 8101   6.832   1.256   3.228  0.1736  0.3712  0.3473
 2026SOL     hw 8102   6.887   1.223   3.299  0.7549  1.4920  0.4503
 2026SOL     hw 8103   6.796   1.338   3.262  0.2659  0.7972 -0.5537
 2026SOL     vw 8104   6.835   1.263   3.242  0.2623  0.5753  0.2420
 2027SOL     ow 8105   0.639   5.935   1.304  0.1844 -0.0499 -0.2793
 2027SOL     hw 8106   0.692   5.873   1.254  1.5228  0.3101  0.6186
 2027SOL     hw 8107   0.672   5.928   1.394 -0.8048  0.7322  0.1679
 2027SOL     vw 8108   0.650   5.926   1.310  0.2305  0.1009 -0.1018
 2028SOL     ow 8109   4.700   4.737   5.158  0.0043 -0.2942 -0.3080
 2028SOL     hw 8110   4.738   4.668   5.104  1.2350  0.0384  0.0844
 2028SOL     hw 8111   4.709   4.816   5.106 -0.6381 -0.2855 -0.4141
 2028SOL     vw 8112   4.706   4.738   5.144  0.0820 -0.2494 -0.2699
 2029SOL     ow 8113   1.308   6.463   2.509 -0.3460 -0.0944 -0.1692
 2029SOL     hw 8114   1.231   6.520   2.518 -0.8654 -0.8208  0.0824
 2029SOL     hw 8115   1.288   6.387   2.563  1.0978  0.2470  0.9085
 2029SOL     vw 8116   1.295   6.460   2.517 -0.2241 -0.1452  0.0061
 2030SOL     ow 8117   2.042   5.177   0.054  0.6167  0.4794 -0.2041
 2030SOL     hw 8118   2.021   5.092   0.093 -0.1499  0.5444 -0.4563
 2030SOL     hw 8119   2.002   5.241   0.114 -0.1170  0.6000 -0.8113
 2030SOL     vw 8120   2.034   5.174   0.067  0.4189  0.5040 -0.3175
 2031SOL     ow 8121   4.463   1.895   4.192  0.2832 -0.0097  0.2595
 2031SOL     hw 8122   4.487   1.823   4.133  0.9652  0.3430  0.1049
 2031SOL     hw 8123   4.403   1.854   4.255  0.5446 -0.6826  0.0852
 2031SOL     vw 8124   4.458   1.880   4.192  0.4072 -0.0519  0.2158
 2032SOL     ow 8125   5.342   2.608   2.779  0.0717 -0.0515  0.0428
 2032SOL     hw 8126   5.405   2.578   2.714  3.0707  1.3527  2.0469
 2032SOL     hw 8127   5.344   2.541   2.847  1.3981  1.0883  1.2249
 2032SOL     vw 8128   5.351   2.595   2.780  0.6425  0.2841  0.4632
 2033SOL     ow 8129   4.256   4.434   0.017  0.6262 -0.6473 -0.2101
 2033SOL     hw 8130   4.200   4.382  -0.041  0.0675 -1.7341  1.2433
 2033SOL     hw 8131   4.329   4.462  -0.039 -1.3796  0.9891 -2.2390
 2033SOL     vw 8132   4.258   4.431   0.002  0.2880 -0.5751 -0.2861
 2034SOL     ow 8133   0.280   1.330   0.235 -0.6006 -0.3743  0.3226
 2034SOL     hw 8134   0.197   1.378   0.231 -0.9633 -1.0351 -1.0885
 2034SOL     hw 8135   0.339   1.378   0.177  0.4669  0.8436  2.3330
 2034SOL     vw 8136   0.277   1.342   0.227 -0.5076 -0.3008  0.4017
 2035SOL     ow 8137   4.259   2.209   7.038 -0.1071 -0.1397  0.4442
 2035SOL     hw 8138   4.322   2.225   7.108  1.9174 -0.2183 -1.2581
 2035SOL     hw 8139   4.313   2.192   6.961 -2.2150  0.7996 -1.3429
 2035SOL     vw 8140   4.275   2.209   7.037 -0.1183 -0.0261 -0.0160
 2036SOL     ow 8141   2.928   0.951   5.716 -0.0008 -0.3372 -0.6590
 2036SOL     hw 8142   2.940   0.901   5.635  1.1312 -0.7060 -0.2794
 2036SOL     hw 8143   2.916   0.884   5.784 -2.0356 -0.0275 -0.6346
 2036SOL     vw 8144   2.928   0.936   5.714 -0.1199 -0.3451 -0.6058
 2037SOL     ow 8145   5.586   7.118   2.089 -0.2626  0.1854  0.0174
 2037SOL     hw 8146   5.540   7.103   2.006 -0.3175  2.6423 -0.4882
 2037SOL     hw 8147   5.516   7.145   2.149 -0.2819 -1.9658  1.0415
 2037SOL     vw 8148   5.570   7.120   2.086 -0.2725  0.2255  0.0858
 2038SOL     ow 8149   1.343   6.783   0.308 -0.8431 -0.2005  0.1115
 2038SOL     hw 8150   1.305   6.869   0.325 -1.5573 -0.4182 -0.3403
 2038SOL     hw 8151   1.438   6.797   0.310 -0.9296  0.3049  1.5415
 2038SOL     vw 8152   1.351   6.796   0.311 -0.9488 -0.1624  0.2405
 2039SOL     ow 8153   0.492   5.956   4.417 -0.2819  0.7435 -0.0928
 2039SOL     hw 8154   0.492   6.049   4.441  1.4306  0.5836  0.6613
 2039SOL     hw 8155   0.430   5.951   4.344 -0.7040  2.3976  0.0924
 2039SOL     vw 8156   0.484   5.968   4.411 -0.1117  0.9408  0.0310
 2040SOL     ow 8157   5.350   2.401   2.937 -0.3103 -0.0536 -0.4247
 2040SOL     hw 8158   5.376   2.398   3.029  0.6239 -0.5814 -0.6917
 2040SOL     hw 8159   5.267   2.355   2.933  1.1048 -2.8379 -0.2937
 2040SOL     vw 8160   5.343   2.395   2.948 -0.0002 -0.4908 -0.4426
 2041SOL     ow 8161   2.487   6.993   4.444  0.9421 -0.6755 -0.1492
 2041SOL     hw 8162   2.555   6.974   4.508  0.9406  3.0296  1.2022
 2041SOL     hw 8163   2.406   6.994   4.496  0.4757 -0.6997 -0.8626
 2041SOL     vw 8164   2.485   6.991   4.459  0.8801 -0.1903 -0.0648
 2042SOL     ow 8165   4.809   6.018   3.658  0.3280  0.0700 -0.3408
 2042SOL     hw 8166   4.863   6.087   3.621  0.5425  0.3461  0.4572
 2042SOL     hw 8167   4.793   5.957   3.586  0.8122  0.5361 -0.8434
 2042SOL     vw 8168   4.814   6.019   3.644  0.4199  0.1678 -0.3020
 2043SOL     ow 8169   3.751   3.658   6.884  0.6339  0.4808 -0.4117
 2043SOL     hw 8170   3.715   3.643   6.971  1.6870  1.6853  0.2714
 2043SOL     hw 8171   3.685   3.623   6.824 -0.7087  0.7911  0.8254
 2043SOL     vw 8172   3.738   3.651   6.887  0.5958  0.6807 -0.1583
 2044SOL     ow 8173   0.514   0.014   6.130  0.3378  0.0161 -0.2325
 2044SOL     hw 8174   0.511   0.088   6.191  0.5704 -0.9289  0.9561
 2044SOL     hw 8175   0.522   0.055   6.044 -0.1506  1.3871  0.3418
 2044SOL     vw 8176   0.515   0.029   6.127  0.3040  0.0722  0.0002
 2045SOL     ow 8177   1.976   0.579   3.130 -0.3095  0.3549 -0.3027
 2045SOL     hw 8178   1.945   0.490   3.144  2.8003 -1.3262 -2.7683
 2045SOL     hw 8179   1.915   0.616   3.067 -1.4789 -0.0728  0.5457
 2045SOL     vw 8180   1.964   0.572   3.124 -0.0535  0.0767 -0.5161
 2046SOL     ow 8181   4.917   3.188   0.148  0.0022 -0.4687 -0.2336
 2046SOL     hw 8182   4.899   3.095   0.135  0.3591 -0.9967  2.5681
 2046SOL     hw 8183   4.985   3.191   0.215  0.5874  1.8227 -0.8401
 2046SOL     vw 8184   4.923   3.176   0.155  0.1264 -0.2358  0.0561
 2047SOL     ow 8185   1.136   6.030   2.791  0.3548  0.5008 -0.2897
 2047SOL     hw 8186   1.162   6.098   2.853  0.9344 -0.6185  0.7273
 2047SOL     hw 8187   1.215   5.980   2.774 -0.2022 -0.3532 -0.4650
 2047SOL     vw 8188   1.150   6.032   2.797  0.3578  0.2401 -0.1788
 2048SOL     ow 8189   3.276   1.180   1.574 -0.2746 -0.2111 -0.2570
 2048SOL     hw 8190   3.309   1.265   1.545  0.5127  0.0184  1.2116
 2048SOL     hw 8191   3.193   1.169   1.528 -0.4032  1.3626 -0.4476
 2048SOL     vw 8192   3.270   1.189   1.564 -0.1878  0.0267 -0.0884
 2049SOL     ow 8193   2.279   2.715   0.032  0.0361  0.0887 -0.5426
 2049SOL     hw 8194   2.359   2.674   0.066  1.3726  3.3506  0.6012
 2049SOL     hw 8195   2.211   2.649   0.047  2.3985 -2.8366 -1.5592
 2049SOL     vw 8196   2.281   2.701   0.038  0.5240  0.1332 -0.5258
 2050SOL     ow 8197   3.558   4.443   2.776  0.0473 -0.2504  0.0047
 2050SOL     hw 8198   3.510   4.362   2.794 -0.6749  0.7614  3.5777
 2050SOL     hw 8199   3.637   4.436   2.830  0.5249  0.9715 -0.4981
 2050SOL     vw 8200   3.562   4.431   2.786  0.0150  0.0443  0.4098
 2051SOL     ow 8201   7.173   2.713   1.673 -0.2690  0.0667 -0.1101
 2051SOL     hw 8202   7.215   2.702   1.587  1.7568  1.0697  0.6923
 2051SOL     hw 8203   7.147   2.624   1.698 -1.1187 -0.2179 -1.8214
 2051SOL     vw 8204   7.175   2.700   1.665 -0.1140  0.1615 -0.2300
 2052SOL     ow 8205   1.771   6.533   2.318 -0.5853  0.1854 -0.0876
 2052SOL     hw 8206   1.830   6.568   2.251 -0.6438 -0.0618 -0.2700
 2052SOL     hw 8207   1.828   6.510   2.391 -0.1849 -1.9374 -1.0235
 2052SOL     vw 8208   1.786   6.535   2.319 -0.5402 -0.1271 -0.2352
 2053SOL     ow 8209   0.699   3.954   1.508 -0.0139  0.8657 -0.4913
 2053SOL     hw 8210   0.607   3.928   1.514  0.5234 -1.4129 -1.2838
 2053SOL     hw 8211   0.719   3.954   1.414  1.0813  0.2040 -0.2815
 2053SOL     vw 8212   0.690   3.951   1.497  0.2015  0.4778 -0.5682
 2054SOL     ow 8213   1.791   3.221   1.567 -0.2497  0.6756  0.3805
 2054SOL     hw 8214   1.744   3.153   1.615  0.1207  1.0740  1.3292
 2054SOL     hw 8215   1.809   3.288   1.632  1.7971  0.4659  0.0894
 2054SOL     vw 8216   1.787   3.221   1.582  0.0693  0.7006  0.4672
 2055SOL     ow 8217   4.740   5.749   5.113 -0.4495 -0.1740  0.1656
 2055SOL     hw 8218   4.835   5.744   5.100 -0.5170  0.4914 -0.7136
 2055SOL     hw 8219   4.710   5.809   5.045 -1.6814 -1.4944 -0.5193
 2055SOL     vw 8220   4.749   5.756   5.102 -0.6211 -0.2604 -0.0410
 2056SOL     ow 8221   2.346   6.126   4.371 -0.2870 -0.1828  0.6616
 2056SOL     hw 8222   2.379   6.184   4.303 -0.9384 -0.6758 -0.1010
 2056SOL     hw 8223   2.338   6.182   4.449 -0.1214  0.5406  0.1695
 2056SOL     vw 8224   2.349   6.141   4.373 -0.3511 -0.1523  0.4961
 2057SOL     ow 8225   5.182   2.174   0.018 -0.1216 -0.1073 -1.0717
 2057SOL     hw 8226   5.212   2.119   0.091 -0.0502  1.0590 -0.1904
 2057SOL     hw 8227   5.196   2.264   0.048  1.2330  0.4335 -3.0781
 2057SOL     vw 8228   5.188   2.179   0.032  0.0663  0.1179 -1.2202
 2058SOL     ow 8229   7.035   5.266   1.588  0.3468  1.1700  0.3343
 2058SOL     hw 8230   6.986   5.267   1.505 -2.4726 -2.1662  1.6960
 2058SOL     hw 8231   7.125   5.247   1.562 -0.2235  1.2750 -2.0111
 2058SOL     vw 8232   7.040   5.264   1.573 -0.1006  0.7436  0.2046
 2059SOL     ow 8233   0.772   4.198   3.152 -0.4463 -0.1352  0.2671
 2059SOL     hw 8234   0.759   4.127   3.089  2.1768 -2.4299  2.0738
 2059SOL     hw 8235   0.685   4.215   3.187 -1.2941 -1.8744 -0.8420
 2059SOL     vw 8236   0.759   4.191   3.148 -0.2121 -0.6671  0.3593
 2060SOL     ow 8237   4.174   6.996   6.556  0.0052  0.3225 -0.7457
 2060SOL     hw 8238   4.265   6.975   6.578 -0.4412 -1.3241 -0.3285
 2060SOL     hw 8239   4.180   7.077   6.504  1.5699  0.9907  0.3932
 2060SOL     vw 8240   4.187   7.004   6.552  0.1528  0.1934 -0.5403
 2061SOL     ow 8241   5.673   1.968   4.442 -0.6126  0.2023  0.0101
 2061SOL     hw 8242   5.608   1.900   4.427 -0.7195  0.2715  0.1596
 2061SOL     hw 8243   5.743   1.948   4.380 -1.0280  0.4660 -0.5531
 2061SOL     vw 8244   5.674   1.956   4.432 -0.6816  0.2462 -0.0446
 2062SOL     ow 8245   5.660   5.094   1.413  0.5102 -0.4379  0.3326
 2062SOL     hw 8246   5.697   5.146   1.342  1.0300 -1.8543 -0.4764
 2062SOL     hw 8247   5.567   5.114   1.412  0.5419 -0.3087 -0.6373
 2062SOL     vw 8248   5.653   5.104   1.403  0.5829 -0.6077  0.0978
 2063SOL     ow 8249   5.077   3.280   0.640  0.0342 -0.2743  0.0758
 2063SOL     hw 8250   5.064   3.370   0.610  0.2830 -0.1069  0.4614
 2063SOL     hw 8251   5.171   3.265   0.631 -0.0093 -0.5032 -0.0075
 2063SOL     vw 8252   5.088   3.290   0.635  0.0610 -0.2823  0.1157
 2064SOL     ow 8253   0.416   3.125   2.280  0.0286  0.7884 -0.1289
 2064SOL     hw 8254   0.445   3.040   2.311 -1.3873  0.0469 -0.7325
 2064SOL     hw 8255   0.325   3.131   2.310 -0.1193  1.7732 -0.7286
 2064SOL     vw 8256   0.407   3.115   2.288 -0.1777  0.8204 -0.2877
 2065SOL     ow 8257   0.618   1.093   3.931  0.9450  0.0652  0.7122
 2065SOL     hw 8258   0.598   1.098   3.837  0.7367  0.5471  0.7772
 2065SOL     hw 8259   0.609   1.000   3.952 -1.1714  0.2047  0.7034
 2065SOL     vw 8260   0.614   1.082   3.921  0.6383  0.1472  0.7197
 2066SOL     ow 8261   1.676   3.705   7.137  0.3474 -0.0032  0.8958
 2066SOL     hw 8262   1.674   3.636   7.204 -1.6490 -0.7208  0.2003
 2066SOL     hw 8263   1.708   3.660   7.058 -2.3062 -0.6143  0.0648
 2066SOL     vw 8264   1.680   3.690   7.135 -0.2661 -0.1786  0.6945
 2067SOL     ow 8265   1.525   1.969   5.848 -0.0312 -0.2946 -0.2293
 2067SOL     hw 8266   1.474   2.051   5.847 -0.3627 -0.5045 -0.7315
 2067SOL     hw 8267   1.494   1.924   5.927 -0.5962 -0.4002 -0.5061
 2067SOL     vw 8268   1.514   1.974   5.859 -0.1494 -0.3362 -0.3319
 2068SOL     ow 8269   2.408   2.934   5.276  0.3006  0.1992 -0.1417
 2068SOL     hw 8270   2.494   2.912   5.241 -0.0953 -0.2074 -0.8668
 2068SOL     hw 8271   2.425   3.004   5.339  1.0759  0.6151 -0.7999
 2068SOL     vw 8272   2.422   2.941   5.280  0.3507  0.2004 -0.3242
 2069SOL     ow 8273   7.024   5.010   3.041  0.0972 -0.1981  0.3966
 2069SOL     hw 8274   7.011   5.016   3.135 -0.4245 -0.8184  0.3737
 2069SOL     hw 8275   7.118   5.022   3.028  0.8201 -3.6486  1.3555
 2069SOL     vw 8276   7.035   5.012   3.052  0.1237 -0.7350  0.5200
 2070SOL     ow 8277   1.562   0.488   0.716  0.2357 -0.1618 -0.0057
 2070SOL     hw 8278   1.643   0.438   0.728 -0.8127 -1.9751 -0.1622
 2070SOL     hw 8279   1.516   0.480   0.800 -0.0699  0.3074 -0.1251
 2070SOL     vw 8280   1.567   0.480   0.729  0.0570 -0.3391 -0.0421
 2071SOL     ow 8281   0.428   0.333   1.634 -0.3246  0.1407 -0.2719
 2071SOL     hw 8282   0.355   0.395   1.634 -1.1861 -0.7887 -2.0161
 2071SOL     hw 8283   0.504   0.386   1.610 -0.6550  0.8945  0.3160
 2071SOL     vw 8284   0.428   0.348   1.631 -0.4818  0.1175 -0.4244
 2072SOL     ow 8285   0.197   2.085   6.003 -0.2319 -0.3167  0.1537
 2072SOL     hw 8286   0.192   1.990   6.003 -0.7375 -0.2939  0.2374
 2072SOL     hw 8287   0.265   2.106   5.939  2.4011 -0.8294  2.5954
 2072SOL     vw 8288   0.205   2.075   5.994  0.0488 -0.3814  0.4871
 2073SOL     ow 8289   3.684   3.044   1.545  0.0408  0.3689 -0.1045
 2073SOL     hw 8290   3.730   3.010   1.622 -0.2646 -1.8734 -0.8473
 2073SOL     hw 8291   3.744   3.029   1.472 -1.5291 -2.1439 -1.0137
 2073SOL     vw 8292   3.698   3.037   1.545 -0.2066 -0.2584 -0.3225
 2074SOL     ow 8293   6.652   1.092   3.927  0.1898 -0.7986 -0.5340
 2074SOL     hw 8294   6.586   1.144   3.972  1.8682  1.3635 -0.3874
 2074SOL     hw 8295   6.615   1.077   3.840 -0.0922  1.3431 -0.8437
 2074SOL     vw 8296   6.639   1.097   3.921  0.3741 -0.2308 -0.5556
 2075SOL     ow 8297   5.665   6.551   6.535 -0.2674 -0.3210 -0.2311
 2075SOL     hw 8298   5.716   6.472   6.553  0.1718 -0.1072 -0.5245
 2075SOL     hw 8299   5.703   6.617   6.592 -0.0087 -0.0842 -0.6682
 2075SOL     vw 8300   5.677   6.549   6.545 -0.1752 -0.2615 -0.3276
 2076SOL     ow 8301   5.042   0.523   3.734 -0.0178 -0.1895  0.4121
 2076SOL     hw 8302   5.113   0.581   3.762 -0.7802  0.3390  1.3172
 2076SOL     hw 8303   5.022   0.471   3.812 -0.5408 -0.4209  0.1254
 2076SOL     vw 8304   5.049   0.524   3.748 -0.1874 -0.1503  0.4935
 2077SOL     ow 8305   7.230   4.833   4.004 -0.2363 -0.1224 -0.4478
 2077SOL     hw 8306   7.324   4.820   3.997 -0.3941 -2.5638  0.8369
 2077SOL     hw 8307   7.211   4.907   3.946  2.2702 -0.4202 -1.7634
 2077SOL     vw 8308   7.240   4.841   3.995  0.0736 -0.4840 -0.4519
 2078SOL     ow 8309   3.132   2.383   5.764  0.1319 -0.2233 -0.0362
 2078SOL     hw 8310   3.143   2.332   5.683 -0.2393  0.6588 -0.6525
 2078SOL     hw 8311   3.221   2.401   5.792  0.3743  1.9951 -1.8993
 2078SOL     vw 8312   3.145   2.378   5.757  0.1148  0.1857 -0.3631
 2079SOL     ow 8313   4.369   5.253   0.718 -0.0912 -0.7679 -0.7005
 2079SOL     hw 8314   4.371   5.335   0.669 -0.7114  0.5221  1.3210
 2079SOL     hw 8315   4.281   5.218   0.702  0.2434 -1.1689 -1.7266
 2079SOL     vw 8316   4.357   5.259   0.709 -0.1287 -0.6506 -0.5691
 2080SOL     ow 8317   3.737   5.484   4.008 -0.0588  0.2652 -0.8248
 2080SOL     hw 8318   3.792   5.541   3.955  1.5283 -0.0688  0.3786
 2080SOL     hw 8319   3.670   5.541   4.045  0.7964  1.1345 -0.5789
 2080SOL     vw 8320   3.735   5.499   4.006  0.2635  0.3357 -0.6335
 2081SOL     ow 8321   2.780   1.288   7.040  0.5712 -0.3587  0.3465
 2081SOL     hw 8322   2.708   1.349   7.050 -2.9147 -3.9402 -0.4375
 2081SOL     hw 8323   2.801   1.259   7.129  1.6170  1.1789  0.6332
 2081SOL     vw 8324   2.773   1.292   7.053  0.2493 -0.6283  0.2811
 2082SOL     ow 8325   2.597   4.706   3.441 -0.2386  0.5047  0.4253
 2082SOL     hw 8326   2.601   4.737   3.350  0.8361  0.4393  0.4440
 2082SOL     hw 8327   2.604   4.610   3.434  2.2624  0.6035  0.6772
 2082SOL     vw 8328   2.598   4.697   3.428  0.2332  0.5093  0.4611
 2083SOL     ow 8329   1.893   5.361   1.736 -0.3166 -0.6127 -0.3976
 2083SOL     hw 8330   1.876   5.286   1.679 -0.3302 -0.5598 -0.4636
 2083SOL     hw 8331   1.809   5.407   1.740 -0.4313 -0.8508  0.0094
 2083SOL     vw 8332   1.879   5.357   1.729 -0.3335 -0.6373 -0.3526
 2084SOL     ow 8333   6.846   6.061   2.555  0.0623 -0.5947 -0.1118
 2084SOL     hw 8334   6.926   6.074   2.606 -1.6172  0.3191  2.4295
 2084SOL     hw 8335   6.787   6.013   2.613 -0.8400 -2.5397 -2.4235
 2084SOL     vw 8336   6.849   6.056   2.569 -0.2782 -0.7308 -0.0815
 2085SOL     ow 8337   1.728   2.352   0.316  0.0895  0.1814 -1.0668
 2085SOL     hw 8338   1.728   2.340   0.221 -0.7166 -0.5100 -0.9855
 2085SOL     hw 8339   1.806   2.305   0.346  0.4463  0.5507 -1.3877
 2085SOL     vw 8340   1.738   2.344   0.308  0.0302  0.1389 -1.0984
 2086SOL     ow 8341   4.685   6.339   3.869  0.0451  0.2999 -0.5381
 2086SOL     hw 8342   4.705   6.343   3.775  1.0372 -0.8577 -0.4102
 2086SOL     hw 8343   4.601   6.383   3.878 -0.7001 -0.7142 -2.1637
 2086SOL     vw 8344   4.677   6.345   3.858  0.0775  0.0134 -0.7356
 2087SOL     ow 8345   5.570   6.136   3.649 -0.0787  0.4563  0.5996
 2087SOL     hw 8346   5.544   6.067   3.711 -0.5121 -0.7226 -0.8297
 2087SOL     hw 8347   5.487   6.172   3.618  0.0649 -0.0847 -0.4743
 2087SOL     vw 8348   5.555   6.132   3.653 -0.1166  0.2296  0.2693
 2088SOL     ow 8349   0.665   1.245   4.196  0.5425  0.2503 -0.4202
 2088SOL     hw 8350   0.712   1.182   4.251  0.5506  0.7878  0.2025
 2088SOL     hw 8351   0.639   1.314   4.257  0.2729  0.6983 -1.0419
 2088SOL     vw 8352   0.668   1.246   4.212  0.5080  0.3803 -0.4203
 2089SOL     ow 8353   3.306   6.077   6.276 -0.0046  0.4249  0.4149
 2089SOL     hw 8354   3.300   6.169   6.303  0.8842  0.8236 -0.6633
 2089SOL     hw 8355   3.392   6.049   6.305  0.3218  0.3872 -0.5658
 2089SOL     vw 8356   3.316   6.086   6.283  0.1558  0.4725  0.1431
 2090SOL     ow 8357   1.617   0.971   7.051 -0.5067 -0.2761  0.2906
 2090SOL     hw 8358   1.553   0.976   7.122  0.6317  0.4035  1.3147
 2090SOL     hw 8359   1.596   1.046   6.995  0.0366  0.5792  1.2034
 2090SOL     vw 8360   1.606   0.981   7.053 -0.2848 -0.0736  0.5460
 2091SOL     ow 8361   0.538   0.243   0.419  0.2428  0.0237  0.0202
 2091SOL     hw 8362   0.625   0.206   0.436 -0.0105 -2.0283 -2.4680
 2091SOL     hw 8363   0.478   0.187   0.468  0.1090 -0.8153 -1.0657
 2091SOL     vw 8364   0.542   0.231   0.428  0.1917 -0.3577 -0.4514
 2092SOL     ow 8365   1.378   4.315   2.133 -0.4646  0.0515  0.0537
 2092SOL     hw 8366   1.372   4.312   2.228  0.2767 -0.1405  0.1006
 2092SOL     hw 8367   1.472   4.315   2.115 -0.5664  1.4682 -0.6261
 2092SOL     vw 8368   1.389   4.315   2.143 -0.3803  0.2131 -0.0298
 2093SOL     ow 8369   5.057   6.099   6.974 -0.4854  0.4740 -0.5083
 2093SOL     hw 8370   4.970   6.058   6.979 -0.0904 -0.2109  1.5621
 2093SOL     hw 8371   5.049   6.178   7.028  0.4791 -0.2431  0.7391
 2093SOL     vw 8372   5.044   6.104   6.982 -0.3061  0.2890 -0.0706
 2094SOL     ow 8373   1.119   2.955   6.922  0.6987 -0.4261  0.2746
 2094SOL     hw 8374   1.110   2.866   6.886 -0.8386  0.3439 -1.3790
 2094SOL     hw 8375   1.147   2.941   7.012  0.2732 -2.6117  0.1323
 2094SOL     vw 8376   1.122   2.941   6.929  0.4398 -0.6130  0.0379
 2095SOL     ow 8377   1.880   1.545   6.986 -0.2776 -0.6377 -0.3858
 2095SOL     hw 8378   1.867   1.632   7.023 -0.3111 -0.4699 -0.7878
 2095SOL     hw 8379   1.957   1.555   6.929  1.5066 -1.5375  1.7252
 2095SOL     vw 8380   1.888   1.558   6.983 -0.0466 -0.7343 -0.1605
 2096SOL     ow 8381   1.575   4.688   0.824 -0.1970 -0.1319 -0.1257
 2096SOL     hw 8382   1.560   4.782   0.828  1.0715  0.0875  3.7402
 2096SOL     hw 8383   1.489   4.649   0.835 -0.5874  0.6019 -0.5363
 2096SOL     vw 8384   1.562   4.695   0.826 -0.0812 -0.0060  0.3302
 2097SOL     ow 8385   6.348   7.056   3.162  0.6793  0.0284 -0.1350
 2097SOL     hw 8386   6.338   6.982   3.102 -0.4816  0.4907 -0.5238
 2097SOL     hw 8387   6.440   7.051   3.190  0.5265 -1.7851  0.1545
 2097SOL     vw 8388   6.359   7.045   3.158  0.5057 -0.1497 -0.1482
 2098SOL     ow 8389   2.918   6.573   5.201 -0.3033 -0.0392  0.1834
 2098SOL     hw 8390   2.969   6.501   5.238 -1.6636 -0.8290  0.5979
 2098SOL     hw 8391   2.983   6.629   5.159  0.9913 -0.5028  1.4961
 2098SOL     vw 8392   2.933   6.571   5.200 -0.3120 -0.2048  0.4113
 2099SOL     ow 8393   3.303   0.893   1.396 -0.0141  0.2537  0.0288
 2099SOL     hw 8394   3.318   0.812   1.445 -2.0271  0.5492  1.2611
 2099SOL     hw 8395   3.246   0.868   1.323  0.8086  0.2827 -0.6427
 2099SOL     vw 8396   3.298   0.879   1.393 -0.1713  0.2965  0.1027
 2100SOL     ow 8397   1.934   1.263   6.910 -0.7037 -0.3260  0.1443
 2100SOL     hw 8398   1.875   1.210   6.856 -0.7903  0.8935 -1.0211
 2100SOL     hw 8399   1.990   1.308   6.847 -0.9770  1.3486  1.0333
 2100SOL     vw 8400   1.933   1.262   6.895 -0.7511  0.0559  0.1075
 2101SOL     ow 8401   6.411   3.982   7.033  0.6131 -0.1096  0.0821
 2101SOL     hw 8402   6.477   4.050   7.020 -1.5043  1.8794 -1.0142
 2101SOL     hw 8403   6.439   3.910   6.977  1.4292  0.9899 -0.9659
 2101SOL     vw 8404   6.424   3.981   7.024  0.4413  0.2980 -0.2010
 2102SOL     ow 8405   4.159   5.920   6.136 -0.1509 -0.0209 -0.3919
 2102SOL     hw 8406   4.178   6.009   6.107  0.2874  0.7297  1.9384
 2102SOL     hw 8407   4.244   5.886   6.166 -0.3808 -1.1116 -0.9165
 2102SOL     vw 8408   4.173   5.927   6.136 -0.1235 -0.0656 -0.1535
 2103SOL     ow 8409   2.856   1.598   6.851  0.3411  0.7673 -0.2925
 2103SOL     hw 8410   2.782   1.648   6.817 -1.2023 -0.6365  0.8284
 2103SOL     hw 8411   2.856   1.615   6.945 -0.8384 -1.9347  0.2941
 2103SOL     vw 8412   2.846   1.607   6.859 -0.0180  0.2256 -0.0672
 2104SOL     ow 8413   2.728   1.352   2.146  0.0746  0.2668 -0.6613
 2104SOL     hw 8414   2.638   1.381   2.160  0.2020  1.0284 -1.4038
 2104SOL     hw 8415   2.721   1.287   2.076 -0.1299 -1.1206  0.5872
 2104SOL     vw 8416   2.715   1.347   2.139  0.0644  0.1842 -0.5944
 2105SOL     ow 8417   6.517   2.446   6.343 -0.5548 -0.2583  1.0481
 2105SOL     hw 8418   6.546   2.367   6.388 -1.0994 -0.9392  0.2364
 2105SOL     hw 8419   6.459   2.415   6.273  1.3555  0.6058 -1.0764
 2105SOL     vw 8420   6.513   2.432   6.339 -0.3746 -0.2341  0.6607
 2106SOL     ow 8421   3.804   4.704   0.738  0.0380  0.3109  0.5726
 2106SOL     hw 8422   3.831   4.702   0.829  1.6026  1.3421  0.1789
 2106SOL     hw 8423   3.789   4.797   0.719 -1.7472 -0.0113  0.1462
 2106SOL     vw 8424   3.805   4.716   0.747  0.0088  0.4046  0.4644
 2107SOL     ow 8425   1.811   5.979   2.432 -0.5783 -0.4429  0.9382
 2107SOL     hw 8426   1.834   5.899   2.385 -2.0041  0.2064 -1.0202
 2107SOL     hw 8427   1.860   6.048   2.387 -2.7689  0.3378 -0.4405
 2107SOL     vw 8428   1.821   5.977   2.419 -1.0555 -0.2539  0.4979
 2108SOL     ow 8429   2.868   2.460   1.777 -0.1463 -0.1614 -0.6516
 2108SOL     hw 8430   2.947   2.510   1.797 -0.6899  1.7791 -2.9300
 2108SOL     hw 8431   2.829   2.442   1.862 -0.2674  3.9725  0.3635
 2108SOL     vw 8432   2.874   2.464   1.791 -0.2341  0.6402 -0.8182
 2109SOL     ow 8433   1.392   5.555   6.118 -0.4493  0.4304  0.3058
 2109SOL     hw 8434   1.384   5.650   6.107 -0.0522  0.5599  1.1083
 2109SOL     hw 8435   1.486   5.539   6.122 -0.2470 -0.4572 -3.6011
 2109SOL     vw 8436   1.403   5.565   6.117 -0.3701  0.3302 -0.1040
 2110SOL     ow 8437   2.566   4.444   3.361  0.3952  0.3023 -0.5754
 2110SOL     hw 8438   2.503   4.486   3.303  1.0033 -0.8385 -2.1551
 2110SOL     hw 8439   2.620   4.390   3.302  1.4429 -0.4359  0.9897
 2110SOL     vw 8440   2.565   4.443   3.346  0.6137  0.0544 -0.5773
 2111SOL     ow 8441   4.346   5.178   3.790 -0.0111  0.4170  0.1547
 2111SOL     hw 8442   4.268   5.158   3.842  1.0235  1.9248  2.4407
 2111SOL     hw 8443   4.319   5.164   3.699 -2.1869 -1.4422  1.0032
 2111SOL     vw 8444   4.332   5.173   3.785 -0.1619  0.3707  0.5682
 2112SOL     ow 8445   1.312   4.329   3.248  0.1395 -0.2922 -0.3549
 2112SOL     hw 8446   1.384   4.314   3.187  0.8773  1.4270  0.0204
 2112SOL     hw 8447   1.350   4.384   3.317 -1.5415  0.7282 -0.1722
 2112SOL     vw 8448   1.326   4.334   3.249  0.0150  0.0691 -0.2812
 2113SOL     ow 8449   4.695   5.477   2.007  0.1488  0.1090  0.2609
 2113SOL     hw 8450   4.733   5.564   1.990 -1.3357  0.6983 -0.1719
 2113SOL     hw 8451   4.603   5.494   2.024 -0.4334 -1.5196 -1.0637
 2113SOL     vw 8452   4.688   5.491   2.007 -0.1242 -0.0281  0.0291
 2114SOL     ow 8453   2.713   3.267   4.098  0.1717 -0.2192  0.6192
 2114SOL     hw 8454   2.783   3.265   4.032  0.4830  1.9009  0.8248
 2114SOL     hw 8455   2.660   3.189   4.079  1.1426 -0.5028 -1.1316
 2114SOL     vw 8456   2.715   3.256   4.087  0.3408  0.0230  0.4151
 2115SOL     ow 8457   4.790   5.409   3.689  0.2741 -0.1987 -0.4077
 2115SOL     hw 8458   4.830   5.464   3.756  0.3185  0.8672 -1.2712
 2115SOL     hw 8459   4.708   5.453   3.667  0.6851 -0.0058 -1.6840
 2115SOL     vw 8460   4.785   5.422   3.695  0.3345 -0.0327 -0.6900
 2116SOL     ow 8461   2.434   2.782   4.618 -0.6274  0.3779 -0.1561
 2116SOL     hw 8462   2.367   2.746   4.559 -0.8221  0.1038  0.2244
 2116SOL     hw 8463   2.505   2.717   4.615  0.3233  1.4179 -1.7716
 2116SOL     vw 8464   2.434   2.768   4.610 -0.5277  0.4791 -0.3188
 2117SOL     ow 8465   7.114   6.967   4.402 -0.0962 -0.2158  0.2582
 2117SOL     hw 8466   7.101   6.962   4.497 -1.9544  1.2457  0.1178
 2117SOL     hw 8467   7.151   7.054   4.387  0.4327 -0.5312 -0.3696
 2117SOL     vw 8468   7.117   6.978   4.412 -0.2716 -0.0644  0.1566
 2118SOL     ow 8469   1.158   3.848   0.161  0.4954 -0.2148 -0.6239
 2118SOL     hw 8470   1.068   3.879   0.168 -0.2877 -2.3403 -0.4543
 2118SOL     hw 8471   1.150   3.755   0.139  2.5804 -1.0301  1.5718
 2118SOL     vw 8472   1.145   3.840   0.159  0.6672 -0.6027 -0.3118
 2119SOL     ow 8473   1.616   2.314   2.408  0.5417  0.5125  0.3927
 2119SOL     hw 8474   1.588   2.224   2.420 -0.1678  0.4817 -1.1758
 2119SOL     hw 8475   1.592   2.335   2.317  2.3760  1.6662  0.1144
 2119SOL     vw 8476   1.609   2.305   2.397  0.6902  0.6607  0.1491
 2120SOL     ow 8477   2.950   6.077   0.335 -0.1408  0.3978 -0.2572
 2120SOL     hw 8478   2.972   6.054   0.244 -1.5279 -1.8405 -0.1119
 2120SOL     hw 8479   3.018   6.036   0.388 -1.7459 -2.2850 -0.0979
 2120SOL     vw 8480   2.962   6.069   0.330 -0.5355 -0.2513 -0.2170
 2121SOL     ow 8481   0.787   6.401   0.333 -0.1543 -0.1338  0.0080
 2121SOL     hw 8482   0.853   6.335   0.355 -0.5233 -0.0088  1.5618
 2121SOL     hw 8483   0.817   6.481   0.374 -1.7179 -0.2922  1.5855
 2121SOL     vw 8484   0.800   6.403   0.341 -0.4092 -0.1383  0.4212
 2122SOL     ow 8485   4.941   2.176   2.016 -0.6761  0.0470 -0.1895
 2122SOL     hw 8486   4.953   2.182   2.111 -0.0780 -0.8023 -0.1978
 2122SOL     hw 8487   4.938   2.267   1.987  1.4312  0.3718  0.3862
 2122SOL     vw 8488   4.942   2.189   2.025 -0.3190 -0.0222 -0.1147
 2123SOL     ow 8489   2.279   3.233   5.671  0.7745  0.2886  0.0862
 2123SOL     hw 8490   2.296   3.202   5.760 -1.5370  1.5497  1.0326
 2123SOL     hw 8491   2.231   3.314   5.682  1.6729  1.2509 -2.3586
 2123SOL     vw 8492   2.275   3.239   5.684  0.5881  0.5819 -0.1116
 2124SOL     ow 8493   3.119   4.702   4.360  0.3720 -0.3089 -0.1488
 2124SOL     hw 8494   3.052   4.759   4.397  0.1013 -1.5271  1.3431
 2124SOL     hw 8495   3.111   4.714   4.265  0.5634  2.3384  0.1050
 2124SOL     vw 8496   3.109   4.711   4.352  0.3616 -0.1204  0.0815
 2125SOL     ow 8497   6.268   5.845   1.445 -0.1155  0.0928  0.5865
 2125SOL     hw 8498   6.191   5.901   1.456  1.2330  2.7148 -1.9851
 2125SOL     hw 8499   6.241   5.780   1.380  0.0122  1.5855 -1.0397
 2125SOL     vw 8500   6.254   5.844   1.438  0.0794  0.6356  0.0327
 2126SOL     ow 8501   3.204   4.525   2.001  0.1992  0.5359  0.0797
 2126SOL     hw 8502   3.243   4.441   1.977 -0.5862 -0.0438  0.7783
 2126SOL     hw 8503   3.114   4.504   2.025 -0.2792  1.7137 -0.5876
 2126SOL     vw 8504   3.198   4.511   2.001  0.0324  0.6149  0.0839
 2127SOL     ow 8505   3.914   7.148   4.810  0.3172 -0.5863  0.0884
 2127SOL     hw 8506   3.893   7.120   4.721 -0.1746  2.6372 -0.9254
 2127SOL     hw 8507   3.840   7.118   4.863 -1.4611  0.9779 -1.3961
 2127SOL     vw 8508   3.902   7.140   4.806  0.0179  0.0453 -0.2415
 2128SOL     ow 8509   4.656   3.314   0.124 -0.2648 -0.1747 -0.3336
 2128SOL     hw 8510   4.579   3.331   0.070 -0.6101 -1.0820 -0.1540
 2128SOL     hw 8511   4.623   3.261   0.197  0.0512  1.5625  1.1665
 2128SOL     vw 8512   4.642   3.309   0.127 -0.2689 -0.0652 -0.1120
 2129SOL     ow 8513   1.141   4.520   2.169 -0.1645 -0.0685  0.2888
 2129SOL     hw 8514   1.143   4.605   2.212 -0.9711  0.7690 -1.2621
 2129SOL     hw 8515   1.096   4.463   2.232 -0.8462  0.9805  0.7791
 2129SOL     vw 8516   1.136   4.523   2.183 -0.3609  0.1805  0.1488
 2130SOL     ow 8517   0.523   6.543   6.751  0.0319  0.7206 -0.7391
 2130SOL     hw 8518   0.510   6.459   6.707 -1.3038  1.2712 -1.4197
 2130SOL     hw 8519   0.608   6.533   6.795  0.8369 -0.2843 -2.4131
 2130SOL     vw 8520   0.533   6.531   6.751 -0.0381  0.6607 -1.0498
 2131SOL     ow 8521   6.723   4.259   0.491 -1.1257 -1.2576  0.6451
 2131SOL     hw 8522   6.643   4.262   0.544 -0.7745  0.8895  1.1342
 2131SOL     hw 8523   6.780   4.325   0.529 -0.6963  0.1276 -2.1297
 2131SOL     vw 8524   6.720   4.268   0.503 -1.0228 -0.7918  0.3435
 2132SOL     ow 8525   6.987   5.827   5.659  0.4997 -0.4327 -0.4409
 2132SOL     hw 8526   6.919   5.895   5.666  0.1276 -0.7622 -0.7969
 2132SOL     hw 8527   7.002   5.818   5.565  2.6292  1.1864 -0.3238
 2132SOL     vw 8528   6.980   5.835   5.648  0.7317 -0.2627 -0.4725
 2133SOL     ow 8529   0.427   2.307   6.925  0.2090 -0.2537 -0.3241
 2133SOL     hw 8530   0.418   2.229   6.870 -0.7363  0.5463 -1.3767
 2133SOL     hw 8531   0.449   2.377   6.863 -0.0764  0.5260  0.4359
 2133SOL     vw 8532   0.429   2.306   6.909  0.0466 -0.0453 -0.3629
 2134SOL     ow 8533   1.968   2.138   0.388 -0.1407  0.1618 -0.1145
 2134SOL     hw 8534   1.957   2.072   0.456 -0.2515  0.4674  0.1656
 2134SOL     hw 8535   1.993   2.089   0.310 -0.4805 -0.2359  0.0274
 2134SOL     vw 8536   1.970   2.123   0.387 -0.2002  0.1497 -0.0588
 2135SOL     ow 8537   4.364   6.641   0.442  0.3031  0.5336  0.2818
 2135SOL     hw 8538   4.443   6.615   0.396 -0.9327 -3.1971 -0.0545
 2135SOL     hw 8539   4.306   6.676   0.374 -0.5621 -2.6049 -0.7573
 2135SOL     vw 8540   4.367   6.642   0.427  0.0260 -0.3726  0.1003
 2136SOL     ow 8541   4.460   4.093   3.145  0.2255  0.6621  0.1308
 2136SOL     hw 8542   4.460   4.141   3.062 -1.7714  0.6151  0.0390
 2136SOL     hw 8543   4.480   4.003   3.121 -1.0971  0.4936 -0.4562
 2136SOL     vw 8544   4.463   4.087   3.131 -0.2127  0.6337  0.0412
 2137SOL     ow 8545   2.335   2.396   2.674  0.3170  0.2055  0.2842
 2137SOL     hw 8546   2.340   2.362   2.585  1.0611 -0.6082  0.6230
 2137SOL     hw 8547   2.276   2.336   2.720 -0.0059  0.5767  0.3551
 2137SOL     vw 8548   2.328   2.383   2.669  0.3725  0.1471  0.3382
 2138SOL     ow 8549   3.874   6.287   5.680 -0.0015  0.2771  0.5926
 2138SOL     hw 8550   3.783   6.317   5.683 -0.6399 -1.5894  1.5602
 2138SOL     hw 8551   3.907   6.301   5.768  0.1309 -0.4772  0.6713
 2138SOL     vw 8552   3.866   6.293   5.692 -0.0682 -0.0684  0.7305
 2139SOL     ow 8553   1.234   0.583   7.218  0.0937 -0.5451  0.0514
 2139SOL     hw 8554   1.286   0.652   7.259  0.9510 -0.1589 -1.5969
 2139SOL     hw 8555   1.172   0.630   7.162  0.4834 -1.0942 -0.8600
 2139SOL     vw 8556   1.233   0.598   7.216  0.2582 -0.5666 -0.2863
 2140SOL     ow 8557   6.419   5.909   3.802 -0.3662  0.4222  0.7197
 2140SOL     hw 8558   6.413   5.922   3.896 -2.6565  1.7624  0.4453
 2140SOL     hw 8559   6.406   5.996   3.764 -0.4522 -0.2390 -0.8575
 2140SOL     vw 8560   6.417   5.922   3.809 -0.6800  0.5119  0.4754
 2141SOL     ow 8561   5.339   1.747   2.849  0.2863  0.1652 -0.4576
 2141SOL     hw 8562   5.321   1.751   2.755 -0.2030 -0.7610 -0.4259
 2141SOL     hw 8563   5.374   1.833   2.871 -0.1732  0.6053 -1.3719
 2141SOL     vw 8564   5.341   1.759   2.839  0.1609  0.1010 -0.5741
 2142SOL     ow 8565   6.630   3.747   0.801 -0.2270  0.0225  0.0196
 2142SOL     hw 8566   6.681   3.805   0.858  0.7651  0.5108 -1.3110
 2142SOL     hw 8567   6.556   3.801   0.773  0.1681  0.3337 -0.4396
 2142SOL     vw 8568   6.627   3.762   0.805 -0.0439  0.1281 -0.2165
 2143SOL     ow 8569   3.677   4.480   0.688 -0.0282 -0.2063 -0.1371
 2143SOL     hw 8570   3.695   4.572   0.705  2.7013 -0.5011 -0.9193
 2143SOL     hw 8571   3.736   4.433   0.748 -1.6444 -1.5013  0.5396
 2143SOL     vw 8572   3.687   4.486   0.698  0.1187 -0.4158 -0.1510
 2144SOL     ow 8573   7.236   5.324   2.055  0.4587  0.1468 -0.2540
 2144SOL     hw 8574   7.249   5.405   2.104  0.5828 -1.1745  2.0194
 2144SOL     hw 8575   7.151   5.292   2.084  1.5519 -1.8477  0.9310
 2144SOL     vw 8576   7.226   5.331   2.065  0.6194 -0.2906  0.2023
 2145SOL     ow 8577   0.087   2.934   4.032  0.2683 -0.0226 -0.5219
 2145SOL     hw 8578   0.170   2.937   3.984 -0.3064 -0.6772 -1.5924
 2145SOL     hw 8579   0.064   3.027   4.044  1.5411  0.1868  0.5270
 2145SOL     vw 8580   0.094   2.947   4.027  0.3604 -0.0813 -0.5248
 2146SOL     ow 8581   1.206   0.455   2.598 -0.2566 -0.2006  0.3207
 2146SOL     hw 8582   1.279   0.427   2.543 -0.9583 -0.9827 -0.2291
 2146SOL     hw 8583   1.160   0.520   2.545 -0.4574 -0.3450  0.3174
 2146SOL     vw 8584   1.210   0.460   2.584 -0.3757 -0.3228  0.2477
 2147SOL     ow 8585   5.591   5.321   1.651 -0.0208  0.3018 -0.2521
 2147SOL     hw 8586   5.571   5.322   1.745  1.6418  2.0682  0.1543
 2147SOL     hw 8587   5.574   5.411   1.622 -0.7993 -0.2916 -1.7349
 2147SOL     vw 8588   5.586   5.333   1.660  0.0961  0.4566 -0.3942
 2148SOL     ow 8589   4.455   2.618   1.577  0.5190  0.0745  0.2416
 2148SOL     hw 8590   4.506   2.565   1.639 -0.2525 -0.7629  0.1876
 2148SOL     hw 8591   4.512   2.626   1.500  1.0263  0.1459  0.6211
 2148SOL     vw 8592   4.469   2.612   1.575  0.4842 -0.0267  0.2846
 2149SOL     ow 8593   1.989   5.864   0.689  1.0023  0.1800  0.0102
 2149SOL     hw 8594   2.044   5.812   0.748  1.0200 -0.9473 -0.9564
 2149SOL     hw 8595   1.922   5.803   0.659  0.3194  1.0451 -0.2687
 2149SOL     vw 8596   1.987   5.849   0.693  0.9145  0.1454 -0.1541
 2150SOL     ow 8597   7.040   3.560   6.613 -0.0194 -0.8080 -0.9161
 2150SOL     hw 8598   7.005   3.493   6.672  0.8866 -0.3155  0.2135
 2150SOL     hw 8599   6.975   3.630   6.614 -0.2169 -0.9893 -0.8719
 2150SOL     vw 8600   7.027   3.560   6.621  0.0741 -0.7670 -0.7613
 2151SOL     ow 8601   4.821   3.709   0.990  0.0395 -0.4409 -0.0365
 2151SOL     hw 8602   4.862   3.707   1.076 -0.4955  0.8174  0.2656
 2151SOL     hw 8603   4.880   3.658   0.934  0.6123 -0.9094  0.9700
 2151SOL     vw 8604   4.834   3.702   0.994  0.0446 -0.3366  0.1361
 2152SOL     ow 8605   3.405   6.668   0.323  0.0673 -0.7167 -0.8614
 2152SOL     hw 8606   3.431   6.759   0.339  0.1785 -0.9134  0.1003
 2152SOL     hw 8607   3.449   6.618   0.392 -1.1202 -1.3294 -0.5268
 2152SOL     vw 8608   3.414   6.673   0.334 -0.0746 -0.8235 -0.6904
 2153SOL     ow 8609   0.223   0.407   7.219 -0.1867  0.3672 -0.1890
 2153SOL     hw 8610   0.301   0.387   7.270  0.2191 -2.4863 -1.7326
 2153SOL     hw 8611   0.224   0.503   7.211  1.7454  0.6143  1.8962
 2153SOL     vw 8612   0.234   0.417   7.225  0.1218  0.0233 -0.1173
 2154SOL     ow 8613   4.648   1.459   5.431  0.6504  0.4279 -0.2730
 2154SOL     hw 8614   4.572   1.405   5.414  0.9390 -0.6226  1.5026
 2154SOL     hw 8615   4.720   1.416   5.385  0.6972 -0.2056  0.3744
 2154SOL     vw 8616   4.648   1.446   5.423  0.6945  0.2058  0.0467
 2155SOL     ow 8617   2.665   4.110   3.787 -0.3488 -0.4210 -0.6214
 2155SOL     hw 8618   2.636   4.088   3.875 -3.0677 -1.3691 -1.6332
 2155SOL     hw 8619   2.724   4.184   3.798  0.6235 -1.4899  2.0702
 2155SOL     vw 8620   2.669   4.117   3.800 -0.5792 -0.6871 -0.3999
 2156SOL     ow 8621   6.061   5.983   0.262 -0.3130 -0.4459 -0.2052
 2156SOL     hw 8622   6.043   5.908   0.319 -0.7336 -0.2252 -0.0365
 2156SOL     hw 8623   6.138   6.024   0.300 -1.8317  0.9714  1.5538
 2156SOL     vw 8624   6.069   5.978   0.275 -0.5689 -0.2296  0.0491
 2157SOL     ow 8625   1.418   7.163   2.770 -0.2406  0.0970  0.5758
 2157SOL     hw 8626   1.327   7.163   2.742 -0.2984 -1.9785  0.5924
 2157SOL     hw 8627   1.428   7.244   2.821 -1.0270  2.2789 -2.4811
 2157SOL     vw 8628   1.408   7.174   2.773 -0.3520  0.1113  0.1745
 2158SOL     ow 8629   5.551   4.771   1.568 -0.4064 -0.4549 -0.0916
 2158SOL     hw 8630   5.468   4.767   1.519  1.1522  0.5816 -3.0660
 2158SOL     hw 8631   5.556   4.686   1.612 -3.5234 -0.1329  1.1427
 2158SOL     vw 8632   5.541   4.759   1.567 -0.6120 -0.2756 -0.3212
 2159SOL     ow 8633   4.476   4.418   4.880  0.7702  0.1149 -0.1695
 2159SOL     hw 8634   4.509   4.356   4.944 -2.4252  0.2343  1.8230
 2159SOL     hw 8635   4.425   4.481   4.931  1.6721  2.8593 -2.3955
 2159SOL     vw 8636   4.473   4.418   4.895  0.4675  0.4930 -0.2003
 2160SOL     ow 8637   1.303   2.313   4.487  0.0172 -0.4187  0.5468
 2160SOL     hw 8638   1.372   2.376   4.507  0.7059 -1.4027  1.3297
 2160SOL     hw 8639   1.276   2.334   4.398 -0.3933  1.5620  1.0857
 2160SOL     vw 8640   1.308   2.324   4.478  0.0539 -0.2872  0.7212
 2161SOL     ow 8641   6.204   5.450   0.255 -0.7500 -0.7341 -0.3864
 2161SOL     hw 8642   6.276   5.410   0.207 -0.4447  0.2693 -0.7777
 2161SOL     hw 8643   6.234   5.538   0.275 -1.5648 -0.5636  0.1293
 2161SOL     vw 8644   6.217   5.456   0.251 -0.8173 -0.5794 -0.3700
 2162SOL     ow 8645   1.619   1.726   3.841 -0.4872 -0.0197  0.0249
 2162SOL     hw 8646   1.592   1.640   3.808 -0.0894 -0.5757  1.0894
 2162SOL     hw 8647   1.714   1.719   3.848 -0.1906  1.2431 -1.8349
 2162SOL     vw 8648   1.628   1.713   3.837 -0.3956  0.0736 -0.0801
 2163SOL     ow 8649   1.735   6.803   3.612 -0.1488  0.2929 -0.6045
 2163SOL     hw 8650   1.762   6.723   3.656  0.3338  0.4834 -0.5446
 2163SOL     hw 8651   1.650   6.783   3.575 -0.0610 -0.2239 -0.5290
 2163SOL     vw 8652   1.728   6.790   3.613 -0.0735  0.2499 -0.5867
 2164SOL     ow 8653   4.777   6.106   6.920 -0.1351  0.7022  0.0228
 2164SOL     hw 8654   4.716   6.157   6.866 -0.7156  0.8558  0.8163
 2164SOL     hw 8655   4.730   6.026   6.941  0.8494 -0.2991 -1.3870
 2164SOL     vw 8656   4.763   6.102   6.916 -0.0815  0.5903 -0.0584
 2165SOL     ow 8657   0.054   1.436   3.148  0.1717  0.1113 -0.1039
 2165SOL     hw 8658   0.100   1.484   3.216  0.2366 -0.8049  0.5072
 2165SOL     hw 8659   0.062   1.492   3.070 -0.2572  1.3669  0.7090
 2165SOL     vw 8660   0.061   1.450   3.146  0.1237  0.1561  0.0839
 2166SOL     ow 8661   4.230   6.307   6.308  0.1234 -0.1833  0.4149
 2166SOL     hw 8662   4.279   6.388   6.303  0.7154 -0.4588  1.4502
 2166SOL     hw 8663   4.263   6.254   6.235 -0.4013  0.5605 -0.3777
 2166SOL     vw 8664   4.240   6.310   6.297  0.1323 -0.1214  0.4468
 2167SOL     ow 8665   3.122   3.776   6.092 -0.3024 -0.4110  0.5733
 2167SOL     hw 8666   3.108   3.836   6.166 -0.6619 -0.0490  0.2188
 2167SOL     hw 8667   3.214   3.787   6.069 -0.8972  1.9216 -1.0920
 2167SOL     vw 8668   3.132   3.785   6.099 -0.4283 -0.0554  0.3066
 2168SOL     ow 8669   5.334   3.115   3.138  0.6878 -0.2545 -0.3724
 2168SOL     hw 8670   5.259   3.097   3.082  0.5396 -0.5370 -0.0876
 2168SOL     hw 8671   5.366   3.201   3.109 -0.6758  0.5837  0.5019
 2168SOL     vw 8672   5.329   3.124   3.127  0.4880 -0.1812 -0.2193
 2169SOL     ow 8673   1.450   3.243   6.286  0.7027 -0.1164  0.2620
 2169SOL     hw 8674   1.367   3.218   6.326  0.2558  2.2110  0.9044
 2169SOL     hw 8675   1.516   3.216   6.350  0.2970 -0.1323  0.6776
 2169SOL     vw 8676   1.448   3.236   6.300  0.5902  0.1885  0.4015
 2170SOL     ow 8677   5.956   6.731   3.964  0.6533 -0.0588 -0.0353
 2170SOL     hw 8678   5.869   6.761   3.938  0.3874 -0.3349  0.5341
 2170SOL     hw 8679   5.947   6.706   4.055  1.0882 -1.0331 -0.2492
 2170SOL     vw 8680   5.943   6.732   3.972  0.6757 -0.2239  0.0116
 2171SOL     ow 8681   3.619   2.696   4.250  0.5694 -0.0798  0.0886
 2171SOL     hw 8682   3.680   2.769   4.237  0.4428  0.2653  1.2640
 2171SOL     hw 8683   3.675   2.621   4.265  0.7496 -0.6980 -2.9841
 2171SOL     vw 8684   3.635   2.696   4.250  0.5764 -0.1159 -0.1621
 2172SOL     ow 8685   4.506   6.377   1.733  0.2310  0.1669 -0.4580
 2172SOL     hw 8686   4.592   6.413   1.713 -0.1341  1.0757 -0.4297
 2172SOL     hw 8687   4.525   6.303   1.791  1.1576 -1.3531 -2.5954
 2172SOL     vw 8688   4.520   6.372   1.738  0.3049  0.0861 -0.7362
 2173SOL     ow 8689   2.485   3.760   1.969 -0.0718 -0.2534 -0.0766
 2173SOL     hw 8690   2.447   3.837   1.928  0.6857  0.5788  0.7371
 2173SOL     hw 8691   2.463   3.769   2.062  0.7044 -0.5959  0.1517
 2173SOL     vw 8692   2.477   3.771   1.976  0.1305 -0.1887  0.0609
 2174SOL     ow 8693   0.926   3.070   6.783  0.2436 -0.6007 -0.0947
 2174SOL     hw 8694   0.862   3.093   6.850  0.1305 -0.4150 -0.2654
 2174SOL     hw 8695   1.004   3.044   6.832 -0.0392 -1.0531  0.1160
 2174SOL     vw 8696   0.928   3.070   6.798  0.1914 -0.6360 -0.0894
 2175SOL     ow 8697   4.430   4.313   6.534  0.2549  0.1618  0.1426
 2175SOL     hw 8698   4.508   4.351   6.495  0.3708 -0.6524 -0.4564
 2175SOL     hw 8699   4.364   4.382   6.531  0.3371  0.2051 -1.2747
 2175SOL     vw 8700   4.432   4.327   6.529  0.2811  0.0601 -0.1235
 2176SOL     ow 8701   4.635   4.314   4.658 -0.6019 -0.2399  0.1950
 2176SOL     hw 8702   4.654   4.223   4.682  0.3785  0.2536  1.3991
 2176SOL     hw 8703   4.675   4.325   4.572  1.4114 -0.2900  1.0820
 2176SOL     vw 8704   4.642   4.303   4.650 -0.2067 -0.1814  0.4709
 2177SOL     ow 8705   4.671   3.587   7.123 -0.6738 -0.4349  0.4331
 2177SOL     hw 8706   4.587   3.556   7.156 -0.0945 -0.8857  1.5537
 2177SOL     hw 8707   4.695   3.660   7.180  0.3993 -1.2970  1.1296
 2177SOL     vw 8708   4.663   3.592   7.134 -0.4559 -0.6080  0.6731
 2178SOL     ow 8709   4.028   2.518   6.218  0.2421  0.2139 -0.1392
 2178SOL     hw 8710   3.974   2.459   6.270  0.1186  0.7087  0.2953
 2178SOL     hw 8711   4.036   2.597   6.271  3.7167 -0.8067  1.1255
 2178SOL     vw 8712   4.022   2.520   6.232  0.6840  0.1445  0.0849
 2179SOL     ow 8713   6.932   1.610   6.086 -0.0536  0.0370  0.3092
 2179SOL     hw 8714   6.946   1.531   6.035 -3.4583 -1.0516  0.8264
 2179SOL     hw 8715   6.908   1.579   6.173 -2.2185  1.5092  0.3293
 2179SOL     vw 8716   6.931   1.596   6.091 -0.7885  0.0875  0.3803
 2180SOL     ow 8717   3.703   5.566   3.424  0.5629  0.1845 -0.3750
 2180SOL     hw 8718   3.780   5.590   3.474 -0.4258 -1.4224  2.1248
 2180SOL     hw 8719   3.642   5.639   3.437  0.5126  0.0207  0.3365
 2180SOL     vw 8720   3.705   5.579   3.433  0.4257 -0.0489  0.0486
 2181SOL     ow 8721   1.394   0.114   6.376  0.3866 -0.3429  0.0182
 2181SOL     hw 8722   1.342   0.183   6.416  1.7469  0.7029  0.0431
 2181SOL     hw 8723   1.336   0.037   6.377 -0.4459  0.2508  1.8217
 2181SOL     vw 8724   1.379   0.113   6.381  0.4562 -0.1266  0.2594
 2182SOL     ow 8725   6.941   2.827   1.660 -0.2378 -0.1081  0.1254
 2182SOL     hw 8726   7.017   2.770   1.668  0.9499  1.4251  0.2622
 2182SOL     hw 8727   6.957   2.877   1.579 -0.8162  0.6284  0.4530
 2182SOL     vw 8728   6.953   2.826   1.650 -0.1576  0.1913  0.1867
 2183SOL     ow 8729   3.769   3.777   0.284  0.2471  0.2765  0.6742
 2183SOL     hw 8730   3.836   3.709   0.278 -0.0388  0.1149 -2.0509
 2183SOL     hw 8731   3.804   3.851   0.235 -0.7273  0.9413  0.9415
 2183SOL     vw 8732   3.782   3.777   0.277  0.0809  0.3428  0.3499
 2184SOL     ow 8733   0.706   1.466   6.629  0.0539  0.7921 -0.1168
 2184SOL     hw 8734   0.729   1.377   6.604  0.0624  0.6979  0.2258
 2184SOL     hw 8735   0.611   1.470   6.618  0.0837  0.8176 -0.3727
 2184SOL     vw 8736   0.697   1.455   6.624  0.0589  0.7830 -0.1056
 2185SOL     ow 8737   5.688   6.981   0.741 -0.4179 -0.4434  1.0123
 2185SOL     hw 8738   5.693   7.063   0.790 -1.1924 -0.6799  1.5066
 2185SOL     hw 8739   5.632   7.000   0.666  0.3310 -0.2265  0.4931
 2185SOL     vw 8740   5.682   6.994   0.738 -0.4213 -0.4461  1.0090
 2186SOL     ow 8741   2.804   4.398   1.667  0.3663 -0.3164 -0.3606
 2186SOL     hw 8742   2.752   4.327   1.704 -0.5137  0.4466 -0.0979
 2186SOL     hw 8743   2.743   4.446   1.611  1.6373 -1.3780 -2.7929
 2186SOL     vw 8744   2.789   4.395   1.665  0.4179 -0.3555 -0.6468
 2187SOL     ow 8745   1.664   1.884   2.758  0.5107  0.1848  0.2843
 2187SOL     hw 8746   1.740   1.940   2.744  0.8263 -0.4122 -0.4652
 2187SOL     hw 8747   1.603   1.908   2.689  0.4916 -0.1159  0.1919
 2187SOL     vw 8748   1.666   1.894   2.747  0.5498  0.0664  0.1732
 2188SOL     ow 8749   2.427   2.668   5.456 -0.3440  0.0095 -0.1251
 2188SOL     hw 8750   2.493   2.732   5.429  0.4697 -0.8563 -0.2602
 2188SOL     hw 8751   2.478   2.590   5.479 -1.2856 -0.4648  0.4053
 2188SOL     vw 8752   2.443   2.666   5.455 -0.3610 -0.1673 -0.0732
 2189SOL     ow 8753   2.510   5.520   4.546 -0.4216  0.6528 -0.9837
 2189SOL     hw 8754   2.558   5.461   4.605  0.1759  2.2366  0.1962
 2189SOL     hw 8755   2.418   5.497   4.560 -0.2806  0.8295  0.4251
 2189SOL     vw 8756   2.505   5.509   4.556 -0.3242  0.8850 -0.6423
 2190SOL     ow 8757   4.552   4.716   5.662 -0.0522  0.9648 -0.0272
 2190SOL     hw 8758   4.536   4.740   5.753  1.1479  1.4945  0.0659
 2190SOL     hw 8759   4.501   4.636   5.649  2.4335 -1.1736  2.1672
 2190SOL     vw 8760   4.543   4.709   5.672  0.4342  0.7527  0.2747
 2191SOL     ow 8761   5.816   2.642   0.196 -0.4667 -0.0584 -0.3198
 2191SOL     hw 8762   5.839   2.708   0.131  1.5607  0.3500  0.7181
 2191SOL     hw 8763   5.797   2.563   0.146  3.5735 -0.5337 -1.4718
 2191SOL     vw 8764   5.817   2.640   0.181  0.3338 -0.0674 -0.3349
 2192SOL     ow 8765   0.478   6.311   6.653 -0.0380 -0.6801  0.0631
 2192SOL     hw 8766   0.531   6.255   6.710  0.4768 -0.0253  0.2416
 2192SOL     hw 8767   0.516   6.299   6.566 -0.1607 -0.8831  0.0370
 2192SOL     vw 8768   0.490   6.302   6.649  0.0137 -0.6206  0.0832
 2193SOL     ow 8769   1.615   3.249   1.342  0.0876 -0.6690  0.2931
 2193SOL     hw 8770   1.669   3.238   1.264  0.7408 -0.8353  0.7535
 2193SOL     hw 8771   1.676   3.235   1.415 -0.3017  0.3901  0.8472
 2193SOL     vw 8772   1.630   3.246   1.342  0.1224 -0.5513  0.4269
 2194SOL     ow 8773   4.204   5.770   6.787  0.2483  0.4147  0.1588
 2194SOL     hw 8774   4.145   5.831   6.742 -0.3696  0.3053  0.8066
 2194SOL     hw 8775   4.278   5.760   6.727 -0.1332  0.9857 -0.4221
 2194SOL     vw 8776   4.206   5.776   6.773  0.1163  0.4754  0.1676
 2195SOL     ow 8777   3.048   6.411   2.948  0.4848  0.9036 -0.1428
 2195SOL     hw 8778   3.085   6.327   2.975 -1.7244  0.0982  0.6129
 2195SOL     hw 8779   3.098   6.435   2.870 -0.3346 -2.3308 -1.8508
 2195SOL     vw 8780   3.059   6.403   2.942  0.0852  0.3707 -0.2683
 2196SOL     ow 8781   5.636   3.994   3.876  0.1922 -0.3742 -0.1236
 2196SOL     hw 8782   5.633   4.086   3.900  0.7170 -0.2019 -0.7114
 2196SOL     hw 8783   5.563   3.983   3.814 -0.0901 -0.4383  0.2155
 2196SOL     vw 8784   5.626   4.005   3.871  0.2244 -0.3600 -0.1564
 2197SOL     ow 8785   0.194   2.341   6.150  0.0829  0.1927  1.2399
 2197SOL     hw 8786   0.173   2.425   6.109  0.8279  1.3186  3.0524
 2197SOL     hw 8787   0.289   2.332   6.139  0.1426  0.0402  1.8542
 2197SOL     vw 8788   0.204   2.351   6.143  0.1891  0.3211  1.5602
 2198SOL     ow 8789   4.873   2.919   2.248 -0.0582  0.3305 -0.0566
 2198SOL     hw 8790   4.907   2.844   2.200  2.4289  1.4982 -0.2541
 2198SOL     hw 8791   4.835   2.976   2.181 -1.3954 -0.4089  0.0297
 2198SOL     vw 8792   4.872   2.917   2.233  0.0935  0.3870 -0.0713
 2199SOL     ow 8793   0.305   3.194   4.207  0.5570  0.6233  0.1663
 2199SOL     hw 8794   0.374   3.254   4.180  0.2226  1.2055  0.5894
 2199SOL     hw 8795   0.346   3.108   4.205  0.5314  0.6178 -2.2332
 2199SOL     vw 8796   0.319   3.191   4.204  0.5095  0.6994 -0.0944
 2200SOL     ow 8797   6.012   5.420   5.474  0.0394  0.4899  0.1747
 2200SOL     hw 8798   5.948   5.372   5.526 -1.0425  0.2594 -1.2956
 2200SOL     hw 8799   5.962   5.493   5.437  1.3062  1.9277  1.1827
 2200SOL     vw 8800   5.997   5.423   5.476  0.0639  0.6490  0.1135
 2201SOL     ow 8801   4.555   5.583   3.658  0.1300  0.2115  0.5981
 2201SOL     hw 8802   4.512   5.564   3.742 -1.9055  1.1100 -0.1550
 2201SOL     hw 8803   4.489   5.560   3.593  2.6564 -3.2629 -1.0192
 2201SOL     vw 8804   4.540   5.577   3.661  0.1945 -0.1285  0.2853
 2202SOL     ow 8805   5.466   6.104   6.229  0.3128  0.1867  0.2815
 2202SOL     hw 8806   5.460   6.038   6.159  1.4290 -0.4886  0.7950
 2202SOL     hw 8807   5.548   6.150   6.211  0.3074  0.4042  0.8016
 2202SOL     vw 8808   5.476   6.101   6.217  0.4592  0.1264  0.4177
 2203SOL     ow 8809   1.189   6.503   0.300 -0.3982 -0.1504  0.3433
 2203SOL     hw 8810   1.164   6.432   0.359 -1.8060 -0.3266 -0.4110
 2203SOL     hw 8811   1.108   6.527   0.256  0.1369  1.6056  0.2111
 2203SOL     vw 8812   1.175   6.497   0.302 -0.5134  0.0582  0.2264
 2204SOL     ow 8813   2.596   6.945   1.169 -0.0228 -0.2484 -0.2353
 2204SOL     hw 8814   2.650   6.918   1.243  0.3091 -0.6143 -0.6022
 2204SOL     hw 8815   2.558   7.028   1.196 -1.5595 -1.3374  1.1768
 2204SOL     vw 8816   2.598   6.952   1.182 -0.1817 -0.4404 -0.0974
 2205SOL     ow 8817   2.595   0.883   5.396  0.0708  0.4437  0.2379
 2205SOL     hw 8818   2.593   0.804   5.451  1.9864  0.4485  0.3726
 2205SOL     hw 8819   2.530   0.941   5.436 -0.3311 -0.5088  1.0085
 2205SOL     vw 8820   2.586   0.880   5.409  0.2706  0.3187  0.3576
 2206SOL     ow 8821   5.494   2.937   5.293  0.5494  0.2059 -0.2511
 2206SOL     hw 8822   5.577   2.983   5.282  0.8714  1.0328  3.9801
 2206SOL     hw 8823   5.507   2.881   5.369 -2.1063 -1.4194 -0.8533
 2206SOL     vw 8824   5.507   2.936   5.301  0.2413  0.1006  0.2275
 2207SOL     ow 8825   2.552   6.360   6.538 -0.1859  0.3777  0.1850
 2207SOL     hw 8826   2.535   6.342   6.446  1.1167  1.7930 -0.3765
 2207SOL     hw 8827   2.646   6.346   6.549 -0.6142 -1.8116  1.8449
 2207SOL     vw 8828   2.562   6.356   6.527 -0.0705  0.2759  0.3297
 2208SOL     ow 8829   4.488   5.692   1.454 -0.3492 -0.7932 -0.6471
 2208SOL     hw 8830   4.515   5.783   1.465  1.3198 -1.4555  1.3815
 2208SOL     hw 8831   4.503   5.674   1.361  0.6672  0.6046 -0.7866
 2208SOL     vw 8832   4.493   5.701   1.443  0.0055 -0.6962 -0.3978
 2209SOL     ow 8833   5.952   3.181   6.633 -0.7548  0.0285 -0.4709
 2209SOL     hw 8834   5.905   3.250   6.679 -0.9290  1.2851 -2.4206
 2209SOL     hw 8835   5.892   3.107   6.631 -1.2065  0.3686  0.1928
 2209SOL     vw 8836   5.938   3.180   6.639 -0.8373  0.2390 -0.6404
 2210SOL     ow 8837   5.223   0.348   7.202 -0.2960  0.2817  0.0220
 2210SOL     hw 8838   5.201   0.254   7.203 -1.9728  0.6370  1.4974
 2210SOL     hw 8839   5.141   0.392   7.225  0.5393  2.1163 -0.3184
 2210SOL     vw 8840   5.209   0.341   7.205 -0.4070  0.5706  0.1714
 2211SOL     ow 8841   3.808   6.119   1.749 -0.3500 -0.3107  0.0393
 2211SOL     hw 8842   3.848   6.114   1.661  0.2954  2.0781  0.1279
 2211SOL     hw 8843   3.857   6.054   1.800 -1.0510 -2.0938 -1.4270
 2211SOL     vw 8844   3.820   6.109   1.744 -0.3573 -0.2308 -0.1426
 2212SOL     ow 8845   2.266   0.442   5.792 -0.2152 -0.2918 -0.1092
 2212SOL     hw 8846   2.170   0.448   5.788 -0.2063 -0.3887 -0.5308
 2212SOL     hw 8847   2.296   0.476   5.708  0.2023  1.1154  0.5843
 2212SOL     vw 8848   2.257   0.447   5.781 -0.1589 -0.1189 -0.0732
 2213SOL     ow 8849   2.655   2.677   1.743  0.1476  0.3824  0.1495
 2213SOL     hw 8850   2.692   2.701   1.828 -1.8166 -2.1696  1.8805
 2213SOL     hw 8851   2.677   2.584   1.733  0.7590  0.7220 -2.4535
 2213SOL     vw 8852   2.663   2.668   1.753 -0.0310  0.0904  0.0345
 2214SOL     ow 8853   5.307   4.403   0.599 -0.6645 -0.2037  0.1915
 2214SOL     hw 8854   5.254   4.446   0.666 -2.9803 -0.6241 -1.2497
 2214SOL     hw 8855   5.370   4.470   0.571 -1.6187  0.9423  0.7050
 2214SOL     vw 8856   5.308   4.417   0.605 -1.0960 -0.1080  0.0691
 2215SOL     ow 8857   6.296   6.387   1.288  0.2808 -0.5393  0.0494
 2215SOL     hw 8858   6.202   6.405   1.300  0.1780 -0.7953 -0.3425
 2215SOL     hw 8859   6.339   6.467   1.319  0.1100 -1.4379  2.8774
 2215SOL     vw 8860   6.289   6.400   1.294  0.2444 -0.6917  0.3708
 2216SOL     ow 8861   4.039   0.188   4.075 -0.4193  0.0872  0.7166
 2216SOL     hw 8862   4.111   0.189   4.138 -1.6423 -1.2521  2.2013
 2216SOL     hw 8863   3.976   0.251   4.109 -1.5935 -1.4535  1.5344
 2216SOL     vw 8864   4.040   0.196   4.088 -0.7358 -0.2928  1.0204
 2217SOL     ow 8865   5.959   5.302   3.383  0.7067  0.1352  0.2665
 2217SOL     hw 8866   5.958   5.264   3.295  2.3077  0.0616  0.2629
 2217SOL     hw 8867   5.974   5.395   3.369 -1.6003  0.5877  0.3678
 2217SOL     vw 8868   5.961   5.309   3.369  0.6139  0.1853  0.2794
 2218SOL     ow 8869   1.931   0.874   0.521  0.5685  0.1415 -1.1402
 2218SOL     hw 8870   1.922   0.894   0.615 -1.3604 -1.1204 -1.0122
 2218SOL     hw 8871   1.975   0.789   0.519  2.9265  1.2745 -1.5184
 2218SOL     vw 8872   1.936   0.865   0.533  0.6250  0.1245 -1.1732
 2219SOL     ow 8873   2.277   3.682   2.863  0.4746 -0.7822 -0.5022
 2219SOL     hw 8874   2.188   3.712   2.844  0.1901 -1.8741 -0.9646
 2219SOL     hw 8875   2.269   3.634   2.946  0.8209 -0.0770 -0.0524
 2219SOL     vw 8876   2.264   3.679   2.871  0.4827 -0.8332 -0.5039
 2220SOL     ow 8877   6.782   2.165   0.511  0.1794  0.2793 -0.4881
 2220SOL     hw 8878   6.744   2.136   0.428  0.5101 -0.0107 -0.5374
 2220SOL     hw 8879   6.875   2.176   0.493  0.1821  0.6314 -0.2677
 2220SOL     vw 8880   6.789   2.162   0.498  0.2234  0.2874 -0.4655
 2221SOL     ow 8881   4.404   0.389   2.765 -0.1418  0.1291  1.0819
 2221SOL     hw 8882   4.341   0.361   2.698  0.5261  0.7810  0.1694
 2221SOL     hw 8883   4.406   0.316   2.827  0.5256 -1.2560 -0.5196
 2221SOL     vw 8884   4.396   0.376   2.765  0.0339  0.0324  0.7502
 2222SOL     ow 8885   4.321   4.090   3.875  0.0582 -0.3932  0.3206
 2222SOL     hw 8886   4.404   4.112   3.831  0.7694 -2.8516  0.3069
 2222SOL     hw 8887   4.346   4.068   3.965 -0.8423  0.5036  0.8149
 2222SOL     vw 8888   4.335   4.090   3.881  0.0334 -0.5991  0.3840
 2223SOL     ow 8889   1.598   5.560   3.695 -0.0812 -0.3116  0.6530
 2223SOL     hw 8890   1.627   5.477   3.733  2.9231 -2.7199 -5.5188
 2223SOL     hw 8891   1.669   5.621   3.717  2.9349 -2.3201 -2.5032
 2223SOL     vw 8892   1.612   5.557   3.703  0.7131 -0.8943 -0.5778
 2224SOL     ow 8893   5.616   3.554   3.874 -0.2300 -0.5043  0.5832
 2224SOL     hw 8894   5.680   3.490   3.842 -0.1076  0.4037 -1.1137
 2224SOL     hw 8895   5.546   3.501   3.911  1.1496 -1.5331  1.8279
 2224SOL     vw 8896   5.615   3.538   3.874 -0.0315 -0.5201  0.5236
 2225SOL     ow 8897   5.542   6.416   4.266 -0.2049 -0.1563 -0.0709
 2225SOL     hw 8898   5.636   6.429   4.249  0.2255 -3.2663 -0.6934
 2225SOL     hw 8899   5.538   6.385   4.357 -0.5590 -0.4888 -0.1977
 2225SOL     vw 8900   5.554   6.413   4.276 -0.1948 -0.6104 -0.1700
 2226SOL     ow 8901   0.853   5.543   0.509 -0.2964 -1.3250 -0.5665
 2226SOL     hw 8902   0.873   5.543   0.603 -1.1390 -0.8259 -0.3758
 2226SOL     hw 8903   0.827   5.633   0.490  3.5922 -0.2935 -2.1445
 2226SOL     vw 8904   0.852   5.555   0.519  0.1054 -1.1232 -0.7496
 2227SOL     ow 8905   2.456   4.731   7.166 -0.3108  0.1806 -0.5872
 2227SOL     hw 8906   2.503   4.708   7.086 -0.9493  0.1572 -0.9595
 2227SOL     hw 8907   2.378   4.777   7.136 -0.9151 -0.4437 -0.0144
 2227SOL     vw 8908   2.452   4.734   7.152 -0.4749  0.0951 -0.5608
 2228SOL     ow 8909   2.175   3.184   5.185 -0.4436 -0.0851 -0.6239
 2228SOL     hw 8910   2.099   3.236   5.159 -1.0103 -0.0014  1.0787
 2228SOL     hw 8911   2.243   3.208   5.123 -0.3364  3.5749  0.6624
 2228SOL     vw 8912   2.174   3.194   5.174 -0.5044  0.4088 -0.2298
 2229SOL     ow 8913   7.213   2.733   4.275  0.0166  0.5220 -0.3234
 2229SOL     hw 8914   7.141   2.672   4.291 -0.5569  1.1406 -0.4822
 2229SOL     hw 8915   7.212   2.791   4.352  0.6075  0.2858 -0.1327
 2229SOL     vw 8916   7.203   2.733   4.287  0.0191  0.5724 -0.3195
 2230SOL     ow 8917   3.703   1.842   0.999  0.3052  0.0624  0.1995
 2230SOL     hw 8918   3.655   1.899   1.059 -0.0688 -3.2978  3.4408
 2230SOL     hw 8919   3.793   1.843   1.032  0.3024 -1.1372  0.2824
 2230SOL     vw 8920   3.708   1.850   1.011  0.2555 -0.5392  0.6382
 2231SOL     ow 8921   1.447   4.187   7.181  0.1216  0.2259 -0.0259
 2231SOL     hw 8922   1.514   4.239   7.136  1.1320  0.1675  1.3502
 2231SOL     hw 8923   1.389   4.251   7.221  1.2947  0.3657  1.5647
 2231SOL     vw 8924   1.448   4.202   7.180  0.4097  0.2370  0.3657
 2232SOL     ow 8925   5.639   2.580   3.082 -0.7689  0.1633 -0.1280
 2232SOL     hw 8926   5.730   2.582   3.111 -0.9129  1.2462  0.3102
 2232SOL     hw 8927   5.620   2.670   3.055 -1.5616 -0.1604 -0.7010
 2232SOL     vw 8928   5.649   2.592   3.082 -0.8926  0.2635 -0.1457
 2233SOL     ow 8929   0.437   3.135   1.963  0.0096 -0.0690  0.1202
 2233SOL     hw 8930   0.447   3.040   1.969  0.8480 -0.0568 -0.8614
 2233SOL     hw 8931   0.450   3.155   1.870 -0.0179  1.0244  0.3364
 2233SOL     vw 8932   0.440   3.126   1.951  0.1166  0.0769  0.0193
 2234SOL     ow 8933   2.852   0.885   6.026  0.4583 -0.1014 -0.1280
 2234SOL     hw 8934   2.883   0.909   6.114 -1.3882 -0.4337  0.6622
 2234SOL     hw 8935   2.819   0.967   5.989 -3.0761 -0.6317  1.4029
 2234SOL     vw 8936   2.852   0.899   6.033 -0.2517 -0.2152  0.1781
 2235SOL     ow 8937   4.751   3.218   4.030 -0.8229 -0.2186 -0.3367
 2235SOL     hw 8938   4.667   3.261   4.013 -0.3762  0.7348 -0.1919
 2235SOL     hw 8939   4.740   3.178   4.117 -1.3482 -0.7015 -0.6116
 2235SOL     vw 8940   4.738   3.218   4.039 -0.8335 -0.1564 -0.3538
 2236SOL     ow 8941   4.695   2.585   6.996  0.2751 -0.1156 -0.0952
 2236SOL     hw 8942   4.689   2.647   6.924  0.9236  0.3415  0.2297
 2236SOL     hw 8943   4.779   2.541   6.982 -0.7709 -1.9181 -1.0925
 2236SOL     vw 8944   4.706   2.587   6.985  0.2224 -0.2931 -0.1841
 2237SOL     ow 8945   5.440   6.588   3.629  0.3999  0.3293 -0.7857
 2237SOL     hw 8946   5.480   6.643   3.563  0.8959 -0.5561 -1.2335
 2237SOL     hw 8947   5.380   6.646   3.676  2.2481  1.7139 -0.0264
 2237SOL     vw 8948   5.437   6.603   3.627  0.7091  0.3953 -0.7448
 2238SOL     ow 8949   4.822   1.425   0.724 -0.1775  0.5074 -0.2588
 2238SOL     hw 8950   4.873   1.371   0.785 -1.3135 -0.0144  0.2494
 2238SOL     hw 8951   4.794   1.500   0.776 -1.3122 -0.0344 -0.0740
 2238SOL     vw 8952   4.825   1.428   0.739 -0.4771  0.3671 -0.1673
 2239SOL     ow 8953   0.874   0.844   4.869 -0.4177  0.0145 -0.0868
 2239SOL     hw 8954   0.790   0.860   4.912 -0.5968 -0.5281 -0.2226
 2239SOL     hw 8955   0.851   0.820   4.779 -0.2010 -1.3090  0.1900
 2239SOL     vw 8956   0.860   0.843   4.863 -0.4128 -0.2317 -0.0684
 2240SOL     ow 8957   3.243   4.645   2.226 -0.0859 -0.0703 -0.1285
 2240SOL     hw 8958   3.270   4.733   2.199 -1.3909  0.6823  0.9201
 2240SOL     hw 8959   3.221   4.601   2.144 -1.4195  1.2936 -0.5485
 2240SOL     vw 8960   3.244   4.651   2.211 -0.4340  0.2089 -0.0455
 2241SOL     ow 8961   2.665   2.772   6.635  0.4075 -0.6574  0.3631
 2241SOL     hw 8962   2.727   2.843   6.652 -1.5087  1.1278  0.2029
 2241SOL     hw 8963   2.714   2.710   6.581  1.9140  0.8925 -0.1304
 2241SOL     vw 8964   2.680   2.773   6.630  0.3535 -0.2173  0.2768
 2242SOL     ow 8965   3.510   4.627   2.541 -0.7328  0.0773 -0.1433
 2242SOL     hw 8966   3.543   4.567   2.608  1.7382 -0.0399 -1.3360
 2242SOL     hw 8967   3.590   4.663   2.500 -2.0629 -0.5752 -3.6462
 2242SOL     vw 8968   3.525   4.624   2.544 -0.5822 -0.0243 -0.7628
 2243SOL     ow 8969   6.920   6.038   6.325 -0.6245  0.0812  0.1887
 2243SOL     hw 8970   6.917   6.073   6.236  0.5379  0.1434  0.1685
 2243SOL     hw 8971   6.828   6.020   6.346 -1.0795  1.5570 -0.4148
 2243SOL     vw 8972   6.907   6.040   6.316 -0.5312  0.2840  0.1066
 2244SOL     ow 8973   0.211   3.174   3.790  0.2201  0.1976  0.0032
 2244SOL     hw 8974   0.237   3.091   3.830  1.0076  1.4640  2.3058
 2244SOL     hw 8975   0.293   3.218   3.769 -0.1221  1.2664  0.8026
 2244SOL     vw 8976   0.225   3.169   3.793  0.2788  0.5057  0.4125
 2245SOL     ow 8977   1.162   1.013   5.083 -0.2105  0.0632 -0.5079
 2245SOL     hw 8978   1.231   0.990   5.145 -0.1850 -0.9405 -0.9007
 2245SOL     hw 8979   1.191   0.978   4.999 -1.1670 -0.3294 -0.6867
 2245SOL     vw 8980   1.175   1.006   5.080 -0.3334 -0.1211 -0.5834
 2246SOL     ow 8981   1.804   0.880   2.020 -0.4113  0.3580 -0.1658
 2246SOL     hw 8982   1.798   0.841   2.107 -1.2109  1.4797  0.3101
 2246SOL     hw 8983   1.898   0.895   2.008 -0.2987  0.2952  0.5603
 2246SOL     vw 8984   1.816   0.877   2.030 -0.5019  0.4977 -0.0072
 2247SOL     ow 8985   7.085   4.385   2.852 -0.5527  0.5487 -0.4610
 2247SOL     hw 8986   7.040   4.393   2.768  0.8323 -1.7281 -1.5061
 2247SOL     hw 8987   7.016   4.395   2.917 -1.8586  1.1527 -1.8768
 2247SOL     vw 8988   7.070   4.387   2.849 -0.5426  0.3281 -0.7857
 2248SOL     ow 8989   3.180   1.242   5.586 -0.3499  0.6815  0.0305
 2248SOL     hw 8990   3.258   1.290   5.612 -1.6323  1.0698  3.8289
 2248SOL     hw 8991   3.210   1.182   5.518  2.8623  1.8732  0.2165
 2248SOL     vw 8992   3.194   1.241   5.581 -0.0952  0.8900  0.5560
 2249SOL     ow 8993   7.066   0.256   6.096 -0.1460 -0.3568  0.3626
 2249SOL     hw 8994   7.028   0.266   6.009 -1.5421  1.3167  1.0986
 2249SOL     hw 8995   7.135   0.323   6.100  0.1618 -0.6724  0.4398
 2249SOL     vw 8996   7.070   0.267   6.085 -0.2892 -0.1777  0.4699
 2250SOL     ow 8997   0.480   1.270   0.428 -0.1285 -0.2005 -0.3752
 2250SOL     hw 8998   0.422   1.316   0.368 -0.4488 -0.8174 -0.5469
 2250SOL     hw 8999   0.555   1.245   0.374  1.5270  2.7318  0.3617
 2250SOL     vw 9000   0.482   1.273   0.413  0.0477  0.1050 -0.3007
 2251SOL     ow 9001   4.767   1.693   2.911 -0.0429  0.2933  0.0696
 2251SOL     hw 9002   4.822   1.657   2.981  0.3304 -1.1737 -0.9528
 2251SOL     hw 9003   4.744   1.781   2.943 -1.8293 -1.1169  3.1003
 2251SOL     vw 9004   4.771   1.700   2.924 -0.2294 -0.0863  0.3347
 2252SOL     ow 9005   7.018   3.786   4.637  0.6831 -0.1830 -1.0403
 2252SOL     hw 9006   6.992   3.719   4.573  0.3882  0.8387 -2.0234
 2252SOL     hw 9007   6.942   3.844   4.643  1.6964  1.3125 -1.9046
 2252SOL     vw 9008   7.004   3.785   4.629  0.7780  0.1491 -1.2839
 2253SOL     ow 9009   3.378   3.831   6.031 -0.4399  0.6137  0.4163
 2253SOL     hw 9010   3.460   3.839   6.079  0.2925  0.3549 -0.7293
 2253SOL     hw 9011   3.400   3.777   5.955 -2.0351 -0.8321  0.8869
 2253SOL     vw 9012   3.391   3.825   6.027 -0.5537  0.3889  0.3271
 2254SOL     ow 9013   1.609   1.318   2.568 -0.1594 -0.7307  0.7562
 2254SOL     hw 9014   1.557   1.332   2.647 -0.1007  1.9618  0.4084
 2254SOL     hw 9015   1.565   1.246   2.523 -1.9318 -0.3732  1.8253
 2254SOL     vw 9016   1.596   1.310   2.572 -0.3856 -0.3282  0.8513
 2255SOL     ow 9017   7.216   1.216   4.199  0.6626 -0.2227 -0.2317
 2255SOL     hw 9018   7.171   1.136   4.226  1.9579 -0.9140 -0.0316
 2255SOL     hw 9019   7.309   1.194   4.204  1.0260  0.6041 -2.2336
 2255SOL     vw 9020   7.222   1.202   4.203  0.8812 -0.2049 -0.4692
 2256SOL     ow 9021   1.259   4.095   2.953  0.1265 -0.3060  0.1933
 2256SOL     hw 9022   1.279   4.018   2.900  1.0570 -1.1247  1.6787
 2256SOL     hw 9023   1.333   4.154   2.940 -1.0114  0.8431 -1.6920
 2256SOL     vw 9024   1.271   4.093   2.944  0.0991 -0.2623  0.1404
 2257SOL     ow 9025   2.802   4.914   3.570  0.3790 -0.3502 -0.1996
 2257SOL     hw 9026   2.762   4.979   3.512 -1.1678 -0.7010  0.4400
 2257SOL     hw 9027   2.845   4.967   3.638  0.2062  0.0235 -0.3759
 2257SOL     vw 9028   2.802   4.930   3.571  0.1520 -0.3474 -0.1385
 2258SOL     ow 9029   5.008   3.582   2.145  0.6074 -0.7580  0.5980
 2258SOL     hw 9030   5.079   3.620   2.092 -0.1790 -1.4850 -1.0496
 2258SOL     hw 9031   5.053   3.521   2.204  1.5108  0.0399  0.7664
 2258SOL     vw 9032   5.024   3.579   2.146  0.6230 -0.7485  0.4028
 2259SOL     ow 9033   3.286   0.322   2.319 -0.6537  0.1545  0.3033
 2259SOL     hw 9034   3.212   0.263   2.303 -0.1987 -0.3023 -0.1230
 2259SOL     hw 9035   3.245   0.404   2.345 -1.2939 -0.8098  2.6783
 2259SOL     vw 9036   3.270   0.325   2.321 -0.6781 -0.0330  0.5604
 2260SOL     ow 9037   5.672   3.771   4.014 -0.1819  0.2497 -0.4337
 2260SOL     hw 9038   5.646   3.693   3.964  0.7583 -0.2352 -0.1811
 2260SOL     hw 9039   5.687   3.838   3.947 -1.8152  0.4978 -0.6099
 2260SOL     vw 9040   5.670   3.769   3.998 -0.2735  0.2183 -0.4233
 2261SOL     ow 9041   2.188   1.987   1.536 -0.3888 -0.0927  0.3734
 2261SOL     hw 9042   2.187   2.042   1.457  2.3088  0.7702  0.8560
 2261SOL     hw 9043   2.252   1.919   1.517 -0.3493 -0.3824  1.5030
 2261SOL     vw 9044   2.196   1.985   1.523 -0.0277 -0.0170  0.5862
 2262SOL     ow 9045   4.290   4.412   1.746 -0.2550  0.1067 -0.9867
 2262SOL     hw 9046   4.365   4.370   1.704  1.0430  2.1956 -0.8944
 2262SOL     hw 9047   4.262   4.350   1.814  1.7653 -0.4804 -0.6305
 2262SOL     vw 9048   4.296   4.398   1.750  0.1829  0.3049 -0.9275
 2263SOL     ow 9049   1.645   1.209   0.529  0.3138 -0.4742 -0.9929
 2263SOL     hw 9050   1.612   1.201   0.439  0.3916 -0.1195 -1.0541
 2263SOL     hw 9051   1.649   1.119   0.561 -5.9388 -0.5740  0.9397
 2263SOL     vw 9052   1.641   1.196   0.521 -0.5009 -0.4405 -0.7460
 2264SOL     ow 9053   0.584   1.237   7.248  0.3040 -0.2100  0.4330
 2264SOL     hw 9054   0.650   1.202   7.188 -0.5198  1.2179 -1.4464
 2264SOL     hw 9055   0.500   1.210   7.208 -0.3612  3.1109 -0.7885
 2264SOL     vw 9056   0.581   1.229   7.235  0.1076  0.4166  0.0239
 2265SOL     ow 9057   7.201   5.527   2.236  0.1311  0.0865 -0.3224
 2265SOL     hw 9058   7.149   5.451   2.265 -1.8543  0.8783 -1.6195
 2265SOL     hw 9059   7.291   5.504   2.259 -0.4121 -2.6169 -0.5624
 2265SOL     vw 9060   7.206   5.514   2.243 -0.2024 -0.1657 -0.5254
 2266SOL     ow 9061   6.315   7.110   4.186  0.1509  0.1906  0.4799
 2266SOL     hw 9062   6.402   7.149   4.178 -0.3408  0.9446 -1.8427
 2266SOL     hw 9063   6.255   7.185   4.189 -0.5513 -0.3252 -0.0879
 2266SOL     vw 9064   6.318   7.125   4.185 -0.0064  0.2217  0.0985
 2267SOL     ow 9065   1.561   1.662   4.109  0.1611  0.0833 -0.3349
 2267SOL     hw 9066   1.629   1.601   4.139  1.1978  0.8643 -0.9965
 2267SOL     hw 9067   1.585   1.682   4.018 -2.1440 -1.1876 -1.3010
 2267SOL     vw 9068   1.573   1.657   4.101 -0.0063  0.0187 -0.5493
 2268SOL     ow 9069   0.077   6.660   4.047  0.1903 -0.0726  0.2465
 2268SOL     hw 9070   0.170   6.639   4.051  0.4206  1.0555  1.4208
 2268SOL     hw 9071   0.054   6.649   3.954  1.5231 -0.2324 -0.0845
 2268SOL     vw 9072   0.086   6.656   4.035  0.3965  0.0553  0.3579
 2269SOL     ow 9073   0.330   7.089   6.302  0.0482 -0.2952  0.2075
 2269SOL     hw 9074   0.273   7.028   6.350  0.7239 -1.9084 -0.9524
 2269SOL     hw 9075   0.344   7.161   6.363 -2.3708 -0.3353  0.9081
 2269SOL     vw 9076   0.324   7.090   6.317 -0.1818 -0.5136  0.1471
 2270SOL     ow 9077   2.447   4.976   2.077 -0.2997 -0.9522 -0.2483
 2270SOL     hw 9078   2.371   5.003   2.128 -0.6200 -1.6133 -0.3745
 2270SOL     hw 9079   2.463   5.049   2.017 -1.1382 -1.0255 -0.5674
 2270SOL     vw 9080   2.439   4.989   2.076 -0.4526 -1.0490 -0.3071
 2271SOL     ow 9081   1.813   4.354   4.887  0.3867 -0.2278  0.2936
 2271SOL     hw 9082   1.727   4.395   4.884  0.0627 -0.9053  0.1540
 2271SOL     hw 9083   1.800   4.266   4.852  1.3302 -0.0190 -0.6531
 2271SOL     vw 9084   1.800   4.348   4.882  0.4685 -0.2899  0.1502
 2272SOL     ow 9085   6.617   1.044   3.650  0.5768 -0.1813 -0.0401
 2272SOL     hw 9086   6.571   1.058   3.568  0.2409  1.2864  0.3673
 2272SOL     hw 9087   6.710   1.059   3.629  0.4319  0.7749 -0.0477
 2272SOL     vw 9088   6.623   1.048   3.637  0.5133  0.1385  0.0126
 2273SOL     ow 9089   2.919   0.624   7.238  0.4016 -0.1604  0.3972
 2273SOL     hw 9090   2.979   0.561   7.279  0.0894  0.1539  1.3657
 2273SOL     hw 9091   2.833   0.585   7.248  0.3556 -0.2821 -0.3731
 2273SOL     vw 9092   2.916   0.610   7.245  0.3544 -0.1350  0.4234
 2274SOL     ow 9093   4.033   2.059   6.968 -0.2915  0.6914  0.6152
 2274SOL     hw 9094   3.958   2.016   6.928  0.4353  0.7757 -0.9085
 2274SOL     hw 9095   4.109   2.010   6.936  0.3423  0.8254  1.8352
 2274SOL     vw 9096   4.033   2.047   6.958 -0.1121  0.7201  0.5748
 2275SOL     ow 9097   4.705   3.324   3.057  0.2179  0.2223  0.4189
 2275SOL     hw 9098   4.676   3.233   3.064  1.5644 -0.1280  1.8694
 2275SOL     hw 9099   4.774   3.322   2.990 -0.3462  0.3562 -0.1805
 2275SOL     vw 9100   4.710   3.312   3.049  0.3211  0.1938  0.5313
 2276SOL     ow 9101   6.495   5.432   5.787 -0.6297 -0.4947  0.7487
 2276SOL     hw 9102   6.501   5.525   5.808  2.0749  0.5432 -3.3075
 2276SOL     hw 9103   6.573   5.393   5.825  0.2915 -0.1752 -0.7097
 2276SOL     vw 9104   6.506   5.439   5.795 -0.1514 -0.3154  0.0212
 2277SOL     ow 9105   5.174   7.064   0.687 -0.4318  0.1305  0.1517
 2277SOL     hw 9106   5.213   7.134   0.740  1.0919 -0.0849 -0.6388
 2277SOL     hw 9107   5.247   7.006   0.665 -1.2232 -0.4098 -1.2156
 2277SOL     vw 9108   5.189   7.066   0.691 -0.3350  0.0308 -0.1330
 2278SOL     ow 9109   2.068   0.647   7.027  1.0617  0.8197  0.1117
 2278SOL     hw 9110   1.993   0.587   7.030 -0.4128  2.4428 -2.0141
 2278SOL     hw 9111   2.064   0.693   7.111  0.6407 -0.1843  0.6708
 2278SOL     vw 9112   2.057   0.645   7.039  0.8115  0.9014 -0.0951
 2279SOL     ow 9113   6.803   4.881   1.093  0.3741 -0.0252  0.0085
 2279SOL     hw 9114   6.776   4.874   1.185  0.9244 -2.4793  0.0463
 2279SOL     hw 9115   6.735   4.834   1.045  1.2053 -0.6660 -0.5738
 2279SOL     vw 9116   6.791   4.874   1.099  0.5562 -0.4334 -0.0634
 2280SOL     ow 9117   7.235   3.028   2.073 -0.0146  0.2563 -0.1444
 2280SOL     hw 9118   7.273   3.071   2.149 -0.8950  0.5805  0.1244
 2280SOL     hw 9119   7.246   2.934   2.090 -1.1675  0.2835  0.9182
 2280SOL     vw 9120   7.241   3.021   2.085 -0.2829  0.3026  0.0314
 2281SOL     ow 9121   1.481   4.085   4.151  0.1672 -0.0674  0.2551
 2281SOL     hw 9122   1.498   4.075   4.057 -0.8071  0.0831  0.0508
 2281SOL     hw 9123   1.536   4.159   4.177  1.1741 -0.7030  0.0259
 2281SOL     vw 9124   1.491   4.093   4.142  0.1715 -0.1314  0.1979
 2282SOL     ow 9125   3.630   5.184   5.230  0.3318 -0.6549  0.2677
 2282SOL     hw 9126   3.573   5.173   5.154 -0.0752  0.1136  0.4495
 2282SOL     hw 9127   3.616   5.275   5.257 -0.7020 -1.3148  2.1862
 2282SOL     vw 9128   3.620   5.195   5.224  0.1417 -0.6404  0.5445
 2283SOL     ow 9129   7.242   5.783   5.726 -0.0396 -0.2860  0.8198
 2283SOL     hw 9130   7.156   5.797   5.686  0.6661  0.1188 -0.6067
 2283SOL     hw 9131   7.262   5.867   5.769 -0.1859 -0.2585  0.8360
 2283SOL     vw 9132   7.233   5.796   5.727  0.0343 -0.2289  0.6337
 2284SOL     ow 9133   6.134   6.147   4.687 -0.2241  0.1647  0.1345
 2284SOL     hw 9134   6.096   6.146   4.775  0.7809  0.8465  0.5904
 2284SOL     hw 9135   6.215   6.197   4.696 -0.7626  1.4019 -1.4468
 2284SOL     vw 9136   6.139   6.153   4.700 -0.1626  0.4177 -0.0141
 2285SOL     ow 9137   6.567   1.239   1.923 -0.3147 -0.4472  0.0489
 2285SOL     hw 9138   6.650   1.203   1.954  0.1354  0.5772  0.0755
 2285SOL     hw 9139   6.501   1.175   1.951  0.7198 -3.0431 -2.8772
 2285SOL     vw 9140   6.569   1.226   1.930 -0.1190 -0.6545 -0.3337
 2286SOL     ow 9141   1.646   5.854   2.641 -0.3575 -0.2050  0.3913
 2286SOL     hw 9142   1.706   5.905   2.587 -0.4917 -1.2050 -0.7368
 2286SOL     hw 9143   1.667   5.763   2.621 -0.1635 -0.6207  2.3266
 2286SOL     vw 9144   1.656   5.849   2.631 -0.3496 -0.3915  0.4977
 2287SOL     ow 9145   6.834   4.897   2.427  0.3283  0.4594 -0.1935
 2287SOL     hw 9146   6.844   4.824   2.488  1.4093  0.3917 -0.4309
 2287SOL     hw 9147   6.920   4.938   2.425  0.3115  0.4721 -1.6518
 2287SOL     vw 9148   6.847   4.893   2.434  0.4687  0.4523 -0.4172
 2288SOL     ow 9149   6.400   2.353   6.015 -0.0455 -0.3151 -0.7389
 2288SOL     hw 9150   6.376   2.425   5.957  1.4784 -0.3731 -1.4877
 2288SOL     hw 9151   6.317   2.311   6.037 -1.0378  2.0307  0.2447
 2288SOL     vw 9152   6.386   2.357   6.010  0.0248 -0.0134 -0.7076
 2289SOL     ow 9153   5.242   3.908   1.240  0.3559  0.5099 -0.1728
 2289SOL     hw 9154   5.265   3.883   1.330 -1.2148  0.8603  0.3717
 2289SOL     hw 9155   5.258   3.829   1.189  1.3691  0.3332  0.3954
 2289SOL     vw 9156   5.247   3.894   1.245  0.2825  0.5327 -0.0260
 2290SOL     ow 9157   3.940   3.275   0.421 -0.2351  0.2012 -0.1398
 2290SOL     hw 9158   3.946   3.220   0.499  1.4586 -0.5225 -0.7320
 2290SOL     hw 9159   3.860   3.246   0.377 -0.0538 -0.9026  0.2264
 2290SOL     vw 9160   3.930   3.264   0.425  0.0125 -0.0401 -0.1696
 2291SOL     ow 9161   0.003   1.979   0.063  0.3626  0.0817 -0.3242
 2291SOL     hw 9162  -0.050   1.986   0.142 -2.3520 -0.5020 -1.9236
 2291SOL     hw 9163   0.092   1.965   0.094 -0.9206 -2.8558  2.6606
 2291SOL     vw 9164   0.007   1.978   0.077 -0.1650 -0.3829 -0.1414
 2292SOL     ow 9165   3.796   5.635   7.211 -0.5258 -0.4405 -0.2806
 2292SOL     hw 9166   3.870   5.675   7.256  0.1901 -1.1804 -0.7594
 2292SOL     hw 9167   3.726   5.634   7.276  0.5617 -1.7474  0.9452
 2292SOL     vw 9168   3.797   5.640   7.226 -0.2879 -0.7105 -0.1822
 2293SOL     ow 9169   3.507   3.394   6.701 -0.4167 -0.1343 -1.0917
 2293SOL     hw 9170   3.587   3.391   6.754 -0.7628  1.4612 -0.4214
 2293SOL     hw 9171   3.489   3.302   6.680 -0.3457 -0.8863  1.7254
 2293SOL     vw 9172   3.515   3.381   6.705 -0.4530 -0.0231 -0.6316
 2294SOL     ow 9173   5.484   2.961   4.843  0.0968  0.6847 -0.0109
 2294SOL     hw 9174   5.522   2.997   4.762 -1.7523  0.8588 -0.8708
 2294SOL     hw 9175   5.447   3.038   4.888  0.6596  0.5172  0.7513
 2294SOL     vw 9176   5.484   2.976   4.838 -0.0732  0.6856 -0.0238
 2295SOL     ow 9177   7.079   4.348   4.934  0.0765 -0.2704  0.5276
 2295SOL     hw 9178   7.136   4.303   4.996 -0.0756 -0.3142  0.6360
 2295SOL     hw 9179   7.136   4.369   4.859  0.1111 -0.7802  0.4096
 2295SOL     vw 9180   7.094   4.345   4.932  0.0608 -0.3436  0.5262
 2296SOL     ow 9181   5.875   1.854   1.219 -0.6183  0.0109  0.4255
 2296SOL     hw 9182   5.831   1.774   1.189  1.8575 -1.1279 -0.4662
 2296SOL     hw 9183   5.838   1.924   1.164 -1.3514 -0.8485 -0.2103
 2296SOL     vw 9184   5.864   1.853   1.207 -0.3884 -0.2528  0.2240
 2297SOL     ow 9185   2.581   0.611   5.511 -0.3548  0.0268  0.1904
 2297SOL     hw 9186   2.487   0.594   5.517 -0.0197 -2.3919 -0.4588
 2297SOL     hw 9187   2.601   0.611   5.418  0.3163  0.4159  0.3213
 2297SOL     vw 9188   2.572   0.609   5.500 -0.2220 -0.2410  0.1216
 2298SOL     ow 9189   2.492   0.096   4.429 -0.2195 -0.0872  0.3708
 2298SOL     hw 9190   2.419   0.159   4.424 -1.9404 -2.0592 -0.9050
 2298SOL     hw 9191   2.553   0.135   4.492 -1.1314  2.8866 -0.4246
 2298SOL     vw 9192   2.490   0.110   4.437 -0.5670  0.0450  0.0975
 2299SOL     ow 9193   6.146   4.026   6.873 -0.6785  0.5537  0.7198
 2299SOL     hw 9194   6.235   3.992   6.870 -0.9498 -0.5108  2.7055
 2299SOL     hw 9195   6.114   4.017   6.783  0.7630 -0.3033  0.2529
 2299SOL     vw 9196   6.153   4.020   6.861 -0.5240  0.3004  0.9198
 2300SOL     ow 9197   4.514   5.750   5.595 -0.6673  0.3236  0.1480
 2300SOL     hw 9198   4.455   5.784   5.528 -0.6111  1.4900  0.6659
 2300SOL     hw 9199   4.501   5.808   5.670 -0.3997 -0.6873  0.9953
 2300SOL     vw 9200   4.504   5.762   5.596 -0.6247  0.3440  0.3283
 2301SOL     ow 9201   6.931   5.917   2.345 -0.3422 -0.0732 -0.0559
 2301SOL     hw 9202   6.898   5.960   2.424  0.1812  0.0657  0.0910
 2301SOL     hw 9203   6.990   5.981   2.306  0.7213 -0.7794  0.3494
 2301SOL     vw 9204   6.934   5.931   2.350 -0.1328 -0.1483  0.0170
 2302SOL     ow 9205   1.795   6.128   1.817  0.2961 -0.3740 -0.3068
 2302SOL     hw 9206   1.756   6.194   1.759 -0.2413  0.2159  0.7023
 2302SOL     hw 9207   1.760   6.045   1.785  1.4309 -0.2620 -1.9550
 2302SOL     vw 9208   1.785   6.126   1.805  0.3749 -0.2816 -0.3911
 2303SOL     ow 9209   0.297   4.183   0.783  0.4361 -0.6785 -0.6281
 2303SOL     hw 9210   0.331   4.207   0.696 -0.7974  0.3921 -0.8424
 2303SOL     hw 9211   0.360   4.119   0.816  2.9007  1.4063 -0.8649
 2303SOL     vw 9212   0.310   4.178   0.776  0.5985 -0.2625 -0.6876
 2304SOL     ow 9213   5.484   0.532   2.216  0.0072 -0.0663  0.1387
 2304SOL     hw 9214   5.426   0.565   2.285  0.9219  1.1348  0.3750
 2304SOL     hw 9215   5.554   0.487   2.263  0.8201  1.0544  0.0537
 2304SOL     vw 9216   5.486   0.530   2.231  0.2353  0.2401  0.1587
 2305SOL     ow 9217   2.787   7.100   1.063  1.3887 -0.0416 -0.6588
 2305SOL     hw 9218   2.729   7.033   1.100 -0.4893  0.6899 -2.1380
 2305SOL     hw 9219   2.801   7.162   1.134  0.7115 -0.4714 -0.1422
 2305SOL     vw 9220   2.781   7.099   1.077  1.0515 -0.0017 -0.7857
 2306SOL     ow 9221   0.198   2.421   7.020  0.0477  0.7536 -0.0602
 2306SOL     hw 9222   0.288   2.395   6.998 -0.2020  0.2265 -0.4993
 2306SOL     hw 9223   0.151   2.416   6.936 -0.7612 -0.5632  0.4421
 2306SOL     vw 9224   0.204   2.417   7.006 -0.0920  0.5102 -0.0520
 2307SOL     ow 9225   4.070   2.706   6.413  0.3149 -0.1012  0.7612
 2307SOL     hw 9226   4.131   2.780   6.414 -0.1689  0.3446 -0.4245
 2307SOL     hw 9227   3.983   2.746   6.417 -0.0177 -0.4595 -1.5009
 2307SOL     vw 9228   4.066   2.721   6.413  0.2072 -0.0896  0.3064
 2308SOL     ow 9229   2.834   1.863   5.403 -0.3532 -0.0134 -0.7836
 2308SOL     hw 9230   2.826   1.776   5.365 -1.2468 -0.4980  0.4696
 2308SOL     hw 9231   2.744   1.891   5.419 -0.1350  1.5437 -1.9845
 2308SOL     vw 9232   2.821   1.855   5.400 -0.4423  0.1281 -0.7763
 2309SOL     ow 9233   5.940   4.707   5.518  0.4630 -0.9110  0.3431
 2309SOL     hw 9234   5.884   4.676   5.447  0.1527  0.2716  0.0460
 2309SOL     hw 9235   6.029   4.707   5.482  0.5776 -2.1531  0.5984
 2309SOL     vw 9236   5.944   4.703   5.504  0.4373 -0.9189  0.3376
 2310SOL     ow 9237   5.914   2.692   6.905  0.3037 -0.3880 -0.3417
 2310SOL     hw 9238   5.954   2.665   6.987  1.5470 -0.4765 -0.9529
 2310SOL     hw 9239   5.922   2.616   6.848 -0.2840 -0.2317 -0.6440
 2310SOL     vw 9240   5.920   2.679   6.908  0.3905 -0.3791 -0.4623
 2311SOL     ow 9241   1.465   4.061   5.105  0.0250 -0.5132  0.1898
 2311SOL     hw 9242   1.370   4.071   5.104 -0.1266 -1.2613  1.9982
 2311SOL     hw 9243   1.498   4.151   5.104 -0.7944 -0.1660  1.4475
 2311SOL     vw 9244   1.457   4.075   5.105 -0.1032 -0.5662  0.5941
 2312SOL     ow 9245   0.489   0.541   0.396  0.6153  0.1765  0.1225
 2312SOL     hw 9246   0.516   0.620   0.350 -1.5519  0.9387  0.0622
 2312SOL     hw 9247   0.447   0.573   0.476 -0.6776 -0.8630 -0.1030
 2312SOL     vw 9248   0.487   0.556   0.401  0.1588  0.1400  0.0848
 2313SOL     ow 9249   1.554   2.649   0.405  0.0502 -0.1712 -0.6504
 2313SOL     hw 9250   1.552   2.740   0.436 -0.1967 -0.8913  1.6548
 2313SOL     hw 9251   1.489   2.646   0.335  1.5710  1.8659 -2.2813
 2313SOL     vw 9252   1.545   2.661   0.400  0.2182  0.0025 -0.5615
 2314SOL     ow 9253   5.505   1.793   7.197 -0.8443 -0.2287  0.6094
 2314SOL     hw 9254   5.547   1.791   7.111 -0.3877 -0.2273  0.8299
 2314SOL     hw 9255   5.577   1.782   7.259 -1.1385  0.0328  1.0009
 2314SOL     vw 9256   5.520   1.791   7.194 -0.8230 -0.1940  0.6902
 2315SOL     ow 9257   0.522   4.817   6.768 -0.0688 -0.9817  0.4003
 2315SOL     hw 9258   0.590   4.883   6.757 -0.5549 -0.6540 -0.7479
 2315SOL     hw 9259   0.569   4.733   6.769  0.2203 -1.1231 -4.0878
 2315SOL     vw 9260   0.537   4.814   6.767 -0.0948 -0.9570 -0.3433
 2316SOL     ow 9261   1.712   5.026   5.185 -0.3362 -0.8245  0.2287
 2316SOL     hw 9262   1.742   5.109   5.148 -1.4906 -0.3470  0.3152
 2316SOL     hw 9263   1.733   5.033   5.278 -0.5209 -0.5855  0.2536
 2316SOL     vw 9264   1.719   5.038   5.192 -0.5130 -0.7300  0.2432
 2317SOL     ow 9265   4.650   3.033   2.785  0.3256 -0.3577  0.1012
 2317SOL     hw 9266   4.577   3.041   2.724 -0.7668 -1.5298  1.1775
 2317SOL     hw 9267   4.643   2.943   2.818  1.0727  0.1284  1.6795
 2317SOL     vw 9268   4.639   3.022   2.781  0.2804 -0.4481  0.4514
 2318SOL     ow 9269   6.851   4.764   5.918 -0.3547 -0.2931  0.3289
 2318SOL     hw 9270   6.763   4.730   5.930 -0.2678 -0.0776  1.6831
 2318SOL     hw 9271   6.843   4.825   5.845 -1.6704  0.8399  1.3661
 2318SOL     vw 9272   6.839   4.768   5.910 -0.5169 -0.1149  0.6444
 2319SOL     ow 9273   1.896   2.117   1.598  0.2785  0.1875 -0.4219
 2319SOL     hw 9274   1.832   2.083   1.660 -1.2277  0.3223 -1.8373
 2319SOL     hw 9275   1.911   2.208   1.625  0.4742 -0.0789  0.3692
 2319SOL     vw 9276   1.890   2.124   1.609  0.1056  0.1701 -0.5043
 2320SOL     ow 9277   2.499   3.509   0.796 -0.5313  0.6756  0.6479
 2320SOL     hw 9278   2.520   3.601   0.814 -0.1957  0.8076 -0.3276
 2320SOL     hw 9279   2.584   3.465   0.801  0.7319  1.5464 -5.3946
 2320SOL     vw 9280   2.513   3.516   0.799 -0.3204  0.8080 -0.2781
 2321SOL     ow 9281   1.730   1.140   6.788 -0.1406  0.0738  0.0865
 2321SOL     hw 9282   1.695   1.077   6.725 -0.2216 -0.0373  0.2444
 2321SOL     hw 9283   1.718   1.225   6.745  0.1049 -0.0294 -0.1878
 2321SOL     vw 9284   1.724   1.143   6.774 -0.1190  0.0455  0.0710
 2322SOL     ow 9285   2.447   0.477   3.488 -0.3694  0.3016 -0.4984
 2322SOL     hw 9286   2.489   0.413   3.546 -1.2003 -1.0952 -1.3719
 2322SOL     hw 9287   2.404   0.538   3.548 -2.6247 -2.0367  0.4926
 2322SOL     vw 9288   2.447   0.477   3.504 -0.7765 -0.1912 -0.4829
 2323SOL     ow 9289   3.797   1.738   5.797  0.4153  0.0404  0.4623
 2323SOL     hw 9290   3.750   1.658   5.819  0.0222 -0.0632 -0.6895
 2323SOL     hw 9291   3.814   1.731   5.702  0.3980  1.3000  0.3476
 2323SOL     vw 9292   3.793   1.727   5.787  0.3611  0.1928  0.2954
 2324SOL     ow 9293   6.695   1.451   3.359  0.2591 -0.2153 -0.3308
 2324SOL     hw 9294   6.680   1.531   3.310  0.5372 -0.6296 -1.1167
 2324SOL     hw 9295   6.725   1.480   3.445 -0.4935  0.5261 -0.3133
 2324SOL     vw 9296   6.697   1.465   3.364  0.1965 -0.1721 -0.4321
 2325SOL     ow 9297   1.904   2.741   5.697  0.3316 -0.6736  0.7850
 2325SOL     hw 9298   1.956   2.674   5.741 -0.2395 -0.9514  1.0467
 2325SOL     hw 9299   1.817   2.702   5.687 -0.1715  0.2374  1.4604
 2325SOL     vw 9300   1.899   2.727   5.701  0.1898 -0.5902  0.9086
 2326SOL     ow 9301   1.550   0.513   5.590  0.1704  0.6024 -0.0057
 2326SOL     hw 9302   1.487   0.451   5.625  0.6525  0.3071  0.3466
 2326SOL     hw 9303   1.605   0.538   5.665  1.0245  0.1859 -0.4701
 2326SOL     vw 9304   1.549   0.508   5.604  0.3467  0.5085 -0.0205
 2327SOL     ow 9305   0.471   6.344   2.845  0.3460  0.6338  0.3690
 2327SOL     hw 9306   0.387   6.387   2.861  0.1730  0.1938  0.6796
 2327SOL     hw 9307   0.475   6.275   2.912  0.0216 -0.6841 -0.9230
 2327SOL     vw 9308   0.461   6.340   2.856  0.2804  0.4022  0.2394
 2328SOL     ow 9309   6.064   3.157   1.008 -0.0230 -0.3256  0.0038
 2328SOL     hw 9310   6.020   3.144   0.924  1.1562 -1.6111 -0.4418
 2328SOL     hw 9311   6.032   3.242   1.039 -1.3042 -0.3364 -1.2149
 2328SOL     vw 9312   6.054   3.167   1.001 -0.0362 -0.4967 -0.2158
 2329SOL     ow 9313   3.802   4.961   6.926  0.0329 -0.0976  0.0245
 2329SOL     hw 9314   3.866   4.891   6.935  0.1485  0.1805  1.6559
 2329SOL     hw 9315   3.718   4.915   6.918  0.0264 -0.4698  1.7584
 2329SOL     vw 9316   3.799   4.946   6.926  0.0474 -0.1099  0.4685
 2330SOL     ow 9317   5.995   7.076   6.864 -0.3234  0.7655 -0.3546
 2330SOL     hw 9318   6.078   7.106   6.901  0.0564 -0.1250 -0.4485
 2330SOL     hw 9319   6.018   7.046   6.776 -0.9509  1.5142 -0.7761
 2330SOL     vw 9320   6.009   7.076   6.857 -0.3560  0.7472 -0.4227
 2331SOL     ow 9321   5.623   5.602   3.341 -0.5870 -0.0578  0.3613
 2331SOL     hw 9322   5.643   5.652   3.261 -1.8838  1.1843  0.7676
 2331SOL     hw 9323   5.666   5.651   3.411 -0.7887 -0.2446  0.6170
 2331SOL     vw 9324   5.631   5.615   3.339 -0.7846  0.0813  0.4487
 2332SOL     ow 9325   3.980   4.618   0.463  0.2092 -0.0752  0.3193
 2332SOL     hw 9326   3.896   4.585   0.494  0.3104 -0.1361  0.5298
 2332SOL     hw 9327   3.960   4.702   0.422  0.1151  0.1310  0.7869
 2332SOL     vw 9328   3.966   4.625   0.462  0.2099 -0.0560  0.4087
 2333SOL     ow 9329   4.636   3.576   2.983 -0.7347 -0.4987 -0.5378
 2333SOL     hw 9330   4.575   3.604   3.051  0.1000 -1.2952  0.5638
 2333SOL     hw 9331   4.653   3.484   3.002  1.1559 -0.1893 -0.5217
 2333SOL     vw 9332   4.630   3.568   2.994 -0.3750 -0.5630 -0.3903
 2334SOL     ow 9333   2.827   1.153   2.335  0.1212 -0.0235 -0.1008
 2334SOL     hw 9334   2.800   1.221   2.274 -1.5523 -1.4792 -1.0621
 2334SOL     hw 9335   2.775   1.077   2.311  1.3170 -1.4146  1.4863
 2334SOL     vw 9336   2.817   1.152   2.324  0.0582 -0.3991 -0.0184
 2335SOL     ow 9337   1.407   1.897   1.739 -0.7080  0.9085  0.4063
 2335SOL     hw 9338   1.471   1.846   1.690  0.2457  1.7238  0.7731
 2335SOL     hw 9339   1.329   1.841   1.741  0.4467 -0.7505  1.2218
 2335SOL     vw 9340   1.405   1.883   1.733 -0.4297  0.7972  0.5623
 2336SOL     ow 9341   6.494   4.202   4.206 -0.1578 -0.4889 -0.9471
 2336SOL     hw 9342   6.514   4.150   4.284  0.9284 -0.4222 -1.1731
 2336SOL     hw 9343   6.539   4.156   4.135  1.9173  1.4321 -0.9605
 2336SOL     vw 9344   6.502   4.189   4.207  0.2592 -0.2267 -0.9787
 2337SOL     ow 9345   5.341   6.175   7.064  0.1508  0.5636  0.3772
 2337SOL     hw 9346   5.415   6.226   7.031  0.2955  0.3232  0.3239
 2337SOL     hw 9347   5.325   6.210   7.152  0.1133  0.8396  0.2589
 2337SOL     vw 9348   5.349   6.186   7.071  0.1647  0.5684  0.3548
 2338SOL     ow 9349   2.464   3.874   3.660  0.4021 -0.1691  0.3316
 2338SOL     hw 9350   2.374   3.843   3.676  0.6488 -0.9457  0.2418
 2338SOL     hw 9351   2.511   3.796   3.631  1.0243  0.3126  0.0323
 2338SOL     vw 9352   2.458   3.859   3.658  0.5168 -0.2080  0.2804
 2339SOL     ow 9353   7.214   0.057   3.396  0.2848  0.2205  0.6547
 2339SOL     hw 9354   7.227   0.121   3.466  0.1511  0.9059  0.0635
 2339SOL     hw 9355   7.175   0.107   3.325  0.2781 -0.5028  0.1389
 2339SOL     vw 9356   7.210   0.072   3.396  0.2666  0.2155  0.5087
 2340SOL     ow 9357   1.242   1.524   5.505 -0.2667 -0.8274  0.4937
 2340SOL     hw 9358   1.275   1.487   5.587  2.6365  2.1201  0.8811
 2340SOL     hw 9359   1.305   1.495   5.439 -0.1869  0.1669  0.1149
 2340SOL     vw 9360   1.255   1.515   5.507  0.1268 -0.3073  0.4947
 2341SOL     ow 9361   0.823   6.491   2.577 -0.0798  0.0475 -0.1599
 2341SOL     hw 9362   0.781   6.517   2.659  1.1395 -2.2584  1.3037
 2341SOL     hw 9363   0.879   6.566   2.553 -1.0287  1.0502  0.6730
 2341SOL     vw 9364   0.825   6.504   2.584 -0.0441 -0.1245  0.1431
 2342SOL     ow 9365   4.361   2.257   6.471 -0.1284  0.1871 -0.7964
 2342SOL     hw 9366   4.295   2.212   6.418 -0.5836  0.5126 -0.5159
 2342SOL     hw 9367   4.360   2.212   6.555 -2.0213  1.9059  0.1986
 2342SOL     vw 9368   4.352   2.245   6.475 -0.4382  0.4568 -0.6282
 2343SOL     ow 9369   4.922   4.396   5.840  0.5282  0.2594  0.1544
 2343SOL     hw 9370   4.880   4.333   5.898  0.4625  0.3672  0.2247
 2343SOL     hw 9371   4.964   4.342   5.773  0.4449  0.1432  0.1948
 2343SOL     vw 9372   4.922   4.380   5.839  0.5088  0.2582  0.1690
 2344SOL     ow 9373   7.047   6.680   1.594  0.7708  0.5044 -0.5600
 2344SOL     hw 9374   6.979   6.727   1.642  0.9480  0.9212 -0.7059
 2344SOL     hw 9375   7.007   6.597   1.569  0.1612  0.9237 -1.0264
 2344SOL     vw 9376   7.033   6.676   1.597  0.7138  0.6146 -0.6408
 2345SOL     ow 9377   2.287   5.917   1.637 -0.6988 -0.1587  0.1401
 2345SOL     hw 9378   2.352   5.847   1.632 -0.4653  0.1632 -2.1613
 2345SOL     hw 9379   2.250   5.922   1.549 -2.6631  0.7959  0.9647
 2345SOL     vw 9380   2.291   5.909   1.625 -0.9271  0.0098 -0.0548
 2346SOL     ow 9381   1.838   5.802   6.644  0.4665  0.3120 -0.0427
 2346SOL     hw 9382   1.793   5.719   6.632  0.5760  0.2703 -0.1792
 2346SOL     hw 9383   1.918   5.793   6.592  1.2537 -0.0978  1.1785
 2346SOL     vw 9384   1.843   5.790   6.636  0.5848  0.2522  0.1004
 2347SOL     ow 9385   5.385   0.038   2.685 -0.1843 -0.0892  0.6460
 2347SOL     hw 9386   5.371  -0.056   2.685  0.8443 -0.2492  0.5400
 2347SOL     hw 9387   5.479   0.049   2.670 -0.2711  0.9465  0.7657
 2347SOL     vw 9388   5.395   0.027   2.683 -0.0601  0.0265  0.6478
 2348SOL     ow 9389   2.995   1.454   5.679 -0.3192 -0.0708  0.5679
 2348SOL     hw 9390   2.946   1.530   5.648 -1.3794 -0.8655  0.2569
 2348SOL     hw 9391   2.981   1.453   5.774  1.5868  1.4121  0.9392
 2348SOL     vw 9392   2.987   1.464   5.687 -0.2078  0.0200  0.5760
 2349SOL     ow 9393   2.583   1.866   0.938  0.2162  0.8735 -0.0159
 2349SOL     hw 9394   2.623   1.953   0.933  3.3384 -0.4032  0.1866
 2349SOL     hw 9395   2.571   1.851   1.032 -2.0279  1.7081 -0.1173
 2349SOL     vw 9396   2.587   1.876   0.950  0.3319  0.8152 -0.0026
 2350SOL     ow 9397   2.887   3.911   7.106  0.5309 -0.1219  0.0916
 2350SOL     hw 9398   2.824   3.907   7.034 -0.6238 -0.9525  1.1039
 2350SOL     hw 9399   2.950   3.977   7.079  0.7411 -1.1322 -2.1524
 2350SOL     vw 9400   2.887   3.919   7.093  0.4061 -0.3648 -0.0710
 2351SOL     ow 9401   0.736   5.273   0.548 -0.2650  0.7435  0.2026
 2351SOL     hw 9402   0.808   5.267   0.611  0.8476  1.5186 -0.9476
 2351SOL     hw 9403   0.675   5.205   0.576  0.9533 -0.0151  1.1561
 2351SOL     vw 9404   0.738   5.263   0.560  0.0425  0.7458  0.1767
 2352SOL     ow 9405   5.703   6.735   3.874 -0.0479  0.1661 -0.0192
 2352SOL     hw 9406   5.685   6.642   3.857  2.0550 -0.3311  0.2329
 2352SOL     hw 9407   5.744   6.766   3.794 -0.5085  0.8401 -0.0044
 2352SOL     vw 9408   5.706   6.727   3.861  0.1688  0.1895  0.0159
 2353SOL     ow 9409   5.037   2.877   0.092  0.3410  0.7118  0.4386
 2353SOL     hw 9410   5.079   2.826   0.161  0.3022  1.8979  1.3830
 2353SOL     hw 9411   5.104   2.886   0.025  0.5777  0.0145  0.5810
 2353SOL     vw 9412   5.051   2.872   0.093  0.3669  0.7762  0.5820
 2354SOL     ow 9413   4.913   0.566   5.819  0.6517 -0.2575  0.1016
 2354SOL     hw 9414   4.930   0.574   5.913  0.2281  0.5952  0.1129
 2354SOL     hw 9415   4.993   0.529   5.783  0.8447 -0.5326  0.7830
 2354SOL     vw 9416   4.926   0.562   5.827  0.6216 -0.1813  0.1931
 2355SOL     ow 9417   3.024   4.535   1.517  0.4122 -0.4673 -0.2147
 2355SOL     hw 9418   3.045   4.461   1.461 -1.7494  0.2498 -2.1248
 2355SOL     hw 9419   2.972   4.497   1.588  2.0824 -1.1811  0.7078
 2355SOL     vw 9420   3.020   4.520   1.519  0.3474 -0.4668 -0.3450
 2356SOL     ow 9421   6.182   3.229   5.493  0.0001  0.4056 -0.4935
 2356SOL     hw 9422   6.155   3.282   5.569  0.5606 -0.4192  0.3023
 2356SOL     hw 9423   6.117   3.158   5.489  1.4103 -1.0401  0.8441
 2356SOL     vw 9424   6.170   3.227   5.503  0.2601  0.1060 -0.2120
 2357SOL     ow 9425   2.243   3.749   3.770  0.6934 -0.4293 -0.2344
 2357SOL     hw 9426   2.153   3.719   3.781  1.1972 -2.0933 -0.2076
 2357SOL     hw 9427   2.275   3.765   3.859  0.2914  0.6399 -0.2734
 2357SOL     vw 9428   2.236   3.747   3.783  0.7069 -0.5078 -0.2362
 2358SOL     ow 9429   5.228   2.884   7.092  0.3694  0.1882  0.5117
 2358SOL     hw 9430   5.174   2.962   7.103 -1.0132 -0.8845  1.8751
 2358SOL     hw 9431   5.199   2.846   7.009  1.0841  1.1145 -0.1829
 2358SOL     vw 9432   5.217   2.889   7.083  0.2811  0.1689  0.5999
 2359SOL     ow 9433   5.211   0.090   4.264  0.0972 -0.7913  1.0915
 2359SOL     hw 9434   5.157   0.024   4.307 -0.4543 -1.1292 -0.0662
 2359SOL     hw 9435   5.162   0.112   4.184  1.1154 -0.2509  0.5999
 2359SOL     vw 9436   5.197   0.084   4.259  0.1590 -0.7646  0.8738
 2360SOL     ow 9437   1.819   6.344   6.666 -0.2349 -0.2597  1.1960
 2360SOL     hw 9438   1.828   6.416   6.603 -1.0941 -0.2342  1.0901
 2360SOL     hw 9439   1.906   6.337   6.706  0.4778 -0.5761 -0.3072
 2360SOL     vw 9440   1.832   6.353   6.663 -0.2542 -0.2980  0.9835
 2361SOL     ow 9441   2.863   3.809   0.911 -0.4898  0.1456 -0.4683
 2361SOL     hw 9442   2.906   3.881   0.956  1.0956  0.1819 -1.9419
 2361SOL     hw 9443   2.922   3.734   0.924 -0.4081 -0.0351 -1.7605
 2361SOL     vw 9444   2.876   3.808   0.919 -0.2697  0.1265 -0.8333
 2362SOL     ow 9445   3.400   4.903   2.107  0.4137  0.4133  0.1441
 2362SOL     hw 9446   3.357   4.935   2.028  1.5509  0.2256 -0.5653
 2362SOL     hw 9447   3.484   4.870   2.077  1.1549  0.9738  1.5349
 2362SOL     vw 9448   3.405   4.902   2.093  0.6615  0.4625  0.2340
 2363SOL     ow 9449   2.285   4.423   5.202  0.0267 -0.3464  0.1474
 2363SOL     hw 9450   2.319   4.445   5.289 -0.1747 -2.4152  0.8252
 2363SOL     hw 9451   2.277   4.506   5.157  1.5779  0.6457  1.5888
 2363SOL     vw 9452   2.289   4.437   5.208  0.2048 -0.4883  0.4268
 2364SOL     ow 9453   4.404   4.208   7.028 -0.0453 -0.3138 -0.4807
 2364SOL     hw 9454   4.310   4.222   7.038  0.1042 -0.2646  1.2157
 2364SOL     hw 9455   4.444   4.288   7.062  0.6199 -1.0553  0.5791
 2364SOL     vw 9456   4.397   4.220   7.034  0.0622 -0.4053 -0.1171
 2365SOL     ow 9457   0.056   4.620   3.405  0.3237  0.8154 -0.4011
 2365SOL     hw 9458   0.133   4.662   3.366 -0.1851  2.7642  0.5846
 2365SOL     hw 9459   0.038   4.671   3.484 -2.3368  0.8026 -0.9102
 2365SOL     vw 9460   0.064   4.632   3.410 -0.0944  1.0710 -0.3384
 2366SOL     ow 9461   2.469   0.272   3.042 -0.3517  0.4341 -0.1989
 2366SOL     hw 9462   2.438   0.245   3.128 -0.3346  0.3795 -0.2100
 2366SOL     hw 9463   2.414   0.225   2.980 -0.3510  0.4585 -0.2178
 2366SOL     vw 9464   2.458   0.263   3.045 -0.3493  0.4301 -0.2029
 2367SOL     ow 9465   2.755   1.186   5.974  0.6924 -0.4164 -0.3801
 2367SOL     hw 9466   2.716   1.180   6.062  1.3764 -0.0661 -0.0428
 2367SOL     hw 9467   2.704   1.254   5.930  1.9382  1.2783  0.6351
 2367SOL     vw 9468   2.743   1.194   5.980  0.9470 -0.1467 -0.2015
 2368SOL     ow 9469   2.705   3.966   3.524 -0.6634 -0.4474 -0.5237
 2368SOL     hw 9470   2.687   3.911   3.448  1.6521 -2.1523  0.0136
 2368SOL     hw 9471   2.741   4.047   3.489  1.7529 -1.7682 -1.3418
 2368SOL     vw 9472   2.708   3.969   3.510 -0.0391 -0.8466 -0.5608
 2369SOL     ow 9473   7.128   4.534   6.757 -0.4099  0.0913  0.2929
 2369SOL     hw 9474   7.079   4.510   6.836  0.0314 -0.2708  0.4566
 2369SOL     hw 9475   7.134   4.629   6.761 -0.0205  0.0428  0.9159
 2369SOL     vw 9476   7.122   4.543   6.768 -0.3004  0.0372  0.3970
 2370SOL     ow 9477   3.359   6.059   1.344 -0.2027  0.2256 -0.2886
 2370SOL     hw 9478   3.398   5.975   1.368 -0.4616  0.2165  0.0998
 2370SOL     hw 9479   3.321   6.044   1.257 -0.5463 -0.1513 -0.0743
 2370SOL     vw 9480   3.359   6.046   1.335 -0.2822  0.1745 -0.2092
 2371SOL     ow 9481   5.551   4.061   2.059  0.0831  0.0336  0.3639
 2371SOL     hw 9482   5.463   4.026   2.048 -0.6001  1.8113 -0.2564
 2371SOL     hw 9483   5.590   4.056   1.971 -0.5465  2.0586 -0.0698
 2371SOL     vw 9484   5.545   4.056   2.046 -0.0906  0.5352  0.2249
 2372SOL     ow 9485   4.219   4.150   6.515 -0.8430 -0.0408 -0.1392
 2372SOL     hw 9486   4.295   4.204   6.535 -0.3537 -0.7097 -0.1455
 2372SOL     hw 9487   4.254   4.077   6.464 -1.1013 -1.5339  1.6858
 2372SOL     vw 9488   4.234   4.147   6.511 -0.8125 -0.3259  0.1009
 2373SOL     ow 9489   1.675   0.387   5.382 -0.3416 -0.0093 -0.2816
 2373SOL     hw 9490   1.712   0.458   5.328 -2.0469 -0.9043 -2.8249
 2373SOL     hw 9491   1.635   0.432   5.456  1.1143  1.4101 -0.2892
 2373SOL     vw 9492   1.675   0.402   5.385 -0.3746  0.0599 -0.6180
 2374SOL     ow 9493   2.439   4.273   0.225 -0.1709 -0.0601  0.2503
 2374SOL     hw 9494   2.469   4.190   0.261  0.5960  0.1418  0.0926
 2374SOL     hw 9495   2.429   4.331   0.301 -0.2195 -0.1409  0.3058
 2374SOL     vw 9496   2.441   4.270   0.240 -0.0761 -0.0441  0.2368
 2375SOL     ow 9497   4.591   5.980   1.491 -0.2073  0.6145 -0.4002
 2375SOL     hw 9498   4.678   5.992   1.454 -0.5750  1.5381 -0.9981
 2375SOL     hw 9499   4.606   5.961   1.584  0.7116 -1.3122 -0.8888
 2375SOL     vw 9500   4.604   5.979   1.498 -0.1345  0.4823 -0.5437
 2376SOL     ow 9501   4.668   6.583   2.821 -0.1029  0.2507  0.2184
 2376SOL     hw 9502   4.703   6.531   2.749  0.7437 -1.4367  1.7865
 2376SOL     hw 9503   4.741   6.639   2.848 -0.6395  1.4219 -0.6516
 2376SOL     vw 9504   4.682   6.583   2.815 -0.0620  0.1826  0.3107
 2377SOL     ow 9505   6.792   4.131   6.062 -0.1563 -0.4605 -0.1045
 2377SOL     hw 9506   6.855   4.093   6.001  0.6538  1.0759 -0.2865
 2377SOL     hw 9507   6.833   4.121   6.148  0.0534 -0.0327 -0.1515
 2377SOL     vw 9508   6.806   4.125   6.065 -0.0215 -0.2012 -0.1349
 2378SOL     ow 9509   6.606   5.099   6.048 -0.5161  0.4235 -0.3528
 2378SOL     hw 9510   6.701   5.091   6.055 -0.4764  1.5723  1.0655
 2378SOL     hw 9511   6.574   5.009   6.046  0.5992  0.0235 -0.7979
 2378SOL     vw 9512   6.614   5.086   6.049 -0.3636  0.5221 -0.2244
 2379SOL     ow 9513   0.347   2.501   3.915  0.0384  0.1379  0.6813
 2379SOL     hw 9514   0.365   2.445   3.840 -1.0264  0.9461 -0.2188
 2379SOL     hw 9515   0.420   2.563   3.917  0.3095 -0.1755  0.6019
 2379SOL     vw 9516   0.359   2.502   3.906 -0.0663  0.2034  0.5522
 2380SOL     ow 9517   6.694   3.269   0.338  0.5303 -0.0247  0.0621
 2380SOL     hw 9518   6.766   3.307   0.287  0.2760  0.2918 -0.0644
 2380SOL     hw 9519   6.728   3.265   0.427  0.7841 -0.0796 -0.0342
 2380SOL     vw 9520   6.708   3.273   0.343  0.5302  0.0098  0.0327
 2381SOL     ow 9521   6.578   0.332   4.598 -0.4934  0.2814  0.2104
 2381SOL     hw 9522   6.637   0.306   4.527  0.3243 -0.0425  0.9804
 2381SOL     hw 9523   6.574   0.256   4.655 -1.6856  0.2980  0.1788
 2381SOL     vw 9524   6.585   0.319   4.596 -0.5426  0.2409  0.3076
 2382SOL     ow 9525   4.276   0.527   7.062 -0.0761  0.4393 -0.5748
 2382SOL     hw 9526   4.206   0.538   7.126  0.4923  0.0213  0.1268
 2382SOL     hw 9527   4.337   0.599   7.079  1.0480 -0.7426  0.6454
 2382SOL     vw 9528   4.275   0.538   7.072  0.1471  0.2282 -0.3214
 2383SOL     ow 9529   0.455   0.398   0.113  0.2115 -0.0760  0.0765
 2383SOL     hw 9530   0.479   0.312   0.080  1.0303 -0.3303  1.2438
 2383SOL     hw 9531   0.527   0.455   0.085  0.2462 -0.0161  0.2866
 2383SOL     vw 9532   0.468   0.395   0.105  0.3241 -0.1016  0.2582
 2384SOL     ow 9533   5.399   5.130   1.429  0.2889  0.1750 -0.1627
 2384SOL     hw 9534   5.352   5.052   1.458  0.8548 -0.4715 -0.9246
 2384SOL     hw 9535   5.341   5.202   1.452 -0.2519 -0.4635  0.5541
 2384SOL     vw 9536   5.385   5.129   1.436  0.2921  0.0055 -0.1686
 2385SOL     ow 9537   2.964   3.382   6.635 -0.2517 -0.1249 -0.2306
 2385SOL     hw 9538   3.038   3.360   6.579 -0.2418  0.9600 -0.6786
 2385SOL     hw 9539   3.003   3.400   6.721  0.1959  1.6512 -0.7638
 2385SOL     vw 9540   2.979   3.382   6.639 -0.1913  0.2526 -0.3598
 2386SOL     ow 9541   2.482   4.706   2.146  0.1512  0.1200 -0.4408
 2386SOL     hw 9542   2.483   4.646   2.072  2.8538  0.7180 -1.0059
 2386SOL     hw 9543   2.465   4.792   2.107  1.3915  0.4079 -0.3880
 2386SOL     vw 9544   2.480   4.710   2.131  0.6715  0.2370 -0.5084
 2387SOL     ow 9545   1.227   0.103   3.945 -0.3024  0.1334 -0.2919
 2387SOL     hw 9546   1.305   0.155   3.965  0.5084 -0.8265 -0.8771
 2387SOL     hw 9547   1.208   0.123   3.854 -0.9323  0.5949 -0.0647
 2387SOL     vw 9548   1.235   0.112   3.936 -0.2785  0.0677 -0.3393
 2388SOL     ow 9549   4.444   0.014   4.795  0.2260  0.3993 -0.2872
 2388SOL     hw 9550   4.499   0.064   4.735  2.9263 -1.2958  0.5923
 2388SOL     hw 9551   4.459   0.054   4.880 -2.1899  1.6540 -0.3672
 2388SOL     vw 9552   4.453   0.026   4.798  0.2639  0.3412 -0.1817
 2389SOL     ow 9553   6.959   2.104   2.673  0.0767  0.0494  1.0275
 2389SOL     hw 9554   7.038   2.156   2.659 -1.9714  2.7701 -1.5057
 2389SOL     hw 9555   6.972   2.063   2.759  3.4006  1.7908  1.5075
 2389SOL     vw 9556   6.971   2.105   2.683  0.2451  0.6382  0.7567
 2390SOL     ow 9557   1.525   3.320   1.780 -0.4866 -0.3422  0.3527
 2390SOL     hw 9558   1.586   3.387   1.810 -1.8815  0.3380  1.8130
 2390SOL     hw 9559   1.517   3.260   1.854 -0.7220 -1.0573 -0.2402
 2390SOL     vw 9560   1.532   3.321   1.794 -0.7017 -0.3469  0.4672
 2391SOL     ow 9561   1.331   5.184   0.418 -0.1283 -0.4415  0.1905
 2391SOL     hw 9562   1.243   5.189   0.455 -0.8885  3.3588 -1.5553
 2391SOL     hw 9563   1.373   5.266   0.445  1.4955 -0.4671 -1.9687
 2391SOL     vw 9564   1.325   5.196   0.426 -0.0144  0.0565 -0.3247
 2392SOL     ow 9565   1.430   0.390   0.983 -0.7503  0.1402  0.1946
 2392SOL     hw 9566   1.486   0.372   1.058  1.5959 -0.8822 -1.6895
 2392SOL     hw 9567   1.344   0.410   1.021  0.4848  0.2529  3.1243
 2392SOL     vw 9568   1.426   0.390   0.998 -0.2779  0.0202  0.3326
 2393SOL     ow 9569   3.980   4.468   6.183  0.3736 -0.4030  0.6031
 2393SOL     hw 9570   3.977   4.455   6.089  1.3327  0.6568  0.4113
 2393SOL     hw 9571   4.032   4.547   6.196  0.2839 -0.5339  2.0228
 2393SOL     vw 9572   3.986   4.477   6.173  0.4884 -0.2806  0.7653
 2394SOL     ow 9573   4.546   5.107   6.540  0.3444 -1.1082 -0.5970
 2394SOL     hw 9574   4.510   5.084   6.454 -2.6973  1.9059 -0.3996
 2394SOL     hw 9575   4.470   5.108   6.598  1.3332  1.7880  0.8910
 2394SOL     vw 9576   4.531   5.104   6.536  0.0737 -0.3285 -0.3746
 2395SOL     ow 9577   5.451   6.619   4.103  0.3160 -0.6450  0.0598
 2395SOL     hw 9578   5.357   6.609   4.118  0.3530  0.7653  1.5909
 2395SOL     hw 9579   5.490   6.544   4.148 -0.1423 -2.7873 -2.8948
 2395SOL     vw 9580   5.444   6.608   4.111  0.2604 -0.7417 -0.1280
 2396SOL     ow 9581   6.403   7.217   5.408  1.0653 -0.1150 -0.4013
 2396SOL     hw 9582   6.402   7.134   5.361 -2.5911  0.2770 -1.3993
 2396SOL     hw 9583   6.310   7.243   5.412  1.7595  2.5376  2.3762
 2396SOL     vw 9584   6.390   7.210   5.402  0.6745  0.2868 -0.1662
 2397SOL     ow 9585   1.150   0.860   6.599 -0.0832 -0.4637  0.1852
 2397SOL     hw 9586   1.070   0.913   6.604  0.3003  0.0801  0.8991
 2397SOL     hw 9587   1.135   0.787   6.659  0.9988  1.1543  2.5966
 2397SOL     vw 9588   1.138   0.858   6.608  0.1101 -0.1785  0.5975
 2398SOL     ow 9589   4.163   4.026   2.618  0.0984  0.1007  0.3914
 2398SOL     hw 9590   4.137   3.995   2.705  0.3413  1.9812  1.1901
 2398SOL     hw 9591   4.193   3.948   2.572 -0.9147 -1.0853  1.6627
 2398SOL     vw 9592   4.163   4.012   2.623 -0.0031  0.1924  0.6646
 2399SOL     ow 9593   1.669   4.050   0.126  0.3923  0.6104  0.1953
 2399SOL     hw 9594   1.714   4.134   0.112 -0.2966  1.4412  2.4036
 2399SOL     hw 9595   1.733   3.996   0.172  0.6561  0.1012 -0.7553
 2399SOL     vw 9596   1.683   4.054   0.130  0.3362  0.6530  0.3612
 2400SOL     ow 9597   3.078   5.901   7.093 -0.0515 -0.4167 -0.2828
 2400SOL     hw 9598   3.011   5.894   7.025  0.1181 -1.6147 -0.3512
 2400SOL     hw 9599   3.150   5.846   7.061 -0.5233 -2.1535  1.4860
 2400SOL     vw 9600   3.079   5.893   7.080 -0.0914 -0.8042 -0.0584
 2401SOL     ow 9601   3.154   6.011   0.508 -0.5122  0.1096 -0.3933
 2401SOL     hw 9602   3.148   6.019   0.603  0.3903  0.5973 -0.3684
 2401SOL     hw 9603   3.213   6.082   0.481 -1.6394  0.7062 -1.4451
 2401SOL     vw 9604   3.161   6.022   0.517 -0.5418  0.2525 -0.5288
 2402SOL     ow 9605   3.133   4.688   1.769  0.0510 -0.3295  0.4146
 2402SOL     hw 9606   3.083   4.748   1.824 -1.5594 -0.6902 -0.5870
 2402SOL     hw 9607   3.155   4.615   1.827 -1.1314 -0.4478  0.7356
 2402SOL     vw 9608   3.130   4.686   1.784 -0.3173 -0.3927  0.3247
 2403SOL     ow 9609   3.774   7.158   6.146  0.7201 -0.0042  0.0887
 2403SOL     hw 9610   3.713   7.153   6.220 -0.8452  2.7041 -0.8865
 2403SOL     hw 9611   3.843   7.217   6.175  0.8910 -0.1051 -0.1061
 2403SOL     vw 9612   3.775   7.165   6.159  0.5363  0.3397 -0.0656
 2404SOL     ow 9613   0.605   5.426   0.344 -0.4842  0.4474 -0.4765
 2404SOL     hw 9614   0.586   5.469   0.261  1.1265  0.1235 -1.0447
 2404SOL     hw 9615   0.527   5.372   0.361 -1.1208  1.0447 -1.4085
 2404SOL     vw 9616   0.592   5.424   0.336 -0.3557  0.4835 -0.6744
 2405SOL     ow 9617   5.077   2.480   5.622 -0.1665 -0.5963  0.0889
 2405SOL     hw 9618   5.080   2.445   5.711  1.3893 -0.0694  0.2738
 2405SOL     hw 9619   5.169   2.484   5.594 -0.6605 -1.5811 -1.8885
 2405SOL     vw 9620   5.090   2.476   5.630 -0.0265 -0.6566 -0.1476
 2406SOL     ow 9621   4.377   2.504   2.872  0.1124  0.0839  0.2842
 2406SOL     hw 9622   4.338   2.588   2.851 -0.2748  0.2745  1.7077
 2406SOL     hw 9623   4.448   2.494   2.808 -0.3978  1.0695 -0.4539
 2406SOL     vw 9624   4.382   2.514   2.861 -0.0062  0.2391  0.3746
 2407SOL     ow 9625   5.733   6.737   6.716 -0.3637  0.6537  0.0271
 2407SOL     hw 9626   5.791   6.802   6.676 -0.9263  1.1863  0.0659
 2407SOL     hw 9627   5.652   6.785   6.735 -0.4913  0.1417  0.8206
 2407SOL     vw 9628   5.730   6.752   6.713 -0.4551  0.6566  0.1369
 2408SOL     ow 9629   0.003   5.691   6.083  0.5503  0.0223 -0.1138
 2408SOL     hw 9630  -0.036   5.675   5.997  0.1452 -1.9196  0.3641
 2408SOL     hw 9631   0.095   5.666   6.073  0.6899  0.5693 -0.1894
 2408SOL     vw 9632   0.010   5.685   6.070  0.5153 -0.1619 -0.0608
 2409SOL     ow 9633   4.279   0.150   4.203 -0.1196 -1.3608  0.2956
 2409SOL     hw 9634   4.257   0.178   4.292 -0.5849 -0.3713 -0.1149
 2409SOL     hw 9635   4.338   0.076   4.215  0.5291 -0.6896  1.4249
 2409SOL     vw 9636   4.284   0.144   4.216 -0.0951 -1.1417  0.3901
 2410SOL     ow 9637   4.851   5.711   2.625  0.2986 -0.3694 -0.3154
 2410SOL     hw 9638   4.777   5.650   2.619  2.0339 -2.7152  0.3409
 2410SOL     hw 9639   4.895   5.687   2.707  1.5246  1.2730 -0.4437
 2410SOL     vw 9640   4.847   5.699   2.635  0.6893 -0.4623 -0.2457
 2411SOL     ow 9641   2.325   0.716   6.913  0.0437  0.7649 -0.5883
 2411SOL     hw 9642   2.284   0.649   6.858  3.4869 -0.0539 -2.4228
 2411SOL     hw 9643   2.291   0.698   7.001 -1.7820 -1.1479 -1.5783
 2411SOL     vw 9644   2.315   0.705   6.917  0.2570  0.4045 -0.9611
 2412SOL     ow 9645   6.949   1.625   7.047 -0.3389 -0.0664  0.3025
 2412SOL     hw 9646   6.857   1.637   7.072  0.3953  0.5073  3.1419
 2412SOL     hw 9647   6.951   1.641   6.953 -2.7803  2.2705  0.5161
 2412SOL     vw 9648   6.937   1.629   7.038 -0.5643  0.3176  0.7052
 2413SOL     ow 9649   2.165   1.849   6.268  0.0756  0.5284 -0.1399
 2413SOL     hw 9650   2.180   1.820   6.358  0.3743  1.6245  0.1768
 2413SOL     hw 9651   2.198   1.777   6.214  1.2017  0.4577  0.6111
 2413SOL     vw 9652   2.171   1.836   6.273  0.2637  0.6636  0.0010
 2414SOL     ow 9653   1.072   5.188   0.494 -0.1337 -0.1631 -0.1158
 2414SOL     hw 9654   1.030   5.256   0.441  0.8640  0.4806 -0.1129
 2414SOL     hw 9655   1.039   5.202   0.582  0.6601  0.8581  0.0455
 2414SOL     vw 9656   1.062   5.199   0.498  0.1028  0.0570 -0.0941
 2415SOL     ow 9657   4.001   4.101   3.396  0.0785 -0.2644  0.1492
 2415SOL     hw 9658   3.925   4.160   3.398  1.7165  2.2533 -2.9168
 2415SOL     hw 9659   3.965   4.018   3.364 -1.8666 -0.2038  1.9805
 2415SOL     vw 9660   3.986   4.098   3.392  0.0379  0.0758 -0.0137
 2416SOL     ow 9661   5.278   4.541   7.244  0.9970 -0.0045  0.1530
 2416SOL     hw 9662   5.256   4.460   7.200 -0.0005  0.1125  0.4219
 2416SOL     hw 9663   5.358   4.521   7.293  2.1340 -0.1394 -1.6494
 2416SOL     vw 9664   5.286   4.528   7.245  1.0157 -0.0069 -0.0491
 2417SOL     ow 9665   1.749   0.275   4.066 -0.7594  0.0608  0.0804
 2417SOL     hw 9666   1.824   0.217   4.083  0.8273  2.1977  0.8916
 2417SOL     hw 9667   1.706   0.285   4.150 -1.5706 -0.6056 -0.2421
 2417SOL     vw 9668   1.754   0.269   4.079 -0.6571  0.2548  0.1447
 2418SOL     ow 9669   2.149   3.882   2.316 -0.2500 -0.2972  0.2230
 2418SOL     hw 9670   2.069   3.830   2.306  0.1520 -0.9829  0.4497
 2418SOL     hw 9671   2.163   3.886   2.411  1.0125 -1.8564  0.1656
 2418SOL     vw 9672   2.141   3.875   2.327 -0.0304 -0.5934  0.2452
 2419SOL     ow 9673   2.429   6.713   1.179  0.6506 -0.0928  0.0499
 2419SOL     hw 9674   2.431   6.664   1.261  0.8856 -0.4081 -0.1395
 2419SOL     hw 9675   2.469   6.797   1.200  2.8068 -0.9607 -0.2381
 2419SOL     vw 9676   2.435   6.718   1.192  0.9660 -0.2484 -0.0131
 2420SOL     ow 9677   5.744   0.535   0.226 -0.3823 -0.0334 -0.1319
 2420SOL     hw 9678   5.788   0.534   0.141 -3.3884 -1.5877 -1.8273
 2420SOL     hw 9679   5.703   0.449   0.233 -4.4873  1.6960  0.3563
 2420SOL     vw 9680   5.744   0.524   0.215 -1.3208 -0.0103 -0.2912
 2421SOL     ow 9681   4.597   3.781   2.293 -0.1404  0.3874  0.5705
 2421SOL     hw 9682   4.595   3.737   2.378 -0.1485 -0.4386  0.1504
 2421SOL     hw 9683   4.531   3.736   2.241 -1.7511  2.3492  0.8137
 2421SOL     vw 9684   4.588   3.769   2.297 -0.3541  0.5373  0.5473
 2422SOL     ow 9685   2.613   5.543   0.779  0.1956 -0.3361  0.5246
 2422SOL     hw 9686   2.586   5.564   0.689  2.8814 -0.3937 -0.3882
 2422SOL     hw 9687   2.654   5.456   0.772 -2.4196 -1.8592  2.4845
 2422SOL     vw 9688   2.615   5.534   0.766  0.2049 -0.5445  0.6627
 2423SOL     ow 9689   5.426   2.980   1.768  0.2073 -0.6723 -0.2972
 2423SOL     hw 9690   5.476   2.900   1.753  0.2857 -0.6685 -0.0662
 2423SOL     hw 9691   5.468   3.020   1.844  0.2339 -0.3594 -0.4746
 2423SOL     vw 9692   5.438   2.975   1.776  0.2213 -0.6305 -0.2902
 2424SOL     ow 9693   3.353   1.828   3.269  0.0621  0.4952 -0.5769
 2424SOL     hw 9694   3.334   1.920   3.253 -1.2858  0.0730 -1.6262
 2424SOL     hw 9695   3.274   1.782   3.242  0.9291 -1.0213 -0.6615
 2424SOL     vw 9696   3.340   1.834   3.263 -0.0013  0.2394 -0.7266
 2425SOL     ow 9697   2.102   6.361   2.315  0.3784  0.0672  0.0944
 2425SOL     hw 9698   2.100   6.419   2.391  0.2462  2.9051 -1.9071
 2425SOL     hw 9699   2.195   6.354   2.292  0.3066  0.5587 -0.3814
 2425SOL     vw 9700   2.114   6.368   2.322  0.3517  0.5066 -0.2325
 2426SOL     ow 9701   3.521   2.946   1.329 -0.0795 -0.3161 -0.0090
 2426SOL     hw 9702   3.457   2.904   1.272 -1.2000 -0.6425  1.4323
 2426SOL     hw 9703   3.604   2.903   1.308 -0.7822 -1.6326 -0.1900
 2426SOL     vw 9704   3.524   2.935   1.319 -0.3200 -0.5329  0.1573
 2427SOL     ow 9705   4.176   6.244   6.892  0.0555 -0.2643 -0.5575
 2427SOL     hw 9706   4.146   6.334   6.879  0.3040 -0.2843 -1.3180
 2427SOL     hw 9707   4.268   6.245   6.864  0.4991 -0.4240  0.8034
 2427SOL     vw 9708   4.184   6.256   6.886  0.1466 -0.2880 -0.4783
 2428SOL     ow 9709   7.082   5.216   2.728 -0.0400 -0.3573  0.4096
 2428SOL     hw 9710   7.159   5.180   2.771 -1.0346 -1.0833  1.6345
 2428SOL     hw 9711   7.015   5.217   2.795 -1.3967 -0.6754 -0.8859
 2428SOL     vw 9712   7.083   5.211   2.742 -0.3505 -0.4952  0.4001
 2429SOL     ow 9713   6.161   6.466   2.871  0.1464 -0.2099  0.1298
 2429SOL     hw 9714   6.069   6.491   2.869 -0.5341 -2.5287 -0.4808
 2429SOL     hw 9715   6.176   6.442   2.963 -0.4600 -1.7367 -0.1426
 2429SOL     vw 9716   6.151   6.466   2.883 -0.0236 -0.7174  0.0132
 2430SOL     ow 9717   1.162   3.012   3.644  0.1618  0.0145  0.1144
 2430SOL     hw 9718   1.075   3.027   3.608 -0.8504 -2.6382  1.2767
 2430SOL     hw 9719   1.147   2.982   3.734  1.9355 -4.0993 -0.7283
 2430SOL     vw 9720   1.149   3.010   3.651  0.2623 -0.8782  0.1565
 2431SOL     ow 9721   2.877   5.139   2.882 -0.5914  0.1470 -0.4123
 2431SOL     hw 9722   2.847   5.062   2.932 -2.3059  0.0150 -1.5260
 2431SOL     hw 9723   2.862   5.213   2.940 -3.7441  0.1392 -1.0349
 2431SOL     vw 9724   2.871   5.138   2.896 -1.2335  0.1283 -0.6413
 2432SOL     ow 9725   7.160   5.344   6.109 -0.3928 -0.2517 -0.8362
 2432SOL     hw 9726   7.245   5.335   6.066 -0.3095 -0.6098 -0.6054
 2432SOL     hw 9727   7.162   5.279   6.180 -0.7377 -0.0483 -0.6350
 2432SOL     vw 9728   7.171   5.334   6.113 -0.4272 -0.2720 -0.7792
 2433SOL     ow 9729   7.069   5.359   6.475 -0.1420  0.2504  0.8613
 2433SOL     hw 9730   7.126   5.409   6.534  0.9642  0.9790 -0.7560
 2433SOL     hw 9731   7.047   5.420   6.405 -2.1621 -0.3250  0.9495
 2433SOL     vw 9732   7.074   5.374   6.474 -0.2625  0.2704  0.6597
 2434SOL     ow 9733   6.540   0.198   5.544  0.1902  0.3161 -0.2906
 2434SOL     hw 9734   6.624   0.225   5.582  1.1003  1.1700 -2.7420
 2434SOL     hw 9735   6.475   0.257   5.584  0.8821  0.3061  0.8851
 2434SOL     vw 9736   6.542   0.209   5.554  0.4015  0.4274 -0.4587
 2435SOL     ow 9737   0.950   2.170   3.432  0.5936  0.0651  0.4080
 2435SOL     hw 9738   1.043   2.192   3.436  0.4577  0.6466  0.4779
 2435SOL     hw 9739   0.937   2.134   3.345  0.6945  0.8831  0.0494
 2435SOL     vw 9740   0.960   2.168   3.421  0.5890  0.2499  0.3699
 2436SOL     ow 9741   5.317   1.032   0.896  0.2666 -0.0368  0.0441
 2436SOL     hw 9742   5.387   1.096   0.881  0.9558 -0.6546  0.5656
 2436SOL     hw 9743   5.282   1.055   0.982 -0.1769  0.2719 -0.2168
 2436SOL     vw 9744   5.322   1.043   0.905  0.2987 -0.0775  0.0785
 2437SOL     ow 9745   4.426   3.443   3.425  0.4265  0.3226 -0.3521
 2437SOL     hw 9746   4.378   3.496   3.489  1.0706 -0.0052  0.4124
 2437SOL     hw 9747   4.420   3.493   3.344 -2.5795 -0.4535 -0.7213
 2437SOL     vw 9748   4.419   3.457   3.423  0.1149  0.1768 -0.2999
 2438SOL     ow 9749   0.363   3.539   6.504  0.0631 -0.4890 -0.3155
 2438SOL     hw 9750   0.310   3.546   6.425  0.3868  1.1745 -0.4173
 2438SOL     hw 9751   0.446   3.580   6.481  0.5968 -1.0781  0.5215
 2438SOL     vw 9752   0.367   3.545   6.491  0.1762 -0.3471 -0.2182
 2439SOL     ow 9753   3.130   4.538   3.032  0.3948  0.3357 -0.4681
 2439SOL     hw 9754   3.059   4.545   2.968 -0.2418  1.1038  0.2930
 2439SOL     hw 9755   3.136   4.444   3.050 -0.2725  0.2339 -0.7144
 2439SOL     vw 9756   3.121   4.526   3.026  0.2229  0.4234 -0.4001
 2440SOL     ow 9757   1.268   7.223   3.468 -0.5937 -0.6234 -0.3703
 2440SOL     hw 9758   1.252   7.298   3.525 -1.1729 -1.0331  0.0246
 2440SOL     hw 9759   1.187   7.172   3.473  0.5455 -2.4033  1.0633
 2440SOL     vw 9760   1.255   7.226   3.476 -0.5198 -0.9122 -0.1291
 2441SOL     ow 9761   4.499   2.943   3.235 -0.0515  0.9131  0.1539
 2441SOL     hw 9762   4.522   2.973   3.147  1.9710 -1.4094 -0.2040
 2441SOL     hw 9763   4.482   2.849   3.224 -3.4521  1.1892  1.6629
 2441SOL     vw 9764   4.500   2.934   3.222 -0.2332  0.6433  0.3057
 2442SOL     ow 9765   3.490   3.750   0.177 -0.3092  0.8772  0.3283
 2442SOL     hw 9766   3.452   3.828   0.136 -0.9815 -0.1378 -1.0254
 2442SOL     hw 9767   3.466   3.678   0.120  2.6967 -0.0075 -0.0020
 2442SOL     vw 9768   3.482   3.751   0.164 -0.0014  0.6266  0.1062
 2443SOL     ow 9769   6.859   1.610   5.667 -0.2157 -0.1862  0.5295
 2443SOL     hw 9770   6.936   1.660   5.638 -1.4705  2.6464  1.7019
 2443SOL     hw 9771   6.894   1.549   5.732  1.5403 -1.7777 -1.7410
 2443SOL     vw 9772   6.874   1.609   5.672 -0.1493 -0.0225  0.3848
 2444SOL     ow 9773   0.468   4.291   3.881  0.8069  0.3824  0.1773
 2444SOL     hw 9774   0.513   4.260   3.803  0.5685  0.2488  0.0918
 2444SOL     hw 9775   0.534   4.341   3.929  1.0813  0.0887  0.1124
 2444SOL     vw 9776   0.483   4.293   3.877  0.8116  0.3259  0.1574
 2445SOL     ow 9777   4.513   2.812   6.559  0.1595  0.1807  0.6107
 2445SOL     hw 9778   4.574   2.790   6.629  0.6129  1.1035  0.5272
 2445SOL     hw 9779   4.513   2.908   6.556  0.4188  0.1711 -0.8747
 2445SOL     vw 9780   4.521   2.822   6.568  0.2537  0.3010  0.4034
 2446SOL     ow 9781   2.129   1.821   5.011 -0.2875 -0.3754 -0.3492
 2446SOL     hw 9782   2.117   1.856   5.100 -2.2140 -0.9243 -0.3385
 2446SOL     hw 9783   2.216   1.850   4.985 -0.1421  0.7955  1.2828
 2446SOL     vw 9784   2.139   1.830   5.019 -0.5225 -0.2933 -0.1323
 2447SOL     ow 9785   4.022   6.632   1.828  0.6593  0.0709  0.0392
 2447SOL     hw 9786   4.017   6.713   1.776  1.1995  0.6259  0.8321
 2447SOL     hw 9787   4.070   6.657   1.906 -0.6660 -0.6087  1.1116
 2447SOL     vw 9788   4.028   6.646   1.831  0.5558  0.0546  0.2853
 2448SOL     ow 9789   5.814   1.101   2.266  0.5487  0.6048 -0.0999
 2448SOL     hw 9790   5.883   1.155   2.304 -0.3032  1.1715  0.6914
 2448SOL     hw 9791   5.778   1.052   2.340  0.9636 -0.6878 -0.7204
 2448SOL     vw 9792   5.819   1.102   2.281  0.4909  0.5090 -0.0774
 2449SOL     ow 9793   2.841   5.577   4.190 -0.0190 -0.0633 -0.0701
 2449SOL     hw 9794   2.840   5.512   4.119 -0.5071  0.4445 -0.5336
 2449SOL     hw 9795   2.749   5.593   4.209  0.0990 -0.5100  0.9924
 2449SOL     vw 9796   2.829   5.570   4.183 -0.0681 -0.0551  0.0088
 2450SOL     ow 9797   1.326   4.435   5.138  0.3736 -0.0956  0.1953
 2450SOL     hw 9798   1.281   4.383   5.204 -0.3843 -1.4312 -1.3012
 2450SOL     hw 9799   1.305   4.526   5.159 -0.3272 -0.5313  1.4253
 2450SOL     vw 9800   1.318   4.440   5.149  0.1811 -0.3293  0.1602
 2451SOL     ow 9801   4.835   5.547   3.942 -0.3793 -0.5430 -0.1675
 2451SOL     hw 9802   4.856   5.459   3.975 -2.6451 -1.6861 -1.4703
 2451SOL     hw 9803   4.768   5.579   4.001 -1.8909 -1.1135 -1.4912
 2451SOL     vw 9804   4.829   5.539   3.954 -0.8776 -0.7691 -0.5139
 2452SOL     ow 9805   4.638   0.499   5.670 -0.1345 -0.8975  0.4977
 2452SOL     hw 9806   4.638   0.501   5.574 -0.2537  0.0670  0.5121
 2452SOL     hw 9807   4.636   0.406   5.691 -0.2103 -1.1234 -0.4383
 2452SOL     vw 9808   4.638   0.487   5.660 -0.1602 -0.8001  0.3762
 2453SOL     ow 9809   7.111   2.486   6.316 -0.3222 -0.1351  0.4771
 2453SOL     hw 9810   7.158   2.510   6.236 -1.6209  0.2945 -0.2007
 2453SOL     hw 9811   7.075   2.399   6.296 -0.1511 -0.2881  0.8313
 2453SOL     vw 9812   7.112   2.478   6.303 -0.4711 -0.0987  0.4344
 2454SOL     ow 9813   2.553   3.193   4.360 -0.1900 -0.3385 -0.3903
 2454SOL     hw 9814   2.580   3.171   4.271  0.5147 -0.4557 -0.1499
 2454SOL     hw 9815   2.502   3.274   4.350 -0.4088 -0.5402 -0.9392
 2454SOL     vw 9816   2.550   3.201   4.347 -0.1259 -0.3806 -0.4308
 2455SOL     ow 9817   1.710   1.544   2.050  0.1277  0.1982  0.2672
 2455SOL     hw 9818   1.675   1.552   1.961 -1.4416 -0.7426  0.7533
 2455SOL     hw 9819   1.804   1.531   2.038  0.1130  1.1744 -1.1964
 2455SOL     vw 9820   1.718   1.544   2.037 -0.0813  0.2029  0.1382
 2456SOL     ow 9821   0.493   2.376   7.180  0.1067  0.1902  0.4542
 2456SOL     hw 9822   0.448   2.459   7.193  0.4484  0.4899 -0.2516
 2456SOL     hw 9823   0.473   2.351   7.090  1.5931  0.4899  0.0164
 2456SOL     vw 9824   0.485   2.384   7.170  0.3479  0.2694  0.3035
 2457SOL     ow 9825   2.831   0.867   4.352  0.4794  0.6231 -0.8474
 2457SOL     hw 9826   2.872   0.790   4.313 -1.4855 -1.4191  0.8181
 2457SOL     hw 9827   2.785   0.908   4.279  0.8615 -0.2951 -1.6352
 2457SOL     vw 9828   2.830   0.862   4.337  0.2706  0.2325 -0.7315
 2458SOL     ow 9829   1.093   3.964   1.625  0.3036 -0.0521 -0.3851
 2458SOL     hw 9830   1.063   3.927   1.708  0.2774  2.1430  0.6415
 2458SOL     hw 9831   1.153   4.033   1.650  1.5865 -0.4107 -2.2786
 2458SOL     vw 9832   1.097   3.968   1.639  0.4695  0.1903 -0.4995
 2459SOL     ow 9833   5.061   1.757   7.145  0.4700 -0.5963  0.6819
 2459SOL     hw 9834   5.119   1.681   7.137 -0.1875 -0.9602 -1.1941
 2459SOL     hw 9835   4.991   1.740   7.082 -1.1133  0.3455  2.1094
 2459SOL     vw 9836   5.060   1.744   7.136  0.1743 -0.5201  0.6225
 2460SOL     ow 9837   0.252   0.685   7.227 -0.5862 -0.7868  0.1284
 2460SOL     hw 9838   0.184   0.752   7.217  0.2427 -0.1937 -2.1047
 2460SOL     hw 9839   0.316   0.725   7.286  0.0325  0.5663 -1.3896
 2460SOL     vw 9840   0.251   0.699   7.234 -0.3952 -0.5300 -0.3664
 2461SOL     ow 9841   2.684   0.793   6.299 -0.0253  0.2415  0.2887
 2461SOL     hw 9842   2.742   0.846   6.353  0.3165  0.5647 -0.3880
 2461SOL     hw 9843   2.623   0.753   6.361 -0.9904  2.2830  0.7077
 2461SOL     vw 9844   2.684   0.794   6.314 -0.1076  0.5535  0.2546
 2462SOL     ow 9845   7.063   2.774   5.346  0.3684 -1.1867  0.2086
 2462SOL     hw 9846   6.997   2.804   5.284  0.5732  1.2083  1.0339
 2462SOL     hw 9847   7.016   2.768   5.429  0.7065 -1.7038  0.3660
 2462SOL     vw 9848   7.048   2.777   5.349  0.4401 -0.9389  0.3383
 2463SOL     ow 9849   4.580   5.382   3.889 -0.1392 -0.7718  0.1164
 2463SOL     hw 9850   4.657   5.366   3.943 -0.1008  1.5187  0.8420
 2463SOL     hw 9851   4.523   5.437   3.943  0.0484  1.9219 -2.1830
 2463SOL     vw 9852   4.582   5.387   3.903 -0.1094 -0.1144 -0.0913
 2464SOL     ow 9853   2.978   0.779   5.476 -0.2816 -0.4604 -0.1641
 2464SOL     hw 9854   2.927   0.717   5.529  0.7833 -2.4841 -1.3879
 2464SOL     hw 9855   3.067   0.744   5.478 -0.1577 -0.5619 -3.0829
 2464SOL     vw 9856   2.983   0.766   5.484 -0.1247 -0.7408 -0.7107
 2465SOL     ow 9857   5.498   4.768   1.135  0.5045  0.4082  0.3184
 2465SOL     hw 9858   5.421   4.717   1.110 -0.1943  1.4872  0.2198
 2465SOL     hw 9859   5.560   4.753   1.063  0.2225 -0.0958  0.1721
 2465SOL     vw 9860   5.496   4.759   1.122  0.3753  0.4842  0.2860
 2466SOL     ow 9861   1.063   4.249   3.227 -0.4131 -0.2205  0.0332
 2466SOL     hw 9862   1.154   4.273   3.244 -0.4866  1.6287 -1.8286
 2466SOL     hw 9863   1.067   4.193   3.149 -0.8237 -0.7083  0.3564
 2466SOL     vw 9864   1.075   4.245   3.219 -0.4770 -0.0410 -0.1698
 2467SOL     ow 9865   7.205   6.895   4.109 -0.3695 -0.2278 -0.3463
 2467SOL     hw 9866   7.247   6.817   4.072 -1.2761 -0.4655 -0.9137
 2467SOL     hw 9867   7.204   6.958   4.037  0.4028  0.3418  0.1249
 2467SOL     vw 9868   7.211   6.893   4.094 -0.3874 -0.1841 -0.3591
 2468SOL     ow 9869   4.294   2.849   6.408  0.5908 -0.1339  0.1463
 2468SOL     hw 9870   4.314   2.834   6.316  1.8411 -0.3605  0.4435
 2468SOL     hw 9871   4.374   2.825   6.455  0.1893  0.5790  1.2408
 2468SOL     vw 9872   4.307   2.844   6.402  0.7029 -0.0697  0.3300
 2469SOL     ow 9873   2.733   4.819   2.328 -0.5378 -0.0381  0.4268
 2469SOL     hw 9874   2.828   4.823   2.324 -0.5127 -1.1225 -1.3805
 2469SOL     hw 9875   2.706   4.902   2.367  1.1251  0.5646  0.3441
 2469SOL     vw 9876   2.742   4.830   2.332 -0.3151 -0.1016  0.1775
 2470SOL     ow 9877   5.753   0.867   0.223  1.0123  0.4109  0.1298
 2470SOL     hw 9878   5.834   0.898   0.264  1.2666  0.8467 -0.6729
 2470SOL     hw 9879   5.745   0.920   0.144  1.6742 -1.7775 -1.5197
 2470SOL     vw 9880   5.763   0.878   0.218  1.1334  0.1797 -0.1937
 2471SOL     ow 9881   6.750   3.853   0.140 -0.0502  0.4322  0.2743
 2471SOL     hw 9882   6.771   3.761   0.161 -0.1636  0.6646  1.5068
 2471SOL     hw 9883   6.673   3.847   0.085 -0.9109 -0.2006  1.4803
 2471SOL     vw 9884   6.743   3.840   0.136 -0.1788  0.3792  0.5961
 2472SOL     ow 9885   2.604   1.371   5.857 -0.5611 -0.0266  0.1009
 2472SOL     hw 9886   2.579   1.374   5.765 -2.1140 -0.6858  0.4726
 2472SOL     hw 9887   2.534   1.417   5.903 -0.3433 -0.6032  1.0464
 2472SOL     vw 9888   2.592   1.377   5.851 -0.7374 -0.1897  0.2744
 2473SOL     ow 9889   4.230   3.109   6.285 -0.7243  0.3332 -0.3082
 2473SOL     hw 9890   4.268   3.197   6.287  0.4761 -0.1483 -0.6728
 2473SOL     hw 9891   4.236   3.084   6.193 -1.5526  0.0639 -0.2941
 2473SOL     vw 9892   4.236   3.118   6.273 -0.6752  0.2342 -0.3543
 2474SOL     ow 9893   0.222   2.677   4.106  0.1782 -0.4381 -0.0149
 2474SOL     hw 9894   0.252   2.640   4.189  1.2486 -1.8668 -0.9982
 2474SOL     hw 9895   0.244   2.611   4.040 -1.1401  0.4219 -1.3852
 2474SOL     vw 9896   0.229   2.664   4.108  0.1455 -0.5132 -0.3254
 2475SOL     ow 9897   5.712   2.658   3.790  0.3807  0.7481 -0.3331
 2475SOL     hw 9898   5.719   2.637   3.697 -1.2247  0.0860 -0.3237
 2475SOL     hw 9899   5.749   2.747   3.797  2.2689  0.1003 -1.2527
 2475SOL     vw 9900   5.718   2.667   3.779  0.4182  0.5752 -0.4532
 2476SOL     ow 9901   5.936   1.325   3.225 -0.4435  0.4388  0.1360
 2476SOL     hw 9902   5.960   1.418   3.229 -1.0192  0.5973  0.0005
 2476SOL     hw 9903   5.876   1.313   3.299 -0.2120  0.1228  0.2761
 2476SOL     vw 9904   5.932   1.336   3.235 -0.4888  0.4181  0.1365
 2477SOL     ow 9905   3.539   3.229   1.336 -0.4360 -0.2182 -0.2185
 2477SOL     hw 9906   3.502   3.314   1.359 -0.8618 -0.0246 -1.5432
 2477SOL     hw 9907   3.633   3.244   1.329 -0.4615  0.0437 -0.0094
 2477SOL     vw 9908   3.546   3.242   1.338 -0.4954 -0.1580 -0.3657
 2478SOL     ow 9909   4.739   0.388   3.462  0.3218  0.2575  0.2465
 2478SOL     hw 9910   4.683   0.354   3.392  1.3846 -0.7061 -0.1667
 2478SOL     hw 9911   4.708   0.478   3.475 -2.0932 -0.5780  0.8586
 2478SOL     vw 9912   4.727   0.396   3.454  0.1433  0.0201  0.2729
 2479SOL     ow 9913   0.947   5.475   0.788  0.2563 -0.2485 -0.1415
 2479SOL     hw 9914   0.943   5.492   0.882 -0.1076 -0.4720 -0.1142
 2479SOL     hw 9915   1.035   5.502   0.762  0.6317 -0.9087  0.4109
 2479SOL     vw 9916   0.958   5.481   0.797  0.2578 -0.3650 -0.0651
 2480SOL     ow 9917   3.144   4.001   6.283 -0.1314  0.0591 -0.3615
 2480SOL     hw 9918   3.221   3.977   6.335  0.4206 -0.4702 -1.4034
 2480SOL     hw 9919   3.070   3.980   6.341  0.4473 -1.1287 -0.0041
 2480SOL     vw 9920   3.144   3.995   6.298  0.0178 -0.1676 -0.4520
 2481SOL     ow 9921   6.158   3.652   2.366 -0.7592 -0.3704 -0.0686
 2481SOL     hw 9922   6.230   3.672   2.427 -0.8660 -1.0239  0.2836
 2481SOL     hw 9923   6.163   3.557   2.355 -1.7123 -0.4514  0.1354
 2481SOL     vw 9924   6.168   3.642   2.373 -0.8991 -0.4674  0.0048
 2482SOL     ow 9925   0.772   5.839   4.316 -0.0324  0.0425  0.2139
 2482SOL     hw 9926   0.837   5.769   4.315  0.1011  0.1679  0.0592
 2482SOL     hw 9927   0.793   5.892   4.239 -1.5537 -1.0552 -1.0258
 2482SOL     vw 9928   0.783   5.837   4.305 -0.2155 -0.0858  0.0298
 2483SOL     ow 9929   4.306   2.760   2.832 -0.5129  0.4565  0.3141
 2483SOL     hw 9930   4.310   2.842   2.882 -0.7364 -0.0845  1.2471
 2483SOL     hw 9931   4.253   2.782   2.755 -1.0621  1.0504  0.8397
 2483SOL     vw 9932   4.299   2.774   2.829 -0.6149  0.4634  0.5065
 2484SOL     ow 9933   3.465   4.923   2.809  0.7325  0.2033  0.2057
 2484SOL     hw 9934   3.555   4.954   2.821  0.7873 -0.7865  3.1814
 2484SOL     hw 9935   3.428   4.983   2.744  2.5545  2.7625  1.3356
 2484SOL     vw 9936   3.472   4.935   2.802  0.9801  0.4103  0.7473
 2485SOL     ow 9937   1.850   1.884   6.153  0.1765  0.4253 -0.4525
 2485SOL     hw 9938   1.779   1.872   6.216  0.1865  1.6132 -0.1993
 2485SOL     hw 9939   1.808   1.874   6.068 -0.2493  0.8626 -0.2985
 2485SOL     vw 9940   1.835   1.881   6.150  0.1217  0.6398 -0.3986
 2486SOL     ow 9941   2.422   4.502   4.363 -0.1557  0.3061 -0.6587
 2486SOL     hw 9942   2.338   4.471   4.397  0.3001  0.8721  1.0836
 2486SOL     hw 9943   2.406   4.515   4.269 -1.8954  0.0523 -0.4396
 2486SOL     vw 9944   2.409   4.500   4.355 -0.3250  0.3474 -0.3998
 2487SOL     ow 9945   2.318   3.129   3.938  0.3472  0.4896 -0.0406
 2487SOL     hw 9946   2.244   3.174   3.896 -0.7748 -2.6084 -1.6736
 2487SOL     hw 9947   2.395   3.174   3.902 -0.6729  0.1793 -2.9183
 2487SOL     vw 9948   2.319   3.141   3.927  0.0646  0.0398 -0.6357
 2488SOL     ow 9949   6.487   2.594   6.613  0.3567  0.5040 -0.2161
 2488SOL     hw 9950   6.435   2.652   6.668 -2.0767  0.5982 -2.4098
 2488SOL     hw 9951   6.551   2.556   6.673 -0.6701  2.2325  2.1668
 2488SOL     vw 9952   6.488   2.597   6.628 -0.0999  0.7443 -0.1912
 2489SOL     ow 9953   3.838   0.785   2.965 -0.2261 -0.1035  0.1642
 2489SOL     hw 9954   3.869   0.705   3.007 -0.7083 -0.1666  0.4003
 2489SOL     hw 9955   3.839   0.851   3.035  1.6264  0.5076 -0.3527
 2489SOL     vw 9956   3.842   0.783   2.980 -0.0453 -0.0312  0.1272
 2490SOL     ow 9957   6.067   1.078   2.809  0.2100  0.0264  0.3726
 2490SOL     hw 9958   6.121   1.152   2.781  0.9186 -0.8384 -0.6329
 2490SOL     hw 9959   5.985   1.090   2.761  0.0961  0.4776  0.6717
 2490SOL     vw 9960   6.063   1.090   2.799  0.2885 -0.0282  0.2793
 2491SOL     ow 9961   6.587   3.938   5.882 -0.7626 -0.0649  0.2594
 2491SOL     hw 9962   6.499   3.904   5.866 -0.4201 -0.6918 -0.3461
 2491SOL     hw 9963   6.643   3.861   5.883 -0.4274  0.1453  2.4369
 2491SOL     vw 9964   6.583   3.924   5.880 -0.6731 -0.1198  0.4668
 2492SOL     ow 9965   0.479   0.799   0.099  0.0966  0.0185 -0.1241
 2492SOL     hw 9966   0.529   0.772   0.177 -0.3581 -1.0409 -0.1902
 2492SOL     hw 9967   0.531   0.768   0.025 -0.4753 -0.7834 -0.1998
 2492SOL     vw 9968   0.493   0.792   0.100 -0.0389 -0.2270 -0.1428
 2493SOL     ow 9969   3.701   2.049   2.367 -0.4490  0.0420 -0.2657
 2493SOL     hw 9970   3.692   2.064   2.461  1.4378  1.7238 -0.2925
 2493SOL     hw 9971   3.656   2.124   2.327 -2.2904 -1.2768 -0.7935
 2493SOL     vw 9972   3.694   2.061   2.374 -0.4430  0.0899 -0.3388
 2494SOL     ow 9973   2.605   0.347   5.810  0.3935  0.2446 -0.0649
 2494SOL     hw 9974   2.685   0.338   5.758  1.2755  0.8369  1.1605
 2494SOL     hw 9975   2.535   0.321   5.750  1.3185  1.4142 -1.7185
 2494SOL     vw 9976   2.606   0.342   5.795  0.6318  0.4770 -0.1216
 2495SOL     ow 9977   5.246   0.925   0.600 -0.9176 -0.1324 -0.3013
 2495SOL     hw 9978   5.251   0.850   0.541 -0.8364 -1.1747  0.9790
 2495SOL     hw 9979   5.298   0.993   0.558  0.3539 -1.3414 -0.7303
 2495SOL     vw 9980   5.253   0.924   0.587 -0.7391 -0.4294 -0.1890
 2496SOL     ow 9981   4.209   3.285   1.715 -0.4807  0.4080 -0.1249
 2496SOL     hw 9982   4.155   3.223   1.763  1.4238 -1.1639  0.1320
 2496SOL     hw 9983   4.187   3.370   1.752  0.4447 -0.6385  3.2258
 2496SOL     vw 9984   4.199   3.288   1.726 -0.1073  0.0625  0.3511
 2497SOL     ow 9985   5.920   2.335   2.682  0.0656 -0.1919 -0.0798
 2497SOL     hw 9986   5.998   2.352   2.735  0.0010  2.6743 -0.7509
 2497SOL     hw 9987   5.942   2.257   2.632  0.7237 -2.1192  2.9155
 2497SOL     vw 9988   5.934   2.327   2.683  0.1442 -0.0681  0.2270
 2498SOL     ow 9989   1.648   3.893   6.364 -0.0949 -0.3496  0.1181
 2498SOL     hw 9990   1.564   3.855   6.336  0.6774 -2.5421  0.5634
 2498SOL     hw 9991   1.700   3.896   6.284 -0.2904  0.1856  0.0070
 2498SOL     vw 9992   1.644   3.889   6.350 -0.0188 -0.5683  0.1621
 2499SOL     ow 9993   5.104   7.226   5.404  0.2100 -0.3475 -0.1406
 2499SOL     hw 9994   5.151   7.298   5.361  0.0670 -0.4780 -0.5266
 2499SOL     hw 9995   5.077   7.262   5.488  0.8715 -0.2260  0.0266
 2499SOL     vw 9996   5.107   7.240   5.409  0.2785 -0.3486 -0.1693
 2500SOL     ow 9997   1.313   0.902   4.237 -0.2986  0.2363  0.4877
 2500SOL     hw 9998   1.369   0.829   4.211 -2.1575 -1.3519  0.7376
 2500SOL     hw 9999   1.252   0.912   4.164  0.1668  1.8437  0.2815
 2500SOL     vw10000   1.312   0.894   4.224 -0.4824  0.2388  0.4938
 2501SOL     ow10001   4.477   1.555   4.829  0.7181 -0.5063 -0.1708
 2501SOL     hw10002   4.506   1.642   4.800  1.3220 -1.1008 -1.4267
 2501SOL     hw10003   4.403   1.534   4.772  0.1277 -0.5346  0.5977
 2501SOL     vw10004   4.471   1.564   4.817  0.7200 -0.5884 -0.2351
 2502SOL     ow10005   4.712   6.324   0.143  0.1175 -0.5124  0.2014
 2502SOL     hw10006   4.629   6.283   0.118  0.4973 -0.8192 -0.6006
 2502SOL     hw10007   4.696   6.418   0.138  0.2954 -0.5539 -1.6802
 2502SOL     vw10008   4.699   6.331   0.139  0.1912 -0.5586 -0.1527
 2503SOL     ow10009   2.870   6.080   3.880  0.9803 -0.2662 -0.8172
 2503SOL     hw10010   2.790   6.112   3.921  0.4070 -2.2847 -0.2254
 2503SOL     hw10011   2.935   6.148   3.898 -0.1655  0.5954  0.2417
 2503SOL     vw10012   2.868   6.093   3.888  0.7535 -0.4187 -0.5994
 2504SOL     ow10013   6.931   4.975   5.671  0.7454  0.6795  0.2720
 2504SOL     hw10014   6.993   4.946   5.604 -1.0191 -0.4997 -0.9163
 2504SOL     hw10015   6.856   5.008   5.623 -0.0058  1.1131  1.6838
 2504SOL     vw10016   6.930   4.975   5.656  0.4134  0.5813  0.3011
 2505SOL     ow10017   5.269   4.927   2.360  0.3216  0.3753  0.6820
 2505SOL     hw10018   5.326   5.004   2.371  0.0118  0.9416 -1.1973
 2505SOL     hw10019   5.329   4.852   2.364  0.7801  0.7650  1.5072
 2505SOL     vw10020   5.285   4.928   2.362  0.3414  0.5014  0.5428
 2506SOL     ow10021   2.515   0.507   3.180 -0.8816 -0.5976  0.1694
 2506SOL     hw10022   2.599   0.553   3.187 -0.6519 -0.7824 -1.1974
 2506SOL     hw10023   2.530   0.440   3.113 -1.3302 -2.4160  1.7849
 2506SOL     vw10024   2.528   0.504   3.172 -0.9105 -0.8619  0.2023
 2507SOL     ow10025   1.690   5.090   3.230  0.3388  0.1008  0.2716
 2507SOL     hw10026   1.741   5.109   3.309 -0.5341  0.7719  0.6986
 2507SOL     hw10027   1.650   5.174   3.206 -1.2114 -0.5444  0.4409
 2507SOL     vw10028   1.691   5.104   3.237  0.0191  0.1042  0.3502
 2508SOL     ow10029   2.493   5.340   2.475  0.4641 -0.1307 -0.1170
 2508SOL     hw10030   2.435   5.341   2.399 -0.4145 -2.8603  0.4060
 2508SOL     hw10031   2.436   5.314   2.548  1.1270  3.0037  1.7158
 2508SOL     vw10032   2.477   5.336   2.475  0.4357 -0.0775  0.1940
 2509SOL     ow10033   5.547   1.226   2.174  0.2850  0.5377 -0.4383
 2509SOL     hw10034   5.474   1.190   2.224  1.4789  0.4996  1.3921
 2509SOL     hw10035   5.537   1.321   2.184  0.1565  0.5491 -0.6812
 2509SOL     vw10036   5.536   1.234   2.182  0.4256  0.5341 -0.2288
 2510SOL     ow10037   1.539   5.918   4.541 -0.4714 -0.7338 -0.4013
 2510SOL     hw10038   1.570   5.835   4.577 -1.4706 -0.0354  2.2626
 2510SOL     hw10039   1.443   5.912   4.546 -0.5937  0.1191 -1.3585
 2510SOL     vw10040   1.530   5.906   4.546 -0.6194 -0.5293 -0.1762
 2511SOL     ow10041   2.846   2.963   6.687 -0.5497 -0.5530 -0.1246
 2511SOL     hw10042   2.882   2.924   6.766 -1.6571 -2.0878 -0.3404
 2511SOL     hw10043   2.917   2.956   6.622 -0.7290 -2.2728 -0.1645
 2511SOL     vw10044   2.860   2.957   6.689 -0.7195 -0.9824 -0.1583
 2512SOL     ow10045   2.358   0.738   1.343 -0.6098 -0.4789 -0.3380
 2512SOL     hw10046   2.432   0.710   1.397  1.1794 -0.4337 -2.5640
 2512SOL     hw10047   2.291   0.672   1.357 -0.1179 -0.5970  1.6786
 2512SOL     vw10048   2.359   0.726   1.352 -0.3088 -0.4885 -0.3657
 2513SOL     ow10049   2.162   0.495   5.336 -0.3273  0.0725 -0.2680
 2513SOL     hw10050   2.201   0.442   5.266 -0.3216  0.4739 -0.5748
 2513SOL     hw10051   2.081   0.529   5.298 -1.0020 -0.7593  0.3663
 2513SOL     vw10052   2.157   0.492   5.322 -0.4154  0.0157 -0.2248
 2514SOL     ow10053   1.164   7.182   1.754 -0.4179 -0.8305 -0.5711
 2514SOL     hw10054   1.224   7.108   1.752  0.9906  0.2087  0.4952
 2514SOL     hw10055   1.217   7.256   1.726 -1.0890  0.1818  0.6902
 2514SOL     vw10056   1.179   7.182   1.750 -0.3207 -0.5598 -0.2640
 2515SOL     ow10057   7.016   6.831   5.479 -0.0675  0.5220  0.2275
 2515SOL     hw10058   7.066   6.756   5.511 -0.0357  0.4114 -0.0851
 2515SOL     hw10059   7.081   6.900   5.468 -0.1824  0.7882  1.0924
 2515SOL     vw10060   7.031   6.830   5.482 -0.0782  0.5426  0.3004
 2516SOL     ow10061   5.354   4.139   0.571  0.6111  0.3225  0.4476
 2516SOL     hw10062   5.325   4.229   0.583 -2.0135 -0.2385 -1.0753
 2516SOL     hw10063   5.327   4.116   0.482  1.3802 -1.9376  0.7279
 2516SOL     vw10064   5.347   4.148   0.561  0.3667 -0.0498  0.2836
 2517SOL     ow10065   2.087   0.891   3.548  0.0451  0.6029 -0.5765
 2517SOL     hw10066   2.172   0.862   3.515  0.3480  2.1691 -1.2440
 2517SOL     hw10067   2.058   0.819   3.605  1.6460 -0.1057 -0.5996
 2517SOL     vw10068   2.094   0.878   3.552  0.2962  0.7161 -0.6675
 2518SOL     ow10069   3.968   2.319   2.533  0.3128  0.2046  0.4019
 2518SOL     hw10070   3.999   2.246   2.479  2.2980  1.4668 -0.2845
 2518SOL     hw10071   3.949   2.280   2.618 -0.6984 -1.4439 -0.5336
 2518SOL     vw10072   3.969   2.304   2.537  0.4413  0.1537  0.1879
 2519SOL     ow10073   0.900   1.920   3.568 -0.0367  0.7500  0.1485
 2519SOL     hw10074   0.961   1.890   3.501 -0.2460  0.3854  0.1183
 2519SOL     hw10075   0.905   2.016   3.564  0.0717  0.7285 -0.2778
 2519SOL     vw10076   0.908   1.929   3.558 -0.0500  0.6990  0.0883
 2520SOL     ow10077   1.983   0.197   4.479  0.1398 -0.1457 -0.2557
 2520SOL     hw10078   1.894   0.188   4.444 -0.6283  0.1123  1.5206
 2520SOL     hw10079   2.030   0.246   4.412 -1.3341  0.5776 -0.8146
 2520SOL     vw10080   1.978   0.202   4.466 -0.1560 -0.0162 -0.0949
 2521SOL     ow10081   7.039   3.675   2.039  0.1860  0.5424  0.4008
 2521SOL     hw10082   7.100   3.683   1.965 -1.4645  1.3412 -0.9325
 2521SOL     hw10083   7.007   3.764   2.053 -2.9483 -0.2639 -0.9810
 2521SOL     vw10084   7.043   3.688   2.031 -0.4454  0.5413  0.0424
 2522SOL     ow10085   6.547   2.064   3.762  0.0588  0.0723  0.1487
 2522SOL     hw10086   6.627   2.011   3.774  0.3230  0.4432  0.0476
 2522SOL     hw10087   6.513   2.076   3.850 -0.9541 -1.6970  0.0516
 2522SOL     vw10088   6.553   2.058   3.775 -0.0398 -0.1123  0.1224
 2523SOL     ow10089   5.842   6.951   6.359 -0.5761  0.0985  0.2466
 2523SOL     hw10090   5.753   6.965   6.329 -0.4633  0.9335  0.2761
 2523SOL     hw10091   5.897   6.965   6.282 -0.5004 -0.9843  0.0907
 2523SOL     vw10092   5.838   6.954   6.345 -0.5512  0.0658  0.2301
 2524SOL     ow10093   6.187   0.207   0.899  0.5052  0.4804 -0.0339
 2524SOL     hw10094   6.118   0.272   0.912  0.2641  0.4712 -1.1868
 2524SOL     hw10095   6.189   0.158   0.981  0.5015  1.7484  0.7486
 2524SOL     vw10096   6.178   0.209   0.912  0.4728  0.6465 -0.0828
 2525SOL     ow10097   7.017   0.979   5.338 -0.4103 -0.0015 -0.5344
 2525SOL     hw10098   6.966   1.060   5.330  0.4002  0.3996 -2.0376
 2525SOL     hw10099   7.099   0.999   5.293  1.0643 -0.6667  1.6918
 2525SOL     vw10100   7.021   0.993   5.331 -0.1090 -0.0364 -0.4392
 2526SOL     ow10101   2.352   1.910   4.907 -0.0733  0.5424  0.2884
 2526SOL     hw10102   2.323   1.890   4.818 -0.2267 -0.0963  0.4753
 2526SOL     hw10103   2.334   2.003   4.918 -3.1775  0.0112  0.7679
 2526SOL     vw10104   2.346   1.919   4.897 -0.5032  0.3881  0.3767
 2527SOL     ow10105   6.402   1.026   1.988 -0.2030  0.1376  0.4435
 2527SOL     hw10106   6.460   1.003   2.060  0.7030  0.4906 -0.1457
 2527SOL     hw10107   6.353   0.946   1.970 -0.1656 -0.0603  1.2021
 2527SOL     vw10108   6.404   1.013   1.995 -0.0784  0.1581  0.4659
 2528SOL     ow10109   5.509   2.226   4.442  0.9317  0.2860 -0.0934
 2528SOL     hw10110   5.436   2.188   4.393  1.2537 -1.1735  0.5200
 2528SOL     hw10111   5.487   2.320   4.447  0.2758  0.2746 -1.9015
 2528SOL     vw10112   5.496   2.234   4.436  0.8876  0.0919 -0.2508
 2529SOL     ow10113   5.987   6.922   1.978 -0.8363  0.2060 -0.2799
 2529SOL     hw10114   6.037   6.862   2.034  0.3800  2.4817  1.2301
 2529SOL     hw10115   6.010   6.897   1.889 -0.2913 -1.4514  0.2849
 2529SOL     vw10116   5.996   6.910   1.974 -0.6039  0.2875 -0.0061
 2530SOL     ow10117   5.735   2.396   0.088 -0.2053 -0.5677  0.0553
 2530SOL     hw10118   5.790   2.359   0.157 -1.5781 -1.7788  0.5404
 2530SOL     hw10119   5.647   2.365   0.108 -0.4185 -2.5234 -3.2614
 2530SOL     vw10120   5.731   2.387   0.099 -0.4148 -0.9856 -0.3183
 2531SOL     ow10121   7.178   4.459   3.175 -0.2901  0.1170 -0.3578
 2531SOL     hw10122   7.141   4.372   3.193  1.2891 -0.5504 -0.1879
 2531SOL     hw10123   7.181   4.464   3.079 -1.1915  0.3542 -0.3803
 2531SOL     vw10124   7.173   4.448   3.164 -0.2007  0.0603 -0.3383
 2532SOL     ow10125   7.197   4.987   3.321 -0.1339 -0.1772  0.3338
 2532SOL     hw10126   7.148   5.068   3.319  0.3353  0.1783  1.7899
 2532SOL     hw10127   7.242   4.983   3.236  0.5415  1.5455  0.5763
 2532SOL     vw10128   7.197   4.997   3.310  0.0171  0.0973  0.5578
 2533SOL     ow10129   3.941   5.218   6.932  0.3631 -0.3063 -0.1646
 2533SOL     hw10130   3.915   5.223   7.024  0.2460 -1.8354 -0.0969
 2533SOL     hw10131   4.036   5.210   6.934  0.2083 -2.6116 -0.0410
 2533SOL     vw10132   3.950   5.218   6.944  0.3273 -0.8121 -0.1395
 2534SOL     ow10133   6.389   3.038   5.219  0.0277  0.8968 -0.4434
 2534SOL     hw10134   6.331   2.993   5.280  0.0904  0.4322 -0.7256
 2534SOL     hw10135   6.477   3.010   5.243 -0.0323 -0.3888 -1.6272
 2534SOL     vw10136   6.393   3.029   5.230  0.0279  0.6659 -0.6368
 2535SOL     ow10137   4.756   6.074   3.931 -0.4833  0.0878 -0.9892
 2535SOL     hw10138   4.702   6.148   3.902  1.2870  1.5944 -0.5779
 2535SOL     hw10139   4.730   6.060   4.022 -1.6637 -0.6187 -1.4088
 2535SOL     vw10140   4.745   6.082   3.939 -0.4058  0.1934 -0.9903
 2536SOL     ow10141   5.229   4.295   0.159  0.2261  0.3676  0.2751
 2536SOL     hw10142   5.318   4.330   0.154  0.1709  0.3277 -1.2894
 2536SOL     hw10143   5.209   4.266   0.070 -0.0608 -2.8792  1.2757
 2536SOL     vw10144   5.238   4.296   0.147  0.1810 -0.0660  0.2007
 2537SOL     ow10145   5.173   2.254   3.222  0.1895 -0.0679  0.8409
 2537SOL     hw10146   5.204   2.272   3.134  1.4206  0.6141  1.3879
 2537SOL     hw10147   5.102   2.317   3.237  0.5261  0.3603  0.6323
 2537SOL     vw10148   5.168   2.265   3.213  0.3963  0.0786  0.8855
 2538SOL     ow10149   2.341   5.702   4.231  0.2969 -0.5247  0.0890
 2538SOL     hw10150   2.316   5.654   4.152  0.9850 -0.3876 -0.2113
 2538SOL     hw10151   2.290   5.783   4.227 -1.4229 -1.5022  0.9600
 2538SOL     vw10152   2.331   5.706   4.220  0.1608 -0.6356  0.1645
 2539SOL     ow10153   4.718   3.136   2.150 -0.5261  0.1709 -0.3796
 2539SOL     hw10154   4.634   3.095   2.128 -0.1399 -0.1734 -1.2310
 2539SOL     hw10155   4.706   3.228   2.125 -1.0172  0.3658  0.5223
 2539SOL     vw10156   4.705   3.143   2.144 -0.5400  0.1512 -0.3730
 2540SOL     ow10157   2.825   1.620   7.114  0.1498 -0.4763  0.4630
 2540SOL     hw10158   2.849   1.703   7.154  1.4981 -0.3013 -0.6352
 2540SOL     hw10159   2.850   1.554   7.178  0.6751 -0.1141  0.6330
 2540SOL     vw10160   2.831   1.622   7.127  0.3971 -0.4054  0.3407
 2541SOL     ow10161   1.910   1.507   3.074  0.1393 -0.1993 -0.6964
 2541SOL     hw10162   1.833   1.480   3.124  0.0621 -0.1043 -0.7640
 2541SOL     hw10163   1.974   1.534   3.139 -0.1423  0.4120 -0.6692
 2541SOL     vw10164   1.909   1.507   3.089  0.0920 -0.1062 -0.7018
 2542SOL     ow10165   7.247   2.549   6.092 -0.4378  0.4055 -0.3522
 2542SOL     hw10166   7.272   2.642   6.089 -0.6821  0.4744 -0.3083
 2542SOL     hw10167   7.197   2.536   6.011  2.0394 -0.4114 -1.8316
 2542SOL     vw10168   7.243   2.560   6.081 -0.1428  0.3068 -0.5417
 2543SOL     ow10169   0.863   3.968   4.400  0.0116  0.8293 -0.1911
 2543SOL     hw10170   0.859   3.880   4.437 -0.2432  0.4642 -1.0632
 2543SOL     hw10171   0.841   4.026   4.473 -1.5905  0.0622 -0.0272
 2543SOL     vw10172   0.859   3.964   4.414 -0.2334  0.6799 -0.2847
 2544SOL     ow10173   3.604   2.624   6.323 -0.3564 -0.5585 -0.3426
 2544SOL     hw10174   3.643   2.709   6.303 -1.3364 -0.4518 -2.0123
 2544SOL     hw10175   3.679   2.567   6.344  0.2076  1.1433  2.9195
 2544SOL     vw10176   3.619   2.628   6.323 -0.4114 -0.3198 -0.1326
 2545SOL     ow10177   3.066   6.893   1.106 -0.5845 -0.1416  0.1294
 2545SOL     hw10178   3.149   6.940   1.090  0.6273 -1.4897  2.0736
 2545SOL     hw10179   3.000   6.962   1.104  0.5332  0.9910 -1.4759
 2545SOL     vw10180   3.068   6.908   1.103 -0.2770 -0.1700  0.1741
 2546SOL     ow10181   0.184   1.384   6.238 -0.2765  0.5617  0.1153
 2546SOL     hw10182   0.144   1.401   6.152 -0.8007  0.4204  0.3276
 2546SOL     hw10183   0.221   1.469   6.264  2.0718  0.0857 -1.3403
 2546SOL     vw10184   0.183   1.398   6.230 -0.0359  0.4804 -0.0484
 2547SOL     ow10185   2.601   4.829   3.213  0.7909  0.3723  0.2832
 2547SOL     hw10186   2.555   4.909   3.188 -1.5360 -0.5885  1.2767
 2547SOL     hw10187   2.654   4.807   3.136 -0.5538  1.4294 -1.0000
 2547SOL     vw10188   2.602   4.837   3.200  0.3066  0.3850  0.2449
 2548SOL     ow10189   1.622   4.375   0.845  0.4549  0.4133  0.5058
 2548SOL     hw10190   1.536   4.414   0.865 -0.1537  1.3463 -3.1469
 2548SOL     hw10191   1.619   4.290   0.888 -2.6151  0.1467  0.0513
 2548SOL     vw10192   1.610   4.369   0.853 -0.0305  0.5009 -0.0361
 2549SOL     ow10193   0.152   6.859   0.571 -0.1855 -0.7120 -0.3193
 2549SOL     hw10194   0.171   6.932   0.630  0.1724 -0.3360 -0.8890
 2549SOL     hw10195   0.084   6.892   0.512 -0.0516 -0.8508 -0.5542
 2549SOL     vw10196   0.145   6.873   0.571 -0.1206 -0.6807 -0.4254
 2550SOL     ow10197   7.129   3.379   2.054 -0.0191 -0.1694  0.1615
 2550SOL     hw10198   7.176   3.375   1.970  1.3951 -1.1190  0.9517
 2550SOL     hw10199   7.108   3.288   2.074  1.1946 -0.1829  1.6252
 2550SOL     vw10200   7.132   3.366   2.046  0.3276 -0.2966  0.4588
 2551SOL     ow10201   0.426   4.198   5.767 -0.8827 -0.2642  0.0819
 2551SOL     hw10202   0.350   4.186   5.824  0.3632 -2.0813  1.4740
 2551SOL     hw10203   0.497   4.221   5.827  0.3187 -1.5829 -0.7929
 2551SOL     vw10204   0.425   4.200   5.783 -0.5598 -0.6781  0.1500
 2552SOL     ow10205   0.680   6.536   2.788 -0.0507  0.2689 -0.2425
 2552SOL     hw10206   0.633   6.620   2.789 -0.9713 -0.2310 -0.4685
 2552SOL     hw10207   0.611   6.470   2.800  0.8759 -0.3763  2.0604
 2552SOL     vw10208   0.664   6.539   2.790 -0.0499  0.1178  0.0315
 2553SOL     ow10209   2.733   3.936   1.120 -0.7241 -0.2497 -0.0590
 2553SOL     hw10210   2.808   3.944   1.179  0.6867 -0.7662 -1.7030
 2553SOL     hw10211   2.698   4.025   1.114 -0.4828 -0.0650  0.9947
 2553SOL     vw10212   2.738   3.949   1.127 -0.5062 -0.2935 -0.1369
 2554SOL     ow10213   7.246   7.005   3.867 -0.0843 -0.2720 -0.4715
 2554SOL     hw10214   7.189   6.961   3.804  0.5485  2.3389 -3.0831
 2554SOL     hw10215   7.229   7.098   3.854  3.6043  0.5935 -0.3225
 2554SOL     vw10216   7.237   7.012   3.857  0.4859  0.1864 -0.7964
 2555SOL     ow10217   6.590   0.238   6.360 -0.7826 -0.0352  0.2882
 2555SOL     hw10218   6.628   0.304   6.419 -2.0241  1.2881 -0.3183
 2555SOL     hw10219   6.597   0.278   6.273 -1.0321 -0.9736 -0.1692
 2555SOL     vw10220   6.596   0.252   6.356 -0.9792  0.0156  0.1476
 2556SOL     ow10221   6.027   3.435   3.297 -0.5957 -0.2056 -0.2272
 2556SOL     hw10222   6.093   3.437   3.229 -2.1489  0.1039 -1.7904
 2556SOL     hw10223   5.992   3.524   3.300 -1.8562 -0.6728 -0.3865
 2556SOL     vw10224   6.031   3.447   3.289 -0.9665 -0.2264 -0.4544
 2557SOL     ow10225   5.100   5.627   5.901  0.6501  0.5979  0.0151
 2557SOL     hw10226   5.145   5.582   5.973 -1.9269 -0.0913  1.3064
 2557SOL     hw10227   5.084   5.716   5.935  0.8595  0.7783 -0.3570
 2557SOL     vw10228   5.104   5.633   5.915  0.3378  0.5305  0.1366
 2558SOL     ow10229   3.327   3.809   3.986  0.7852 -0.1450  0.1678
 2558SOL     hw10230   3.284   3.854   4.060  1.8408  1.5674 -0.2109
 2558SOL     hw10231   3.420   3.819   4.004  1.0794  1.0513 -1.7965
 2558SOL     vw10232   3.334   3.817   3.998  0.9632  0.2388 -0.1414
 2559SOL     ow10233   5.141   5.417   4.544 -0.7198 -0.2394 -0.1989
 2559SOL     hw10234   5.109   5.437   4.633 -0.9001 -2.6680  0.3341
 2559SOL     hw10235   5.063   5.395   4.495 -0.4139 -1.0024 -0.3554
 2559SOL     vw10236   5.127   5.417   4.549 -0.7033 -0.6607 -0.1493
 2560SOL     ow10237   0.366   7.140   4.871 -0.0578 -0.2928 -0.2172
 2560SOL     hw10238   0.348   7.069   4.932 -1.4018  2.0986  2.3715
 2560SOL     hw10239   0.280   7.178   4.853  0.5764  0.4367 -1.9496
 2560SOL     vw10240   0.352   7.135   4.877 -0.1515  0.1190 -0.1044
 2561SOL     ow10241   6.335   3.464   5.010  0.1334  0.2892  0.1566
 2561SOL     hw10242   6.255   3.514   4.995 -0.3037 -0.5523 -0.3914
 2561SOL     hw10243   6.382   3.468   4.927 -0.4468 -1.1230 -0.2812
 2561SOL     vw10244   6.331   3.471   4.997 -0.0012 -0.0080  0.0265
 2562SOL     ow10245   1.557   0.115   5.322  0.0103 -0.2990  0.0540
 2562SOL     hw10246   1.556   0.042   5.260 -1.2046  0.4737 -0.8920
 2562SOL     hw10247   1.465   0.141   5.330  0.3153  0.5324  1.0963
 2562SOL     vw10248   1.545   0.109   5.315 -0.1097 -0.0874  0.0670
 2563SOL     ow10249   2.463   1.765   4.436  0.1303  0.0958  0.3689
 2563SOL     hw10250   2.463   1.842   4.492 -0.2307 -0.2464  0.8490
 2563SOL     hw10251   2.529   1.784   4.369  0.9107  0.3283  1.1699
 2563SOL     vw10252   2.472   1.778   4.435  0.1855  0.0813  0.5381
 2564SOL     ow10253   0.333   0.726   3.394  0.5265  0.2162  0.7703
 2564SOL     hw10254   0.385   0.804   3.414  1.2366 -0.0640  0.0938
 2564SOL     hw10255   0.332   0.677   3.475  0.2952  0.8061  1.1304
 2564SOL     vw10256   0.340   0.730   3.407  0.5896  0.2570  0.7285
 2565SOL     ow10257   0.950   6.210   2.612  0.5745 -0.3472  0.1923
 2565SOL     hw10258   0.900   6.289   2.637 -0.0213 -0.4653 -0.5645
 2565SOL     hw10259   0.985   6.231   2.525  2.1650 -0.1375  0.8602
 2565SOL     vw10260   0.948   6.223   2.604  0.7058 -0.3355  0.1806
 2566SOL     ow10261   5.231   3.589   5.180 -0.5636  0.5079 -0.3490
 2566SOL     hw10262   5.171   3.541   5.238 -0.4927  1.1229  0.2499
 2566SOL     hw10263   5.179   3.662   5.146 -0.1085  1.1649  0.3391
 2566SOL     vw10264   5.216   3.592   5.183 -0.4942  0.6756 -0.1791
 2567SOL     ow10265   1.884   3.253   2.809 -0.2744  0.0530 -0.0645
 2567SOL     hw10266   1.933   3.329   2.776 -0.8936  0.5559  0.1515
 2567SOL     hw10267   1.812   3.242   2.746 -0.8189  0.3281  0.5006
 2567SOL     vw10268   1.881   3.262   2.796 -0.4280  0.1558  0.0385
 2568SOL     ow10269   2.757   4.608   0.130 -0.7339  0.3347  0.5055
 2568SOL     hw10270   2.799   4.526   0.102 -0.7395  1.1748 -2.1710
 2568SOL     hw10271   2.824   4.654   0.179  0.0277 -0.2568  0.0334
 2568SOL     vw10272   2.771   4.603   0.133 -0.6342  0.3676  0.0901
 2569SOL     ow10273   5.444   1.783   6.285  0.3602 -0.5144  0.1275
 2569SOL     hw10274   5.357   1.768   6.320 -1.5439  3.8580 -1.9348
 2569SOL     hw10275   5.452   1.721   6.212 -1.4369 -0.4255 -0.1743
 2569SOL     vw10276   5.434   1.773   6.280 -0.1280  0.0742 -0.1843
 2570SOL     ow10277   2.574   0.278   6.068 -0.1667 -0.2090  0.2398
 2570SOL     hw10278   2.651   0.259   6.122  0.7125 -0.0135 -0.9136
 2570SOL     hw10279   2.609   0.294   5.980 -1.7226 -2.6447 -0.9212
 2570SOL     vw10280   2.589   0.278   6.063 -0.2561 -0.5046 -0.0656
 2571SOL     ow10281   2.071   2.559   5.853  0.2129  0.4109  0.0158
 2571SOL     hw10282   2.073   2.522   5.765  0.4975  0.6075 -0.0653
 2571SOL     hw10283   2.164   2.565   5.878  0.2369  1.7871 -0.2853
 2571SOL     vw10284   2.084   2.555   5.845  0.2536  0.6183 -0.0348
 2572SOL     ow10285   3.973   3.392   5.172  0.3355 -0.0827  0.4778
 2572SOL     hw10286   3.943   3.416   5.260  0.1049 -0.0160  0.3827
 2572SOL     hw10287   3.892   3.377   5.123  0.4751 -0.6332  0.4185
 2572SOL     vw10288   3.958   3.393   5.177  0.3235 -0.1466  0.4573
 2573SOL     ow10289   2.308   6.852   1.961  0.2772  0.4046 -0.3251
 2573SOL     hw10290   2.355   6.837   1.879  2.2283  1.2284  0.5582
 2573SOL     hw10291   2.343   6.786   2.021  0.7194  1.3324  0.4845
 2573SOL     vw10292   2.319   6.842   1.958  0.5932  0.6359 -0.1017
 2574SOL     ow10293   6.132   5.670   1.706  0.7154 -0.0166 -0.4589
 2574SOL     hw10294   6.131   5.667   1.802  3.0010 -1.7206 -0.4100
 2574SOL     hw10295   6.047   5.634   1.681 -0.5577  1.8464  0.8604
 2574SOL     vw10296   6.120   5.665   1.715  0.8490  0.0043 -0.2782
 2575SOL     ow10297   5.853   0.876   2.949  0.2446  0.5475 -0.0959
 2575SOL     hw10298   5.824   0.815   3.017 -0.2012  0.2648 -0.5346
 2575SOL     hw10299   5.803   0.852   2.871  1.3971  0.2910 -0.7823
 2575SOL     vw10300   5.843   0.865   2.948  0.3376  0.4764 -0.2443
 2576SOL     ow10301   6.934   1.246   1.828 -0.0316 -0.0095  0.3832
 2576SOL     hw10302   6.959   1.216   1.915  2.5378  2.0668  0.4764
 2576SOL     hw10303   6.901   1.335   1.842 -1.1340 -0.2464 -0.5985
 2576SOL     vw10304   6.933   1.254   1.841  0.1619  0.2332  0.2660
 2577SOL     ow10305   5.671   6.021   2.941 -0.0566  0.5332 -0.2068
 2577SOL     hw10306   5.747   6.080   2.939  1.2641 -1.0822 -0.4139
 2577SOL     hw10307   5.703   5.941   2.900 -2.4761  0.4115 -2.0935
 2577SOL     vw10308   5.685   6.019   2.935 -0.2015  0.3040 -0.4830
 2578SOL     ow10309   1.480   1.901   4.161 -0.0762  0.0530 -0.3454
 2578SOL     hw10310   1.504   1.810   4.146  0.7001  0.3034 -0.6815
 2578SOL     hw10311   1.385   1.900   4.171 -0.0925 -0.7631 -0.5326
 2578SOL     vw10312   1.471   1.889   4.161  0.0241 -0.0217 -0.4144
 2579SOL     ow10313   5.862   1.583   3.277  0.3706 -0.1324 -0.2066
 2579SOL     hw10314   5.813   1.621   3.205  0.3770  2.9297  1.2584
 2579SOL     hw10315   5.943   1.633   3.281 -0.1780  0.7330  2.6532
 2579SOL     vw10316   5.866   1.595   3.268  0.2987  0.3858  0.3639
 2580SOL     ow10317   5.585   1.818   6.937  0.8611  1.4375 -0.1063
 2580SOL     hw10318   5.572   1.772   6.854 -0.0944  0.2643  0.6596
 2580SOL     hw10319   5.570   1.910   6.915  1.0392  1.2018 -1.3138
 2580SOL     vw10320   5.581   1.824   6.923  0.7586  1.2517 -0.1647
 2581SOL     ow10321   0.727   3.679   3.156  0.7026 -0.2551  0.7482
 2581SOL     hw10322   0.635   3.685   3.181  0.1522  2.0421 -1.3632
 2581SOL     hw10323   0.734   3.598   3.106 -0.2926 -0.2424  0.5715
 2581SOL     vw10324   0.716   3.669   3.153  0.4987  0.0497  0.4463
 2582SOL     ow10325   4.694   6.976   5.967 -0.0258  0.1061  0.2543
 2582SOL     hw10326   4.705   6.976   5.872  1.4915 -0.7710  0.4042
 2582SOL     hw10327   4.702   6.884   5.992  1.4096  0.5195  1.4056
 2582SOL     vw10328   4.697   6.964   5.958  0.3633  0.0451  0.4263
 2583SOL     ow10329   4.693   5.812   5.368 -0.1891 -0.3201 -0.3548
 2583SOL     hw10330   4.705   5.788   5.276  0.1887  0.5721 -0.5545
 2583SOL     hw10331   4.663   5.903   5.365 -0.2625 -0.3147  0.4000
 2583SOL     vw10332   4.691   5.821   5.356 -0.1488 -0.2019 -0.2816
 2584SOL     ow10333   6.598   0.694   1.129 -0.0947 -1.2287 -0.6456
 2584SOL     hw10334   6.673   0.752   1.115 -0.0744 -1.6926 -2.8360
 2584SOL     hw10335   6.569   0.714   1.218 -0.0515  2.0992 -1.2167
 2584SOL     vw10336   6.604   0.705   1.139 -0.0861 -0.8508 -1.0099
 2585SOL     ow10337   4.213   6.512   1.686  0.3279  0.8243  0.0484
 2585SOL     hw10338   4.153   6.582   1.660 -0.2308  0.2723 -0.1687
 2585SOL     hw10339   4.215   6.518   1.782 -0.0363  0.8778  0.0559
 2585SOL     vw10340   4.205   6.522   1.695  0.2060  0.7582  0.0208
 2586SOL     ow10341   5.694   7.104   6.899  0.9097 -0.6690 -0.2342
 2586SOL     hw10342   5.648   7.173   6.947 -0.1303 -0.9529 -0.7799
 2586SOL     hw10343   5.672   7.120   6.807  1.6213 -1.0356 -0.4747
 2586SOL     vw10344   5.685   7.115   6.893  0.8664 -0.7548 -0.3381
 2587SOL     ow10345   4.698   0.958   2.032 -0.3060  0.0629  0.4186
 2587SOL     hw10346   4.726   0.937   2.121 -0.4282  0.5225  0.5644
 2587SOL     hw10347   4.703   0.874   1.986  1.1532  0.0799  0.4787
 2587SOL     vw10348   4.702   0.944   2.038 -0.1292  0.1258  0.4456
 2588SOL     ow10349   2.110   6.091   4.086  0.1732 -0.3543 -0.4271
 2588SOL     hw10350   2.144   6.032   4.153  1.2957 -0.2120 -0.8581
 2588SOL     hw10351   2.187   6.124   4.041 -0.5791 -0.8818 -2.1869
 2588SOL     vw10352   2.125   6.088   4.089  0.2218 -0.4048 -0.7164
 2589SOL     ow10353   1.610   6.105   4.354  0.2546 -0.2212 -0.5690
 2589SOL     hw10354   1.545   6.176   4.361  1.4152  0.7414  1.7373
 2589SOL     hw10355   1.581   6.040   4.418  2.5058  1.1777  2.1091
 2589SOL     vw10356   1.597   6.106   4.363  0.7048  0.0901  0.0887
 2590SOL     ow10357   3.251   5.223   2.979 -0.6670 -0.3948 -0.1601
 2590SOL     hw10358   3.333   5.254   2.941 -0.8332 -1.3486 -1.3710
 2590SOL     hw10359   3.225   5.291   3.041  2.1898 -1.0659  1.9712
 2590SOL     vw10360   3.258   5.236   2.982 -0.3121 -0.6092 -0.0386
 2591SOL     ow10361   0.608   6.169   0.149  0.1104  0.4498  0.4387
 2591SOL     hw10362   0.636   6.234   0.213 -0.2639  1.5025 -0.4389
 2591SOL     hw10363   0.537   6.122   0.192  0.8692  0.0943  1.3568
 2591SOL     vw10364   0.603   6.171   0.163  0.1611  0.5419  0.4440
 2592SOL     ow10365   5.507   2.674   5.133 -0.4854  0.3294 -0.4918
 2592SOL     hw10366   5.494   2.768   5.142  0.2237  0.3498  0.4264
 2592SOL     hw10367   5.574   2.652   5.197  0.6837 -0.5059 -1.9330
 2592SOL     vw10368   5.514   2.683   5.143 -0.2375  0.2217 -0.5605
 2593SOL     ow10369   5.989   1.227   1.215  0.0108 -0.4166  0.1100
 2593SOL     hw10370   6.014   1.135   1.226  1.9155  0.1830  1.1417
 2593SOL     hw10371   5.933   1.227   1.137 -0.8891 -2.5788  0.6889
 2593SOL     vw10372   5.985   1.215   1.206  0.1433 -0.6228  0.3225
 2594SOL     ow10373   0.494   3.449   3.365 -0.0880 -0.6254 -0.5019
 2594SOL     hw10374   0.585   3.420   3.363  0.1128 -0.2563  1.1642
 2594SOL     hw10375   0.474   3.473   3.275  0.6890 -2.9821 -1.3769
 2594SOL     vw10376   0.503   3.448   3.353  0.0410 -0.8878 -0.3976
 2595SOL     ow10377   6.740   5.517   6.218  0.0053  0.6098 -0.4283
 2595SOL     hw10378   6.697   5.446   6.171  1.7978 -2.2786  1.8958
 2595SOL     hw10379   6.669   5.569   6.255 -1.4752 -1.8541  0.3726
 2595SOL     vw10380   6.725   5.515   6.216  0.0463 -0.0966 -0.0162
 2596SOL     ow10381   6.816   5.911   2.797  0.4385 -0.4820  0.5846
 2596SOL     hw10382   6.871   5.970   2.849 -0.1839  0.4669  0.2090
 2596SOL     hw10383   6.748   5.881   2.857 -0.4878  0.8910  0.2715
 2596SOL     vw10384   6.814   5.915   2.811  0.2344 -0.1757  0.4936
 2597SOL     ow10385   1.905   1.791   0.159 -0.2957 -0.0390  0.5765
 2597SOL     hw10386   1.954   1.867   0.189 -0.4149 -0.0130  0.7059
 2597SOL     hw10387   1.840   1.826   0.098 -0.1231 -0.0790  0.3674
 2597SOL     vw10388   1.902   1.806   0.155 -0.2887 -0.0407  0.5660
 2598SOL     ow10389   5.331   2.075   4.606 -0.7359  0.3024  0.2404
 2598SOL     hw10390   5.271   2.102   4.675 -1.9130  1.1730 -1.0701
 2598SOL     hw10391   5.283   2.089   4.524  1.8320  2.8663 -1.0396
 2598SOL     vw10392   5.317   2.080   4.604 -0.5524  0.7555 -0.1011
 2599SOL     ow10393   1.193   4.825   4.192 -0.3999  0.3388 -0.4321
 2599SOL     hw10394   1.153   4.902   4.151  0.5218  1.0577 -0.0381
 2599SOL     hw10395   1.252   4.862   4.258  1.1004 -0.6664 -1.1661
 2599SOL     vw10396   1.196   4.840   4.196 -0.0803  0.3011 -0.4771
 2600SOL     ow10397   5.339   0.974   1.996 -0.1082 -0.8225  0.8404
 2600SOL     hw10398   5.299   1.060   1.984 -0.5971 -1.3789 -2.7062
 2600SOL     hw10399   5.269   0.918   2.029 -1.0007 -0.7057 -0.7555
 2600SOL     vw10400   5.324   0.978   1.999 -0.2906 -0.8805  0.1619
 2601SOL     ow10401   4.593   1.204   2.156 -0.6335 -0.1588 -0.2041
 2601SOL     hw10402   4.584   1.298   2.165 -0.8200 -0.3572  2.1448
 2601SOL     hw10403   4.655   1.178   2.224 -0.3192 -1.7191 -1.0183
 2601SOL     vw10404   4.600   1.213   2.166 -0.6170 -0.3908 -0.0015
 2602SOL     ow10405   3.351   6.381   3.026  0.0212  0.1533 -0.3784
 2602SOL     hw10406   3.280   6.318   3.040  1.0667 -0.8227  0.8170
 2602SOL     hw10407   3.306   6.465   3.013 -1.4047 -0.7605 -1.8278
 2602SOL     vw10408   3.335   6.384   3.026 -0.0291 -0.0958 -0.4119
 2603SOL     ow10409   1.794   0.281   4.697  0.0023  0.2531 -1.0369
 2603SOL     hw10410   1.753   0.363   4.724  0.2305  0.2875 -0.7926
 2603SOL     hw10411   1.727   0.214   4.713 -0.6709  0.5432 -2.4596
 2603SOL     vw10412   1.780   0.283   4.703 -0.0564  0.2959 -1.1923
 2604SOL     ow10413   6.163   3.912   7.170  0.6559 -0.3536  0.1645
 2604SOL     hw10414   6.093   3.876   7.116  0.3840 -0.2127  0.4248
 2604SOL     hw10415   6.238   3.919   7.110  0.3223 -0.0919 -0.2237
 2604SOL     vw10416   6.164   3.908   7.155  0.5763 -0.3005  0.1476
 2605SOL     ow10417   5.986   3.354   4.179 -0.1806  0.2284  0.1388
 2605SOL     hw10418   6.030   3.324   4.099 -1.7383 -0.1380 -0.6222
 2605SOL     hw10419   6.004   3.285   4.243  1.9336  1.0072  0.4663
 2605SOL     vw10420   5.994   3.341   4.176 -0.1070  0.2828  0.0818
 2606SOL     ow10421   7.218   4.899   2.553  0.2491 -0.2907  0.5561
 2606SOL     hw10422   7.246   4.933   2.638  0.6241  1.8506 -0.3593
 2606SOL     hw10423   7.300   4.883   2.506  0.0392  0.3400 -0.0428
 2606SOL     vw10424   7.233   4.902   2.558  0.2711  0.0749  0.3563
 2607SOL     ow10425   5.907   6.690   6.259  0.3378  0.2147  0.0724
 2607SOL     hw10426   5.819   6.653   6.265  0.7058 -0.8009 -0.6075
 2607SOL     hw10427   5.900   6.775   6.303 -0.8427 -0.0912  0.5135
 2607SOL     vw10428   5.894   6.696   6.266  0.2303  0.0403  0.0410
 2608SOL     ow10429   6.713   3.100   2.063 -0.2769 -0.4712 -0.1642
 2608SOL     hw10430   6.728   3.118   1.970 -0.0501  1.0316  0.1312
 2608SOL     hw10431   6.745   3.011   2.076  1.1054 -0.1611 -1.2068
 2608SOL     vw10432   6.719   3.091   2.053 -0.0646 -0.2320 -0.2627
 2609SOL     ow10433   2.849   0.521   5.873 -0.7395 -0.2981  0.0888
 2609SOL     hw10434   2.883   0.581   5.940 -1.7209 -0.4723  0.7696
 2609SOL     hw10435   2.903   0.443   5.881 -0.0935  0.1153 -0.1275
 2609SOL     vw10436   2.860   0.519   5.883 -0.7837 -0.2665  0.1500
 2610SOL     ow10437   7.224   6.412   6.201  0.2072  0.0022 -0.1168
 2610SOL     hw10438   7.310   6.439   6.167  0.2980  1.3626  1.0805
 2610SOL     hw10439   7.182   6.494   6.228 -0.8491 -0.7881  0.7150
 2610SOL     vw10440   7.230   6.426   6.200  0.0799  0.0775  0.1507
 2611SOL     ow10441   4.514   1.815   1.612  0.1110  0.4475  0.5158
 2611SOL     hw10442   4.526   1.850   1.523 -1.0229  2.0955  0.9689
 2611SOL     hw10443   4.428   1.847   1.639  0.6139  0.3441  2.3824
 2611SOL     vw10444   4.504   1.824   1.603  0.0279  0.6512  0.8218
 2612SOL     ow10445   7.046   3.035   1.858 -0.6827 -0.4313  0.5905
 2612SOL     hw10446   6.985   3.108   1.866 -0.3727 -0.0537 -0.3668
 2612SOL     hw10447   7.008   2.980   1.789  0.4285  0.2028 -0.5673
 2612SOL     vw10448   7.033   3.037   1.850 -0.4950 -0.2978  0.3115
 2613SOL     ow10449   4.147   0.781   1.496  0.3018  0.2007 -0.1641
 2613SOL     hw10450   4.229   0.752   1.534 -0.6172 -1.6044  0.5879
 2613SOL     hw10451   4.160   0.773   1.402  1.4862  1.4521 -0.1269
 2613SOL     vw10452   4.159   0.776   1.489  0.3366  0.1276 -0.0600
 2614SOL     ow10453   3.830   2.846   4.171 -0.1667  0.2323 -0.5144
 2614SOL     hw10454   3.871   2.859   4.086 -0.5558  0.0719 -0.7276
 2614SOL     hw10455   3.805   2.934   4.200  0.3704  0.3381 -0.3564
 2614SOL     vw10456   3.832   2.859   4.164 -0.1473  0.2251 -0.5217
 2615SOL     ow10457   0.572   6.455   2.458  0.6727  0.2535 -0.2094
 2615SOL     hw10458   0.653   6.479   2.503 -0.7173  2.8805  1.0941
 2615SOL     hw10459   0.506   6.514   2.493 -2.3019 -2.9520  0.1801
 2615SOL     vw10460   0.574   6.466   2.469  0.0968  0.1774  0.0141
 2616SOL     ow10461   3.108   1.503   1.970  0.2596 -0.1306  0.6171
 2616SOL     hw10462   3.099   1.595   1.996  0.4069  0.0828 -0.0502
 2616SOL     hw10463   3.184   1.471   2.019 -0.1253 -0.0594  1.2722
 2616SOL     vw10464   3.117   1.511   1.980  0.2282 -0.0930  0.6154
 2617SOL     ow10465   1.021   3.878   1.865  0.3798 -0.2899  0.1339
 2617SOL     hw10466   0.931   3.910   1.863  0.7865  1.2027 -3.6986
 2617SOL     hw10467   1.067   3.937   1.924 -1.0426 -1.0949  2.1707
 2617SOL     vw10468   1.015   3.890   1.872  0.2457 -0.1992 -0.1030
 2618SOL     ow10469   6.259   3.824   0.901 -0.1729  0.4924 -1.1869
 2618SOL     hw10470   6.175   3.838   0.943  0.2100 -0.7202  0.0786
 2618SOL     hw10471   6.323   3.857   0.964  0.3426  0.3087 -1.6059
 2618SOL     vw10472   6.257   3.830   0.915 -0.0539  0.3080 -1.0752
 2619SOL     ow10473   0.083   3.821   0.565  0.3158 -0.0316  0.4570
 2619SOL     hw10474   0.114   3.871   0.640 -0.6226 -0.0199  0.8610
 2619SOL     hw10475   0.151   3.755   0.550 -0.4624 -1.5101  2.7801
 2619SOL     vw10476   0.096   3.819   0.573  0.0893 -0.2251  0.8168
 2620SOL     ow10477   0.851   5.247   0.037 -0.3683 -0.3087 -0.3717
 2620SOL     hw10478   0.936   5.221   0.000  0.5111  0.7443  0.8478
 2620SOL     hw10479   0.795   5.170   0.023  0.4827 -0.6771 -2.0518
 2620SOL     vw10480   0.855   5.233   0.030 -0.1400 -0.2184 -0.4325
 2621SOL     ow10481   0.077   6.396   1.582 -0.5771  0.1529  0.2215
 2621SOL     hw10482  -0.017   6.397   1.565 -0.5341  1.5053 -0.0170
 2621SOL     hw10483   0.116   6.377   1.497 -0.6400 -1.4234  0.5079
 2621SOL     vw10484   0.070   6.394   1.569 -0.5797  0.1235  0.2278
 2622SOL     ow10485   1.768   2.403   6.587  0.7240 -0.6787  0.0751
 2622SOL     hw10486   1.720   2.338   6.535 -1.0761  0.9009 -0.3270
 2622SOL     hw10487   1.718   2.409   6.669  1.0821 -0.0622  0.2522
 2622SOL     vw10488   1.755   2.395   6.591  0.5338 -0.3891  0.0455
 2623SOL     ow10489   3.287   6.305   7.041 -0.3123 -0.0603  0.2478
 2623SOL     hw10490   3.357   6.242   7.024 -0.5403  0.1255 -1.5637
 2623SOL     hw10491   3.238   6.309   6.959 -1.7374  0.6991  1.1056
 2623SOL     vw10492   3.290   6.297   7.028 -0.5305  0.0646  0.1218
 2624SOL     ow10493   4.931   4.362   1.370  0.6389 -0.3616  0.2723
 2624SOL     hw10494   4.933   4.381   1.463 -0.2631 -2.1533  0.7045
 2624SOL     hw10495   4.840   4.380   1.344  0.9961  0.5733 -0.3756
 2624SOL     vw10496   4.919   4.367   1.379  0.5667 -0.4745  0.2439
 2625SOL     ow10497   3.954   6.854   4.462  0.1813  0.1176 -0.1435
 2625SOL     hw10498   3.945   6.816   4.549 -1.3084  1.2045  0.2162
 2625SOL     hw10499   3.994   6.940   4.477 -2.5260  1.4766 -0.1598
 2625SOL     vw10500   3.958   6.860   4.475 -0.3723  0.4404 -0.0982
 2626SOL     ow10501   0.311   0.707   3.052  0.6373  0.3603  0.1420
 2626SOL     hw10502   0.332   0.617   3.026 -0.5331 -0.5543  2.1360
 2626SOL     hw10503   0.391   0.757   3.032  1.9073 -1.4505  0.4522
 2626SOL     vw10504   0.324   0.702   3.046  0.6504  0.0007  0.4458
 2627SOL     ow10505   5.630   3.092   6.725  0.3193  0.9918  0.5577
 2627SOL     hw10506   5.712   3.044   6.735 -0.0374  0.3854  0.6370
 2627SOL     hw10507   5.562   3.027   6.741 -0.1803  1.8400  2.1026
 2627SOL     vw10508   5.632   3.077   6.729  0.2062  1.0237  0.7720
 2628SOL     ow10509   5.831   0.381   6.060  0.0601  0.2269 -0.7021
 2628SOL     hw10510   5.817   0.423   6.145 -0.2018 -0.2447 -0.5092
 2628SOL     hw10511   5.898   0.315   6.077 -1.8302 -1.6828 -0.2388
 2628SOL     vw10512   5.838   0.378   6.074 -0.2239 -0.0872 -0.6156
 2629SOL     ow10513   6.941   1.134   2.908  0.0921 -0.0394  0.3003
 2629SOL     hw10514   6.887   1.058   2.930 -1.5985  1.0727  0.2377
 2629SOL     hw10515   7.016   1.098   2.862  0.0505 -1.7874  1.4993
 2629SOL     vw10516   6.944   1.119   2.905 -0.1366 -0.1233  0.4503
 2630SOL     ow10517   6.560   5.671   2.049  0.1142 -0.4359 -0.1400
 2630SOL     hw10518   6.585   5.606   1.983  0.4231 -1.6330  1.1024
 2630SOL     hw10519   6.548   5.752   1.999  2.3986 -0.7603 -1.4074
 2630SOL     vw10520   6.562   5.673   2.034  0.4563 -0.6366 -0.1432
 2631SOL     ow10521   0.385   1.410   5.319  0.7644 -0.3971 -0.4626
 2631SOL     hw10522   0.309   1.394   5.375  0.4132  1.6689 -0.2659
 2631SOL     hw10523   0.449   1.345   5.346 -0.7817 -1.9661 -0.3808
 2631SOL     vw10524   0.383   1.399   5.330  0.5140 -0.3315 -0.4261
 2632SOL     ow10525   5.294   5.357   1.518  0.3203 -0.2600 -0.2574
 2632SOL     hw10526   5.337   5.328   1.598 -1.5471 -0.8353  0.6059
 2632SOL     hw10527   5.201   5.360   1.541 -0.0807  1.3534 -1.8798
 2632SOL     vw10528   5.287   5.353   1.532  0.0210 -0.1228 -0.3575
 2633SOL     ow10529   0.791   3.602   6.138  0.8108  0.4184 -0.3428
 2633SOL     hw10530   0.710   3.607   6.189  0.3861 -0.1609 -0.9475
 2633SOL     hw10531   0.856   3.648   6.191 -0.3410  2.6024 -0.6902
 2633SOL     vw10532   0.789   3.609   6.151  0.6028  0.6301 -0.4685
 2634SOL     ow10533   1.264   4.000   6.329  0.0747  0.2291  0.1714
 2634SOL     hw10534   1.171   4.014   6.347 -0.0617  0.1960 -0.4553
 2634SOL     hw10535   1.274   3.905   6.325  0.2036  0.2274  0.5846
 2634SOL     vw10536   1.253   3.989   6.331  0.0736  0.2246  0.1431
 2635SOL     ow10537   0.417   1.474   6.534  0.6819  0.1442  0.2322
 2635SOL     hw10538   0.391   1.479   6.626 -1.3958 -1.2257 -0.1956
 2635SOL     hw10539   0.390   1.386   6.507 -0.6520  1.2011 -2.1901
 2635SOL     vw10540   0.410   1.463   6.543  0.2317  0.1029 -0.1438
 2636SOL     ow10541   6.710   4.493   1.165  0.8704  0.6749  0.0566
 2636SOL     hw10542   6.637   4.534   1.119  0.8992  0.1701 -0.4502
 2636SOL     hw10543   6.669   4.426   1.220  1.0870 -1.1692 -1.9078
 2636SOL     vw10544   6.695   4.489   1.166  0.9029  0.3650 -0.2694
 2637SOL     ow10545   6.149   2.447   2.785  0.2319 -0.5239  0.4506
 2637SOL     hw10546   6.151   2.540   2.808 -1.8761 -0.3241  0.0642
 2637SOL     hw10547   6.117   2.403   2.864  1.3532 -0.9650  0.6772
 2637SOL     vw10548   6.145   2.454   2.798  0.1018 -0.5558  0.4296
 2638SOL     ow10549   7.047   5.444   2.590  0.3104 -0.2682  0.4548
 2638SOL     hw10550   6.952   5.446   2.589  0.2505 -1.0510  2.0406
 2638SOL     hw10551   7.069   5.360   2.630  1.6733 -0.0605  0.1961
 2638SOL     vw10552   7.038   5.433   2.595  0.4826 -0.3440  0.6298
 2639SOL     ow10553   6.152   1.901   1.505  0.6428 -0.2988 -0.2090
 2639SOL     hw10554   6.057   1.917   1.502  0.1996 -2.8736 -2.1416
 2639SOL     hw10555   6.171   1.896   1.599 -0.9323  1.0287  0.2513
 2639SOL     vw10556   6.142   1.903   1.517  0.3769 -0.4634 -0.4032
 2640SOL     ow10557   2.829   2.319   1.564  0.3839 -0.4729  0.2249
 2640SOL     hw10558   2.875   2.345   1.485 -0.9878  0.2354 -0.3729
 2640SOL     hw10559   2.841   2.392   1.624  0.4754 -0.5157  0.2587
 2640SOL     vw10560   2.836   2.332   1.562  0.2151 -0.3852  0.1505
 2641SOL     ow10561   4.650   3.580   4.274  0.3234 -0.2155  0.2193
 2641SOL     hw10562   4.745   3.571   4.262  0.3018 -1.1639  0.7330
 2641SOL     hw10563   4.622   3.496   4.309 -0.6918  0.1194  0.2288
 2641SOL     vw10564   4.659   3.568   4.277  0.1867 -0.2964  0.2882
 2642SOL     ow10565   2.797   5.458   5.128  0.3290 -0.1071 -0.2951
 2642SOL     hw10566   2.829   5.477   5.039  1.0054  0.1362 -0.0035
 2642SOL     hw10567   2.713   5.504   5.133  0.8105  0.8198 -0.4270
 2642SOL     vw10568   2.790   5.467   5.117  0.4817  0.0474 -0.2739
 2643SOL     ow10569   5.444   2.891   6.830 -0.4661  0.9658  0.3154
 2643SOL     hw10570   5.361   2.936   6.811 -0.3684  0.5113 -1.4270
 2643SOL     hw10571   5.421   2.798   6.832 -0.0199  0.8415 -0.1320
 2643SOL     vw10572   5.430   2.885   6.827 -0.3943  0.8894  0.0265
 2644SOL     ow10573   0.559   6.100   7.003 -0.5720  0.0936  0.5518
 2644SOL     hw10574   0.608   6.044   7.063 -0.8811 -1.5071 -0.6276
 2644SOL     hw10575   0.484   6.047   6.976 -0.8184  1.0250 -0.6882
 2644SOL     vw10576   0.556   6.086   7.008 -0.6453  0.0055  0.2327
 2645SOL     ow10577   0.830   4.448   6.471 -0.1903  0.0080 -0.2787
 2645SOL     hw10578   0.784   4.530   6.451 -1.4987 -0.9763 -1.4477
 2645SOL     hw10579   0.761   4.384   6.487  0.7830 -1.1940 -0.7038
 2645SOL     vw10580   0.815   4.451   6.470 -0.2345 -0.2804 -0.4888
 2646SOL     ow10581   4.506   0.506   3.069 -0.5152 -0.3787 -0.4330
 2646SOL     hw10582   4.518   0.460   3.152  0.0791 -1.3686 -1.0467
 2646SOL     hw10583   4.420   0.548   3.077 -0.0142  0.4393  1.0853
 2646SOL     vw10584   4.496   0.506   3.081 -0.3705 -0.4014 -0.3136
 2647SOL     ow10585   1.858   6.813   3.350 -0.3659 -0.2069  0.5013
 2647SOL     hw10586   1.888   6.808   3.259 -2.0344 -0.8945 -0.0493
 2647SOL     hw10587   1.810   6.731   3.364 -0.4281  0.0423  1.8911
 2647SOL     vw10588   1.855   6.801   3.340 -0.5943 -0.2649  0.6120
 2648SOL     ow10589   3.132   1.717   3.144 -0.1224 -0.9908  0.1906
 2648SOL     hw10590   3.090   1.789   3.098  2.1343  0.0809 -0.3584
 2648SOL     hw10591   3.145   1.650   3.078  2.2806  0.1821 -0.6631
 2648SOL     vw10592   3.128   1.718   3.130  0.4925 -0.6947  0.0054
 2649SOL     ow10593   6.366   6.476   6.569  0.1595 -0.5083  0.0295
 2649SOL     hw10594   6.388   6.533   6.643 -1.2079  1.6071 -1.1039
 2649SOL     hw10595   6.366   6.388   6.607  1.4412  0.2866  2.0760
 2649SOL     vw10596   6.369   6.472   6.584  0.1481 -0.1245  0.1502
 2650SOL     ow10597   4.280   4.258   3.448  0.0580  0.1723  0.0288
 2650SOL     hw10598   4.299   4.318   3.520  4.2273 -3.4719  2.4951
 2650SOL     hw10599   4.328   4.294   3.373  0.3997  1.1600  0.7044
 2650SOL     vw10600   4.289   4.270   3.448  0.6530 -0.1783  0.4433
 2651SOL     ow10601   5.671   5.339   3.281  0.2378  0.2469  0.2860
 2651SOL     hw10602   5.577   5.319   3.276  0.1632  0.4156  0.8648
 2651SOL     hw10603   5.676   5.433   3.267  0.7429 -0.2478 -4.1513
 2651SOL     vw10604   5.659   5.349   3.279  0.2949  0.2041 -0.2229
 2652SOL     ow10605   6.975   5.932   0.167 -0.1675 -0.3577 -0.1145
 2652SOL     hw10606   6.902   5.965   0.116  0.3338 -1.2993 -1.4837
 2652SOL     hw10607   7.006   6.008   0.217 -0.7458  0.5680 -1.1232
 2652SOL     vw10608   6.970   5.946   0.167 -0.1776 -0.3598 -0.4283
 2653SOL     ow10609   7.016   3.403   4.014  0.2731  0.1109  0.4035
 2653SOL     hw10610   7.043   3.451   3.935  0.0504 -1.4093 -0.6452
 2653SOL     hw10611   6.955   3.461   4.058  0.1829  0.8844 -0.7027
 2653SOL     vw10612   7.012   3.417   4.009  0.2317  0.0124  0.1194
 2654SOL     ow10613   5.624   2.808   2.537  0.2018 -0.4246 -0.1260
 2654SOL     hw10614   5.670   2.815   2.621 -0.6364 -1.4352  0.4387
 2654SOL     hw10615   5.550   2.868   2.545  1.7388  1.8415 -1.3427
 2654SOL     vw10616   5.621   2.817   2.549  0.2940 -0.2590 -0.2121
 2655SOL     ow10617   6.077   3.929   2.227 -0.3836 -0.3446  0.9599
 2655SOL     hw10618   6.069   3.948   2.320 -0.8615 -0.1006  0.8709
 2655SOL     hw10619   6.156   3.977   2.200 -0.0507 -0.6941  1.3071
 2655SOL     vw10620   6.087   3.938   2.236 -0.4029 -0.3585  0.9938
 2656SOL     ow10621   5.539   0.724   0.103  0.7721 -0.5836  0.6078
 2656SOL     hw10622   5.558   0.769   0.020  2.4848 -2.0514  0.1351
 2656SOL     hw10623   5.512   0.636   0.076  2.7547 -1.5481  1.6007
 2656SOL     vw10624   5.538   0.718   0.088  1.2598 -0.9045  0.6764
 2657SOL     ow10625   1.763   2.183   5.791 -0.0848 -0.1381 -0.0179
 2657SOL     hw10626   1.757   2.261   5.846 -0.1494  0.8974 -1.4436
 2657SOL     hw10627   1.795   2.215   5.707  0.7663 -1.7922 -0.3690
 2657SOL     vw10628   1.766   2.198   5.787  0.0189 -0.2197 -0.2522
 2658SOL     ow10629   6.559   0.546   4.813 -0.0815 -0.6615  0.4473
 2658SOL     hw10630   6.653   0.530   4.802  0.3380  1.7663 -0.1373
 2658SOL     hw10631   6.554   0.638   4.839 -2.3187 -0.7163  0.3586
 2658SOL     vw10632   6.571   0.556   4.815 -0.3214 -0.3485  0.3588
 2659SOL     ow10633   3.396   1.019   3.059 -0.0916 -0.6429  1.0083
 2659SOL     hw10634   3.361   0.941   3.103 -0.3480 -2.4514 -2.1213
 2659SOL     hw10635   3.460   0.985   2.996 -0.1294  1.6725 -0.3974
 2659SOL     vw10636   3.400   1.004   3.056 -0.1305 -0.5760  0.4100
 2660SOL     ow10637   7.127   5.458   5.769  0.2487 -0.2127 -0.0354
 2660SOL     hw10638   7.048   5.495   5.806 -0.7463 -1.2644 -1.0278
 2660SOL     hw10639   7.186   5.533   5.757 -1.6629  1.1009 -1.9349
 2660SOL     vw10640   7.125   5.473   5.772 -0.1349 -0.1781 -0.4168
 2661SOL     ow10641   3.119   0.223   2.623  0.0122 -0.5366  0.1523
 2661SOL     hw10642   3.087   0.268   2.702  2.7243 -0.5275  1.3641
 2661SOL     hw10643   3.057   0.151   2.610 -1.3513  0.3526  1.3984
 2661SOL     vw10644   3.107   0.220   2.632  0.1901 -0.4181  0.4766
 2662SOL     ow10645   0.443   5.522   6.857 -0.4422  0.7030  0.1348
 2662SOL     hw10646   0.376   5.495   6.919  0.4824 -0.7316  0.5677
 2662SOL     hw10647   0.408   5.498   6.771  1.0912 -4.1873  0.5380
 2662SOL     vw10648   0.430   5.515   6.854 -0.1179 -0.1314  0.2451
 2663SOL     ow10649   3.403   5.108   5.852 -0.0781 -0.5374  0.2494
 2663SOL     hw10650   3.400   5.083   5.944 -0.8858 -1.5562 -0.0232
 2663SOL     hw10651   3.482   5.067   5.818  0.2440 -0.1244  0.4850
 2663SOL     vw10652   3.413   5.099   5.859 -0.1422 -0.6173  0.2446
 2664SOL     ow10653   0.883   0.996   1.090 -0.2034 -0.2006  0.1497
 2664SOL     hw10654   0.948   0.989   1.159  0.5410 -1.6726 -0.6484
 2664SOL     hw10655   0.815   0.932   1.115  1.4927 -3.0012 -1.8733
 2664SOL     vw10656   0.882   0.987   1.103  0.1186 -0.7644 -0.2226
 2665SOL     ow10657   4.461   4.481   7.088 -0.0823 -1.5771  0.3249
 2665SOL     hw10658   4.428   4.512   7.003 -1.5674  2.0259  2.0093
 2665SOL     hw10659   4.555   4.498   7.085 -0.2950 -0.4007 -0.2395
 2665SOL     vw10660   4.469   4.488   7.076 -0.3064 -0.9463  0.4723
 2666SOL     ow10661   4.636   2.912   3.519  0.1531  0.2481  0.5614
 2666SOL     hw10662   4.666   2.948   3.603  0.2799 -0.9520  1.0389
 2666SOL     hw10663   4.669   2.823   3.517 -2.1052 -0.6565  0.4496
 2666SOL     vw10664   4.644   2.905   3.530 -0.1280 -0.0296  0.6096
 2667SOL     ow10665   5.234   1.883   5.914 -0.8345  0.1373  0.0073
 2667SOL     hw10666   5.222   1.793   5.885  1.0462  0.2398 -1.2751
 2667SOL     hw10667   5.251   1.932   5.834  0.7246  1.1495  0.8907
 2667SOL     vw10668   5.235   1.878   5.900 -0.3805  0.2844 -0.0451
 2668SOL     ow10669   3.856   0.884   1.451 -0.0107  0.1413 -0.3902
 2668SOL     hw10670   3.812   0.827   1.388  1.8165 -0.8787 -0.8150
 2668SOL     hw10671   3.899   0.950   1.397  0.4685  0.0487 -0.1274
 2668SOL     vw10672   3.855   0.885   1.435  0.2935 -0.0055 -0.4115
 2669SOL     ow10673   0.253   5.425   2.702 -0.2063 -0.1096 -0.2133
 2669SOL     hw10674   0.173   5.446   2.751 -0.8562  1.7435 -1.9078
 2669SOL     hw10675   0.322   5.424   2.769 -1.4939 -0.8714  1.1662
 2669SOL     vw10676   0.252   5.428   2.717 -0.4620  0.0343 -0.2549
 2670SOL     ow10677   4.522   0.599   2.540  0.0093 -0.2882  0.2918
 2670SOL     hw10678   4.470   0.560   2.470 -0.9692  1.1113  0.2014
 2670SOL     hw10679   4.534   0.690   2.513 -0.0313  0.1712  1.7359
 2670SOL     vw10680   4.517   0.606   2.527 -0.1252 -0.0430  0.4703
 2671SOL     ow10681   0.314   1.080   0.675  0.3571 -0.0186 -0.7829
 2671SOL     hw10682   0.329   1.138   0.750  1.2660 -0.5837 -0.5108
 2671SOL     hw10683   0.247   1.018   0.705 -0.0493  0.4006 -0.8092
 2671SOL     vw10684   0.307   1.080   0.689  0.4234 -0.0378 -0.7505
 2672SOL     ow10685   0.585   5.004   4.574 -0.4216  0.1222 -0.0174
 2672SOL     hw10686   0.499   5.031   4.605 -0.6169 -0.0496 -0.4090
 2672SOL     hw10687   0.569   4.965   4.489 -0.0790 -0.7641  0.3164
 2672SOL     vw10688   0.572   5.003   4.567 -0.4022 -0.0174 -0.0250
 2673SOL     ow10689   5.899   5.145   1.632 -0.6151  0.1075 -0.2247
 2673SOL     hw10690   5.969   5.171   1.572 -0.4278  0.5532  0.1878
 2673SOL     hw10691   5.942   5.135   1.717 -0.6945 -1.4195 -0.3260
 2673SOL     vw10692   5.914   5.147   1.635 -0.6011 -0.0353 -0.1836
 2674SOL     ow10693   6.673   1.359   1.636  0.9521 -0.4915 -0.5917
 2674SOL     hw10694   6.731   1.430   1.665  1.0500 -0.6808 -0.3142
 2674SOL     hw10695   6.642   1.386   1.550 -0.1774  0.5887  0.1146
 2674SOL     vw10696   6.677   1.372   1.629  0.8159 -0.3739 -0.4619
 2675SOL     ow10697   0.048   1.465   0.249  0.1473  0.7643  0.2219
 2675SOL     hw10698  -0.029   1.411   0.268 -0.3271  1.5723  0.6304
 2675SOL     hw10699   0.012   1.542   0.205  0.8563  0.6069 -0.6629
 2675SOL     vw10700   0.033   1.468   0.246  0.1783  0.8502  0.1590
 2676SOL     ow10701   6.449   4.795   5.377  0.5605 -0.9622  0.1286
 2676SOL     hw10702   6.504   4.736   5.430  1.2316 -1.4393 -1.0744
 2676SOL     hw10703   6.504   4.820   5.303  0.1226  0.8181  0.3493
 2676SOL     vw10704   6.464   4.790   5.375  0.5910 -0.7904 -0.0010
 2677SOL     ow10705   2.198   3.147   5.928  0.7604 -0.6390 -0.1345
 2677SOL     hw10706   2.115   3.187   5.903  2.7979  3.1491 -1.6099
 2677SOL     hw10707   2.180   3.105   6.012 -2.5792  0.0909 -0.3512
 2677SOL     vw10708   2.185   3.147   5.936  0.5884 -0.0430 -0.3576
 2678SOL     ow10709   2.802   2.739   1.973 -0.4152  0.3721  0.0916
 2678SOL     hw10710   2.760   2.767   2.055 -0.4462 -0.1607  0.2597
 2678SOL     hw10711   2.890   2.713   1.999 -1.3508 -2.7244  0.5058
 2678SOL     vw10712   2.808   2.740   1.987 -0.5426 -0.1068  0.1685
 2679SOL     ow10713   2.183   1.037   5.703  0.0835 -0.1642 -0.0486
 2679SOL     hw10714   2.266   1.061   5.662 -1.3819  0.5296 -2.8275
 2679SOL     hw10715   2.167   1.107   5.767  1.7866 -0.5572  0.8772
 2679SOL     vw10716   2.192   1.050   5.706  0.1148 -0.1245 -0.2933
 2680SOL     ow10717   2.928   0.597   3.839 -0.5611  0.6574 -0.0177
 2680SOL     hw10718   2.875   0.574   3.762 -1.0700  0.5362  0.3590
 2680SOL     hw10719   2.868   0.648   3.894 -0.8097 -0.8198  1.1600
 2680SOL     vw10720   2.913   0.601   3.836 -0.6609  0.4465  0.1874
 2681SOL     ow10721   5.528   4.354   1.012  0.5132  0.4567  0.0078
 2681SOL     hw10722   5.495   4.264   1.004  2.1330 -0.3578  1.6058
 2681SOL     hw10723   5.590   4.363   0.940 -0.3303  0.6326 -0.7053
 2681SOL     vw10724   5.532   4.343   1.002  0.6156  0.3724  0.1246
 2682SOL     ow10725   0.617   3.632   6.344  1.1550 -0.0117 -0.5442
 2682SOL     hw10726   0.684   3.660   6.406 -1.6041 -0.9401  3.1727
 2682SOL     hw10727   0.575   3.714   6.317  0.8545  0.2770  0.7432
 2682SOL     vw10728   0.620   3.647   6.348  0.7513 -0.0962  0.1156
 2683SOL     ow10729   0.251   1.471   7.099 -0.6114 -0.1060 -0.5018
 2683SOL     hw10730   0.274   1.380   7.082  0.7097  0.3716 -1.4196
 2683SOL     hw10731   0.268   1.516   7.016 -2.8098  0.7167 -0.5861
 2683SOL     vw10732   0.256   1.465   7.086 -0.7271  0.0655 -0.6337
 2684SOL     ow10733   7.223   4.608   4.173 -0.1126 -0.1569 -0.6204
 2684SOL     hw10734   7.236   4.596   4.079 -1.3239 -0.6292 -0.7543
 2684SOL     hw10735   7.214   4.519   4.207 -1.2510  0.0600 -0.3181
 2684SOL     vw10736   7.223   4.595   4.165 -0.4225 -0.1905 -0.5980
 2685SOL     ow10737   1.278   5.584   2.181  0.1125  0.0052 -0.0588
 2685SOL     hw10738   1.352   5.562   2.124  0.8044  1.2776  0.3213
 2685SOL     hw10739   1.226   5.646   2.130  0.3168  0.5493  0.3905
 2685SOL     vw10740   1.281   5.589   2.166  0.2307  0.2449  0.0505
 2686SOL     ow10741   1.490   6.785   3.493  0.0113  0.3033 -0.2174
 2686SOL     hw10742   1.428   6.719   3.524  0.1406  0.5832  0.6840
 2686SOL     hw10743   1.452   6.818   3.412 -0.6482 -0.0331 -0.0521
 2686SOL     vw10744   1.477   6.780   3.487 -0.0587  0.2961 -0.0768
 2687SOL     ow10745   3.882   5.060   5.068  0.5344 -0.4934  0.4848
 2687SOL     hw10746   3.924   5.142   5.043 -0.4836 -0.0523  0.1851
 2687SOL     hw10747   3.855   5.021   4.984 -1.5632  0.2747  0.7367
 2687SOL     vw10748   3.884   5.066   5.053  0.1233 -0.3340  0.4785
 2688SOL     ow10749   2.556   0.983   7.121 -0.3327  0.3363 -0.1070
 2688SOL     hw10750   2.565   1.062   7.174  0.2729 -0.6782  1.3982
 2688SOL     hw10751   2.518   1.013   7.039 -0.1451  2.1734  0.4260
 2688SOL     vw10752   2.553   0.997   7.117 -0.2279  0.4448  0.1616
 2689SOL     ow10753   2.755   4.197   3.423 -0.8801 -0.8519  0.0177
 2689SOL     hw10754   2.789   4.262   3.484 -0.2104 -1.6400  0.5191
 2689SOL     hw10755   2.790   4.222   3.338  0.4419 -1.2636  0.4173
 2689SOL     vw10756   2.764   4.209   3.420 -0.6174 -1.0104  0.1365
 2690SOL     ow10757   1.041   3.798   1.329 -0.1230  0.2454  0.2153
 2690SOL     hw10758   0.967   3.839   1.285  0.8890  0.8818 -0.9416
 2690SOL     hw10759   1.113   3.804   1.266  1.2274  0.6516  1.7286
 2690SOL     vw10760   1.041   3.804   1.315  0.1887  0.3829  0.2623
 2691SOL     ow10761   4.487   6.643   3.095  0.1957 -0.5778 -0.2369
 2691SOL     hw10762   4.527   6.669   3.178 -2.2597 -2.0617  1.5480
 2691SOL     hw10763   4.448   6.724   3.061 -0.5827 -0.3268  1.1690
 2691SOL     vw10764   4.488   6.657   3.102 -0.2308 -0.7403  0.1841
 2692SOL     ow10765   5.520   4.341   3.884  0.5063  0.0279 -0.0389
 2692SOL     hw10766   5.615   4.328   3.895  0.7735 -0.2986 -2.1725
 2692SOL     hw10767   5.505   4.321   3.791 -0.9769  4.1156 -0.8552
 2692SOL     vw10768   5.531   4.336   3.873  0.3457  0.5243 -0.4282
 2693SOL     ow10769   1.590   1.856   4.431  0.3553 -0.1992 -0.2233
 2693SOL     hw10770   1.646   1.781   4.450 -1.6301 -2.0143 -1.1100
 2693SOL     hw10771   1.501   1.823   4.439 -0.6089  1.8449 -1.4733
 2693SOL     vw10772   1.585   1.842   4.434 -0.0338 -0.1689 -0.5054
 2694SOL     ow10773   5.785   4.233   0.839  0.6383 -0.3951  0.2065
 2694SOL     hw10774   5.869   4.263   0.876  0.1503 -0.3156  1.2920
 2694SOL     hw10775   5.740   4.313   0.814  0.0464 -0.2720  1.5399
 2694SOL     vw10776   5.790   4.247   0.841  0.4961 -0.3684  0.5256
 2695SOL     ow10777   0.048   3.963   0.343 -0.3956 -0.0953 -0.4445
 2695SOL     hw10778   0.071   3.909   0.419  1.0561 -1.4539 -1.7667
 2695SOL     hw10779   0.101   4.042   0.353 -1.9855  0.8464  1.1240
 2695SOL     vw10780   0.058   3.966   0.354 -0.4138 -0.1503 -0.4120
 2696SOL     ow10781   7.236   1.486   7.079 -0.3072  0.1726 -0.4266
 2696SOL     hw10782   7.330   1.479   7.092 -0.4611 -1.9255 -0.1059
 2696SOL     hw10783   7.213   1.408   7.029 -2.1811 -0.6227  1.5295
 2696SOL     vw10784   7.245   1.475   7.074 -0.5746 -0.2092 -0.1264
 2697SOL     ow10785   5.282   5.260   0.169  0.4927 -0.4142 -0.1469
 2697SOL     hw10786   5.363   5.257   0.220  0.4301 -1.0573 -0.0746
 2697SOL     hw10787   5.300   5.323   0.099  1.0639 -0.5691 -0.1488
 2697SOL     vw10788   5.295   5.268   0.167  0.5600 -0.5195 -0.1376
 2698SOL     ow10789   5.733   2.174   1.302 -0.8129  0.1063 -0.0731
 2698SOL     hw10790   5.754   2.090   1.344 -1.5700  0.9393  2.1167
 2698SOL     hw10791   5.803   2.232   1.331 -1.5290  0.7810  0.3398
 2698SOL     vw10792   5.745   2.170   1.312 -1.0073  0.3052  0.2703
 2699SOL     ow10793   5.679   6.277   3.908 -0.2158  0.5449 -0.1754
 2699SOL     hw10794   5.653   6.205   3.850  2.5670  1.5349 -2.9449
 2699SOL     hw10795   5.630   6.353   3.875 -0.0661  0.7385  0.0422
 2699SOL     vw10796   5.669   6.278   3.896  0.1712  0.7012 -0.5121
 2700SOL     ow10797   6.050   3.222   4.600 -0.4299  0.7486  0.0763
 2700SOL     hw10798   6.033   3.203   4.507 -1.1513  0.9935  0.1549
 2700SOL     hw10799   6.137   3.262   4.600 -1.4848  3.2648 -0.8467
 2700SOL     vw10800   6.059   3.225   4.587 -0.6645  1.1129 -0.0346
 2701poe    c3110801   1.009   3.115   3.158  0.5134 -0.1397 -0.0904
 2701poe     o210802   0.964   3.244   3.125 -0.3365 -0.3350  0.2562
 2701poe    c2310803   0.832   3.230   3.077 -0.3423  0.0716  0.1495
 2701poe    c2310804   0.746   3.358   3.082 -0.0047  0.2824  0.7857
 2701poe     o210805   0.741   3.452   2.978 -0.5691  0.0421  0.5864
 2701poe    c2310806   0.695   3.405   2.853 -0.0100 -0.0761  0.4208
 2701poe    c2310807   0.704   3.524   2.754 -0.4933 -0.1371  0.3045
 2701poe     o210808   0.704   3.498   2.616 -0.0768  0.1707  0.2460
 2701poe    c2310809   0.668   3.602   2.528  0.0903  0.2815  0.3090
 2701poe    c2310810   0.697   3.565   2.381 -0.5059  0.0653  0.2437
 2701poe     o210811   0.831   3.578   2.340 -0.8205  0.0646 -0.8187
 2701poe    c3110812   0.862   3.709   2.296 -0.0153  0.3650  0.5485
 2702poe    c3110813   3.765   6.143   1.372 -0.4875  0.0591  0.4298
 2702poe     o210814   3.815   6.079   1.487  0.8764  0.2946 -0.0075
 2702poe    c2310815   3.907   5.977   1.454  0.5239  0.0364 -0.1898
 2702poe    c2310816   4.057   6.009   1.448  0.5785 -0.2554 -0.3909
 2702poe     o210817   4.092   6.121   1.369 -0.3358  0.4653  0.2016
 2702poe    c2310818   4.149   6.083   1.246 -0.5382 -0.2190  0.3156
 2702poe    c2310819   4.196   6.205   1.164  0.2324 -0.3848  0.5010
 2702poe     o210820   4.331   6.234   1.187  0.1798  0.1137  0.1940
 2702poe    c2310821   4.366   6.368   1.159 -0.1302  0.2825  0.6111
 2702poe    c2310822   4.516   6.398   1.174 -0.0256 -0.0794  0.2885
 2702poe     o210823   4.548   6.418   1.310 -0.3728  0.1798  0.3336
 2702poe    c3110824   4.672   6.353   1.327 -0.4767 -0.2074 -0.3384
 2703poe    c3110825   5.810   4.287   4.037 -1.0547  0.1648  0.2153
 2703poe     o210826   5.773   4.324   3.906  0.0154  0.4929 -0.0069
 2703poe    c2310827   5.881   4.299   3.818  0.0178  0.3475  0.0358
 2703poe    c2310828   5.859   4.389   3.695 -0.4236 -0.0824 -0.2020
 2703poe     o210829   5.726   4.376   3.648 -0.5257 -0.1279  0.1005
 2703poe    c2310830   5.707   4.263   3.566  0.2858 -0.7881  0.7905
 2703poe    c2310831   5.558   4.247   3.529  0.3810 -0.3163  0.1823
 2703poe     o210832   5.490   4.215   3.648 -0.3927  0.4062 -0.0543
 2703poe    c2310833   5.363   4.158   3.624 -0.2839  0.1162  0.0488
 2703poe    c2310834   5.302   4.096   3.751  0.0799 -0.1539  0.0940
 2703poe     o210835   5.374   3.981   3.787  0.2334  0.0566  0.4590
 2703poe    c3110836   5.304   3.905   3.883 -0.0779 -0.4926 -0.1935
 2704poe    c3110837   5.115   3.031   1.922  0.4550 -0.3085  0.0559
 2704poe     o210838   5.166   3.133   1.838 -0.3234 -0.0259 -0.0839
 2704poe    c2310839   5.131   3.265   1.872 -0.3845 -0.1171  0.2179
 2704poe    c2310840   5.225   3.323   1.979  0.2766 -0.6146 -0.0874
 2704poe     o210841   5.210   3.272   2.109  0.1827 -0.0745  0.1179
 2704poe    c2310842   5.265   3.352   2.211  0.2983  0.0334 -0.0283
 2704poe    c2310843   5.198   3.329   2.348  0.1559  0.0893 -0.0886
 2704poe     o210844   5.068   3.383   2.353 -0.0529 -0.4067 -0.1090
 2704poe    c2310845   5.009   3.345   2.475  0.4128 -0.1105  0.2147
 2704poe    c2310846   5.027   3.448   2.587  0.2602  0.2321 -0.0741
 2704poe     o210847   5.024   3.581   2.540 -0.2903  0.3029  0.1486
 2704poe    c3110848   5.008   3.673   2.645 -0.0051  0.3128  0.1844
 2705poe    c3110849   4.791   3.879   2.046  0.3275  0.1851 -0.0184
 2705poe     o210850   4.763   3.973   2.147 -1.0645  0.3397 -0.5345
 2705poe    c2310851   4.728   4.098   2.092 -0.2521  0.3788 -0.9747
 2705poe    c2310852   4.680   4.187   2.208  0.6256 -0.0405 -0.2799
 2705poe     o210853   4.599   4.115   2.297 -0.4342  0.6507 -0.6668
 2705poe    c2310854   4.572   4.184   2.417 -0.0785 -0.1763 -0.1057
 2705poe    c2310855   4.501   4.091   2.518 -0.1135 -0.3340 -0.2771
 2705poe     o210856   4.573   3.969   2.517  0.1953 -0.1552 -0.1077
 2705poe    c2310857   4.534   3.892   2.628  0.3110 -0.0843 -0.0187
 2705poe    c2310858   4.591   3.750   2.647  0.0222 -0.1687  0.2216
 2705poe     o210859   4.564   3.663   2.540  0.0339 -0.1622  0.2135
 2705poe    c3110860   4.560   3.532   2.593 -0.2563 -0.1338  0.2668
 2706poe    c3110861   2.141   2.424   0.754 -0.4209 -0.3997 -0.1716
 2706poe     o210862   2.204   2.316   0.689 -0.0588  0.2485 -0.9105
 2706poe    c2310863   2.343   2.313   0.708 -0.1200  0.6445 -0.3860
 2706poe    c2310864   2.428   2.256   0.592  0.0981  0.0160  0.0719
 2706poe     o210865   2.410   2.117   0.577  0.0768  0.0550 -0.2650
 2706poe    c2310866   2.349   2.083   0.454 -0.8577 -0.6756  0.3802
 2706poe    c2310867   2.406   1.948   0.406 -0.2701 -0.2697 -0.0889
 2706poe     o210868   2.377   1.913   0.273 -0.3152  0.0610 -0.1687
 2706poe    c2310869   2.436   1.788   0.246  1.1313  0.8403 -0.6892
 2706poe    c2310870   2.421   1.742   0.100 -0.4695  0.3230 -0.3802
 2706poe     o210871   2.289   1.695   0.081 -0.2167 -0.7200  0.2955
 2706poe    c3110872   2.256   1.709  -0.056 -0.2453 -0.2874  0.3450
 2707poe    c3110873   0.979   1.723   6.491 -0.4273 -0.0495 -0.4462
 2707poe     o210874   0.956   1.594   6.542 -0.1941 -0.2067 -0.7367
 2707poe    c2310875   1.069   1.528   6.490 -0.1962 -0.0242 -0.9782
 2707poe    c2310876   1.059   1.378   6.525  0.3042 -0.0408 -0.8952
 2707poe     o210877   1.001   1.366   6.654  0.1417 -0.7202 -1.0299
 2707poe    c2310878   1.051   1.252   6.719  0.4844 -0.0655 -0.1368
 2707poe    c2310879   0.990   1.229   6.859 -0.2268  0.4319 -0.3639
 2707poe     o210880   1.000   1.343   6.942  0.4233  0.3661 -0.3458
 2707poe    c2310881   1.011   1.307   7.078  0.6392 -0.1859 -0.5047
 2707poe    c2310882   1.059   1.414   7.178 -0.6683 -0.6189  0.6013
 2707poe     o210883   0.975   1.527   7.165  0.6252  0.3043  0.0689
 2707poe    c3110884   1.027   1.643   7.226  0.4482  0.3792  0.0785
 2708poe    c3110885   1.079   6.656   6.911  0.1539 -0.2016 -0.0365
 2708poe     o210886   0.946   6.657   6.862  0.1174 -0.6545  0.0456
 2708poe    c2310887   0.923   6.772   6.784 -0.6006 -0.4170  0.6002
 2708poe    c2310888   0.783   6.773   6.720 -0.3810  0.3592  0.1242
 2708poe     o210889   0.679   6.783   6.815 -0.2598  0.1900  0.2739
 2708poe    c2310890   0.655   6.906   6.879 -0.4311  0.1711  0.2462
 2708poe    c2310891   0.564   6.857   6.993 -0.4354 -0.0252  0.1580
 2708poe     o210892   0.458   6.791   6.927 -0.3098  0.2248 -0.2903
 2708poe    c2310893   0.345   6.760   7.004  0.1148  0.0068  0.2489
 2708poe    c2310894   0.238   6.730   6.898  0.4069 -0.1000 -0.0155
 2708poe     o210895   0.291   6.692   6.773  0.3914  0.4903 -0.2030
 2708poe    c3110896   0.183   6.684   6.682 -0.3669 -0.0521  0.7334
 2709poe    c3110897   1.851   5.856   4.379 -0.1081  0.2718 -0.5497
 2709poe     o210898   1.962   5.914   4.444 -0.4953 -0.0214  0.3875
 2709poe    c2310899   1.960   5.911   4.585 -0.1496  0.0874  0.3960
 2709poe    c2310900   2.087   5.968   4.651 -0.1310  0.1012  0.3487
 2709poe     o210901   2.128   6.097   4.610 -0.0668  0.0506  0.2553
 2709poe    c2310902   2.205   6.162   4.708  0.1286  0.1169  0.0574
 2709poe    c2310903   2.248   6.308   4.681  0.6779 -0.0677 -0.0880
 2709poe     o210904   2.314   6.322   4.557 -0.2242 -0.6662 -0.6469
 2709poe    c2310905   2.334   6.461   4.543  0.1556 -0.6267  0.1969
 2709poe    c2310906   2.311   6.506   4.397 -0.5026  0.1615  0.5324
 2709poe     o210907   2.181   6.473   4.352 -0.1778 -0.3281 -0.0567
 2709poe    c3110908   2.170   6.500   4.214  0.2230 -0.3932 -0.1037
 2710poe    c3110909   6.005   1.772   0.812 -0.0757 -0.2851 -0.3095
 2710poe     o210910   5.970   1.697   0.926  0.1531  0.2053  0.0877
 2710poe    c2310911   5.841   1.642   0.916  0.4143 -0.3623 -0.2720
 2710poe    c2310912   5.789   1.558   1.035  0.1798  0.0137 -0.1057
 2710poe     o210913   5.742   1.654   1.126  0.1980 -0.4234  0.3676
 2710poe    c2310914   5.605   1.625   1.146  0.0656  0.4161  0.7394
 2710poe    c2310915   5.562   1.721   1.258  0.3262  0.9525  0.3870
 2710poe     o210916   5.606   1.686   1.387  0.5720  0.0863  0.0724
 2710poe    c2310917   5.536   1.759   1.486 -0.0334 -0.0211 -0.2701
 2710poe    c2310918   5.574   1.737   1.633  0.1904  0.8304 -0.1925
 2710poe     o210919   5.707   1.781   1.650  0.4416  0.0162 -0.0080
 2710poe    c3110920   5.747   1.774   1.785 -0.1376 -0.3572  0.1520
 2711poe    c3110921   5.403   6.392   0.894 -0.0360 -0.0853  0.2746
 2711poe     o210922   5.326   6.509   0.911 -0.0857 -0.0555 -0.1484
 2711poe    c2310923   5.314   6.578   0.789  0.1664 -0.3511 -0.3392
 2711poe    c2310924   5.238   6.710   0.810  1.2066  0.1828  0.1159
 2711poe     o210925   5.259   6.795   0.920 -0.2361  0.5407  0.1352
 2711poe    c2310926   5.141   6.862   0.957 -0.7172 -0.0340 -0.3559
 2711poe    c2310927   5.162   6.968   1.067  0.1766 -0.3651 -0.2010
 2711poe     o210928   5.231   6.907   1.174  0.0801  0.1053  0.1309
 2711poe    c2310929   5.289   7.016   1.242  0.7817  0.0508 -0.3687
 2711poe    c2310930   5.394   6.966   1.343  0.7785  0.1945 -0.2939
 2711poe     o210931   5.455   6.857   1.277  0.0660 -0.2166 -0.2812
 2711poe    c3110932   5.558   6.804   1.357 -0.2998  0.1775  0.4618
 2712poe    c3110933   3.739   5.505   0.319 -0.3003  0.0287 -0.3057
 2712poe     o210934   3.822   5.610   0.276  0.2934 -0.1511  0.3825
 2712poe    c2310935   3.961   5.583   0.269  0.4139  0.5186  0.0749
 2712poe    c2310936   4.040   5.707   0.225 -0.1474  0.8556  0.0009
 2712poe     o210937   4.006   5.760   0.099 -0.3677 -0.0121 -0.3138
 2712poe    c2310938   4.081   5.876   0.069 -0.0838 -0.0290  0.3133
 2712poe    c2310939   4.003   5.966  -0.028 -0.1531 -0.4128  0.0091
 2712poe     o210940   3.888   6.019   0.033 -0.3694 -0.3667 -0.4352
 2712poe    c2310941   3.841   6.143  -0.016  0.2481 -0.0922 -0.3366
 2712poe    c2310942   3.896   6.262   0.064 -0.5255  0.0362  0.0127
 2712poe     o210943   3.858   6.255   0.200  0.0663  0.6059  0.2159
 2712poe    c3110944   3.919   6.351   0.284  0.3229  0.1823  0.5121
 2713poe    c3110945   3.773   4.322   3.983 -0.4482 -0.6304 -0.4417
 2713poe     o210946   3.716   4.215   4.056 -0.2772  0.1000  0.7888
 2713poe    c2310947   3.794   4.195   4.172  0.0144  0.1474  0.6036
 2713poe    c2310948   3.695   4.145   4.279 -0.0877  0.3447  0.6016
 2713poe     o210949   3.651   4.015   4.246 -0.2780  0.5417  0.0612
 2713poe    c2310950   3.584   3.945   4.349 -0.2946  0.3140 -0.1039
 2713poe    c2310951   3.554   3.800   4.307 -0.2504  0.2954 -0.0709
 2713poe     o210952   3.652   3.720   4.244 -0.0332  0.4948  0.0127
 2713poe    c2310953   3.769   3.700   4.320  0.1924  0.5360 -0.3245
 2713poe    c2310954   3.866   3.613   4.238 -0.1297 -0.2748  0.1520
 2713poe     o210955   3.905   3.671   4.116 -0.3882 -0.5480 -0.0633
 2713poe    c3110956   3.974   3.571   4.044 -0.2516 -0.1586 -0.4784
 2714poe    c3110957   1.880   3.969   7.091  0.1568  0.6044 -0.7673
 2714poe     o210958   2.018   3.944   7.074  0.0972 -0.1814 -0.1707
 2714poe    c2310959   2.060   3.848   7.168  0.3798  0.2294  0.1297
 2714poe    c2310960   2.208   3.809   7.147  0.3807  0.2349  0.1269
 2714poe     o210961   2.237   3.731   7.033  0.2241  0.5085 -0.1027
 2714poe    c2310962   2.359   3.662   7.049 -0.0174  0.2153  0.5067
 2714poe    c2310963   2.435   3.615   6.923 -0.0619  1.0283  0.1709
 2714poe     o210964   2.331   3.600   6.829 -0.0489 -0.1638  0.3269
 2714poe    c2310965   2.394   3.617   6.704 -0.7591 -0.3042 -0.0541
 2714poe    c2310966   2.274   3.601   6.609 -0.4492 -0.4060 -0.4313
 2714poe     o210967   2.175   3.684   6.665  0.4151  0.1455  0.2982
 2714poe    c3110968   2.064   3.693   6.579  0.4494 -0.6674  0.1606
 2715poe    c3110969   1.295   4.369   6.165  0.6496  0.2271 -0.3641
 2715poe     o210970   1.294   4.445   6.284 -0.1741 -0.2660 -0.0518
 2715poe    c2310971   1.422   4.492   6.318 -0.1008 -0.1137 -0.5351
 2715poe    c2310972   1.419   4.598   6.430  0.0873 -0.5049 -0.1559
 2715poe     o210973   1.388   4.544   6.556 -1.0152 -0.0595 -0.2265
 2715poe    c2310974   1.375   4.645   6.654  0.5703 -0.1655  0.1203
 2715poe    c2310975   1.360   4.581   6.793  0.0424 -0.4179 -0.0489
 2715poe     o210976   1.250   4.495   6.810 -0.1540 -0.1331  0.1438
 2715poe    c2310977   1.242   4.461   6.947  0.1517 -0.2247  0.1392
 2715poe    c2310978   1.144   4.345   6.969  0.3350 -0.4053  0.0081
 2715poe     o210979   1.008   4.367   6.936  0.2232 -0.2806  0.5336
 2715poe    c3110980   0.934   4.411   7.047  0.1269 -0.6362  0.6113
 2716poe    c3110981   6.645   4.467   3.240  0.2167  0.3849  0.2610
 2716poe     o210982   6.670   4.349   3.168 -0.3515  0.0906  0.5340
 2716poe    c2310983   6.573   4.259   3.215 -0.2098 -0.3033  0.0846
 2716poe    c2310984   6.570   4.121   3.145 -0.1895  0.0040 -0.5240
 2716poe     o210985   6.566   4.125   3.004  0.0684  0.1279 -0.5302
 2716poe    c2310986   6.443   4.086   2.948 -0.2024  0.1808  0.0125
 2716poe    c2310987   6.330   4.190   2.953 -0.5177 -0.1322 -0.4598
 2716poe     o210988   6.260   4.190   3.075 -0.0393  0.6216 -0.1755
 2716poe    c2310989   6.177   4.300   3.105  0.0278  0.4279  0.7657
 2716poe    c2310990   6.070   4.256   3.206 -0.5964 -0.7355 -0.3633
 2716poe     o210991   5.987   4.147   3.171 -0.3650 -0.7917 -0.7406
 2716poe    c3110992   5.910   4.109   3.283 -0.3853  0.0157 -0.4767
 2717poe    c3110993   3.024   0.518   2.469  0.3765  0.3907  0.2152
 2717poe     o210994   3.142   0.544   2.397  0.4822 -0.1966  0.1751
 2717poe    c2310995   3.218   0.646   2.457 -0.0970  0.3202  0.0295
 2717poe    c2310996   3.338   0.661   2.363 -0.3290 -0.2608 -0.3659
 2717poe     o210997   3.435   0.558   2.359  0.1625  0.2075 -0.6509
 2717poe    c2310998   3.514   0.541   2.474 -0.3190 -0.3797 -0.4056
 2717poe    c2310999   3.637   0.456   2.439  0.2450 -0.1209  0.8715
 2717poe     o211000   3.604   0.327   2.392  0.3331  0.3190 -0.4527
 2717poe    c2311001   3.720   0.255   2.358  0.0868 -0.7570  0.9017
 2717poe    c2311002   3.678   0.147   2.256  0.1574 -0.1038  0.1762
 2717poe     o211003   3.552   0.095   2.292 -0.0482  0.1502 -0.1667
 2717poe    c3111004   3.545  -0.045   2.279  0.2481  0.1190 -0.0059
 2718poe    c3111005   0.092   7.239   4.385 -0.4010  0.6525  0.3864
 2718poe     o211006  -0.040   7.192   4.373 -0.1061 -0.0376 -0.2673
 2718poe    c2311007  -0.110   7.287   4.295  0.2121  0.0789 -0.4111
 2718poe    c2311008  -0.257   7.244   4.279  0.2963 -0.3743 -0.0009
 2718poe     o211009  -0.286   7.138   4.191  0.4753 -0.0016 -0.5119
 2718poe    c2311010  -0.416   7.085   4.185  0.3090  0.3846 -0.3501
 2718poe    c2311011  -0.421   6.952   4.107  0.0970  0.0905  0.1564
 2718poe     o211012  -0.351   6.853   4.178  0.3233  0.0997 -0.0524
 2718poe    c2311013  -0.348   6.724   4.121 -0.1640 -0.0359  0.2226
 2718poe    c2311014  -0.294   6.643   4.240 -0.1019  0.0094  0.2255
 2718poe     o211015  -0.173   6.699   4.286 -0.0242  0.0373 -0.0111
 2718poe    c3111016  -0.086   6.605   4.342  0.0358  0.0138 -0.1425
 2719poe    c3111017   6.569   3.636   1.800 -0.1225 -0.6447 -0.0437
 2719poe     o211018   6.640   3.752   1.836  0.1562 -0.9971  0.5503
 2719poe    c2311019   6.692   3.816   1.722  0.1155 -0.3548  0.8848
 2719poe    c2311020   6.839   3.856   1.742  0.1303 -0.0159  0.1457
 2719poe     o211021   6.852   3.942   1.853  0.4797 -0.3258  0.3483
 2719poe    c2311022   6.973   4.013   1.863  0.3368 -0.0892  0.3835
 2719poe    c2311023   7.012   4.045   2.009 -0.3051 -0.3598  0.6184
 2719poe     o211024   7.054   3.926   2.072  0.6791 -0.2706  0.1465
 2719poe    c2311025   7.122   3.964   2.190 -0.1140  0.6149  0.3290
 2719poe    c2311026   7.276   3.974   2.192 -0.0509 -0.2444  0.1642
 2719poe     o211027   7.338   3.848   2.199  0.1028 -0.1788 -0.0237
 2719poe    c3111028   7.461   3.837   2.131  0.2025  0.0844  0.1143
 2720poe    c3111029   4.868   1.328   1.597  0.2333 -0.2327 -0.5956
 2720poe     o211030   4.765   1.407   1.542  0.1335  0.2277  0.2373
 2720poe    c2311031   4.659   1.321   1.507  0.0847  0.4567 -0.1791
 2720poe    c2311032   4.537   1.385   1.437 -0.1723  0.1170 -0.0433
 2720poe     o211033   4.465   1.448   1.541  0.0970  0.7140 -0.2107
 2720poe    c2311034   4.342   1.487   1.483 -0.4391 -0.0233  0.3994
 2720poe    c2311035   4.238   1.526   1.589 -0.2846  0.3103  0.4321
 2720poe     o211036   4.283   1.630   1.672  0.4403 -0.3472  0.8727
 2720poe    c2311037   4.183   1.695   1.748 -0.2737  0.4440 -0.7051
 2720poe    c2311038   4.240   1.806   1.838  0.2881 -0.4157  0.0251
 2720poe     o211039   4.291   1.914   1.762  0.2731 -0.0359  0.5478
 2720poe    c3111040   4.345   2.020   1.837  0.3050 -0.1087  0.6281
 2721poe    c3111041   1.751   4.596   1.187  0.2037  0.1192  0.0116
 2721poe     o211042   1.823   4.476   1.203 -0.1569 -0.0556  0.3592
 2721poe    c2311043   1.874   4.429   1.080  0.0172  0.6424  0.1598
 2721poe    c2311044   1.990   4.331   1.107 -0.8853 -0.5163 -0.1020
 2721poe     o211045   1.995   4.285   1.240  0.1674  0.5919  0.2562
 2721poe    c2311046   2.102   4.198   1.268 -0.2336  0.1609  0.4635
 2721poe    c2311047   2.100   4.150   1.414  0.1012  0.0923  0.4463
 2721poe     o211048   2.096   4.262   1.500  0.1390  0.2650  0.2221
 2721poe    c2311049   2.111   4.228   1.636 -0.1439 -0.6052  0.0445
 2721poe    c2311050   2.082   4.345   1.732  0.6243 -0.8341  0.5684
 2721poe     o211051   2.153   4.463   1.702 -0.4445 -0.4057 -0.3804
 2721poe    c3111052   2.099   4.569   1.779 -0.0717 -0.3959 -0.1295
 2722poe    c3111053   2.609   2.266   6.528  0.1045  0.3008  0.1313
 2722poe     o211054   2.576   2.403   6.525  0.5041  0.4010  0.2835
 2722poe    c2311055   2.442   2.421   6.566  0.2896  0.2491 -0.3425
 2722poe    c2311056   2.413   2.443   6.716 -0.6110 -0.0143 -0.4763
 2722poe     o211057   2.445   2.572   6.762 -0.1661 -0.3150  0.0607
 2722poe    c2311058   2.376   2.605   6.881  0.6661 -0.3619  0.5622
 2722poe    c2311059   2.421   2.742   6.936 -0.2569 -0.0708  0.6068
 2722poe     o211060   2.420   2.839   6.833 -0.2843 -0.0321  0.6440
 2722poe    c2311061   2.443   2.971   6.877  0.1965  0.1204 -0.0562
 2722poe    c2311062   2.415   3.055   6.751 -0.6490 -0.4130 -0.2346
 2722poe     o211063   2.463   2.988   6.636  0.1162  0.1975 -0.2825
 2722poe    c3111064   2.456   3.059   6.515 -0.8100 -0.1023 -0.4181
 2723poe    c3111065   6.907   2.543   1.447 -0.1027 -0.0244  0.7782
 2723poe     o211066   6.819   2.632   1.380  0.0417 -0.5901 -0.1812
 2723poe    c2311067   6.888   2.742   1.325 -0.7540 -0.2667 -0.5421
 2723poe    c2311068   6.788   2.853   1.290 -0.6085 -0.0523 -0.2722
 2723poe     o211069   6.737   2.915   1.406 -0.0247 -0.0308 -0.0232
 2723poe    c2311070   6.674   3.038   1.374  0.3926  0.3485  0.5935
 2723poe    c2311071   6.596   3.097   1.492 -0.5872  0.2669 -0.0064
 2723poe     o211072   6.508   3.003   1.549  0.0940 -0.1509  0.3677
 2723poe    c2311073   6.397   3.056   1.618  0.4456  0.1968  0.6721
 2723poe    c2311074   6.291   2.945   1.609  0.4289  0.2818 -0.3481
 2723poe     o211075   6.357   2.836   1.669  0.1382 -0.0412 -0.6067
 2723poe    c3111076   6.264   2.747   1.728  0.4010  0.2112  0.2131
 2724poe    c3111077   0.583   4.295   6.052 -0.2678 -0.1160 -0.1835
 2724poe     o211078   0.614   4.273   5.917 -0.0811  0.0580 -0.1701
 2724poe    c2311079   0.754   4.261   5.903  0.0026  0.4743  0.3141
 2724poe    c2311080   0.817   4.315   5.774 -0.4755 -0.2989 -0.2491
 2724poe     o211081   0.805   4.456   5.777  0.1102 -0.2516  0.0034
 2724poe    c2311082   0.883   4.533   5.688 -0.2723 -0.3395 -0.4128
 2724poe    c2311083   0.844   4.533   5.539 -0.1344  0.2185 -0.4510
 2724poe     o211084   0.728   4.602   5.501 -0.4954 -0.4265 -0.5295
 2724poe    c2311085   0.694   4.567   5.369  0.0981 -0.7340 -0.6009
 2724poe    c2311086   0.565   4.642   5.332  0.4699 -0.1565 -0.7441
 2724poe     o211087   0.459   4.605   5.418  0.2800  0.1219 -0.8565
 2724poe    c3111088   0.345   4.676   5.378  0.0530 -0.0680 -0.5511
 2725poe    c3111089   3.028   6.637   2.274 -0.5070 -0.4999  0.1356
 2725poe     o211090   3.099   6.520   2.239  0.3142  0.0340 -0.0307
 2725poe    c2311091   3.038   6.396   2.271  0.2020  0.0161 -0.3132
 2725poe    c2311092   3.128   6.292   2.202  0.2381 -0.3151  0.2284
 2725poe     o211093   3.261   6.326   2.235  0.2358  0.0243 -0.1031
 2725poe    c2311094   3.360   6.232   2.202  0.0425  0.0344 -0.7269
 2725poe    c2311095   3.489   6.266   2.279 -0.5469 -0.2887  0.4221
 2725poe     o211096   3.527   6.400   2.257  0.0448 -0.5269 -0.0386
 2725poe    c2311097   3.650   6.425   2.323 -0.0106  0.1355 -0.1815
 2725poe    c2311098   3.701   6.569   2.305 -0.2347  0.2335 -0.0258
 2725poe     o211099   3.601   6.650   2.364 -0.3456 -0.3092  0.5367
 2725poe    c3111100   3.616   6.785   2.327 -0.1978 -0.5677 -0.3596
 2726poe    c3111101   2.851   1.516   6.180  0.0802 -0.1414  0.3707
 2726poe     o211102   2.765   1.565   6.281 -0.0373 -0.2110  0.3060
 2726poe    c2311103   2.630   1.553   6.242  0.1885 -0.3882 -0.4304
 2726poe    c2311104   2.539   1.572   6.364  0.4239 -0.0045 -0.3123
 2726poe     o211105   2.538   1.467   6.457  0.2409  0.3093  0.0432
 2726poe    c2311106   2.417   1.458   6.530  0.3857 -0.2450  0.2192
 2726poe    c2311107   2.409   1.337   6.626  0.1832 -0.3561  0.0634
 2726poe     o211108   2.479   1.348   6.748  0.0054  0.4159  0.1021
 2726poe    c2311109   2.391   1.420   6.831 -0.3466 -0.2375  0.3083
 2726poe    c2311110   2.452   1.474   6.962 -0.3915  0.0809  0.1988
 2726poe     o211111   2.505   1.387   7.060 -0.3428 -0.2140 -0.0893
 2726poe    c3111112   2.392   1.340   7.128 -0.1889  0.1556  0.4286
 2727poe    c3111113   6.151   6.809   7.114 -0.3952  0.4042  0.0573
 2727poe     o211114   6.023   6.752   7.133 -0.1919 -0.2460 -0.4881
 2727poe    c2311115   5.970   6.772   7.262 -0.2689 -0.7970 -0.4328
 2727poe    c2311116   5.829   6.711   7.268 -0.4420 -0.3761 -0.1982
 2727poe     o211117   5.737   6.813   7.236  0.1433  0.2065 -0.0370
 2727poe    c2311118   5.605   6.770   7.262  0.1877 -0.2984 -0.6504
 2727poe    c2311119   5.510   6.873   7.198 -0.4962 -0.8338 -0.5048
 2727poe     o211120   5.483   6.893   7.061 -0.4811  0.1139 -0.3750
 2727poe    c2311121   5.456   6.773   6.992 -0.1884 -0.2262  0.0884
 2727poe    c2311122   5.392   6.800   6.854 -0.1191 -0.3021  0.0411
 2727poe     o211123   5.494   6.837   6.764 -0.4729 -0.1755 -0.3087
 2727poe    c3111124   5.463   6.868   6.630  0.7269 -0.1404 -0.5900
 2728poe    c3111125   0.786   2.725   6.886 -0.2321 -0.5323 -0.3197
 2728poe     o211126   0.707   2.632   6.957 -0.0738 -0.4047  0.0223
 2728poe    c2311127   0.567   2.627   6.945 -0.1717  0.0904  0.8176
 2728poe    c2311128   0.506   2.644   6.804 -0.1618 -0.1208  0.7871
 2728poe     o211129   0.480   2.517   6.748  0.9033 -0.1605  0.3583
 2728poe    c2311130   0.478   2.511   6.607  0.7492 -0.1267  0.3580
 2728poe    c2311131   0.397   2.388   6.561  0.3176  0.3952 -0.2914
 2728poe     o211132   0.263   2.416   6.594  0.1299 -0.2958 -0.4720
 2728poe    c2311133   0.183   2.300   6.599 -0.2838 -0.0172 -0.5615
 2728poe    c2311134   0.040   2.332   6.646 -0.1838  0.0099 -0.2771
 2728poe     o211135   0.049   2.396   6.772 -0.4829 -0.0857 -0.2055
 2728poe    c3111136  -0.074   2.454   6.808 -0.4585 -0.0990 -0.0998
 2729poe    c3111137   2.573   2.225   0.968  0.0788  0.9401  0.2957
 2729poe     o211138   2.657   2.116   0.937 -0.4965  0.6646 -0.3206
 2729poe    c2311139   2.773   2.141   0.862 -0.2082  0.8073  0.1654
 2729poe    c2311140   2.865   2.019   0.840 -1.1133  0.2103 -0.4044
 2729poe     o211141   2.801   1.918   0.767 -0.4287 -0.7050  0.2313
 2729poe    c2311142   2.824   1.932   0.628  0.2521 -0.5114  0.3614
 2729poe    c2311143   2.788   1.794   0.569  0.0620 -0.2529 -0.1343
 2729poe     o211144   2.669   1.739   0.621  0.2039  0.1489  0.6278
 2729poe    c2311145   2.656   1.602   0.594 -0.1395  0.2894  0.0746
 2729poe    c2311146   2.520   1.554   0.649  0.2251 -0.6770  0.1576
 2729poe     o211147   2.523   1.603   0.781  0.3230 -0.1025 -0.0552
 2729poe    c3111148   2.407   1.558   0.847 -0.1014  0.0710 -0.6735
 2730poe    c3111149   0.357   0.121   3.390 -0.2317  0.2029  0.3528
 2730poe     o211150   0.256   0.062   3.468 -0.5437  0.3338  0.0541
 2730poe    c2311151   0.248   0.107   3.602  0.7747  0.3286  0.1480
 2730poe    c2311152   0.180   0.244   3.625  0.3159  0.1089  0.1155
 2730poe     o211153   0.059   0.243   3.553  0.4028  0.3135 -0.0341
 2730poe    c2311154  -0.013   0.362   3.573  0.0788  0.2464 -0.7554
 2730poe    c2311155  -0.157   0.340   3.522 -0.1185 -0.0687 -0.0770
 2730poe     o211156  -0.147   0.321   3.383  0.0632 -0.1981 -0.0475
 2730poe    c2311157  -0.277   0.321   3.327  0.0538 -0.0027 -0.0274
 2730poe    c2311158  -0.294   0.298   3.176  0.2349 -0.1244 -0.0299
 2730poe     o211159  -0.271   0.163   3.145 -0.3309 -0.3581  0.5480
 2730poe    c3111160  -0.299   0.141   3.008  0.4086 -0.0340  0.3411
 2731poe    c3111161   2.440   5.066   1.302  0.3200 -0.5228 -0.1889
 2731poe     o211162   2.430   5.141   1.183 -0.1668  0.0960  0.2327
 2731poe    c2311163   2.521   5.248   1.189 -0.2546  0.1830  0.0293
 2731poe    c2311164   2.577   5.287   1.051  0.0500 -0.1375  0.0601
 2731poe     o211165   2.646   5.176   0.999 -0.0417 -0.0399 -0.2729
 2731poe    c2311166   2.725   5.213   0.888  0.7308 -0.0852  0.2456
 2731poe    c2311167   2.801   5.094   0.826  0.4779 -0.3000  0.3422
 2731poe     o211168   2.717   5.021   0.739  0.0021  0.2660  0.3176
 2731poe    c2311169   2.800   4.944   0.655 -0.0080  0.2246  0.3454
 2731poe    c2311170   2.718   4.871   0.547 -0.1321  0.1675  0.4791
 2731poe     o211171   2.647   4.765   0.607 -0.6358  0.3129  0.1431
 2731poe    c3111172   2.571   4.698   0.508 -0.1269  0.6610 -0.4946
 2732poe    c3111173   1.156   7.184   2.573  0.7239  0.1208 -0.2717
 2732poe     o211174   1.163   7.226   2.708 -0.1066 -0.3801 -0.0661
 2732poe    c2311175   1.051   7.168   2.772 -0.1115 -0.1774  0.1057
 2732poe    c2311176   1.063   7.165   2.926 -0.5706  0.1838  0.1495
 2732poe     o211177   1.068   7.300   2.968 -0.4224  0.2532 -0.0854
 2732poe    c2311178   1.040   7.313   3.106 -0.4413  0.3735 -0.1001
 2732poe    c2311179   1.089   7.451   3.154 -0.1907  0.1448  0.3099
 2732poe     o211180   1.021   7.551   3.082 -0.0269  0.2122  0.2501
 2732poe    c2311181   1.084   7.677   3.096  0.4991 -0.0580  0.3417
 2732poe    c2311182   1.020   7.774   2.995  1.2345 -0.3271 -0.3980
 2732poe     o211183   0.981   7.701   2.880 -0.0511 -0.0850 -0.1283
 2732poe    c3111184   0.947   7.790   2.776 -0.1253 -0.2920 -0.2810
 2733poe    c3111185   4.371   6.479   2.823  0.6566 -0.1643 -0.3881
 2733poe     o211186   4.449   6.436   2.932  0.3070  0.0520 -0.0500
 2733poe    c2311187   4.474   6.297   2.934  0.0176  0.0071  0.6465
 2733poe    c2311188   4.546   6.267   3.066  0.2406  0.0329  0.5307
 2733poe     o211189   4.646   6.367   3.066 -0.0128  0.2939 -0.1836
 2733poe    c2311190   4.723   6.369   3.184 -0.4719  0.2135  0.1222
 2733poe    c2311191   4.829   6.474   3.145  0.1484 -0.6076 -0.4507
 2733poe     o211192   4.778   6.582   3.070  0.2159 -0.0159  0.3480
 2733poe    c2311193   4.874   6.684   3.091  0.1237  0.1724 -0.1365
 2733poe    c2311194   4.851   6.814   3.012 -0.2709  0.0686 -0.1962
 2733poe     o211195   4.834   6.779   2.876 -0.6386 -0.2832 -0.0628
 2733poe    c3111196   4.817   6.906   2.816  0.8236  0.3350  0.7556
 2734poe    c3111197   6.619   0.761   5.977 -0.2862  0.6165 -0.7073
 2734poe     o211198   6.502   0.839   5.979 -0.2504  0.6583  0.0422
 2734poe    c2311199   6.459   0.834   6.113  0.2062  0.4485  0.1834
 2734poe    c2311200   6.363   0.952   6.138 -0.3237  0.1000 -0.1914
 2734poe     o211201   6.290   0.964   6.017  0.3645 -0.1122 -0.6315
 2734poe    c2311202   6.200   1.070   6.039  0.4515 -0.0712 -0.4698
 2734poe    c2311203   6.133   1.105   5.906 -0.1392 -0.2895 -0.2319
 2734poe     o211204   6.233   1.104   5.807  0.1091  0.0460  0.0157
 2734poe    c2311205   6.172   1.159   5.692  0.0407  0.1475  0.1008
 2734poe    c2311206   6.267   1.179   5.572 -0.4125 -0.8814 -0.4447
 2734poe     o211207   6.310   1.052   5.528 -0.0401 -0.7295 -0.5289
 2734poe    c3111208   6.402   1.079   5.425 -0.2349 -0.0390 -0.5277
 2735poe    c3111209   2.677   6.750   7.081 -0.3819 -0.1288  0.5747
 2735poe     o211210   2.672   6.882   7.130 -0.3466 -0.0550  0.3798
 2735poe    c2311211   2.756   6.965   7.052 -0.0194 -0.5681  0.1810
 2735poe    c2311212   2.801   7.093   7.125 -0.3650 -0.2654 -0.1345
 2735poe     o211213   2.675   7.144   7.162 -0.1764 -0.1753  0.3854
 2735poe    c2311214   2.685   7.277   7.210 -0.1432 -0.3477  0.8680
 2735poe    c2311215   2.541   7.327   7.233 -0.0598  0.2818  0.0701
 2735poe     o211216   2.459   7.213   7.240 -0.1600  0.3194 -0.4537
 2735poe    c2311217   2.326   7.253   7.266 -0.0457 -0.2069  1.0692
 2735poe    c2311218   2.218   7.144   7.272 -0.1981 -0.1011  0.3323
 2735poe     o211219   2.252   7.054   7.375  0.1849  0.1909  0.4607
 2735poe    c3111220   2.145   7.043   7.466 -0.3213  0.3740 -0.1049
 2736poe    c3111221   0.321   3.365   3.077 -0.5581  0.4054 -0.2871
 2736poe     o211222   0.388   3.479   3.124  0.0476 -0.1092  0.1202
 2736poe    c2311223   0.354   3.590   3.043  0.6924 -0.1873 -0.2606
 2736poe    c2311224   0.359   3.724   3.118  0.1846 -0.2424 -0.1250
 2736poe     o211225   0.472   3.756   3.196  0.1423  0.0268 -0.1744
 2736poe    c2311226   0.445   3.848   3.299  0.2668 -0.1783  0.0426
 2736poe    c2311227   0.564   3.928   3.355 -0.3926  0.7914  0.1036
 2736poe     o211228   0.628   3.888   3.474  0.0060  0.4789 -0.2124
 2736poe    c2311229   0.721   3.782   3.482 -0.2622  0.2808  0.3772
 2736poe    c2311230   0.743   3.758   3.632  0.0940  0.3724  0.3414
 2736poe     o211231   0.626   3.717   3.700 -0.3360  0.2020 -0.4916
 2736poe    c3111232   0.658   3.709   3.837 -0.2860  0.3593 -0.4936
 2737poe    c3111233   3.372   2.007   2.747  0.2143  0.3194  0.5124
 2737poe     o211234   3.510   1.987   2.770  0.2503 -0.1217 -0.0774
 2737poe    c2311235   3.550   1.855   2.800  0.2825 -0.0352  0.2687
 2737poe    c2311236   3.680   1.832   2.879  0.5489  0.0672 -0.1321
 2737poe     o211237   3.649   1.844   3.016 -0.2626  0.2412 -0.3264
 2737poe    c2311238   3.759   1.806   3.095 -0.3115  0.4135 -0.1751
 2737poe    c2311239   3.719   1.827   3.242  0.0913 -0.7250  0.1020
 2737poe     o211240   3.622   1.743   3.300 -0.5290 -0.1411 -0.0782
 2737poe    c2311241   3.678   1.626   3.356  0.0939 -0.0068 -0.4100
 2737poe    c2311242   3.570   1.533   3.416  0.3669  0.1978  0.4122
 2737poe     o211243   3.456   1.557   3.336  0.6809 -0.2284 -0.1718
 2737poe    c3111244   3.369   1.447   3.339  0.0417  0.2812  0.3075
 2738poe    c3111245   4.774   2.042   1.720  0.1173  0.8476 -0.6069
 2738poe     o211246   4.886   1.968   1.764 -0.7299  0.0325  0.2266
 2738poe    c2311247   4.965   1.896   1.672 -0.3314  0.4634  0.2274
 2738poe    c2311248   5.088   1.841   1.745 -0.0957  0.2757 -0.3082
 2738poe     o211249   5.143   1.938   1.830  0.0981 -0.6480  0.6444
 2738poe    c2311250   5.280   1.915   1.858  0.3158 -0.2396 -0.0573
 2738poe    c2311251   5.312   1.977   1.996 -0.0720  0.2130 -0.1651
 2738poe     o211252   5.220   2.083   2.000  0.1154  0.3672  0.0671
 2738poe    c2311253   5.265   2.188   2.083  0.3958  0.2713  0.0370
 2738poe    c2311254   5.209   2.183   2.226  0.1308  0.3006 -0.0644
 2738poe     o211255   5.069   2.165   2.215  0.1161  0.5341 -0.2698
 2738poe    c3111256   5.017   2.154   2.346  0.2727 -0.6491 -0.2913
 2739poe    c3111257   0.958   6.073   5.433 -0.1911 -0.4341 -0.1296
 2739poe     o211258   1.003   6.166   5.337 -0.1999 -0.3285 -0.0332
 2739poe    c2311259   1.140   6.151   5.306 -0.3498 -0.6284 -0.5732
 2739poe    c2311260   1.187   6.260   5.209 -0.1232  0.2219  0.4645
 2739poe     o211261   1.126   6.253   5.081 -0.0868  0.0833  0.4552
 2739poe    c2311262   1.178   6.364   5.012 -0.1185 -0.1703  0.0203
 2739poe    c2311263   1.135   6.337   4.867 -0.5317 -0.1244  0.1320
 2739poe     o211264   0.995   6.319   4.868 -0.5805  0.2685  0.4167
 2739poe    c2311265   0.957   6.299   4.734  0.2747 -0.3177  0.2547
 2739poe    c2311266   0.804   6.287   4.740  0.2928 -0.5331  0.2875
 2739poe     o211267   0.774   6.224   4.862  0.3779 -0.9097  0.1176
 2739poe    c3111268   0.638   6.185   4.865  0.3093 -0.7333 -0.5363
 2740poe    c3111269   0.055   1.393   6.561 -0.1018  0.2247 -0.1509
 2740poe     o211270   0.048   1.279   6.478 -0.5891  0.0659  0.1049
 2740poe    c2311271  -0.085   1.238   6.454 -0.5085 -0.5601  0.6901
 2740poe    c2311272  -0.062   1.112   6.368  0.1633  0.0685 -0.0774
 2740poe     o211273   0.058   1.111   6.294  0.2942  0.0524  0.1340
 2740poe    c2311274   0.053   1.003   6.203  0.3447  0.0525  0.1307
 2740poe    c2311275   0.175   1.023   6.112  0.1941  0.8572  0.1012
 2740poe     o211276   0.291   1.052   6.187  0.4522  0.2601 -0.0620
 2740poe    c2311277   0.397   1.076   6.097  0.0996  1.3307 -0.2123
 2740poe    c2311278   0.527   1.123   6.164  0.2983 -0.0362  0.3955
 2740poe     o211279   0.515   1.245   6.234  0.2434  0.1321  0.0897
 2740poe    c3111280   0.643   1.305   6.242  0.3457 -0.0349 -0.2576
 2741poe    c3111281   3.081   1.178   1.324  0.4594  0.4092  0.1687
 2741poe     o211282   3.035   1.183   1.457  0.3354 -0.0928  0.1460
 2741poe    c2311283   2.901   1.140   1.460  0.4077 -0.3080  0.3241
 2741poe    c2311284   2.854   1.170   1.604 -0.9103  0.0211 -0.1572
 2741poe     o211285   2.870   1.307   1.634  0.8697 -0.1873 -0.0039
 2741poe    c2311286   2.776   1.345   1.732  0.2385  0.0695 -0.6961
 2741poe    c2311287   2.770   1.499   1.738  0.0014  0.0334  0.1644
 2741poe     o211288   2.891   1.564   1.769  0.1901 -0.1298 -0.2265
 2741poe    c2311289   2.881   1.704   1.770 -0.6560 -0.1790 -0.7073
 2741poe    c2311290   3.008   1.758   1.702 -0.2201  0.0175  0.2356
 2741poe     o211291   3.121   1.685   1.746 -0.1776 -0.1878 -0.2029
 2741poe    c3111292   3.237   1.764   1.736 -0.8151  0.7747 -0.1122
 2742poe    c3111293   2.707   0.309   5.352 -0.0176  0.2814  0.5617
 2742poe     o211294   2.681   0.366   5.225  0.2689 -0.1871  0.2895
 2742poe    c2311295   2.767   0.317   5.125 -0.2624  0.3574 -0.4437
 2742poe    c2311296   2.904   0.388   5.120 -0.1113  0.0700 -0.4196
 2742poe     o211297   2.894   0.525   5.086 -0.2226  0.3976  0.8823
 2742poe    c2311298   3.013   0.594   5.120  0.1631 -0.0318  0.4204
 2742poe    c2311299   3.141   0.571   5.037  0.0488  0.5643  0.0765
 2742poe     o211300   3.114   0.644   4.920  0.2967  0.6290  0.0590
 2742poe    c2311301   3.223   0.632   4.831  0.2132 -0.1378  0.0609
 2742poe    c2311302   3.371   0.656   4.867  0.2199 -0.3474  0.1827
 2742poe     o211303   3.394   0.792   4.895 -0.1064 -0.1530 -0.4537
 2742poe    c3111304   3.509   0.799   4.976 -0.4247 -0.0129 -0.0075
 2743poe    c3111305   4.865   3.802   5.441  0.0350  0.4163 -0.0906
 2743poe     o211306   4.841   3.770   5.576  0.0511  0.0666 -0.1683
 2743poe    c2311307   4.840   3.630   5.580  0.3894  0.0684 -0.0289
 2743poe    c2311308   4.783   3.578   5.713  0.2773 -0.6277 -0.3420
 2743poe     o211309   4.654   3.626   5.748  0.7105  0.2305  0.1205
 2743poe    c2311310   4.586   3.525   5.819 -0.1334  0.3941 -0.4403
 2743poe    c2311311   4.435   3.535   5.794 -0.1629 -0.1571 -0.4958
 2743poe     o211312   4.386   3.666   5.805 -0.2660 -0.1792 -0.6734
 2743poe    c2311313   4.249   3.698   5.818 -0.1510  0.1027 -0.0777
 2743poe    c2311314   4.225   3.850   5.820 -0.5683  0.0323  0.5180
 2743poe     o211315   4.275   3.916   5.706 -0.1333 -0.1236  0.6135
 2743poe    c3111316   4.201   4.031   5.671  0.7157  0.1354 -0.3811
 2744poe    c3111317   1.753   2.032   3.519 -0.3287  0.1927  0.2750
 2744poe     o211318   1.617   2.013   3.486 -0.1178 -0.6807 -0.1291
 2744poe    c2311319   1.540   2.005   3.604  0.4180 -0.0149  0.2764
 2744poe    c2311320   1.392   2.035   3.573  0.3211 -0.2175  0.5423
 2744poe     o211321   1.341   1.932   3.491 -0.7657  0.3601  0.4778
 2744poe    c2311322   1.299   1.821   3.566  0.8099 -0.8056 -0.3131
 2744poe    c2311323   1.218   1.716   3.487  0.0704 -0.0475 -0.5790
 2744poe     o211324   1.125   1.768   3.395  0.5911  0.2648 -0.9324
 2744poe    c2311325   1.051   1.665   3.335 -0.5072  0.3024  0.3276
 2744poe    c2311326   0.990   1.710   3.200  0.1815  0.8510  0.1941
 2744poe     o211327   1.090   1.741   3.106  0.1796  0.2432 -0.0155
 2744poe    c3111328   1.040   1.736   2.974 -0.1121 -0.3349  0.1159
 2745poe    c3111329   2.125   3.130   6.245  0.0866  0.6870 -0.3910
 2745poe     o211330   2.086   3.051   6.135  0.1585 -0.0460  0.1112
 2745poe    c2311331   2.004   2.937   6.157  0.4349 -0.2695 -0.0151
 2745poe    c2311332   1.933   2.905   6.025 -0.2742  0.1976  0.2467
 2745poe     o211333   1.842   3.005   5.984 -0.4891 -0.1283 -0.0781
 2745poe    c2311334   1.865   3.061   5.857  0.9750 -0.1095  0.1752
 2745poe    c2311335   1.859   3.214   5.857 -0.1550 -0.1405 -0.2834
 2745poe     o211336   1.970   3.262   5.930 -0.0980 -0.2511 -0.2977
 2745poe    c2311337   1.949   3.391   5.983 -0.0099 -0.3051 -0.1301
 2745poe    c2311338   2.077   3.457   6.036  0.0563 -0.4264 -0.1391
 2745poe     o211339   2.165   3.506   5.937  0.2400 -0.1525  0.1588
 2745poe    c3111340   2.284   3.548   6.000  0.4303 -0.2639 -0.1294
 2746poe    c3111341   6.814   0.070   6.862 -0.1445  0.2830 -0.0078
 2746poe     o211342   6.875   0.142   6.966 -0.0571  0.4363 -0.1643
 2746poe    c2311343   7.009   0.166   6.928 -0.0235  0.0103 -0.3167
 2746poe    c2311344   7.069   0.283   7.008 -0.1049  0.0977 -0.3829
 2746poe     o211345   7.096   0.262   7.145  0.4787 -0.0791 -0.5209
 2746poe    c2311346   7.207   0.180   7.174 -0.2093 -0.7794  0.1875
 2746poe    c2311347   7.195   0.088   7.296  0.5450 -0.5712  0.4280
 2746poe     o211348   7.192   0.167   7.413  0.2715  0.4183 -0.2344
 2746poe    c2311349   7.198   0.078   7.523  0.2881  0.3956 -0.2534
 2746poe    c2311350   7.165   0.147   7.657  0.0306 -0.3247  0.0547
 2746poe     o211351   7.260   0.230   7.719 -0.5263  0.3826 -0.0299
 2746poe    c3111352   7.214   0.261   7.849 -0.8618 -0.2643  0.0086
 2747poe    c3111353   5.310   5.576   2.663  0.3110 -0.2158 -0.1690
 2747poe     o211354   5.289   5.664   2.555  0.3405  0.0496  0.0406
 2747poe    c2311355   5.336   5.618   2.431 -0.5367 -0.2824 -0.1697
 2747poe    c2311356   5.273   5.700   2.316  0.0812  0.1311 -0.2157
 2747poe     o211357   5.310   5.835   2.303  0.5055 -0.0023 -0.4128
 2747poe    c2311358   5.219   5.909   2.225  0.2432 -0.1021 -0.2052
 2747poe    c2311359   5.234   6.061   2.241  0.0496 -0.0685 -0.3413
 2747poe     o211360   5.229   6.078   2.381  0.2964 -0.1366 -0.3252
 2747poe    c2311361   5.249   6.212   2.419  0.1955 -0.3167  0.3896
 2747poe    c2311362   5.230   6.235   2.570  0.0513 -0.0571  0.3330
 2747poe     o211363   5.105   6.187   2.614 -0.0872 -0.0452 -0.0434
 2747poe    c3111364   5.076   6.247   2.738 -0.6296 -0.0944 -0.1438
 2748poe    c3111365   4.134   6.168   1.863  0.3847  0.2610  0.0271
 2748poe     o211366   4.165   6.298   1.908 -0.2842  0.3307  0.2887
 2748poe    c2311367   4.283   6.290   1.985  0.0835 -0.0136 -0.3025
 2748poe    c2311368   4.305   6.429   2.048  0.1673 -0.0798 -0.1833
 2748poe     o211369   4.270   6.534   1.961 -0.7476 -0.1675  0.0658
 2748poe    c2311370   4.316   6.658   2.011 -0.4411 -0.2783  0.0603
 2748poe    c2311371   4.229   6.728   2.117  0.0128 -0.2133  0.3936
 2748poe     o211372   4.108   6.774   2.060  0.1480 -0.0024  0.2753
 2748poe    c2311373   4.036   6.854   2.151 -0.2533 -0.1799  0.1178
 2748poe    c2311374   3.935   6.944   2.078  0.1804  0.2556  0.0507
 2748poe     o211375   3.863   6.875   1.979 -0.2156  0.4008  0.2391
 2748poe    c3111376   3.857   6.957   1.864 -0.8093 -0.2509 -0.2050
 2749poe    c3111377   3.901   7.224   5.854  0.5322 -0.1022  0.3038
 2749poe     o211378   3.857   7.091   5.867  0.5589 -0.1516 -0.0935
 2749poe    c2311379   3.954   7.006   5.809  0.2557 -0.1303 -0.6355
 2749poe    c2311380   3.897   6.863   5.819  0.1482 -0.0408  0.1151
 2749poe     o211381   3.856   6.873   5.953 -0.3075  0.4026 -0.0538
 2749poe    c2311382   3.769   6.769   5.993 -0.0321  0.0547 -0.3553
 2749poe    c2311383   3.715   6.792   6.135 -0.1028 -0.2268 -0.3368
 2749poe     o211384   3.663   6.923   6.148 -0.0424 -0.1886 -0.4744
 2749poe    c2311385   3.577   6.917   6.260  0.0576  0.1671 -0.3786
 2749poe    c2311386   3.514   7.050   6.305 -0.5373 -0.0910 -0.4383
 2749poe     o211387   3.616   7.135   6.353 -0.5342 -0.0449 -0.5255
 2749poe    c3111388   3.568   7.249   6.421 -0.3272 -0.1121 -0.2666
 2750poe    c3111389   1.775   2.787   1.377  0.0399  0.7134 -0.5694
 2750poe     o211390   1.698   2.892   1.322  0.0848  0.8979 -0.2834
 2750poe    c2311391   1.585   2.842   1.254 -0.0593  0.1901  0.4619
 2750poe    c2311392   1.486   2.941   1.191  0.5813  0.3864 -0.2441
 2750poe     o211393   1.407   3.017   1.280  0.3425 -0.3476  0.1779
 2750poe    c2311394   1.291   3.054   1.209  0.1344 -0.4269  0.4740
 2750poe    c2311395   1.207   3.154   1.290  0.5805  0.1800  0.1939
 2750poe     o211396   1.299   3.256   1.322  0.6321  0.1881  0.0204
 2750poe    c2311397   1.230   3.379   1.324  0.4358  0.0991 -0.8706
 2750poe    c2311398   1.335   3.492   1.332  0.3340  0.1120  0.3936
 2750poe     o211399   1.415   3.474   1.218 -0.1645 -0.2039  0.0902
 2750poe    c3111400   1.508   3.580   1.213 -0.0097 -0.3365  0.1764
 2751poe    c3111401   0.536   3.924   5.321  0.5518  0.2437  0.7418
 2751poe     o211402   0.616   4.039   5.300 -0.2571  0.7025  0.1009
 2751poe    c2311403   0.756   4.033   5.313 -0.2461  0.5034 -0.1053
 2751poe    c2311404   0.830   4.167   5.329  0.4968  0.1017 -0.1200
 2751poe     o211405   0.844   4.220   5.199 -0.3551  0.5087 -0.0513
 2751poe    c2311406   0.947   4.315   5.189  0.4326 -0.3504 -0.2227
 2751poe    c2311407   0.962   4.378   5.049 -0.2172  0.2857 -0.0071
 2751poe     o211408   1.016   4.299   4.946 -0.3743  0.1710 -0.0015
 2751poe    c2311409   1.047   4.374   4.831  0.7132  0.3026  0.3658
 2751poe    c2311410   1.117   4.288   4.725 -0.7241  0.0774 -0.4328
 2751poe     o211411   1.030   4.195   4.664 -0.2830 -0.7136  0.1157
 2751poe    c3111412   1.132   4.121   4.600  0.3793 -0.0679  0.4032
 2752poe    c3111413   1.327   3.869   4.408 -0.2025 -0.4635  0.3957
 2752poe     o211414   1.189   3.859   4.437 -0.3154 -0.1601 -0.0294
 2752poe    c2311415   1.128   3.732   4.434  0.1483 -0.3748 -0.4750
 2752poe    c2311416   1.030   3.698   4.548  0.5095 -0.5550 -0.2180
 2752poe     o211417   0.901   3.750   4.527  0.5437 -0.4506 -0.1704
 2752poe    c2311418   0.823   3.698   4.633  0.1568 -0.2377 -0.3466
 2752poe    c2311419   0.678   3.749   4.637 -0.0100 -0.7821  0.7962
 2752poe     o211420   0.653   3.860   4.720  0.2607 -0.1025 -0.0172
 2752poe    c2311421   0.526   3.921   4.717  0.3316  0.0428 -0.0766
 2752poe    c2311422   0.519   3.998   4.850 -0.3263  0.3890 -0.3067
 2752poe     o211423   0.634   4.079   4.844 -0.3482  0.4364 -0.0933
 2752poe    c3111424   0.645   4.158   4.960 -0.5589  0.7000 -0.2552
 2753poe    c3111425   4.277   0.694   6.048  0.6405  0.0390  0.3597
 2753poe     o211426   4.247   0.637   5.923 -0.8159  0.5911  0.4398
 2753poe    c2311427   4.225   0.499   5.940 -0.1253  0.3920 -0.2130
 2753poe    c2311428   4.205   0.410   5.815 -0.7865  0.0546  0.1259
 2753poe     o211429   4.096   0.444   5.733 -0.0697  0.1309 -0.8077
 2753poe    c2311430   3.974   0.395   5.783  0.2942  0.1038  0.0662
 2753poe    c2311431   3.849   0.456   5.716  0.1454 -0.0570  0.1959
 2753poe     o211432   3.810   0.585   5.758  0.3611  0.1984 -0.3803
 2753poe    c2311433   3.724   0.658   5.674 -0.1229  0.0110 -0.0477
 2753poe    c2311434   3.805   0.746   5.578  0.0237 -0.1435 -0.0671
 2753poe     o211435   3.893   0.838   5.638 -0.0465 -0.2215  0.1539
 2753poe    c3111436   3.919   0.930   5.534 -0.1217 -0.1938  0.1595
 2754poe    c3111437   0.170   5.535   5.570 -0.2547 -0.0054 -0.4253
 2754poe     o211438   0.215   5.601   5.454  0.0936 -0.1443 -0.3715
 2754poe    c2311439   0.103   5.664   5.395  0.3009  0.4762 -0.1106
 2754poe    c2311440   0.146   5.699   5.251 -0.0341  0.0058 -0.3255
 2754poe     o211441   0.274   5.753   5.271 -0.2462  0.3802  0.0389
 2754poe    c2311442   0.339   5.764   5.146 -0.3298  0.0647 -0.0333
 2754poe    c2311443   0.475   5.826   5.183 -0.1604 -0.2195 -0.1780
 2754poe     o211444   0.555   5.748   5.269 -0.5238 -0.4059 -0.0032
 2754poe    c2311445   0.679   5.815   5.274 -0.4077 -0.5776 -0.4466
 2754poe    c2311446   0.774   5.762   5.383 -0.0293  0.6334 -0.1595
 2754poe     o211447   0.704   5.771   5.505 -0.0274  0.2562 -0.1284
 2754poe    c3111448   0.798   5.747   5.607  0.0295 -0.6878 -0.3971
 2755poe    c3111449   2.544   5.191   5.245  0.4164  0.3724 -0.1036
 2755poe     o211450   2.613   5.189   5.368  0.1925  0.3699  0.0233
 2755poe    c2311451   2.532   5.215   5.480  0.2402 -0.9122  0.3608
 2755poe    c2311452   2.616   5.212   5.609  0.1706 -0.9075  0.4070
 2755poe     o211453   2.719   5.307   5.589 -0.0856 -0.7353 -0.1184
 2755poe    c2311454   2.818   5.294   5.689 -0.3609  1.1358  0.4277
 2755poe    c2311455   2.946   5.379   5.678  0.4413  0.0148  0.9573
 2755poe     o211456   3.022   5.371   5.559  0.2147  0.4118  0.7828
 2755poe    c2311457   3.077   5.498   5.535  0.3476  0.2729  0.3427
 2755poe    c2311458   3.151   5.510   5.401 -0.0694 -0.6902  0.0176
 2755poe     o211459   3.070   5.483   5.289 -0.2066  0.3059 -0.1385
 2755poe    c3111460   3.154   5.519   5.182  0.0439  0.7458  0.2049
 2756poe    c3111461   0.430   4.309   1.539  0.1308 -0.0885 -0.4771
 2756poe     o211462   0.534   4.373   1.468  0.4973 -0.1228  0.0241
 2756poe    c2311463   0.600   4.274   1.393  0.8333  0.3459 -0.3044
 2756poe    c2311464   0.678   4.356   1.288  0.5095  0.1486 -0.6996
 2756poe     o211465   0.793   4.414   1.346  0.7400 -0.4406 -0.5629
 2756poe    c2311466   0.841   4.515   1.260  0.4618  0.4788  0.3595
 2756poe    c2311467   0.940   4.615   1.324  0.8640 -0.0131  0.5113
 2756poe     o211468   0.874   4.680   1.430 -0.1941  0.1038 -0.1990
 2756poe    c2311469   0.974   4.757   1.492  0.1158 -0.2790 -0.2183
 2756poe    c2311470   0.923   4.791   1.634 -0.2191 -0.7362 -0.2272
 2756poe     o211471   0.783   4.810   1.638 -0.1810 -0.5389  0.1897
 2756poe    c3111472   0.748   4.830   1.773 -0.2284  0.4604  0.0347
 2757poe    c3111473   3.850   4.758   3.166 -0.1575  0.6802  0.5348
 2757poe     o211474   3.764   4.836   3.087  0.3882  0.1447 -0.6098
 2757poe    c2311475   3.853   4.917   3.014  0.7906  0.4710  0.2378
 2757poe    c2311476   3.776   5.020   2.928 -0.3807 -0.6032 -0.0341
 2757poe     o211477   3.708   4.976   2.813 -0.0954  0.0292 -0.4487
 2757poe    c2311478   3.797   4.949   2.707 -0.0286  0.2421 -0.4473
 2757poe    c2311479   3.730   4.910   2.574  0.2262 -0.1238 -0.4698
 2757poe     o211480   3.652   5.015   2.522  0.2398  0.3732  0.4894
 2757poe    c2311481   3.696   5.064   2.397  0.1946 -0.1953  0.2490
 2757poe    c2311482   3.622   5.196   2.366  0.1956 -0.2687 -0.0736
 2757poe     o211483   3.496   5.189   2.305  0.1885 -0.3185 -0.0531
 2757poe    c3111484   3.504   5.239   2.173  0.3427 -0.3464 -0.0539
 2758poe    c3111485   2.870   0.503   0.684 -0.2746  0.0358 -0.0114
 2758poe     o211486   2.793   0.611   0.637 -0.0263  0.2587  0.0885
 2758poe    c2311487   2.789   0.711   0.736  0.0925  0.5579 -0.2048
 2758poe    c2311488   2.694   0.823   0.689  0.2989  0.4008 -0.9923
 2758poe     o211489   2.573   0.762   0.650  0.0064  0.2620  0.1087
 2758poe    c2311490   2.493   0.869   0.605 -0.1575  0.0773 -0.0443
 2758poe    c2311491   2.364   0.799   0.558 -0.1637  0.3645 -0.4618
 2758poe     o211492   2.403   0.719   0.449 -0.1572  0.1862 -0.3286
 2758poe    c2311493   2.291   0.690   0.368 -0.2735 -0.5440  0.0849
 2758poe    c2311494   2.307   0.612   0.236  0.4058 -0.5744  0.1777
 2758poe     o211495   2.198   0.593   0.149  0.4162 -0.2904  0.1042
 2758poe    c3111496   2.213   0.484   0.061 -0.8433 -0.0541 -0.4248
 2759poe    c3111497   2.718   0.569   4.149 -0.2495  0.3585 -0.1316
 2759poe     o211498   2.750   0.669   4.055  0.8454 -0.0783 -0.2359
 2759poe    c2311499   2.646   0.761   4.078  0.5383 -0.6156  0.5949
 2759poe    c2311500   2.669   0.906   4.030 -0.0485 -0.3673  1.0501
 2759poe     o211501   2.775   0.977   4.092  0.3789  0.2650 -0.3674
 2759poe    c2311502   2.771   1.111   4.048 -0.2172  0.4936  0.3543
 2759poe    c2311503   2.888   1.187   4.113  0.4028 -0.5070  0.4414
 2759poe     o211504   2.852   1.191   4.249 -0.2679  0.0372  0.2528
 2759poe    c2311505   2.945   1.249   4.337  0.3038 -0.6765  0.1184
 2759poe    c2311506   2.910   1.239   4.487 -0.2375  0.6218  0.0904
 2759poe     o211507   2.884   1.106   4.527 -0.4073  0.5811 -0.1503
 2759poe    c3111508   2.819   1.120   4.651 -0.5936  0.3017 -0.2151
 2760poe    c3111509   2.941   6.121   6.090 -0.3716 -0.1106  0.3831
 2760poe     o211510   3.005   6.053   6.196  0.1595  0.1367  0.2206
 2760poe    c2311511   2.953   6.070   6.325  0.2746  0.3333  0.2437
 2760poe    c2311512   3.038   6.020   6.444  0.4174  0.4107  0.1733
 2760poe     o211513   3.045   5.880   6.427  0.0195  0.3446  0.5219
 2760poe    c2311514   3.071   5.804   6.542 -0.1690 -0.3844  0.0867
 2760poe    c2311515   2.957   5.707   6.578 -0.2058 -0.1727  0.5584
 2760poe     o211516   2.962   5.611   6.474 -0.2783  0.1348  0.2688
 2760poe    c2311517   2.904   5.491   6.521  0.2053 -0.2759 -0.1687
 2760poe    c2311518   2.834   5.415   6.407  0.0404 -0.2192 -0.1061
 2760poe     o211519   2.912   5.392   6.292  0.4836  0.2641  0.0948
 2760poe    c3111520   2.896   5.259   6.247  0.2485  0.4995 -0.5189
 2761poe    c3111521   2.404   1.718   1.724 -1.1272 -0.4930  0.2666
 2761poe     o211522   2.392   1.815   1.825 -0.1085 -0.1400  0.0677
 2761poe    c2311523   2.523   1.840   1.871  0.1133 -0.1895 -0.5309
 2761poe    c2311524   2.541   1.945   1.983 -0.4125  0.0931 -0.7086
 2761poe     o211525   2.481   1.901   2.103  0.4589  0.4553 -0.1341
 2761poe    c2311526   2.509   1.979   2.217  0.5034  0.1957  0.0333
 2761poe    c2311527   2.429   1.923   2.336  0.3835 -0.8705 -0.5399
 2761poe     o211528   2.291   1.914   2.309  0.3050 -0.2612 -0.3601
 2761poe    c2311529   2.220   1.909   2.430  0.1434 -0.1568 -0.4512
 2761poe    c2311530   2.079   1.856   2.396 -0.0175 -0.0233 -0.0039
 2761poe     o211531   2.048   1.911   2.270 -0.0279 -0.2127 -0.0840
 2761poe    c3111532   1.919   1.867   2.235  0.0701 -0.1689 -0.5135
 2762poe    c3111533   7.084   4.900   1.307 -0.3000 -1.0079 -0.1584
 2762poe     o211534   7.109   4.869   1.172  0.4780  0.2066 -0.3082
 2762poe    c2311535   7.164   4.965   1.084  0.4030  0.3514 -0.1973
 2762poe    c2311536   7.175   4.902   0.944 -0.3163  0.5872 -0.3625
 2762poe     o211537   7.048   4.844   0.921 -0.1993  0.1268  0.1268
 2762poe    c2311538   7.021   4.812   0.786 -0.3602 -0.0544  0.2023
 2762poe    c2311539   6.899   4.720   0.767  0.1363 -0.6915  0.0859
 2762poe     o211540   6.794   4.762   0.852  0.0359 -0.0649 -0.3423
 2762poe    c2311541   6.686   4.674   0.832 -0.3600  0.2881  0.2514
 2762poe    c2311542   6.555   4.715   0.903 -0.2962 -0.0215  0.5504
 2762poe     o211543   6.572   4.733   1.042  0.4250 -0.3584  0.5113
 2762poe    c3111544   6.460   4.799   1.097  0.5675  0.4362 -0.1265
 2763poe    c3111545   4.571   3.086   4.306  0.0728 -0.3119  0.7209
 2763poe     o211546   4.705   3.115   4.273 -0.1604 -0.0923 -0.0455
 2763poe    c2311547   4.790   3.067   4.375 -0.2836 -0.5058 -0.1370
 2763poe    c2311548   4.933   3.058   4.319 -0.2882 -0.1090 -0.2150
 2763poe     o211549   4.981   3.189   4.297 -0.7016  0.0189 -0.3666
 2763poe    c2311550   5.095   3.183   4.214  0.2866  0.2567  0.9500
 2763poe    c2311551   5.123   3.319   4.148  0.0075 -0.4390 -0.6636
 2763poe     o211552   5.029   3.360   4.051 -0.3009 -0.0787 -0.2185
 2763poe    c2311553   5.076   3.469   3.975  0.1035  0.2534  0.4893
 2763poe    c2311554   4.953   3.529   3.904 -0.0288 -0.0341  0.4771
 2763poe     o211555   4.881   3.425   3.841 -0.1414  0.5411 -0.3614
 2763poe    c3111556   4.778   3.485   3.765 -0.6507  0.1735  0.0223
 2764poe    c3111557   3.744   4.067   2.079 -0.1610 -0.0663  0.1673
 2764poe     o211558   3.758   4.083   2.218  0.5598  0.0961  0.0803
 2764poe    c2311559   3.782   3.958   2.278 -0.7245 -0.1849  0.0207
 2764poe    c2311560   3.847   3.961   2.418  0.0165 -0.0534 -0.3248
 2764poe     o211561   3.770   4.013   2.524  0.1894 -0.5842  0.0644
 2764poe    c2311562   3.707   3.918   2.607 -0.4150 -0.0271  0.2501
 2764poe    c2311563   3.634   4.010   2.706 -0.4307 -0.3112  0.5033
 2764poe     o211564   3.730   4.086   2.775 -0.2006 -0.0615 -0.0861
 2764poe    c2311565   3.693   4.124   2.906  0.3193  0.2291 -0.0176
 2764poe    c2311566   3.797   4.231   2.944  0.5399 -0.1217  0.3590
 2764poe     o211567   3.766   4.350   2.876  0.1883 -0.1927  0.3937
 2764poe    c3111568   3.884   4.425   2.893  0.2056 -0.3302  0.9049
 2765poe    c3111569   6.497   5.906   2.990  0.0522 -0.0921 -0.1581
 2765poe     o211570   6.637   5.901   3.007  0.0344  0.2662  0.1220
 2765poe    c2311571   6.675   5.963   3.128  0.7356  0.0013  0.0389
 2765poe    c2311572   6.775   5.878   3.210  1.0643  0.1106 -0.2442
 2765poe     o211573   6.712   5.764   3.265  0.7181  0.4045 -0.0293
 2765poe    c2311574   6.760   5.648   3.201  0.2967 -0.2234  0.7822
 2765poe    c2311575   6.755   5.518   3.283 -0.0685 -0.4144  0.4578
 2765poe     o211576   6.631   5.459   3.315 -0.5883  0.0237 -0.6756
 2765poe    c2311577   6.619   5.328   3.265 -0.5195 -0.3608  0.2913
 2765poe    c2311578   6.705   5.218   3.331  0.4303  0.1652 -0.0451
 2765poe     o211579   6.664   5.202   3.465  0.0850 -0.2120 -0.1929
 2765poe    c3111580   6.715   5.080   3.513  0.0505 -0.3124 -0.4083
 2766poe    c3111581   5.575   3.011   3.688  0.5958  0.2217  0.6486
 2766poe     o211582   5.478   2.976   3.783  0.4909  0.0068  0.4628
 2766poe    c2311583   5.454   2.839   3.758  0.1260  0.1095  0.2365
 2766poe    c2311584   5.304   2.807   3.742  0.1542  0.0853  0.0216
 2766poe     o211585   5.248   2.842   3.618  0.3669  0.4531  0.0284
 2766poe    c2311586   5.113   2.814   3.589  0.1834  0.4483  0.8696
 2766poe    c2311587   5.001   2.917   3.613 -0.1446  0.0882  0.8908
 2766poe     o211588   4.939   2.910   3.739 -0.2974 -0.0369  0.8098
 2766poe    c2311589   4.884   2.785   3.775  0.0701 -0.5184 -0.2864
 2766poe    c2311590   4.820   2.789   3.915 -0.4417 -0.3506 -0.5227
 2766poe     o211591   4.720   2.887   3.931 -0.3368 -0.2525 -0.4662
 2766poe    c3111592   4.634   2.878   4.042 -0.3558 -0.2812 -0.4829
 2767poe    c3111593   1.789   1.122   4.163  0.3763 -0.3629 -0.8343
 2767poe     o211594   1.900   1.114   4.250 -0.0551  0.1237 -0.2302
 2767poe    c2311595   1.882   1.016   4.349  0.8782  0.1981  0.0202
 2767poe    c2311596   1.960   1.031   4.482  0.1301 -0.2511  0.5171
 2767poe     o211597   2.097   1.002   4.487  0.1993 -0.1064 -0.2945
 2767poe    c2311598   2.156   1.065   4.599 -0.4803  0.2182 -0.1187
 2767poe    c2311599   2.308   1.045   4.601 -0.4509  0.4679  0.1956
 2767poe     o211600   2.357   1.055   4.469  0.0248 -0.6028  0.2770
 2767poe    c2311601   2.486   1.001   4.452  0.1412 -0.3922  0.4808
 2767poe    c2311602   2.490   0.848   4.430  0.1655 -0.3085 -0.1118
 2767poe     o211603   2.457   0.786   4.553 -0.4919 -0.3772 -0.3169
 2767poe    c3111604   2.452   0.645   4.547  0.1024 -0.4160 -0.0157
 2768poe    c3111605   0.776   3.806   5.821  0.5595 -0.8088 -0.1819
 2768poe     o211606   0.684   3.723   5.888  0.4425 -0.8870 -0.4366
 2768poe    c2311607   0.556   3.717   5.831  0.1470 -0.3467  0.1564
 2768poe    c2311608   0.480   3.611   5.913 -0.3808 -0.1426 -0.0647
 2768poe     o211609   0.573   3.507   5.931  0.1789  0.3967  0.1506
 2768poe    c2311610   0.515   3.396   5.994  0.1250  0.0582 -0.4865
 2768poe    c2311611   0.603   3.271   6.014 -0.0600  0.0326  0.2257
 2768poe     o211612   0.712   3.297   6.100 -0.0152 -0.3099  0.2742
 2768poe    c2311613   0.804   3.191   6.084  0.2262 -0.0507 -0.0501
 2768poe    c2311614   0.887   3.175   6.212  0.0878  0.7923  0.1574
 2768poe     o211615   1.008   3.245   6.233  0.4096  0.4993 -0.6789
 2768poe    c3111616   0.998   3.385   6.226 -0.0549  0.4824 -0.4078
 2769poe    c3111617   2.483   4.780   4.620 -0.5962  0.1593 -0.0712
 2769poe     o211618   2.428   4.671   4.691  0.3819 -0.0839  0.3247
 2769poe    c2311619   2.297   4.703   4.732 -0.0643 -0.6459 -0.6423
 2769poe    c2311620   2.211   4.586   4.784  0.6595 -0.6425  0.5824
 2769poe     o211621   2.187   4.478   4.697 -0.3272  0.1730 -0.1864
 2769poe    c2311622   2.107   4.512   4.587  0.1456 -0.0097 -0.5911
 2769poe    c2311623   2.085   4.395   4.488  0.4356 -0.3811 -0.2168
 2769poe     o211624   2.203   4.369   4.415  0.6099  0.6491 -0.3155
 2769poe    c2311625   2.197   4.252   4.336 -0.2558  0.2870  0.2750
 2769poe    c2311626   2.318   4.203   4.255 -0.8011 -0.3305 -0.1727
 2769poe     o211627   2.362   4.279   4.145 -0.2525  0.0362  0.2941
 2769poe    c3111628   2.462   4.206   4.077  0.0350 -0.2123  0.9753
 2770poe    c3111629   1.588   0.931   6.169  0.0469  0.3073 -0.0207
 2770poe     o211630   1.487   0.835   6.147  0.0749  0.2573  0.0678
 2770poe    c2311631   1.425   0.858   6.023 -0.1222  0.1543  0.1478
 2770poe    c2311632   1.379   0.735   5.941 -0.0821  0.3192 -0.1252
 2770poe     o211633   1.286   0.668   6.024  0.4003 -0.0629  0.1127
 2770poe    c2311634   1.332   0.541   6.064  0.4511  0.0385  0.3745
 2770poe    c2311635   1.241   0.469   6.166 -0.0893  0.4592  0.1913
 2770poe     o211636   1.267   0.511   6.298  0.3434 -0.0813  0.2802
 2770poe    c2311637   1.185   0.435   6.384  0.3683 -0.6898 -0.2307
 2770poe    c2311638   1.230   0.415   6.530  0.0035  0.5614  0.0637
 2770poe     o211639   1.346   0.334   6.529  0.0495  0.6172  0.7194
 2770poe    c3111640   1.356   0.265   6.652 -0.0381 -0.2636  0.2445
 2771poe    c3111641   2.494   1.552   4.949 -0.3850  0.1519  0.2107
 2771poe     o211642   2.380   1.470   4.947 -0.4359  0.2276 -0.1061
 2771poe    c2311643   2.418   1.340   4.989 -0.2167  0.2480 -0.2472
 2771poe    c2311644   2.296   1.249   4.968  0.2615 -0.5176  0.2503
 2771poe     o211645   2.199   1.274   5.067 -0.0819 -0.0105 -0.2099
 2771poe    c2311646   2.095   1.183   5.038 -0.4130  0.3170 -0.0665
 2771poe    c2311647   2.000   1.182   5.159  0.3841  0.6284  0.5719
 2771poe     o211648   2.048   1.130   5.281 -0.0367 -0.2629  0.3630
 2771poe    c2311649   1.986   1.189   5.393 -0.2715  0.3976 -0.1132
 2771poe    c2311650   2.052   1.315   5.452  0.4665 -0.0369  0.0033
 2771poe     o211651   2.056   1.431   5.370  0.6648 -0.1189 -0.1024
 2771poe    c3111652   2.092   1.546   5.443  0.1732  0.1842 -0.3318
 2772poe    c3111653   7.182   3.270   0.527  0.3603  0.1581 -0.4379
 2772poe     o211654   7.174   3.289   0.667  1.3597 -0.3862 -0.2945
 2772poe    c2311655   7.144   3.168   0.733 -0.1749  0.1054 -0.0294
 2772poe    c2311656   7.078   3.219   0.862 -0.2295 -0.3307  0.1179
 2772poe     o211657   7.132   3.342   0.906 -0.1392 -0.3297  0.0059
 2772poe    c2311658   7.080   3.383   1.031  0.2712 -0.3613  0.1864
 2772poe    c2311659   7.154   3.510   1.075 -0.2452  0.0319 -0.0684
 2772poe     o211660   7.293   3.499   1.097 -0.1570 -0.3722 -0.7919
 2772poe    c2311661   7.337   3.457   1.225  0.2653  0.4302 -0.6664
 2772poe    c2311662   7.481   3.405   1.237 -0.0648 -0.3634 -0.0290
 2772poe     o211663   7.508   3.306   1.141  0.0355 -0.2081 -0.1625
 2772poe    c3111664   7.643   3.271   1.159  0.0615  0.1031  0.2527
 2773poe    c3111665   5.816   2.341   2.256  0.2456  0.3171 -0.2125
 2773poe     o211666   5.701   2.415   2.292 -0.0853 -0.4543  0.3418
 2773poe    c2311667   5.595   2.421   2.199  0.0241  0.8652  0.2761
 2773poe    c2311668   5.513   2.551   2.194 -0.7630  0.3700  0.2130
 2773poe     o211669   5.421   2.569   2.299 -0.5510  0.2774  0.4155
 2773poe    c2311670   5.314   2.651   2.258 -0.0672  0.3446 -0.7449
 2773poe    c2311671   5.329   2.804   2.246 -0.2109  0.4661  0.4616
 2773poe     o211672   5.431   2.843   2.157  0.1757 -0.1787  0.6157
 2773poe    c2311673   5.459   2.981   2.158  0.3352 -0.2068  0.3189
 2773poe    c2311674   5.579   3.010   2.066 -0.0916 -0.4193 -0.3125
 2773poe     o211675   5.528   3.095   1.966  0.1817  0.4510  0.2721
 2773poe    c3111676   5.631   3.179   1.918  0.1163  0.2213 -0.2830
 2774poe    c3111677   4.583   1.034   5.392  0.3159 -0.1073  0.0538
 2774poe     o211678   4.531   1.104   5.281  0.5111  0.0101  0.0356
 2774poe    c2311679   4.609   1.088   5.165 -0.0957 -0.2205 -0.3438
 2774poe    c2311680   4.519   1.073   5.040  0.1053 -0.2413 -0.4861
 2774poe     o211681   4.438   1.183   5.007 -0.0420 -0.0177  0.5831
 2774poe    c2311682   4.304   1.145   5.031 -0.0181 -0.4376  0.0770
 2774poe    c2311683   4.203   1.258   5.057  0.1057 -0.3609  0.2308
 2774poe     o211684   4.217   1.332   5.177  0.0564 -0.5244  0.3375
 2774poe    c2311685   4.105   1.413   5.200  0.4931  0.0831  0.3465
 2774poe    c2311686   4.009   1.371   5.313  0.0452  0.5689  0.1533
 2774poe     o211687   4.069   1.367   5.440  0.4607 -0.5555 -0.0662
 2774poe    c3111688   3.969   1.382   5.539  0.6849  0.1337  0.0614
 2775poe    c3111689   5.842   3.647   2.072 -0.1777 -0.2715 -0.0802
 2775poe     o211690   5.874   3.706   2.196  0.2882 -0.6627 -0.0139
 2775poe    c2311691   5.775   3.699   2.295 -0.3923 -0.1693 -0.6533
 2775poe    c2311692   5.773   3.836   2.365 -0.1799 -0.4991  0.0128
 2775poe     o211693   5.892   3.849   2.440 -0.0398  0.3417 -0.3373
 2775poe    c2311694   5.881   3.927   2.556 -0.5209 -0.4961  0.1890
 2775poe    c2311695   6.028   3.916   2.601 -0.3265  0.2716 -0.2377
 2775poe     o211696   6.106   3.982   2.504  0.6322 -0.2131  0.1905
 2775poe    c2311697   6.234   4.005   2.560  0.8469 -0.3445 -0.2414
 2775poe    c2311698   6.303   4.139   2.529  0.0816  0.1271  0.0543
 2775poe     o211699   6.332   4.156   2.392  0.4644 -0.2741  0.0803
 2775poe    c3111700   6.411   4.272   2.379  0.5572 -0.3208  0.2392
 2776poe    c3111701   3.910   3.087   2.344 -0.5019 -0.0235  0.0906
 2776poe     o211702   3.834   3.125   2.232 -0.2189  0.2118 -0.0193
 2776poe    c2311703   3.871   3.242   2.161  0.3682  0.1291  0.1460
 2776poe    c2311704   3.824   3.384   2.197 -0.1315  0.1147 -0.4413
 2776poe     o211705   3.684   3.400   2.181 -0.1794  0.1462 -0.0212
 2776poe    c2311706   3.640   3.525   2.228 -0.6051 -0.0728  0.1625
 2776poe    c2311707   3.488   3.537   2.206 -0.4789 -0.0007 -0.7257
 2776poe     o211708   3.412   3.486   2.314  1.0366 -0.8077 -0.0086
 2776poe    c2311709   3.368   3.353   2.298 -0.6030 -0.3575  0.6106
 2776poe    c2311710   3.221   3.365   2.252 -0.1730 -0.2558 -0.7904
 2776poe     o211711   3.191   3.451   2.145 -0.0694  0.1068 -0.5301
 2776poe    c3111712   3.159   3.582   2.185 -0.1696 -0.1649  0.2991
 2777poe    c3111713   0.043   6.500   2.201 -0.0981 -0.5304  0.0395
 2777poe     o211714   0.158   6.423   2.177  0.3048  0.0432  0.0893
 2777poe    c2311715   0.264   6.516   2.178  0.4161 -0.0864  0.8981
 2777poe    c2311716   0.395   6.442   2.142  0.1609 -0.2731  0.3299
 2777poe     o211717   0.370   6.394   2.012 -0.2901 -0.1999  0.3862
 2777poe    c2311718   0.477   6.314   1.967 -0.6560 -0.1725 -0.5523
 2777poe    c2311719   0.449   6.163   1.972 -0.1629 -0.2422  0.3286
 2777poe     o211720   0.464   6.104   2.099  0.0281  0.1961  0.5115
 2777poe    c2311721   0.410   5.974   2.116  0.0215  0.2019  0.5367
 2777poe    c2311722   0.473   5.926   2.248  0.6555 -0.0249  0.1576
 2777poe     o211723   0.411   5.968   2.367 -0.0761 -0.3558 -0.0977
 2777poe    c3111724   0.285   5.914   2.397  0.1534 -0.6815  0.2928
 2778poe    c3111725   5.446   1.739   4.564 -0.4276 -0.7442  0.4449
 2778poe     o211726   5.571   1.693   4.517 -0.5590 -0.0754 -0.6083
 2778poe    c2311727   5.556   1.609   4.405 -0.3524 -0.2823 -0.4819
 2778poe    c2311728   5.687   1.537   4.369 -0.0652  0.3025 -0.6248
 2778poe     o211729   5.802   1.617   4.350 -0.1082  0.2702 -1.0465
 2778poe    c2311730   5.917   1.544   4.385 -0.8261 -0.2810  0.2663
 2778poe    c2311731   5.951   1.497   4.527 -0.3646  0.0532  0.2675
 2778poe     o211732   5.965   1.601   4.622 -0.5704  0.4977 -0.1827
 2778poe    c2311733   5.991   1.550   4.751 -0.2921 -0.6987 -0.6975
 2778poe    c2311734   6.131   1.498   4.789  0.0072  0.4906 -0.0996
 2778poe     o211735   6.171   1.388   4.710 -0.0580  0.1195  0.3767
 2778poe    c3111736   6.303   1.354   4.744 -0.0612 -0.1113  0.1686
 2779poe    c3111737   1.678   6.469   5.039 -0.0041  0.3498  0.0977
 2779poe     o211738   1.734   6.341   5.055 -0.3180  0.1430 -0.4269
 2779poe    c2311739   1.857   6.334   4.988 -0.1293  0.0321 -0.0754
 2779poe    c2311740   1.940   6.205   4.993 -0.2013 -0.0274 -0.3364
 2779poe     o211741   1.886   6.092   4.929 -0.3858  0.0105 -0.2474
 2779poe    c2311742   1.823   6.010   5.024  0.9402  0.2105  0.8413
 2779poe    c2311743   1.764   5.881   4.963  0.0457  0.8639  0.3062
 2779poe     o211744   1.646   5.899   4.887 -0.1931  0.3331  0.5459
 2779poe    c2311745   1.552   5.796   4.868  0.2108  0.1112 -0.2793
 2779poe    c2311746   1.605   5.667   4.801  0.2758 -0.1923  0.3479
 2779poe     o211747   1.626   5.702   4.666 -0.5440 -0.2765  0.1944
 2779poe    c3111748   1.689   5.597   4.597  0.3179  0.2743  0.1298
 2780poe    c3111749   6.468   5.237   1.094 -0.0631 -0.3395 -0.3094
 2780poe     o211750   6.508   5.156   0.986 -0.3340 -0.1642 -0.5424
 2780poe    c2311751   6.628   5.186   0.919 -0.1546  0.1774 -0.0769
 2780poe    c2311752   6.642   5.090   0.799  0.2185 -0.1764  0.2448
 2780poe     o211753   6.536   5.099   0.707  0.4046  0.0240  0.0468
 2780poe    c2311754   6.554   5.000   0.607 -0.0974  0.1044 -0.1310
 2780poe    c2311755   6.431   4.909   0.588  0.0107 -0.0546 -0.0752
 2780poe     o211756   6.314   4.987   0.576 -0.2909 -0.5135 -0.1016
 2780poe    c2311757   6.215   4.893   0.540 -0.0490 -0.5699 -0.6281
 2780poe    c2311758   6.075   4.956   0.558  0.0492 -0.6538  0.4992
 2780poe     o211759   6.066   5.011   0.687  0.1408  0.0527  0.2050
 2780poe    c3111760   5.927   5.009   0.713  0.1348  0.3782  0.2131
 2781poe    c3111761   0.996   5.236   6.942 -0.0122  0.1693 -0.4423
 2781poe     o211762   0.893   5.313   6.884 -0.2918 -0.1876 -0.4209
 2781poe    c2311763   0.884   5.269   6.751 -0.4312 -0.3918 -0.3446
 2781poe    c2311764   0.784   5.357   6.674 -0.5120 -0.0671  0.1345
 2781poe     o211765   0.847   5.480   6.646 -0.6528  0.2935  1.3454
 2781poe    c2311766   0.749   5.562   6.586 -0.1214 -0.0337 -0.0100
 2781poe    c2311767   0.796   5.707   6.567 -0.0972 -0.0023  0.2780
 2781poe     o211768   0.777   5.780   6.686  0.0548  0.0212  0.2883
 2781poe    c2311769   0.820   5.914   6.679  0.0435  0.0206  0.2131
 2781poe    c2311770   0.817   6.009   6.800 -0.4647 -0.1512  0.3368
 2781poe     o211771   0.914   5.999   6.902  0.1881  0.0360 -0.2593
 2781poe    c3111772   0.931   6.114   6.983 -0.2980 -0.2447  0.2498
 2782poe    c3111773   2.229   2.798   4.910 -0.3402  0.6567 -0.1638
 2782poe     o211774   2.332   2.798   5.006 -0.1131 -0.1602 -0.3960
 2782poe    c2311775   2.455   2.834   4.945  0.0490  0.0042  0.0253
 2782poe    c2311776   2.580   2.760   4.997 -0.2907 -0.5532  0.0575
 2782poe     o211777   2.602   2.808   5.128  0.0412 -0.5104 -0.0146
 2782poe    c2311778   2.717   2.749   5.184 -0.0089 -0.1318  0.4914
 2782poe    c2311779   2.749   2.799   5.326  0.8046 -0.0121  0.2689
 2782poe     o211780   2.659   2.765   5.430  0.2355  1.0383  0.1274
 2782poe    c2311781   2.728   2.768   5.553  0.6354  0.6875 -0.0829
 2782poe    c2311782   2.640   2.836   5.660 -0.1089  0.0846 -0.3045
 2782poe     o211783   2.617   2.973   5.636 -0.1531  0.1011 -0.1651
 2782poe    c3111784   2.607   3.030   5.765  0.4023 -0.8748  0.3122
 2783poe    c3111785   1.326   2.892   6.520  0.3575  0.0557  0.3228
 2783poe     o211786   1.282   3.026   6.526 -0.3664 -0.1938  0.8004
 2783poe    c2311787   1.353   3.099   6.623  0.0771  0.2916  0.1205
 2783poe    c2311788   1.319   3.249   6.627  0.6724  0.4254  0.2464
 2783poe     o211789   1.182   3.281   6.638  0.6333  0.3481 -0.0115
 2783poe    c2311790   1.135   3.410   6.607 -0.0527  0.2243  0.4997
 2783poe    c2311791   0.986   3.423   6.644 -0.2408 -0.2011 -0.0998
 2783poe     o211792   0.898   3.328   6.587 -0.3056  0.0352 -0.3913
 2783poe    c2311793   0.761   3.342   6.618 -0.1563 -0.0913  0.3296
 2783poe    c2311794   0.685   3.230   6.546  0.5168 -0.1738 -0.2591
 2783poe     o211795   0.744   3.109   6.588 -0.1753 -0.3430  0.2438
 2783poe    c3111796   0.680   2.983   6.580 -0.7713 -0.0133 -0.2255
 2784poe    c3111797   0.804   4.673   4.233 -0.8748 -0.8954  0.0148
 2784poe     o211798   0.919   4.616   4.291  0.0481  0.5127 -0.3871
 2784poe    c2311799   0.923   4.658   4.425 -0.1171  0.0969 -0.2522
 2784poe    c2311800   1.045   4.592   4.493 -0.1909  0.1973 -0.0208
 2784poe     o211801   1.178   4.638   4.481 -0.0144 -0.2568  0.1966
 2784poe    c2311802   1.207   4.749   4.563 -0.3993  0.0400 -0.0655
 2784poe    c2311803   1.341   4.817   4.529 -0.2267 -0.2058  0.1163
 2784poe     o211804   1.320   4.920   4.435  0.6003 -0.3020 -0.1803
 2784poe    c2311805   1.439   4.982   4.392  0.4346  0.3978  0.3707
 2784poe    c2311806   1.393   5.106   4.312 -0.6374 -0.0489  0.2778
 2784poe     o211807   1.314   5.074   4.200 -0.1308  0.2847 -0.1769
 2784poe    c3111808   1.275   5.181   4.116 -0.4472 -0.0005 -0.3954
 2785poe    c3111809   6.745   7.155   5.457  0.2967 -0.3757 -0.2879
 2785poe     o211810   6.681   7.259   5.386 -0.2432 -0.5249 -0.0217
 2785poe    c2311811   6.766   7.318   5.291 -0.4170  0.1249  0.2236
 2785poe    c2311812   6.720   7.457   5.245  0.0180 -0.0697 -0.8210
 2785poe     o211813   6.583   7.429   5.226  0.0195 -0.1679 -0.6849
 2785poe    c2311814   6.526   7.533   5.151 -0.2480  0.4082  0.3018
 2785poe    c2311815   6.381   7.490   5.121 -0.0650  0.1363 -0.2101
 2785poe     o211816   6.310   7.469   5.241 -0.0271  0.3496 -0.1477
 2785poe    c2311817   6.187   7.408   5.206 -0.1843  0.1985  0.6369
 2785poe    c2311818   6.095   7.384   5.327 -0.5036  0.0181  0.3567
 2785poe     o211819   6.139   7.268   5.394  0.0879  0.3248  0.5012
 2785poe    c3111820   6.050   7.245   5.500  0.0466 -0.2649  0.3408
 2786poe    c3111821   5.814   1.052   4.730 -0.1387 -0.0503  0.5758
 2786poe     o211822   5.855   1.149   4.824 -0.0167  0.3335  0.1305
 2786poe    c2311823   5.968   1.100   4.893 -0.1849  0.2374  0.3375
 2786poe    c2311824   5.928   1.041   5.030  0.1726  0.2003  0.4264
 2786poe     o211825   5.840   0.931   5.034  0.4171 -0.0201 -0.0931
 2786poe    c2311826   5.848   0.869   5.161 -0.2173 -0.4952 -0.2782
 2786poe    c2311827   5.773   0.738   5.133 -0.2363 -0.6386  0.4255
 2786poe     o211828   5.638   0.761   5.099 -0.0693 -0.1246  0.0883
 2786poe    c2311829   5.581   0.643   5.046 -0.2679  0.0670 -0.1278
 2786poe    c2311830   5.427   0.648   5.042 -0.2904 -0.6095 -0.2402
 2786poe     o211831   5.381   0.772   4.995  0.2498 -0.1627  0.3785
 2786poe    c3111832   5.244   0.761   4.961  0.4644 -0.5136 -0.3873
 2787poe    c3111833   4.467   3.491   5.325 -0.4755 -0.2658  0.0164
 2787poe     o211834   4.403   3.548   5.214  0.1896  0.0881 -0.1861
 2787poe    c2311835   4.449   3.677   5.180  0.8205 -0.2219 -0.5306
 2787poe    c2311836   4.346   3.740   5.084  0.1902 -0.4589 -0.0224
 2787poe     o211837   4.355   3.678   4.957 -0.1219 -0.2706 -0.1386
 2787poe    c2311838   4.250   3.698   4.865  0.0694 -0.4265 -0.3929
 2787poe    c2311839   4.236   3.838   4.803  0.1999  0.0623  0.6564
 2787poe     o211840   4.335   3.846   4.703 -0.3280 -0.0685  0.1234
 2787poe    c2311841   4.315   3.965   4.628  0.0408 -0.3436 -0.4176
 2787poe    c2311842   4.207   3.967   4.518 -0.4854 -0.0493  0.0979
 2787poe     o211843   4.071   3.960   4.553 -0.5876  0.1654 -0.2508
 2787poe    c3111844   3.990   3.977   4.439 -0.0574  0.8947 -0.5259
 2788poe    c3111845   7.058   1.067   5.768 -0.1341 -0.3273  0.6004
 2788poe     o211846   6.954   0.976   5.741 -0.1553 -0.0166 -0.4141
 2788poe    c2311847   6.852   1.054   5.683 -0.2996 -0.0885 -0.2601
 2788poe    c2311848   6.732   0.968   5.637 -0.5442  0.2238 -0.2054
 2788poe     o211849   6.790   0.896   5.531 -0.2372 -0.4416  0.4064
 2788poe    c2311850   6.690   0.802   5.500 -0.5115 -0.0483  0.0838
 2788poe    c2311851   6.719   0.764   5.354 -0.1968  0.9307 -0.1157
 2788poe     o211852   6.852   0.717   5.345 -0.5433 -0.1114  0.0432
 2788poe    c2311853   6.882   0.664   5.218  0.0270  0.5638 -0.1052
 2788poe    c2311854   7.029   0.624   5.244 -0.1119 -0.0454 -0.2647
 2788poe     o211855   7.100   0.720   5.318  0.1597  0.0170 -0.6083
 2788poe    c3111856   7.239   0.695   5.329  0.0570 -0.1324  0.4310
 2789poe    c3111857   5.823   0.006   1.774  0.2288 -0.3466 -0.1866
 2789poe     o211858   5.934  -0.080   1.774  0.2402 -0.3332  0.2388
 2789poe    c2311859   5.968  -0.118   1.642 -0.6125  0.2230 -0.1428
 2789poe    c2311860   6.104  -0.188   1.649 -0.9109 -0.3157  0.3296
 2789poe     o211861   6.099  -0.295   1.741  0.0585 -0.4367  0.2551
 2789poe    c2311862   6.225  -0.358   1.753  0.1381 -0.4763 -0.6808
 2789poe    c2311863   6.252  -0.448   1.875 -0.0946  0.1733 -0.1337
 2789poe     o211864   6.174  -0.565   1.864 -0.3197  0.3471 -0.4077
 2789poe    c2311865   6.189  -0.653   1.973  0.1884  0.1094 -0.6668
 2789poe    c2311866   6.095  -0.775   1.978 -0.3722  0.5527 -0.4200
 2789poe     o211867   5.956  -0.756   1.997 -0.4317  0.4298 -0.7322
 2789poe    c3111868   5.899  -0.884   1.979 -0.8187  0.3913  0.6643
 2790poe    c3111869   0.438   6.160   5.490 -0.4127  0.0738  0.2294
 2790poe     o211870   0.505   6.240   5.585 -0.1604  0.3508 -0.1809
 2790poe    c2311871   0.579   6.158   5.673  0.0649  0.5474 -0.1836
 2790poe    c2311872   0.674   6.256   5.743 -0.1912  0.2011  0.6585
 2790poe     o211873   0.762   6.306   5.645 -0.6110  0.0678  0.2091
 2790poe    c2311874   0.814   6.434   5.674  0.1264 -0.1358 -0.2028
 2790poe    c2311875   0.918   6.475   5.568  0.0654  0.2957 -0.0997
 2790poe     o211876   0.872   6.491   5.435  0.2535  0.3335 -0.1600
 2790poe    c2311877   0.968   6.563   5.360  0.1028  0.0521 -0.6220
 2790poe    c2311878   1.008   6.707   5.396 -0.3396 -0.2240  1.0762
 2790poe     o211879   0.894   6.791   5.397 -0.3927 -0.2693  0.1846
 2790poe    c3111880   0.910   6.925   5.438 -0.0939 -0.2583  0.0300
 2791poe    c3111881   5.896   4.913   5.277 -0.1911  1.0624 -0.5730
 2791poe     o211882   5.846   4.902   5.146 -0.0976 -0.1671 -0.5109
 2791poe    c2311883   5.731   4.822   5.135 -0.1599 -0.1731  0.1312
 2791poe    c2311884   5.675   4.809   4.992  0.6057 -0.0867 -0.1759
 2791poe     o211885   5.691   4.941   4.947  0.5906 -0.0495 -0.0702
 2791poe    c2311886   5.677   4.929   4.807 -0.2293 -0.0664  0.0123
 2791poe    c2311887   5.699   5.058   4.726 -0.4125 -0.2264 -0.2947
 2791poe     o211888   5.818   5.127   4.758 -0.8041  0.3889 -0.1373
 2791poe    c2311889   5.855   5.213   4.653  0.1001 -0.2946 -0.3865
 2791poe    c2311890   5.991   5.283   4.666 -0.2754  0.3757 -0.0337
 2791poe     o211891   6.103   5.198   4.652 -0.3495  0.2100  0.3820
 2791poe    c3111892   6.228   5.260   4.671  0.0333 -0.3016 -0.4160
 2792poe    c3111893   4.790   3.421   0.780 -0.8368  0.1716 -1.2058
 2792poe     o211894   4.837   3.294   0.820 -0.2407  0.6844 -0.2557
 2792poe    c2311895   4.749   3.186   0.803  0.5832  0.1243 -1.0522
 2792poe    c2311896   4.808   3.063   0.875 -0.4729  0.4835  0.4648
 2792poe     o211897   4.945   3.063   0.845 -0.5274  0.0706  0.2058
 2792poe    c2311898   5.022   2.958   0.898  0.1377  0.6617  0.4238
 2792poe    c2311899   5.153   2.931   0.820 -0.2696 -0.0133 -0.0327
 2792poe     o211900   5.219   3.055   0.823 -0.6583  0.2119 -0.6052
 2792poe    c2311901   5.340   3.055   0.750 -0.1287  0.5456  0.2644
 2792poe    c2311902   5.397   3.198   0.748  0.1322  0.4403  0.1125
 2792poe     o211903   5.326   3.281   0.659  0.2354 -0.3118 -0.6773
 2792poe    c3111904   5.366   3.413   0.689 -0.4428 -0.2134 -0.2019
 2793poe    c3111905   1.366   3.299   3.001 -0.2139  0.2158 -0.2904
 2793poe     o211906   1.333   3.385   3.107 -0.0062  0.0831 -0.1159
 2793poe    c2311907   1.200   3.422   3.075 -0.0856 -0.1011  0.0001
 2793poe    c2311908   1.133   3.522   3.171  0.2653  0.1503 -0.0149
 2793poe     o211909   1.183   3.653   3.154  0.0241  0.2095 -0.2604
 2793poe    c2311910   1.117   3.730   3.251  0.7134  0.4773  0.0021
 2793poe    c2311911   1.160   3.873   3.213 -0.1049  0.5634 -0.6477
 2793poe     o211912   1.297   3.864   3.249 -0.2793 -0.6332 -0.2387
 2793poe    c2311913   1.352   3.994   3.244  0.1749 -0.8071  0.2277
 2793poe    c2311914   1.501   3.967   3.270  0.3664 -0.2637 -0.3013
 2793poe     o211915   1.526   3.862   3.179  0.0210 -0.4182 -0.2183
 2793poe    c3111916   1.665   3.839   3.175  0.0446 -0.2861 -0.1482
 2794poe    c3111917   6.812   3.013   0.582 -0.4832  0.2447 -0.2489
 2794poe     o211918   6.754   3.141   0.596 -0.0146  0.4050  0.3046
 2794poe    c2311919   6.620   3.108   0.626 -0.2999  0.1044 -1.2361
 2794poe    c2311920   6.543   3.234   0.670 -0.0891 -0.2914  0.3161
 2794poe     o211921   6.562   3.342   0.581  0.5603 -0.2182  0.5399
 2794poe    c2311922   6.497   3.448   0.648 -0.5784 -0.4994 -0.1044
 2794poe    c2311923   6.516   3.564   0.549  0.4027 -0.6966 -0.1560
 2794poe     o211924   6.473   3.529   0.420 -0.1690 -0.2713 -0.0838
 2794poe    c2311925   6.518   3.632   0.335  0.7704 -0.0319  0.6828
 2794poe    c2311926   6.498   3.583   0.190  0.2648  0.2796  0.6425
 2794poe     o211927   6.557   3.455   0.182  0.2471  0.3230 -0.3436
 2794poe    c3111928   6.526   3.394   0.059 -0.3812  0.2905 -0.1768
 2795poe    c3111929   2.519   6.138   3.237 -0.1020 -0.7515  0.0222
 2795poe     o211930   2.607   6.197   3.330  0.0340 -0.2821 -0.4004
 2795poe    c2311931   2.683   6.093   3.388 -0.0490 -0.2223 -0.1848
 2795poe    c2311932   2.797   6.170   3.457 -0.1067 -0.5445  0.2771
 2795poe     o211933   2.753   6.294   3.508  0.3879 -0.0182 -0.5367
 2795poe    c2311934   2.857   6.351   3.585  0.0456  0.4562 -0.4223
 2795poe    c2311935   2.802   6.433   3.703  1.0478  0.0038  0.3725
 2795poe     o211936   2.734   6.550   3.662 -0.0488 -0.4240  0.9184
 2795poe    c2311937   2.666   6.620   3.763  0.4446  0.4524  0.6565
 2795poe    c2311938   2.633   6.768   3.736  0.0782  0.0869 -0.9865
 2795poe     o211939   2.513   6.803   3.670 -0.3947  0.3594  0.0032
 2795poe    c3111940   2.502   6.943   3.682 -0.3367  0.3746 -0.1163
 2796poe    c3111941   6.941   3.574   6.012 -0.0800  0.2209 -0.1813
 2796poe     o211942   6.811   3.622   6.040 -0.0702  0.1020  0.0754
 2796poe    c2311943   6.772   3.594   6.173 -0.2088  0.1936  0.0546
 2796poe    c2311944   6.622   3.562   6.186 -0.1715  0.1789  0.4372
 2796poe     o211945   6.577   3.451   6.112  0.1341  0.1444  0.3006
 2796poe    c2311946   6.638   3.327   6.139  0.8460  0.4073 -0.0786
 2796poe    c2311947   6.636   3.246   6.008  0.5465  0.0778  0.1273
 2796poe     o211948   6.697   3.306   5.895 -0.5563  0.3078 -0.3514
 2796poe    c2311949   6.762   3.208   5.818 -0.1321  0.4610 -0.1893
 2796poe    c2311950   6.881   3.247   5.729  0.1407 -0.5199 -0.2596
 2796poe     o211951   6.848   3.341   5.629 -0.1409 -0.0839  0.2385
 2796poe    c3111952   6.956   3.353   5.539 -0.2555 -0.2963  0.0706
 2797poe    c3111953   4.781   1.824   4.318 -0.3434  0.7287 -0.0372
 2797poe     o211954   4.772   1.965   4.319 -0.7466  0.7045  0.2321
 2797poe    c2311955   4.836   2.029   4.428 -0.2509  0.6175 -0.0020
 2797poe    c2311956   4.855   2.181   4.413  0.5841  0.5660  0.4919
 2797poe     o211957   4.731   2.241   4.384  0.4342  0.2590  0.4968
 2797poe    c2311958   4.724   2.376   4.423  0.9777  0.4103  0.0803
 2797poe    c2311959   4.611   2.453   4.353  0.6652  0.1718  0.3145
 2797poe     o211960   4.479   2.407   4.371  0.6183  0.2830  0.2581
 2797poe    c2311961   4.386   2.505   4.331 -0.2074 -0.6712 -0.2153
 2797poe    c2311962   4.235   2.480   4.346 -0.2053 -0.2057  0.6367
 2797poe     o211963   4.151   2.580   4.294  0.0524  0.1828  0.9558
 2797poe    c3111964   4.137   2.698   4.370  0.5765  0.5112  0.5543
 2798poe    c3111965   3.072   0.620   0.397 -0.0696  0.0059  0.4036
 2798poe     o211966   3.192   0.684   0.361  0.0238 -0.3653  0.0334
 2798poe    c2311967   3.283   0.689   0.468  0.3636 -0.0749 -0.2627
 2798poe    c2311968   3.408   0.758   0.411  0.6224 -0.0872  0.2752
 2798poe     o211969   3.450   0.693   0.292 -0.3917 -0.3774  0.0639
 2798poe    c2311970   3.588   0.668   0.303 -0.3187 -0.0761 -0.1730
 2798poe    c2311971   3.604   0.548   0.208  0.1359 -0.1269 -0.0372
 2798poe     o211972   3.586   0.583   0.073 -0.1614 -0.1902 -0.0147
 2798poe    c2311973   3.559   0.473  -0.011  0.1252 -0.0380 -0.3095
 2798poe    c2311974   3.472   0.508  -0.133 -0.0950  0.6221  0.0302
 2798poe     o211975   3.360   0.587  -0.098 -0.3029  0.2936  0.1127
 2798poe    c3111976   3.272   0.590  -0.208 -0.0549 -0.2662 -0.1072
 2799poe    c3111977   6.010   6.128   2.867 -0.1487 -0.5202  0.7798
 2799poe     o211978   5.897   6.183   2.932 -0.6865 -0.3041 -0.3229
 2799poe    c2311979   5.926   6.266   3.042 -0.3917 -0.1326 -0.5262
 2799poe    c2311980   5.795   6.303   3.114 -0.0662 -0.1777  0.0892
 2799poe     o211981   5.721   6.194   3.166  0.0219 -0.3741 -0.1958
 2799poe    c2311982   5.614   6.241   3.245  0.2445  0.1290 -0.1870
 2799poe    c2311983   5.542   6.123   3.313  0.1024 -0.0750 -0.6872
 2799poe     o211984   5.485   6.035   3.219 -0.4671  0.1048 -0.5106
 2799poe    c2311985   5.427   5.922   3.280  1.1689 -0.6671 -0.3317
 2799poe    c2311986   5.374   5.834   3.166  0.5880 -0.6804 -0.0570
 2799poe     o211987   5.457   5.835   3.052  0.3132  0.0758 -0.2506
 2799poe    c3111988   5.418   5.738   2.957 -0.6864 -0.2642  0.4928
 2800poe    c3111989   1.323   0.095   0.483 -0.1047  0.4490  0.5006
 2800poe     o211990   1.356   0.015   0.594 -0.6239 -0.1734  0.2134
 2800poe    c2311991   1.299  -0.112   0.573 -0.1761 -0.4201  0.4602
 2800poe    c2311992   1.374  -0.224   0.648 -0.2341 -0.4948  0.4075
 2800poe     o211993   1.399  -0.174   0.777  0.1208 -0.2030  0.2278
 2800poe    c2311994   1.447  -0.287   0.847  0.0326 -0.3099  0.1150
 2800poe    c2311995   1.503  -0.254   0.986 -0.1720 -1.2570  0.4302
 2800poe     o211996   1.620  -0.176   0.974 -0.9301 -0.1810 -0.1394
 2800poe    c2311997   1.621  -0.065   1.060 -0.5151 -0.2430 -0.0635
 2800poe    c2311998   1.757   0.008   1.055 -0.6982  0.1247  0.2386
 2800poe     o211999   1.782   0.072   0.932  0.1088  0.0167  0.3401
 2800poe    c3112000   1.915   0.118   0.932  0.1229 -0.0221  0.0288
 2801poe    c3112001   2.796   1.451   3.006  0.2177 -1.2559 -0.3058
 2801poe     o212002   2.807   1.507   2.877 -0.2773 -1.0653 -0.2646
 2801poe    c2312003   2.682   1.554   2.829  0.0004  0.9089  0.8211
 2801poe    c2312004   2.706   1.656   2.717 -0.2655  0.3415  0.2398
 2801poe     o212005   2.762   1.598   2.602 -0.1583 -0.0574  0.4942
 2801poe    c2312006   2.818   1.698   2.520 -1.0094 -0.3550 -0.4699
 2801poe    c2312007   2.917   1.634   2.422 -0.3061  0.1312 -0.0868
 2801poe     o212008   3.016   1.566   2.496 -0.4880 -0.1606 -0.1070
 2801poe    c2312009   3.120   1.511   2.418 -0.2867 -0.3035  0.2597
 2801poe    c2312010   3.235   1.453   2.502  0.0948 -0.2213 -0.1996
 2801poe     o212011   3.292   1.553   2.584  0.0841  0.2050 -0.7109
 2801poe    c3112012   3.407   1.516   2.656 -0.2759 -0.1942 -0.3375
 2802poe    c3112013   0.503   5.045   2.211  0.0880 -0.1727 -0.1466
 2802poe     o212014   0.472   4.948   2.309  0.0777 -0.3184 -0.2936
 2802poe    c2312015   0.594   4.901   2.362  0.0238 -0.6208 -0.4361
 2802poe    c2312016   0.568   4.780   2.454 -0.2193 -0.1914  0.0690
 2802poe     o212017   0.457   4.704   2.411 -0.2712  0.2385 -0.5698
 2802poe    c2312018   0.413   4.581   2.465 -0.2945  0.2420 -0.5797
 2802poe    c2312019   0.292   4.535   2.382 -0.5821  0.6175 -0.3698
 2802poe     o212020   0.200   4.638   2.353 -0.2753  0.8629 -0.4805
 2802poe    c2312021   0.084   4.592   2.288 -0.1216  0.3740 -0.4124
 2802poe    c2312022  -0.018   4.703   2.257 -0.0313  0.5247 -0.1716
 2802poe     o212023   0.034   4.797   2.166  0.0192  0.3786 -0.2946
 2802poe    c3112024  -0.060   4.898   2.137 -0.3173  0.0201 -0.4552
 2803poe    c3112025   1.584   7.010   3.228 -0.3073 -0.4066 -0.5611
 2803poe     o212026   1.457   6.983   3.283 -0.0015 -0.0025  0.3648
 2803poe    c2312027   1.382   6.931   3.176  0.5067  0.0139 -0.0012
 2803poe    c2312028   1.241   6.909   3.234  0.5029  0.1189  0.0297
 2803poe     o212029   1.238   6.794   3.316 -0.0567 -0.1763 -0.4030
 2803poe    c2312030   1.115   6.780   3.384  0.1763 -0.0783  0.0433
 2803poe    c2312031   1.050   6.641   3.380  0.3573 -0.1582 -0.1874
 2803poe     o212032   1.095   6.553   3.481  0.0407 -0.2250 -0.1024
 2803poe    c2312033   1.191   6.465   3.428 -0.5187 -0.9384  0.0564
 2803poe    c2312034   1.288   6.433   3.543 -0.2165 -0.5256 -0.0812
 2803poe     o212035   1.367   6.545   3.577 -0.5769 -0.3548  0.1988
 2803poe    c3112036   1.472   6.500   3.659  0.2002 -0.5823 -0.9000
 2804poe    c3112037   6.053   6.055   3.980  0.1002 -0.5219  0.2454
 2804poe     o212038   6.002   6.116   3.863  0.1199 -0.4256  0.2872
 2804poe    c2312039   5.918   6.037   3.782  0.0408  0.1984 -0.2448
 2804poe    c2312040   5.885   6.101   3.646  0.4250  0.4001 -0.2433
 2804poe     o212041   5.877   6.239   3.675 -0.5668  0.2033  0.4607
 2804poe    c2312042   5.837   6.302   3.555 -0.0635  0.1261  0.2472
 2804poe    c2312043   5.755   6.430   3.583 -0.3102 -0.0975  0.5649
 2804poe     o212044   5.825   6.516   3.670  0.1940  0.0207  0.0547
 2804poe    c2312045   5.937   6.583   3.616  0.1155 -0.0933 -0.2518
 2804poe    c2312046   5.909   6.698   3.518  0.4732  0.5550  0.3936
 2804poe     o212047   5.816   6.790   3.570 -0.0741  0.0993  0.2356
 2804poe    c3112048   5.762   6.874   3.471  0.1969  0.3528  0.3020
 2805poe    c3112049   1.367   3.393   0.605  0.2965 -0.4191 -0.2424
 2805poe     o212050   1.347   3.456   0.481 -0.0721 -0.3971 -0.1746
 2805poe    c2312051   1.461   3.528   0.440  0.2159 -0.9336 -0.3296
 2805poe    c2312052   1.440   3.612   0.312  0.2573 -0.1656  0.1600
 2805poe     o212053   1.424   3.547   0.188 -0.0066  0.1819  0.0111
 2805poe    c2312054   1.400   3.640   0.085 -0.6406  0.2872  0.2445
 2805poe    c2312055   1.294   3.599  -0.019  0.0831 -0.0819 -0.3618
 2805poe     o212056   1.162   3.609   0.029  0.2206  0.5737 -0.1095
 2805poe    c2312057   1.062   3.526  -0.027 -0.1140  0.7506  0.2255
 2805poe    c2312058   0.922   3.559   0.030 -0.3161  0.2045  0.0512
 2805poe     o212059   0.910   3.501   0.158 -0.2344  0.5247  0.2045
 2805poe    c3112060   0.779   3.461   0.190 -0.0881 -0.0805  0.0517
 2806poe    c3112061   6.634   1.045   1.408 -0.7468 -0.2999  0.0358
 2806poe     o212062   6.547   1.156   1.404 -0.0773  0.2030 -0.7782
 2806poe    c2312063   6.572   1.218   1.280  0.2036  0.4244 -0.6128
 2806poe    c2312064   6.530   1.366   1.292 -0.1932  0.3133 -0.6250
 2806poe     o212065   6.619   1.424   1.385 -0.8293 -0.2195  0.3364
 2806poe    c2312066   6.642   1.562   1.372  0.1749 -0.3892  0.2337
 2806poe    c2312067   6.758   1.610   1.461 -0.2705  0.5510  0.3249
 2806poe     o212068   6.735   1.617   1.600 -0.1881  0.1391  0.3587
 2806poe    c2312069   6.847   1.666   1.670 -0.0777  0.4091 -0.0085
 2806poe    c2312070   6.858   1.662   1.823  0.2223 -0.1017 -0.0429
 2806poe     o212071   6.871   1.530   1.871 -0.4008 -0.3060 -0.4204
 2806poe    c3112072   6.905   1.545   2.007 -0.5575 -0.0352 -0.4122
 2807poe    c3112073   1.476   6.774   1.280 -0.1584  0.1222 -0.0263
 2807poe     o212074   1.412   6.801   1.403  0.1399  0.6673  0.0116
 2807poe    c2312075   1.457   6.712   1.502  0.4144  0.8129  0.0180
 2807poe    c2312076   1.336   6.659   1.581  0.5797  0.2248 -0.1146
 2807poe     o212077   1.272   6.765   1.649 -0.1906 -0.1451 -0.2537
 2807poe    c2312078   1.140   6.740   1.690 -0.3385  0.2947 -0.4529
 2807poe    c2312079   1.032   6.846   1.719 -0.1899  0.3287 -0.0103
 2807poe     o212080   1.004   6.927   1.607 -0.5331  0.4625  0.1681
 2807poe    c2312081   0.904   7.018   1.643 -0.4970  0.4737  0.2405
 2807poe    c2312082   0.850   7.122   1.542 -0.5589  0.3509  0.1465
 2807poe     o212083   0.949   7.217   1.509 -0.2282 -0.0274  0.0374
 2807poe    c3112084   0.948   7.230   1.369 -0.1881  0.2100  0.0587
 2808poe    c3112085   5.926   2.761   2.289  0.5814  0.3628  0.2987
 2808poe     o212086   5.961   2.655   2.202 -0.4826  0.4748 -0.2865
 2808poe    c2312087   5.950   2.673   2.063 -0.2280  0.7943 -0.2668
 2808poe    c2312088   5.944   2.545   1.977 -0.1240  0.2105  0.5834
 2808poe     o212089   6.074   2.492   1.962 -0.2763 -0.0099  0.0150
 2808poe    c2312090   6.066   2.394   1.861 -0.5217 -0.0493  0.0727
 2808poe    c2312091   6.205   2.334   1.831 -0.4153  0.2091  0.0486
 2808poe     o212092   6.272   2.426   1.748 -0.2606  0.0980  0.0509
 2808poe    c2312093   6.403   2.382   1.721 -0.1967  0.6609 -0.5763
 2808poe    c2312094   6.425   2.271   1.616 -0.0707  0.1003  0.0414
 2808poe     o212095   6.552   2.253   1.558 -0.1603  0.1225 -0.1597
 2808poe    c3112096   6.662   2.232   1.643 -0.5240 -0.1462  0.2483
 2809poe    c3112097   6.972   1.249   7.222  0.1085  0.1662 -0.6542
 2809poe     o212098   6.887   1.362   7.228  0.1484  0.1596  0.0745
 2809poe    c2312099   6.795   1.356   7.121 -0.0234  0.2648  0.2173
 2809poe    c2312100   6.679   1.453   7.154  0.1256  0.0274  1.4796
 2809poe     o212101   6.721   1.587   7.163  0.4867  0.0657 -0.4399
 2809poe    c2312102   6.633   1.655   7.249 -0.1866 -0.4053 -0.7511
 2809poe    c2312103   6.698   1.780   7.311 -0.1065 -0.6806 -0.2772
 2809poe     o212104   6.800   1.748   7.403  0.0676  0.1039 -0.1940
 2809poe    c2312105   6.862   1.867   7.447 -0.0308  0.1612 -0.2093
 2809poe    c2312106   6.943   1.823   7.571 -0.2055  1.0319  0.2187
 2809poe     o212107   7.035   1.723   7.536 -0.7031  0.6444 -0.0053
 2809poe    c3112108   7.075   1.661   7.656  0.2571 -0.3639 -0.8245
 2810poe    c3112109   1.696   6.950   4.026 -0.1088 -0.2345 -0.2765
 2810poe     o212110   1.564   6.912   4.058 -0.0927 -0.0226  0.0428
 2810poe    c2312111   1.532   6.796   3.984  0.4116 -0.0683 -0.1047
 2810poe    c2312112   1.438   6.805   3.863  0.3421  0.1059 -0.0382
 2810poe     o212113   1.303   6.816   3.899  0.4020  0.1770  0.1661
 2810poe    c2312114   1.246   6.708   3.969  0.1417  0.4261  0.3436
 2810poe    c2312115   1.092   6.702   3.963  0.1766 -0.0523 -0.1778
 2810poe     o212116   1.046   6.830   3.998 -0.3819 -0.1812 -0.4218
 2810poe    c2312117   0.906   6.837   3.984 -0.3980  0.3138 -0.0681
 2810poe    c2312118   0.825   6.808   4.111  0.0915  0.0217  0.1806
 2810poe     o212119   0.814   6.924   4.191 -0.0636 -0.1673  0.4367
 2810poe    c3112120   0.786   6.893   4.325 -0.1577  0.0259  0.4613
 2811poe    c3112121   4.483   3.784   3.763 -0.4846  0.1813  0.5760
 2811poe     o212122   4.577   3.859   3.836  0.2397  0.0803 -0.2345
 2811poe    c2312123   4.632   3.779   3.939  0.2069 -0.1427 -0.3903
 2811poe    c2312124   4.734   3.857   4.024 -0.3825  0.1262  0.0719
 2811poe     o212125   4.672   3.975   4.071  0.7247  0.6605  0.2206
 2811poe    c2312126   4.727   4.010   4.196  0.1372  0.2289  0.6035
 2811poe    c2312127   4.730   4.164   4.205  0.0879  0.2587  0.1288
 2811poe     o212128   4.608   4.234   4.200  0.0950  0.2571 -0.0834
 2811poe    c2312129   4.560   4.229   4.333  0.0958  0.8175 -0.0634
 2811poe    c2312130   4.424   4.301   4.332 -0.0656  0.5108  0.0714
 2811poe     o212131   4.334   4.226   4.253 -0.1001 -0.2549  0.8175
 2811poe    c3112132   4.213   4.295   4.235  0.3310  0.4813  0.7047
 2812poe    c3112133   3.707   3.319   2.931  0.0232  0.1305 -0.1939
 2812poe     o212134   3.626   3.264   3.032  0.0583  0.2306 -0.1108
 2812poe    c2312135   3.575   3.351   3.131 -0.0362  0.3307 -0.2472
 2812poe    c2312136   3.434   3.404   3.098 -0.4776 -0.6493  0.0202
 2812poe     o212137   3.433   3.473   2.975 -0.3776  0.0346  0.3976
 2812poe    c2312138   3.355   3.590   2.990 -0.3030  0.0975  0.3017
 2812poe    c2312139   3.312   3.629   2.848 -0.3035  0.4158  0.3896
 2812poe     o212140   3.417   3.669   2.762 -0.4925 -0.4771 -0.2702
 2812poe    c2312141   3.387   3.676   2.625  0.1309  0.2146 -0.3761
 2812poe    c2312142   3.345   3.808   2.559  0.2141  0.4224 -0.0135
 2812poe     o212143   3.375   3.815   2.422  0.0989 -0.5527 -0.0943
 2812poe    c3112144   3.314   3.934   2.376  0.4981 -0.5091 -0.5283
 2813poe    c3112145   2.753   3.703   2.364  0.5407 -0.5973  0.1528
 2813poe     o212146   2.703   3.728   2.493  0.1504  0.3546 -0.1742
 2813poe    c2312147   2.791   3.811   2.566  0.3646  0.0801 -0.1164
 2813poe    c2312148   2.756   3.821   2.716  0.0071  0.0421 -0.1943
 2813poe     o212149   2.757   3.688   2.763  0.3941 -0.0570 -0.4710
 2813poe    c2312150   2.789   3.691   2.901 -0.1085 -0.1315 -0.3493
 2813poe    c2312151   2.794   3.552   2.966 -0.1470 -0.0965 -0.2716
 2813poe     o212152   2.905   3.486   2.909  0.0426  0.1570 -0.2011
 2813poe    c2312153   2.922   3.356   2.962  0.1444  0.1778 -0.1829
 2813poe    c2312154   3.041   3.273   2.911  0.0186 -0.1246  0.0098
 2813poe     o212155   3.046   3.272   2.770 -0.1100 -0.5660  0.0102
 2813poe    c3112156   3.177   3.235   2.733  0.1556  0.3761  0.0038
 2814poe    c3112157   4.033   0.896   3.429  0.4830 -0.6423 -0.4072
 2814poe     o212158   3.973   0.913   3.555  0.1908 -0.2018 -0.6022
 2814poe    c2312159   4.004   0.798   3.631 -0.1656 -0.0854 -0.2822
 2814poe    c2312160   3.955   0.816   3.777  0.0909  0.8936 -0.3108
 2814poe     o212161   4.051   0.895   3.844  0.5929  0.1466 -0.1347
 2814poe    c2312162   4.050   0.890   3.985  0.2712  0.0519 -0.1382
 2814poe    c2312163   4.101   1.024   4.039  0.2674 -0.1043  0.2566
 2814poe     o212164   4.235   1.038   4.000 -0.0033  0.0011 -0.6452
 2814poe    c2312165   4.287   1.160   4.049 -0.0486 -0.3363  0.2527
 2814poe    c2312166   4.425   1.204   3.996 -0.4094  0.4098 -0.0806
 2814poe     o212167   4.422   1.237   3.859  0.2259  0.3235 -0.1172
 2814poe    c3112168   4.552   1.210   3.811  0.2471  0.8906 -0.3844
 2815poe    c3112169   0.799   1.216   2.741  0.4862  0.6984  0.4138
 2815poe     o212170   0.885   1.240   2.631 -0.3803  0.2816 -0.3645
 2815poe    c2312171   1.002   1.298   2.684 -0.3123  0.3732 -0.6114
 2815poe    c2312172   1.095   1.349   2.573 -0.2999 -0.0879 -0.8127
 2815poe     o212173   1.127   1.242   2.486 -0.1715 -0.1684 -0.6671
 2815poe    c2312174   1.227   1.288   2.398  0.1100  0.1559 -0.1844
 2815poe    c2312175   1.302   1.171   2.330 -0.0960  0.2890 -0.6465
 2815poe     o212176   1.412   1.123   2.404 -0.4939 -0.1343 -0.3217
 2815poe    c2312177   1.469   1.024   2.320  0.0590  0.4054 -0.5888
 2815poe    c2312178   1.622   1.011   2.327 -0.0295 -0.5505 -0.3417
 2815poe     o212179   1.694   1.125   2.285  0.3054 -0.5029  0.3386
 2815poe    c3112180   1.818   1.125   2.351  0.2524 -0.2439  0.4390
 2816poe    c3112181   3.828   0.798   6.015 -0.3997 -0.2634  0.1501
 2816poe     o212182   3.757   0.767   6.132 -0.4531 -0.0785  0.1679
 2816poe    c2312183   3.785   0.633   6.169 -0.0324  0.0929  0.4765
 2816poe    c2312184   3.671   0.546   6.116  0.1244  0.1293  0.0730
 2816poe     o212185   3.564   0.575   6.203  0.0580  0.1160 -0.0044
 2816poe    c2312186   3.438   0.551   6.144  0.0625  0.6134 -0.2217
 2816poe    c2312187   3.331   0.624   6.227 -0.1961 -0.0063 -0.0080
 2816poe     o212188   3.333   0.593   6.365  0.4772 -0.0661 -0.0313
 2816poe    c2312189   3.216   0.623   6.438  0.1636 -0.1799 -0.4825
 2816poe    c2312190   3.250   0.555   6.572 -0.3564 -0.3226 -0.4222
 2816poe     o212191   3.389   0.570   6.590 -0.3844 -0.1248 -0.3683
 2816poe    c3112192   3.423   0.585   6.726 -0.9774 -0.3242 -0.1964
 2817poe    c3112193   6.400   2.905   3.511 -0.0215  0.5177 -0.3209
 2817poe     o212194   6.437   2.975   3.627 -0.5246 -0.3907  0.4066
 2817poe    c2312195   6.571   2.946   3.661 -0.2555  0.2187 -0.1060
 2817poe    c2312196   6.594   2.952   3.814 -0.4152  0.0740 -0.0768
 2817poe     o212197   6.579   3.081   3.868  0.0907  0.3001 -0.4699
 2817poe    c2312198   6.569   3.073   4.008  0.0916 -0.0188 -0.4879
 2817poe    c2312199   6.491   3.188   4.074  0.0671 -0.2126 -0.1756
 2817poe     o212200   6.515   3.310   4.007 -0.1372  0.1433  0.3929
 2817poe    c2312201   6.449   3.420   4.065 -0.1950  0.1321  0.3490
 2817poe    c2312202   6.461   3.534   3.963  0.4785  0.1656  0.4627
 2817poe     o212203   6.435   3.488   3.832 -0.4603 -0.0047  0.7062
 2817poe    c3112204   6.351   3.576   3.759 -0.5555 -0.6068  0.0785
 2818poe    c3112205   0.108   1.680   4.877 -1.1294 -0.0570 -0.6608
 2818poe     o212206   0.114   1.540   4.863  0.1316 -0.1369  0.5493
 2818poe    c2312207   0.213   1.529   4.763 -0.1068  0.2616  0.2656
 2818poe    c2312208   0.292   1.398   4.779 -0.4688  0.0303  0.1847
 2818poe     o212209   0.205   1.287   4.779 -0.1228 -0.2436  0.0626
 2818poe    c2312210   0.285   1.171   4.770 -0.1170 -0.2694  0.4196
 2818poe    c2312211   0.191   1.054   4.734 -0.1081 -0.0030 -0.5048
 2818poe     o212212   0.086   1.037   4.827  0.0272  0.3721 -0.2804
 2818poe    c2312213   0.030   0.910   4.805 -0.5214  0.5710 -0.0318
 2818poe    c2312214  -0.088   0.894   4.902 -0.3685 -0.0055  0.0601
 2818poe     o212215  -0.198   0.979   4.881 -0.3151 -0.0348 -0.3441
 2818poe    c3112216  -0.298   0.940   4.973  0.0589 -0.2946 -0.0496
 2819poe    c3112217   4.879   0.074   5.968 -0.2526  0.5773  0.0355
 2819poe     o212218   4.821   0.030   6.089  0.5701  0.0672  0.2564
 2819poe    c2312219   4.892  -0.057   6.173  0.4479  0.6050  0.9322
 2819poe    c2312220   4.804  -0.081   6.297 -0.2503  0.0539  0.3367
 2819poe     o212221   4.695  -0.165   6.265 -0.2715  0.0602  0.3948
 2819poe    c2312222   4.628  -0.216   6.379  0.3097  0.1477  0.7823
 2819poe    c2312223   4.522  -0.319   6.336  0.2822  0.6510 -0.4175
 2819poe     o212224   4.459  -0.266   6.222 -0.2757 -0.0423 -0.4424
 2819poe    c2312225   4.344  -0.337   6.182 -0.2347 -0.1627 -0.3455
 2819poe    c2312226   4.287  -0.266   6.058 -0.1280  0.6620  0.0735
 2819poe     o212227   4.401  -0.232   5.982 -0.0229 -0.4219 -0.2608
 2819poe    c3112228   4.373  -0.218   5.844 -0.0820  0.2729 -0.1781
 2820poe    c3112229   1.142   5.098   0.042  0.4884 -0.1863  0.9777
 2820poe     o212230   1.112   5.230   0.004 -0.1776 -0.5594  0.1613
 2820poe    c2312231   1.230   5.307   0.000 -0.2835 -0.4175 -0.4073
 2820poe    c2312232   1.217   5.458   0.027 -0.0984 -0.4625 -0.0534
 2820poe     o212233   1.161   5.483   0.154 -0.1543  0.1193 -0.1920
 2820poe    c2312234   1.181   5.618   0.191  0.2487 -0.0848  0.3507
 2820poe    c2312235   1.138   5.661   0.332  0.1228  0.1454  0.2431
 2820poe     o212236   1.219   5.615   0.438  0.3463 -0.0345 -0.0047
 2820poe    c2312237   1.195   5.689   0.556  0.0448  0.0573 -0.1237
 2820poe    c2312238   1.242   5.623   0.687 -0.0939 -0.0946 -0.1503
 2820poe     o212239   1.192   5.492   0.702  0.0876 -0.1794 -0.2760
 2820poe    c3112240   1.266   5.393   0.771 -0.0625 -0.1335 -0.0498
 2821poe    c3112241   3.118   7.063   6.138  0.2998  0.6177 -0.0947
 2821poe     o212242   3.032   7.063   6.026 -0.2101  0.2479  0.2874
 2821poe    c2312243   3.009   7.199   5.997 -0.0792  0.2454  0.1660
 2821poe    c2312244   2.874   7.218   5.925 -0.0629  0.6519  0.2369
 2821poe     o212245   2.773   7.186   6.019  0.2394  0.0009  0.3483
 2821poe    c2312246   2.646   7.210   5.964  0.3057  0.0451  0.2131
 2821poe    c2312247   2.555   7.111   6.040  0.4603 -0.3383 -0.0991
 2821poe     o212248   2.541   7.137   6.178 -0.0898 -0.3322 -0.1557
 2821poe    c2312249   2.432   7.063   6.229  0.0798 -0.0477  0.6363
 2821poe    c2312250   2.466   6.958   6.336  0.1635  0.2398  0.8923
 2821poe     o212251   2.568   7.019   6.412  0.5137  0.2998  0.3853
 2821poe    c3112252   2.595   6.929   6.517 -0.4687 -0.2359  0.1961
 2822poe    c3112253   3.471   5.338   0.959 -0.0554 -0.4847 -0.6861
 2822poe     o212254   3.567   5.426   0.903 -0.2466  0.3469  0.2614
 2822poe    c2312255   3.569   5.403   0.764  0.1195 -0.2338  0.3544
 2822poe    c2312256   3.650   5.519   0.703 -0.1225 -0.5981 -0.6759
 2822poe     o212257   3.788   5.497   0.718 -0.0623 -0.1259 -0.5280
 2822poe    c2312258   3.876   5.605   0.693  0.2011 -0.2697 -0.2291
 2822poe    c2312259   4.013   5.550   0.736  0.3299  0.3635  0.1794
 2822poe     o212260   4.026   5.528   0.874 -0.0646  0.4577  0.2317
 2822poe    c2312261   4.162   5.512   0.906 -0.1622  0.0685  0.4608
 2822poe    c2312262   4.173   5.487   1.058  0.0777 -0.6397  0.3329
 2822poe     o212263   4.146   5.597   1.141  0.2548 -0.2166 -0.1649
 2822poe    c3112264   4.244   5.606   1.243  0.3926 -0.2520 -0.2947
 2823poe    c3112265   4.756   6.670   1.058 -0.7700  0.2090  0.1148
 2823poe     o212266   4.743   6.787   1.135  0.2093  0.2138  0.2867
 2823poe    c2312267   4.637   6.768   1.227  0.1250 -0.5150  0.0467
 2823poe    c2312268   4.669   6.828   1.365 -0.4075  0.2886 -0.1697
 2823poe     o212269   4.639   6.966   1.363 -0.9253  0.1781 -0.0605
 2823poe    c2312270   4.648   7.023   1.491 -0.1883  0.3869 -0.2001
 2823poe    c2312271   4.610   7.173   1.493  0.6404  0.5986 -0.1533
 2823poe     o212272   4.688   7.236   1.393  0.6326 -0.3182 -0.7512
 2823poe    c2312273   4.695   7.376   1.408 -0.1291 -0.2995 -0.5314
 2823poe    c2312274   4.749   7.424   1.272  0.2199  0.3969 -0.1488
 2823poe     o212275   4.843   7.333   1.220  0.1528  0.0362  0.3592
 2823poe    c3112276   4.943   7.383   1.134  0.2690 -0.8625 -0.0370
 2824poe    c3112277   0.284   2.141   3.986 -0.1824 -0.0632  0.2896
 2824poe     o212278   0.305   2.137   3.847 -0.0883 -0.1057  0.3047
 2824poe    c2312279   0.184   2.124   3.775  0.1894  0.3724 -0.2613
 2824poe    c2312280   0.213   2.084   3.629  0.2131  0.0537 -0.1702
 2824poe     o212281   0.317   2.157   3.568  0.2405  0.0517 -0.1256
 2824poe    c2312282   0.360   2.124   3.438  0.4562 -0.4510  0.0701
 2824poe    c2312283   0.415   1.987   3.395  0.4717 -0.6446  0.6948
 2824poe     o212284   0.320   1.884   3.381  0.0312 -0.1768  0.1919
 2824poe    c2312285   0.399   1.773   3.345  0.2120 -0.0122  0.0800
 2824poe    c2312286   0.309   1.653   3.380  0.0393  0.1173  0.0817
 2824poe     o212287   0.196   1.639   3.297  0.2203 -0.2368 -0.1047
 2824poe    c3112288   0.086   1.696   3.364  0.7359  0.2315  0.3524
 2825poe    c3112289   6.310   3.331   6.308 -0.2467 -0.3951  0.5861
 2825poe     o212290   6.267   3.415   6.413 -0.8126 -0.0400  0.0828
 2825poe    c2312291   6.246   3.539   6.349  0.0781 -0.0307 -0.2150
 2825poe    c2312292   6.151   3.605   6.451 -0.1355 -0.4842 -0.1139
 2825poe     o212293   6.197   3.588   6.583 -0.0159 -0.7425 -0.1890
 2825poe    c2312294   6.126   3.680   6.663  0.4612 -0.1850 -0.4026
 2825poe    c2312295   6.131   3.629   6.808 -0.1619  0.4550 -0.1489
 2825poe     o212296   6.265   3.642   6.851 -0.0292 -0.3369 -0.3058
 2825poe    c2312297   6.301   3.600   6.981  0.1327 -0.1511 -0.2910
 2825poe    c2312298   6.453   3.627   6.987  0.2145 -0.6022 -0.3395
 2825poe     o212299   6.489   3.754   6.939  0.0769 -0.2112  0.5716
 2825poe    c3112300   6.629   3.774   6.931 -0.1297  0.9475 -0.4201
 2826poe    c3112301   2.406   2.992   0.292  0.2274 -0.5792  0.4249
 2826poe     o212302   2.452   2.860   0.300  0.1058 -0.6313  0.2721
 2826poe    c2312303   2.567   2.845   0.220  0.1654  0.2857  0.1777
 2826poe    c2312304   2.626   2.702   0.215  0.2250  0.3318 -0.5786
 2826poe     o212305   2.546   2.625   0.128 -0.1853  0.2171 -0.1026
 2826poe    c2312306   2.596   2.493   0.123 -0.1563  0.2307 -0.1600
 2826poe    c2312307   2.482   2.409   0.064 -0.1517  0.1193 -0.0088
 2826poe     o212308   2.364   2.431   0.139  0.0860  0.5812  0.2295
 2826poe    c2312309   2.257   2.361   0.080  0.5512 -0.4019  0.5321
 2826poe    c2312310   2.117   2.409   0.124  0.4132 -0.0104 -0.3078
 2826poe     o212311   2.093   2.532   0.060 -0.3637 -0.6056 -1.2004
 2826poe    c3112312   1.958   2.574   0.059 -0.1719  0.1715  0.4145
 2827poe    c3112313   2.318   3.798   0.692  0.2790 -0.4392 -0.2281
 2827poe     o212314   2.294   3.663   0.721  0.3946 -0.3822  0.1358
 2827poe    c2312315   2.203   3.661   0.828 -0.1917  0.3095 -0.3450
 2827poe    c2312316   2.129   3.527   0.846  0.3962  0.0243 -0.0315
 2827poe     o212317   2.210   3.423   0.796  0.1975  0.0711 -0.4534
 2827poe    c2312318   2.178   3.299   0.856 -0.5792  0.5328  0.1081
 2827poe    c2312319   2.237   3.192   0.762 -0.3331  0.5852  0.2021
 2827poe     o212320   2.362   3.248   0.728 -0.2993  0.3428 -0.0720
 2827poe    c2312321   2.465   3.157   0.692 -0.3990  0.3930 -0.4774
 2827poe    c2312322   2.600   3.222   0.658 -0.4606  0.5173 -0.4895
 2827poe     o212323   2.651   3.294   0.767  0.1749 -0.5614 -0.0523
 2827poe    c3112324   2.778   3.350   0.744  0.1851 -0.5206  0.1037
 2828poe    c3112325   0.650   0.264   3.172  0.5297  0.0366 -0.0599
 2828poe     o212326   0.631   0.213   3.042  0.0260  0.2072 -0.0571
 2828poe    c2312327   0.533   0.113   3.050 -0.0372  0.2677 -0.0709
 2828poe    c2312328   0.518   0.019   2.929 -0.2541 -0.4815  0.5257
 2828poe     o212329   0.641  -0.037   2.889 -0.2279 -0.0331 -0.0336
 2828poe    c2312330   0.642  -0.099   2.762  0.1849 -0.0367 -0.0303
 2828poe    c2312331   0.634  -0.020   2.631  0.4961 -0.6029 -0.3949
 2828poe     o212332   0.739   0.074   2.633 -0.1197  0.0806  0.3766
 2828poe    c2312333   0.719   0.168   2.529 -0.1154 -0.0681  0.2408
 2828poe    c2312334   0.839   0.248   2.476 -0.3378 -0.1020 -0.3183
 2828poe     o212335   0.953   0.180   2.429 -0.0707 -0.1763  0.4262
 2828poe    c3112336   0.946   0.124   2.300 -0.3283 -0.3629  0.5207
 2829poe    c3112337   1.393   5.266   5.993 -0.5441 -0.5048 -0.0087
 2829poe     o212338   1.273   5.338   6.010 -0.2718 -0.0882  0.1652
 2829poe    c2312339   1.179   5.314   5.908  0.0074  0.2284 -0.1721
 2829poe    c2312340   1.116   5.438   5.842 -0.0108 -0.0074 -0.5981
 2829poe     o212341   1.115   5.534   5.945  0.0303 -0.4463 -0.1867
 2829poe    c2312342   1.091   5.666   5.902 -0.4113 -0.4809 -0.0584
 2829poe    c2312343   1.051   5.742   6.030  0.1500 -0.2274 -0.0300
 2829poe     o212344   1.141   5.702   6.131 -0.0118  0.2761  0.3180
 2829poe    c2312345   1.132   5.785   6.245  0.2819  0.2170  0.3867
 2829poe    c2312346   1.213   5.731   6.364  0.4479 -0.0637  0.1486
 2829poe     o212347   1.146   5.628   6.434 -0.0255 -0.2386 -0.5525
 2829poe    c3112348   1.228   5.573   6.534 -0.2972  0.0644 -0.1612
 2830poe    c3112349   2.143   3.158   4.701  0.2197 -0.3201 -0.7271
 2830poe     o212350   2.259   3.226   4.660  0.7074 -0.5466  0.2434
 2830poe    c2312351   2.254   3.355   4.717 -0.0638 -0.3834 -0.1775
 2830poe    c2312352   2.372   3.439   4.664 -0.1559  0.0373  0.2738
 2830poe     o212353   2.495   3.377   4.693 -0.0225  0.1958  0.0410
 2830poe    c2312354   2.612   3.452   4.667 -0.0080  0.3992  0.6805
 2830poe    c2312355   2.734   3.373   4.717 -0.2505 -0.2580  0.2500
 2830poe     o212356   2.734   3.252   4.644 -0.2352  0.0156 -0.2054
 2830poe    c2312357   2.808   3.150   4.707 -0.7838 -0.1736  0.1365
 2830poe    c2312358   2.845   3.039   4.608 -0.2715  0.4226 -0.3545
 2830poe     o212359   2.724   2.987   4.556 -0.0885  0.1638 -0.5218
 2830poe    c3112360   2.741   2.866   4.486 -0.2571 -0.1444 -0.0382
 2831poe    c3112361   4.595   4.322   2.915 -0.2378  0.1053  0.4003
 2831poe     o212362   4.462   4.290   2.952 -0.2585 -0.5794 -0.2251
 2831poe    c2312363   4.371   4.337   2.855 -0.3329 -0.2404  0.0064
 2831poe    c2312364   4.233   4.278   2.893 -0.6880  0.4692 -0.1671
 2831poe     o212365   4.238   4.137   2.891  0.5244  0.4959  0.1167
 2831poe    c2312366   4.140   4.069   2.967  0.5801  0.4848  0.1789
 2831poe    c2312367   4.147   3.918   2.939 -0.4476  0.5416 -0.4485
 2831poe     o212368   4.104   3.872   2.813 -0.3965  0.1322 -0.3177
 2831poe    c2312369   4.166   3.746   2.797 -0.2585  0.1559  0.0148
 2831poe    c2312370   4.132   3.663   2.672 -0.7227  0.3019  0.0434
 2831poe     o212371   4.150   3.730   2.549  0.0853 -0.0015 -0.0104
 2831poe    c3112372   4.109   3.670   2.428 -0.2224  0.2059 -0.0115
 2832poe    c3112373   4.357   5.039   1.023 -0.1838  0.1283  0.2116
 2832poe     o212374   4.456   5.117   0.960 -0.2849  0.6850  0.7303
 2832poe    c2312375   4.569   5.105   1.044 -0.2157  0.0431  0.5573
 2832poe    c2312376   4.672   5.206   0.988 -0.3241 -0.0097  0.2631
 2832poe     o212377   4.687   5.179   0.850  0.0049 -0.4862  0.3876
 2832poe    c2312378   4.751   5.278   0.772 -0.4033 -0.3917  0.1674
 2832poe    c2312379   4.746   5.222   0.629 -0.1705 -0.3500  0.1440
 2832poe     o212380   4.611   5.200   0.598 -0.2681  0.6695 -0.2135
 2832poe    c2312381   4.591   5.180   0.460 -0.1766 -0.3960 -0.0843
 2832poe    c2312382   4.449   5.135   0.422 -0.3832  0.2343 -0.0677
 2832poe     o212383   4.403   5.015   0.478 -0.1049 -0.0571 -0.4576
 2832poe    c3112384   4.285   4.970   0.416 -0.2367  0.0685 -0.2981
 2833poe    c3112385   5.796   4.466   4.806 -0.3590  0.1581  0.2401
 2833poe     o212386   5.868   4.587   4.812 -0.1697  0.0667 -0.1731
 2833poe    c2312387   6.008   4.577   4.810 -0.1366  0.3482  0.5039
 2833poe    c2312388   6.066   4.719   4.790 -0.5060  0.3796 -0.3963
 2833poe     o212389   6.061   4.793   4.910 -0.0729  0.2486 -0.2941
 2833poe    c2312390   6.124   4.916   4.877 -0.1878  0.1231 -1.0045
 2833poe    c2312391   6.115   5.009   4.999 -0.3412 -0.3536 -0.6450
 2833poe     o212392   5.998   5.087   5.007 -0.2048 -0.1067 -1.0066
 2833poe    c2312393   6.023   5.215   5.062  0.1216 -0.6874  0.2298
 2833poe    c2312394   5.883   5.277   5.048  0.5003  0.2831  0.6790
 2833poe     o212395   5.789   5.174   5.072  0.2002  0.3110 -0.3139
 2833poe    c3112396   5.669   5.248   5.080 -0.0299 -0.1135  0.2367
 2834poe    c3112397   2.294   4.050   1.932  0.3866  0.3038  0.4071
 2834poe     o212398   2.362   3.969   1.839 -0.3866  0.2913 -0.1561
 2834poe    c2312399   2.419   4.042   1.732  0.0232  0.0491 -0.1080
 2834poe    c2312400   2.516   3.953   1.652  0.2683  0.3050 -0.0969
 2834poe     o212401   2.604   3.896   1.747 -0.2000  0.0074  0.1633
 2834poe    c2312402   2.719   3.852   1.679 -0.3229  0.0201 -0.0553
 2834poe    c2312403   2.814   3.783   1.779 -0.0135 -0.0107 -0.3664
 2834poe     o212404   2.757   3.673   1.847 -0.1515  0.3076  0.0346
 2834poe    c2312405   2.830   3.617   1.953 -0.2769  0.0158 -0.0306
 2834poe    c2312406   2.759   3.492   2.006 -0.0028 -0.2933 -0.3910
 2834poe     o212407   2.626   3.538   2.007  0.1042  0.0165  0.3190
 2834poe    c3112408   2.544   3.428   2.039  0.4002 -0.0912  0.7019
 2835poe    c3112409   6.841   4.430   6.439 -0.3343  0.3600  0.1996
 2835poe     o212410   6.942   4.514   6.491  0.0318 -0.1154  0.2591
 2835poe    c2312411   6.931   4.633   6.417 -0.0839 -0.2193  0.1083
 2835poe    c2312412   7.045   4.726   6.462 -0.1887  0.2094 -0.4985
 2835poe     o212413   7.042   4.753   6.600 -0.4181 -0.1118 -0.4377
 2835poe    c2312414   7.130   4.863   6.617 -0.0294 -0.4928  0.0585
 2835poe    c2312415   7.138   4.901   6.766  0.8288  0.5315 -0.2424
 2835poe     o212416   7.174   4.780   6.829 -0.3424  0.2619 -0.0674
 2835poe    c2312417   7.155   4.808   6.966  0.2594 -0.0548  0.0836
 2835poe    c2312418   7.185   4.696   7.067 -0.1392 -0.1385  0.1123
 2835poe     o212419   7.322   4.667   7.085 -0.0261 -0.2044 -0.8075
 2835poe    c3112420   7.343   4.593   7.204 -0.4503  0.5957 -0.2271
 2836poe    c3112421   6.071   0.849   5.582 -0.6387 -0.7935  0.0091
 2836poe     o212422   5.990   0.930   5.500 -0.2032 -0.4499 -0.0916
 2836poe    c2312423   5.866   0.954   5.563  0.1745 -0.0212  0.5002
 2836poe    c2312424   5.784   1.068   5.497  0.1610 -0.4660 -0.2626
 2836poe     o212425   5.854   1.190   5.490 -0.2580 -0.1532  0.8161
 2836poe    c2312426   5.779   1.301   5.533  0.1058  0.1422  0.6923
 2836poe    c2312427   5.880   1.417   5.544  0.2051  0.1184  0.0809
 2836poe     o212428   5.952   1.421   5.423 -0.2743 -0.2585 -0.2242
 2836poe    c2312429   6.054   1.519   5.422 -0.2361 -0.2981 -0.1959
 2836poe    c2312430   6.131   1.490   5.291 -0.2113  0.2074 -0.2932
 2836poe     o212431   6.127   1.357   5.246 -0.0425  0.1968 -0.2780
 2836poe    c3112432   6.213   1.343   5.136 -0.1676 -0.4619 -0.3003
 2837poe    c3112433   2.803   5.405   2.721  0.7707 -0.5295 -0.2683
 2837poe     o212434   2.856   5.465   2.837  0.1263 -0.0966 -0.1977
 2837poe    c2312435   2.934   5.579   2.807  0.0057  0.0244 -0.0537
 2837poe    c2312436   2.934   5.695   2.908 -0.4113 -0.1791  0.1843
 2837poe     o212437   2.972   5.664   3.040 -0.2207 -0.0745  0.1544
 2837poe    c2312438   2.964   5.776   3.125  0.1229  0.1065 -0.0501
 2837poe    c2312439   3.013   5.738   3.266  0.0032  0.8068  0.1837
 2837poe     o212440   3.134   5.667   3.258 -0.4579  0.0783 -0.4905
 2837poe    c2312441   3.174   5.606   3.379  0.6902  0.6102 -0.5890
 2837poe    c2312442   3.307   5.530   3.369  0.2280 -0.2916  0.0730
 2837poe     o212443   3.273   5.403   3.319 -0.5641  0.0481 -0.2513
 2837poe    c3112444   3.387   5.320   3.320 -0.6605 -0.0744  0.5741
 2838poe    c3112445   2.452   5.926   5.415  0.5530  0.5496 -0.2708
 2838poe     o212446   2.346   5.991   5.481  0.5719 -0.1131  0.4228
 2838poe    c2312447   2.396   6.091   5.567  0.4406  0.6827 -0.4088
 2838poe    c2312448   2.295   6.186   5.635  0.1108  0.0788 -0.0456
 2838poe     o212449   2.206   6.130   5.729 -0.0431 -0.0218 -0.2500
 2838poe    c2312450   2.268   6.127   5.855 -0.5833 -0.3455  0.0120
 2838poe    c2312451   2.227   6.020   5.958 -0.2005 -0.1240  0.3977
 2838poe     o212452   2.098   6.047   6.008 -0.1796  0.3695  0.1966
 2838poe    c2312453   2.081   5.960   6.118  0.6647  0.2425  0.2406
 2838poe    c2312454   1.947   5.983   6.191  0.4204 -0.3444 -0.0187
 2838poe     o212455   1.913   6.118   6.214  0.0011 -0.4081 -0.2482
 2838poe    c3112456   1.796   6.131   6.292 -0.0944 -0.4829 -0.3789
 2839poe    c3112457   5.428   4.673   2.190  0.6061  0.1734  0.0675
 2839poe     o212458   5.398   4.698   2.326 -0.1311 -0.3070  0.0019
 2839poe    c2312459   5.331   4.587   2.382 -0.2882 -0.1334  0.1579
 2839poe    c2312460   5.357   4.579   2.534 -0.6937  0.2287  0.2491
 2839poe     o212461   5.292   4.679   2.609 -0.4434  0.4643  0.1520
 2839poe    c2312462   5.377   4.721   2.713 -0.1131  0.6599 -0.1949
 2839poe    c2312463   5.332   4.862   2.754  0.0823  0.6146  0.1818
 2839poe     o212464   5.338   4.966   2.659  0.2502 -0.1686 -0.6720
 2839poe    c2312465   5.471   5.010   2.651  0.1158  0.4744  0.4754
 2839poe    c2312466   5.469   5.150   2.586  0.1215  0.3431  0.1952
 2839poe     o212467   5.412   5.145   2.456  0.3408 -0.0084  0.1102
 2839poe    c3112468   5.382   5.278   2.418  0.3818  0.1760  0.6997
 2840poe    c3112469   3.049   2.136   5.506 -0.3385 -0.0233  0.0152
 2840poe     o212470   3.128   2.249   5.533 -0.1085 -0.2701  0.3829
 2840poe    c2312471   3.255   2.228   5.477 -0.1821 -0.0884  0.1435
 2840poe    c2312472   3.364   2.331   5.510  0.2340 -0.4459 -0.1015
 2840poe     o212473   3.397   2.322   5.647 -0.1776  0.2303  0.0470
 2840poe    c2312474   3.461   2.442   5.684 -0.1082  0.1619  0.1519
 2840poe    c2312475   3.488   2.430   5.835  0.1149 -0.5360  0.0574
 2840poe     o212476   3.361   2.452   5.890 -0.0195 -0.1544 -0.4022
 2840poe    c2312477   3.368   2.428   6.029  0.5396 -0.9875 -0.5739
 2840poe    c2312478   3.229   2.401   6.089  0.3427  0.6401 -0.2682
 2840poe     o212479   3.113   2.480   6.073 -0.2577 -0.1766 -0.0039
 2840poe    c3112480   3.123   2.602   6.144  0.2443 -0.3143  0.1677
 2841poe    c3112481   3.173   0.826   3.837 -0.5212 -0.2223  0.3037
 2841poe     o212482   3.192   0.688   3.855 -0.0142 -0.1977 -0.0076
 2841poe    c2312483   3.326   0.654   3.880 -0.0034 -0.2138 -0.0881
 2841poe    c2312484   3.429   0.661   3.765  0.1717  0.5262  0.1094
 2841poe     o212485   3.421   0.545   3.685  0.1142  0.6470 -0.0597
 2841poe    c2312486   3.504   0.555   3.571  0.3325  0.2310  0.0640
 2841poe    c2312487   3.476   0.434   3.480 -0.3083  0.0083  0.5540
 2841poe     o212488   3.341   0.414   3.443 -0.2577  0.2635  0.2248
 2841poe    c2312489   3.327   0.337   3.326  0.2395  0.1256  0.2529
 2841poe    c2312490   3.195   0.259   3.308  0.2475  0.2325 -0.2782
 2841poe     o212491   3.096   0.358   3.287 -0.0529 -0.0294 -0.1145
 2841poe    c3112492   2.994   0.287   3.221  0.1296 -0.3081 -0.0982
 2842poe    c3112493   0.070   1.799   6.135  0.4783 -0.4947  0.0433
 2842poe     o212494   0.101   1.823   5.999  0.0438 -0.0502  0.0181
 2842poe    c2312495   0.224   1.756   5.982 -0.0319 -0.2894  0.3829
 2842poe    c2312496   0.255   1.723   5.835 -0.1663  0.0193  0.2835
 2842poe     o212497   0.306   1.834   5.765 -0.0009  0.0225  0.4093
 2842poe    c2312498   0.345   1.811   5.631 -0.0931 -0.1181  0.4070
 2842poe    c2312499   0.372   1.937   5.547 -0.3898 -0.1703  0.2343
 2842poe     o212500   0.478   2.013   5.598 -0.1605  0.0360 -0.5347
 2842poe    c2312501   0.609   1.971   5.567  0.2065  0.6915  0.0780
 2842poe    c2312502   0.729   2.046   5.628  0.4025  0.4731 -0.0383
 2842poe     o212503   0.719   2.186   5.613  1.1270  0.4444 -0.8825
 2842poe    c3112504   0.792   2.238   5.722 -0.4709  0.2519  0.3203
 2843poe    c3112505   5.391   2.807   5.727 -0.6612  0.2061  0.1467
 2843poe     o212506   5.394   2.694   5.642  0.3513  0.3954 -0.0819
 2843poe    c2312507   5.423   2.574   5.711 -0.0786  0.3858  0.0850
 2843poe    c2312508   5.456   2.477   5.596  0.0452  0.4355  0.0791
 2843poe     o212509   5.346   2.449   5.513  0.0533 -0.0647  0.2344
 2843poe    c2312510   5.378   2.370   5.400  0.0412  0.5774 -0.2271
 2843poe    c2312511   5.261   2.367   5.300 -0.6295  0.5368  0.5434
 2843poe     o212512   5.248   2.496   5.243 -0.1860 -0.0171 -0.8407
 2843poe    c2312513   5.124   2.533   5.186 -0.2581  0.0231 -0.6581
 2843poe    c2312514   5.122   2.676   5.130  0.2750  0.2695 -0.0720
 2843poe     o212515   5.216   2.694   5.026  0.3892 -0.0747 -0.0289
 2843poe    c3112516   5.213   2.832   4.995  0.4449 -0.0532  0.0636
 2844poe    c3112517   6.014   4.131   1.083  0.3220 -0.4549  0.4720
 2844poe     o212518   5.902   4.067   1.140  0.3382 -0.5541  0.3903
 2844poe    c2312519   5.810   4.166   1.178 -0.0761 -0.7736 -0.0319
 2844poe    c2312520   5.676   4.126   1.243 -0.3324  0.4448  0.2156
 2844poe     o212521   5.593   4.042   1.165  0.0000  0.5836 -0.2922
 2844poe    c2312522   5.639   3.909   1.169 -0.6957  0.3458 -0.0145
 2844poe    c2312523   5.555   3.820   1.076 -0.5822  0.4778 -0.2441
 2844poe     o212524   5.567   3.866   0.943  0.7767 -0.3052 -0.4143
 2844poe    c2312525   5.525   3.761   0.860 -0.0067 -0.1143 -0.2632
 2844poe    c2312526   5.571   3.775   0.714  0.0339 -0.1177 -0.2505
 2844poe     o212527   5.530   3.891   0.646  0.5056  0.0909 -0.1855
 2844poe    c3112528   5.585   3.907   0.517  0.0656  0.4513 -0.3324
 2845poe    c3112529   5.688   1.538   6.675  0.4235  0.6629 -0.0428
 2845poe     o212530   5.596   1.635   6.719 -0.0287  0.1620  0.1201
 2845poe    c2312531   5.506   1.670   6.617  0.7500  0.7261 -0.3762
 2845poe    c2312532   5.387   1.755   6.665  0.1263 -0.1824 -0.3041
 2845poe     o212533   5.423   1.879   6.721  0.0930 -0.3180  0.0230
 2845poe    c2312534   5.320   1.950   6.786  0.1944 -0.1045 -0.0492
 2845poe    c2312535   5.357   2.098   6.806 -0.0907  0.0083 -0.3442
 2845poe     o212536   5.472   2.113   6.887 -0.1878 -0.1183 -0.1816
 2845poe    c2312537   5.560   2.216   6.849  0.0280 -0.3368 -0.2841
 2845poe    c2312538   5.695   2.220   6.921  0.1964  0.1929 -0.6179
 2845poe     o212539   5.688   2.187   7.058  0.2303 -0.0671 -0.6773
 2845poe    c3112540   5.816   2.188   7.117  0.2782  0.4210 -0.7890
 2846poe    c3112541   5.213   4.203   4.125  0.0886  0.6317  0.8792
 2846poe     o212542   5.262   4.323   4.070  0.4428  0.0134 -0.1909
 2846poe    c2312543   5.197   4.432   4.132 -0.1856 -0.1487 -0.5550
 2846poe    c2312544   5.193   4.551   4.033  0.0519  0.0094 -0.3769
 2846poe     o212545   5.323   4.548   3.979  0.2004  0.0671 -0.0283
 2846poe    c2312546   5.337   4.663   3.899 -0.3113  0.3831  0.3278
 2846poe    c2312547   5.487   4.668   3.863 -0.2721  0.5749  0.5212
 2846poe     o212548   5.565   4.653   3.980  0.0058  0.2024  0.2873
 2846poe    c2312549   5.703   4.629   3.964  0.0352  0.4142  0.2120
 2846poe    c2312550   5.771   4.640   4.102 -0.4431  0.5814  0.4376
 2846poe     o212551   5.741   4.538   4.196  0.6020 -0.2708 -0.1281
 2846poe    c3112552   5.819   4.554   4.312 -0.3945  0.5514  0.4383
 2847poe    c3112553   1.623   0.116   3.450 -0.2027  0.2875 -0.5015
 2847poe     o212554   1.741   0.097   3.525 -0.3508 -0.4587 -0.4542
 2847poe    c2312555   1.782   0.220   3.580 -0.0612 -0.5116 -0.5496
 2847poe    c2312556   1.887   0.207   3.692 -0.6281 -0.7225 -0.0330
 2847poe     o212557   2.003   0.169   3.621 -0.3559  0.0450 -0.0039
 2847poe    c2312558   2.082   0.078   3.694 -0.5642 -0.1590 -0.0310
 2847poe    c2312559   2.164  -0.020   3.608  0.4247  0.0205  0.6845
 2847poe     o212560   2.257   0.033   3.515 -0.6380 -0.3040 -0.5937
 2847poe    c2312561   2.300  -0.040   3.402  0.1890  0.6330 -0.8960
 2847poe    c2312562   2.453  -0.053   3.403  0.1409  0.0637 -0.1461
 2847poe     o212563   2.520   0.066   3.368 -0.2424  0.3526  0.0896
 2847poe    c3112564   2.657   0.048   3.397 -0.2024 -0.4548 -0.5424
 2848poe    c3112565   2.320   0.842   3.322  1.1745 -0.6009  0.1307
 2848poe     o212566   2.314   0.800   3.456  0.1666 -0.2607  0.2011
 2848poe    c2312567   2.447   0.831   3.495  0.4809 -0.7712 -0.4509
 2848poe    c2312568   2.463   0.808   3.646 -0.8266 -0.1800 -0.2070
 2848poe     o212569   2.435   0.671   3.665 -0.2208 -0.2502  0.2366
 2848poe    c2312570   2.463   0.639   3.799 -0.1917 -0.0172  0.2864
 2848poe    c2312571   2.413   0.500   3.843  0.1480 -0.3655 -0.4148
 2848poe     o212572   2.495   0.401   3.785  0.4192 -0.1281 -0.4388
 2848poe    c2312573   2.455   0.277   3.840  0.4415 -0.1392 -0.4474
 2848poe    c2312574   2.532   0.154   3.791  0.1813 -0.5519  0.1718
 2848poe     o212575   2.666   0.156   3.837  0.2987 -0.0664 -0.1918
 2848poe    c3112576   2.692   0.112   3.968  0.2385  0.8610  0.1427
 2849poe    c3112577   4.424   2.473   3.914 -0.0637 -0.1250  0.2730
 2849poe     o212578   4.332   2.459   3.808  0.1512 -0.4357  0.1259
 2849poe    c2312579   4.396   2.480   3.685  0.1591  0.4392  0.2733
 2849poe    c2312580   4.294   2.476   3.570  0.3158 -0.7281  0.1590
 2849poe     o212581   4.231   2.602   3.560 -0.0967 -0.9535 -0.0807
 2849poe    c2312582   4.154   2.604   3.442 -0.3102 -0.7866  0.0613
 2849poe    c2312583   4.093   2.745   3.429  0.0424 -0.5956  0.4790
 2849poe     o212584   4.036   2.807   3.542  0.3418  0.1282  0.2345
 2849poe    c2312585   4.037   2.947   3.523  0.1862  0.0768 -0.1636
 2849poe    c2312586   3.950   3.007   3.411 -0.3794 -0.1947  0.1251
 2849poe     o212587   3.811   3.005   3.433 -0.3705  0.2932  0.2249
 2849poe    c3112588   3.753   3.053   3.314  0.3308  0.2919 -0.1173
 2850poe    c3112589   0.407   2.746   6.281  0.6465  0.0281  0.7203
 2850poe     o212590   0.312   2.843   6.319  0.7157  0.4431 -0.1359
 2850poe    c2312591   0.370   2.909   6.430 -0.2924  0.3120  0.4815
 2850poe    c2312592   0.285   3.003   6.517 -0.2918  0.2295  0.5708
 2850poe     o212593   0.181   2.948   6.595 -0.2654 -0.0351  0.4184
 2850poe    c2312594   0.097   3.046   6.651 -0.1326  0.3249 -0.0071
 2850poe    c2312595  -0.008   2.984   6.745  0.1519  0.1790  0.2168
 2850poe     o212596  -0.064   2.881   6.668  0.1927  0.1046  0.2869
 2850poe    c2312597  -0.205   2.887   6.680  0.1264 -0.2371 -0.2580
 2850poe    c2312598  -0.277   2.773   6.607 -0.0495 -0.3154  0.0337
 2850poe     o212599  -0.248   2.771   6.469 -0.3264  0.5929 -0.0425
 2850poe    c3112600  -0.359   2.750   6.385 -0.4506  0.1810  0.2242
 2851poe    c3112601   2.777   6.859   4.184 -0.3035  0.1144  0.2766
 2851poe     o212602   2.768   6.906   4.316 -0.6584 -0.1277  0.3403
 2851poe    c2312603   2.851   6.833   4.403  0.4502  0.4073 -0.2561
 2851poe    c2312604   2.838   6.877   4.550  0.2146 -0.4973  0.0022
 2851poe     o212605   2.705   6.862   4.596  0.2491 -0.1384  0.2261
 2851poe    c2312606   2.695   6.878   4.735 -0.3310  0.1580  0.1549
 2851poe    c2312607   2.552   6.851   4.785 -0.2152 -0.1257  0.3401
 2851poe     o212608   2.467   6.924   4.699  0.2729 -0.4668 -0.4440
 2851poe    c2312609   2.333   6.923   4.741  0.4733  1.0269  0.3070
 2851poe    c2312610   2.268   7.058   4.707 -0.2520  0.6611  0.2218
 2851poe     o212611   2.283   7.066   4.567  0.5531  0.2208  0.2792
 2851poe    c3112612   2.173   7.120   4.497  0.2660 -0.4235  0.2195
 2852poe    c3112613   2.354   5.367   2.749  0.0996  0.3504 -0.1503
 2852poe     o212614   2.343   5.251   2.671  0.1869 -0.1644  0.5956
 2852poe    c2312615   2.210   5.204   2.680  0.1970 -0.3211 -0.0054
 2852poe    c2312616   2.180   5.070   2.611  0.3168 -0.2478 -0.1992
 2852poe     o212617   2.131   5.092   2.480  0.0099  0.3851  0.0210
 2852poe    c2312618   2.151   4.985   2.391  0.2563  0.4416  0.0068
 2852poe    c2312619   2.116   5.000   2.242  0.0240  0.1915  0.0345
 2852poe     o212620   2.217   5.076   2.179 -0.0741  0.0828 -0.2563
 2852poe    c2312621   2.175   5.210   2.172  0.0487  0.1032 -0.6322
 2852poe    c2312622   2.280   5.314   2.128  0.0096  0.0756 -0.7910
 2852poe     o212623   2.379   5.337   2.225 -0.1174 -0.2409 -0.5829
 2852poe    c3112624   2.494   5.390   2.162  0.2641  0.2982  0.5204
 2853poe    c3112625   0.980   6.240   4.327  0.0642  0.1693 -0.7178
 2853poe     o212626   1.048   6.359   4.363 -0.1656 -0.0474  0.4708
 2853poe    c2312627   0.974   6.469   4.315  0.1790 -0.1326 -0.2720
 2853poe    c2312628   1.039   6.603   4.355  1.0014 -0.7235  0.4043
 2853poe     o212629   1.160   6.642   4.293  0.2632  0.4897 -0.3009
 2853poe    c2312630   1.214   6.761   4.345 -0.6436  0.7581  0.0490
 2853poe    c2312631   1.364   6.792   4.324 -0.4867  0.1518  0.2545
 2853poe     o212632   1.452   6.743   4.422  0.0565  0.0489 -0.2777
 2853poe    c2312633   1.578   6.805   4.416  0.1993 -0.2246 -0.1658
 2853poe    c2312634   1.697   6.720   4.462  0.3328  0.1343  0.1566
 2853poe     o212635   1.729   6.612   4.377  0.0959 -0.0185  0.2605
 2853poe    c3112636   1.854   6.572   4.428  0.2870  0.3412  0.0747
 2854poe    c3112637   1.063   6.414   1.406 -0.1424 -0.1792  0.1609
 2854poe     o212638   0.929   6.397   1.449 -0.3808  0.5366 -0.2901
 2854poe    c2312639   0.884   6.526   1.484  0.1495  0.6814 -0.1270
 2854poe    c2312640   0.763   6.504   1.577  0.2158 -0.0455 -0.2081
 2854poe     o212641   0.677   6.419   1.505  0.2302 -0.4974  0.2985
 2854poe    c2312642   0.559   6.410   1.583 -0.2350  0.1465 -0.3192
 2854poe    c2312643   0.490   6.274   1.566 -0.0626  0.0260 -0.0595
 2854poe     o212644   0.575   6.165   1.596 -0.0823  0.0039 -0.0849
 2854poe    c2312645   0.497   6.048   1.609 -0.2813  0.0897 -0.4817
 2854poe    c2312646   0.588   5.928   1.639 -0.0353  0.3682 -0.1099
 2854poe     o212647   0.697   5.903   1.553  0.0648  0.0292  0.1113
 2854poe    c3112648   0.775   5.800   1.609  0.2727 -0.1383 -0.4796
 2855poe    c3112649   3.940   2.990   5.401  0.0279 -0.1356 -0.0633
 2855poe     o212650   4.014   2.926   5.299 -0.2421 -0.2294 -0.2025
 2855poe    c2312651   4.108   2.846   5.367  0.3457  0.4288 -0.2281
 2855poe    c2312652   4.234   2.822   5.282  0.3812  0.7473 -0.2671
 2855poe     o212653   4.190   2.765   5.161  0.6490 -0.0094 -0.0167
 2855poe    c2312654   4.276   2.749   5.051 -0.0918 -0.7061 -0.5030
 2855poe    c2312655   4.323   2.885   4.995 -0.5253 -0.0865  0.6125
 2855poe     o212656   4.220   2.958   4.932 -0.0933 -0.0837 -0.1013
 2855poe    c2312657   4.260   2.997   4.802 -0.0574  0.5666  0.0994
 2855poe    c2312658   4.142   3.080   4.748 -0.3239 -0.0485 -0.2817
 2855poe     o212659   4.144   3.210   4.804 -0.1729 -0.1490 -0.0513
 2855poe    c3112660   4.030   3.280   4.758 -0.1457 -0.0678  0.0049
 2856poe    c3112661   5.344   4.376   1.373  0.4470 -1.1561 -0.6901
 2856poe     o212662   5.438   4.388   1.477 -0.2281 -0.0048 -0.1899
 2856poe    c2312663   5.372   4.417   1.598  0.4551 -0.2039  0.2349
 2856poe    c2312664   5.458   4.426   1.726  0.0417 -0.0594  0.5034
 2856poe     o212665   5.527   4.549   1.737  0.5467 -0.3149  0.2263
 2856poe    c2312666   5.601   4.545   1.857  0.0981 -0.6359  0.4981
 2856poe    c2312667   5.681   4.669   1.898  0.0316 -0.2123 -0.6206
 2856poe     o212668   5.792   4.679   1.811  0.9143 -1.0317  0.3883
 2856poe    c2312669   5.879   4.774   1.868 -0.5388  1.0010 -0.6531
 2856poe    c2312670   6.016   4.763   1.800 -0.5270  0.1787 -0.5025
 2856poe     o212671   6.075   4.637   1.828  0.0258  0.4899 -0.2545
 2856poe    c3112672   6.179   4.610   1.736 -0.3986 -0.4093 -0.4772
 2857poe    c3112673   4.474   1.015   4.647 -0.3590  0.2738 -0.0799
 2857poe     o212674   4.537   1.128   4.592 -0.2933 -0.0953 -0.7818
 2857poe    c2312675   4.642   1.077   4.513  0.0257  0.2091 -0.5564
 2857poe    c2312676   4.717   1.174   4.420  0.3919 -0.1691 -0.6595
 2857poe     o212677   4.779   1.277   4.494  0.5231 -0.8643  0.2084
 2857poe    c2312678   4.867   1.348   4.410 -0.4721  0.4919  0.2945
 2857poe    c2312679   4.987   1.404   4.487 -0.2276  0.4290 -0.0376
 2857poe     o212680   4.967   1.527   4.553  0.4772  0.2169  0.5961
 2857poe    c2312681   5.089   1.594   4.574  0.7782 -0.2291  0.2638
 2857poe    c2312682   5.082   1.714   4.670 -0.3244 -0.0768  0.0049
 2857poe     o212683   5.060   1.672   4.803 -0.5218  0.2874  0.0878
 2857poe    c3112684   5.091   1.766   4.904  0.0822  0.0526  0.1267
 2858poe    c3112685   3.459   2.150   3.151 -0.2523  0.2162  0.9974
 2858poe     o212686   3.341   2.086   3.192 -0.2779 -0.5606 -0.2240
 2858poe    c2312687   3.223   2.142   3.140 -0.0821  0.6735  0.6105
 2858poe    c2312688   3.168   2.281   3.178 -0.7486  0.7165 -0.4531
 2858poe     o212689   3.113   2.283   3.308  0.3838  0.1068  0.0519
 2858poe    c2312690   2.989   2.220   3.331 -0.2186  1.3491  0.3216
 2858poe    c2312691   2.941   2.209   3.476 -0.0804  0.2066  0.2909
 2858poe     o212692   3.043   2.174   3.567  0.0451 -0.1699  0.0046
 2858poe    c2312693   3.007   2.172   3.703  0.0521 -0.1226  0.0071
 2858poe    c2312694   3.017   2.311   3.768 -0.3429 -0.0851 -0.0127
 2858poe     o212695   3.146   2.361   3.796 -0.5116  0.0139  0.5927
 2858poe    c3112696   3.211   2.293   3.900  1.0026 -0.4090 -0.5976
 2859poe    c3112697   3.226   4.122   3.733  0.3343 -0.6115  0.1924
 2859poe     o212698   3.183   3.992   3.700 -0.5768 -0.3235  0.2021
 2859poe    c2312699   3.084   4.023   3.605 -0.1331  0.0044 -0.1575
 2859poe    c2312700   3.039   3.887   3.547  0.2099 -0.0365 -0.3294
 2859poe     o212701   3.165   3.839   3.504  0.1540 -0.8101  0.3560
 2859poe    c2312702   3.150   3.737   3.409  0.1522 -0.4368 -0.0488
 2859poe    c2312703   3.292   3.691   3.369  0.6081  0.5014  0.4558
 2859poe     o212704   3.352   3.655   3.491  0.0027 -0.2505  0.5424
 2859poe    c2312705   3.438   3.546   3.469  0.6747  0.3960 -0.0935
 2859poe    c2312706   3.495   3.503   3.606 -0.5495 -0.3239  0.2084
 2859poe     o212707   3.575   3.613   3.646 -0.2456 -0.4751  0.0200
 2859poe    c3112708   3.628   3.593   3.775  0.4010 -0.1778 -0.1948
 2860poe    c3112709   3.534   0.882   4.196 -0.1083 -0.2544  0.2523
 2860poe     o212710   3.607   0.796   4.281  0.1980 -0.0253  0.2246
 2860poe    c2312711   3.520   0.751   4.383 -0.4520 -0.0871 -0.3500
 2860poe    c2312712   3.603   0.670   4.484  0.0818  0.5502 -0.2683
 2860poe     o212713   3.682   0.762   4.556  0.0829  0.1621  0.2386
 2860poe    c2312714   3.761   0.695   4.651  0.4450 -0.0562 -0.2104
 2860poe    c2312715   3.788   0.799   4.761  0.1968 -0.1040 -0.1045
 2860poe     o212716   3.845   0.911   4.698  0.7257 -0.2916  0.0389
 2860poe    c2312717   3.873   1.030   4.768 -0.2710  0.2191 -0.4095
 2860poe    c2312718   3.918   1.131   4.661 -0.2281  0.4386 -0.1853
 2860poe     o212719   3.821   1.132   4.559  0.2174 -0.0688 -0.6192
 2860poe    c3112720   3.815   1.252   4.485  0.1462  0.4220  0.1724
 2861poe    c3112721   0.614   0.796   2.912  0.8409 -0.2754 -0.1043
 2861poe     o212722   0.515   0.858   2.991  1.0028  0.2487 -0.3087
 2861poe    c2312723   0.554   0.985   3.038 -0.0934  0.5941 -0.2914
 2861poe    c2312724   0.433   1.066   3.088  0.4179  0.5793  1.0191
 2861poe     o212725   0.344   0.999   3.174 -0.3948  0.2170 -0.0815
 2861poe    c2312726   0.218   1.061   3.183 -0.2243  0.5659 -0.0903
 2861poe    c2312727   0.117   1.000   3.282 -0.0316  0.0088 -0.2347
 2861poe     o212728   0.110   0.861   3.260  0.4040 -0.1899  0.8219
 2861poe    c2312729   0.006   0.803   3.336  0.4201 -0.4191  0.6688
 2861poe    c2312730  -0.019   0.662   3.279  0.2158 -0.2226  0.2655
 2861poe     o212731   0.109   0.611   3.249  0.2334  0.1433 -0.3023
 2861poe    c3112732   0.086   0.490   3.180  0.5103  0.1357 -0.3822
 2862poe    c3112733   1.272   3.613   6.339 -0.1826  0.6340 -0.0011
 2862poe     o212734   1.294   3.729   6.263  0.0545  0.7601  0.2629
 2862poe    c2312735   1.327   3.698   6.130 -0.1895  0.2098  0.3299
 2862poe    c2312736   1.385   3.820   6.056  0.4302 -0.0400  0.3937
 2862poe     o212737   1.514   3.856   6.101  0.4578 -0.6873  0.8429
 2862poe    c2312738   1.575   3.973   6.052  0.3726 -0.7404  0.6059
 2862poe    c2312739   1.729   3.960   6.057  0.4387 -0.0889  0.3923
 2862poe     o212740   1.801   3.961   6.178 -0.2171  0.1734  0.7888
 2862poe    c2312741   1.933   3.918   6.153 -0.7021 -0.9972  0.1655
 2862poe    c2312742   2.013   3.904   6.284  0.0513  0.1128 -0.1623
 2862poe     o212743   2.021   4.022   6.361  0.3089 -0.2179  0.3179
 2862poe    c3112744   2.136   4.029   6.443  0.2914  0.2408  0.3058
 2863poe    c3112745   2.059   1.991   0.666 -0.5837  0.0554 -0.3818
 2863poe     o212746   2.040   1.855   0.634 -0.2382  0.0602 -0.6125
 2863poe    c2312747   2.071   1.767   0.740 -0.7968  0.4615 -0.1152
 2863poe    c2312748   2.037   1.617   0.731  0.2115  0.2461 -0.3655
 2863poe     o212749   2.096   1.547   0.623  0.1505 -0.7603  0.2420
 2863poe    c2312750   2.073   1.409   0.635  0.4528 -0.8188  0.1415
 2863poe    c2312751   2.095   1.353   0.493  0.3460 -0.0787 -0.1700
 2863poe     o212752   2.018   1.412   0.391  0.1600  0.0847  0.0626
 2863poe    c2312753   1.891   1.351   0.384  0.2492 -0.1139  0.1519
 2863poe    c2312754   1.787   1.464   0.376  0.4452  0.0287 -0.3997
 2863poe     o212755   1.793   1.521   0.247  0.1559 -0.1940 -0.5122
 2863poe    c3112756   1.669   1.537   0.182  0.0017 -0.0814 -0.1948
 2864poe    c3112757   3.992   3.812   1.546  0.2939 -0.1922  0.4942
 2864poe     o212758   3.946   3.946   1.547 -0.7616 -0.5406  0.3527
 2864poe    c2312759   4.005   4.045   1.628 -0.3966 -0.1360 -0.4036
 2864poe    c2312760   3.940   4.179   1.589  0.0623  0.0550 -0.5275
 2864poe     o212761   3.807   4.153   1.549 -0.2246 -0.1144  0.4936
 2864poe    c2312762   3.731   4.271   1.535  0.0995 -0.0275 -0.6477
 2864poe    c2312763   3.585   4.239   1.496 -0.0939  0.1891 -0.1063
 2864poe     o212764   3.593   4.162   1.378 -0.3876  0.0414 -0.0312
 2864poe    c2312765   3.466   4.118   1.335 -0.5853  0.2560  0.3204
 2864poe    c2312766   3.470   4.047   1.198  0.1259  0.4357  0.2407
 2864poe     o212767   3.530   3.919   1.196 -0.1837  0.2908 -0.1338
 2864poe    c3112768   3.572   3.859   1.076 -0.3595 -0.0665 -0.0177
 2865poe    c3112769   1.235   4.765   2.451  0.0651 -0.6265  1.1648
 2865poe     o212770   1.132   4.688   2.392  0.0787  0.1778  0.0548
 2865poe    c2312771   1.032   4.641   2.480 -0.1078  0.5238  0.0280
 2865poe    c2312772   0.920   4.570   2.404  0.3121  0.2755 -0.3600
 2865poe     o212773   0.964   4.453   2.337  0.3241  0.0522  0.0314
 2865poe    c2312774   0.864   4.365   2.289  0.2947  0.2271 -0.2332
 2865poe    c2312775   0.904   4.217   2.298 -0.5114 -0.0134 -0.5530
 2865poe     o212776   1.011   4.191   2.209 -0.3581 -0.3977 -0.2631
 2865poe    c2312777   1.054   4.059   2.232 -0.5496 -0.3652  0.2942
 2865poe    c2312778   1.187   4.024   2.164 -0.6797 -0.3908  0.0511
 2865poe     o212779   1.187   3.971   2.033  0.2602 -0.0508 -0.0929
 2865poe    c3112780   1.306   4.007   1.966 -0.2429  0.0715 -0.9322
 2866poe    c3112781   7.206   2.910   2.943  0.6367 -0.2508  0.2899
 2866poe     o212782   7.069   2.925   2.972  0.4615 -0.7702 -0.2629
 2866poe    c2312783   7.006   2.800   2.956 -0.7653 -0.1906 -0.1058
 2866poe    c2312784   6.856   2.832   2.972 -0.5403  0.6981  0.2547
 2866poe     o212785   6.819   2.939   2.888 -0.3464  0.4747 -0.1131
 2866poe    c2312786   6.685   2.981   2.900 -0.5614 -0.2091 -0.0714
 2866poe    c2312787   6.666   3.094   2.798  1.1412 -0.2407 -0.4613
 2866poe     o212788   6.762   3.195   2.822  0.6082  0.1511  0.0805
 2866poe    c2312789   6.729   3.294   2.728  0.5717  0.3326  0.2842
 2866poe    c2312790   6.819   3.419   2.735  0.3358  0.4954  0.4228
 2866poe     o212791   6.957   3.390   2.735  0.2524  0.0957  0.3467
 2866poe    c3112792   7.030   3.510   2.736 -0.0047  0.2581 -0.0032
 2867poe    c3112793   1.153   1.205   0.883 -0.2198 -0.7178  0.2956
 2867poe     o212794   1.057   1.107   0.850 -0.4737 -0.5073  0.4115
 2867poe    c2312795   1.101   1.001   0.769  0.5102  0.2281 -0.0321
 2867poe    c2312796   0.972   0.947   0.703  0.6115 -0.6804  0.4903
 2867poe     o212797   0.877   0.935   0.806  0.3298 -0.2657  0.2809
 2867poe    c2312798   0.764   0.872   0.749 -0.0395  0.6097  0.0422
 2867poe    c2312799   0.643   0.898   0.840 -0.3258 -0.1004 -0.1340
 2867poe     o212800   0.638   0.834   0.966 -0.5657 -0.6369 -0.4094
 2867poe    c2312801   0.528   0.859   1.051 -0.1919 -0.1306 -0.0599
 2867poe    c2312802   0.562   0.853   1.201 -0.0526  0.3711 -0.0709
 2867poe     o212803   0.655   0.954   1.231  0.2895  0.0367  0.0078
 2867poe    c3112804   0.671   0.978   1.369  0.5712 -0.7032  0.1078
 2868poe    c3112805   1.264   4.843   5.617  0.1269 -0.5249 -0.0750
 2868poe     o212806   1.132   4.894   5.610  0.4855  0.4752  0.3102
 2868poe    c2312807   1.107   4.957   5.486 -0.5697 -0.3846  0.0779
 2868poe    c2312808   0.974   5.035   5.490 -0.5146 -0.2752 -0.1745
 2868poe     o212809   0.891   4.953   5.570 -0.0927 -0.2510  0.2943
 2868poe    c2312810   0.754   4.982   5.553  0.0440  0.5337  0.4694
 2868poe    c2312811   0.671   4.882   5.636  0.2130 -0.3621 -0.4200
 2868poe     o212812   0.722   4.871   5.766 -0.1565 -0.5035 -0.2858
 2868poe    c2312813   0.633   4.825   5.866 -0.0259  0.0467  0.0881
 2868poe    c2312814   0.695   4.852   6.005 -0.1526  0.4487  0.0679
 2868poe     o212815   0.809   4.771   6.022 -0.3175  0.1057 -0.4169
 2868poe    c3112816   0.775   4.659   6.101 -0.5162  0.5969  0.1973
 2869poe    c3112817   6.130   4.094   4.936 -0.0678  0.0931 -0.1950
 2869poe     o212818   6.248   4.155   4.984 -0.1344 -0.5409  0.8005
 2869poe    c2312819   6.337   4.206   4.888 -0.2261 -0.2736  0.8565
 2869poe    c2312820   6.465   4.234   4.969  0.6094 -0.2322 -0.4470
 2869poe     o212821   6.410   4.289   5.087  0.5390 -0.4719 -0.3677
 2869poe    c2312822   6.496   4.289   5.199 -0.0171  0.3361  0.0625
 2869poe    c2312823   6.420   4.369   5.306 -0.4011 -0.8109  0.6636
 2869poe     o212824   6.291   4.316   5.328 -1.0285  0.2474 -0.3072
 2869poe    c2312825   6.245   4.342   5.459 -0.0079 -0.4437  0.2070
 2869poe    c2312826   6.097   4.308   5.482 -0.0638  0.1381  0.7549
 2869poe     o212827   6.087   4.167   5.478 -0.2696  0.1550  0.6596
 2869poe    c3112828   5.962   4.102   5.488 -0.3374  0.1127 -0.3417
 2870poe    c3112829   6.818   2.746   1.999  0.4511 -0.2313 -0.0046
 2870poe     o212830   6.694   2.705   1.947  0.5689 -0.6138  0.0140
 2870poe    c2312831   6.591   2.680   2.041  0.2688 -0.2053 -0.2018
 2870poe    c2312832   6.482   2.788   2.042  0.2969 -0.1794  0.1928
 2870poe     o212833   6.504   2.892   2.135 -0.4354  0.6349 -0.5337
 2870poe    c2312834   6.432   2.879   2.255  0.2018  0.2433 -0.1934
 2870poe    c2312835   6.483   2.982   2.359  0.0563  0.2073 -0.0863
 2870poe     o212836   6.498   3.109   2.299  0.5653  0.3720  0.3890
 2870poe    c2312837   6.511   3.207   2.399  0.0540  0.4598  0.3722
 2870poe    c2312838   6.537   3.337   2.321 -0.2514  0.0763 -0.3720
 2870poe     o212839   6.617   3.322   2.205  0.3345  0.0852  0.0255
 2870poe    c3112840   6.622   3.447   2.139 -0.0618  0.0720 -0.0344
 2871poe    c3112841   4.754   1.013   3.446 -0.1335 -0.6633  0.4606
 2871poe     o212842   4.642   0.928   3.432 -0.1186 -0.5814 -0.1968
 2871poe    c2312843   4.518   0.987   3.461  0.1205  0.2954 -0.9296
 2871poe    c2312844   4.404   0.885   3.443 -0.1070  0.3225  0.3344
 2871poe     o212845   4.397   0.785   3.542 -0.1073 -0.3264 -0.3182
 2871poe    c2312846   4.355   0.663   3.485  0.4564 -0.5249 -0.3146
 2871poe    c2312847   4.316   0.559   3.592 -0.2338  0.5035  0.4595
 2871poe     o212848   4.422   0.511   3.672  0.3505  0.4246 -0.3435
 2871poe    c2312849   4.483   0.393   3.625  0.0046  0.0593  0.1125
 2871poe    c2312850   4.412   0.260   3.595 -0.1218  0.0769  0.3305
 2871poe     o212851   4.327   0.273   3.483 -0.1383  0.1075  0.3467
 2871poe    c3112852   4.270   0.150   3.446  0.2770 -0.0629  0.2698
 2872poe    c3112853   1.312   2.905   3.324  0.4506 -0.1741  0.2659
 2872poe     o212854   1.338   3.000   3.425 -0.0731  0.2005  0.0522
 2872poe    c2312855   1.434   3.086   3.366  0.5758 -0.7613 -0.3215
 2872poe    c2312856   1.450   3.205   3.462 -0.4879 -0.7727 -0.1194
 2872poe     o212857   1.471   3.141   3.586 -0.2753 -0.2820  0.0975
 2872poe    c2312858   1.484   3.249   3.677  0.1455 -0.2135 -0.0421
 2872poe    c2312859   1.492   3.192   3.819 -0.1617 -0.0219  0.0522
 2872poe     o212860   1.365   3.131   3.829 -0.1426 -0.0787 -0.0512
 2872poe    c2312861   1.329   3.137   3.965 -0.0926  0.4842 -0.0596
 2872poe    c2312862   1.175   3.126   3.975 -0.1177  0.6099 -0.2990
 2872poe     o212863   1.112   3.019   3.909  0.6469 -0.1125  0.1146
 2872poe    c3112864   1.068   2.924   4.004  0.1406  0.2829  0.2825
 2873poe    c3112865   3.426   5.685   1.073 -0.2037 -0.2110  0.2795
 2873poe     o212866   3.482   5.719   1.198  0.6606 -0.1067 -0.1310
 2873poe    c2312867   3.395   5.688   1.304  0.5874  0.2464 -0.0833
 2873poe    c2312868   3.454   5.720   1.443  0.2645 -0.1767  0.1560
 2873poe     o212869   3.452   5.858   1.473 -0.1369 -0.1398 -0.0397
 2873poe    c2312870   3.540   5.879   1.581 -0.2954  0.2776  0.0111
 2873poe    c2312871   3.495   5.985   1.682 -0.0102  0.1627  0.2607
 2873poe     o212872   3.467   6.093   1.595  0.0500 -0.1422 -0.1414
 2873poe    c2312873   3.509   6.216   1.651  1.1341 -0.2230 -0.7506
 2873poe    c2312874   3.515   6.322   1.540  0.3570  0.8163  0.1824
 2873poe     o212875   3.389   6.330   1.478  0.5412 -0.2304 -0.3387
 2873poe    c3112876   3.399   6.407   1.361  0.5124 -0.2724 -0.3690
 2874poe    c3112877   0.209   3.064   1.446  0.5767 -0.1498  0.0920
 2874poe     o212878   0.245   3.005   1.569 -0.5059  0.0138  0.5014
 2874poe    c2312879   0.349   2.915   1.537 -0.2882  0.2604  0.5053
 2874poe    c2312880   0.403   2.848   1.665 -0.0703 -0.5435  0.0002
 2874poe     o212881   0.312   2.771   1.740 -0.4100 -0.2788 -0.1351
 2874poe    c2312882   0.291   2.645   1.681  0.2876 -0.3265 -0.2846
 2874poe    c2312883   0.281   2.546   1.799 -0.2185 -0.5350 -0.4985
 2874poe     o212884   0.159   2.544   1.870 -0.0614 -0.0770 -0.2097
 2874poe    c2312885   0.087   2.426   1.845  0.1214 -0.2608  0.1163
 2874poe    c2312886  -0.064   2.425   1.877  0.0501  0.4173 -0.1853
 2874poe     o212887  -0.132   2.477   1.764 -0.3577 -0.3687 -0.3069
 2874poe    c3112888  -0.262   2.425   1.747 -0.7086  0.3100  0.2431
 2875poe    c3112889   6.861   1.895   3.868  0.0157 -0.7448 -0.3558
 2875poe     o212890   6.764   1.906   3.766 -0.2518  0.0025 -0.0226
 2875poe    c2312891   6.813   1.843   3.650 -0.2695  0.2860 -0.1856
 2875poe    c2312892   6.696   1.828   3.551 -0.0319 -0.7407 -0.3220
 2875poe     o212893   6.638   1.950   3.512  0.2746 -0.5915 -0.3130
 2875poe    c2312894   6.536   1.923   3.418 -0.0279 -0.0177 -0.1566
 2875poe    c2312895   6.473   2.054   3.366  0.4520  0.4837  0.5097
 2875poe     o212896   6.425   2.141   3.466 -0.3504  0.0812  0.4802
 2875poe    c2312897   6.376   2.264   3.417  0.2528  0.0259 -0.2855
 2875poe    c2312898   6.374   2.346   3.548  0.3488  0.3956 -0.5154
 2875poe     o212899   6.493   2.338   3.621  0.3371  0.3265 -0.5042
 2875poe    c3112900   6.510   2.454   3.700  0.3448  0.1843 -0.2951
 2876poe    c3112901   1.472   5.883   5.432 -0.1061  0.0985 -0.4294
 2876poe     o212902   1.579   5.971   5.405 -0.2265  0.2964 -0.2609
 2876poe    c2312903   1.530   6.098   5.369 -0.2811  0.2351 -0.4036
 2876poe    c2312904   1.633   6.210   5.346  0.3608 -0.4112 -0.7010
 2876poe     o212905   1.739   6.248   5.431 -0.2324 -0.1195 -0.0868
 2876poe    c2312906   1.792   6.370   5.385  0.3913 -0.1369  0.5802
 2876poe    c2312907   1.841   6.456   5.504 -0.0082  0.2118  0.4931
 2876poe     o212908   1.930   6.389   5.590  0.2629 -0.2638 -0.1466
 2876poe    c2312909   1.950   6.470   5.703  0.5796  0.1668 -0.5132
 2876poe    c2312910   2.072   6.565   5.704  0.2889  0.5407 -0.0262
 2876poe     o212911   2.201   6.508   5.714  0.0937  0.1415  0.2304
 2876poe    c3112912   2.285   6.541   5.607 -0.2666 -0.5399 -0.2721
 2877poe    c3112913   3.567   1.847   0.258 -0.5532 -0.6676  0.5616
 2877poe     o212914   3.682   1.782   0.210 -0.0179  0.1678  0.6914
 2877poe    c2312915   3.774   1.824   0.308  0.3907  0.2450  0.2779
 2877poe    c2312916   3.921   1.805   0.266  0.1015  0.2744 -0.7766
 2877poe     o212917   3.954   1.885   0.155 -0.2739  1.1008 -0.3091
 2877poe    c2312918   4.093   1.909   0.162  0.0823 -0.8839  0.0090
 2877poe    c2312919   4.128   2.021   0.261 -0.1742 -0.1423 -0.7333
 2877poe     o212920   4.108   2.151   0.208 -0.0441  0.1993  0.0400
 2877poe    c2312921   4.142   2.252   0.299 -0.1953  0.3963 -0.1223
 2877poe    c2312922   4.142   2.395   0.242 -0.4240  0.1938 -0.6353
 2877poe     o212923   4.211   2.406   0.120  0.2329  0.5092 -0.2442
 2877poe    c3112924   4.173   2.518   0.043  0.0331  0.5781 -0.0446
 2878poe    c3112925   4.744   2.656   6.369  0.6684  0.1210  0.0259
 2878poe     o212926   4.649   2.663   6.265  0.2568  0.2137  0.4035
 2878poe    c2312927   4.662   2.770   6.175 -0.0008 -0.1120 -0.0279
 2878poe    c2312928   4.552   2.876   6.193  0.0365  0.0047 -0.4826
 2878poe     o212929   4.417   2.835   6.196  0.1032 -0.1741  0.0993
 2878poe    c2312930   4.352   2.803   6.075  0.4739 -0.6555  0.0208
 2878poe    c2312931   4.326   2.918   5.977 -0.3377 -0.5287  0.3706
 2878poe     o212932   4.259   3.031   6.028  0.4730  0.3466 -0.4516
 2878poe    c2312933   4.209   3.095   5.913 -0.0960  0.8854  0.0899
 2878poe    c2312934   4.069   3.155   5.936 -0.5266  0.1540 -0.5501
 2878poe     o212935   4.070   3.249   6.041  0.2009 -0.1438 -0.2871
 2878poe    c3112936   4.107   3.379   6.000  0.2082  0.1959  0.7628
 2879poe    c3112937   3.535   2.346   2.301 -0.3153 -0.0217 -0.4726
 2879poe     o212938   3.634   2.261   2.249 -0.1163 -0.2387  0.2452
 2879poe    c2312939   3.723   2.331   2.164 -0.4507 -0.7317 -0.5250
 2879poe    c2312940   3.860   2.262   2.177 -0.2172 -0.1767  0.0239
 2879poe     o212941   3.853   2.131   2.124 -0.1932 -0.2730  0.2580
 2879poe    c2312942   3.975   2.062   2.131 -0.1926 -0.2950  0.0352
 2879poe    c2312943   3.957   1.912   2.103  0.4983 -0.3726 -0.0063
 2879poe     o212944   3.850   1.860   2.178  0.0377  0.1496 -0.2967
 2879poe    c2312945   3.840   1.720   2.168 -0.1046  0.0917  0.5611
 2879poe    c2312946   3.731   1.678   2.269 -0.2748 -0.5431  0.1159
 2879poe     o212947   3.631   1.774   2.288 -0.4616 -0.5734 -0.6726
 2879poe    c3112948   3.580   1.758   2.419  0.3753 -0.3209 -0.3124
 2880poe    c3112949   4.387   0.812   7.196 -0.4408 -0.8014  0.3484
 2880poe     o212950   4.442   0.713   7.111  0.3577 -0.3542  0.3280
 2880poe    c2312951   4.552   0.762   7.038  0.1476 -0.0388  0.2202
 2880poe    c2312952   4.637   0.649   6.978 -0.3524 -0.0341 -0.5005
 2880poe     o212953   4.564   0.564   6.892 -0.7303  0.3372 -0.5518
 2880poe    c2312954   4.516   0.623   6.773 -0.1843  0.9911 -0.4516
 2880poe    c2312955   4.444   0.515   6.691 -0.0488  0.6941 -0.1857
 2880poe     o212956   4.332   0.465   6.760 -0.1932  0.1930 -0.7692
 2880poe    c2312957   4.252   0.380   6.681 -0.2053 -0.3283 -0.2058
 2880poe    c2312958   4.137   0.347   6.778 -0.0384 -0.5655 -0.0861
 2880poe     o212959   4.186   0.319   6.907  0.2400  0.0252 -0.0585
 2880poe    c3112960   4.093   0.243   6.980  0.1678  0.1384 -0.0330
 2881poe    c3112961   6.884   5.732   4.228  0.6849  0.3722  0.0041
 2881poe     o212962   6.878   5.695   4.092  0.5316  0.6024 -0.0506
 2881poe    c2312963   6.957   5.581   4.066 -0.3805 -0.0274 -0.1092
 2881poe    c2312964   6.932   5.524   3.926 -0.1684 -0.1407 -0.1007
 2881poe     o212965   6.920   5.636   3.841 -0.0923  0.0376  0.1240
 2881poe    c2312966   6.889   5.584   3.713 -0.1625  0.2994  0.0345
 2881poe    c2312967   6.873   5.697   3.610 -0.7101 -0.1255 -0.3420
 2881poe     o212968   6.804   5.803   3.673 -0.0382 -0.2016  0.5294
 2881poe    c2312969   6.791   5.912   3.585  0.2801 -0.4965  0.1112
 2881poe    c2312970   6.706   6.030   3.635  0.2323 -0.2975 -0.4372
 2881poe     o212971   6.773   6.081   3.748  0.1201 -0.2509 -0.3906
 2881poe    c3112972   6.732   6.214   3.768  0.4213 -0.2084 -0.0444
 2882poe    c3112973   5.435   2.466   3.715 -0.1088  0.3717 -0.5300
 2882poe     o212974   5.533   2.438   3.812 -0.2544  0.6528 -0.3005
 2882poe    c2312975   5.483   2.371   3.926 -0.1463  0.3561 -0.4252
 2882poe    c2312976   5.557   2.411   4.055 -0.6358 -0.3197  0.0742
 2882poe     o212977   5.697   2.390   4.045 -0.6074 -0.2403  0.3082
 2882poe    c2312978   5.746   2.377   4.176 -0.0608  0.8901  0.2302
 2882poe    c2312979   5.858   2.271   4.184 -0.5581  0.3713  0.3876
 2882poe     o212980   5.971   2.315   4.113 -0.4642 -0.5586 -0.0594
 2882poe    c2312981   6.080   2.242   4.164  0.1826  0.5815  0.2351
 2882poe    c2312982   6.222   2.282   4.119  0.1954  0.2761 -0.0022
 2882poe     o212983   6.266   2.240   3.992 -0.1897  0.2578 -0.1310
 2882poe    c3112984   6.212   2.301   3.878 -1.0511 -0.2319  0.0095
 2883poe    c3112985   0.902   5.323   3.628  0.4593  0.0820 -0.1247
 2883poe     o212986   0.957   5.368   3.506  0.0985  0.3007 -0.2075
 2883poe    c2312987   0.947   5.267   3.408 -0.5890  0.6331 -0.4896
 2883poe    c2312988   1.012   5.317   3.277 -0.3161  0.0129 -0.5962
 2883poe     o212989   0.945   5.431   3.228  0.1367  0.5715  0.0538
 2883poe    c2312990   0.948   5.449   3.088 -0.5890  0.4397  0.0161
 2883poe    c2312991   1.040   5.566   3.050  0.8122 -0.2971  1.0128
 2883poe     o212992   0.982   5.677   3.117  0.4535 -0.1768  0.5095
 2883poe    c2312993   1.039   5.792   3.057 -0.2037 -0.0391  0.1436
 2883poe    c2312994   1.060   5.874   3.186  0.2574 -0.8336  0.5849
 2883poe     o212995   0.956   5.876   3.281 -0.2561  0.3576  0.0237
 2883poe    c3112996   0.978   5.973   3.380  0.0405  0.8679 -0.5357
 2884poe    c3112997   1.576   7.227   6.889  0.0346 -0.7510 -0.1201
 2884poe     o212998   1.520   7.177   7.009 -0.7147  0.2287 -0.0491
 2884poe    c2312999   1.625   7.139   7.096 -0.5527  0.6975 -0.0373
 2884poe    c2313000   1.577   7.121   7.242 -0.0978  0.3128  0.0632
 2884poe     o213001   1.459   7.047   7.220  0.1188  0.1047 -0.4260
 2884poe    c2313002   1.381   7.022   7.334  0.4302  0.2775 -0.1725
 2884poe    c2313003   1.255   6.956   7.275  0.5822 -0.4039  0.2406
 2884poe     o213004   1.228   7.041   7.165 -0.6244 -0.0275  0.8057
 2884poe    c2313005   1.138   6.966   7.087  0.2412 -0.1126 -0.1380
 2884poe    c2313006   1.135   7.051   6.959  0.2796 -0.1982 -0.1967
 2884poe     o213007   1.263   7.084   6.909  0.4608 -0.4660  0.0898
 2884poe    c3113008   1.260   7.135   6.778 -0.3734 -0.0518  0.2648
 2885poe    c3113009   2.471   5.903   4.577  0.3063  0.3538 -0.3078
 2885poe     o213010   2.601   5.932   4.530  0.1953  0.4245 -0.5763
 2885poe    c2313011   2.645   5.847   4.427  0.0870 -0.1791 -0.1344
 2885poe    c2313012   2.766   5.907   4.352 -0.3113  0.0387 -0.6073
 2885poe     o213013   2.849   5.957   4.454 -0.7129  0.8465 -0.6738
 2885poe    c2313014   2.942   6.058   4.422  0.0966  0.2153 -0.3161
 2885poe    c2313015   2.876   6.196   4.433 -0.1512  0.0995 -0.3362
 2885poe     o213016   2.801   6.206   4.552  0.0683 -0.0708 -0.1833
 2885poe    c2313017   2.738   6.331   4.568  0.2238 -0.0061 -0.0595
 2885poe    c2313018   2.668   6.322   4.705  0.6266  0.0580  0.1491
 2885poe     o213019   2.608   6.195   4.697  0.1696  0.2791  0.0821
 2885poe    c3113020   2.548   6.164   4.821  0.2028 -0.2403 -0.0308
 2886poe    c3113021   3.324   1.617   3.731 -0.1438 -0.4426  0.8353
 2886poe     o213022   3.221   1.712   3.718 -0.1253 -0.4951  0.3055
 2886poe    c2313023   3.242   1.776   3.594 -0.3110 -0.1270  0.4649
 2886poe    c2313024   3.111   1.840   3.544 -0.2272  0.1337  0.5724
 2886poe     o213025   3.022   1.747   3.486 -0.4242  0.2774  0.6448
 2886poe    c2313026   2.923   1.825   3.421 -0.6304 -0.1580  0.4330
 2886poe    c2313027   2.811   1.748   3.349  0.0312 -0.2784 -0.4889
 2886poe     o213028   2.770   1.829   3.241 -0.1586 -0.1439 -0.3178
 2886poe    c2313029   2.671   1.764   3.164 -0.5784 -0.4460  0.4587
 2886poe    c2313030   2.618   1.862   3.057 -0.0291  0.1857  0.7584
 2886poe     o213031   2.722   1.898   2.969 -0.2601  0.4392  0.5863
 2886poe    c3113032   2.669   1.997   2.884  0.3726 -0.3234 -0.7297
 2887poe    c3113033   3.518   1.386   6.602  0.3527  0.5550 -0.0181
 2887poe     o213034   3.634   1.326   6.655  0.1039  0.1079  0.0237
 2887poe    c2313035   3.608   1.201   6.715  0.0987 -0.0959 -0.4038
 2887poe    c2313036   3.742   1.137   6.754  0.0492  0.0459  0.0090
 2887poe     o213037   3.828   1.207   6.841 -0.2856 -0.0899  0.4462
 2887poe    c2313038   3.905   1.121   6.922 -0.1665 -0.4730 -0.0698
 2887poe    c2313039   3.911   1.201   7.053  0.1883 -0.1890 -0.2572
 2887poe     o213040   3.955   1.332   7.026 -0.3479 -0.0019 -0.2416
 2887poe    c2313041   3.961   1.394   7.152 -0.0892  0.0019 -0.2564
 2887poe    c2313042   3.977   1.546   7.130  0.5090 -0.0586 -0.2663
 2887poe     o213043   4.097   1.572   7.061  0.1854  0.3482 -0.6755
 2887poe    c3113044   4.109   1.710   7.032  0.5812  0.4236 -0.1614
 2888poe    c3113045   1.338   1.181   5.395  0.0344  0.0264  0.2261
 2888poe     o213046   1.224   1.147   5.319  0.1592 -0.4607  0.2569
 2888poe    c2313047   1.115   1.216   5.375  0.1065  0.4501 -0.9277
 2888poe    c2313048   0.980   1.182   5.308 -0.3194 -0.1722  0.2150
 2888poe     o213049   0.952   1.257   5.191 -0.7729 -0.7633 -0.0567
 2888poe    c2313050   0.830   1.209   5.138 -0.4956 -0.5214 -0.9217
 2888poe    c2313051   0.751   1.315   5.058  0.3129  0.6138 -0.2512
 2888poe     o213052   0.853   1.392   5.000  0.4569  0.3806 -0.3121
 2888poe    c2313053   0.791   1.465   4.896 -0.6391 -0.3119 -0.1536
 2888poe    c2313054   0.914   1.474   4.803 -0.3057 -0.1621  0.2973
 2888poe     o213055   1.038   1.489   4.868 -0.0699 -0.2534 -0.1355
 2888poe    c3113056   1.143   1.461   4.777  0.1950  0.1285  0.0509
 2889poe    c3113057   2.646   6.038   0.188 -0.3917 -0.2005  0.3319
 2889poe     o213058   2.701   6.057   0.316  0.2228  0.2055  0.0182
 2889poe    c2313059   2.627   5.978   0.407  0.5796 -0.7642 -0.5183
 2889poe    c2313060   2.704   5.972   0.541  0.0973  0.0286 -0.1987
 2889poe     o213061   2.739   6.104   0.575 -1.0151  0.2593  0.0934
 2889poe    c2313062   2.829   6.114   0.684 -0.1842 -0.2188 -0.5356
 2889poe    c2313063   2.884   6.257   0.669 -0.2748 -0.1337 -0.0634
 2889poe     o213064   2.935   6.268   0.538 -0.5425  0.2975 -0.1325
 2889poe    c2313065   3.007   6.390   0.532 -0.1770  0.1013  0.1728
 2889poe    c2313066   3.091   6.415   0.406  0.0131 -0.2586  0.2280
 2889poe     o213067   3.005   6.432   0.295  0.1351  0.2954  0.2145
 2889poe    c3113068   3.053   6.499   0.181  0.2156  0.7552  0.5155
 2890poe    c3113069   6.064   2.260   0.381 -0.1544  0.0515 -0.1559
 2890poe     o213070   5.936   2.308   0.417 -0.1072  0.0581  0.0032
 2890poe    c2313071   5.864   2.232   0.512  0.3172  0.7095  0.8626
 2890poe    c2313072   5.723   2.292   0.528  0.0553  0.3079  0.1152
 2890poe     o213073   5.725   2.431   0.553 -0.1707  0.3573 -0.1399
 2890poe    c2313074   5.600   2.490   0.579 -0.1578  0.2219  0.2226
 2890poe    c2313075   5.599   2.636   0.628  0.6370  0.1473  0.4781
 2890poe     o213076   5.665   2.658   0.750  0.5982 -0.4826  0.6156
 2890poe    c2313077   5.705   2.793   0.755 -0.2374 -0.2329  0.8149
 2890poe    c2313078   5.798   2.838   0.870  0.0144  0.4692  0.3447
 2890poe     o213079   5.931   2.792   0.854 -0.1212  0.1488  0.1247
 2890poe    c3113080   6.001   2.826   0.971  0.3283  0.4098 -0.2191
 2891poe    c3113081   3.826   5.199   1.941 -0.5163  0.3434 -0.0191
 2891poe     o213082   3.853   5.264   2.063 -0.3747  0.5381 -0.1546
 2891poe    c2313083   3.943   5.192   2.145 -0.6352  0.6329  0.2153
 2891poe    c2313084   4.000   5.281   2.258  0.5400 -0.7891  0.7666
 2891poe     o213085   3.896   5.326   2.341  0.4265 -0.1158  0.2638
 2891poe    c2313086   3.948   5.386   2.457 -0.4063  0.0368  0.5651
 2891poe    c2313087   3.983   5.536   2.452  0.2021 -0.1278 -0.2149
 2891poe     o213088   3.876   5.608   2.393  0.0333 -0.0685  0.1633
 2891poe    c2313089   3.886   5.747   2.413 -0.2176 -0.0843  0.4048
 2891poe    c2313090   3.774   5.812   2.330  0.2348  0.0594 -0.1014
 2891poe     o213091   3.746   5.742   2.211  0.4134 -0.3011  0.0692
 2891poe    c3113092   3.639   5.804   2.145  0.2115 -0.1872  0.5001
 2892poe    c3113093   1.058   6.488   6.021  0.3779  0.2253 -0.2638
 2892poe     o213094   0.982   6.599   5.980 -0.1196 -0.1394 -0.3350
 2892poe    c2313095   0.851   6.607   6.033  0.0975 -0.1767  0.2072
 2892poe    c2313096   0.753   6.682   5.941  0.0438 -0.3446  0.1262
 2892poe     o213097   0.804   6.813   5.926 -0.2070 -0.2974 -0.3340
 2892poe    c2313098   0.725   6.887   5.836 -0.5925  0.1422  0.3597
 2892poe    c2313099   0.762   7.037   5.834 -0.6441  0.1441 -0.6002
 2892poe     o213100   0.901   7.048   5.811 -0.6216 -0.4987 -0.8098
 2892poe    c2313101   0.923   7.171   5.746 -0.0497 -0.4150 -0.4614
 2892poe    c2313102   1.076   7.189   5.742 -0.0975  0.1784  0.1045
 2892poe     o213103   1.139   7.063   5.735 -0.2282  0.0948  0.4143
 2892poe    c3113104   1.262   7.089   5.669 -0.6290  0.2207 -0.2953
 2893poe    c3113105   3.531   0.285   1.459  0.3963  0.2422  0.1973
 2893poe     o213106   3.619   0.224   1.367 -0.5215 -0.7172 -0.0660
 2893poe    c2313107   3.582   0.217   1.231 -0.0922  0.2214 -0.2415
 2893poe    c2313108   3.692   0.164   1.138  0.2501 -0.2513  0.4205
 2893poe     o213109   3.801   0.249   1.112 -0.2678  0.2676 -0.0776
 2893poe    c2313110   3.781   0.347   1.012 -0.1177  0.1648 -0.2089
 2893poe    c2313111   3.921   0.402   0.982 -0.0271 -0.0427 -0.1727
 2893poe     o213112   3.994   0.399   1.103  0.1349 -0.6732 -0.2815
 2893poe    c2313113   4.127   0.443   1.095 -0.0976  0.1251  0.0604
 2893poe    c2313114   4.196   0.455   1.232  0.4203  0.0379 -0.1862
 2893poe     o213115   4.172   0.332   1.296 -0.1048  0.3855  0.2927
 2893poe    c3113116   4.264   0.300   1.397  1.0828  0.3341 -0.7865
 2894poe    c3113117   2.518   6.990   1.696 -0.2363  0.5914 -0.1453
 2894poe     o213118   2.509   6.982   1.837 -0.6506 -0.2538 -0.2204
 2894poe    c2313119   2.633   6.994   1.902 -0.5738 -0.2449 -0.3687
 2894poe    c2313120   2.627   6.995   2.056 -0.5540 -0.2982 -0.3676
 2894poe     o213121   2.593   7.119   2.113  0.1078 -0.3757  0.2133
 2894poe    c2313122   2.652   7.135   2.240  0.2181 -0.3312  0.1564
 2894poe    c2313123   2.573   7.248   2.308  0.0357 -0.4564  0.1534
 2894poe     o213124   2.447   7.200   2.348 -0.3052  0.1314 -0.2041
 2894poe    c2313125   2.360   7.305   2.383  0.4153  0.6432  0.0798
 2894poe    c2313126   2.238   7.240   2.450  0.7995 -0.2430 -0.0621
 2894poe     o213127   2.177   7.185   2.336 -0.0702  0.1101  0.2221
 2894poe    c3113128   2.040   7.151   2.338 -0.0552  0.0399  0.0699
 2895poe    c3113129   3.616   6.374   6.819  0.5539  0.1589  0.6243
 2895poe     o213130   3.610   6.514   6.805  0.7170  0.1031 -0.0073
 2895poe    c2313131   3.559   6.580   6.919  0.1223 -0.5076  0.0914
 2895poe    c2313132   3.584   6.732   6.925 -0.0784 -0.4872  0.3823
 2895poe     o213133   3.484   6.811   6.866 -0.1450 -0.7940  0.0797
 2895poe    c2313134   3.528   6.944   6.849  0.1216 -0.7638  0.9796
 2895poe    c2313135   3.410   7.040   6.824  0.3324 -0.7047  0.1812
 2895poe     o213136   3.310   7.045   6.923  0.0898  0.1743 -0.0985
 2895poe    c2313137   3.214   7.146   6.938 -0.4338 -0.2978 -0.2321
 2895poe    c2313138   3.111   7.154   6.824 -0.3831  0.2570 -0.2435
 2895poe     o213139   3.000   7.068   6.837  0.1311 -0.3931 -0.0742
 2895poe    c3113140   2.940   7.028   6.716  0.0755  0.1458 -0.2287
 2896poe    c3113141   3.134   3.177   1.819  0.4730 -0.1524 -0.1115
 2896poe     o213142   3.152   3.214   1.684  0.2182  0.4444  0.0145
 2896poe    c2313143   3.071   3.315   1.629  0.4517  0.6947  0.1296
 2896poe    c2313144   3.132   3.377   1.501 -0.0404  0.5503 -0.1762
 2896poe     o213145   3.251   3.450   1.521  0.2123  0.1252 -0.1082
 2896poe    c2313146   3.293   3.501   1.396 -0.3402  0.5688 -0.1189
 2896poe    c2313147   3.430   3.572   1.405 -0.2260  0.2437  0.9797
 2896poe     o213148   3.532   3.477   1.424 -0.3017 -0.1405 -0.4213
 2896poe    c2313149   3.647   3.555   1.444 -0.4309 -0.1410  0.3674
 2896poe    c2313150   3.752   3.471   1.518  0.0090  0.1033  0.0313
 2896poe     o213151   3.699   3.442   1.646 -0.4421 -0.1391 -0.2117
 2896poe    c3113152   3.817   3.410   1.716 -0.4441  0.3060 -0.0038
 2897poe    c3113153   5.215   5.991   4.462  0.4339 -0.1451 -0.0070
 2897poe     o213154   5.285   5.878   4.509 -0.1152 -0.4493  0.0804
 2897poe    c2313155   5.326   5.909   4.640 -0.1322 -0.6648  0.1372
 2897poe    c2313156   5.431   5.807   4.687  0.0848 -0.4592  0.0991
 2897poe     o213157   5.526   5.800   4.584  0.5237  0.5499  0.4172
 2897poe    c2313158   5.633   5.708   4.597 -0.1258 -0.3573 -0.5033
 2897poe    c2313159   5.744   5.713   4.490  0.1053  0.0017 -0.2507
 2897poe     o213160   5.718   5.631   4.378 -0.1179  0.3025 -0.4179
 2897poe    c2313161   5.802   5.636   4.264 -0.2011 -0.5227 -0.5215
 2897poe    c2313162   5.928   5.549   4.279 -0.0965 -0.2893 -0.0176
 2897poe     o213163   6.030   5.591   4.367 -0.3765 -0.8107  0.5569
 2897poe    c3113164   6.142   5.505   4.375  0.3807  0.0869 -0.2587
 2898poe    c3113165   1.289   3.629   5.361 -0.2430  0.8002 -0.1860
 2898poe     o213166   1.289   3.602   5.222 -0.0402 -0.0568 -0.0248
 2898poe    c2313167   1.161   3.621   5.166 -0.1108 -0.2277  0.0774
 2898poe    c2313168   1.145   3.560   5.026  0.1491 -0.2904  0.0735
 2898poe     o213169   1.244   3.622   4.947  0.0417 -0.0098  0.1594
 2898poe    c2313170   1.275   3.534   4.842 -0.2063  0.2214 -0.1106
 2898poe    c2313171   1.354   3.618   4.739  0.4697 -0.2638  0.0007
 2898poe     o213172   1.483   3.646   4.787  0.2372  0.3844  0.2627
 2898poe    c2313173   1.561   3.721   4.696  0.2385  0.1915  0.1061
 2898poe    c2313174   1.663   3.637   4.616  0.2170  0.1146  0.1589
 2898poe     o213175   1.761   3.718   4.554  0.4601 -0.1041  0.2561
 2898poe    c3113176   1.856   3.643   4.481  0.4331  0.0780  0.0305
 2899poe    c3113177   6.597   5.054   5.689 -0.0801 -0.7859  0.0699
 2899poe     o213178   6.682   5.030   5.580  0.6451  0.5391  0.3168
 2899poe    c2313179   6.670   5.132   5.483  0.0378  0.5438  0.3956
 2899poe    c2313180   6.763   5.087   5.369  0.0556  0.0031  0.6178
 2899poe     o213181   6.896   5.095   5.414  0.0487  0.5965  0.5377
 2899poe    c2313182   6.982   5.038   5.318 -0.4985  0.3541  0.1899
 2899poe    c2313183   7.122   5.009   5.376 -0.4762 -0.0672 -0.0729
 2899poe     o213184   7.122   4.921   5.487 -0.1014  0.2125  0.1491
 2899poe    c2313185   7.249   4.864   5.505 -0.3335 -0.2341  0.3739
 2899poe    c2313186   7.268   4.828   5.653 -0.4143 -0.2550  0.3792
 2899poe     o213187   7.269   4.949   5.727  0.1788 -0.0470  0.0395
 2899poe    c3113188   7.364   4.942   5.831  0.0936 -0.3906  0.0970
 2900poe    c3113189   1.426   2.316   5.831  0.1890 -0.3684 -0.7427
 2900poe     o213190   1.368   2.194   5.873  0.3883 -0.3145 -0.3073
 2900poe    c2313191   1.227   2.206   5.875  0.4684  0.6298  0.4194
 2900poe    c2313192   1.150   2.094   5.947  0.5693  0.3227  0.0493
 2900poe     o213193   1.158   1.971   5.877  0.1017  0.2708  0.0836
 2900poe    c2313194   1.107   1.875   5.967 -0.2047  0.3149 -0.0426
 2900poe    c2313195   1.084   1.735   5.907 -0.3111 -0.1504  1.0614
 2900poe     o213196   0.967   1.732   5.828  0.6849  0.0661 -0.4703
 2900poe    c2313197   0.937   1.595   5.818 -0.0250  0.1540  0.3059
 2900poe    c2313198   0.792   1.584   5.766  0.1011 -0.4291  0.0689
 2900poe     o213199   0.797   1.621   5.630 -0.0026  0.0664  0.1978
 2900poe    c3113200   0.691   1.550   5.572 -0.0297  0.0346  0.2861
 2901poe    c3113201   1.780   6.662   1.090 -0.8463  0.0541 -0.7113
 2901poe     o213202   1.887   6.681   1.000 -0.4675  0.1340 -0.2471
 2901poe    c2313203   1.858   6.658   0.864 -0.4010 -0.3032 -0.1862
 2901poe    c2313204   1.989   6.655   0.782 -0.0311 -0.1336  0.3962
 2901poe     o213205   2.062   6.776   0.779 -0.1056 -0.0935  0.2097
 2901poe    c2313206   2.033   6.877   0.685 -0.2481 -0.3686 -0.0439
 2901poe    c2313207   2.123   6.999   0.712 -0.3527 -0.3029  0.0100
 2901poe     o213208   2.253   6.961   0.675 -0.2261 -0.0918  0.2302
 2901poe    c2313209   2.337   7.070   0.647 -0.4908  0.0956  0.1597
 2901poe    c2313210   2.457   7.047   0.553 -0.2655  0.0483  0.4580
 2901poe     o213211   2.549   7.154   0.556 -0.0827 -0.0810 -0.4112
 2901poe    c3113212   2.626   7.146   0.438 -0.1693 -0.0826 -0.4673
 2902poe    c3113213   6.554   7.149   6.228 -0.5579 -0.0380  0.1357
 2902poe     o213214   6.487   7.264   6.181 -0.0674  0.2418  0.1152
 2902poe    c2313215   6.534   7.290   6.050 -0.0843 -0.2752  0.0043
 2902poe    c2313216   6.478   7.428   6.012  0.1971 -0.0772  0.3046
 2902poe     o213217   6.545   7.523   6.092  0.4110  0.2570 -0.2687
 2902poe    c2313218   6.609   7.619   6.011  0.2886  0.5979  0.0356
 2902poe    c2313219   6.719   7.671   6.106  0.5072 -0.8882  0.6222
 2902poe     o213220   6.663   7.720   6.226 -0.0554  0.2154 -0.0702
 2902poe    c2313221   6.761   7.773   6.312 -0.2847  0.8701 -0.2098
 2902poe    c2313222   6.700   7.798   6.451 -0.4066  0.0994 -0.1243
 2902poe     o213223   6.664   7.679   6.519  0.4841  0.0573  0.2836
 2902poe    c3113224   6.629   7.705   6.653 -0.4087 -0.2257  0.1116
 2903poe    c3113225   5.396   5.850   0.583  0.4609 -0.4190  0.0182
 2903poe     o213226   5.445   5.899   0.706  0.1345  0.1947 -0.0879
 2903poe    c2313227   5.485   5.802   0.801 -0.1283  0.0699 -0.1049
 2903poe    c2313228   5.389   5.710   0.879 -0.4044  0.1144 -0.3888
 2903poe     o213229   5.281   5.775   0.942 -0.2748 -0.0858  0.0429
 2903poe    c2313230   5.294   5.795   1.081 -0.1616 -0.0152  0.0221
 2903poe    c2313231   5.409   5.879   1.139 -0.0697  0.2229 -0.4965
 2903poe     o213232   5.366   6.013   1.139 -0.3813  0.1361  0.7053
 2903poe    c2313233   5.478   6.087   1.185  0.3616 -0.1795 -0.5588
 2903poe    c2313234   5.408   6.221   1.214 -0.0289 -0.5078  0.0273
 2903poe     o213235   5.326   6.222   1.329  0.0418  0.5361  0.0801
 2903poe    c3113236   5.399   6.245   1.447  0.0913  0.8737 -0.0165
 2904poe    c3113237   3.897   1.381   2.668  0.0604 -0.1178 -0.1083
 2904poe     o213238   4.027   1.328   2.657  0.1159 -0.0192  0.0682
 2904poe    c2313239   4.118   1.421   2.603  0.5608 -0.2664  0.3799
 2904poe    c2313240   4.249   1.349   2.567  0.2013 -0.6413 -0.2012
 2904poe     o213241   4.261   1.282   2.691 -0.1887 -0.2191  0.0685
 2904poe    c2313242   4.382   1.210   2.686  0.3356  0.6049  0.6383
 2904poe    c2313243   4.397   1.118   2.809 -0.3940 -0.1735  0.1612
 2904poe     o213244   4.315   1.004   2.806 -0.1033 -0.3815  0.0915
 2904poe    c2313245   4.361   0.904   2.895 -0.0349 -0.0007  0.4847
 2904poe    c2313246   4.291   0.768   2.879  0.1361 -0.0625  0.2621
 2904poe     o213247   4.342   0.694   2.770  0.4788  0.4883  0.0424
 2904poe    c3113248   4.265   0.713   2.653  0.1831 -0.0190  0.1484
 2905poe    c3113249   4.579   0.433   6.087  0.0056  0.3230  0.3910
 2905poe     o213250   4.694   0.515   6.091  0.0845  0.2259  0.1338
 2905poe    c2313251   4.798   0.447   6.158  0.4399  0.5412 -0.0975
 2905poe    c2313252   4.908   0.541   6.209  0.7481  0.0214  0.2009
 2905poe     o213253   4.956   0.613   6.098  0.3872  0.2451  0.1907
 2905poe    c2313254   5.066   0.691   6.138  0.3308  0.1963  0.4415
 2905poe    c2313255   5.113   0.774   6.017  0.2545  0.0937  0.3415
 2905poe     o213256   5.002   0.854   5.984  0.5170  0.3650  0.1142
 2905poe    c2313257   5.039   0.931   5.872  0.3873  0.0907 -0.1177
 2905poe    c2313258   4.972   1.061   5.821 -0.0883 -0.2362 -0.3331
 2905poe     o213259   4.846   1.038   5.762 -0.1826 -0.2773 -0.1177
 2905poe    c3113260   4.757   1.147   5.771  0.0949 -0.0761  0.2165
 2906poe    c3113261   3.680   4.818   3.872  0.4349  0.7486  0.2330
 2906poe     o213262   3.616   4.875   3.984 -0.0407 -0.2300  0.4716
 2906poe    c2313263   3.497   4.807   4.017 -0.2762 -0.3170 -0.5332
 2906poe    c2313264   3.401   4.880   4.112  0.2122 -0.0964 -0.2093
 2906poe     o213265   3.468   4.929   4.227  0.1473  0.2654 -0.3225
 2906poe    c2313266   3.385   4.931   4.341  0.4332 -0.8716 -0.0830
 2906poe    c2313267   3.473   4.968   4.462 -0.0611 -0.9915  0.3201
 2906poe     o213268   3.551   5.082   4.432 -0.3633 -0.7623  0.4099
 2906poe    c2313269   3.629   5.124   4.542  0.5198  0.1051 -0.5297
 2906poe    c2313270   3.729   5.236   4.507  0.6340  0.2135  0.1301
 2906poe     o213271   3.769   5.209   4.374  0.6322  0.0882  0.1542
 2906poe    c3113272   3.836   5.322   4.322  0.3817  0.2225  0.1206
 2907poe    c3113273   6.972   5.089   4.588 -0.3447 -0.0991 -0.0979
 2907poe     o213274   6.948   4.989   4.492  0.2849 -0.1292 -0.2244
 2907poe    c2313275   6.812   4.953   4.497  0.2680 -0.0231  0.0714
 2907poe    c2313276   6.787   4.801   4.499  0.3323 -0.0279  0.5815
 2907poe     o213277   6.835   4.732   4.386  0.1633  0.0229  0.4777
 2907poe    c2313278   6.800   4.597   4.408  0.0034 -0.0122  0.0177
 2907poe    c2313279   6.812   4.510   4.282 -0.2977 -0.1374  0.0722
 2907poe     o213280   6.933   4.441   4.259 -0.5804 -0.6329  0.0715
 2907poe    c2313281   6.933   4.385   4.129 -0.4156 -0.1206 -0.1524
 2907poe    c2313282   7.049   4.284   4.119 -0.4131 -0.1550  0.2096
 2907poe     o213283   7.175   4.337   4.155 -0.3481  0.1226 -0.4173
 2907poe    c3113284   7.283   4.247   4.147 -0.0946  0.3826  0.0797
 2908poe    c3113285   4.650   0.918   2.541  0.2797 -0.5821  0.0102
 2908poe     o213286   4.535   0.866   2.478 -0.1400 -0.0204  0.2944
 2908poe    c2313287   4.531   0.929   2.352 -0.3520  0.3849  0.5034
 2908poe    c2313288   4.392   0.901   2.292 -0.0012  0.0051 -0.1502
 2908poe     o213289   4.388   0.771   2.237 -0.3247 -0.0436 -0.0151
 2908poe    c2313290   4.260   0.713   2.228 -0.2733 -0.1318 -0.1835
 2908poe    c2313291   4.267   0.561   2.208  0.3332 -0.0777 -0.3950
 2908poe     o213292   4.331   0.492   2.314  0.5856  0.5027 -0.1637
 2908poe    c2313293   4.268   0.365   2.312  0.1860  0.6996 -0.2397
 2908poe    c2313294   4.287   0.278   2.437 -0.0385  0.7087 -0.2003
 2908poe     o213295   4.240   0.340   2.555  0.7858  0.4912  0.2521
 2908poe    c3113296   4.105   0.375   2.577  0.6364 -0.2648  0.5248
 2909poe    c3113297   3.412   5.272   4.988 -0.0375 -0.4883  0.6486
 2909poe     o213298   3.503   5.170   5.022  0.6501 -0.2559 -0.4719
 2909poe    c2313299   3.462   5.046   4.967  0.7018 -0.1839 -0.6742
 2909poe    c2313300   3.565   4.933   4.959  0.4239 -0.5216  0.3733
 2909poe     o213301   3.614   4.916   5.091  0.4788  0.4133  0.4772
 2909poe    c2313302   3.676   4.791   5.104  0.1370  0.2508  0.5416
 2909poe    c2313303   3.690   4.781   5.257 -0.1004  0.4389  0.5764
 2909poe     o213304   3.761   4.894   5.301 -0.1863  0.4928  0.5753
 2909poe    c2313305   3.814   4.884   5.431 -0.3395  0.4882  0.6363
 2909poe    c2313306   3.923   4.991   5.444  0.3148 -0.0816 -0.0435
 2909poe     o213307   3.885   5.105   5.371  0.2525 -0.0663  0.0130
 2909poe    c3113308   3.914   5.222   5.445 -0.4546 -0.3222  0.7055
 2910poe    c3113309   4.652   5.174   4.581  0.4842 -0.5349  0.0957
 2910poe     o213310   4.731   5.287   4.551 -0.1440 -0.2056 -0.3429
 2910poe    c2313311   4.693   5.385   4.646  0.1821 -0.4784  0.0761
 2910poe    c2313312   4.739   5.527   4.608 -0.3164 -0.2831  0.1921
 2910poe     o213313   4.877   5.547   4.633 -0.3244 -0.0033  0.0166
 2910poe    c2313314   4.909   5.602   4.758  0.1161 -0.4572  0.1056
 2910poe    c2313315   5.061   5.601   4.782  0.2734  0.2594 -0.7891
 2910poe     o213316   5.111   5.469   4.786 -0.2806  0.0638  0.2593
 2910poe    c2313317   5.113   5.416   4.917  0.3944 -0.0064  0.2244
 2910poe    c2313318   5.135   5.264   4.916 -0.5908 -0.1575 -0.4588
 2910poe     o213319   5.263   5.227   4.869 -0.3066 -0.4240  0.4996
 2910poe    c3113320   5.344   5.149   4.954 -0.4266 -0.4926  0.5504
 2911poe    c3113321   2.464   6.608   1.513  0.1584  0.1032 -0.0026
 2911poe     o213322   2.424   6.545   1.394  0.3529  0.0166 -0.0207
 2911poe    c2313323   2.407   6.405   1.394 -0.1868  0.0766 -0.5149
 2911poe    c2313324   2.535   6.323   1.371 -0.2657 -0.1362 -0.2032
 2911poe     o213325   2.622   6.364   1.268  0.2636 -0.2829  0.1837
 2911poe    c2313326   2.709   6.272   1.207  0.2013 -0.2366  0.0254
 2911poe    c2313327   2.697   6.280   1.054  0.0416 -0.4293  0.0279
 2911poe     o213328   2.602   6.194   0.994 -0.3799  0.0921 -0.0699
 2911poe    c2313329   2.512   6.264   0.912  0.1966 -0.0917 -0.8755
 2911poe    c2313330   2.385   6.184   0.877 -0.0526 -0.1718  0.1791
 2911poe     o213331   2.411   6.082   0.783 -0.0532  0.2455 -0.2775
 2911poe    c3113332   2.298   6.051   0.704 -0.0918 -0.4429  0.0363
 2912poe    c3113333   3.586   4.486   6.988 -0.6995 -1.1052  0.3936
 2912poe     o213334   3.539   4.600   7.056  0.6857 -0.2721 -0.0002
 2912poe    c2313335   3.489   4.568   7.184 -0.2532  0.4734 -0.1656
 2912poe    c2313336   3.357   4.643   7.205 -0.3940  0.1154  0.2225
 2912poe     o213337   3.274   4.613   7.095 -0.0411  0.7578 -0.2202
 2912poe    c2313338   3.138   4.617   7.131  0.1408 -0.2321  0.6100
 2912poe    c2313339   3.066   4.753   7.123  0.3991 -0.1367 -0.1755
 2912poe     o213340   3.046   4.803   6.993  0.2642 -0.8631 -0.4418
 2912poe    c2313341   2.931   4.884   6.982  0.6087 -0.3782 -0.5044
 2912poe    c2313342   2.886   4.907   6.836  0.7604 -0.0108 -0.4949
 2912poe     o213343   2.857   4.787   6.769  0.0601 -0.0647 -0.1042
 2912poe    c3113344   2.788   4.824   6.652  0.2253 -0.0635 -0.2020
 2913poe    c3113345   2.871   2.302   6.221 -0.1310 -0.2594 -0.3631
 2913poe     o213346   2.865   2.164   6.246 -0.3434 -0.2295 -0.2462
 2913poe    c2313347   2.742   2.101   6.217 -0.4055 -0.2065 -0.0382
 2913poe    c2313348   2.763   1.949   6.230 -0.2428 -0.1646  0.1892
 2913poe     o213349   2.873   1.901   6.156 -0.5500 -0.1981 -0.2434
 2913poe    c2313350   2.843   1.867   6.022 -0.1660 -1.1007 -0.1075
 2913poe    c2313351   2.969   1.795   5.971  0.2274 -0.4781 -0.0180
 2913poe     o213352   3.078   1.880   5.943 -0.2021 -0.0042 -0.2688
 2913poe    c2313353   3.184   1.797   5.903  0.0168  0.0059  0.2871
 2913poe    c2313354   3.297   1.880   5.839 -0.3069  0.4551  0.2981
 2913poe     o213355   3.298   1.985   5.933  0.4254  0.7634 -0.0463
 2913poe    c3113356   3.398   2.074   5.890  0.5716  0.5534 -0.1431
 2914poe    c3113357   6.340   4.581   7.061 -0.3051  0.1146 -0.4613
 2914poe     o213358   6.384   4.714   7.040  0.4340 -0.0181  0.2327
 2914poe    c2313359   6.515   4.747   7.079 -0.0317  0.9030  1.0489
 2914poe    c2313360   6.577   4.881   7.034  0.1994  0.4360 -0.0629
 2914poe     o213361   6.586   4.896   6.894 -0.2485 -0.0901 -0.1477
 2914poe    c2313362   6.712   4.843   6.859 -0.2415  0.0105 -0.2730
 2914poe    c2313363   6.726   4.791   6.715  0.3109 -0.2637 -0.1210
 2914poe     o213364   6.711   4.912   6.645 -0.3146 -0.3423 -0.1278
 2914poe    c2313365   6.639   4.896   6.524 -0.0360  0.3094 -0.3851
 2914poe    c2313366   6.693   5.010   6.435 -0.1252  0.7851  0.1594
 2914poe     o213367   6.630   5.128   6.478 -0.7884  0.6715 -0.4732
 2914poe    c3113368   6.701   5.228   6.408  0.7194 -0.5240 -0.7005
 2915poe    c3113369   5.361   6.329   6.519 -0.0167 -0.0138  0.2818
 2915poe     o213370   5.320   6.245   6.414  0.7486  0.2924 -0.2727
 2915poe    c2313371   5.198   6.291   6.360 -0.0016 -0.9603  0.3223
 2915poe    c2313372   5.078   6.272   6.455  0.0268 -0.2722  0.4967
 2915poe     o213373   5.042   6.139   6.484 -0.3540 -0.2620  0.0787
 2915poe    c2313374   4.959   6.125   6.597 -0.5649  0.1506 -0.0207
 2915poe    c2313375   4.959   5.986   6.663 -0.4746  0.5161  0.7613
 2915poe     o213376   5.089   5.940   6.692 -0.5590 -0.1958  0.0666
 2915poe    c2313377   5.062   5.806   6.727  0.1081 -0.1368  0.8290
 2915poe    c2313378   5.193   5.724   6.721  0.1717 -0.0049  0.3778
 2915poe     o213379   5.266   5.759   6.606 -0.0179 -0.1773  0.2036
 2915poe    c3113380   5.360   5.662   6.564  0.5171  0.1882  0.5440
 2916poe    c3113381   0.197   5.007   1.872 -0.0352  0.0246 -0.3471
 2916poe     o213382   0.283   5.083   1.790  0.2397  0.2717  0.1605
 2916poe    c2313383   0.237   5.058   1.658  0.1596 -0.4411  0.3155
 2916poe    c2313384   0.365   5.062   1.572  0.2426 -0.1963  0.4478
 2916poe     o213385   0.426   5.184   1.607  0.0716 -0.0338  0.1767
 2916poe    c2313386   0.518   5.236   1.513 -0.0971  0.2337  0.1582
 2916poe    c2313387   0.586   5.363   1.570 -0.2880  0.4540 -0.1032
 2916poe     o213388   0.606   5.369   1.709  0.4688 -0.3093 -0.1678
 2916poe    c2313389   0.646   5.496   1.757  0.0950 -0.2073 -0.1184
 2916poe    c2313390   0.625   5.522   1.907  0.1712  0.4465 -0.2186
 2916poe     o213391   0.492   5.521   1.953  0.1011  0.4963 -0.4182
 2916poe    c3113392   0.489   5.585   2.079  0.6733 -0.3298  0.0218
 2917poe    c3113393   1.659   3.257   0.802  0.1372 -0.3591 -0.0279
 2917poe     o213394   1.740   3.171   0.877  0.2109 -0.4410 -0.2018
 2917poe    c2313395   1.760   3.042   0.823  0.0475 -0.6696  0.2696
 2917poe    c2313396   1.898   2.995   0.873  0.0293 -0.3081  0.6646
 2917poe     o213397   1.918   2.989   1.012 -0.1160  0.2791  0.7134
 2917poe    c2313398   2.033   2.908   1.026 -0.3832 -0.2354 -0.0152
 2917poe    c2313399   2.080   2.844   1.158  0.1016  0.3695  0.1101
 2917poe     o213400   2.099   2.922   1.275  0.0489  0.2301  0.2117
 2917poe    c2313401   2.169   2.849   1.373  0.2479 -0.2942 -0.3097
 2917poe    c2313402   2.185   2.930   1.503 -0.3552 -0.2584 -0.2544
 2917poe     o213403   2.248   3.052   1.472  0.0539 -0.2445  0.6171
 2917poe    c3113404   2.258   3.143   1.579  0.2870  0.4639  0.0013
 2918poe    c3113405   3.481   0.159   1.951 -0.5679 -0.1342  0.2086
 2918poe     o213406   3.459   0.137   1.813 -0.3693  0.0611  0.1452
 2918poe    c2313407   3.325   0.094   1.801 -0.2868 -0.0011 -0.6071
 2918poe    c2313408   3.293   0.075   1.652 -0.3580 -0.0119 -0.5905
 2918poe     o213409   3.390  -0.008   1.592  0.1898  0.0815  0.1580
 2918poe    c2313410   3.352  -0.054   1.464  0.2095  0.1606  0.1241
 2918poe    c2313411   3.434  -0.179   1.429 -0.1295  0.0099 -0.1255
 2918poe     o213412   3.572  -0.155   1.441 -0.2138  0.3934  0.0645
 2918poe    c2313413   3.658  -0.258   1.398 -0.1515  0.2784  0.4576
 2918poe    c2313414   3.804  -0.218   1.428 -0.0925  1.0890 -0.8254
 2918poe     o213415   3.807  -0.146   1.549  0.3254 -0.7663  0.3053
 2918poe    c3113416   3.941  -0.107   1.570  0.1836 -0.2483  0.2730
 2919poe    c3113417   0.761   0.238   5.574 -0.7167 -0.9096  0.0483
 2919poe     o213418   0.676   0.350   5.581  0.0971 -0.2679 -0.1939
 2919poe    c2313419   0.635   0.396   5.454  0.2249  0.1034 -0.1009
 2919poe    c2313420   0.574   0.538   5.453  0.1691  0.0859  0.6022
 2919poe     o213421   0.451   0.548   5.521 -0.0890 -0.2598  0.1877
 2919poe    c2313422   0.384   0.657   5.461  0.2391  0.0097  0.3115
 2919poe    c2313423   0.270   0.694   5.557 -0.1008 -0.1804 -0.0157
 2919poe     o213424   0.191   0.583   5.596 -0.3526  0.0786  0.2160
 2919poe    c2313425   0.141   0.602   5.726 -0.2361 -0.1307  0.2903
 2919poe    c2313426   0.081   0.466   5.765 -0.5190 -0.1009 -0.0387
 2919poe     o213427   0.161   0.358   5.720 -0.0293  0.2625 -0.0503
 2919poe    c3113428   0.094   0.241   5.762  0.4942 -0.1022 -0.2268
 2920poe    c3113429   1.808   3.375   3.139  0.0817  0.0498  0.1299
 2920poe     o213430   1.904   3.308   3.217  0.2255  0.0275 -0.0659
 2920poe    c2313431   1.839   3.240   3.322  0.2022 -0.2887 -0.2867
 2920poe    c2313432   1.937   3.140   3.386  0.4727  0.3471  0.3021
 2920poe     o213433   2.008   3.051   3.302  0.0326 -0.0130  0.3083
 2920poe    c2313434   2.120   2.984   3.354  0.0730 -0.3983 -0.2656
 2920poe    c2313435   2.195   2.908   3.243  0.6256  0.1960 -0.3004
 2920poe     o213436   2.245   2.998   3.146  0.0075  0.0671 -0.7465
 2920poe    c2313437   2.313   2.920   3.050  0.4103 -0.4342 -0.0623
 2920poe    c2313438   2.365   2.997   2.928 -0.1148 -0.2333 -0.1660
 2920poe     o213439   2.407   2.928   2.811 -0.0793 -0.2560 -0.1401
 2920poe    c3113440   2.484   3.001   2.718  0.6094 -0.5541  0.1989
 2921poe    c3113441   5.479   0.170   4.077  0.0179 -0.2507  0.1420
 2921poe     o213442   5.418   0.261   4.165 -0.9268  0.1741 -0.9265
 2921poe    c2313443   5.390   0.387   4.108  0.2371  0.7051 -0.3614
 2921poe    c2313444   5.368   0.479   4.230  0.2934 -0.3956  0.4929
 2921poe     o213445   5.271   0.415   4.309 -0.2299  0.0209  0.1858
 2921poe    c2313446   5.221   0.487   4.420 -0.8139 -0.0157 -0.0495
 2921poe    c2313447   5.113   0.397   4.481 -0.0305 -0.3786  0.8178
 2921poe     o213448   5.175   0.276   4.519 -0.2643 -0.9495 -0.5470
 2921poe    c2313449   5.084   0.182   4.570 -0.8034 -0.2975 -0.2877
 2921poe    c2313450   5.139   0.108   4.694 -0.3088 -0.0419 -0.3551
 2921poe     o213451   5.080  -0.006   4.752  0.1336  0.1454  0.4751
 2921poe    c3113452   5.162  -0.069   4.847  0.2723  0.0153  0.2684
 2922poe    c3113453   1.585   2.096   4.688 -0.5695  0.3762 -0.5090
 2922poe     o213454   1.693   2.179   4.652 -0.3020  0.1194 -0.2961
 2922poe    c2313455   1.674   2.309   4.704 -0.1041  0.0647 -0.0835
 2922poe    c2313456   1.701   2.417   4.598  0.0405 -0.1413 -0.2600
 2922poe     o213457   1.621   2.406   4.483 -0.2738 -0.3578 -0.0237
 2922poe    c2313458   1.647   2.510   4.390  0.2385 -0.8310 -0.4141
 2922poe    c2313459   1.535   2.530   4.287  0.0321 -0.1052 -0.0507
 2922poe     o213460   1.421   2.583   4.351 -0.2200 -0.3541 -0.2922
 2922poe    c2313461   1.326   2.612   4.251  0.1360 -0.3113 -0.6183
 2922poe    c2313462   1.200   2.525   4.269 -0.2720  0.2702 -0.6226
 2922poe     o213463   1.221   2.388   4.244 -0.1222  0.1759  0.0149
 2922poe    c3113464   1.170   2.345   4.120 -0.4549  0.0028  0.2106
 2923poe    c3113465   5.453   0.077   3.406  0.6083  0.0009  0.0938
 2923poe     o213466   5.360   0.081   3.513  0.0095 -0.3391 -0.4079
 2923poe    c2313467   5.235   0.108   3.455 -0.3952 -0.0920  0.5659
 2923poe    c2313468   5.144   0.007   3.382 -0.0516 -0.0256  0.0395
 2923poe     o213469   5.177  -0.017   3.247  0.3409  0.2247  0.0916
 2923poe    c2313470   5.071  -0.092   3.193  0.4174 -0.2804  0.6351
 2923poe    c2313471   5.098  -0.163   3.060  0.2887  0.3857  0.2478
 2923poe     o213472   5.168  -0.098   2.957  0.1575 -0.0537 -0.1240
 2923poe    c2313473   5.147  -0.175   2.840  0.3761 -0.0046 -0.1968
 2923poe    c2313474   5.238  -0.289   2.789 -0.0662 -0.4084 -0.0847
 2923poe     o213475   5.357  -0.244   2.729 -0.1298  0.3133  0.3152
 2923poe    c3113476   5.439  -0.350   2.685 -0.4337  0.2246 -0.0524
 2924poe    c3113477   3.288   6.885   4.479 -0.6136 -0.0616  0.0059
 2924poe     o213478   3.246   6.993   4.398  0.2978  0.7128  0.5431
 2924poe    c2313479   3.287   7.116   4.454  0.6649  0.7001  0.3056
 2924poe    c2313480   3.199   7.227   4.396 -0.2320 -0.1407  0.0365
 2924poe     o213481   3.191   7.190   4.260 -0.1524  0.5404 -0.1569
 2924poe    c2313482   3.078   7.245   4.195 -0.4505 -0.0151 -0.1087
 2924poe    c2313483   3.073   7.220   4.043 -0.3313 -0.3607 -0.0588
 2924poe     o213484   3.025   7.090   4.018  0.1506 -0.6413  0.4638
 2924poe    c2313485   3.022   7.066   3.879  0.2422  0.1688  0.3157
 2924poe    c2313486   3.003   6.914   3.857  0.1568  0.1861  0.2661
 2924poe     o213487   3.131   6.855   3.859  0.1624  0.0836 -1.3762
 2924poe    c3113488   3.133   6.720   3.818 -0.1121 -0.1512 -0.6298
 2925poe    c3113489   0.309   2.818   2.047  0.0903  0.1503 -0.3138
 2925poe     o213490   0.422   2.897   2.021  0.3858 -0.2663 -0.2912
 2925poe    c2313491   0.530   2.824   2.075  0.0651 -0.3605  0.2230
 2925poe    c2313492   0.655   2.914   2.069 -0.2857  0.0983 -0.3522
 2925poe     o213493   0.652   3.045   2.119  0.1904 -0.1910  0.4582
 2925poe    c2313494   0.774   3.116   2.108  0.2111 -0.3130 -0.1211
 2925poe    c2313495   0.737   3.255   2.052  0.6173 -0.1717 -0.0382
 2925poe     o213496   0.633   3.321   2.120 -0.1116 -0.5466 -0.7744
 2925poe    c2313497   0.611   3.447   2.060  0.0816 -0.0645  0.1451
 2925poe    c2313498   0.472   3.490   2.111  0.0658  0.2366 -0.1447
 2925poe     o213499   0.383   3.382   2.089  0.6058 -0.1387 -0.5286
 2925poe    c3113500   0.254   3.435   2.105  0.7575 -0.0397  0.4597
 2926poe    c3113501   1.688   3.558   1.512 -0.1078  0.0123  0.2727
 2926poe     o213502   1.630   3.576   1.639 -0.0418 -0.0930  0.3175
 2926poe    c2313503   1.724   3.630   1.728 -0.0489 -0.1263  0.3454
 2926poe    c2313504   1.670   3.638   1.872 -0.0327  0.3165  0.3299
 2926poe     o213505   1.622   3.517   1.927  0.0765 -0.0730 -0.4201
 2926poe    c2313506   1.577   3.509   2.060 -0.4226 -0.6081 -0.6184
 2926poe    c2313507   1.448   3.591   2.079  0.0617 -0.0293  0.2255
 2926poe     o213508   1.349   3.519   2.009  0.2761 -0.5281  0.4320
 2926poe    c2313509   1.224   3.533   2.073 -0.1960  0.2496 -0.6402
 2926poe    c2313510   1.107   3.439   2.037 -0.0724 -0.4079  0.6488
 2926poe     o213511   1.082   3.312   2.094 -0.3322 -0.5025  0.3268
 2926poe    c3113512   1.150   3.205   2.033 -0.8871 -0.4218 -0.4512
 2927poe    c3113513   6.644   0.091   4.864 -0.1690 -0.1430  0.0678
 2927poe     o213514   6.565   0.109   4.748  0.7903  0.3778 -0.5149
 2927poe    c2313515   6.472   0.006   4.721  0.6023  0.5603 -0.5595
 2927poe    c2313516   6.364   0.054   4.622 -0.3361 -0.3975 -0.0134
 2927poe     o213517   6.249   0.125   4.661 -0.0943  0.3310 -0.6003
 2927poe    c2313518   6.172   0.061   4.760  0.3906  0.4690 -0.1283
 2927poe    c2313519   6.036   0.132   4.771 -0.0260 -0.3171 -0.0867
 2927poe     o213520   6.041   0.254   4.843  0.3869  0.0879 -0.7884
 2927poe    c2313521   5.929   0.338   4.826 -0.0704 -0.4995 -0.7165
 2927poe    c2313522   5.973   0.481   4.860 -0.9091 -0.2789 -0.5251
 2927poe     o213523   6.076   0.518   4.770 -0.5224 -0.1242 -0.0233
 2927poe    c3113524   6.092   0.655   4.743  0.4082 -0.1823  0.1976
 2928poe    c3113525   1.389   4.443   2.421  0.1756 -0.0060  0.1085
 2928poe     o213526   1.364   4.311   2.378 -0.1154  0.2528 -0.5354
 2928poe    c2313527   1.334   4.210   2.472  0.3242  0.7665  0.1661
 2928poe    c2313528   1.208   4.232   2.558 -0.1349 -0.0880 -0.2765
 2928poe     o213529   1.254   4.306   2.669  0.6558 -0.2325 -0.5029
 2928poe    c2313530   1.160   4.346   2.766  0.7801 -0.8061 -0.1411
 2928poe    c2313531   1.211   4.454   2.863 -0.2589  0.4312 -0.9466
 2928poe     o213532   1.111   4.502   2.951  0.4878  0.9180 -0.3490
 2928poe    c2313533   1.164   4.584   3.053  0.4854  1.0377 -0.4441
 2928poe    c2313534   1.042   4.651   3.118  0.3361  0.2595  0.0860
 2928poe     o213535   0.950   4.708   3.029  0.1139  0.2323  0.2962
 2928poe    c3113536   0.895   4.828   3.079  0.2383 -0.0274  1.0724
 2929poe    c3113537   6.884   3.948   4.191  0.0624  0.3093 -1.3325
 2929poe     o213538   7.013   3.932   4.138  0.6485 -0.1598  0.1854
 2929poe    c2313539   7.075   3.811   4.174 -0.1770 -0.6589 -0.0516
 2929poe    c2313540   7.198   3.775   4.088 -0.0670  0.6079 -0.4379
 2929poe     o213541   7.157   3.716   3.967  0.0793 -0.6139  0.0942
 2929poe    c2313542   7.271   3.667   3.900  0.4468 -0.0039  0.2694
 2929poe    c2313543   7.230   3.589   3.774  0.3996 -0.3505  0.4979
 2929poe     o213544   7.142   3.483   3.802  0.3698 -0.3754  0.3125
 2929poe    c2313545   7.126   3.400   3.690 -0.2915  0.6315 -0.3604
 2929poe    c2313546   7.011   3.298   3.696  0.0854  0.2429  0.4723
 2929poe     o213547   7.051   3.209   3.797  0.0057 -0.2011  0.1204
 2929poe    c3113548   7.056   3.081   3.739  0.5141  0.1448 -0.6056
 2930poe    c3113549   4.343   1.664   5.340 -0.2614 -0.7278 -0.5389
 2930poe     o213550   4.373   1.743   5.228  0.0255 -0.0686 -0.0057
 2930poe    c2313551   4.290   1.857   5.224  0.0752 -0.0353 -0.1058
 2930poe    c2313552   4.266   1.926   5.089  0.1179  0.3982  0.1068
 2930poe     o213553   4.381   1.977   5.026 -0.0434  0.1355 -0.4031
 2930poe    c2313554   4.447   1.873   4.958 -0.3320 -0.2325 -0.1251
 2930poe    c2313555   4.499   1.923   4.822  0.4414 -0.2136  0.1716
 2930poe     o213556   4.511   1.811   4.738 -0.3994 -0.2542  0.0989
 2930poe    c2313557   4.512   1.842   4.600  0.4768 -0.0920  0.1349
 2930poe    c2313558   4.491   1.714   4.517 -0.2088  0.1081 -0.0031
 2930poe     o213559   4.603   1.629   4.515 -0.3563 -0.1012  0.4399
 2930poe    c3113560   4.572   1.518   4.434 -0.5640 -0.0489  0.4482
 2931poe    c3113561   3.570   4.170   5.474 -0.2325  0.4520 -0.2878
 2931poe     o213562   3.625   4.053   5.418 -0.9843 -0.3679  0.6507
 2931poe    c2313563   3.755   4.034   5.469 -0.4344 -0.1544 -0.6387
 2931poe    c2313564   3.812   3.899   5.422 -0.0305 -0.2350  0.0781
 2931poe     o213565   3.802   3.879   5.283  0.3409 -0.0653  0.0254
 2931poe    c2313566   3.813   3.743   5.246  0.0738 -0.1194  0.1433
 2931poe    c2313567   3.856   3.732   5.099  0.1233 -0.2887  0.1703
 2931poe     o213568   3.774   3.827   5.034  0.1327 -0.4920 -0.1452
 2931poe    c2313569   3.790   3.838   4.895 -0.2409  0.1308 -0.1410
 2931poe    c2313570   3.780   3.980   4.834  0.2825  0.3400  0.2482
 2931poe     o213571   3.902   4.048   4.851  0.4139  0.1139  0.2121
 2931poe    c3113572   3.905   4.182   4.807  0.6577  0.0215 -0.0584
 2932poe    c3113573   6.891   2.346   2.272 -0.0918 -0.3153  0.3001
 2932poe     o213574   6.755   2.322   2.300 -0.2575  0.2188 -0.0133
 2932poe    c2313575   6.722   2.216   2.213 -0.0168  0.3558 -0.2687
 2932poe    c2313576   6.568   2.222   2.214 -0.0491 -0.4460 -0.2052
 2932poe     o213577   6.526   2.241   2.347  0.1389 -1.0302 -0.0587
 2932poe    c2313578   6.388   2.219   2.366  0.0636 -0.3735  0.1724
 2932poe    c2313579   6.330   2.260   2.503  0.0614  0.3970 -0.0538
 2932poe     o213580   6.417   2.196   2.594 -0.2940 -0.2101 -0.1369
 2932poe    c2313581   6.383   2.220   2.728 -0.2681  0.2087 -0.2053
 2932poe    c2313582   6.471   2.155   2.836 -0.4807  0.5342  0.1677
 2932poe     o213583   6.593   2.224   2.845  0.3316 -0.8322 -0.1407
 2932poe    c3113584   6.657   2.201   2.969  0.2486  0.0613  0.0762
 2933poe    c3113585   6.984   1.265   1.450  0.4317  0.6188  0.1480
 2933poe     o213586   7.048   1.316   1.564  0.0271  0.0496  0.6430
 2933poe    c2313587   7.180   1.350   1.527  0.0458 -0.9125 -0.2264
 2933poe    c2313588   7.236   1.399   1.662  0.0868 -0.6723 -0.3297
 2933poe     o213589   7.215   1.295   1.755 -0.1934 -0.2720  0.0602
 2933poe    c2313590   7.270   1.333   1.880 -0.0486  0.0853 -0.1099
 2933poe    c2313591   7.250   1.229   1.992 -0.1437  0.0994 -0.1142
 2933poe     o213592   7.114   1.203   2.018 -0.0879 -0.2205 -0.1382
 2933poe    c2313593   7.085   1.087   2.091 -1.0394 -0.2909 -0.6088
 2933poe    c2313594   6.940   1.112   2.136 -0.6653 -0.1774  0.5677
 2933poe     o213595   6.846   1.096   2.032  0.4190 -0.0528 -0.4552
 2933poe    c3113596   6.791   0.968   2.012  0.5070 -0.0428 -0.7645
 2934poe    c3113597   1.887   3.643   2.309  0.0475 -0.3083 -0.0533
 2934poe     o213598   1.929   3.775   2.283  0.1090 -0.3737 -0.2948
 2934poe    c2313599   1.819   3.856   2.248  0.1790 -0.2131 -0.1490
 2934poe    c2313600   1.766   3.938   2.367 -0.0069 -0.4162 -0.0905
 2934poe     o213601   1.853   4.044   2.399  0.1282 -0.5677  0.0481
 2934poe    c2313602   1.804   4.140   2.490 -0.1955 -0.4734 -0.2266
 2934poe    c2313603   1.911   4.217   2.569 -0.0482 -0.2753 -0.6155
 2934poe     o213604   1.970   4.306   2.477 -0.2972  0.2400 -0.2816
 2934poe    c2313605   2.072   4.381   2.538  0.1783 -0.2697 -0.4377
 2934poe    c2313606   2.122   4.488   2.438  0.2493 -0.0455 -0.1637
 2934poe     o213607   2.130   4.434   2.308 -0.7320  0.2972 -0.3749
 2934poe    c3113608   2.217   4.498   2.218 -0.2926 -0.0742 -0.2122
 2935poe    c3113609   4.230   6.255   4.194  0.2697 -0.1786  0.0325
 2935poe     o213610   4.096   6.286   4.224  0.1673 -0.1954 -0.4029
 2935poe    c2313611   4.072   6.421   4.257 -0.2739 -0.2676 -0.4207
 2935poe    c2313612   3.924   6.463   4.257  0.0793  1.0191 -0.1873
 2935poe     o213613   3.844   6.431   4.368  0.0297 -0.0219 -0.5162
 2935poe    c2313614   3.767   6.313   4.362 -0.1963  0.0916  0.0998
 2935poe    c2313615   3.704   6.286   4.501 -0.2468 -0.0540  0.0493
 2935poe     o213616   3.647   6.407   4.547 -0.8201 -0.2561 -0.1203
 2935poe    c2313617   3.577   6.402   4.669  0.0509 -0.6395  0.3713
 2935poe    c2313618   3.509   6.539   4.660  0.4859 -0.4649 -0.2879
 2935poe     o213619   3.602   6.635   4.616  0.3398 -0.2101 -0.0421
 2935poe    c3113620   3.612   6.735   4.715 -0.2321  0.1475 -0.3395
 2936poe    c3113621   0.093   2.237   5.468  0.4164 -0.6888  0.1995
 2936poe     o213622   0.150   2.331   5.556  0.0074 -0.3825  0.1434
 2936poe    c2313623   0.126   2.311   5.693  0.3458  0.1624  0.2820
 2936poe    c2313624   0.140   2.453   5.752  0.3284  0.3282 -0.1142
 2936poe     o213625   0.272   2.502   5.737  0.5449 -0.2853 -0.2331
 2936poe    c2313626   0.283   2.619   5.814 -0.2935 -0.1834 -0.2538
 2936poe    c2313627   0.423   2.668   5.854 -0.1714 -0.6422 -0.1154
 2936poe     o213628   0.494   2.707   5.739 -0.3189  0.6679  0.2218
 2936poe    c2313629   0.623   2.758   5.768  0.0634 -0.0981 -0.1019
 2936poe    c2313630   0.710   2.733   5.643  0.0585  0.2216 -0.1683
 2936poe     o213631   0.653   2.776   5.521 -0.0442 -0.1778 -0.2603
 2936poe    c3113632   0.771   2.809   5.451  0.2144  0.3812  0.4242
 2937poe    c3113633   4.559   5.812   0.263 -0.1021 -0.3678  0.5148
 2937poe     o213634   4.556   5.953   0.263 -0.2028 -0.3717  0.2485
 2937poe    c2313635   4.429   6.007   0.291 -0.0450  0.1444 -0.0090
 2937poe    c2313636   4.422   6.158   0.260  0.2247  0.2515  0.4368
 2937poe     o213637   4.460   6.193   0.128  0.4166  0.0226  0.4301
 2937poe    c2313638   4.351   6.171   0.042  0.3609 -0.5097  0.6294
 2937poe    c2313639   4.382   6.153  -0.108 -0.4448 -0.0276  0.4003
 2937poe     o213640   4.441   6.027  -0.129 -0.0922  0.2194 -0.1189
 2937poe    c2313641   4.399   5.969  -0.251 -0.4398 -0.3264  0.2564
 2937poe    c2313642   4.504   5.858  -0.270 -0.2836 -0.1452  0.0617
 2937poe     o213643   4.632   5.894  -0.316 -0.1643 -0.1701  0.3715
 2937poe    c3113644   4.698   5.779  -0.362 -0.7037 -0.1004 -0.5981
 2938poe    c3113645   2.778   4.396   6.039 -0.0051  0.3155  0.1854
 2938poe     o213646   2.895   4.394   5.960  0.2670  0.0582  0.5966
 2938poe    c2313647   2.899   4.515   5.887 -0.2753 -0.1981  0.1377
 2938poe    c2313648   3.034   4.521   5.814 -0.2481  0.2350  0.2232
 2938poe     o213649   3.136   4.557   5.905  0.0595 -0.4916  0.1726
 2938poe    c2313650   3.246   4.620   5.843 -0.1858 -0.1261  0.1066
 2938poe    c2313651   3.228   4.767   5.801  0.5522 -0.0791 -0.0656
 2938poe     o213652   3.184   4.800   5.671  0.2509  0.1691  0.0971
 2938poe    c2313653   3.255   4.740   5.565  0.2980 -0.1610  0.3121
 2938poe    c2313654   3.364   4.829   5.502 -0.3583  0.3947 -0.0613
 2938poe     o213655   3.318   4.942   5.432  0.0203  0.2290 -0.5828
 2938poe    c3113656   3.426   5.031   5.415  0.1300  0.2492  0.1721
 2939poe    c3113657   5.314   2.465   0.839  0.0074  0.2158  0.5903
 2939poe     o213658   5.307   2.476   0.979  0.6249 -0.0750  0.6468
 2939poe    c2313659   5.365   2.595   1.028  0.5511  0.2599 -0.0697
 2939poe    c2313660   5.403   2.572   1.176  0.1206  0.0285  0.0066
 2939poe     o213661   5.285   2.555   1.251  0.2386 -0.0196  0.1805
 2939poe    c2313662   5.291   2.607   1.382 -0.1930  0.3977  0.0365
 2939poe    c2313663   5.156   2.666   1.427 -0.2581  0.1256  0.1952
 2939poe     o213664   5.069   2.559   1.458  0.0651 -0.3054 -0.3753
 2939poe    c2313665   4.983   2.582   1.567  0.1103 -0.5725 -0.2818
 2939poe    c2313666   5.029   2.552   1.710 -0.2991  0.2049  0.0163
 2939poe     o213667   5.118   2.649   1.762  0.4029 -0.4644  0.0682
 2939poe    c3113668   5.177   2.630   1.888  0.5621  0.7754  0.1862
 2940poe    c3113669   0.030   5.228   4.952 -0.6380  0.0233 -0.5358
 2940poe     o213670   0.037   5.103   4.887 -0.3005  0.0624 -0.5775
 2940poe    c2313671  -0.062   5.017   4.939 -0.0798  0.1236 -0.0544
 2940poe    c2313672  -0.107   4.895   4.858  0.1664 -0.1373  0.2025
 2940poe     o213673  -0.008   4.794   4.855  0.4137  0.1205 -0.3625
 2940poe    c2313674  -0.062   4.680   4.791  0.4019  0.1768 -0.4528
 2940poe    c2313675   0.019   4.551   4.770  0.3572  0.0201  0.3105
 2940poe     o213676  -0.065   4.447   4.725  0.7303 -0.0121 -0.3379
 2940poe    c2313677  -0.086   4.434   4.587 -0.1433  0.1777 -0.2320
 2940poe    c2313678  -0.148   4.296   4.559 -0.3677  0.2544 -0.1138
 2940poe     o213679  -0.285   4.312   4.587 -0.2867  0.7184  0.0169
 2940poe    c3113680  -0.347   4.220   4.500  0.0442  0.3946  0.1223
 2941poe    c3113681   1.870   7.097   4.789  0.0894 -0.1677  0.4080
 2941poe     o213682   1.956   7.193   4.846  0.2994  0.1087 -0.3659
 2941poe    c2313683   2.001   7.131   4.964  0.5987  0.3466 -0.3547
 2941poe    c2313684   2.051   7.219   5.080 -0.3399  0.3406  0.0587
 2941poe     o213685   2.180   7.273   5.062 -0.0583 -0.5526 -0.6957
 2941poe    c2313686   2.203   7.350   5.178 -0.2116 -0.4806 -0.7127
 2941poe    c2313687   2.313   7.454   5.147 -0.6617  0.3218  0.3025
 2941poe     o213688   2.247   7.560   5.083  0.2221  0.7356  0.0550
 2941poe    c2313689   2.323   7.630   4.987 -0.2102  0.7021 -0.3209
 2941poe    c2313690   2.281   7.778   4.976  0.0941  0.7842 -0.3913
 2941poe     o213691   2.315   7.854   5.090 -0.0825  0.3067 -0.0159
 2941poe    c3113692   2.282   7.990   5.078 -0.1820  0.3115  0.3195
 2942poe    c3113693   2.235   4.792   5.083 -0.2133 -0.3901 -0.1247
 2942poe     o213694   2.181   4.676   5.143  0.1332 -0.2905  0.3774
 2942poe    c2313695   2.062   4.732   5.194  0.3788  0.3989  0.2076
 2942poe    c2313696   2.053   4.691   5.342  0.3224  0.5334  0.2417
 2942poe     o213697   2.074   4.553   5.360  0.2822  0.5224  0.2017
 2942poe    c2313698   2.010   4.501   5.475  0.1389  0.1346 -0.0514
 2942poe    c2313699   2.049   4.353   5.482  0.2310  0.1412 -0.3869
 2942poe     o213700   2.012   4.297   5.358  0.1925  0.5543 -0.5603
 2942poe    c2313701   2.094   4.183   5.349 -0.2196  0.1512  0.5659
 2942poe    c2313702   2.083   4.140   5.202 -0.5214  0.8286  0.3856
 2942poe     o213703   2.093   4.258   5.125  0.4115  0.4881 -0.0219
 2942poe    c3113704   2.086   4.231   4.987 -0.2149 -0.0692  0.1125
 2943poe    c3113705   6.480   6.644   0.152 -0.2446 -0.2062 -0.1531
 2943poe     o213706   6.542   6.683   0.031  0.5155 -0.1013  0.2620
 2943poe    c2313707   6.643   6.777   0.058  0.1793  0.3861 -0.1506
 2943poe    c2313708   6.682   6.839  -0.078 -0.1008  0.2138 -0.3113
 2943poe     o213709   6.705   6.741  -0.176  0.9900 -0.3751  0.4986
 2943poe    c2313710   6.738   6.804  -0.298 -0.0752  0.1371  0.4654
 2943poe    c2313711   6.792   6.692  -0.389 -0.1917  0.0099  0.5521
 2943poe     o213712   6.720   6.573  -0.373  0.1961 -0.2364  0.4873
 2943poe    c2313713   6.775   6.469  -0.451 -0.4049 -0.1764 -0.0218
 2943poe    c2313714   6.717   6.330  -0.420  0.2473 -0.3795  0.3146
 2943poe     o213715   6.699   6.282  -0.289  0.0509  0.4178  0.5867
 2943poe    c3113716   6.650   6.150  -0.294 -0.0750  0.4687  0.4456
 2944poe    c3113717   0.642   1.692   1.891 -0.3740  0.1383  0.0779
 2944poe     o213718   0.606   1.826   1.918 -0.2084  0.2458 -0.2303
 2944poe    c2313719   0.717   1.911   1.932 -0.0551  0.0727 -0.3896
 2944poe    c2313720   0.691   2.061   1.956  0.0397  0.0337 -0.0297
 2944poe     o213721   0.632   2.114   1.839  0.7145 -0.0394 -0.4085
 2944poe    c2313722   0.582   2.245   1.859 -0.1117 -0.3281 -0.5390
 2944poe    c2313723   0.598   2.343   1.741  0.2989  0.3372  0.0582
 2944poe     o213724   0.509   2.324   1.633  0.6169 -0.0735 -0.1366
 2944poe    c2313725   0.530   2.219   1.543  0.2209 -0.3145  0.0486
 2944poe    c2313726   0.433   2.203   1.424  0.0859  0.6403  0.0243
 2944poe     o213727   0.307   2.150   1.461  0.2675 -0.0892 -0.3934
 2944poe    c3113728   0.202   2.226   1.515  0.3212 -0.3307  0.0528
 2945poe    c3113729   6.852   6.433   3.120 -0.1138 -0.2777 -0.2748
 2945poe     o213730   6.922   6.554   3.138 -0.6300 -0.0308  0.1143
 2945poe    c2313731   7.026   6.540   3.232 -0.1638 -0.2098 -0.4262
 2945poe    c2313732   7.137   6.644   3.209 -0.0580 -0.3009 -0.3358
 2945poe     o213733   7.082   6.772   3.233  0.1305 -0.3485  0.3670
 2945poe    c2313734   7.178   6.874   3.225 -0.0944 -0.1300  0.4632
 2945poe    c2313735   7.092   7.000   3.199 -0.3264 -0.2565  0.6211
 2945poe     o213736   7.000   7.000   3.306 -0.3613  0.6049  0.5971
 2945poe    c2313737   6.921   7.112   3.275 -0.1162  0.6864  0.2628
 2945poe    c2313738   6.835   7.153   3.396 -0.2939  0.2538  0.2838
 2945poe     o213739   6.736   7.054   3.381  0.5826 -0.5511 -0.3782
 2945poe    c3113740   6.644   7.061   3.488  0.2956  0.1462 -0.6657
 2946poe    c3113741   0.825   2.452   4.758  0.2264 -0.5641  0.2568
 2946poe     o213742   0.853   2.315   4.773  0.2648 -0.6030 -0.1550
 2946poe    c2313743   0.800   2.251   4.659  0.1189 -0.1369 -0.3498
 2946poe    c2313744   0.776   2.099   4.675 -0.2069 -0.1021 -0.4929
 2946poe     o213745   0.898   2.029   4.692 -0.1686  0.2214  0.6700
 2946poe    c2313746   0.876   1.910   4.764  0.0281  0.0420  0.4317
 2946poe    c2313747   1.007   1.829   4.775  0.5992  0.6667 -1.3459
 2946poe     o213748   1.094   1.922   4.833  0.2531  0.0908  0.1389
 2946poe    c2313749   1.228   1.890   4.801 -0.0650 -0.8730 -0.2407
 2946poe    c2313750   1.324   1.965   4.895 -1.0417 -0.1367  0.1878
 2946poe     o213751   1.285   2.101   4.892  0.2928  0.2484 -0.3728
 2946poe    c3113752   1.358   2.175   4.987  0.0299 -0.4272  0.3625
 2947poe    c3113753   5.832   7.025   1.192 -0.5640  0.2835 -0.0087
 2947poe     o213754   5.872   7.027   1.057 -0.1097 -0.3203  0.1136
 2947poe    c2313755   5.923   7.157   1.035  0.3675 -0.5023  0.1420
 2947poe    c2313756   6.009   7.161   0.907  0.0093 -0.2709 -0.0922
 2947poe     o213757   5.944   7.095   0.801 -0.0841  0.1399 -0.2917
 2947poe    c2313758   6.006   7.129   0.678  0.6551 -0.2721 -0.0398
 2947poe    c2313759   5.946   7.066   0.551 -0.0653 -0.2427  0.2786
 2947poe     o213760   5.924   6.931   0.587  0.8546 -0.3877  0.3335
 2947poe    c2313761   5.860   6.861   0.483  0.4152 -0.1459  0.4357
 2947poe    c2313762   5.857   6.718   0.541  0.1063 -0.3055  0.0306
 2947poe     o213763   5.806   6.731   0.672 -0.0768 -0.0154 -0.0667
 2947poe    c3113764   5.770   6.602   0.718  0.2745 -0.1804 -0.2439
 2948poe    c3113765   7.200   4.322   5.807 -0.0026  0.0482 -0.4857
 2948poe     o213766   7.340   4.344   5.808 -0.0326  0.2548  0.4891
 2948poe    c2313767   7.386   4.344   5.941  0.4141  0.0698  0.3336
 2948poe    c2313768   7.411   4.208   6.009 -0.2100 -0.0653  0.2904
 2948poe     o213769   7.508   4.136   5.937 -0.1930  0.0229  0.2249
 2948poe    c2313770   7.477   4.000   5.959 -0.2123  0.0553  0.3956
 2948poe    c2313771   7.481   3.906   5.838  0.2275  0.5924 -0.0095
 2948poe     o213772   7.363   3.920   5.762  0.3641  0.0300 -0.3317
 2948poe    c2313773   7.347   3.818   5.666 -0.0274 -0.2394  0.0160
 2948poe    c2313774   7.281   3.689   5.720  0.0268  0.0979  0.9028
 2948poe     o213775   7.356   3.607   5.807  0.1128 -0.2534  0.4986
 2948poe    c3113776   7.354   3.476   5.756  0.2482 -0.0606 -0.0107
 2949poe    c3113777   0.100   0.128   3.090 -0.4043  0.1016  0.2931
 2949poe     o213778   0.112  -0.012   3.086 -0.0330  0.1445 -0.2381
 2949poe    c2313779   0.099  -0.053   2.952 -0.5452 -0.0101 -0.1440
 2949poe    c2313780   0.158  -0.195   2.942 -0.0377  0.1806  0.1119
 2949poe     o213781   0.287  -0.197   3.001  0.0349  0.2219 -0.0459
 2949poe    c2313782   0.344  -0.325   3.016 -0.0013  0.1387 -0.5971
 2949poe    c2313783   0.452  -0.336   3.125  0.0485 -0.0508 -0.6658
 2949poe     o213784   0.403  -0.323   3.256  0.2366  0.1761 -0.6190
 2949poe    c2313785   0.504  -0.269   3.339  0.2638 -0.2517 -0.3705
 2949poe    c2313786   0.457  -0.202   3.470 -0.7087 -0.6088 -0.5305
 2949poe     o213787   0.358  -0.264   3.550 -0.4341 -0.2105  0.1237
 2949poe    c3113788   0.412  -0.301   3.674  0.0154 -0.4757 -0.1489
 2950poe    c3113789   6.055   6.630   6.706 -0.5204 -0.6729 -0.2440
 2950poe     o213790   6.156   6.659   6.612 -0.5205 -0.2171 -0.1034
 2950poe    c2313791   6.157   6.794   6.570  1.0714 -0.1142  0.2135
 2950poe    c2313792   6.271   6.796   6.467  0.6317  0.4551 -0.2613
 2950poe     o213793   6.250   6.692   6.375 -0.3879  0.2444  0.1929
 2950poe    c2313794   6.357   6.688   6.282  0.0734 -0.3000  0.7386
 2950poe    c2313795   6.359   6.563   6.192  0.0292  0.2518 -0.0372
 2950poe     o213796   6.317   6.448   6.261 -0.2315 -0.1803 -0.9053
 2950poe    c2313797   6.330   6.337   6.174 -0.3011 -0.6167 -0.3701
 2950poe    c2313798   6.247   6.218   6.225 -0.2421 -0.8111 -0.7292
 2950poe     o213799   6.107   6.225   6.209 -0.3462 -0.2291  0.3646
 2950poe    c3113800   6.046   6.102   6.240  0.1124 -0.5508  0.0064
 2951poe    c3113801   4.707   7.185   7.126 -0.2223 -0.1951 -0.0688
 2951poe     o213802   4.668   7.154   7.258  0.0170  0.1552  0.0869
 2951poe    c2313803   4.530   7.182   7.268 -0.0831 -0.3728  0.2444
 2951poe    c2313804   4.480   7.130   7.404 -0.5724 -0.0211  0.2014
 2951poe     o213805   4.550   7.204   7.501 -0.0888  0.2531 -0.3516
 2951poe    c2313806   4.505   7.174   7.631 -0.3147  0.2640 -0.4281
 2951poe    c2313807   4.531   7.287   7.732 -0.0100 -0.2935  0.1260
 2951poe     o213808   4.671   7.293   7.725  0.0068 -0.3287  0.4179
 2951poe    c2313809   4.710   7.420   7.775  0.3333 -0.2983  0.0912
 2951poe    c2313810   4.858   7.407   7.813  0.2922 -0.3410  0.2365
 2951poe     o213811   4.926   7.329   7.717  0.2443  0.1423 -0.1888
 2951poe    c3113812   5.063   7.358   7.703  0.0638  0.9855 -0.2684
 2952poe    c3113813   1.781   6.443   2.687  0.5335 -0.4947 -0.3943
 2952poe     o213814   1.857   6.536   2.614  0.1965  0.2576  0.1954
 2952poe    c2313815   1.992   6.537   2.653  0.2418 -0.3772  0.0715
 2952poe    c2313816   2.072   6.635   2.564  0.1594 -0.2436  0.1443
 2952poe     o213817   2.056   6.614   2.426 -0.1515  0.3264  0.0941
 2952poe    c2313818   2.097   6.717   2.338 -0.4422  0.3905  0.0317
 2952poe    c2313819   2.084   6.685   2.188  0.4982 -0.2317  0.0771
 2952poe     o213820   1.951   6.694   2.143  0.5528  0.1071 -0.0213
 2952poe    c2313821   1.936   6.635   2.016  0.2325  0.1016  0.0182
 2952poe    c2313822   1.797   6.637   1.950  0.2583 -0.1629 -0.0421
 2952poe     o213823   1.725   6.521   1.986 -0.0690  0.0525 -0.0025
 2952poe    c3113824   1.593   6.530   1.938  0.1209 -0.0134 -0.5405
 2953poe    c3113825   6.732   1.224   2.580 -0.0201  0.0289 -0.7427
 2953poe     o213826   6.706   1.363   2.588  0.4382  0.0869 -0.2202
 2953poe    c2313827   6.797   1.430   2.672 -0.0553  0.4587  0.0185
 2953poe    c2313828   6.783   1.582   2.647 -0.1088  0.4965  0.2753
 2953poe     o213829   6.656   1.626   2.688 -0.0290  0.2290  0.8288
 2953poe    c2313830   6.642   1.765   2.667  0.2955  0.2730  0.9087
 2953poe    c2313831   6.494   1.799   2.689  0.1862  0.3738  0.0522
 2953poe     o213832   6.405   1.786   2.580  0.3503 -0.0023 -0.0366
 2953poe    c2313833   6.281   1.853   2.576  0.3201 -0.0667 -0.1613
 2953poe    c2313834   6.216   1.818   2.440 -0.2598 -0.2173  0.1528
 2953poe     o213835   6.174   1.688   2.409 -0.1225 -0.3406  0.4717
 2953poe    c3113836   6.252   1.632   2.306 -0.9253  0.5037 -0.6229
 2954poe    c3113837   3.696   5.034   0.969 -0.0806  0.1211 -0.0791
 2954poe     o213838   3.737   5.119   1.074 -0.2194  0.0209  0.0558
 2954poe    c2313839   3.865   5.090   1.124  0.0278  0.7542 -0.1362
 2954poe    c2313840   3.904   5.226   1.185  0.4458  0.2047  0.8313
 2954poe     o213841   3.809   5.266   1.281 -0.3333 -0.1314  0.2048
 2954poe    c2313842   3.850   5.385   1.345  0.0799 -0.1257 -0.0659
 2954poe    c2313843   3.771   5.415   1.474 -0.2918  0.5192 -0.4404
 2954poe     o213844   3.633   5.392   1.463 -0.2597  0.0383  0.1540
 2954poe    c2313845   3.574   5.378   1.591  0.2860 -0.3629  0.3652
 2954poe    c2313846   3.432   5.318   1.584  0.3295 -0.3945 -0.3759
 2954poe     o213847   3.421   5.209   1.496  0.1009 -0.0016 -0.8389
 2954poe    c3113848   3.291   5.156   1.503 -0.1667  0.6645 -0.7635
 2955poe    c3113849   5.168   4.501   5.646  0.1832 -0.2396  0.3975
 2955poe     o213850   5.069   4.420   5.586  0.4374  0.0192 -0.3861
 2955poe    c2313851   4.996   4.495   5.492  0.2550  0.2240 -0.0870
 2955poe    c2313852   4.874   4.411   5.451 -0.1143  0.5474  0.3418
 2955poe     o213853   4.764   4.414   5.539  0.0376  0.9302  0.5209
 2955poe    c2313854   4.652   4.401   5.454  0.3505 -0.0183  0.2327
 2955poe    c2313855   4.517   4.369   5.520  0.3787  0.0629  0.3306
 2955poe     o213856   4.462   4.474   5.596 -0.2696  0.0213 -0.0752
 2955poe    c2313857   4.354   4.418   5.669  0.2672 -0.3305  0.4641
 2955poe    c2313858   4.293   4.514   5.773  0.1260  0.2354 -0.1255
 2955poe     o213859   4.385   4.533   5.878  0.2162  0.0902 -0.1778
 2955poe    c3113860   4.360   4.462   5.998  1.1826 -0.3546 -0.2295
 2956poe    c3113861   4.363   1.914   7.217 -0.7012  0.3402  0.8577
 2956poe     o213862   4.476   1.989   7.252  0.0553 -0.3043 -0.1548
 2956poe    c2313863   4.509   1.982   7.389 -0.3859 -0.3068 -0.0466
 2956poe    c2313864   4.645   2.048   7.418 -0.6946  0.0987  0.4793
 2956poe     o213865   4.624   2.183   7.453 -0.0564  0.5912 -0.9631
 2956poe    c2313866   4.747   2.252   7.447  0.1530  0.2726 -0.4013
 2956poe    c2313867   4.734   2.401   7.482  0.9052  0.3341 -0.3654
 2956poe     o213868   4.716   2.413   7.621 -0.0888  0.3565 -0.4874
 2956poe    c2313869   4.818   2.485   7.688 -0.2548 -0.0699  0.2380
 2956poe    c2313870   4.765   2.506   7.831  0.2066 -0.0362  0.4034
 2956poe     o213871   4.796   2.395   7.913  0.1477 -0.1932  0.2149
 2956poe    c3113872   4.909   2.431   7.989  0.1557  0.4783 -0.1051
 2957poe    c3113873   6.990   1.938   5.976  0.3519 -0.2154 -0.4122
 2957poe     o213874   7.011   1.920   5.838  0.2511  1.0464 -0.6062
 2957poe    c2313875   7.129   1.844   5.822 -0.3617 -0.2108  0.5966
 2957poe    c2313876   7.168   1.817   5.675 -0.6639 -0.2326  0.5182
 2957poe     o213877   7.053   1.773   5.607 -0.5921  0.3323  0.0223
 2957poe    c2313878   7.066   1.841   5.484 -0.4965 -0.3007 -0.3185
 2957poe    c2313879   6.934   1.836   5.406 -0.4710  0.3785 -0.4060
 2957poe     o213880   6.828   1.896   5.478  0.1160 -0.0048  0.7993
 2957poe    c2313881   6.710   1.892   5.402  0.6581 -0.2160 -0.0452
 2957poe    c2313882   6.591   1.813   5.460  0.2739  0.0169 -0.5055
 2957poe     o213883   6.528   1.877   5.569 -0.0448 -0.7189 -0.2529
 2957poe    c3113884   6.426   1.970   5.542  0.7698  0.3228  0.2018
 2958poe    c3113885   3.413   0.660   5.330  0.1731 -0.1728 -0.5496
 2958poe     o213886   3.462   0.536   5.284 -0.5127 -0.2950 -0.9724
 2958poe    c2313887   3.429   0.444   5.386 -0.1423 -0.0095 -0.5880
 2958poe    c2313888   3.490   0.306   5.357  0.0600 -0.0193 -0.1254
 2958poe     o213889   3.457   0.242   5.235  0.0603  0.0511 -0.1621
 2958poe    c2313890   3.319   0.216   5.224 -0.0733  0.6079  0.1376
 2958poe    c2313891   3.299   0.154   5.084  0.1269 -0.0315  0.3872
 2958poe     o213892   3.372   0.225   4.987 -0.2674 -0.1211  0.0267
 2958poe    c2313893   3.359   0.152   4.867 -0.3227  0.4645 -0.3275
 2958poe    c2313894   3.452   0.238   4.780  0.0562  0.1679 -0.2189
 2958poe     o213895   3.574   0.246   4.850  0.1959 -0.1868 -0.4198
 2958poe    c3113896   3.676   0.283   4.759  0.2003  0.1194 -0.2926
 2959poe    c3113897   4.452   5.175   6.214 -0.4110  0.5851 -0.3824
 2959poe     o213898   4.523   5.072   6.279 -1.2305  0.2985  0.0728
 2959poe    c2313899   4.587   4.981   6.192 -0.3978  0.3137  0.6633
 2959poe    c2313900   4.645   4.858   6.264  0.2335  0.1701 -0.0767
 2959poe     o213901   4.718   4.887   6.382  0.3221  0.2078 -0.1407
 2959poe    c2313902   4.738   4.767   6.452  0.1011  0.1567 -0.1638
 2959poe    c2313903   4.819   4.768   6.583 -0.1562 -0.3322  0.0029
 2959poe     o213904   4.758   4.870   6.658  0.3796  0.3372 -0.4623
 2959poe    c2313905   4.794   4.869   6.794 -0.5055 -0.0660 -0.2229
 2959poe    c2313906   4.711   4.981   6.860  0.3763  0.3633  0.1758
 2959poe     o213907   4.725   5.094   6.777  0.3396  0.1442 -0.1332
 2959poe    c3113908   4.704   5.213   6.851  0.0740 -0.0960  0.1793
 2960poe    c3113909   5.740   1.737   5.939 -0.1376 -0.3693 -0.6500
 2960poe     o213910   5.734   1.606   5.990 -0.1176 -0.1181  0.0072
 2960poe    c2313911   5.860   1.567   6.041 -0.0337  0.1976  0.0433
 2960poe    c2313912   5.883   1.565   6.193 -0.6109 -0.2229  0.1276
 2960poe     o213913   5.902   1.691   6.254  0.6548 -0.1817 -0.3246
 2960poe    c2313914   5.902   1.671   6.394  0.3795 -0.1843 -0.3238
 2960poe    c2313915   5.934   1.805   6.463 -0.5936 -0.3700  0.5012
 2960poe     o213916   5.966   1.795   6.600  0.9991  0.5097  0.2055
 2960poe    c2313917   5.868   1.856   6.681  0.5626 -0.0166  0.0739
 2960poe    c2313918   5.926   1.920   6.809  0.4645 -0.0454  0.1326
 2960poe     o213919   5.995   1.831   6.893  0.4119 -0.1342  0.0826
 2960poe    c3113920   6.025   1.897   7.014 -0.2665 -0.1949  0.2895
 2961poe    c3113921   3.474   6.740   1.238  0.0494 -0.9237 -0.1668
 2961poe     o213922   3.368   6.738   1.145  0.2375  0.1208 -0.4156
 2961poe    c2313923   3.396   6.666   1.027 -0.0780  0.0952 -0.4760
 2961poe    c2313924   3.278   6.665   0.928 -0.2379  0.1535 -0.2871
 2961poe     o213925   3.155   6.625   0.983 -0.0607 -0.4157 -0.2974
 2961poe    c2313926   3.051   6.652   0.891 -0.0227  0.2432 -0.1477
 2961poe    c2313927   2.918   6.615   0.959  0.3212 -0.6128  0.0647
 2961poe     o213928   2.914   6.656   1.094 -0.1597 -0.4117 -0.0113
 2961poe    c2313929   2.785   6.637   1.147 -0.0819  0.4319  0.5040
 2961poe    c2313930   2.780   6.676   1.296  0.4454  0.0883  0.6133
 2961poe     o213931   2.755   6.813   1.321 -0.1931  0.1081 -0.0878
 2961poe    c3113932   2.787   6.849   1.454 -0.5808 -0.6023  0.2054
 2962poe    c3113933   5.539   1.401   6.345  0.1353 -1.0497 -0.2423
 2962poe     o213934   5.428   1.478   6.305  0.3212 -0.2303  0.7785
 2962poe    c2313935   5.314   1.463   6.388 -0.4799  0.3823 -0.1960
 2962poe    c2313936   5.185   1.525   6.330 -0.6522 -0.0490 -0.2750
 2962poe     o213937   5.206   1.664   6.329 -0.2270 -0.1146 -0.6706
 2962poe    c2313938   5.110   1.720   6.241 -0.4671 -0.1365 -0.4227
 2962poe    c2313939   5.059   1.865   6.233 -0.4149 -0.0885  0.0400
 2962poe     o213940   4.978   1.901   6.342  0.1816  0.6351  0.2562
 2962poe    c2313941   4.896   2.007   6.301 -0.2358 -0.0756 -0.7665
 2962poe    c2313942   4.747   1.976   6.324 -0.1773  0.0585 -0.2011
 2962poe     o213943   4.672   1.906   6.227 -0.2381 -0.3072  0.1057
 2962poe    c3113944   4.542   1.877   6.272 -0.5370  0.2551 -0.3807
 2963poe    c3113945   3.580   6.432   3.273 -0.0344 -0.3171  0.1243
 2963poe     o213946   3.647   6.399   3.154  0.3873 -0.4197  0.3892
 2963poe    c2313947   3.783   6.370   3.180  0.3022 -1.3447 -0.1522
 2963poe    c2313948   3.853   6.375   3.043  0.0323  0.7522 -0.2547
 2963poe     o213949   3.801   6.295   2.939  0.7837  0.0058 -0.0712
 2963poe    c2313950   3.908   6.233   2.871  0.6546 -0.0369 -0.2351
 2963poe    c2313951   3.851   6.121   2.782  0.2165 -0.0654  0.0739
 2963poe     o213952   3.790   6.021   2.861  0.2964 -0.0462  0.1605
 2963poe    c2313953   3.710   5.937   2.781  0.4173 -0.0208  0.0098
 2963poe    c2313954   3.591   5.868   2.852  0.2631 -0.0676 -0.2935
 2963poe     o213955   3.509   5.944   2.938  0.1212 -0.1864 -0.3243
 2963poe    c3113956   3.432   5.851   3.011 -0.1311  0.2926  0.0229
 2964poe    c3113957   0.745   1.377   0.591 -0.0335  0.7075  0.2085
 2964poe     o213958   0.778   1.422   0.720 -0.0534 -0.2301  0.5512
 2964poe    c2313959   0.897   1.498   0.727 -0.1585 -0.0211  0.1060
 2964poe    c2313960   0.918   1.558   0.867  0.1716  0.0478  0.0271
 2964poe     o213961   0.915   1.468   0.975  0.0834 -0.2180 -0.1961
 2964poe    c2313962   0.938   1.539   1.095 -0.7019  0.1515 -0.2560
 2964poe    c2313963   0.918   1.444   1.215 -0.3318 -0.2397 -0.4973
 2964poe     o213964   1.000   1.330   1.219  0.3875  0.2539 -0.8334
 2964poe    c2313965   0.956   1.238   1.317  0.5920 -0.0759 -1.0506
 2964poe    c2313966   1.057   1.122   1.331  0.4158 -0.1826 -0.6584
 2964poe     o213967   1.047   0.997   1.266 -0.3328 -0.5399  0.1093
 2964poe    c3113968   1.168   0.935   1.303 -0.1074 -0.1706 -0.0017
 2965poe    c3113969   3.583   4.793   6.564  0.0328  0.1712 -0.2801
 2965poe     o213970   3.509   4.713   6.474  0.6320  0.1826 -0.7967
 2965poe    c2313971   3.524   4.753   6.340  0.0576  0.7210 -0.7088
 2965poe    c2313972   3.443   4.673   6.236 -0.4258  0.2137  0.0535
 2965poe     o213973   3.317   4.654   6.298 -0.4950  0.6299  0.0429
 2965poe    c2313974   3.220   4.620   6.202  0.1008  0.4138 -0.4884
 2965poe    c2313975   3.076   4.613   6.254  0.1394  0.0151 -0.4316
 2965poe     o213976   3.029   4.509   6.337 -0.6019  0.3433 -0.4259
 2965poe    c2313977   2.895   4.530   6.376 -0.5326  0.1119 -0.0632
 2965poe    c2313978   2.861   4.427   6.486  0.1314  0.0626  0.0991
 2965poe     o213979   2.919   4.437   6.614 -0.0655  0.1694  0.1797
 2965poe    c3113980   2.911   4.306   6.666 -0.5022  0.1895  0.1682
 2966poe    c3113981   4.801   4.250   0.102  0.2842 -0.0325  0.1857
 2966poe     o213982   4.744   4.323   0.208 -0.2027  0.2153 -0.2453
 2966poe    c2313983   4.610   4.281   0.218 -0.0780 -0.0929  0.1194
 2966poe    c2313984   4.516   4.382   0.287 -0.3915 -0.0344 -0.3882
 2966poe     o213985   4.480   4.493   0.207  0.5853  0.3044 -0.3770
 2966poe    c2313986   4.444   4.605   0.285  0.7732  0.3280 -0.3240
 2966poe    c2313987   4.389   4.724   0.204  0.3008 -0.0411 -0.5512
 2966poe     o213988   4.252   4.699   0.187  0.2315 -0.0946  0.0468
 2966poe    c2313989   4.187   4.799   0.112 -0.0324  0.2607  0.7383
 2966poe    c2313990   4.035   4.777   0.097  0.0380  0.3761 -0.2028
 2966poe     o213991   4.025   4.639   0.069 -0.2020  0.3775 -0.1279
 2966poe    c3113992   3.891   4.600   0.051  0.0377 -0.4059 -0.2751
 2967poe    c3113993   5.653   1.214   0.065 -0.4262 -0.2373 -0.0697
 2967poe     o213994   5.679   1.078   0.038  0.1014 -0.1084 -0.2223
 2967poe    c2313995   5.727   1.044  -0.090  0.7438  0.2062 -0.0699
 2967poe    c2313996   5.666   0.918  -0.154  0.2065  0.4861 -0.1173
 2967poe     o213997   5.694   0.794  -0.092 -0.3015  0.5203  0.1938
 2967poe    c2313998   5.807   0.731  -0.149 -0.4518  0.0400  0.4256
 2967poe    c2313999   5.810   0.582  -0.111  0.8214  0.0028  0.2242
 2967poe     o214000   5.868   0.557   0.015  0.1972  0.3682  0.5867
 2967poe    c2314001   5.995   0.497   0.021  0.2294  0.2862 -0.6802
 2967poe    c2314002   6.118   0.561  -0.046  0.2639  0.1377 -0.7610
 2967poe     o214003   6.123   0.701  -0.025 -0.4386  0.0694 -0.0763
 2967poe    c3114004   6.153   0.756   0.102 -0.0963  0.1122 -0.1728
 2968poe    c3114005   2.313   2.846   1.897  0.4116  0.4498  0.6204
 2968poe     o214006   2.407   2.919   1.821 -0.0010 -0.3026 -0.6384
 2968poe    c2314007   2.505   2.974   1.905 -0.3520  0.3566 -0.6579
 2968poe    c2314008   2.613   3.054   1.829  0.1962  0.6301  0.3897
 2968poe     o214009   2.698   2.966   1.760 -0.1105  0.1455  0.6216
 2968poe    c2314010   2.812   3.030   1.708 -0.5397  0.3706 -0.0583
 2968poe    c2314011   2.898   2.920   1.642 -0.0701  0.6548  0.0748
 2968poe     o214012   2.820   2.843   1.554  0.5311  0.3261 -0.1792
 2968poe    c2314013   2.903   2.751   1.487 -0.1269 -0.7032  0.3932
 2968poe    c2314014   2.816   2.657   1.400  0.3081 -0.7672  0.0236
 2968poe     o214015   2.696   2.633   1.470 -0.3419  0.9259 -0.4577
 2968poe    c3114016   2.588   2.597   1.387  0.2700 -0.8078 -0.5506
 2969poe    c3114017   0.256   3.714   0.182  0.4880 -0.2194 -0.3100
 2969poe     o214018   0.240   3.814   0.085  0.0875 -0.0863 -0.1099
 2969poe    c2314019   0.357   3.820   0.005  0.6649 -0.2933  0.7020
 2969poe    c2314020   0.372   3.969  -0.030  0.6195 -0.5785 -0.5925
 2969poe     o214021   0.268   4.011  -0.115 -0.1709  0.0149  0.6346
 2969poe    c2314022   0.290   4.146  -0.152  0.3533 -0.0795  0.5873
 2969poe    c2314023   0.197   4.193  -0.266  0.2577 -0.3215  0.5627
 2969poe     o214024   0.065   4.175  -0.220  0.1036  0.0169  0.2610
 2969poe    c2314025  -0.019   4.181  -0.333  0.1596  0.6661  0.2495
 2969poe    c2314026  -0.117   4.063  -0.316  0.4733  0.4610  0.6554
 2969poe     o214027  -0.048   3.941  -0.301 -0.1479  0.0223 -0.0155
 2969poe    c3114028  -0.130   3.834  -0.341  0.1716 -0.5805  0.9120
 2970poe    c3114029   4.280   5.932   3.158  0.0524 -0.0594  0.4690
 2970poe     o214030   4.280   5.843   3.049  0.3173  0.4273  0.0668
 2970poe    c2314031   4.412   5.798   3.033  0.1541 -0.2174  0.5115
 2970poe    c2314032   4.450   5.721   2.906  0.0690  0.3892  0.1161
 2970poe     o214033   4.415   5.805   2.798  0.1410  0.4099  0.1086
 2970poe    c2314034   4.481   5.773   2.678 -0.4237 -0.4287  0.0063
 2970poe    c2314035   4.468   5.866   2.555 -0.5091 -0.0962  0.2665
 2970poe     o214036   4.552   5.979   2.560  0.2276 -0.6176 -0.1931
 2970poe    c2314037   4.517   6.074   2.461 -0.2798 -0.0726  0.4938
 2970poe    c2314038   4.610   6.196   2.452 -0.2200 -0.1058  0.6624
 2970poe     o214039   4.736   6.143   2.420 -0.2041  0.1669  0.2611
 2970poe    c3114040   4.839   6.238   2.433  0.3434 -0.3501 -0.2032
 2971poe    c3114041   4.948   4.782   2.188  0.3337 -0.0422  0.4515
 2971poe     o214042   4.978   4.905   2.248 -0.0350  0.1941  0.1617
 2971poe    c2314043   4.927   5.000   2.157  0.2839 -0.1597 -0.3870
 2971poe    c2314044   4.967   5.147   2.178  0.2089 -0.2454  0.3678
 2971poe     o214045   4.918   5.212   2.294  0.0670 -0.2830  0.3292
 2971poe    c2314046   5.007   5.318   2.323 -0.2320  0.0595  0.0139
 2971poe    c2314047   4.989   5.379   2.463 -0.1358  0.3434 -0.0953
 2971poe     o214048   5.034   5.298   2.569 -0.1038  0.2086 -0.2111
 2971poe    c2314049   5.031   5.364   2.694  0.4162  0.0437 -0.1074
 2971poe    c2314050   5.097   5.296   2.816  0.1098 -0.1675 -0.0561
 2971poe     o214051   5.005   5.203   2.868 -0.2886  0.3162  0.1078
 2971poe    c3114052   5.072   5.095   2.927 -0.1908  0.1522 -0.2989
 2972poe    c3114053   3.227   2.591   0.545  0.6870  0.1813 -0.6687
 2972poe     o214054   3.279   2.461   0.566  0.2585  0.1227  0.0926
 2972poe    c2314055   3.184   2.367   0.520  0.0226  0.4649 -0.1329
 2972poe    c2314056   3.249   2.230   0.493 -0.0686  0.3945  0.0036
 2972poe     o214057   3.325   2.187   0.604 -0.3090 -0.1427 -0.0351
 2972poe    c2314058   3.419   2.085   0.581  0.0037  0.0891  0.1968
 2972poe    c2314059   3.516   2.083   0.700  0.0678 -0.6296  0.1402
 2972poe     o214060   3.563   2.214   0.725 -0.7937 -0.3207  0.1463
 2972poe    c2314061   3.662   2.195   0.823 -0.4080 -0.4706 -0.2747
 2972poe    c2314062   3.722   2.337   0.836 -0.5095 -0.4856  0.4024
 2972poe     o214063   3.624   2.435   0.861 -0.6517 -0.3751 -0.5610
 2972poe    c3114064   3.673   2.564   0.831  0.2647 -0.4277  0.6579
 2973poe    c3114065   0.633   1.861   0.840 -0.0893 -0.0323 -0.5056
 2973poe     o214066   0.545   1.803   0.934 -0.2070  0.5871 -0.2272
 2973poe    c2314067   0.534   1.884   1.049  0.4467  0.1485  0.1501
 2973poe    c2314068   0.464   1.813   1.166  0.1423 -0.5465 -0.4494
 2973poe     o214069   0.345   1.775   1.100 -0.1350  0.0702 -0.3092
 2973poe    c2314070   0.275   1.672   1.167  0.1192  0.1796  0.1252
 2973poe    c2314071   0.142   1.643   1.096  0.1796  0.6545 -0.1773
 2973poe     o214072   0.185   1.611   0.965 -0.0731 -0.6232  0.0429
 2973poe    c2314073   0.074   1.603   0.878  0.1097  0.1929 -0.2710
 2973poe    c2314074   0.093   1.516   0.753 -0.3415  0.2417 -0.3752
 2973poe     o214075   0.209   1.553   0.681 -0.0901 -0.2017 -0.1992
 2973poe    c3114076   0.203   1.524   0.543  0.4424  0.4357 -0.3587
 2974poe    c3114077   5.455   7.067   4.299 -0.2489 -0.4831 -0.0426
 2974poe     o214078   5.552   7.076   4.402 -0.3153  0.4158 -0.0454
 2974poe    c2314079   5.495   7.036   4.524 -0.2897  0.2549 -0.0849
 2974poe    c2314080   5.578   7.104   4.634 -1.0978  0.1480  0.6035
 2974poe     o214081   5.553   7.243   4.639  0.4012  0.4390  0.4288
 2974poe    c2314082   5.600   7.303   4.757  0.3933 -0.2299  0.7792
 2974poe    c2314083   5.558   7.452   4.754  0.4066 -0.2347  0.1618
 2974poe     o214084   5.640   7.534   4.674 -0.1216  0.3226  0.1911
 2974poe    c2314085   5.583   7.657   4.635  0.0578  0.3812  0.1160
 2974poe    c2314086   5.665   7.738   4.532  0.0228  0.4514  0.1433
 2974poe     o214087   5.658   7.681   4.404  0.2028 -0.0090  0.3348
 2974poe    c3114088   5.789   7.701   4.355  0.0168 -0.2828 -0.2881
 2975poe    c3114089   3.547   0.548   1.956  0.0554 -0.3040 -0.0056
 2975poe     o214090   3.613   0.672   1.960 -0.3847 -0.0717  0.1104
 2975poe    c2314091   3.519   0.776   1.977 -0.3107  0.0931 -0.4765
 2975poe    c2314092   3.579   0.914   2.007  0.2571 -0.3583  0.4970
 2975poe     o214093   3.628   0.974   1.889 -0.6874 -0.2502  0.1522
 2975poe    c2314094   3.565   1.099   1.875  0.4187  0.3433  0.3612
 2975poe    c2314095   3.612   1.197   1.766  1.0235 -0.2808  0.0545
 2975poe     o214096   3.591   1.146   1.636 -0.0476 -0.2466  0.2105
 2975poe    c2314097   3.650   1.229   1.539  0.3449 -0.3032  0.3991
 2975poe    c2314098   3.631   1.161   1.402  0.3815  0.3379  0.0710
 2975poe     o214099   3.494   1.134   1.384  0.5971 -0.8725  0.1453
 2975poe    c3114100   3.479   1.101   1.247 -0.1639  0.5854 -0.1481
 2976poe    c3114101   4.787   1.823   5.456 -0.1304  0.0044 -0.1519
 2976poe     o214102   4.705   1.855   5.566 -0.2803 -0.6141 -0.0802
 2976poe    c2314103   4.574   1.893   5.528  0.0549  0.2506 -0.3907
 2976poe    c2314104   4.470   1.903   5.641  0.7132 -0.0950  0.2560
 2976poe     o214105   4.493   2.021   5.715 -0.8220  0.2913  0.1539
 2976poe    c2314106   4.433   2.047   5.840  0.0087  0.2873  0.5614
 2976poe    c2314107   4.472   2.183   5.901 -0.0600  0.6215 -0.1237
 2976poe     o214108   4.606   2.190   5.944 -0.0697 -0.0848  0.0422
 2976poe    c2314109   4.645   2.281   6.044  0.4394 -0.4064  0.1361
 2976poe    c2314110   4.625   2.430   6.009  0.3603 -0.6406 -0.8288
 2976poe     o214111   4.709   2.484   5.909  0.6963 -0.3671 -0.4051
 2976poe    c3114112   4.676   2.612   5.860  0.0021 -0.2145  0.4391
 2977poe    c3114113   2.289   0.689   2.914  0.1673 -0.2338  0.5940
 2977poe     o214114   2.323   0.675   2.778 -0.5189  0.0638  0.3878
 2977poe    c2314115   2.262   0.557   2.732  0.5237 -0.1617 -0.4320
 2977poe    c2314116   2.214   0.590   2.590  0.1090 -0.2474 -0.3121
 2977poe     o214117   2.318   0.654   2.519  0.2076 -0.1848 -0.1117
 2977poe    c2314118   2.288   0.673   2.382 -0.0285 -0.0019 -0.0338
 2977poe    c2314119   2.204   0.800   2.359 -0.2167 -0.1864 -0.3778
 2977poe     o214120   2.286   0.907   2.401 -0.3940 -0.1586 -0.0933
 2977poe    c2314121   2.225   1.033   2.382  0.1793  0.0310 -0.7604
 2977poe    c2314122   2.329   1.142   2.414  0.4323 -0.3767 -0.1699
 2977poe     o214123   2.357   1.142   2.552 -0.2724  0.1558 -0.0185
 2977poe    c3114124   2.320   1.265   2.610 -0.5014 -0.1250  0.4429
 2978poe    c3114125   1.781   1.167   6.401 -0.4862 -0.2862  0.4309
 2978poe     o214126   1.905   1.180   6.468 -0.3580  0.2538  0.0952
 2978poe    c2314127   1.986   1.066   6.452 -0.4165  0.2622 -0.2851
 2978poe    c2314128   1.985   0.967   6.570  0.0650 -0.1065 -0.5850
 2978poe     o214129   1.856   0.909   6.561  0.1943 -0.3759 -0.7152
 2978poe    c2314130   1.850   0.786   6.630  0.3738 -0.2502 -0.4713
 2978poe    c2314131   1.702   0.749   6.650  0.3857  0.0094  0.1206
 2978poe     o214132   1.619   0.812   6.745  0.1713  0.3243 -0.2710
 2978poe    c2314133   1.499   0.745   6.775  0.3401  0.1058 -0.0821
 2978poe    c2314134   1.407   0.835   6.861  0.4256  0.3787 -0.2764
 2978poe     o214135   1.368   0.950   6.790  0.3144  0.2330 -0.4547
 2978poe    c3114136   1.249   0.995   6.850  0.3806  0.0925 -0.2132
 2979poe    c3114137   0.056   0.026   4.746  0.5094  0.1958 -0.1342
 2979poe     o214138   0.096  -0.083   4.826  0.0293  0.2441  0.1741
 2979poe    c2314139  -0.004  -0.133   4.912  0.3443 -0.1845  0.2956
 2979poe    c2314140   0.026  -0.261   4.991  0.4635 -0.1544  0.3008
 2979poe     o214141   0.111  -0.253   5.103  0.9467  0.4785 -0.1089
 2979poe    c2314142   0.175  -0.374   5.134  0.2546  0.1364  0.0057
 2979poe    c2314143   0.329  -0.369   5.150  0.2827 -0.0382 -0.2142
 2979poe     o214144   0.393  -0.334   5.029  0.1702 -0.2516 -0.3371
 2979poe    c2314145   0.531  -0.352   5.051  0.0586 -0.3867  0.2609
 2979poe    c2314146   0.607  -0.351   4.917  0.0080  0.0285  0.2345
 2979poe     o214147   0.549  -0.453   4.839 -0.0404 -0.0069  0.3166
 2979poe    c3114148   0.635  -0.499   4.737 -0.0542 -0.0775  0.3366
 2980poe    c3114149   5.464   4.478   4.573 -0.2349 -0.5477 -0.4347
 2980poe     o214150   5.443   4.339   4.557 -0.1828 -0.5781 -0.2383
 2980poe    c2314151   5.344   4.313   4.654  0.1584 -0.5293  0.1217
 2980poe    c2314152   5.314   4.162   4.656  0.1835 -0.5322  0.2402
 2980poe     o214153   5.416   4.085   4.716 -0.1028 -0.4187  0.8800
 2980poe    c2314154   5.369   3.953   4.733 -0.2687 -0.5312 -0.3821
 2980poe    c2314155   5.460   3.857   4.812  0.3253  0.6064  0.3523
 2980poe     o214156   5.587   3.825   4.760 -0.0320  0.2135 -0.2919
 2980poe    c2314157   5.681   3.928   4.780 -0.3498  0.5202 -0.3715
 2980poe    c2314158   5.811   3.884   4.712 -0.2362  0.2199  0.0340
 2980poe     o214159   5.770   3.814   4.597  0.3976  0.1264 -0.1401
 2980poe    c3114160   5.873   3.793   4.502  0.1293  0.1252 -0.4328
 2981poe    c3114161   6.648   3.399   1.122  0.1173 -0.1504  0.3375
 2981poe     o214162   6.516   3.364   1.157 -0.0960  0.2130 -0.1047
 2981poe    c2314163   6.490   3.435   1.276  0.4083  0.2839 -0.0359
 2981poe    c2314164   6.349   3.493   1.253  0.2711  0.0307  0.1694
 2981poe     o214165   6.251   3.391   1.259 -0.2084  0.5000  0.4453
 2981poe    c2314166   6.131   3.457   1.227 -0.0434  0.9974  0.8400
 2981poe    c2314167   6.008   3.404   1.304 -0.2701  0.0989 -0.1194
 2981poe     o214168   6.002   3.263   1.294  0.4536  0.0384  0.2236
 2981poe    c2314169   5.928   3.203   1.397 -0.4195  0.2308 -0.2794
 2981poe    c2314170   5.930   3.050   1.388 -0.0793  0.1398  1.0357
 2981poe     o214171   6.055   2.993   1.354 -0.6476 -0.0685 -0.8519
 2981poe    c3114172   6.053   2.854   1.376 -0.5573  0.1670  0.8005
 2982poe    c3114173   5.073   3.781   6.371  0.2239 -0.4922 -0.6454
 2982poe     o214174   4.993   3.674   6.416  0.7623 -0.5353  0.2342
 2982poe    c2314175   4.955   3.595   6.306  0.1253 -0.7962  0.6352
 2982poe    c2314176   4.850   3.504   6.373 -0.6985 -0.6411 -0.4121
 2982poe     o214177   4.915   3.453   6.487 -0.0408  0.2600 -0.3696
 2982poe    c2314178   4.827   3.377   6.567  0.3851 -0.0135 -0.1584
 2982poe    c2314179   4.901   3.352   6.700  0.0805  0.1868  0.0498
 2982poe     o214180   4.986   3.455   6.746  0.7505 -0.4150  0.1672
 2982poe    c2314181   5.042   3.429   6.873 -0.0154 -0.6836  0.4522
 2982poe    c2314182   5.130   3.543   6.925 -0.2925 -0.2188 -0.0885
 2982poe     o214183   5.244   3.577   6.849  0.0816 -0.1492  0.4940
 2982poe    c3114184   5.320   3.690   6.887  0.0307 -0.0203  0.2130
 2983poe    c3114185   0.363   0.561   2.006  0.1141  0.8723  0.4169
 2983poe     o214186   0.367   0.429   2.056 -0.0843  0.9450  0.6234
 2983poe    c2314187   0.386   0.434   2.196 -0.2206  0.4086  0.6635
 2983poe    c2314188   0.427   0.299   2.259  0.1114  0.3504  0.3281
 2983poe     o214189   0.318   0.211   2.264  0.0322  0.4022 -0.3792
 2983poe    c2314190   0.359   0.087   2.317 -0.6036  0.4338  0.1948
 2983poe    c2314191   0.263   0.033   2.425  0.3302  0.1368  0.8914
 2983poe     o214192   0.132   0.039   2.373  0.5931 -0.5903  0.1072
 2983poe    c2314193   0.036   0.019   2.475  0.3789  0.0680  0.0435
 2983poe    c2314194  -0.092  -0.014   2.396  0.3076  0.1006  0.1465
 2983poe     o214195  -0.104   0.106   2.324  0.4823  0.3320  0.5008
 2983poe    c3114196  -0.229   0.123   2.262  0.2865 -0.6343  0.6272
 2984poe    c3114197   3.908   5.220   0.021  0.2457  0.1460 -0.0159
 2984poe     o214198   3.845   5.253  -0.100 -0.0337 -0.7052 -0.1116
 2984poe    c2314199   3.723   5.182  -0.102 -0.3061 -0.2598  0.5449
 2984poe    c2314200   3.632   5.230  -0.216  0.1827 -0.6168 -0.0029
 2984poe     o214201   3.656   5.189  -0.348  0.3003 -0.9782  0.1312
 2984poe    c2314202   3.542   5.180  -0.430 -0.0034 -0.0047  0.4331
 2984poe    c2314203   3.599   5.210  -0.570 -0.1534  0.4148  0.4630
 2984poe     o214204   3.708   5.122  -0.584 -0.3070  0.3453 -0.3637
 2984poe    c2314205   3.784   5.149  -0.698 -0.1102  0.4868 -0.1985
 2984poe    c2314206   3.913   5.066  -0.714 -0.2009  0.3280 -0.0945
 2984poe     o214207   3.952   5.037  -0.582  0.5436 -0.4803 -0.4814
 2984poe    c3114208   4.065   4.953  -0.581  0.7463 -0.2050  0.1472
 2985poe    c3114209   6.196   3.893   3.245  0.1580  0.2049  0.3646
 2985poe     o214210   6.195   3.757   3.205  0.9713  0.3271 -0.1005
 2985poe    c2314211   6.279   3.678   3.286 -0.1580 -0.3910  0.3895
 2985poe    c2314212   6.337   3.556   3.213  0.1592 -0.0300  0.0288
 2985poe     o214213   6.237   3.485   3.143  0.2832 -0.3093  0.1345
 2985poe    c2314214   6.289   3.410   3.035 -0.2188  0.7327 -0.8556
 2985poe    c2314215   6.188   3.362   2.930 -0.3587  0.0321 -0.4054
 2985poe     o214216   6.080   3.444   2.890 -0.1534  0.5426  0.0800
 2985poe    c2314217   5.979   3.370   2.825 -0.0337  0.3272  0.1368
 2985poe    c2314218   5.884   3.464   2.749 -0.3421  0.0006  0.1191
 2985poe     o214219   5.793   3.527   2.837 -0.3205  0.2999 -0.0731
 2985poe    c3114220   5.751   3.654   2.791  0.4992  0.4080 -0.5532
 2986poe    c3114221   6.949   5.941   6.672 -0.1423  0.8771  0.3133
 2986poe     o214222   7.051   6.024   6.723  0.4575  0.3758 -0.0637
 2986poe    c2314223   7.056   6.021   6.864  0.3874 -0.0384 -0.0695
 2986poe    c2314224   7.181   6.089   6.922  0.2265  0.4156 -0.2493
 2986poe     o214225   7.294   6.004   6.923 -0.0597  0.0395  0.1885
 2986poe    c2314226   7.370   6.027   7.039 -0.1801  0.1630  0.2436
 2986poe    c2314227   7.500   5.943   7.045 -0.1723  0.1192 -0.4568
 2986poe     o214228   7.607   5.958   6.955 -0.1771  0.0941 -0.4664
 2986poe    c2314229   7.622   5.838   6.883 -0.2067 -0.1617 -0.0432
 2986poe    c2314230   7.683   5.859   6.744 -0.5034 -0.1289 -0.1687
 2986poe     o214231   7.633   5.947   6.646  0.0282  0.2265 -0.1213
 2986poe    c3114232   7.670   5.918   6.513  0.6614 -0.5703  0.2201
 2987poe    c3114233   4.293   3.895   1.125 -0.1314 -0.3186  0.4566
 2987poe     o214234   4.430   3.925   1.115 -0.0937 -0.5983  0.0838
 2987poe    c2314235   4.456   4.002   1.000  0.0856 -0.1929  0.3904
 2987poe    c2314236   4.591   4.072   1.027 -0.0310  0.2100 -0.0577
 2987poe     o214237   4.691   3.974   1.044 -0.3950 -0.1357  0.1244
 2987poe    c2314238   4.816   4.020   1.091 -0.1461 -0.5441 -0.1403
 2987poe    c2314239   4.816   4.057   1.240 -0.2119  0.0030 -0.2736
 2987poe     o214240   4.829   3.943   1.322 -0.4662 -0.0501 -0.3076
 2987poe    c2314241   4.802   3.972   1.458 -0.2790 -0.1708 -0.2442
 2987poe    c2314242   4.740   3.857   1.540 -0.1123  0.1208  0.2959
 2987poe     o214243   4.607   3.823   1.509  0.0909  0.1233 -0.6356
 2987poe    c3114244   4.556   3.707   1.571  0.2656  0.5909  0.4088
 2988poe    c3114245   3.711   2.106   5.745 -0.1783 -0.1895 -0.5367
 2988poe     o214246   3.761   2.050   5.864  0.3291  0.1998 -0.5678
 2988poe    c2314247   3.881   2.124   5.881 -0.1141  0.8107 -0.0517
 2988poe    c2314248   3.971   2.068   5.993 -0.1312 -0.1295 -0.4985
 2988poe     o214249   3.975   1.927   5.988  0.0391 -0.1465  0.0422
 2988poe    c2314250   4.073   1.882   6.079 -0.1986 -0.4860  0.1321
 2988poe    c2314251   4.044   1.730   6.078 -0.2371 -0.4819 -0.6564
 2988poe     o214252   3.905   1.706   6.070 -0.3619 -0.1173  0.2562
 2988poe    c2314253   3.864   1.579   6.116 -0.4327  0.0883  0.7743
 2988poe    c2314254   3.720   1.542   6.076 -0.4269  0.3047  0.5514
 2988poe     o214255   3.690   1.522   5.939  0.1083  0.0707  0.4647
 2988poe    c3114256   3.556   1.484   5.916  0.0522  1.0783 -1.0003
 2989poe    c3114257   4.099   6.674   2.878  0.3725  0.7996 -0.1811
 2989poe     o214258   3.995   6.701   2.970 -0.0405 -0.3379 -0.2940
 2989poe    c2314259   3.879   6.740   2.900  0.0964  0.3089 -0.1715
 2989poe    c2314260   3.781   6.811   2.995 -0.1025  0.0986 -0.2191
 2989poe     o214261   3.736   6.747   3.112  0.2645  0.4121  0.0967
 2989poe    c2314262   3.648   6.841   3.171 -0.2930 -0.0302 -0.0217
 2989poe    c2314263   3.673   6.847   3.323  0.0782  0.2655 -0.0910
 2989poe     o214264   3.811   6.860   3.346  0.1998  0.0114 -0.6385
 2989poe    c2314265   3.827   6.941   3.460  0.6245 -0.5278 -0.3079
 2989poe    c2314266   3.979   6.941   3.486  0.4661  0.1436  0.7002
 2989poe     o214267   4.024   6.811   3.452 -0.4527 -0.0065  0.0180
 2989poe    c3114268   4.155   6.800   3.502 -0.4296 -0.6691 -0.1870
 2990poe    c3114269   3.691   0.750   1.138  0.1557 -0.8137 -0.4699
 2990poe     o214270   3.761   0.710   1.253 -0.1019 -0.1908 -0.0945
 2990poe    c2314271   3.694   0.598   1.307 -0.3689 -0.0714 -0.1807
 2990poe    c2314272   3.658   0.616   1.456 -0.0420  0.3260 -0.1466
 2990poe     o214273   3.776   0.583   1.526 -0.6057 -0.6353  0.3772
 2990poe    c2314274   3.747   0.586   1.664 -0.4006  0.3860  0.4065
 2990poe    c2314275   3.876   0.614   1.743 -0.0779 -0.3694  0.1495
 2990poe     o214276   3.905   0.752   1.739 -0.8724 -0.1896  0.5516
 2990poe    c2314277   3.957   0.794   1.863  0.2908 -0.0250  0.0214
 2990poe    c2314278   3.951   0.948   1.864 -0.4277 -0.0471 -0.1910
 2990poe     o214279   4.001   0.976   1.735  0.4557 -0.2979  0.0896
 2990poe    c3114280   4.010   1.114   1.708 -0.2250 -0.2823 -0.0723
 2991poe    c3114281   2.436   4.038   5.072  0.0226 -0.3951 -0.5566
 2991poe     o214282   2.563   4.061   5.131 -0.4425  0.2044  0.2376
 2991poe    c2314283   2.646   3.951   5.159 -0.1535  0.3900  0.1101
 2991poe    c2314284   2.787   4.000   5.197 -0.0047 -0.2431  0.3967
 2991poe     o214285   2.757   4.107   5.284 -0.0716 -0.3452  0.4989
 2991poe    c2314286   2.868   4.147   5.360  0.1559 -0.0152 -0.0049
 2991poe    c2314287   2.850   4.293   5.406  0.6194  0.2152 -0.5349
 2991poe     o214288   2.771   4.368   5.316 -0.1174 -0.2941 -0.3200
 2991poe    c2314289   2.778   4.503   5.354 -0.0602 -0.4376  0.1956
 2991poe    c2314290   2.755   4.590   5.229  0.0740 -0.0097  0.4665
 2991poe     o214291   2.628   4.577   5.171  0.3663 -0.4331 -0.0854
 2991poe    c3114292   2.597   4.677   5.076  0.1595 -0.3485  0.0690
 2992poe    c3114293   4.388   3.043   2.157  0.4334  0.1186  0.1530
 2992poe     o214294   4.505   2.981   2.108  0.5326 -0.2270  0.8237
 2992poe    c2314295   4.481   2.855   2.050  0.3422  0.3874 -0.4555
 2992poe    c2314296   4.588   2.822   1.944  0.5130 -0.4604 -0.0291
 2992poe     o214297   4.587   2.896   1.824  0.1319 -0.1884  0.1403
 2992poe    c2314298   4.705   2.877   1.749 -0.0196 -0.3399 -0.0612
 2992poe    c2314299   4.723   2.943   1.611 -0.0382 -0.1067  0.0476
 2992poe     o214300   4.711   3.083   1.605  0.2199 -0.0921 -0.1507
 2992poe    c2314301   4.763   3.131   1.484  0.4879 -0.3952 -0.1550
 2992poe    c2314302   4.844   3.259   1.514 -0.1712 -0.0671  0.2451
 2992poe     o214303   4.778   3.356   1.592 -0.2259  0.3153 -0.2731
 2992poe    c3114304   4.838   3.483   1.576  0.7256 -0.1153 -0.2227
 2993poe    c3114305   1.639   2.801   6.315 -0.1122  0.6158  0.1416
 2993poe     o214306   1.535   2.846   6.231 -0.1262 -0.0195 -0.1839
 2993poe    c2314307   1.468   2.736   6.172 -0.1468 -0.0733 -0.0594
 2993poe    c2314308   1.335   2.780   6.108  0.1647 -0.0609 -0.7005
 2993poe     o214309   1.363   2.851   5.989  0.1906  0.3202 -0.4683
 2993poe    c2314310   1.245   2.853   5.912 -0.0825 -0.5423 -0.0981
 2993poe    c2314311   1.279   2.837   5.762  0.0567 -0.5918 -0.0621
 2993poe     o214312   1.347   2.948   5.709 -0.2004 -0.4219 -0.0356
 2993poe    c2314313   1.380   2.916   5.576  0.1282  0.0371 -0.0665
 2993poe    c2314314   1.430   3.033   5.489 -0.4350  0.2452 -0.1156
 2993poe     o214315   1.566   3.052   5.521 -0.4927 -0.0351  0.3111
 2993poe    c3114316   1.589   3.189   5.493  0.3644 -0.1696  0.3053
 2994poe    c3114317   3.292   0.983   5.940  0.0713 -1.3098 -0.1238
 2994poe     o214318   3.424   1.029   5.921 -0.3250 -0.2688 -0.4120
 2994poe    c2314319   3.441   1.050   5.783 -0.5585 -0.0701 -0.4114
 2994poe    c2314320   3.589   1.052   5.740 -0.5407 -0.3054 -0.3620
 2994poe     o214321   3.655   1.162   5.799 -0.2710 -0.6348 -0.0471
 2994poe    c2314322   3.789   1.183   5.762 -0.4071  0.6547  0.1389
 2994poe    c2314323   3.888   1.130   5.868 -0.4568 -0.1209 -0.1956
 2994poe     o214324   3.904   1.212   5.981 -0.8524 -0.4675  0.1131
 2994poe    c2314325   4.032   1.184   6.031 -0.5466 -0.2189 -0.5217
 2994poe    c2314326   4.095   1.281   6.134 -0.3378 -0.2162 -0.6507
 2994poe     o214327   4.045   1.251   6.262 -0.0947  0.6416 -0.3468
 2994poe    c3114328   4.123   1.310   6.363 -0.0033  0.4841 -0.3254
 2995poe    c3114329   5.716   5.287   6.618 -0.1156  0.6767 -0.7059
 2995poe     o214330   5.812   5.285   6.721 -0.4755 -0.0769 -0.3698
 2995poe    c2314331   5.934   5.234   6.670 -0.4957 -0.2668 -0.2265
 2995poe    c2314332   6.052   5.243   6.768 -0.2848  0.8146 -0.5656
 2995poe     o214333   6.021   5.180   6.891  0.4857  1.0232 -0.2611
 2995poe    c2314334   6.132   5.156   6.975  0.1482 -0.2792 -0.1745
 2995poe    c2314335   6.106   5.062   7.094  0.1475 -0.5569 -0.3928
 2995poe     o214336   6.004   5.126   7.167  0.5325 -0.1773 -0.1823
 2995poe    c2314337   5.950   5.038   7.264  0.4844  0.3822  0.3078
 2995poe    c2314338   5.852   5.117   7.352 -0.6182 -0.1362 -0.4183
 2995poe     o214339   5.775   5.193   7.262  0.1169  0.2707 -0.7135
 2995poe    c3114340   5.665   5.255   7.326  0.2648  0.2325 -0.4215
 2996poe    c3114341   1.968   5.755   7.232 -0.3219 -0.6640 -0.1637
 2996poe     o214342   2.014   5.652   7.147  0.2697 -0.2224 -0.3850
 2996poe    c2314343   1.969   5.684   7.017 -0.0713  0.0760 -0.1984
 2996poe    c2314344   1.996   5.573   6.914 -0.0100 -0.2795  0.1953
 2996poe     o214345   1.913   5.462   6.889 -0.2991 -0.0026 -0.0807
 2996poe    c2314346   1.973   5.398   6.779 -1.0117  0.2258 -0.6090
 2996poe    c2314347   1.889   5.278   6.731 -0.1855 -0.5555 -0.1366
 2996poe     o214348   1.892   5.185   6.836 -0.2429 -0.2544  0.1323
 2996poe    c2314349   1.789   5.091   6.815 -0.1569 -0.3201  0.0042
 2996poe    c2314350   1.797   4.984   6.925 -0.7664 -0.0672  0.3057
 2996poe     o214351   1.785   5.035   7.056  0.0692  0.3808  0.2149
 2996poe    c3114352   1.767   4.926   7.144 -0.2089  0.6780  0.5224
 2997poe    c3114353   1.548   6.034   3.553  0.0045  0.0981 -0.2261
 2997poe     o214354   1.501   5.912   3.501  0.3717 -0.4347  0.6578
 2997poe    c2314355   1.599   5.846   3.424 -0.0141 -0.3698  0.1034
 2997poe    c2314356   1.525   5.736   3.345  0.3376 -0.3068 -0.3190
 2997poe     o214357   1.476   5.632   3.427 -0.0183 -0.0444 -0.1933
 2997poe    c2314358   1.410   5.528   3.359  0.4547 -0.1137 -0.5536
 2997poe    c2314359   1.375   5.406   3.446 -0.2788  0.5936  0.1615
 2997poe     o214360   1.327   5.457   3.568 -0.2118  0.1393  0.3829
 2997poe    c2314361   1.297   5.360   3.666 -1.1752 -0.1412 -0.1753
 2997poe    c2314362   1.263   5.432   3.798  0.3225  0.1783  0.0527
 2997poe     o214363   1.357   5.535   3.814  0.5169  0.0523 -0.2624
 2997poe    c3114364   1.354   5.595   3.942 -0.8854  0.5371 -0.5060
 2998poe    c3114365   1.409   6.842   2.675  0.8962 -0.2757  0.5154
 2998poe     o214366   1.479   6.940   2.602  0.4899 -0.0722  0.4005
 2998poe    c2314367   1.537   6.893   2.483 -0.3370 -0.1661  0.0242
 2998poe    c2314368   1.561   7.017   2.396  0.4462 -0.0234  0.4343
 2998poe     o214369   1.618   7.108   2.488  0.2645  0.1374  0.3886
 2998poe    c2314370   1.611   7.238   2.436  0.0392  0.0096  0.0955
 2998poe    c2314371   1.645   7.347   2.540 -0.0939  0.2789 -0.1415
 2998poe     o214372   1.607   7.333   2.675 -0.3311  0.5734 -0.1759
 2998poe    c2314373   1.591   7.455   2.744 -1.0141  0.3138  0.1260
 2998poe    c2314374   1.559   7.432   2.893 -0.2402 -0.3157  0.2013
 2998poe     o214375   1.437   7.365   2.910 -0.4813  0.1401  0.2983
 2998poe    c3114376   1.379   7.406   3.031  0.1218  0.5020  0.4673
 2999poe    c3114377   1.435   4.902   3.424  0.0771 -0.2602 -0.6084
 2999poe     o214378   1.459   4.953   3.295 -0.3495 -0.2936 -0.7013
 2999poe    c2314379   1.338   4.983   3.229 -0.9016 -0.0034  0.4222
 2999poe    c2314380   1.361   5.035   3.086 -0.5162 -0.3077  0.3720
 2999poe     o214381   1.405   4.934   2.999  0.2655  0.0746  0.3099
 2999poe    c2314382   1.412   4.991   2.871  0.5142 -0.3297  0.1396
 2999poe    c2314383   1.458   4.899   2.757  0.0937 -0.0337 -0.2754
 2999poe     o214384   1.548   4.961   2.667  0.1340  0.0235 -0.1957
 2999poe    c2314385   1.572   4.890   2.548 -0.3165 -0.3276 -0.0806
 2999poe    c2314386   1.688   4.965   2.480 -0.3810  0.3750  0.5737
 2999poe     o214387   1.628   5.080   2.425 -0.3978  0.2294  0.2855
 2999poe    c3114388   1.631   5.193   2.509 -0.1420  0.6263 -0.2525
 3000poe    c3114389   7.108   1.932   6.847 -0.0210  0.2215 -0.5540
 3000poe     o214390   7.052   1.952   6.974 -0.1680  0.2388 -0.6203
 3000poe    c2314391   6.961   2.057   6.952 -0.4580 -0.0435 -0.7567
 3000poe    c2314392   6.881   2.100   7.077  0.8049 -0.7744  0.3266
 3000poe     o214393   6.960   2.185   7.157 -0.4569  1.1830 -0.4297
 3000poe    c2314394   6.893   2.225   7.275 -0.3484  0.7944 -0.2342
 3000poe    c2314395   6.976   2.317   7.366  0.5160  0.0774 -0.2796
 3000poe     o214396   6.988   2.448   7.316 -0.0603  0.4299  0.4896
 3000poe    c2314397   6.870   2.511   7.270 -0.1251 -0.0855 -0.0501
 3000poe    c2314398   6.878   2.589   7.138  0.0543 -0.2594 -0.1435
 3000poe     o214399   6.973   2.693   7.150 -0.2131 -0.0084 -0.1801
 3000poe    c3114400   6.982   2.764   7.029 -0.1216  0.2314 -0.0337
 3001poe    c3114401   3.657   2.452   3.433  0.2069 -0.3116 -0.7647
 3001poe     o214402   3.646   2.542   3.541 -0.2263 -0.0578 -1.0163
 3001poe    c2314403   3.746   2.641   3.528 -0.3489  0.2213  0.0773
 3001poe    c2314404   3.693   2.771   3.591 -0.0121  0.1281  0.5613
 3001poe     o214405   3.704   2.771   3.731  0.2849 -0.4793  0.5407
 3001poe    c2314406   3.651   2.882   3.800 -0.0104 -0.0044 -0.4482
 3001poe    c2314407   3.725   3.017   3.795  0.1105 -0.0434  0.2451
 3001poe     o214408   3.856   2.980   3.834 -0.0998 -1.0773 -0.0061
 3001poe    c2314409   3.930   3.098   3.859 -0.7648 -0.6066 -0.2173
 3001poe    c2314410   4.072   3.072   3.911 -0.7700  0.4157  0.3195
 3001poe     o214411   4.080   2.975   4.014  0.2638 -0.5010 -0.5936
 3001poe    c3114412   4.212   2.972   4.062  0.2044  0.2871 -0.3582
 3002poe    c3114413   3.708   0.448   2.959  0.2712 -0.0992 -0.0935
 3002poe     o214414   3.591   0.519   2.920 -0.1136 -0.4350  0.4399
 3002poe    c2314415   3.502   0.429   2.857 -0.2143 -0.5187  0.6972
 3002poe    c2314416   3.374   0.513   2.846  0.2096  0.0959  0.3335
 3002poe     o214417   3.346   0.569   2.973 -0.3936 -0.3511  0.4043
 3002poe    c2314418   3.210   0.601   2.990 -0.4354 -0.1072 -0.3490
 3002poe    c2314419   3.181   0.654   3.131 -0.1059 -0.2527 -0.2246
 3002poe     o214420   3.256   0.764   3.177 -0.2993 -0.1194 -0.2259
 3002poe    c2314421   3.235   0.775   3.316  0.0615  0.9524 -0.2466
 3002poe    c2314422   3.341   0.871   3.372  0.5410 -0.0478  0.6098
 3002poe     o214423   3.466   0.806   3.371  0.3352 -0.4398  0.5926
 3002poe    c3114424   3.576   0.889   3.401 -0.1077  0.4382 -0.1715
 3003poe    c3114425   5.676   0.500   5.693 -0.3979 -0.0539 -0.4305
 3003poe     o214426   5.709   0.382   5.762 -0.1388  0.5268  0.4463
 3003poe    c2314427   5.820   0.306   5.719 -0.9088 -0.3717  0.0077
 3003poe    c2314428   5.792   0.157   5.746  0.0961 -0.5671  0.0152
 3003poe     o214429   5.759   0.150   5.883 -0.1132  0.0829  0.0022
 3003poe    c2314430   5.733   0.016   5.916  0.2480  0.0769  0.2661
 3003poe    c2314431   5.719   0.004   6.069 -0.2364 -0.2967  0.1959
 3003poe     o214432   5.621   0.097   6.108  0.1102  0.1509 -0.0013
 3003poe    c2314433   5.603   0.087   6.248  0.3227 -0.4518 -0.0148
 3003poe    c2314434   5.453   0.120   6.262  0.2438 -0.8202  0.0263
 3003poe     o214435   5.406   0.245   6.217 -0.0827 -0.8352  0.3229
 3003poe    c3114436   5.268   0.273   6.221  0.1116  0.3726 -0.6534
 3004poe    c3114437   2.102   4.939   0.314 -0.5794 -0.4454  0.5182
 3004poe     o214438   2.062   4.934   0.179 -0.1698  0.1001  0.3726
 3004poe    c2314439   2.122   4.817   0.127  0.2511  0.2992  0.4089
 3004poe    c2314440   2.073   4.800  -0.018  0.0411  0.3070  0.4788
 3004poe     o214441   2.182   4.835  -0.101  0.0311 -0.9833 -0.0938
 3004poe    c2314442   2.126   4.840  -0.230 -0.1704  0.0204  0.0282
 3004poe    c2314443   2.233   4.814  -0.337 -0.0841 -0.1684  0.1601
 3004poe     o214444   2.318   4.704  -0.310  0.7010  0.5023  0.4572
 3004poe    c2314445   2.399   4.667  -0.419  0.2488  0.8277  0.0063
 3004poe    c2314446   2.506   4.563  -0.383 -0.0510  0.2519 -0.7307
 3004poe     o214447   2.577   4.619  -0.275 -0.1769  0.1656 -0.6028
 3004poe    c3114448   2.694   4.547  -0.243  0.1054  0.9183  0.0956
 3005poe    c3114449   5.589   1.393   1.762 -0.5990 -0.5361 -0.0809
 3005poe     o214450   5.704   1.339   1.700  0.0854  0.1417  0.5654
 3005poe    c2314451   5.692   1.344   1.560  0.7310 -0.1495  0.4979
 3005poe    c2314452   5.770   1.456   1.489 -0.2376  0.1805 -0.0599
 3005poe     o214453   5.911   1.451   1.491 -0.2336  0.3450  0.0337
 3005poe    c2314454   5.975   1.558   1.425  0.7863 -0.2067  0.1000
 3005poe    c2314455   6.125   1.528   1.422  0.8752  0.2575 -0.4711
 3005poe     o214456   6.172   1.523   1.555 -0.2817 -0.2535 -0.0676
 3005poe    c2314457   6.313   1.534   1.550 -0.2953  0.1448  0.2862
 3005poe    c2314458   6.388   1.564   1.681 -0.0462  0.1217  0.1497
 3005poe     o214459   6.412   1.459   1.772  0.0568  0.1984  0.2108
 3005poe    c3114460   6.412   1.509   1.904  0.0225  0.2686  0.1840
 3006poe    c3114461   5.276   4.535   5.077  0.7882  0.3306 -0.2669
 3006poe     o214462   5.192   4.624   5.007  0.0161  0.0375  0.2682
 3006poe    c2314463   5.182   4.750   5.068  0.3983 -0.0396  0.4951
 3006poe    c2314464   5.113   4.868   4.996  0.4641  0.0081  0.5106
 3006poe     o214465   4.979   4.844   4.959  0.6495 -0.0312 -0.1373
 3006poe    c2314466   4.921   4.965   4.915 -0.1880 -0.4582 -0.2216
 3006poe    c2314467   4.770   4.975   4.890 -0.2152 -0.7848 -0.1924
 3006poe     o214468   4.697   4.947   5.008  0.0182 -0.1084  0.1167
 3006poe    c2314469   4.574   5.015   4.995 -0.0580 -0.2047  0.3408
 3006poe    c2314470   4.494   5.039   5.125 -0.2289 -0.0467  0.2071
 3006poe     o214471   4.446   4.927   5.196 -0.2256  0.1304  0.4911
 3006poe    c3114472   4.305   4.937   5.200 -0.2214  0.4074  0.0456
 3007poe    c3114473   0.947   5.127   4.535  0.4346 -0.1673 -1.0450
 3007poe     o214474   0.829   5.163   4.467 -0.0437  0.2785 -0.0047
 3007poe    c2314475   0.843   5.116   4.335 -0.1091  0.1600  0.0300
 3007poe    c2314476   0.713   5.135   4.255 -0.0633 -1.0631 -0.3626
 3007poe     o214477   0.606   5.063   4.313 -0.2021 -0.1343  0.5653
 3007poe    c2314478   0.494   5.072   4.228 -0.0722  0.2273  0.4264
 3007poe    c2314479   0.373   5.011   4.301 -0.1914  0.4516  0.4138
 3007poe     o214480   0.342   5.077   4.422 -0.7238  0.5383  0.2354
 3007poe    c2314481   0.237   5.007   4.485 -0.4132 -0.0656  0.0900
 3007poe    c2314482   0.231   5.067   4.626 -0.5815 -0.1990  0.1406
 3007poe     o214483   0.354   5.056   4.695 -0.3046  1.0162 -0.1267
 3007poe    c3114484   0.356   5.128   4.816  0.0682 -0.3042  0.6743
 3008poe    c3114485   1.828   6.069   6.986  0.0104 -0.0520 -0.5140
 3008poe     o214486   1.955   6.122   6.959 -0.0183  0.0073 -0.5328
 3008poe    c2314487   1.993   6.109   6.824  0.4630  0.2699 -0.4284
 3008poe    c2314488   2.111   6.198   6.782  0.4590  0.3475 -0.2738
 3008poe     o214489   2.076   6.334   6.796 -1.0959 -0.0424 -0.2203
 3008poe    c2314490   2.151   6.433   6.729 -0.5008  0.2789  0.8833
 3008poe    c2314491   2.271   6.479   6.813  0.2311 -0.4059  0.2350
 3008poe     o214492   2.228   6.550   6.927  0.5912  0.2103 -0.0055
 3008poe    c2314493   2.323   6.585   7.026  0.4536 -0.1939  0.2744
 3008poe    c2314494   2.239   6.682   7.111  0.0872 -0.1615 -0.1229
 3008poe     o214495   2.119   6.617   7.148  0.1222 -0.0730  0.1495
 3008poe    c3114496   2.063   6.653   7.272 -0.2547 -0.1500  0.0023
 3009poe    c3114497   2.188   0.914   3.899 -0.4378 -0.0483  0.3348
 3009poe     o214498   2.267   1.010   3.965  0.1605 -0.0992 -0.2913
 3009poe    c2314499   2.296   1.110   3.870  0.2229  0.4098  0.2543
 3009poe    c2314500   2.316   1.249   3.934 -0.3026  0.4141  0.4115
 3009poe     o214501   2.409   1.242   4.039  0.0526  0.3020  0.0915
 3009poe    c2314502   2.440   1.367   4.096  0.5475  0.1517  0.1560
 3009poe    c2314503   2.489   1.349   4.241  0.0717 -0.1549  0.2824
 3009poe     o214504   2.396   1.304   4.337 -0.2577 -0.1009 -0.0118
 3009poe    c2314505   2.432   1.354   4.464 -0.6189 -0.2275  0.1408
 3009poe    c2314506   2.316   1.440   4.519 -0.2183  0.0614  0.5348
 3009poe     o214507   2.222   1.352   4.575 -0.0973 -0.1108  0.4663
 3009poe    c3114508   2.105   1.428   4.588 -0.1507 -0.1179  0.0259
 3010poe    c3114509   1.340   2.619   4.680 -0.3242 -0.1246 -0.2892
 3010poe     o214510   1.318   2.757   4.659 -0.3553 -0.1568 -0.4691
 3010poe    c2314511   1.324   2.812   4.789  0.8301  0.6533 -0.8531
 3010poe    c2314512   1.300   2.964   4.783 -0.0207  0.5605  0.0666
 3010poe     o214513   1.418   3.030   4.744  0.1501  0.0522 -0.2886
 3010poe    c2314514   1.411   3.170   4.755  0.5773  0.0620 -0.1169
 3010poe    c2314515   1.533   3.229   4.681  0.2849  0.6693 -0.1206
 3010poe     o214516   1.547   3.152   4.564  0.4536  0.2880  0.1476
 3010poe    c2314517   1.663   3.210   4.508 -0.1346  0.8914 -0.4693
 3010poe    c2314518   1.681   3.168   4.361  0.7477  0.3187 -0.2041
 3010poe     o214519   1.706   3.030   4.357 -0.1824  0.1453 -0.1676
 3010poe    c3114520   1.766   3.002   4.232  0.1708  0.0302  0.0273
 3011poe    c3114521   3.172   6.326   3.852 -0.5442  0.4129 -0.5359
 3011poe     o214522   3.083   6.228   3.900 -0.0775  0.3458  0.2070
 3011poe    c2314523   3.146   6.163   4.009 -0.2246 -0.4137 -0.1542
 3011poe    c2314524   3.212   6.028   3.975  0.4359 -0.1247 -0.0344
 3011poe     o214525   3.114   5.943   3.920  0.3675  0.0422 -0.1749
 3011poe    c2314526   3.185   5.869   3.823 -0.3398  0.3155 -0.9109
 3011poe    c2314527   3.102   5.749   3.775 -0.8048  0.1602  0.2351
 3011poe     o214528   2.968   5.792   3.765 -0.6691  0.5942  0.2691
 3011poe    c2314529   2.890   5.676   3.785  0.2568  0.0555  0.8504
 3011poe    c2314530   2.748   5.723   3.821 -0.2096 -0.6204 -0.0495
 3011poe     o214531   2.746   5.818   3.926  0.1410 -0.2859 -0.3434
 3011poe    c3114532   2.611   5.849   3.951  0.3541  0.7860 -0.4967
 3012poe    c3114533   1.419   5.545   1.443 -0.1066 -0.3341  0.1921
 3012poe     o214534   1.332   5.563   1.334  0.2236 -0.4156 -0.0908
 3012poe    c2314535   1.203   5.520   1.371 -0.1279  0.6363 -0.0409
 3012poe    c2314536   1.118   5.606   1.466 -0.0879  0.0621  0.5261
 3012poe     o214537   1.062   5.729   1.425  0.1132  0.0606  0.2412
 3012poe    c2314538   1.161   5.828   1.414  0.0524  0.0727 -0.2111
 3012poe    c2314539   1.110   5.965   1.366 -0.0583  0.0179 -0.2500
 3012poe     o214540   1.052   5.941   1.240 -0.1809 -0.2405 -0.1449
 3012poe    c2314541   0.997   6.061   1.193 -0.1834 -0.2568 -0.1832
 3012poe    c2314542   0.974   6.051   1.041  0.9618  0.1671 -0.3926
 3012poe     o214543   0.904   5.934   1.007  0.0828  0.6154 -0.1481
 3012poe    c3114544   0.869   5.923   0.870  0.3738  0.0536 -0.1779
 3013poe    c3114545   1.304   0.980   5.686 -0.3031 -0.4057 -0.5948
 3013poe     o214546   1.432   1.014   5.637 -0.3286  0.6454  0.0268
 3013poe    c2314547   1.515   0.909   5.591 -0.5216  0.2583  0.5548
 3013poe    c2314548   1.665   0.941   5.592 -0.6489  0.8948  0.0007
 3013poe     o214549   1.702   0.948   5.728 -0.2107 -0.1609 -0.0497
 3013poe    c2314550   1.801   1.047   5.746 -0.1885 -0.2970  0.6231
 3013poe    c2314551   1.791   1.114   5.884  0.3154  0.4477  0.3072
 3013poe     o214552   1.676   1.192   5.909  0.0315  0.0810  0.1643
 3013poe    c2314553   1.683   1.244   6.040 -0.0091  0.3703  0.0507
 3013poe    c2314554   1.566   1.337   6.078 -0.3784  0.1128 -0.4495
 3013poe     o214555   1.577   1.471   6.034  0.2850  0.3040  0.2673
 3013poe    c3114556   1.470   1.546   6.086  0.2930  0.4439  0.0828
 3014poe    c3114557   6.599   5.761   5.954 -0.4851  0.2772  0.5402
 3014poe     o214558   6.671   5.869   5.900  0.1990 -0.5160 -0.1629
 3014poe    c2314559   6.607   5.934   5.792  0.3615  0.0529  0.0787
 3014poe    c2314560   6.680   6.061   5.747  0.2333  0.2820  0.5023
 3014poe     o214561   6.801   6.043   5.675  0.0896  0.4666  0.2117
 3014poe    c2314562   6.849   6.172   5.649  0.7466  0.1699 -0.0562
 3014poe    c2314563   6.981   6.161   5.570  0.5202  0.3250 -0.4586
 3014poe     o214564   7.087   6.134   5.658 -0.5974 -0.4038  0.6964
 3014poe    c2314565   7.191   6.077   5.581 -0.3940  0.0870  0.6036
 3014poe    c2314566   7.332   6.094   5.641 -0.1948 -0.2697  0.2445
 3014poe     o214567   7.368   6.026   5.759  0.5264 -0.0208  0.1749
 3014poe    c3114568   7.498   6.076   5.776  0.8519 -0.8083  0.0562
 3015poe    c3114569   0.387   4.128   4.193 -0.4022 -0.1625  1.1785
 3015poe     o214570   0.523   4.167   4.192 -0.5524  0.3422  0.2041
 3015poe    c2314571   0.544   4.304   4.217 -0.4957  0.3703  0.0081
 3015poe    c2314572   0.672   4.319   4.301 -0.3420 -0.6303 -0.0430
 3015poe     o214573   0.786   4.237   4.287  0.1038 -0.0552  0.1967
 3015poe    c2314574   0.868   4.295   4.188  0.2251  0.1525  0.4175
 3015poe    c2314575   1.007   4.230   4.170  0.0825 -0.0932  0.1913
 3015poe     o214576   0.999   4.091   4.149  0.3761 -0.0362 -0.3248
 3015poe    c2314577   1.115   4.012   4.135  0.1297 -0.3520 -0.5963
 3015poe    c2314578   1.077   3.881   4.064 -0.1130 -0.2624 -0.6351
 3015poe     o214579   0.963   3.829   4.127  0.1460  0.0267  0.0837
 3015poe    c3114580   0.935   3.702   4.071  0.7961 -0.0342 -0.1149
 3016poe    c3114581   2.393   5.388   3.731 -0.3377  0.0024  0.1240
 3016poe     o214582   2.299   5.346   3.828 -0.2543  0.1517  0.2692
 3016poe    c2314583   2.165   5.343   3.785 -0.2394  0.9652  0.1548
 3016poe    c2314584   2.093   5.263   3.894  0.0617  0.2787 -0.1453
 3016poe     o214585   2.158   5.294   4.015  0.1770 -0.4844 -0.0036
 3016poe    c2314586   2.108   5.199   4.106 -0.2830 -0.0979  0.1525
 3016poe    c2314587   2.156   5.203   4.252 -0.1781 -0.4055  0.1280
 3016poe     o214588   2.293   5.169   4.256 -0.2244 -0.5884  0.1919
 3016poe    c2314589   2.350   5.175   4.385 -0.0330 -0.4272  0.1012
 3016poe    c2314590   2.503   5.168   4.399 -0.0633 -0.1094  0.5807
 3016poe     o214591   2.576   5.257   4.318 -0.2308  0.1484  0.7093
 3016poe    c3114592   2.694   5.300   4.383 -0.0006  0.3865  0.1418
 3017poe    c3114593   3.436   3.067   5.115 -0.3419  0.9584 -0.1552
 3017poe     o214594   3.486   3.055   4.984  0.2125 -0.0449  0.1342
 3017poe    c2314595   3.626   3.060   4.992  0.1890  0.3232  0.3442
 3017poe    c2314596   3.684   3.047   4.850 -0.2158 -0.0440  0.2112
 3017poe     o214597   3.652   2.918   4.804 -0.5001 -0.1105  0.5921
 3017poe    c2314598   3.685   2.885   4.671  0.1733  0.0271  0.7187
 3017poe    c2314599   3.632   2.744   4.637 -0.1044  0.4343 -0.5945
 3017poe     o214600   3.492   2.727   4.639 -0.0314 -0.1588  0.3226
 3017poe    c2314601   3.458   2.611   4.566 -0.3919 -0.0756  0.3586
 3017poe    c2314602   3.307   2.584   4.550 -0.4151  0.0105  0.4311
 3017poe     o214603   3.257   2.674   4.454 -0.0121  0.0312  0.2370
 3017poe    c3114604   3.125   2.711   4.487 -0.3022 -0.6610 -0.1196
 3018poe    c3114605   6.212   0.339   4.409  0.2858 -0.6544  0.9156
 3018poe     o214606   6.334   0.409   4.410  0.1118 -0.3298  0.2842
 3018poe    c2314607   6.397   0.402   4.284  0.1634 -0.0831  0.2957
 3018poe    c2314608   6.529   0.481   4.283 -0.1164  0.3847 -0.1777
 3018poe     o214609   6.497   0.617   4.301 -0.1416  0.3999 -0.3363
 3018poe    c2314610   6.610   0.698   4.323  0.1115 -0.0177 -0.0937
 3018poe    c2314611   6.593   0.851   4.326  0.4249  0.0190 -0.1365
 3018poe     o214612   6.506   0.873   4.435  0.5915  0.4345 -0.0866
 3018poe    c2314613   6.450   1.002   4.427  0.0851  0.1875 -0.6096
 3018poe    c2314614   6.316   1.014   4.503  0.5756  1.4917  0.0932
 3018poe     o214615   6.238   1.123   4.460 -0.4489  0.5710 -0.4488
 3018poe    c3114616   6.126   1.109   4.545  0.0751  0.0491  0.1675
 3019poe    c3114617   7.129   5.792   0.548 -0.0460  0.2632 -0.2887
 3019poe     o214618   7.118   5.748   0.414 -0.3282 -0.2138 -0.1101
 3019poe    c2314619   7.120   5.608   0.399 -0.1001 -0.2965  0.6253
 3019poe    c2314620   7.162   5.567   0.257 -0.4157 -0.2570  0.5188
 3019poe     o214621   7.084   5.627   0.156  0.4304 -0.0554 -0.0301
 3019poe    c2314622   7.125   5.584   0.028 -0.2580 -0.2468 -0.1899
 3019poe    c2314623   7.051   5.675  -0.072 -0.4327 -0.2663 -0.0807
 3019poe     o214624   6.927   5.714  -0.019  0.2202  0.6766  0.7814
 3019poe    c2314625   6.884   5.801  -0.121  0.1097 -0.0655  0.1938
 3019poe    c2314626   6.755   5.878  -0.084 -0.1183 -0.3651  0.0301
 3019poe     o214627   6.774   5.977   0.015  0.0581  0.1164 -0.4805
 3019poe    c3114628   6.655   6.031   0.066  0.2898  0.0993  0.0832
 3020poe    c3114629   5.710   7.177   2.714  0.2556  0.6316 -0.0375
 3020poe     o214630   5.648   7.266   2.624 -0.0199  0.1080 -0.3618
 3020poe    c2314631   5.745   7.326   2.541  0.2938  0.2334  0.0955
 3020poe    c2314632   5.694   7.315   2.396  0.2233  0.3718  0.1095
 3020poe     o214633   5.579   7.392   2.369 -0.1233 -0.1156  0.1806
 3020poe    c2314634   5.533   7.407   2.236  0.2135 -0.5774  0.0090
 3020poe    c2314635   5.393   7.347   2.217 -0.0041 -0.0478 -0.0785
 3020poe     o214636   5.395   7.207   2.235  0.0516 -0.0331  0.0247
 3020poe    c2314637   5.289   7.148   2.306 -0.2535 -0.5205 -0.8245
 3020poe    c2314638   5.314   7.004   2.355 -0.9952 -0.2939  0.2693
 3020poe     o214639   5.317   6.909   2.250  0.2551 -0.0106  0.0326
 3020poe    c3114640   5.391   6.805   2.308 -0.2345 -0.0946  0.5129
 3021poe    c3114641   4.275   0.970   0.708 -0.2780 -0.4747 -0.0355
 3021poe     o214642   4.383   0.881   0.718  0.0338 -0.0889  0.0398
 3021poe    c2314643   4.429   0.841   0.591  0.3307  0.0732  0.0954
 3021poe    c2314644   4.535   0.731   0.611 -0.0600 -0.2707  0.2663
 3021poe     o214645   4.614   0.791   0.711  0.2844  0.1443 -0.2574
 3021poe    c2314646   4.739   0.725   0.718  0.2631  0.0813 -0.4542
 3021poe    c2314647   4.855   0.825   0.703  0.0487  0.4993  0.5627
 3021poe     o214648   4.850   0.916   0.595 -0.0450 -0.2819 -0.0969
 3021poe    c2314649   4.870   0.853   0.470  0.1982 -0.2548 -0.0727
 3021poe    c2314650   4.870   0.959   0.359 -0.4878 -0.0827  0.0861
 3021poe     o214651   4.751   1.034   0.349 -0.2495  0.3500  0.4282
 3021poe    c3114652   4.761   1.148   0.267  0.4899 -0.1755 -0.2286
 3022poe    c3114653   0.182   0.779   0.300 -0.2074 -0.4818 -0.0555
 3022poe     o214654   0.280   0.759   0.399 -0.0560  0.7385  0.0578
 3022poe    c2314655   0.211   0.693   0.503  0.0565  0.8922  0.2292
 3022poe    c2314656   0.289   0.681   0.636 -0.3690  0.6486  0.4583
 3022poe     o214657   0.403   0.599   0.624 -0.5577  0.4678 -0.1578
 3022poe    c2314658   0.449   0.550   0.748 -0.8315 -0.1503 -0.2954
 3022poe    c2314659   0.391   0.411   0.782 -0.7442 -0.0251  0.3838
 3022poe     o214660   0.461   0.320   0.700 -0.6920  0.1539  0.2280
 3022poe    c2314661   0.448   0.181   0.716  0.1848 -0.0393 -0.6768
 3022poe    c2314662   0.320   0.106   0.673  0.1604 -0.3741 -0.0259
 3022poe     o214663   0.330   0.112   0.533 -0.3051 -0.4929 -0.0631
 3022poe    c3114664   0.249   0.008   0.482 -0.4632 -0.2316 -0.3473
 3023poe    c3114665   2.001   3.164   3.811  0.4173  0.3542 -0.4877
 3023poe     o214666   2.122   3.232   3.832  0.4208  0.1592  0.1582
 3023poe    c2314667   2.147   3.336   3.740  0.1546  0.4890  0.4543
 3023poe    c2314668   2.293   3.383   3.734  0.2887  0.0244 -0.0775
 3023poe     o214669   2.391   3.287   3.704  0.3468  0.1038 -0.1428
 3023poe    c2314670   2.391   3.234   3.574 -0.3865 -0.2000 -0.0203
 3023poe    c2314671   2.494   3.120   3.564 -0.1466 -0.0170  0.3678
 3023poe     o214672   2.462   3.002   3.633 -0.2063 -0.4827 -0.4395
 3023poe    c2314673   2.572   2.913   3.641  0.4630  0.3581 -0.0921
 3023poe    c2314674   2.537   2.765   3.614  0.1872  0.3338  0.3871
 3023poe     o214675   2.452   2.701   3.706  0.6684 -0.5766  0.2056
 3023poe    c3114676   2.435   2.562   3.686 -0.0549 -0.4930  0.2058
 3024poe    c3114677   5.458   4.590   6.379  0.8087  0.3438 -0.1309
 3024poe     o214678   5.415   4.623   6.249  0.0755 -0.3429 -0.0720
 3024poe    c2314679   5.277   4.621   6.221  0.0380 -0.4344  0.1193
 3024poe    c2314680   5.265   4.642   6.069 -0.2028  0.2815  0.2326
 3024poe     o214681   5.372   4.728   6.035  0.1986 -0.3686 -0.1873
 3024poe    c2314682   5.358   4.778   5.904  0.2042 -0.0015 -0.0493
 3024poe    c2314683   5.490   4.830   5.842  0.3652  0.3130  0.5564
 3024poe     o214684   5.594   4.741   5.875  0.4340  0.2120  0.0704
 3024poe    c2314685   5.711   4.740   5.796 -0.0318 -0.0297 -0.6237
 3024poe    c2314686   5.833   4.706   5.884 -0.0831  0.0723 -0.5127
 3024poe     o214687   5.828   4.568   5.913 -0.0294  0.1689 -0.0336
 3024poe    c3114688   5.915   4.478   5.847 -0.5967  0.0840 -0.6740
 3025poe    c3114689   0.565   2.651   5.101 -0.2913 -0.0456 -0.4200
 3025poe     o214690   0.478   2.758   5.071 -0.0639  0.1597 -0.3420
 3025poe    c2314691   0.549   2.877   5.042  0.5172 -0.1090 -0.0489
 3025poe    c2314692   0.558   2.971   5.163  0.5080  0.3361 -0.3945
 3025poe     o214693   0.444   3.042   5.205  0.3728  0.1039 -0.3707
 3025poe    c2314694   0.470   3.124   5.317 -0.2389 -0.1081 -0.0695
 3025poe    c2314695   0.426   3.078   5.457 -0.0779 -0.1195 -0.0229
 3025poe     o214696   0.290   3.074   5.496 -0.1684  0.1928 -0.3012
 3025poe    c2314697   0.276   2.995   5.612  0.3833  0.5284  0.0006
 3025poe    c2314698   0.141   2.990   5.685  0.1653  0.5071 -0.4022
 3025poe     o214699   0.046   2.919   5.607  0.2141  0.0815 -0.0784
 3025poe    c3114700  -0.068   2.921   5.690  0.6669  0.9691  0.5470
 3026poe    c3114701   4.259   6.852   2.653 -0.0138 -0.3563 -0.4826
 3026poe     o214702   4.315   6.975   2.613 -0.0236 -0.2144 -0.0603
 3026poe    c2314703   4.335   7.066   2.720 -0.7013 -0.1537  0.0214
 3026poe    c2314704   4.385   7.202   2.669 -0.2757 -0.3555 -0.1049
 3026poe     o214705   4.487   7.201   2.571 -0.0726  0.4139  0.0918
 3026poe    c2314706   4.571   7.314   2.572  0.2043  0.2105  0.7780
 3026poe    c2314707   4.659   7.328   2.446  0.0089 -0.2708  0.5866
 3026poe     o214708   4.565   7.323   2.341  0.2380 -0.1167  0.3730
 3026poe    c2314709   4.636   7.343   2.221  0.0154  0.1059  0.2775
 3026poe    c2314710   4.528   7.311   2.115  0.9258 -0.1766 -0.5805
 3026poe     o214711   4.487   7.182   2.154  0.1914  0.2604  0.1422
 3026poe    c3114712   4.433   7.110   2.045  0.7540  0.1869 -0.0941
 3027poe    c3114713   5.973   5.005   6.110  0.1070 -0.6451  0.5673
 3027poe     o214714   5.843   5.002   6.057  0.1105  0.7047  0.4600
 3027poe    c2314715   5.785   5.124   6.015 -0.1013  0.4900  0.1227
 3027poe    c2314716   5.837   5.168   5.877 -0.9285  1.0000 -0.0351
 3027poe     o214717   5.789   5.074   5.784  0.4594 -0.3166  0.5273
 3027poe    c2314718   5.809   5.087   5.645 -0.6796 -0.7637  0.3115
 3027poe    c2314719   5.741   5.207   5.575 -0.0220 -0.2474  0.5541
 3027poe     o214720   5.774   5.340   5.607 -0.0823  0.0789 -0.7200
 3027poe    c2314721   5.674   5.431   5.567 -0.1952  0.2023 -0.1630
 3027poe    c2314722   5.656   5.552   5.660 -0.0876  0.3220 -0.2973
 3027poe     o214723   5.585   5.547   5.781  0.4906 -0.3913  0.0218
 3027poe    c3114724   5.687   5.541   5.878 -0.0990  0.0895  0.6880
 3028poe    c3114725   1.106   1.697   3.811  0.4142  0.2714 -0.4597
 3028poe     o214726   0.968   1.725   3.795  0.3685  0.3500  0.0406
 3028poe    c2314727   0.902   1.601   3.789  0.4785  0.2848  0.1548
 3028poe    c2314728   0.753   1.635   3.807  0.3376  0.0117 -0.4704
 3028poe     o214729   0.725   1.756   3.741 -0.0856  0.3452  0.3080
 3028poe    c2314730   0.603   1.796   3.800 -0.3422  0.3680 -0.2214
 3028poe    c2314731   0.554   1.920   3.723  0.1366  0.3661 -0.5352
 3028poe     o214732   0.667   2.001   3.744  0.5132 -0.1984 -0.3639
 3028poe    c2314733   0.652   2.137   3.710  0.4234 -0.0554  0.2412
 3028poe    c2314734   0.666   2.232   3.831  0.0354  0.1231  0.1454
 3028poe     o214735   0.798   2.243   3.879  0.0249  0.4122  0.1109
 3028poe    c3114736   0.814   2.380   3.911 -0.0498  0.4197  0.1170
 3029poe    c3114737   4.080   6.324   0.820 -0.4956  0.1689  0.2813
 3029poe     o214738   4.107   6.449   0.761 -0.7155 -0.0364 -0.2605
 3029poe    c2314739   4.018   6.551   0.802  0.1285  0.5034  0.2603
 3029poe    c2314740   4.075   6.687   0.757 -0.0130  0.4576 -0.0633
 3029poe     o214741   4.210   6.708   0.791  0.0660  0.1100 -0.1566
 3029poe    c2314742   4.225   6.847   0.812 -0.1807  0.1572 -0.2932
 3029poe    c2314743   4.368   6.886   0.854 -0.1261 -0.4128  0.0665
 3029poe     o214744   4.473   6.871   0.761 -0.2330 -0.4253 -0.0530
 3029poe    c2314745   4.595   6.910   0.821 -0.1358  0.4621 -0.8064
 3029poe    c2314746   4.707   6.847   0.736 -0.3371  0.1410 -0.8360
 3029poe     o214747   4.696   6.706   0.734  0.0879  0.0862  0.2636
 3029poe    c3114748   4.796   6.640   0.660  0.0656  0.3458 -0.0007
 3030poe    c3114749   6.321   4.733   6.698 -0.5878 -0.3205 -0.3869
 3030poe     o214750   6.334   4.861   6.640  0.2051 -0.1380  0.1681
 3030poe    c2314751   6.228   4.883   6.550 -0.4449 -0.3180  0.8775
 3030poe    c2314752   6.245   4.992   6.442 -0.1214 -0.1394  1.1111
 3030poe     o214753   6.280   5.116   6.499  0.0818  0.3730 -0.0967
 3030poe    c2314754   6.305   5.223   6.410  0.4337  0.1316 -0.2916
 3030poe    c2314755   6.344   5.347   6.492  0.0669  0.6606 -0.9040
 3030poe     o214756   6.461   5.317   6.565 -0.5351  0.0454 -0.1701
 3030poe    c2314757   6.491   5.433   6.640  0.0358 -0.1452 -0.0960
 3030poe    c2314758   6.633   5.421   6.699 -0.0787  0.2790  0.2766
 3030poe     o214759   6.664   5.286   6.725  0.1103  0.2945  0.1284
 3030poe    c3114760   6.799   5.274   6.763  0.0399 -0.4896  0.1581
 3031poe    c3114761   6.357   0.125   1.789 -0.1825 -0.1335  0.2239
 3031poe     o214762   6.235   0.120   1.860 -0.4529 -0.3437 -0.2440
 3031poe    c2314763   6.185   0.250   1.845  0.3797 -0.0104 -0.1893
 3031poe    c2314764   6.107   0.311   1.963  0.3726  0.1286 -0.2647
 3031poe     o214765   6.173   0.305   2.088 -0.1817  0.2663  0.0387
 3031poe    c2314766   6.092   0.323   2.201 -0.1622  0.1224  0.0763
 3031poe    c2314767   6.177   0.284   2.324 -0.3633  0.4695  0.3287
 3031poe     o214768   6.309   0.332   2.308 -0.2165 -0.0296  0.0333
 3031poe    c2314769   6.363   0.300   2.434 -0.3221  0.5554  0.2276
 3031poe    c2314770   6.502   0.365   2.451 -0.0269 -0.1394  0.5376
 3031poe     o214771   6.604   0.342   2.357 -0.1882  0.4289  0.2136
 3031poe    c3114772   6.718   0.415   2.398  0.3285 -0.3760  0.2450
 3032poe    c3114773   4.196   4.756   0.888 -0.3634  0.0534 -0.2024
 3032poe     o214774   4.197   4.875   0.813 -0.1467 -0.0365 -0.3435
 3032poe    c2314775   4.065   4.919   0.787 -0.1925  0.2895  0.4103
 3032poe    c2314776   4.047   5.072   0.779 -1.0216  0.1863  0.2490
 3032poe     o214777   4.109   5.134   0.669 -0.6270  0.5065  0.6474
 3032poe    c2314778   4.022   5.211   0.589 -0.4810 -0.3183 -0.3261
 3032poe    c2314779   4.100   5.270   0.470  0.4097 -0.1019  0.3545
 3032poe     o214780   4.183   5.378   0.507  0.0902  0.4321 -0.4486
 3032poe    c2314781   4.261   5.427   0.400 -0.0084  0.3208 -0.5716
 3032poe    c2314782   4.357   5.526   0.467  0.6856 -0.5729 -0.2228
 3032poe     o214783   4.433   5.469   0.571  0.0455 -0.0085  0.5669
 3032poe    c3114784   4.544   5.548   0.610  0.3454  0.1362 -0.5542
 3033poe    c3114785   3.685   3.999   6.919 -0.0027 -0.0014  0.1608
 3033poe     o214786   3.815   3.947   6.901  0.2529  0.6810  0.0078
 3033poe    c2314787   3.896   4.038   6.830  0.4237  0.8022  0.3579
 3033poe    c2314788   4.025   3.964   6.790 -0.1461  0.0018 -0.0366
 3033poe     o214789   3.988   3.831   6.763 -0.2018 -0.0099  0.1005
 3033poe    c2314790   4.061   3.783   6.653 -0.5665  0.5635 -0.3946
 3033poe    c2314791   4.000   3.649   6.609  0.3596 -0.3083  0.8846
 3033poe     o214792   3.947   3.562   6.706  0.1294 -0.5719  0.5268
 3033poe    c2314793   3.916   3.428   6.674 -0.2006 -0.5147  0.6071
 3033poe    c2314794   3.849   3.338   6.780 -0.1870 -0.9969  0.2107
 3033poe     o214795   3.732   3.383   6.845 -0.0072  0.1380 -0.2246
 3033poe    c3114796   3.728   3.319   6.970 -0.0041  0.2783 -0.1526
 3034poe    c3114797   1.163   6.302   7.204  0.0228 -0.4651  0.0311
 3034poe     o214798   1.105   6.429   7.221  0.0191 -0.5004  0.2848
 3034poe    c2314799   0.984   6.401   7.288 -0.5697  0.7883 -0.2043
 3034poe    c2314800   0.917   6.535   7.325 -0.6607  0.5950  0.3364
 3034poe     o214801   0.984   6.610   7.424 -0.0981  0.3940  0.1112
 3034poe    c2314802   0.906   6.724   7.452 -0.0353  0.5987 -0.5294
 3034poe    c2314803   0.949   6.778   7.589 -0.1573 -0.0437 -0.2354
 3034poe     o214804   0.914   6.667   7.669 -0.3118  0.3125  0.2029
 3034poe    c2314805   0.941   6.708   7.801  0.0023  0.0224  0.2310
 3034poe    c2314806   0.913   6.602   7.910  0.0664 -0.1146  0.1145
 3034poe     o214807   0.777   6.564   7.920  0.0686 -0.1778 -0.0824
 3034poe    c3114808   0.761   6.494   8.041 -0.8689 -0.0094 -0.1032
 3035poe    c3114809   1.963   5.061   1.908 -0.2977  0.8630 -0.2694
 3035poe     o214810   2.058   5.100   1.812  0.4349  0.1527  0.1451
 3035poe    c2314811   2.081   5.000   1.715  0.2226  0.1258  0.1222
 3035poe    c2314812   2.169   5.055   1.601 -0.0956 -0.6891 -0.5232
 3035poe     o214813   2.094   5.147   1.525  0.1922 -0.2735 -0.3021
 3035poe    c2314814   2.182   5.221   1.443  0.6089 -0.3328  0.0850
 3035poe    c2314815   2.121   5.356   1.400 -0.0775 -0.6795 -0.0346
 3035poe     o214816   2.111   5.438   1.514  0.3589 -0.2834 -0.2778
 3035poe    c2314817   2.080   5.569   1.473  0.4209 -0.0944  0.2787
 3035poe    c2314818   2.086   5.665   1.594 -0.1393 -0.1360  0.3436
 3035poe     o214819   2.004   5.610   1.694 -0.1200 -0.0098  0.4296
 3035poe    c3114820   2.002   5.692   1.808  0.0144  0.0150  0.4143
 3036poe    c3114821   2.228   4.427   7.178  0.4989  0.4180  0.1061
 3036poe     o214822   2.329   4.330   7.195 -0.0006 -0.1848 -0.3063
 3036poe    c2314823   2.362   4.258   7.079  0.6906  0.1831 -0.3417
 3036poe    c2314824   2.472   4.166   7.136 -0.1192 -0.4733  0.1861
 3036poe     o214825   2.566   4.248   7.200  0.0580 -0.3455 -0.2332
 3036poe    c2314826   2.687   4.179   7.225  0.0748 -0.0762  0.4492
 3036poe    c2314827   2.801   4.281   7.242  0.3814 -0.4145  0.4286
 3036poe     o214828   2.813   4.354   7.363  0.2811  0.6714 -0.1971
 3036poe    c2314829   2.885   4.274   7.454  0.0703  0.3261 -0.3291
 3036poe    c2314830   2.880   4.314   7.603  0.8472 -0.3067 -0.1306
 3036poe     o214831   2.974   4.418   7.617  0.2659  0.2448 -0.3031
 3036poe    c3114832   2.970   4.474   7.747  0.4882  0.1465 -0.2538
 3037poe    c3114833   3.042   3.880   0.620 -0.2452  0.0010 -0.0359
 3037poe     o214834   3.148   3.827   0.544 -0.0866  0.1206  0.1027
 3037poe    c2314835   3.104   3.728   0.455 -0.6885  0.2962  0.2014
 3037poe    c2314836   3.229   3.662   0.393 -0.9921 -0.4203  0.3449
 3037poe     o214837   3.201   3.607   0.266 -0.5419 -0.1576  0.1327
 3037poe    c2314838   3.278   3.492   0.239 -0.5730 -0.1552  0.0327
 3037poe    c2314839   3.296   3.471   0.087 -0.0923 -0.2712  0.1029
 3037poe     o214840   3.374   3.574   0.032 -1.1080  0.4601 -0.0095
 3037poe    c2314841   3.396   3.563  -0.107  0.2956  0.2746  0.2089
 3037poe    c2314842   3.490   3.670  -0.165 -0.0818  0.6933  0.3641
 3037poe     o214843   3.622   3.652  -0.119 -0.0416  0.0678  0.0114
 3037poe    c3114844   3.682   3.758  -0.049 -0.4016  0.0970  0.2790
 3038poe    c3114845   5.837   7.047   5.266  0.7231 -0.2496 -0.5276
 3038poe     o214846   5.758   6.963   5.185 -0.3969  0.3627 -0.0942
 3038poe    c2314847   5.769   6.992   5.047 -0.1551  0.2171 -0.1059
 3038poe    c2314848   5.655   6.921   4.973  0.4868 -0.3146 -0.5973
 3038poe     o214849   5.638   6.792   5.029 -0.5090  0.0004 -0.1416
 3038poe    c2314850   5.538   6.711   4.970 -0.7094 -0.1069  0.3474
 3038poe    c2314851   5.534   6.575   5.042 -0.0544  0.0393  0.6739
 3038poe     o214852   5.493   6.577   5.176  0.0003 -0.1397  0.6935
 3038poe    c2314853   5.493   6.446   5.231  0.2329 -0.3872  0.1097
 3038poe    c2314854   5.448   6.457   5.378 -0.0050 -0.2529  0.0269
 3038poe     o214855   5.535   6.524   5.466 -0.1651 -0.1818  0.1337
 3038poe    c3114856   5.490   6.511   5.598  0.3957 -0.1376  0.3336
 3039poe    c3114857   6.590   0.798   0.345 -0.1076  0.2079 -0.1408
 3039poe     o214858   6.486   0.756   0.430  0.2770  0.0344  0.2430
 3039poe    c2314859   6.374   0.826   0.382  0.2386 -0.0757  0.1722
 3039poe    c2314860   6.252   0.797   0.472 -0.0956  1.0019  0.0871
 3039poe     o214861   6.202   0.665   0.460  0.3096  0.8798 -0.2843
 3039poe    c2314862   6.094   0.646   0.548 -0.0284 -0.3190 -0.9383
 3039poe    c2314863   6.009   0.517   0.549  0.4441 -0.6317 -0.8225
 3039poe     o214864   6.064   0.415   0.629 -0.4534 -0.0866  0.5252
 3039poe    c2314865   5.974   0.313   0.668  0.3553 -0.8986  0.2969
 3039poe    c2314866   5.892   0.359   0.790  0.3852 -0.2587  0.0793
 3039poe     o214867   5.969   0.407   0.899 -0.0691 -0.0568  0.3145
 3039poe    c3114868   5.882   0.429   1.007 -0.1266  0.4202  0.1716
 3040poe    c3114869   6.417   6.616   1.533 -0.4355 -0.2628  0.6137
 3040poe     o214870   6.364   6.631   1.404 -0.5928 -0.2539  0.6799
 3040poe    c2314871   6.363   6.766   1.363  0.2700 -0.3686  0.2710
 3040poe    c2314872   6.294   6.774   1.226  0.8950  0.0972 -0.0226
 3040poe     o214873   6.346   6.716   1.108  0.1079 -0.1210 -0.2696
 3040poe    c2314874   6.255   6.720   1.001 -0.0019  0.5539 -0.1556
 3040poe    c2314875   6.297   6.713   0.853  0.6181 -0.2045  0.0496
 3040poe     o214876   6.357   6.586   0.840  0.2313 -0.4139  0.2664
 3040poe    c2314877   6.456   6.601   0.740 -0.2690  0.1188 -0.1598
 3040poe    c2314878   6.501   6.464   0.686  0.3460  0.3604 -0.2650
 3040poe     o214879   6.546   6.392   0.799 -0.0392  0.5104 -0.0168
 3040poe    c3114880   6.566   6.258   0.761 -0.6360  0.2691  0.4968
 3041poe    c3114881   7.127   6.463   4.665 -0.2033  0.0080 -0.1646
 3041poe     o214882   7.104   6.347   4.589  0.3346  0.2502 -0.7069
 3041poe    c2314883   6.972   6.335   4.542  0.0836 -0.0899  0.0759
 3041poe    c2314884   6.920   6.191   4.528  1.0925 -0.4405 -0.1379
 3041poe     o214885   6.895   6.121   4.648  0.5712 -0.0952 -0.0425
 3041poe    c2314886   6.839   5.993   4.626 -0.3866  0.1694  0.7761
 3041poe    c2314887   6.880   5.898   4.740  0.3756  0.1289  0.4740
 3041poe     o214888   7.019   5.910   4.762  0.4172 -0.2236  0.4066
 3041poe    c2314889   7.046   5.830   4.875 -0.4386 -0.3288  0.5461
 3041poe    c2314890   7.152   5.881   4.974  0.0095 -0.0719 -0.0580
 3041poe     o214891   7.132   6.004   5.040 -0.0411  0.0801 -0.3548
 3041poe    c3114892   7.215   6.012   5.154 -0.6072  0.4706  0.0369
 3042poe    c3114893   6.138   3.593   0.063  0.0717 -0.0062 -0.0394
 3042poe     o214894   6.207   3.581   0.185 -0.0928 -0.1843  0.0368
 3042poe    c2314895   6.123   3.503   0.268 -0.8977  0.6968  0.0666
 3042poe    c2314896   6.143   3.539   0.416  0.0022 -0.3015  0.2038
 3042poe     o214897   6.119   3.677   0.431 -0.0899 -0.2694 -0.2204
 3042poe    c2314898   5.981   3.705   0.439  0.0442  0.1954  0.6863
 3042poe    c2314899   5.961   3.840   0.368  0.0739 -0.1958 -0.0837
 3042poe     o214900   5.929   3.951   0.448 -0.2190 -0.1553 -0.2570
 3042poe    c2314901   5.919   4.063   0.363 -0.4017  0.0277  0.0042
 3042poe    c2314902   5.928   4.203   0.427 -0.3515  0.2112 -0.4044
 3042poe     o214903   6.057   4.244   0.466 -0.4034  0.1657 -0.1848
 3042poe    c3114904   6.050   4.363   0.541  0.3219 -0.4185  0.8277
 3043poe    c3114905   6.519   6.433   2.155 -0.2414  0.6765  0.2179
 3043poe     o214906   6.650   6.472   2.188  0.1963 -0.0945 -0.5703
 3043poe    c2314907   6.664   6.595   2.256  0.1991 -0.2293 -0.3251
 3043poe    c2314908   6.801   6.597   2.325 -0.3948 -0.1378  0.8702
 3043poe     o214909   6.836   6.474   2.384 -0.2583 -0.4424  0.1662
 3043poe    c2314910   6.960   6.493   2.447 -0.1068  0.2477 -0.3268
 3043poe    c2314911   7.056   6.382   2.496  0.0793  0.2351 -0.7189
 3043poe     o214912   7.074   6.292   2.389  0.2094  0.0544 -0.5457
 3043poe    c2314913   7.163   6.188   2.424  0.2930  0.2382 -0.2099
 3043poe    c2314914   7.194   6.103   2.299  0.1452  0.7068 -0.5698
 3043poe     o214915   7.090   6.072   2.209  0.0761 -0.5736 -0.0701
 3043poe    c3114916   7.146   6.064   2.080 -0.3141 -0.5081 -0.2449
 3044poe    c3114917   2.120   4.916   5.842 -0.0464  0.4018 -0.3868
 3044poe     o214918   2.219   4.995   5.904 -0.4970  0.3536  0.4126
 3044poe    c2314919   2.251   5.107   5.825  0.3583 -0.1203  0.0728
 3044poe    c2314920   2.359   5.181   5.905 -0.0403  0.0428  0.4661
 3044poe     o214921   2.306   5.196   6.035 -0.0461  0.3139  0.4351
 3044poe    c2314922   2.392   5.281   6.106 -0.2963  0.7990  0.1593
 3044poe    c2314923   2.365   5.287   6.257  0.0922 -0.0230  0.2693
 3044poe     o214924   2.319   5.166   6.313  0.5025 -0.2524  0.1107
 3044poe    c2314925   2.273   5.193   6.443  0.9461 -0.4775  0.3173
 3044poe    c2314926   2.195   5.086   6.521 -0.0124  0.0448  0.0984
 3044poe     o214927   2.072   5.070   6.452  0.1242 -0.1737 -0.0979
 3044poe    c3114928   1.966   5.027   6.535 -0.0786  0.2727 -0.1215
 3045poe    c3114929   5.439   4.198   5.801 -0.1977 -0.0930 -0.1808
 3045poe     o214930   5.505   4.075   5.781  0.7270  0.2752  0.5310
 3045poe    c2314931   5.640   4.084   5.820  0.8037  0.3103  0.2592
 3045poe    c2314932   5.698   3.947   5.782 -0.5036 -0.1804 -0.0173
 3045poe     o214933   5.652   3.896   5.659  0.2012  0.0581 -0.3879
 3045poe    c2314934   5.739   3.818   5.580  0.1812 -0.1452 -0.2082
 3045poe    c2314935   5.646   3.750   5.478 -0.0349  0.0449 -0.1381
 3045poe     o214936   5.536   3.832   5.444 -0.2569  0.0120  0.4823
 3045poe    c2314937   5.475   3.799   5.321 -0.1706 -0.2396  0.5071
 3045poe    c2314938   5.334   3.855   5.294  0.1005 -0.1690 -0.8149
 3045poe     o214939   5.330   3.993   5.326 -0.2588 -0.2873 -0.3399
 3045poe    c3114940   5.205   4.046   5.286 -0.4858 -0.6177 -0.0782
 3046poe    c3114941   6.398   6.268   1.738  0.5774  0.4254 -0.4996
 3046poe     o214942   6.371   6.155   1.659  0.2647  0.1043  0.0604
 3046poe    c2314943   6.465   6.135   1.557 -0.3354  0.2050 -0.5228
 3046poe    c2314944   6.585   6.043   1.587 -0.0575  0.6253 -0.3417
 3046poe     o214945   6.553   5.919   1.645  0.7840  0.4731 -0.1880
 3046poe    c2314946   6.613   5.815   1.571 -0.0375  0.3187 -0.6514
 3046poe    c2314947   6.563   5.676   1.615 -0.3787  0.8011  0.5230
 3046poe     o214948   6.425   5.658   1.594 -0.1322 -0.5536  0.0222
 3046poe    c2314949   6.386   5.543   1.522 -0.3631 -0.5120  0.0800
 3046poe    c2314950   6.376   5.564   1.370 -0.3446  0.1441  0.1687
 3046poe     o214951   6.255   5.619   1.322 -0.6191 -0.0590  0.6348
 3046poe    c3114952   6.245   5.597   1.183 -0.2119  0.1311  0.5759
 3047poe    c3114953   3.637   2.681   4.985  0.2981  0.3906  0.2703
 3047poe     o214954   3.689   2.568   5.050 -0.1469  0.2958  0.4704
 3047poe    c2314955   3.585   2.481   5.089 -0.2300  0.1865  0.0081
 3047poe    c2314956   3.650   2.347   5.130 -0.5295  0.0773  0.1252
 3047poe     o214957   3.777   2.371   5.186 -0.4667  0.1991 -0.0693
 3047poe    c2314958   3.843   2.256   5.235 -0.4100  0.1796 -0.1926
 3047poe    c2314959   3.993   2.295   5.237 -0.4064  0.1413  0.3625
 3047poe     o214960   4.051   2.308   5.109 -0.9694 -0.0463  0.0816
 3047poe    c2314961   4.192   2.303   5.114 -0.9369  0.3430 -0.3442
 3047poe    c2314962   4.245   2.303   4.969 -0.6857 -0.4926 -0.2563
 3047poe     o214963   4.201   2.418   4.902 -0.0481 -0.2084 -0.1907
 3047poe    c3114964   4.255   2.423   4.772 -0.0421  0.1562 -0.1768
 3048poe    c3114965   1.715   4.293   5.835 -0.4268  0.0420  0.3202
 3048poe     o214966   1.802   4.319   5.943  0.3697  0.2968 -0.3727
 3048poe    c2314967   1.722   4.341   6.057  0.5217  0.6180 -0.3265
 3048poe    c2314968   1.807   4.358   6.184  0.8212  0.1252 -0.4595
 3048poe     o214969   1.922   4.428   6.141  0.8105  0.1329 -0.4756
 3048poe    c2314970   2.017   4.424   6.245  0.0019 -0.0074  0.2726
 3048poe    c2314971   2.164   4.448   6.205  0.1272 -0.4505  0.4626
 3048poe     o214972   2.179   4.364   6.093  0.0482  0.2457 -0.0823
 3048poe    c2314973   2.310   4.344   6.045 -0.0839  0.3952 -0.5098
 3048poe    c2314974   2.358   4.197   6.038  0.0596  0.4387 -0.4557
 3048poe     o214975   2.284   4.143   5.931 -0.3626 -0.0537  0.0831
 3048poe    c3114976   2.349   4.021   5.904  0.4549  0.2357  0.7074
 3049poe    c3114977   6.795   7.213   7.247 -0.2140 -0.2326  0.1724
 3049poe     o214978   6.765   7.328   7.324 -0.4803  0.0931 -0.4088
 3049poe    c2314979   6.683   7.281   7.429  0.1842  0.5979  0.3452
 3049poe    c2314980   6.554   7.364   7.449 -0.2882 -0.2290  0.7558
 3049poe     o214981   6.607   7.494   7.451 -0.3595 -0.1919  0.3099
 3049poe    c2314982   6.511   7.595   7.428 -0.0389  0.0572  0.0541
 3049poe    c2314983   6.587   7.725   7.395  0.1191 -0.0014  0.1886
 3049poe     o214984   6.701   7.697   7.316  0.1351 -0.1749  0.2729
 3049poe    c2314985   6.763   7.804   7.249  0.3295 -0.6004 -0.2276
 3049poe    c2314986   6.709   7.842   7.110 -0.2241 -0.3523  0.0527
 3049poe     o214987   6.762   7.751   7.016  0.3456 -0.3645  0.3762
 3049poe    c3114988   6.840   7.818   6.920  0.7698 -0.4637  0.6516
 3050poe    c3114989   1.713   0.263   5.892  0.2311  0.4032  0.8233
 3050poe     o214990   1.593   0.212   5.946  0.0762  0.1470  0.2349
 3050poe    c2314991   1.555   0.080   5.910  0.5350  0.0211  0.2072
 3050poe    c2314992   1.463   0.009   6.011  0.3362 -0.3590 -0.2393
 3050poe     o214993   1.517  -0.018   6.139  0.2212 -0.0050 -0.1158
 3050poe    c2314994   1.595  -0.135   6.144  0.5358  0.2035 -0.1242
 3050poe    c2314995   1.600  -0.183   6.290  0.6802 -0.1246 -0.2365
 3050poe     o214996   1.648  -0.068   6.357  0.1333  0.4587 -0.8320
 3050poe    c2314997   1.702  -0.108   6.481 -0.2075  0.1018 -0.7945
 3050poe    c2314998   1.772   0.019   6.533 -0.4050 -0.0815 -0.0680
 3050poe     o214999   1.690   0.129   6.500 -0.1735  0.1860  0.2374
 3050poe    c3115000   1.752   0.252   6.531  0.1862  0.2599 -0.7770
 3051poe    c3115001   6.056   2.290   4.819  0.4239 -0.1118 -0.0065
 3051poe     o215002   6.163   2.285   4.728  0.5820  0.1628  0.1644
 3051poe    c2315003   6.185   2.156   4.676  0.6116  0.0960  0.3409
 3051poe    c2315004   6.290   2.157   4.563  0.0124 -0.1876 -0.2229
 3051poe     o215005   6.415   2.208   4.602 -0.2756  0.3398  0.0191
 3051poe    c2315006   6.516   2.223   4.505 -0.4643 -0.0312 -0.2328
 3051poe    c2315007   6.637   2.273   4.585 -0.0271 -0.3754 -0.6708
 3051poe     o215008   6.610   2.392   4.657  0.6856 -0.4852 -0.2074
 3051poe    c2315009   6.735   2.446   4.691  0.2590 -0.1674  0.8958
 3051poe    c2315010   6.710   2.574   4.773 -0.3315  0.2986  0.0107
 3051poe     o215011   6.618   2.548   4.877 -0.1825  0.2808  0.1377
 3051poe    c3115012   6.595   2.666   4.950 -0.0701  0.1443  0.3944
 3052poe    c3115013   5.051   1.380   0.455  0.8091 -0.5962  0.0205
 3052poe     o215014   4.985   1.288   0.538  0.2464 -0.1856  0.0340
 3052poe    c2315015   5.085   1.245   0.627  0.3634 -0.5068 -0.2497
 3052poe    c2315016   5.034   1.159   0.745 -0.3132  0.1671 -0.0460
 3052poe     o215017   4.938   1.226   0.823 -0.3169 -0.2479  0.3025
 3052poe    c2315018   4.905   1.167   0.947  0.4553 -0.3192  0.4756
 3052poe    c2315019   4.793   1.247   1.015  0.1420 -0.3008 -0.0602
 3052poe     o215020   4.668   1.248   0.949 -0.0164  0.8426  0.2362
 3052poe    c2315021   4.575   1.312   1.034  0.0725  0.3519  0.7076
 3052poe    c2315022   4.426   1.301   0.997  0.1632  0.3180  0.3505
 3052poe     o215023   4.372   1.379   0.893  0.2489  0.1162  0.1525
 3052poe    c3115024   4.234   1.350   0.880  0.3331 -0.2116 -0.0045
 3053poe    c3115025   4.989   5.088   3.339  0.1792 -0.2217  0.2513
 3053poe     o215026   4.894   5.013   3.267  0.0502  0.0463  0.1411
 3053poe    c2315027   4.821   5.105   3.188  0.0667 -0.2577 -0.2332
 3053poe    c2315028   4.714   5.022   3.115 -0.1303  0.1894 -0.4569
 3053poe     o215029   4.762   4.918   3.032  0.3071 -0.1923  0.2567
 3053poe    c2315030   4.667   4.873   2.938  0.0855 -0.2870  0.5286
 3053poe    c2315031   4.730   4.814   2.811 -0.3282 -0.4026  0.3720
 3053poe     o215032   4.809   4.706   2.856  0.1895 -0.2256 -0.0967
 3053poe    c2315033   4.895   4.671   2.749  0.5978  0.2740  0.0671
 3053poe    c2315034   4.952   4.536   2.796  0.3822  0.2193  0.1729
 3053poe     o215035   5.005   4.544   2.926  0.4860 -0.2249  0.1592
 3053poe    c3115036   5.083   4.432   2.962  0.5029 -0.3864 -0.3743
 3054poe    c3115037   7.040   6.845   0.699 -0.2830 -0.1354 -0.8771
 3054poe     o215038   7.018   6.721   0.763 -0.0928  0.1318 -0.2884
 3054poe    c2315039   6.945   6.642   0.673 -0.1110  0.4471 -0.5535
 3054poe    c2315040   6.934   6.500   0.732  0.3919  0.8421  0.5186
 3054poe     o215041   6.865   6.506   0.855  0.1392  0.1004  0.4190
 3054poe    c2315042   6.856   6.379   0.917  0.1258 -0.1923 -0.1720
 3054poe    c2315043   6.803   6.401   1.060  0.5069 -0.1454 -0.0373
 3054poe     o215044   6.853   6.524   1.108  0.2136 -0.0461  0.0193
 3054poe    c2315045   6.792   6.525   1.235  0.3976  0.6188  0.1075
 3054poe    c2315046   6.860   6.635   1.318  0.6088  0.3007  0.3569
 3054poe     o215047   6.863   6.754   1.243 -0.5695 -0.0112 -0.2243
 3054poe    c3115048   6.965   6.835   1.297 -1.0706  0.5400 -0.0943
 3055poe    c3115049   2.743   7.068   5.127 -0.1550  0.7075  0.1090
 3055poe     o215050   2.625   6.994   5.149  0.2824 -0.0864 -0.1996
 3055poe    c2315051   2.544   7.066   5.239  0.4257 -0.3075  0.1086
 3055poe    c2315052   2.462   6.973   5.330 -0.0132  0.0955  0.1291
 3055poe     o215053   2.551   6.908   5.418  0.5737 -0.1136 -0.6095
 3055poe    c2315054   2.481   6.860   5.531  0.2592 -0.0430 -0.7752
 3055poe    c2315055   2.581   6.853   5.648 -0.5476 -0.2618 -0.0891
 3055poe     o215056   2.683   6.761   5.617 -0.0491  0.1311  0.3815
 3055poe    c2315057   2.794   6.774   5.703  0.4708 -0.0998 -0.2475
 3055poe    c2315058   2.924   6.707   5.655  0.3522 -0.4287 -0.1162
 3055poe     o215059   2.989   6.771   5.547 -0.4683 -0.5985 -0.7228
 3055poe    c3115060   3.098   6.697   5.495  0.3990  0.2906 -0.2131
 3056poe    c3115061   0.940   2.665   3.618  0.6365 -0.0936 -0.2159
 3056poe     o215062   0.887   2.616   3.497  0.0879  0.3105 -0.1440
 3056poe    c2315063   0.928   2.707   3.398  0.2238  0.3493 -0.0512
 3056poe    c2315064   0.937   2.638   3.261 -0.4005  0.6978 -0.2692
 3056poe     o215065   0.814   2.619   3.193 -0.4211 -0.8513  0.1758
 3056poe    c2315066   0.827   2.520   3.093 -0.0839 -0.7181  0.0852
 3056poe    c2315067   0.733   2.555   2.975  0.2120  0.0054  0.0586
 3056poe     o215068   0.595   2.575   2.996  0.2928  0.4172  0.2206
 3056poe    c2315069   0.535   2.631   2.882 -0.0218  0.1844  0.2689
 3056poe    c2315070   0.386   2.667   2.899 -0.0322 -0.0494  0.6817
 3056poe     o215071   0.308   2.549   2.893 -0.2075  0.1101 -0.4573
 3056poe    c3115072   0.180   2.567   2.949 -0.0752  0.4926 -0.2748
 3057poe    c3115073   1.063   2.805   7.239  1.0347  0.1892  0.0757
 3057poe     o215074   1.095   2.929   7.179  0.1093  0.2936 -0.2105
 3057poe    c2315075   1.093   3.043   7.262 -0.8943  0.2860 -0.2091
 3057poe    c2315076   1.144   3.157   7.173  0.2630 -0.0263  0.0376
 3057poe     o215077   1.282   3.139   7.148  0.1505 -0.2546 -0.4194
 3057poe    c2315078   1.334   3.214   7.040  0.0396  0.0168 -0.2855
 3057poe    c2315079   1.488   3.219   7.034  0.0557  0.4279  0.3324
 3057poe     o215080   1.553   3.260   7.152  0.1475  0.7624  0.1663
 3057poe    c2315081   1.691   3.273   7.124  0.2720 -0.7551 -0.0005
 3057poe    c2315082   1.770   3.343   7.235  0.0283  0.0874 -0.3510
 3057poe     o215083   1.743   3.474   7.279 -0.5527 -0.2741  0.3924
 3057poe    c3115084   1.829   3.497   7.388  0.1551 -0.6158 -0.0878
 3058poe    c3115085   2.937   5.438   7.017 -0.0947 -0.6722 -0.0302
 3058poe     o215086   2.932   5.532   7.121  0.2936 -0.3770 -0.2753
 3058poe    c2315087   2.807   5.597   7.123  0.3929 -0.1883  0.6434
 3058poe    c2315088   2.820   5.687   7.247 -0.0861  0.1840  0.4274
 3058poe     o215089   2.828   5.618   7.369  0.2841  0.3182  0.4829
 3058poe    c2315090   2.868   5.688   7.484 -0.0826  0.2021  0.6838
 3058poe    c2315091   2.870   5.600   7.610  0.1507 -0.2139  0.3929
 3058poe     o215092   2.959   5.492   7.622  0.2198 -0.2283 -0.2463
 3058poe    c2315093   2.921   5.409   7.729  0.1514  0.1185 -0.0012
 3058poe    c2315094   3.007   5.283   7.749  0.2076  0.0768 -0.5096
 3058poe     o215095   3.140   5.309   7.786  0.0298  0.2031  0.0461
 3058poe    c3115096   3.177   5.191   7.854  0.0518  0.3580  0.3026
 3059poe    c3115097   6.833   6.768   5.160 -0.4972  0.0931 -0.2775
 3059poe     o215098   6.796   6.769   5.296 -0.1398 -0.2767 -0.1761
 3059poe    c2315099   6.668   6.826   5.309 -0.0460 -0.1143  0.0424
 3059poe    c2315100   6.621   6.791   5.451  0.4719  0.0841  0.2652
 3059poe     o215101   6.727   6.797   5.544  0.6222  0.3860  0.0750
 3059poe    c2315102   6.679   6.782   5.675 -0.0773 -0.4629 -0.2699
 3059poe    c2315103   6.803   6.755   5.762 -0.0610  0.1942 -0.0850
 3059poe     o215104   6.893   6.672   5.693 -0.0914  0.2201 -0.1561
 3059poe    c2315105   7.007   6.636   5.767  0.0136 -0.0256 -0.4303
 3059poe    c2315106   7.120   6.557   5.700  0.3299 -0.0611  0.1334
 3059poe     o215107   7.156   6.616   5.576  0.1538  0.1727  0.1922
 3059poe    c3115108   7.256   6.530   5.526  0.0022 -0.0954  0.3412
 3060poe    c3115109   6.761   4.705   2.715  0.3226 -0.1271  0.8223
 3060poe     o215110   6.851   4.723   2.608 -0.1119  0.0779  0.4828
 3060poe    c2315111   6.977   4.663   2.633 -0.1115 -0.3549 -0.5316
 3060poe    c2315112   7.007   4.528   2.565 -0.3949 -0.4512 -0.4686
 3060poe     o215113   6.977   4.408   2.631 -0.0802 -0.3095 -0.0657
 3060poe    c2315114   6.842   4.367   2.630 -0.3576  0.6005 -0.2307
 3060poe    c2315115   6.834   4.218   2.594 -0.3935  0.5648 -0.0784
 3060poe     o215116   6.898   4.126   2.679 -0.2560  0.4587 -0.2970
 3060poe    c2315117   6.855   4.120   2.813  0.0591 -0.3851 -0.2241
 3060poe    c2315118   6.935   4.013   2.889  0.1867 -0.1512 -0.0291
 3060poe     o215119   7.066   4.044   2.844  0.1440  0.1630  0.0579
 3060poe    c3115120   7.170   3.977   2.911 -0.2298 -1.1184 -0.5961
 3061poe    c3115121   6.281   0.515   1.241 -0.8169 -0.2291 -0.3729
 3061poe     o215122   6.345   0.528   1.116 -0.0275 -0.5341 -0.0071
 3061poe    c2315123   6.245   0.584   1.034 -0.4516 -0.6977  0.3937
 3061poe    c2315124   6.294   0.577   0.889  0.0635  0.3279  0.5073
 3061poe     o215125   6.418   0.645   0.888  0.2855 -0.0666  0.9278
 3061poe    c2315126   6.487   0.634   0.766 -0.0709  0.1791  0.7018
 3061poe    c2315127   6.585   0.751   0.754  0.1129 -0.0466 -0.1103
 3061poe     o215128   6.694   0.751   0.844 -0.2420  0.2698  0.3263
 3061poe    c2315129   6.733   0.885   0.864 -0.1393  0.1949  0.6370
 3061poe    c2315130   6.842   0.888   0.973  0.0902  0.5030  0.4001
 3061poe     o215131   6.792   0.832   1.092 -0.2271  0.0348  0.0513
 3061poe    c3115132   6.911   0.806   1.163 -0.6161 -0.2721  0.5989
 3062poe    c3115133   7.000   5.730   1.702 -0.5420 -0.8152 -0.3863
 3062poe     o215134   7.016   5.615   1.621  0.1525 -0.5909 -0.5711
 3062poe    c2315135   7.008   5.658   1.487 -0.1711 -0.1759 -0.4213
 3062poe    c2315136   7.082   5.566   1.388  0.1602 -0.1007 -0.2430
 3062poe     o215137   7.013   5.443   1.386  0.1219 -0.0993  0.4550
 3062poe    c2315138   7.047   5.369   1.270 -0.0441  0.2623  0.1727
 3062poe    c2315139   6.924   5.280   1.248 -0.0024  0.2158  0.1268
 3062poe     o215140   6.914   5.173   1.340  0.2098 -0.3115 -0.4545
 3062poe    c2315141   6.777   5.141   1.345  0.0833  0.3246  0.2963
 3062poe    c2315142   6.745   5.015   1.428  0.2734  0.0017 -0.1187
 3062poe     o215143   6.769   4.897   1.355  0.6421 -0.1166  0.1903
 3062poe    c3115144   6.724   4.786   1.429  0.5081 -0.1684  0.0346
 3063poe    c3115145   6.867   2.465   2.873  0.0650  1.2615 -0.2752
 3063poe     o215146   6.992   2.422   2.825 -0.2808  0.0602 -0.1310
 3063poe    c2315147   7.001   2.442   2.685  0.2311 -0.1346 -0.1272
 3063poe    c2315148   7.138   2.420   2.618 -0.0238  0.3035 -0.7973
 3063poe     o215149   7.179   2.287   2.640  0.0487  0.4848  0.1945
 3063poe    c2315150   7.272   2.254   2.540 -0.6038 -0.2939 -0.1635
 3063poe    c2315151   7.285   2.100   2.540  0.0419 -0.2406  0.0950
 3063poe     o215152   7.328   2.063   2.669 -0.2612 -0.7091  0.0619
 3063poe    c2315153   7.375   1.930   2.672  0.3896 -0.4943 -0.3744
 3063poe    c2315154   7.375   1.876   2.816 -0.1371  0.0760 -0.1580
 3063poe     o215155   7.395   1.976   2.914 -0.1783  0.1378 -0.2127
 3063poe    c3115156   7.343   1.932   3.037  0.2536  0.3538  0.0493
 3064poe    c3115157   1.579   6.002   3.959  0.4928 -0.0505 -0.5062
 3064poe     o215158   1.663   6.106   4.005  0.3007 -0.4886  0.8808
 3064poe    c2315159   1.589   6.226   4.005  0.0861 -0.6175  0.3008
 3064poe    c2315160   1.666   6.357   4.025 -0.2912 -0.3261 -0.1389
 3064poe     o215161   1.751   6.406   3.923  0.2707  0.1993  0.5650
 3064poe    c2315162   1.819   6.527   3.946  0.0796  0.3546  0.3193
 3064poe    c2315163   1.903   6.555   3.821 -0.2847  0.5810  0.1226
 3064poe     o215164   1.824   6.556   3.704 -0.3964 -0.2741  0.1864
 3064poe    c2315165   1.887   6.480   3.603 -0.0389  0.2173  0.0344
 3064poe    c2315166   1.808   6.457   3.473 -0.4463  0.1954  0.2856
 3064poe     o215167   1.761   6.577   3.415  0.2495  0.2686 -0.1296
 3064poe    c3115168   1.680   6.531   3.309  0.0564  0.5020 -0.0842
 3065poe    c3115169   3.636   7.032   4.596 -0.4175  0.0762  0.1378
 3065poe     o215170   3.768   7.077   4.580 -0.3507 -0.1006  0.1950
 3065poe    c2315171   3.794   7.130   4.452  0.2424  0.2104  0.4412
 3065poe    c2315172   3.936   7.189   4.442  0.2483  0.2980  1.0314
 3065poe     o215173   4.028   7.089   4.478 -0.1602 -0.6151 -0.3720
 3065poe    c2315174   4.153   7.148   4.451 -0.2705 -0.0143  0.3894
 3065poe    c2315175   4.267   7.060   4.506 -0.0290  0.3907  0.5490
 3065poe     o215176   4.283   6.930   4.453  0.1001  0.4890  0.3478
 3065poe    c2315177   4.353   6.851   4.546 -0.1935  0.3547  0.4567
 3065poe    c2315178   4.450   6.762   4.467 -0.9717 -0.0764 -0.0230
 3065poe     o215179   4.411   6.741   4.333 -0.3194 -0.2717 -0.1900
 3065poe    c3115180   4.477   6.622   4.295 -0.7051 -0.5277 -0.0690
 3066poe    c3115181   4.018   2.263   1.790  0.1002  0.2164  0.6682
 3066poe     o215182   4.120   2.271   1.694 -0.5177 -0.0980 -0.0256
 3066poe    c2315183   4.080   2.202   1.578  0.0298 -0.5945  0.0742
 3066poe    c2315184   4.201   2.196   1.482 -0.1945 -0.3629 -0.2237
 3066poe     o215185   4.226   2.313   1.407  0.1578 -0.0769  0.3316
 3066poe    c2315186   4.336   2.291   1.322 -0.3478  0.0380 -0.3640
 3066poe    c2315187   4.376   2.414   1.238  0.4622  0.1364  0.1577
 3066poe     o215188   4.286   2.427   1.131  0.3628 -0.1787  0.2013
 3066poe    c2315189   4.317   2.545   1.059  0.5896 -0.5370 -0.2947
 3066poe    c2315190   4.232   2.551   0.930 -0.3832  0.3650  0.3717
 3066poe     o215191   4.259   2.452   0.833 -0.5389  0.6330  0.0541
 3066poe    c3115192   4.161   2.461   0.732 -0.5706 -0.2280  0.0060
 3067poe    c3115193   2.973   2.156   6.589 -0.1376 -0.5912  0.0234
 3067poe     o215194   3.030   2.213   6.704  0.1211 -0.0018 -0.3928
 3067poe    c2315195   2.934   2.217   6.807  0.2255  0.3811 -0.3078
 3067poe    c2315196   3.004   2.233   6.943 -0.2138  0.1606 -0.0539
 3067poe     o215197   3.047   2.364   6.973 -0.2203  0.2245 -0.3179
 3067poe    c2315198   3.110   2.374   7.099  0.4144 -0.6792 -0.5514
 3067poe    c2315199   3.225   2.476   7.094  0.1864 -0.3506  0.6345
 3067poe     o215200   3.334   2.438   7.014 -0.2581 -0.3771  0.0367
 3067poe    c2315201   3.440   2.531   7.024 -0.0361 -0.5753 -0.4297
 3067poe    c2315202   3.563   2.501   6.936  0.3598 -0.6045  0.1331
 3067poe     o215203   3.542   2.547   6.804  0.4414 -0.9286  0.0071
 3067poe    c3115204   3.654   2.517   6.724  0.4195  0.3035 -0.5074
 3068poe    c3115205   3.132   5.852   5.774  0.2341  0.5562  0.1085
 3068poe     o215206   3.254   5.918   5.800  0.7423 -0.4970  0.4191
 3068poe    c2315207   3.331   5.924   5.682  0.0871 -0.3090  0.0004
 3068poe    c2315208   3.456   6.005   5.719 -0.1023 -0.0400  0.0497
 3068poe     o215209   3.433   6.142   5.745 -0.0015 -0.0256  0.0637
 3068poe    c2315210   3.540   6.206   5.811 -0.1549  0.0501  0.2380
 3068poe    c2315211   3.557   6.358   5.794  0.4833 -0.0290  0.1493
 3068poe     o215212   3.609   6.392   5.667  0.3384 -0.5490 -0.0513
 3068poe    c2315213   3.635   6.529   5.685 -0.1191 -0.4755  0.0625
 3068poe    c2315214   3.681   6.600   5.556 -0.2267 -0.0195  0.2730
 3068poe     o215215   3.599   6.569   5.446  0.0608 -0.5591  0.2109
 3068poe    c3115216   3.633   6.629   5.323  0.1197 -0.4369  0.2874
 3069poe    c3115217   1.899   2.331   4.105  0.5441 -0.5571 -0.1924
 3069poe     o215218   2.032   2.344   4.059  0.4447 -1.1042 -0.6319
 3069poe    c2315219   2.123   2.271   4.138  0.7234 -0.0208  0.0620
 3069poe    c2315220   2.204   2.187   4.038 -0.0896  0.0986 -0.7111
 3069poe     o215221   2.248   2.276   3.938  0.4621  0.5660 -0.0651
 3069poe    c2315222   2.362   2.235   3.866  0.5060  0.2224  0.1969
 3069poe    c2315223   2.323   2.157   3.739  0.6208  0.1619  0.1987
 3069poe     o215224   2.245   2.237   3.653 -0.1849 -0.6099  0.2039
 3069poe    c2315225   2.180   2.149   3.563 -0.1507 -0.5585  0.1292
 3069poe    c2315226   2.132   2.223   3.437  0.4431  0.2454  0.3584
 3069poe     o215227   2.041   2.311   3.498 -0.0684  0.1421 -0.2430
 3069poe    c3115228   1.951   2.345   3.394 -0.0485 -0.2369 -0.3856
 3070poe    c3115229   0.082   2.307   3.276 -0.2372  0.2649 -0.4536
 3070poe     o215230   0.094   2.421   3.359  0.1379 -0.0408 -0.0850
 3070poe    c2315231   0.065   2.385   3.492 -0.1998  0.1812 -0.0987
 3070poe    c2315232   0.079   2.502   3.592 -0.0893 -0.1725  0.3044
 3070poe     o215233   0.207   2.557   3.616 -0.1136  0.0423 -0.0525
 3070poe    c2315234   0.192   2.694   3.648 -0.0180  0.0471 -0.0285
 3070poe    c2315235   0.329   2.761   3.625 -0.0767  0.1532 -0.0674
 3070poe     o215236   0.398   2.732   3.744 -0.1931  0.0784 -0.0180
 3070poe    c2315237   0.538   2.727   3.727 -0.1653  0.4271  0.0979
 3070poe    c2315238   0.623   2.725   3.855  0.5083 -0.3050 -0.3527
 3070poe     o215239   0.573   2.639   3.956  0.1597  0.2097 -0.0812
 3070poe    c3115240   0.630   2.654   4.083 -0.1162  0.1401  0.0514
 3071poe    c3115241   7.189   2.702   0.604  0.0458  0.0835 -0.5146
 3071poe     o215242   7.068   2.742   0.544 -0.4498  0.1275  0.4959
 3071poe    c2315243   7.023   2.632   0.468  0.0006  0.3413 -0.0845
 3071poe    c2315244   6.896   2.654   0.384 -0.1362 -0.3095 -0.0576
 3071poe     o215245   6.909   2.762   0.294  0.1647  0.2583  0.6576
 3071poe    c2315246   6.781   2.798   0.245  0.1846 -0.6060 -0.0373
 3071poe    c2315247   6.781   2.906   0.135 -0.0095 -0.3473  0.2189
 3071poe     o215248   6.891   2.990   0.158  0.0557 -0.2459 -0.4396
 3071poe    c2315249   6.909   3.068   0.042 -0.5276  0.3361 -0.1486
 3071poe    c2315250   7.027   3.163   0.071 -0.4215  0.1370  0.0776
 3071poe     o215251   7.127   3.085   0.131  0.0059  0.4439 -0.2292
 3071poe    c3115252   7.254   3.145   0.143  0.2348 -0.0086 -0.3603
 3072poe    c3115253   6.025   4.697   3.004 -0.7497  0.4597 -0.1597
 3072poe     o215254   6.012   4.694   3.144 -0.1390  0.1660 -0.1034
 3072poe    c2315255   5.920   4.591   3.171  0.0504  0.0685  0.1772
 3072poe    c2315256   5.880   4.579   3.319  0.2234 -0.5681  0.1735
 3072poe     o215257   5.819   4.697   3.367 -0.2610 -0.6975 -0.1214
 3072poe    c2315258   5.799   4.684   3.506 -0.2519 -0.4651 -0.0997
 3072poe    c2315259   5.680   4.763   3.563 -0.2736 -0.4571 -0.1574
 3072poe     o215260   5.673   4.903   3.577 -0.3241 -0.5199  0.4515
 3072poe    c2315261   5.569   4.954   3.658  0.3343  0.1552  0.8832
 3072poe    c2315262   5.471   5.049   3.586  0.4612  0.0330  0.5456
 3072poe     o215263   5.509   5.182   3.561  0.2060  0.0064 -0.0065
 3072poe    c3115264   5.400   5.261   3.517  0.0405 -0.3309 -0.2032
 3073poe    c3115265   6.319   4.764   2.697 -0.3006  0.2107  0.6140
 3073poe     o215266   6.333   4.890   2.634  0.4502 -0.1225  0.1035
 3073poe    c2315267   6.213   4.960   2.661  0.5430 -0.0722  0.3848
 3073poe    c2315268   6.207   5.095   2.586 -0.4157 -0.1902  0.2369
 3073poe     o215269   6.204   5.075   2.446 -0.2439 -0.3192  0.2508
 3073poe    c2315270   6.218   5.194   2.373  0.6016 -0.5359  0.0547
 3073poe    c2315271   6.185   5.147   2.230  0.1567 -0.8943  0.2745
 3073poe     o215272   6.291   5.079   2.166  0.3145 -0.3391 -0.0634
 3073poe    c2315273   6.270   5.067   2.027 -0.0809  0.0509 -0.0387
 3073poe    c2315274   6.375   4.984   1.952  0.2314  0.5020 -0.1073
 3073poe     o215275   6.389   4.852   2.000  0.1231  0.2959 -0.6294
 3073poe    c3115276   6.479   4.777   1.921 -0.1872 -0.3514 -0.3750
 3074poe    c3115277   0.365   0.776   4.346  0.1005  0.4395 -0.3428
 3074poe     o215278   0.299   0.901   4.341  0.0980  0.4403 -0.2917
 3074poe    c2315279   0.383   1.010   4.313 -0.0723  0.6898  0.1694
 3074poe    c2315280   0.296   1.137   4.301 -0.5881  0.3141 -0.0828
 3074poe     o215281   0.207   1.154   4.192 -0.2675  0.7032 -0.2889
 3074poe    c2315282   0.256   1.140   4.061 -0.1628  0.2472 -0.2045
 3074poe    c2315283   0.170   1.207   3.952  0.2821  0.4367 -0.4403
 3074poe     o215284   0.152   1.347   3.958 -0.0632  0.3719  0.1159
 3074poe    c2315285   0.114   1.408   3.837  0.1945  0.3897  0.0432
 3074poe    c2315286   0.081   1.556   3.867 -0.1965  0.4022 -0.4355
 3074poe     o215287   0.195   1.630   3.902 -0.1374  0.1319 -0.0478
 3074poe    c3115288   0.171   1.767   3.876 -0.9271  0.0415  0.1919
 3075poe    c3115289   0.914   0.269   4.588  0.4590 -0.1054 -0.2296
 3075poe     o215290   1.028   0.274   4.670 -0.0348 -0.2878  0.4739
 3075poe    c2315291   1.117   0.170   4.639 -0.0148 -0.1766  0.1590
 3075poe    c2315292   1.147   0.083   4.762  0.1934 -0.0403  0.2036
 3075poe     o215293   1.025   0.039   4.818  0.2339  0.3862  0.6323
 3075poe    c2315294   1.040   0.059   4.956  0.0672  0.7000  0.6068
 3075poe    c2315295   0.914   0.013   5.031  0.0929 -0.4666 -0.0614
 3075poe     o215296   0.788   0.068   5.001  0.2214  0.0715  0.3809
 3075poe    c2315297   0.774   0.193   5.065 -0.1064 -0.0611  0.5671
 3075poe    c2315298   0.671   0.286   4.998  0.3306  0.0336  0.0178
 3075poe     o215299   0.732   0.375   4.908 -0.0173  0.1356 -0.1198
 3075poe    c3115300   0.645   0.424   4.808 -0.2225  0.2251  0.1010
 3076poe    c3115301   6.441   4.396   4.565 -0.6006 -0.4815  0.0195
 3076poe     o215302   6.461   4.466   4.445 -0.2460 -0.3722  0.1406
 3076poe    c2315303   6.333   4.501   4.398 -0.0674  0.2901  0.1295
 3076poe    c2315304   6.344   4.589   4.272 -0.4617 -0.1135 -0.1914
 3076poe     o215305   6.400   4.517   4.164  0.0606  0.1486 -0.0960
 3076poe    c2315306   6.436   4.585   4.046  0.2959 -0.2881 -0.2752
 3076poe    c2315307   6.560   4.506   3.998  0.5632 -0.1562  0.1879
 3076poe     o215308   6.528   4.369   3.992  0.4141 -0.1175  0.0886
 3076poe    c2315309   6.609   4.301   3.899  0.2626  0.5324 -0.5279
 3076poe    c2315310   6.563   4.156   3.872  0.1710  0.4377  0.1180
 3076poe     o215311   6.566   4.091   3.997 -0.5224  0.1077 -0.0285
 3076poe    c3115312   6.534   3.956   3.973  0.2320 -0.0368 -0.2733
 3077poe    c3115313   3.795   1.941   1.283  0.1141  0.7265 -0.0929
 3077poe     o215314   3.659   1.954   1.250  0.0481 -0.1885 -0.2163
 3077poe    c2315315   3.646   2.087   1.203  0.6211 -0.1098 -0.1601
 3077poe    c2315316   3.508   2.125   1.146  0.1172 -0.8144  0.5805
 3077poe     o215317   3.453   2.008   1.088 -0.1502 -0.0788 -0.6678
 3077poe    c2315318   3.327   2.047   1.038 -0.2133 -0.1747 -0.5847
 3077poe    c2315319   3.251   1.921   0.993 -0.2034 -0.3235 -0.1834
 3077poe     o215320   3.311   1.884   0.871 -0.1375  0.1839 -0.3056
 3077poe    c2315321   3.239   1.781   0.808 -0.5135  0.1218  0.2242
 3077poe    c2315322   3.300   1.755   0.669  0.0290  0.6146  0.3659
 3077poe     o215323   3.412   1.670   0.665 -0.2319  0.2738  0.2319
 3077poe    c3115324   3.459   1.640   0.536  0.2101 -0.0370  0.4618
 3078poe    c3115325   3.202   5.218   4.568 -0.1440 -0.1818 -0.1078
 3078poe     o215326   3.167   5.352   4.545 -0.1821 -0.2056 -0.1884
 3078poe    c2315327   3.038   5.365   4.489 -0.2779  0.0335  0.0852
 3078poe    c2315328   3.005   5.512   4.455  0.3031  0.1789  0.1448
 3078poe     o215329   3.039   5.570   4.579  0.3252 -0.1663  0.3021
 3078poe    c2315330   3.056   5.710   4.578  0.1507 -0.1490 -0.3668
 3078poe    c2315331   3.118   5.771   4.705 -0.2612 -0.4438 -0.0208
 3078poe     o215332   3.246   5.712   4.717 -0.2468 -0.3655  0.1996
 3078poe    c2315333   3.324   5.787   4.808 -0.1092  0.2357 -0.4025
 3078poe    c2315334   3.473   5.748   4.814 -0.2981 -0.4209  0.2132
 3078poe     o215335   3.485   5.617   4.864 -0.0275 -0.3100  0.4410
 3078poe    c3115336   3.617   5.571   4.883  0.3898  0.8597  0.4349
 3079poe    c3115337   5.557   5.819   1.960 -0.0825  0.4238  0.1474
 3079poe     o215338   5.611   5.774   2.083 -0.4067 -0.3095  0.0238
 3079poe    c2315339   5.640   5.636   2.076 -0.1175 -0.2456 -0.0273
 3079poe    c2315340   5.661   5.590   2.222  0.3549 -0.0314 -0.0244
 3079poe     o215341   5.738   5.696   2.273  0.1079  0.2095 -0.1523
 3079poe    c2315342   5.774   5.668   2.406  0.0244  0.1497 -0.1423
 3079poe    c2315343   5.871   5.779   2.452  0.6678 -0.2204 -0.5995
 3079poe     o215344   5.832   5.908   2.414  0.2473 -0.1987 -0.1016
 3079poe    c2315345   5.874   6.002   2.510  0.2955 -0.2400 -0.0827
 3079poe    c2315346   5.784   6.124   2.535 -0.0237 -0.5507  0.3043
 3079poe     o215347   5.656   6.074   2.567 -0.4400  0.2558 -0.0693
 3079poe    c3115348   5.594   6.177   2.642  0.6406  0.6194  0.3401
 3080poe    c3115349   0.250   7.050   1.467 -0.1432  0.2312 -0.3186
 3080poe     o215350   0.141   7.117   1.527 -0.0485  0.2006 -0.1144
 3080poe    c2315351   0.024   7.040   1.510 -0.1152  0.2147  0.2651
 3080poe    c2315352  -0.057   7.089   1.389 -0.2173 -0.3444  0.1042
 3080poe     o215353  -0.142   7.194   1.430 -0.0232 -0.0531 -0.2301
 3080poe    c2315354  -0.206   7.263   1.325  0.0676  0.2128 -0.1101
 3080poe    c2315355  -0.241   7.405   1.375 -0.0109  0.1296  0.0731
 3080poe     o215356  -0.140   7.502   1.358  0.3313 -0.2649 -0.1671
 3080poe    c2315357  -0.181   7.634   1.384  0.5276 -0.2081 -0.1463
 3080poe    c2315358  -0.073   7.740   1.351 -0.4454  0.8986  0.1515
 3080poe     o215359   0.045   7.735   1.427 -0.5218 -0.4436  0.2069
 3080poe    c3115360   0.154   7.791   1.357 -0.9189  0.5213  0.3484
 3081poe    c3115361   7.093   0.960   2.398 -0.4654  0.4618 -0.6845
 3081poe     o215362   7.210   0.890   2.436 -0.7176 -0.0106 -0.7639
 3081poe    c2315363   7.281   0.871   2.316  0.0827 -0.5464 -0.2120
 3081poe    c2315364   7.430   0.860   2.353  0.0309 -0.4105  0.0427
 3081poe     o215365   7.430   0.779   2.469 -0.0317 -0.3611  0.0767
 3081poe    c2315366   7.558   0.780   2.528 -0.1287 -0.6046  0.2928
 3081poe    c2315367   7.546   0.869   2.653 -0.4178 -0.0144 -0.1519
 3081poe     o215368   7.420   0.826   2.698 -0.0864 -0.5086  0.3067
 3081poe    c2315369   7.383   0.894   2.816  0.4328 -0.1035  0.2344
 3081poe    c2315370   7.231   0.879   2.829  0.3252  0.5635 -0.1836
 3081poe     o215371   7.159   0.854   2.711 -0.0078 -0.1000  0.1507
 3081poe    c3115372   7.021   0.883   2.716  0.0664  0.3217 -0.1717
 3082poe    c3115373   3.235   1.951   6.762 -0.4363 -0.3773  0.3022
 3082poe     o215374   3.303   1.843   6.822  0.1263 -0.1549  0.0754
 3082poe    c2315375   3.223   1.728   6.804  0.0311 -0.0426 -0.2373
 3082poe    c2315376   3.290   1.599   6.854  0.1309  0.1614  0.1653
 3082poe     o215377   3.325   1.593   6.990  0.2080 -0.2728  0.1294
 3082poe    c2315378   3.210   1.577   7.070  0.1751 -0.4491  0.0473
 3082poe    c2315379   3.247   1.559   7.219  0.1290  0.0041  0.1151
 3082poe     o215380   3.349   1.463   7.238  0.5258  0.3540 -0.2241
 3082poe    c2315381   3.383   1.444   7.374  0.5169 -0.4452 -0.3315
 3082poe    c2315382   3.420   1.306   7.432  0.5105 -0.1773  0.3141
 3082poe     o215383   3.328   1.199   7.430 -0.1728  0.4068 -0.1408
 3082poe    c3115384   3.364   1.108   7.531 -0.0249  0.2796 -0.3066
 3083poe    c3115385   2.737   4.789   4.143  0.1160 -0.1609 -0.5046
 3083poe     o215386   2.782   4.733   4.264 -0.0349  0.0145 -0.3675
 3083poe    c2315387   2.781   4.594   4.241 -0.6469 -0.0661  0.1140
 3083poe    c2315388   2.800   4.499   4.360 -0.3349  0.2356  0.3071
 3083poe     o215389   2.910   4.523   4.445 -0.0020  0.5272 -0.1990
 3083poe    c2315390   2.880   4.484   4.577  0.4617 -0.8211 -0.4791
 3083poe    c2315391   2.992   4.542   4.666  0.0131 -0.2749 -0.2674
 3083poe     o215392   3.112   4.509   4.600  0.1791 -0.1276 -0.0405
 3083poe    c2315393   3.221   4.553   4.678 -0.0528 -0.4640  0.4839
 3083poe    c2315394   3.350   4.515   4.603 -0.3144 -0.3533 -0.0264
 3083poe     o215395   3.329   4.557   4.470  0.2535 -0.6201 -0.2032
 3083poe    c3115396   3.453   4.562   4.401  0.1627 -0.3334 -0.3473
 3084poe    c3115397   1.614   5.555   5.650 -0.2905 -0.8761 -0.3958
 3084poe     o215398   1.698   5.544   5.537  0.3326 -0.4142  0.0162
 3084poe    c2315399   1.635   5.493   5.422 -0.0066 -0.1706  0.0922
 3084poe    c2315400   1.731   5.508   5.303 -0.0773 -0.1070  0.0430
 3084poe     o215401   1.862   5.497   5.353  0.0245 -0.2931 -0.2608
 3084poe    c2315402   1.968   5.494   5.260  0.1898  0.5567 -0.1096
 3084poe    c2315403   2.104   5.463   5.324  0.0356 -0.1698 -0.1261
 3084poe     o215404   2.122   5.542   5.439 -0.1813 -0.0736 -0.1582
 3084poe    c2315405   2.258   5.543   5.476 -0.1553 -0.1148 -0.2533
 3084poe    c2315406   2.271   5.609   5.615  0.4387 -0.0950 -0.3147
 3084poe     o215407   2.228   5.547   5.733 -0.0436  0.2739 -0.2924
 3084poe    c3115408   2.245   5.613   5.857  0.8714  0.1464 -0.3492
 3085poe    c3115409   2.181   4.283   3.818  0.3748 -0.4613 -0.3270
 3085poe     o215410   2.223   4.288   3.683 -0.3492 -0.0336 -0.5444
 3085poe    c2315411   2.144   4.189   3.622  0.0434 -0.4876 -0.3220
 3085poe    c2315412   2.143   4.193   3.468  0.1056 -0.3643 -0.3185
 3085poe     o215413   2.268   4.180   3.403  0.3726  1.1849 -0.1690
 3085poe    c2315414   2.238   4.166   3.265 -0.6629 -0.3015  0.1725
 3085poe    c2315415   2.361   4.134   3.178 -0.1573 -0.0788  0.7887
 3085poe     o215416   2.453   4.241   3.183  0.1605 -0.2893 -0.2944
 3085poe    c2315417   2.552   4.216   3.086  0.2423 -0.2954 -0.2085
 3085poe    c2315418   2.660   4.326   3.073 -0.5314  0.5148  0.1330
 3085poe     o215419   2.752   4.339   3.179  0.0832  0.3728 -0.3823
 3085poe    c3115420   2.837   4.446   3.144  0.3145  0.1802 -0.4183
 3086poe    c3115421   6.833   0.480   4.082 -0.5358  0.0805 -0.1440
 3086poe     o215422   6.854   0.600   4.011 -0.0848 -0.1041 -0.3251
 3086poe    c2315423   6.965   0.607   3.924  0.1902  0.1442  0.0420
 3086poe    c2315424   7.100   0.630   3.994  0.6412 -0.4447 -0.6245
 3086poe     o215425   7.111   0.762   4.042 -0.4102 -0.5352 -0.1126
 3086poe    c2315426   7.211   0.768   4.142 -0.1555  0.2913 -0.4088
 3086poe    c2315427   7.232   0.908   4.203 -0.3996  0.4161 -0.6089
 3086poe     o215428   7.131   0.966   4.283 -0.2814 -0.3522  0.1086
 3086poe    c2315429   7.097   0.897   4.402  0.5980 -0.6465  0.1987
 3086poe    c2315430   7.001   0.970   4.498  0.0989  0.4754 -1.1171
 3086poe     o215431   6.867   0.978   4.455 -0.2244 -0.1933 -0.2487
 3086poe    c3115432   6.794   1.070   4.532 -0.1602 -0.2416 -0.1300
 3087poe    c3115433   5.326   4.915   0.265  0.1240 -0.0313 -0.1354
 3087poe     o215434   5.213   4.973   0.206 -0.2607 -0.7141 -0.0797
 3087poe    c2315435   5.094   4.897   0.201 -0.6106 -0.1805  0.0284
 3087poe    c2315436   4.991   4.950   0.100 -0.5960 -0.0485  0.0827
 3087poe     o215437   4.990   5.090   0.120 -0.1955 -0.0236 -0.0781
 3087poe    c2315438   4.887   5.143   0.040  0.1856  0.0786 -0.5032
 3087poe    c2315439   4.905   5.295   0.030  0.4099  0.1164  0.4293
 3087poe     o215440   4.896   5.329   0.167 -0.1166  0.0111  0.4211
 3087poe    c2315441   4.925   5.467   0.174  0.3593 -0.0817  0.2904
 3087poe    c2315442   4.884   5.521   0.312 -0.1077  0.5321 -0.0791
 3087poe     o215443   4.946   5.464   0.426 -0.4359  0.1542 -0.0893
 3087poe    c3115444   5.030   5.550   0.499 -0.0446  0.0901 -0.4589
 3088poe    c3115445   3.814   3.570   6.246 -0.1324  0.8822 -0.0981
 3088poe     o215446   3.675   3.565   6.222 -0.0935  0.0703 -0.1871
 3088poe    c2315447   3.604   3.552   6.344 -0.1749  0.0801 -0.2334
 3088poe    c2315448   3.456   3.546   6.305 -0.2134 -0.0535 -0.0664
 3088poe     o215449   3.458   3.449   6.202 -0.2527 -0.5263  0.3748
 3088poe    c2315450   3.326   3.424   6.160 -0.2567 -0.3931  0.3085
 3088poe    c2315451   3.314   3.383   6.012  0.0607  0.5901 -0.0008
 3088poe     o215452   3.420   3.297   5.978 -0.5593 -0.1643 -0.0590
 3088poe    c2315453   3.366   3.178   5.926  0.2122 -0.6302  0.1853
 3088poe    c2315454   3.486   3.094   5.879  0.8002  0.3316 -0.0694
 3088poe     o215455   3.572   3.050   5.981  0.1174 -0.2425  0.2743
 3088poe    c3115456   3.645   2.932   5.953  0.4106 -0.0863  0.3681
 3089poe    c3115457   0.833   2.373   0.499  0.2681 -0.3119  0.5528
 3089poe     o215458   0.707   2.432   0.519  0.0765 -0.4138 -0.3138
 3089poe    c2315459   0.610   2.394   0.423  0.1232  0.0199 -0.5322
 3089poe    c2315460   0.474   2.462   0.446  0.1474 -0.0725 -0.1113
 3089poe     o215461   0.430   2.402   0.566 -0.0913  0.1768 -0.0708
 3089poe    c2315462   0.296   2.428   0.597 -0.1067  0.1426 -0.1074
 3089poe    c2315463   0.258   2.347   0.722  0.3168 -0.0185 -0.0837
 3089poe     o215464   0.324   2.395   0.837  0.0793  0.1151 -0.0020
 3089poe    c2315465   0.283   2.330   0.955 -0.0126  0.3333  0.0871
 3089poe    c2315466   0.342   2.416   1.068 -0.4767 -0.3108  0.8338
 3089poe     o215467   0.479   2.432   1.040 -0.7370  0.4358 -0.0778
 3089poe    c3115468   0.523   2.496   1.158 -0.2465  0.5746 -0.3313
 3090poe    c3115469   6.442   0.999   2.870  0.0275 -0.0188 -0.7207
 3090poe     o215470   6.443   1.139   2.858 -0.0236  0.0359 -0.1143
 3090poe    c2315471   6.565   1.189   2.909 -0.2305  0.4037  0.0188
 3090poe    c2315472   6.567   1.343   2.918  0.3125  0.4244 -0.4340
 3090poe     o215473   6.450   1.391   2.980  0.0082 -0.2386 -0.4874
 3090poe    c2315474   6.416   1.527   2.964  0.3009 -0.1202 -0.0965
 3090poe    c2315475   6.281   1.552   3.034  0.0370  0.4324 -0.7936
 3090poe     o215476   6.189   1.467   2.970 -0.0865  0.0326 -0.0943
 3090poe    c2315477   6.055   1.504   2.998 -0.0424  0.0854  0.0441
 3090poe    c2315478   5.972   1.419   2.899 -0.5495  0.5394  0.0771
 3090poe     o215479   5.955   1.476   2.772  0.4443 -0.3743 -0.4809
 3090poe    c3115480   5.843   1.559   2.749  0.6080 -0.0318 -0.0468
 3091poe    c3115481   5.316   2.595   6.726  0.7001 -0.2334 -0.1830
 3091poe     o215482   5.396   2.640   6.832  0.3041  0.0713 -0.0125
 3091poe    c2315483   5.352   2.588   6.955 -0.2836 -0.5745 -0.4929
 3091poe    c2315484   5.466   2.584   7.058 -0.2280  0.1458 -0.5249
 3091poe     o215485   5.502   2.713   7.103  0.3508  0.0068 -0.5763
 3091poe    c2315486   5.573   2.710   7.225 -0.2302 -0.5353 -0.2423
 3091poe    c2315487   5.517   2.836   7.296  0.6581  0.0233 -0.5169
 3091poe     o215488   5.504   2.942   7.205 -0.0758  0.3082 -0.0883
 3091poe    c2315489   5.445   3.057   7.262  0.4847  0.5382  0.0340
 3091poe    c2315490   5.466   3.172   7.162  0.0322  0.4097 -0.2130
 3091poe     o215491   5.423   3.123   7.037 -0.7324 -0.2362  0.2978
 3091poe    c3115492   5.408   3.230   6.947  0.6530 -0.5976 -0.3810
 3092poe    c3115493   6.115   5.275   0.814  0.3706 -0.0936  0.2866
 3092poe     o215494   6.217   5.248   0.721  0.7716  0.0977  0.6673
 3092poe    c2315495   6.228   5.340   0.614  0.1249 -1.1256 -0.4815
 3092poe    c2315496   6.352   5.296   0.534  0.7512 -0.3401  0.0367
 3092poe     o215497   6.472   5.345   0.589  0.5062 -0.1028  0.3597
 3092poe    c2315498   6.565   5.354   0.484  0.5066 -0.3312  0.3397
 3092poe    c2315499   6.702   5.410   0.525  0.2836  0.2585  0.2907
 3092poe     o215500   6.718   5.549   0.505  0.1565  0.2990  0.4681
 3092poe    c2315501   6.664   5.638   0.600  0.4002  0.5077  0.4100
 3092poe    c2315502   6.713   5.784   0.587  0.4230  0.4454 -0.2428
 3092poe     o215503   6.675   5.827   0.458 -0.1261 -0.1560 -0.2850
 3092poe    c3115504   6.672   5.968   0.450 -0.1540 -0.1815 -0.7520
 3093poe    c3115505   4.910   1.925   0.350 -0.2364 -0.3056  0.0725
 3093poe     o215506   4.918   1.829   0.247  0.5137 -0.3056  0.1263
 3093poe    c2315507   4.805   1.746   0.259  0.3850 -0.0690  0.5599
 3093poe    c2315508   4.812   1.630   0.159  0.4348  0.4886 -0.0916
 3093poe     o215509   4.842   1.690   0.035 -0.2455  0.6703 -0.1749
 3093poe    c2315510   4.758   1.621  -0.055  0.4169  0.2693 -0.5002
 3093poe    c2315511   4.740   1.704  -0.183 -0.0666  0.1647 -0.5049
 3093poe     o215512   4.857   1.715  -0.262  0.3897  0.5784  0.2151
 3093poe    c2315513   4.817   1.793  -0.373  0.2664  0.7186  0.3568
 3093poe    c2315514   4.939   1.856  -0.442  0.0022  0.0698 -0.7182
 3093poe     o215515   5.039   1.768  -0.489  0.5602  0.3470 -0.0735
 3093poe    c3115516   4.997   1.686  -0.596 -0.4345  0.1419  0.4559
 3094poe    c3115517   0.546   2.884   1.174 -0.0137 -1.1492 -0.2736
 3094poe     o215518   0.665   2.884   1.098  0.3953 -0.3485  0.3452
 3094poe    c2315519   0.758   2.960   1.171  0.1061 -0.2631  0.6272
 3094poe    c2315520   0.879   3.008   1.089 -0.2567 -0.0729  0.1991
 3094poe     o215521   0.860   3.098   0.983  0.1807  0.0198  0.1977
 3094poe    c2315522   0.780   3.052   0.877  0.3201 -0.0628  0.1276
 3094poe    c2315523   0.649   3.133   0.875  0.1303 -0.3724 -0.0919
 3094poe     o215524   0.665   3.269   0.844  0.1676 -0.2817  0.3197
 3094poe    c2315525   0.544   3.338   0.867  0.1079 -0.0653 -0.5926
 3094poe    c2315526   0.571   3.490   0.857 -0.0151  0.0038  0.0918
 3094poe     o215527   0.513   3.557   0.748  0.0251 -0.1232 -0.0089
 3094poe    c3115528   0.580   3.678   0.722  0.4862 -0.3839 -0.0321
 3095poe    c3115529   6.119   5.690   5.707 -0.4125  0.2457 -0.1048
 3095poe     o215530   6.156   5.640   5.581  0.1438 -0.3340  0.2814
 3095poe    c2315531   6.224   5.749   5.523  0.1086 -0.3717  0.1698
 3095poe    c2315532   6.216   5.714   5.373  0.2599  0.4313 -0.0324
 3095poe     o215533   6.254   5.578   5.365  0.0892  0.4151 -0.5874
 3095poe    c2315534   6.265   5.535   5.231  0.0234 -0.5054 -0.3076
 3095poe    c2315535   6.326   5.394   5.228  0.0238 -0.5045 -0.3420
 3095poe     o215536   6.255   5.315   5.320  0.0236  0.1204  0.1993
 3095poe    c2315537   6.332   5.200   5.343 -0.1917 -0.0344  0.1424
 3095poe    c2315538   6.262   5.082   5.413 -0.1849 -0.2826 -0.2683
 3095poe     o215539   6.210   5.111   5.541 -0.2504  0.0732 -0.3742
 3095poe    c3115540   6.189   4.993   5.616 -0.0781  0.0272 -0.3964
 3096poe    c3115541   2.954   6.793   0.316 -0.0368  0.3399 -0.3668
 3096poe     o215542   3.043   6.893   0.362 -0.5658  0.6605 -0.0146
 3096poe    c2315543   3.119   6.940   0.253  0.2958 -0.4497  0.0865
 3096poe    c2315544   3.220   7.043   0.307 -0.1302  0.0270 -0.0215
 3096poe     o215545   3.326   6.980   0.374  0.2037  0.1435 -0.4354
 3096poe    c2315546   3.442   7.058   0.396 -0.2506  0.4925  0.8163
 3096poe    c2315547   3.560   6.988   0.465  0.1261  0.1552 -0.1482
 3096poe     o215548   3.587   6.855   0.427  0.3077  0.1010  0.1659
 3096poe    c2315549   3.705   6.798   0.478 -0.1319 -0.2200  0.8387
 3096poe    c2315550   3.683   6.661   0.546 -0.4886 -0.4612  0.2415
 3096poe     o215551   3.631   6.563   0.459 -0.2225 -0.1717 -0.2505
 3096poe    c3115552   3.590   6.445   0.525 -0.4006 -0.0500 -0.1414
 3097poe    c3115553   5.095   5.003   6.942 -0.0015 -0.1012 -0.1700
 3097poe     o215554   5.208   4.932   6.989 -0.1077 -0.4130 -0.3851
 3097poe    c2315555   5.318   5.015   7.020 -0.4755  0.0416 -0.2825
 3097poe    c2315556   5.431   4.934   7.086 -0.2563  0.2911 -0.3515
 3097poe     o215557   5.432   4.817   7.008  0.0647  0.2289 -0.2547
 3097poe    c2315558   5.532   4.724   7.042 -0.0562  0.2219  0.0843
 3097poe    c2315559   5.529   4.637   6.915  0.0187  0.2736  0.0469
 3097poe     o215560   5.401   4.605   6.867  0.0394  0.2630 -0.0017
 3097poe    c2315561   5.402   4.486   6.791 -0.0410  0.5519 -0.4640
 3097poe    c2315562   5.254   4.456   6.762 -0.0121  0.2645 -0.3148
 3097poe     o215563   5.182   4.552   6.689 -0.4394  0.2820  0.1245
 3097poe    c3115564   5.068   4.487   6.637 -0.6738  0.1777  0.7678
 3098poe    c3115565   3.532   1.588   4.503  0.1437 -0.3893 -0.0323
 3098poe     o215566   3.468   1.652   4.395  0.2818 -0.0060  0.1117
 3098poe    c2315567   3.335   1.669   4.437  0.2795  0.7444 -0.1891
 3098poe    c2315568   3.263   1.759   4.334 -0.2164 -0.3770 -0.8459
 3098poe     o215569   3.309   1.891   4.317  0.5612 -0.4225  0.7348
 3098poe    c2315570   3.272   1.984   4.417 -0.3872  0.2317 -0.2169
 3098poe    c2315571   3.313   2.123   4.364  0.2704  0.0593 -0.1725
 3098poe     o215572   3.443   2.132   4.312  0.3191  0.5383  0.0286
 3098poe    c2315573   3.471   2.253   4.245  0.2725  0.3600 -0.3118
 3098poe    c2315574   3.623   2.250   4.222  0.3289 -0.2112  0.1168
 3098poe     o215575   3.671   2.344   4.129 -0.0237  0.2964  0.4442
 3098poe    c3115576   3.811   2.331   4.126 -0.0259  0.2170  0.6578
 3099poe    c3115577   1.968   1.745   1.491 -0.0630 -0.0755  0.4196
 3099poe     o215578   1.920   1.838   1.586  1.1669  0.4385  0.5610
 3099poe    c2315579   1.803   1.794   1.651  0.8194  0.6573  0.0842
 3099poe    c2315580   1.776   1.862   1.786  0.5975  0.1388  0.3031
 3099poe     o215581   1.750   2.001   1.788 -0.3081 -0.0171  0.1374
 3099poe    c2315582   1.681   2.046   1.902  0.0565 -0.4099  0.5187
 3099poe    c2315583   1.683   2.200   1.913  0.1549 -0.3395 -0.3971
 3099poe     o215584   1.640   2.243   1.786  0.1761 -0.1196 -0.3297
 3099poe    c2315585   1.660   2.381   1.763  0.2066 -0.0647  0.0139
 3099poe    c2315586   1.770   2.404   1.658  0.2544 -0.3494 -0.0004
 3099poe     o215587   1.897   2.346   1.681  0.3679 -0.2200 -0.2801
 3099poe    c3115588   2.011   2.405   1.624 -0.1619  0.1219 -0.9927
 3100poe    c3115589   5.082   4.823   1.033 -0.4071  0.0465  0.0526
 3100poe     o215590   5.171   4.923   0.989 -0.5756  0.1889  0.0328
 3100poe    c2315591   5.238   4.873   0.876  0.1227  0.5325  0.2931
 3100poe    c2315592   5.372   4.947   0.855  0.3083 -0.0596 -0.7186
 3100poe     o215593   5.353   5.078   0.905  0.4992 -0.2685 -0.0814
 3100poe    c2315594   5.470   5.146   0.865  0.0739  0.2117 -0.5270
 3100poe    c2315595   5.477   5.269   0.958  0.8591 -0.1684 -0.0684
 3100poe     o215596   5.352   5.336   0.960  1.0128  0.1212 -0.1491
 3100poe    c2315597   5.325   5.374   1.093 -0.3209  0.6766 -0.5611
 3100poe    c2315598   5.195   5.320   1.156  0.2811  0.0552  0.1868
 3100poe     o215599   5.169   5.183   1.141  0.0791  0.0968  0.1446
 3100poe    c3115600   5.047   5.153   1.205 -0.1205  1.0730  0.2321
 3101poe    c3115601   5.588   6.665   5.892  0.7925  0.6141  0.4571
 3101poe     o215602   5.619   6.784   5.823 -0.3265  0.9183  0.4632
 3101poe    c2315603   5.754   6.820   5.845 -0.1409  0.5167  0.0029
 3101poe    c2315604   5.864   6.815   5.738  0.0823  0.3275  0.2414
 3101poe     o215605   5.898   6.682   5.703 -0.1507  0.2885  0.1613
 3101poe    c2315606   6.010   6.680   5.617 -0.0542  0.0929  0.2913
 3101poe    c2315607   6.033   6.545   5.546 -0.0985  0.1902  0.0931
 3101poe     o215608   5.931   6.502   5.459  0.0249  0.0931 -0.0022
 3101poe    c2315609   5.969   6.387   5.386  0.1873  0.5163 -0.5974
 3101poe    c2315610   5.878   6.341   5.271 -0.1331  0.1433 -0.1988
 3101poe     o215611   5.865   6.423   5.157  0.2637  0.4278 -0.0405
 3101poe    c3115612   5.862   6.339   5.043  0.0783  0.1813  0.1437
 3102poe    c3115613   5.487   4.849   4.378 -0.1986 -0.0623 -0.5531
 3102poe     o215614   5.503   4.988   4.363  0.0316  0.0034  0.2471
 3102poe    c2315615   5.624   5.023   4.299  0.1708 -0.0195  0.4945
 3102poe    c2315616   5.616   5.136   4.194  0.4754  0.0845  0.5837
 3102poe     o215617   5.570   5.255   4.252  0.2087  0.1091  0.3193
 3102poe    c2315618   5.589   5.374   4.178 -0.3761  0.0605  0.0799
 3102poe    c2315619   5.498   5.409   4.059 -0.1807  0.2726 -0.0084
 3102poe     o215620   5.372   5.447   4.111 -0.6730 -0.4947 -0.6213
 3102poe    c2315621   5.274   5.501   4.025 -0.3665  0.3882 -0.4307
 3102poe    c2315622   5.146   5.537   4.104 -0.3409 -0.4085 -0.0064
 3102poe     o215623   5.140   5.648   4.191  0.0222 -0.2238 -0.2143
 3102poe    c3115624   5.019   5.641   4.262  0.0862 -0.0349 -0.0865
 3103poe    c3115625   3.570   2.897   0.955 -0.1139  0.2906 -0.6066
 3103poe     o215626   3.458   2.948   0.885 -0.6461 -0.3065 -0.1931
 3103poe    c2315627   3.377   3.028   0.968  0.0933  0.0068  0.2402
 3103poe    c2315628   3.227   2.994   0.958  0.0771  0.1583 -0.0203
 3103poe     o215629   3.182   3.014   0.826  0.0408 -0.8842 -0.1748
 3103poe    c2315630   3.042   3.003   0.818 -0.1232  0.5736  0.3417
 3103poe    c2315631   2.994   3.023   0.673  0.4246 -0.0396  0.0683
 3103poe     o215632   3.053   2.928   0.588  0.0219 -0.0665 -0.1862
 3103poe    c2315633   2.997   2.920   0.459 -0.0432 -0.3931 -0.1379
 3103poe    c2315634   3.087   2.852   0.353  0.1995  0.2307 -0.3344
 3103poe     o215635   3.208   2.920   0.333  0.0204  0.7162  0.2000
 3103poe    c3115636   3.206   2.991   0.211 -0.3047  0.2096 -0.0873
 3104poe    c3115637   5.110   5.289   5.745 -0.3543 -0.1992 -0.1377
 3104poe     o215638   5.208   5.391   5.749 -0.1040 -0.4567  0.3632
 3104poe    c2315639   5.328   5.338   5.800  0.6243  0.7038 -0.1078
 3104poe    c2315640   5.342   5.352   5.953 -0.3821 -0.4803  0.1014
 3104poe     o215641   5.315   5.482   5.998  0.3820 -0.4387  0.4557
 3104poe    c2315642   5.351   5.489   6.134  0.1236  0.5548  0.4842
 3104poe    c2315643   5.306   5.625   6.192 -0.2263  0.6510 -0.0094
 3104poe     o215644   5.167   5.634   6.171 -0.2458 -0.3334 -0.3915
 3104poe    c2315645   5.104   5.751   6.218  0.9052  0.2265 -0.1987
 3104poe    c2315646   5.121   5.878   6.132 -0.1479  0.4797 -0.0537
 3104poe     o215647   5.065   5.852   6.006  0.1065 -0.7366  0.0710
 3104poe    c3115648   5.056   5.976   5.938  0.2609 -0.3009  0.8368
 3105poe    c3115649   4.897   0.996   6.948  0.4128  0.0396 -0.3981
 3105poe     o215650   4.786   1.084   6.951  0.3595 -0.0351 -0.2005
 3105poe    c2315651   4.770   1.124   7.086 -0.3313  0.5567 -0.4527
 3105poe    c2315652   4.624   1.169   7.101 -0.3714  0.4027 -0.3776
 3105poe     o215653   4.604   1.290   7.032  0.0638  0.4176 -0.4744
 3105poe    c2315654   4.470   1.331   7.022 -0.2064 -0.4553 -0.5238
 3105poe    c2315655   4.477   1.449   6.923  0.0929 -0.0645 -0.0465
 3105poe     o215656   4.522   1.407   6.796 -0.1057 -0.2063 -0.0712
 3105poe    c2315657   4.526   1.517   6.707  1.1367 -0.2527 -0.0847
 3105poe    c2315658   4.559   1.482   6.560  0.0226  0.0962 -0.4235
 3105poe     o215659   4.692   1.437   6.568 -0.0491  0.0064  0.4707
 3105poe    c3115660   4.759   1.474   6.449 -0.4093  0.1479  0.3112
 3106poe    c3115661   5.270   0.776   2.230 -0.4552 -0.7804  0.2933
 3106poe     o215662   5.198   0.799   2.111 -0.2265 -0.0463  0.2922
 3106poe    c2315663   5.139   0.681   2.061 -0.3052  0.0666  0.1177
 3106poe    c2315664   5.046   0.706   1.941  0.2021 -0.7651 -0.4611
 3106poe     o215665   5.122   0.738   1.826  0.2442 -0.0182 -0.2285
 3106poe    c2315666   5.030   0.780   1.728 -0.0718  0.5438  0.2961
 3106poe    c2315667   5.085   0.762   1.585 -0.1256  0.0198  0.3387
 3106poe     o215668   5.088   0.622   1.566 -0.2726 -0.0177  0.5841
 3106poe    c2315669   5.088   0.589   1.429  0.3931  0.2666  0.5099
 3106poe    c2315670   5.130   0.444   1.399 -0.3580  0.1409  0.0462
 3106poe     o215671   5.260   0.406   1.440 -0.1255  0.4054 -0.4286
 3106poe    c3115672   5.293   0.272   1.411 -0.1825  0.2301  0.3020
 3107poe    c3115673   6.818   1.483   0.922  0.3908  0.0889 -0.5705
 3107poe     o215674   6.766   1.611   0.894 -0.4390 -0.2348 -0.5131
 3107poe    c2315675   6.838   1.661   0.784  0.5261 -0.6511 -0.0806
 3107poe    c2315676   6.775   1.783   0.714 -0.2102 -0.3723  1.0423
 3107poe     o215677   6.647   1.751   0.665  0.1873 -0.2519 -0.0917
 3107poe    c2315678   6.585   1.844   0.579 -0.3323 -0.4889  0.0231
 3107poe    c2315679   6.437   1.813   0.550 -0.5627  0.2408  0.3907
 3107poe     o215680   6.411   1.696   0.476  0.1752 -0.3253  1.0002
 3107poe    c2315681   6.270   1.686   0.480  0.0560  0.6502 -0.1322
 3107poe    c2315682   6.226   1.596   0.363 -0.0715 -0.0868  0.4756
 3107poe     o215683   6.288   1.470   0.369  0.0040 -0.1016 -0.4105
 3107poe    c3115684   6.187   1.371   0.371  0.4025 -0.5084  0.2791
 3108poe    c3115685   6.579   0.552   3.808 -0.1836  0.0508  0.3714
 3108poe     o215686   6.508   0.662   3.860 -0.2318  0.1487  0.0975
 3108poe    c2315687   6.401   0.618   3.940  0.0077 -0.5533  0.0388
 3108poe    c2315688   6.305   0.731   3.981  0.4428 -0.0288 -0.3740
 3108poe     o215689   6.283   0.820   3.874 -0.1818 -0.1441 -0.3445
 3108poe    c2315690   6.224   0.943   3.909  0.5584  0.1083  0.0288
 3108poe    c2315691   6.151   1.005   3.789  0.2858  0.3384  0.3090
 3108poe     o215692   6.231   0.990   3.673 -0.2153 -0.1816  0.0258
 3108poe    c2315693   6.252   1.119   3.620  0.2769 -0.2734 -0.0088
 3108poe    c2315694   6.306   1.120   3.476 -0.0931 -0.4108 -0.1489
 3108poe     o215695   6.442   1.084   3.468  0.1859  0.6418 -0.1975
 3108poe    c3115696   6.488   1.108   3.337  0.2051 -0.1348 -0.3344
 3109poe    c3115697   4.418   0.074   5.160 -0.1327 -0.3607 -0.5854
 3109poe     o215698   4.451   0.133   5.036 -0.2988 -0.1519 -0.5306
 3109poe    c2315699   4.382   0.255   5.036  0.1988  0.1394  0.0810
 3109poe    c2315700   4.435   0.334   4.914 -0.6070  0.2099 -0.2316
 3109poe     o215701   4.359   0.304   4.799 -0.5690  0.2006 -0.2541
 3109poe    c2315702   4.412   0.351   4.677  0.1653  0.4297  0.1431
 3109poe    c2315703   4.553   0.306   4.634 -0.2708 -0.3711 -0.4896
 3109poe     o215704   4.577   0.171   4.602 -0.1584 -0.5111  0.1649
 3109poe    c2315705   4.712   0.131   4.607 -0.2085 -0.6918  0.1106
 3109poe    c2315706   4.751   0.010   4.520  0.0180 -0.1701 -0.5171
 3109poe     o215707   4.682  -0.107   4.555 -0.0796 -0.0254 -0.2251
 3109poe    c3115708   4.719  -0.213   4.470  0.2765  0.2258 -0.3843
 3110poe    c3115709   0.659   6.812   1.373  0.0190 -0.6669 -0.1425
 3110poe     o215710   0.669   6.797   1.513  0.3945  0.5351 -0.0331
 3110poe    c2315711   0.552   6.845   1.576  0.3027  0.1515  0.0878
 3110poe    c2315712   0.517   6.759   1.699 -0.3227  1.2678  0.7095
 3110poe     o215713   0.640   6.753   1.768  0.1906 -0.1210 -0.2649
 3110poe    c2315714   0.637   6.675   1.886 -0.1852  0.0035 -0.1905
 3110poe    c2315715   0.773   6.619   1.931 -0.2962  0.2609  0.4838
 3110poe     o215716   0.805   6.496   1.869 -0.1418  0.4636  0.1544
 3110poe    c2315717   0.922   6.434   1.918 -0.2975  0.1095  0.0842
 3110poe    c2315718   0.962   6.296   1.864  0.0220  0.1229  0.2825
 3110poe     o215719   1.001   6.290   1.729  0.1823 -0.3125  0.3449
 3110poe    c3115720   1.136   6.327   1.709 -0.0781  0.4341 -0.0483
 3111poe    c3115721   5.707   1.436   7.026 -0.1288 -0.1999 -0.3009
 3111poe     o215722   5.822   1.429   7.108 -0.2847 -0.0893 -0.0689
 3111poe    c2315723   5.836   1.556   7.166 -0.4421 -0.0546 -0.1052
 3111poe    c2315724   5.975   1.571   7.230 -0.2419 -0.4269 -0.4489
 3111poe     o215725   6.071   1.570   7.126 -0.1345  0.2387 -0.3588
 3111poe    c2315726   6.199   1.584   7.182 -0.4748  0.5680  0.3589
 3111poe    c2315727   6.300   1.610   7.069 -0.2236 -0.1465  0.4117
 3111poe     o215728   6.279   1.502   6.980 -0.4313  0.2763 -0.0574
 3111poe    c2315729   6.388   1.503   6.891 -0.3224  0.2120  0.0736
 3111poe    c2315730   6.353   1.399   6.782 -0.8574  0.4838 -0.0169
 3111poe     o215731   6.215   1.369   6.780 -0.7870  0.1773 -0.2607
 3111poe    c3115732   6.194   1.282   6.672  0.4835 -0.5257  0.0315
 3112poe    c3115733   2.206   3.407   2.352 -0.4208 -0.5602 -0.1443
 3112poe     o215734   2.229   3.464   2.479 -0.2695 -0.0234 -0.4097
 3112poe    c2315735   2.228   3.369   2.582  0.5178  0.3101 -0.0834
 3112poe    c2315736   2.186   3.429   2.717  0.4037  0.0965 -0.0219
 3112poe     o215737   2.048   3.449   2.735  0.4723  0.3508  0.2416
 3112poe    c2315738   2.000   3.559   2.661  0.5149  0.4867  0.4164
 3112poe    c2315739   1.932   3.671   2.744 -0.3109 -0.0806  0.5248
 3112poe     o215740   2.032   3.759   2.791  0.1266 -0.0782 -0.3677
 3112poe    c2315741   1.979   3.867   2.864  0.8316 -0.0880  0.1653
 3112poe    c2315742   2.089   3.970   2.896  0.0524  0.8374 -0.0804
 3112poe     o215743   2.118   4.030   2.772 -0.5040  0.6195 -0.3148
 3112poe    c3115744   2.183   4.154   2.787  0.5221 -0.0129  0.5921
 3113poe    c3115745   5.143   6.663   4.976 -0.0368 -0.1352  0.4637
 3113poe     o215746   5.185   6.552   5.053 -0.3424 -0.3064  0.3865
 3113poe    c2315747   5.132   6.427   5.016  0.3150 -0.4440 -0.1085
 3113poe    c2315748   5.087   6.324   5.121 -0.6250 -0.2742 -0.3381
 3113poe     o215749   4.967   6.357   5.187 -0.2449 -0.1414  0.3013
 3113poe    c2315750   4.939   6.291   5.308 -0.2096 -0.2471  0.2522
 3113poe    c2315751   5.027   6.325   5.430 -0.6824  0.0368  0.5206
 3113poe     o215752   4.994   6.449   5.490 -0.5019  0.1813  0.3268
 3113poe    c2315753   5.059   6.453   5.615  0.1888 -0.2424 -0.0130
 3113poe    c2315754   5.030   6.566   5.716  0.0581 -0.0950 -0.2132
 3113poe     o215755   5.056   6.691   5.657  0.1220  0.0230  0.0634
 3113poe    c3115756   4.993   6.798   5.724  0.3691  0.4623 -0.3969
 3114poe    c3115757   2.967   3.285   5.544 -0.2193  0.4970 -0.1867
 3114poe     o215758   3.053   3.381   5.487  0.2064  0.0347 -0.3370
 3114poe    c2315759   3.162   3.310   5.433  0.1816 -0.3396  0.1003
 3114poe    c2315760   3.234   3.395   5.327 -0.3555  0.0347  0.0316
 3114poe     o215761   3.254   3.518   5.393  0.1902  0.1710 -0.3779
 3114poe    c2315762   3.320   3.612   5.311  0.5036  0.5284  0.2749
 3114poe    c2315763   3.395   3.724   5.385  0.5790  0.0840  0.8869
 3114poe     o215764   3.308   3.809   5.457  0.2644  0.7066 -0.1997
 3114poe    c2315765   3.375   3.885   5.555  0.5068 -0.3383  0.4694
 3114poe    c2315766   3.287   3.998   5.613  0.0601 -0.3133 -0.2442
 3114poe     o215767   3.250   4.088   5.511  0.6684 -0.2512 -0.4136
 3114poe    c3115768   3.208   4.200   5.586  0.3537 -0.8356  0.2983
 3115poe    c3115769   5.476   1.672   5.005 -0.4254  0.2038 -0.1949
 3115poe     o215770   5.467   1.573   4.904  0.3116 -0.1485  0.0728
 3115poe    c2315771   5.573   1.484   4.929  0.6902  0.1552 -0.4416
 3115poe    c2315772   5.594   1.383   4.815  0.4369 -0.4306  0.0264
 3115poe     o215773   5.480   1.303   4.792 -0.1321  0.3808 -0.0451
 3115poe    c2315774   5.493   1.261   4.657  0.0497 -0.0741  0.1108
 3115poe    c2315775   5.420   1.128   4.629  0.0707 -0.0176 -0.2111
 3115poe     o215776   5.290   1.154   4.677  0.1171  0.0333 -0.1131
 3115poe    c2315777   5.189   1.074   4.619 -0.2629  0.2774  0.1998
 3115poe    c2315778   5.052   1.114   4.676 -0.4955  0.1543 -0.2666
 3115poe     o215779   5.078   1.136   4.813  0.3377 -0.3847 -0.3336
 3115poe    c3115780   4.953   1.159   4.873  0.3197 -0.0278 -0.5071
 3116poe    c3115781   0.971   0.669   0.383 -0.4601 -0.2216 -0.4840
 3116poe     o215782   0.969   0.536   0.429 -0.3454 -0.0551  0.0027
 3116poe    c2315783   0.839   0.500   0.469 -0.3731 -0.3650 -0.3611
 3116poe    c2315784   0.848   0.438   0.610  0.1026  0.0231 -0.2180
 3116poe     o215785   0.873   0.538   0.706  0.1024  0.0953 -0.2934
 3116poe    c2315786   0.836   0.498   0.836  0.0937 -0.4856 -0.4735
 3116poe    c2315787   0.883   0.592   0.948 -0.1910 -0.4227 -0.4060
 3116poe     o215788   1.022   0.617   0.936 -0.2978  0.4982  0.1676
 3116poe    c2315789   1.072   0.679   1.052 -0.3443 -0.0458  0.4849
 3116poe    c2315790   1.225   0.692   1.038 -0.4242 -0.0806 -0.4708
 3116poe     o215791   1.261   0.775   0.930 -0.2135 -0.0253 -0.3582
 3116poe    c3115792   1.402   0.785   0.921 -0.1855 -0.3116 -0.2408
 3117poe    c3115793   1.202   0.864   4.770  0.2380  0.4165 -0.8181
 3117poe     o215794   1.289   0.891   4.877  0.0814 -0.1778 -0.5411
 3117poe    c2315795   1.403   0.811   4.898 -0.3453 -0.7394 -0.3413
 3117poe    c2315796   1.454   0.824   5.043  0.1038  0.4494 -0.5980
 3117poe     o215797   1.366   0.744   5.118  0.5613  0.7196  0.2385
 3117poe    c2315798   1.399   0.760   5.254  0.2469 -0.2700  0.4399
 3117poe    c2315799   1.310   0.677   5.349 -0.3541  0.1848  0.2787
 3117poe     o215800   1.185   0.738   5.375 -0.4532  0.1991 -0.2266
 3117poe    c2315801   1.086   0.651   5.424  0.4289 -0.5319  0.2782
 3117poe    c2315802   0.981   0.742   5.489  0.7647  0.2671 -0.2904
 3117poe     o215803   0.899   0.826   5.409  0.2236 -0.7303 -0.7988
 3117poe    c3115804   0.812   0.911   5.480  1.1780 -0.1638 -0.2948
 3118poe    c3115805   3.759   6.384   3.666  0.7949  0.4349  0.7197
 3118poe     o215806   3.692   6.491   3.603  0.2851 -0.5225 -0.4212
 3118poe    c2315807   3.564   6.511   3.657  0.7647 -0.5384  0.7484
 3118poe    c2315808   3.474   6.625   3.605  0.7873 -0.9062 -0.1040
 3118poe     o215809   3.412   6.604   3.480  0.3738  0.6827 -0.1814
 3118poe    c2315810   3.304   6.691   3.455 -0.4597 -0.1656  0.4160
 3118poe    c2315811   3.206   6.634   3.351  0.1408 -0.8205  0.1984
 3118poe     o215812   3.270   6.646   3.226  0.2103  0.3628  0.3319
 3118poe    c2315813   3.170   6.672   3.130  0.3729  0.1801  0.1139
 3118poe    c2315814   3.216   6.722   2.991 -0.2377  0.3944 -0.0156
 3118poe     o215815   3.276   6.617   2.919 -0.3657  0.1006  0.3026
 3118poe    c3115816   3.311   6.656   2.789  0.0032  0.5157  0.5241
 3119poe    c3115817   1.425   2.167   2.712  0.2506  0.7312 -0.2081
 3119poe     o215818   1.452   2.303   2.687  0.0537  0.7677 -0.2284
 3119poe    c2315819   1.503   2.349   2.811  0.5147  0.0279 -0.1397
 3119poe    c2315820   1.558   2.491   2.794  0.1019  0.2082  0.0187
 3119poe     o215821   1.626   2.504   2.671  0.4203 -0.6798  0.0934
 3119poe    c2315822   1.670   2.638   2.663 -0.8775 -0.2747 -0.4611
 3119poe    c2315823   1.748   2.658   2.532 -0.1864  0.6970  0.0883
 3119poe     o215824   1.663   2.602   2.435  0.4750 -0.3695  0.1025
 3119poe    c2315825   1.719   2.597   2.306  0.0805 -0.2692 -0.0735
 3119poe    c2315826   1.646   2.563   2.174 -0.1358  0.6019 -0.1823
 3119poe     o215827   1.577   2.440   2.172  0.4321  0.2694  0.4698
 3119poe    c3115828   1.459   2.450   2.096  0.5267 -0.1806  0.2589
 3120poe    c3115829   5.170   7.055   3.914 -0.3927 -0.1175 -0.1350
 3120poe     o215830   5.122   6.942   3.845 -0.0341  0.0664 -0.6977
 3120poe    c2315831   4.995   6.973   3.792 -0.3775  0.1179  0.1327
 3120poe    c2315832   4.960   6.854   3.700 -0.1554  0.0205  0.1742
 3120poe     o215833   5.059   6.847   3.600 -0.2721  0.0846  0.0534
 3120poe    c2315834   5.020   6.788   3.478 -0.8632  0.3676  0.1040
 3120poe    c2315835   5.018   6.634   3.475 -0.1143  0.3517  0.1424
 3120poe     o215836   4.927   6.572   3.563  0.0014 -0.0755 -0.0361
 3120poe    c2315837   4.895   6.436   3.544  0.0868 -0.1004 -0.0019
 3120poe    c2315838   4.983   6.322   3.596 -0.0902 -0.4273 -0.4106
 3120poe     o215839   4.956   6.189   3.558 -0.0763 -0.2524 -1.0334
 3120poe    c3115840   5.075   6.119   3.529  0.3508  0.3040 -0.6439
 3121poe    c3115841   0.757   5.310   5.632  0.8165  0.2840 -0.0530
 3121poe     o215842   0.818   5.348   5.753  0.3613  0.2037  0.2024
 3121poe    c2315843   0.725   5.400   5.846  0.0040 -0.3065  0.1347
 3121poe    c2315844   0.778   5.402   5.990  0.1151  0.3609  0.0872
 3121poe     o215845   0.801   5.265   6.018  0.1534  0.2940 -0.2662
 3121poe    c2315846   0.881   5.256   6.134  0.1126 -0.0188 -0.2621
 3121poe    c2315847   0.921   5.112   6.170 -0.6064 -0.0414  0.4843
 3121poe     o215848   1.021   5.039   6.102 -0.3837  0.3394  0.4011
 3121poe    c2315849   1.043   4.918   6.170  0.0955  0.3031  0.1843
 3121poe    c2315850   1.182   4.859   6.137  0.1338  0.4876  0.0160
 3121poe     o215851   1.191   4.808   6.006  0.2987  0.6560 -0.0395
 3121poe    c3115852   1.329   4.785   5.987  0.1911  0.1163 -0.1811
 3122poe    c3115853   4.468   3.513   0.369  0.3941 -0.0921 -0.5764
 3122poe     o215854   4.461   3.373   0.383 -0.1284 -0.0314 -0.2120
 3122poe    c2315855   4.510   3.324   0.506 -0.2569  0.4843  0.0503
 3122poe    c2315856   4.412   3.294   0.621 -0.2976  0.1273 -0.0744
 3122poe     o215857   4.391   3.403   0.708  0.0310  0.4970 -0.4501
 3122poe    c2315858   4.285   3.373   0.796  0.8556 -0.4342  0.2537
 3122poe    c2315859   4.256   3.487   0.895  0.1281  0.1458 -0.6091
 3122poe     o215860   4.345   3.508   1.002 -0.0406 -0.1870 -0.4006
 3122poe    c2315861   4.307   3.436   1.117  0.1519 -0.1605 -0.3197
 3122poe    c2315862   4.350   3.508   1.247 -0.1931  0.3246 -0.4733
 3122poe     o215863   4.487   3.527   1.273 -0.2154 -0.1928  0.0336
 3122poe    c3115864   4.553   3.410   1.315  0.3030  0.0835 -0.0047
 3123poe    c3115865   0.533   5.589   1.097 -0.3780  0.0304  0.6263
 3123poe     o215866   0.442   5.653   1.011  0.3756  0.2785  0.0065
 3123poe    c2315867   0.520   5.687   0.898  0.4132  0.1386 -0.0101
 3123poe    c2315868   0.415   5.760   0.812  0.5518  0.6425  0.2466
 3123poe     o215869   0.332   5.851   0.879 -0.4356 -0.2124  0.2008
 3123poe    c2315870   0.220   5.897   0.806 -0.3811  0.0643  0.2895
 3123poe    c2315871   0.157   6.024   0.865 -0.2402  0.3472 -0.1674
 3123poe     o215872   0.112   5.990   0.994 -0.0912 -0.0386 -0.2180
 3123poe    c2315873   0.047   6.098   1.056  0.2646 -0.3376  0.6999
 3123poe    c2315874   0.050   6.075   1.208 -0.4611  0.3111  0.8212
 3123poe     o215875   0.181   6.050   1.253 -0.2476 -0.2879 -0.1135
 3123poe    c3115876   0.180   6.065   1.393 -0.4033 -0.6774 -0.0699
 3124poe    c3115877   6.135   1.211   2.064  0.5781 -0.1834 -0.0291
 3124poe     o215878   6.122   1.103   1.975 -0.0525 -0.0107 -0.1465
 3124poe    c2315879   6.035   1.013   2.041  0.0657 -0.1508 -0.1810
 3124poe    c2315880   5.971   0.914   1.943  0.7326 -0.5687 -0.2023
 3124poe     o215881   5.906   0.972   1.832  0.2610 -0.2908  0.2141
 3124poe    c2315882   5.828   0.873   1.769 -0.3306  0.4571 -0.2454
 3124poe    c2315883   5.807   0.916   1.623 -0.5897 -0.0440 -0.3581
 3124poe     o215884   5.926   0.949   1.555 -0.2498 -0.5454 -0.0137
 3124poe    c2315885   5.934   0.882   1.431 -0.2590 -0.3426 -0.1250
 3124poe    c2315886   6.071   0.849   1.370 -0.2942 -0.0944 -0.3361
 3124poe     o215887   6.146   0.962   1.329 -0.1540 -0.1474 -0.2273
 3124poe    c3115888   6.270   0.938   1.266 -0.0955 -0.2979 -0.0549
 3125poe    c3115889   1.934   1.569   1.141  0.5635  0.4299 -1.1077
 3125poe     o215890   1.828   1.632   1.073 -0.3846 -0.6115 -0.6147
 3125poe    c2315891   1.818   1.772   1.093 -0.5750 -0.6296 -0.5751
 3125poe    c2315892   1.680   1.833   1.067 -0.2527  0.3892  0.0667
 3125poe     o215893   1.625   1.836   0.937  0.0295 -0.0438 -0.0616
 3125poe    c2315894   1.530   1.939   0.921 -0.2175 -0.2457  0.1007
 3125poe    c2315895   1.384   1.915   0.962 -0.3237  0.0829 -0.0828
 3125poe     o215896   1.351   1.893   1.098 -0.1433  0.2801 -0.0076
 3125poe    c2315897   1.243   1.807   1.125 -0.2932  0.5228  0.1662
 3125poe    c2315898   1.207   1.798   1.275  0.4702 -0.0254  0.3255
 3125poe     o215899   1.128   1.904   1.323 -0.5430 -0.6591  0.0911
 3125poe    c3115900   1.095   1.878   1.458 -0.3189 -0.2310  0.2313
 3126poe    c3115901   2.430   4.084   1.077  0.4648 -0.1738  0.2078
 3126poe     o215902   2.550   4.121   1.013  0.6693 -0.3183  0.5047
 3126poe    c2315903   2.575   4.258   0.993 -0.1743 -0.1496  0.5838
 3126poe    c2315904   2.721   4.269   0.947 -0.3015 -0.7766  0.0245
 3126poe     o215905   2.812   4.223   1.044 -0.1452 -0.2183  0.1466
 3126poe    c2315906   2.944   4.233   0.997 -0.0731 -0.2795  0.3329
 3126poe    c2315907   3.016   4.120   0.922 -0.1876  0.1586 -0.4525
 3126poe     o215908   3.018   3.993   0.984  0.4324  0.1091 -0.5641
 3126poe    c2315909   3.115   3.980   1.086 -0.2342 -0.0937  0.0584
 3126poe    c2315910   3.072   3.865   1.179 -0.1099  0.1124  0.3690
 3126poe     o215911   2.969   3.909   1.265  0.1531  0.6511  0.4199
 3126poe    c3115912   2.961   3.819   1.374  0.2480  0.2226  0.0796
 3127poe    c3115913   1.603   0.702   4.134 -0.2011 -0.4310  0.0964
 3127poe     o215914   1.529   0.765   4.237  0.0954  0.2958 -0.1303
 3127poe    c2315915   1.598   0.721   4.352  0.0914  0.3207 -0.1187
 3127poe    c2315916   1.561   0.800   4.479 -0.2248  0.0259 -0.0244
 3127poe     o215917   1.574   0.937   4.448  0.2543 -0.0079  0.0204
 3127poe    c2315918   1.553   1.008   4.568 -0.2463  0.5626 -0.3977
 3127poe    c2315919   1.517   1.153   4.532 -0.5384  0.5142 -0.3024
 3127poe     o215920   1.391   1.137   4.471 -0.2506 -0.6159 -0.6176
 3127poe    c2315921   1.325   1.261   4.478  0.0643 -0.4940  0.2151
 3127poe    c2315922   1.191   1.244   4.406 -0.2209 -0.1173  0.6496
 3127poe     o215923   1.219   1.189   4.279 -0.7720  0.4900  0.2566
 3127poe    c3115924   1.092   1.155   4.229 -0.7440  0.5214  0.1650
 3128poe    c3115925   4.794   0.059   5.130 -0.1143  0.4414  0.0724
 3128poe     o215926   4.792  -0.077   5.090 -0.6771  0.3718  0.3409
 3128poe    c2315927   4.755  -0.073   4.954  0.5235 -0.3791 -0.0249
 3128poe    c2315928   4.797  -0.196   4.872  0.1570 -0.4532 -0.1041
 3128poe     o215929   4.747  -0.324   4.903  0.2561 -0.4532  0.0569
 3128poe    c2315930   4.615  -0.332   4.853  0.3709  0.3522 -0.3994
 3128poe    c2315931   4.555  -0.464   4.904 -0.4214  0.7882 -0.1824
 3128poe     o215932   4.552  -0.461   5.044  0.0410  0.1174 -0.1526
 3128poe    c2315933   4.518  -0.590   5.092 -0.1384  0.2511  0.0830
 3128poe    c2315934   4.516  -0.615   5.244  0.1999  0.2683  0.0891
 3128poe     o215935   4.644  -0.624   5.303  0.2230 -0.1203 -0.0168
 3128poe    c3115936   4.617  -0.660   5.437  0.0946  0.0930  0.0165
 3129poe    c3115937   4.759   5.140   1.474 -0.0700  0.0998 -0.5395
 3129poe     o215938   4.828   5.242   1.543  0.0426 -0.1751 -0.2468
 3129poe    c2315939   4.929   5.190   1.626 -0.1397 -0.0116  0.0779
 3129poe    c2315940   4.995   5.297   1.715 -0.4313  0.0043  0.2756
 3129poe     o215941   5.083   5.392   1.660  0.6214 -0.8522  0.4391
 3129poe    c2315942   5.087   5.506   1.744  0.1155 -0.1132 -0.5171
 3129poe    c2315943   5.162   5.624   1.679  0.3824  0.0202  0.0279
 3129poe     o215944   5.100   5.698   1.576 -0.1912  0.2598  0.5388
 3129poe    c2315945   5.182   5.800   1.523 -0.3074  0.1320  0.1121
 3129poe    c2315946   5.150   5.943   1.569 -0.2489  0.0923  0.2802
 3129poe     o215947   5.033   5.982   1.501 -0.3115 -0.5935 -0.0198
 3129poe    c3115948   4.986   6.102   1.559  0.1802 -0.5088  0.2074
 3130poe    c3115949   2.593   1.000   1.371  0.1971  0.2401 -1.0712
 3130poe     o215950   2.468   1.025   1.310 -0.2192  0.4262 -0.1555
 3130poe    c2315951   2.400   1.129   1.376 -0.2495  0.2922  0.0269
 3130poe    c2315952   2.270   1.087   1.446 -0.0072 -0.3275  0.1057
 3130poe     o215953   2.202   0.986   1.374  0.6295 -0.5541 -0.1825
 3130poe    c2315954   2.062   0.972   1.383  0.6352 -0.5704 -0.1249
 3130poe    c2315955   1.998   0.846   1.322  0.2679 -0.3429 -0.2071
 3130poe     o215956   2.042   0.725   1.379  0.1264 -0.2428  0.1131
 3130poe    c2315957   2.001   0.618   1.298 -0.0862 -0.2253  0.1961
 3130poe    c2315958   2.076   0.491   1.343 -0.0155 -0.2239  0.0831
 3130poe     o215959   2.208   0.524   1.381 -0.1307  0.2263  0.0901
 3130poe    c3115960   2.284   0.413   1.422 -0.3664 -0.0059 -0.0991
 3131poe    c3115961   6.024   2.256   1.448  0.6754  0.3869 -0.5003
 3131poe     o215962   5.951   2.299   1.335 -0.0960  0.6982  0.1117
 3131poe    c2315963   6.005   2.421   1.290  0.4662  0.5056  0.2587
 3131poe    c2315964   5.923   2.469   1.169  0.1220 -0.7015 -0.0024
 3131poe     o215965   5.947   2.389   1.055  0.4391 -0.3643 -0.1785
 3131poe    c2315966   5.910   2.464   0.941  0.0200 -0.3305 -0.0235
 3131poe    c2315967   5.915   2.373   0.817 -0.2892 -0.2360 -0.1058
 3131poe     o215968   6.034   2.299   0.800  0.0943  0.3437  0.0129
 3131poe    c2315969   6.126   2.371   0.722  0.5298  0.7172  0.8652
 3131poe    c2315970   6.254   2.293   0.684 -0.1326 -0.0637  0.2075
 3131poe     o215971   6.322   2.237   0.794  0.2112  0.1006  0.0804
 3131poe    c3115972   6.406   2.139   0.738  0.3463 -0.0578  0.5563
 3132poe    c3115973   4.848   1.235   2.411 -0.1460  0.3053  0.0859
 3132poe     o215974   4.800   1.167   2.297  0.0238 -0.1635  0.2900
 3132poe    c2315975   4.909   1.109   2.229 -0.1539 -0.0173 -0.1237
 3132poe    c2315976   4.931   0.961   2.264  0.4535  0.1779  0.3638
 3132poe     o215977   4.831   0.873   2.217  0.3477  0.5211 -0.0667
 3132poe    c2315978   4.864   0.747   2.271 -0.1357  0.5897  0.4104
 3132poe    c2315979   4.775   0.632   2.222 -0.0351  0.6739  0.0256
 3132poe     o215980   4.804   0.597   2.088 -0.6259 -0.2988  0.1416
 3132poe    c2315981   4.697   0.530   2.024 -0.2760 -0.5514 -0.1771
 3132poe    c2315982   4.561   0.601   2.012 -0.2006 -0.3967 -0.1169
 3132poe     o215983   4.572   0.722   1.940  0.1295 -0.5726 -0.3675
 3132poe    c3115984   4.447   0.778   1.905  0.3969  0.1637 -0.1549
 3133poe    c3115985   5.958   2.552   5.869 -0.6138  0.8919  0.1115
 3133poe     o215986   6.065   2.537   5.960 -0.4334 -0.1319 -0.2593
 3133poe    c2315987   6.021   2.492   6.086  0.3186  0.3837  0.1923
 3133poe    c2315988   5.998   2.342   6.109  0.1809  0.4101  0.2241
 3133poe     o215989   6.116   2.265   6.122 -0.2486 -0.1977  0.5964
 3133poe    c2315990   6.076   2.131   6.104 -0.0011 -0.1406 -0.4078
 3133poe    c2315991   6.182   2.049   6.027  0.6557  0.4280 -0.1224
 3133poe     o215992   6.302   2.027   6.098  0.1907 -0.3289  0.4439
 3133poe    c2315993   6.297   1.955   6.219  0.1615 -0.5104  0.3356
 3133poe    c2315994   6.422   1.872   6.253  0.1682 -0.3496  0.7103
 3133poe     o215995   6.533   1.958   6.263 -0.2669  0.1873  0.9791
 3133poe    c3115996   6.653   1.887   6.287  0.0887  0.2037 -0.6612
 3134poe    c3115997   0.325   0.779   6.418  0.0958 -0.3977  0.0351
 3134poe     o215998   0.328   0.680   6.519 -0.5918 -0.5538 -0.0920
 3134poe    c2315999   0.455   0.679   6.581 -0.6497  0.0873  0.0418
 3134poe    c2316000   0.494   0.563   6.674 -0.1125  0.3425  0.1362
 3134poe     o216001   0.400   0.541   6.777 -0.2297 -0.3717 -0.1197
 3134poe    c2316002   0.453   0.521   6.906  0.0569  0.0837 -0.1650
 3134poe    c2316003   0.519   0.388   6.948 -0.0516  0.0800 -0.0037
 3134poe     o216004   0.434   0.293   7.009 -0.2792  0.5224  0.3801
 3134poe    c2316005   0.515   0.190   7.062  0.2217  0.7072 -0.0142
 3134poe    c2316006   0.454   0.099   7.169  0.5109  0.5374  0.0079
 3134poe     o216007   0.439   0.159   7.296 -0.0794  0.0154  0.1946
 3134poe    c3116008   0.432   0.055   7.390 -0.2879 -0.1232  0.0274
 3135poe    c3116009   2.078   0.554   3.653  0.4421 -0.1741 -0.8523
 3135poe     o216010   2.007   0.675   3.671  0.1586 -0.4925  0.1998
 3135poe    c2316011   1.877   0.661   3.724  0.0479 -0.0073  0.0556
 3135poe    c2316012   1.807   0.797   3.744 -0.2496 -0.1969  0.3265
 3135poe     o216013   1.785   0.863   3.621 -0.2009  0.1598  0.5073
 3135poe    c2316014   1.722   0.988   3.628 -0.2319  0.1917 -0.2415
 3135poe    c2316015   1.812   1.108   3.664 -0.6775  0.5898 -0.4372
 3135poe     o216016   1.884   1.140   3.547  0.0284 -0.0864 -0.1921
 3135poe    c2316017   1.994   1.224   3.575 -0.0520 -0.0799  0.1069
 3135poe    c2316018   2.074   1.256   3.447  0.1875 -0.2986  0.2012
 3135poe     o216019   2.116   1.137   3.384  0.1903 -0.2534  0.1186
 3135poe    c3116020   2.157   1.179   3.255  0.1201 -0.1367  0.1345
 3136poe    c3116021   5.417   2.094   5.048 -0.2541  0.3312 -0.2475
 3136poe     o216022   5.474   2.196   5.126  0.3158  0.2600 -0.5680
 3136poe    c2316023   5.615   2.199   5.124  0.3650 -1.0594 -0.2009
 3136poe    c2316024   5.667   2.342   5.101 -0.7326 -0.6368 -0.1167
 3136poe     o216025   5.638   2.380   4.969  0.3843 -0.2722 -0.2694
 3136poe    c2316026   5.712   2.496   4.937  0.1281  0.0614  0.3273
 3136poe    c2316027   5.743   2.520   4.788 -0.4760 -0.4691  0.1106
 3136poe     o216028   5.632   2.550   4.706 -0.2583  0.5843  0.1845
 3136poe    c2316029   5.666   2.576   4.571  0.4854 -0.5665  0.1319
 3136poe    c2316030   5.534   2.588   4.492  0.2861  0.2523  0.5693
 3136poe     o216031   5.461   2.471   4.464  0.6548  0.1801 -0.1369
 3136poe    c3116032   5.347   2.524   4.400  0.0895  0.1002  0.7700
 3137poe    c3116033   0.945   4.028   7.052 -0.0570  0.2800 -0.5912
 3137poe     o216034   0.872   4.024   7.173  0.3600 -0.0528 -0.3472
 3137poe    c2316035   0.955   4.070   7.278  0.0240 -0.0470 -0.0825
 3137poe    c2316036   0.875   4.057   7.408 -0.1071  0.0755 -0.1505
 3137poe     o216037   0.896   3.925   7.454  0.6206  0.3941  0.4391
 3137poe    c2316038   0.793   3.891   7.544  0.4753 -0.1596  0.0678
 3137poe    c2316039   0.790   3.951   7.686  0.2493 -0.1306  0.0506
 3137poe     o216040   0.875   3.884   7.777 -0.5366 -0.2932  0.6825
 3137poe    c2316041   0.859   3.908   7.915 -0.7308  0.1256  0.5898
 3137poe    c2316042   0.967   3.857   8.012 -0.1449  0.0910 -0.0671
 3137poe     o216043   0.997   3.720   7.998  0.3958  0.1748  0.2388
 3137poe    c3116044   1.067   3.672   7.885 -0.6880 -0.6136 -0.1145
 3138poe    c3116045   6.607   2.577   5.578 -0.1090  0.3263  0.2145
 3138poe     o216046   6.504   2.560   5.484 -0.0502  0.4623  0.1250
 3138poe    c2316047   6.568   2.525   5.363  0.2700  0.3882  0.3170
 3138poe    c2316048   6.476   2.523   5.240  0.0850 -0.4533  0.4602
 3138poe     o216049   6.360   2.458   5.288 -0.2386 -0.1355  0.1124
 3138poe    c2316050   6.261   2.436   5.190  0.4472  0.3222 -0.7008
 3138poe    c2316051   6.161   2.335   5.252  0.6180  0.5434 -0.0532
 3138poe     o216052   6.112   2.400   5.367  0.5636  0.0246  0.2187
 3138poe    c2316053   5.991   2.349   5.417  0.9528 -0.3763  0.7550
 3138poe    c2316054   5.949   2.382   5.561 -0.4445 -0.1797  0.3107
 3138poe     o216055   6.045   2.328   5.648  0.1452 -0.4407 -0.4987
 3138poe    c3116056   6.001   2.198   5.683 -0.3340 -0.1961 -0.1877
 3139poe    c3116057   0.988   2.253   0.099  0.3110  0.2137 -0.0239
 3139poe     o216058   0.981   2.145   0.008 -0.0443 -0.4174  0.7392
 3139poe    c2316059   1.102   2.073   0.010  0.0041 -0.3702 -0.1726
 3139poe    c2316060   1.125   1.984  -0.114  0.2976 -0.5862  0.0355
 3139poe     o216061   1.121   2.065  -0.229 -0.2710 -0.2806  0.2691
 3139poe    c2316062   1.203   2.011  -0.329 -0.4906  0.3266 -0.2468
 3139poe    c2316063   1.243   2.123  -0.427  0.8428 -0.1823 -0.3045
 3139poe     o216064   1.117   2.171  -0.467  0.8102 -0.0620 -0.0538
 3139poe    c2316065   1.115   2.264  -0.573  0.4043  0.3666  0.3203
 3139poe    c2316066   0.969   2.303  -0.602  0.2812 -0.6454 -0.4986
 3139poe     o216067   0.912   2.339  -0.478  0.2318 -0.4116 -0.5898
 3139poe    c3116068   0.771   2.352  -0.474  0.2689  0.0185 -0.6323
 3140poe    c3116069   6.432   2.434   7.138 -0.0714  0.3967  0.0063
 3140poe     o216070   6.339   2.517   7.073 -0.0766  0.1387 -0.3149
 3140poe    c2316071   6.400   2.604   6.979  0.3195 -0.0162 -0.2004
 3140poe    c2316072   6.288   2.647   6.883  0.2336 -0.1935 -0.1816
 3140poe     o216073   6.341   2.730   6.782 -0.1390  0.3632  0.0758
 3140poe    c2316074   6.250   2.832   6.747 -0.5450 -0.1004 -0.2329
 3140poe    c2316075   6.320   2.922   6.644  0.0926 -0.2232  0.0881
 3140poe     o216076   6.337   2.857   6.520  0.1453 -0.1453  0.0545
 3140poe    c2316077   6.447   2.916   6.455  0.0578  0.2829  0.2887
 3140poe    c2316078   6.464   2.860   6.312 -0.0685 -0.0204  0.3932
 3140poe     o216079   6.499   2.723   6.309 -0.2593 -0.0628  0.1272
 3140poe    c3116080   6.575   2.695   6.193 -0.0134 -0.2391  0.3297
 3141poe    c3116081   1.925   3.182   2.411 -0.6383 -0.5190 -0.3262
 3141poe     o216082   1.984   3.067   2.467  0.1460 -0.2171 -0.5280
 3141poe    c2316083   2.013   2.958   2.382 -0.4778 -0.8087  0.0161
 3141poe    c2316084   2.101   2.847   2.443  0.4502 -0.1398 -0.0891
 3141poe     o216085   2.050   2.790   2.561 -0.2090 -0.1681 -0.3840
 3141poe    c2316086   2.119   2.674   2.600 -0.0907 -0.1274 -0.4740
 3141poe    c2316087   2.062   2.620   2.732 -0.8370  1.0552 -0.3044
 3141poe     o216088   2.061   2.701   2.848  0.5038  0.6609 -0.0032
 3141poe    c2316089   2.022   2.640   2.969 -0.1836 -0.0002 -0.5473
 3141poe    c2316090   1.871   2.639   2.996 -0.2601  0.2952 -0.9476
 3141poe     o216091   1.813   2.766   3.015 -0.2901  0.1023  0.3893
 3141poe    c3116092   1.673   2.758   3.005 -0.2828  0.1641  0.2343
 3142poe    c3116093   2.805   3.635   3.810  0.0458 -0.3003  0.6841
 3142poe     o216094   2.848   3.501   3.809 -0.0333 -0.3217  0.1006
 3142poe    c2316095   2.744   3.417   3.763 -0.0972 -0.3284  0.2583
 3142poe    c2316096   2.801   3.276   3.739 -0.0453 -0.2571 -0.0371
 3142poe     o216097   2.867   3.243   3.859  0.4429  0.4721 -0.0989
 3142poe    c2316098   2.932   3.121   3.831  0.2733  0.3450  0.0558
 3142poe    c2316099   2.934   3.027   3.953  0.0501  0.5059  0.1833
 3142poe     o216100   3.011   3.068   4.064 -0.2044  0.4582  0.3766
 3142poe    c2316101   2.982   3.021   4.194 -0.5066  0.1823  0.2110
 3142poe    c2316102   3.083   3.092   4.286  0.2142 -0.3039 -0.1928
 3142poe     o216103   3.024   3.151   4.400  0.3929  0.3609 -0.4376
 3142poe    c3116104   3.128   3.216   4.470  0.1424  0.6940 -0.3748
 3143poe    c3116105   1.771   5.208   3.516  0.7548 -0.0831  0.2745
 3143poe     o216106   1.853   5.162   3.410  0.2230  0.6486 -0.4681
 3143poe    c2316107   1.975   5.234   3.409  0.4832  0.2328  0.2480
 3143poe    c2316108   2.063   5.150   3.314 -0.2908 -0.4009  0.0773
 3143poe     o216109   2.083   5.016   3.354  0.7199 -0.2722  0.0094
 3143poe    c2316110   2.076   4.938   3.237  0.7642 -0.6629  0.2680
 3143poe    c2316111   2.087   4.784   3.241  0.6939 -0.6723  0.1014
 3143poe     o216112   1.973   4.727   3.302 -0.1564  0.3889 -0.4651
 3143poe    c2316113   2.010   4.591   3.300 -0.4446  0.3126 -0.6008
 3143poe    c2316114   1.893   4.504   3.351 -0.1451  0.1557 -0.1807
 3143poe     o216115   1.893   4.495   3.492  0.0515 -0.1486 -0.1996
 3143poe    c3116116   1.769   4.455   3.546 -0.0058  0.2745 -0.0182
 3144poe    c3116117   5.737   3.378   3.429  0.0983 -0.5330 -0.3648
 3144poe     o216118   5.724   3.518   3.444  0.1204 -0.5115 -0.5523
 3144poe    c2316119   5.603   3.564   3.498  0.1307 -0.6553 -0.4061
 3144poe    c2316120   5.592   3.715   3.474 -0.1926 -0.5533  0.3300
 3144poe     o216121   5.574   3.754   3.339 -1.0920 -0.5637  0.4428
 3144poe    c2316122   5.558   3.894   3.346 -0.0941 -0.3996 -0.3205
 3144poe    c2316123   5.463   3.934   3.231  0.1541 -0.5394 -0.5760
 3144poe     o216124   5.546   3.971   3.123  0.3120  0.7426 -0.0402
 3144poe    c2316125   5.482   4.017   3.006 -0.1052  0.2360 -0.0193
 3144poe    c2316126   5.517   3.930   2.883 -0.0020  0.1025  0.1044
 3144poe     o216127   5.474   3.796   2.886 -0.2946  0.1884 -0.3162
 3144poe    c3116128   5.378   3.766   2.787 -0.4813  0.2045 -0.1401
 3145poe    c3116129   6.864   0.979   6.769  0.2854  0.7169 -0.4428
 3145poe     o216130   6.733   0.934   6.743  0.1560  0.6381  0.3139
 3145poe    c2316131   6.687   0.997   6.626 -0.4375  0.0523  0.2285
 3145poe    c2316132   6.535   0.978   6.610 -0.4247 -0.0628  0.2454
 3145poe     o216133   6.477   0.854   6.577 -0.2209  0.1022 -0.7565
 3145poe    c2316134   6.337   0.862   6.561 -0.2915  0.1478 -0.1364
 3145poe    c2316135   6.276   0.725   6.526 -0.1124  0.0115  0.0843
 3145poe     o216136   6.275   0.647   6.644  0.2118  0.0941  0.1425
 3145poe    c2316137   6.244   0.512   6.618  0.5342  0.0852 -0.2063
 3145poe    c2316138   6.255   0.435   6.751  0.1650 -0.2301 -0.3559
 3145poe     o216139   6.362   0.502   6.814  0.3435 -0.1407 -0.7551
 3145poe    c3116140   6.382   0.465   6.948 -0.8165  0.2735 -0.4591
 3146poe    c3116141   5.268   0.217   5.782  0.3198 -0.1086  0.5694
 3146poe     o216142   5.267   0.353   5.819 -0.5300  0.2034 -0.5354
 3146poe    c2316143   5.319   0.435   5.717 -0.0809 -0.3556 -0.7565
 3146poe    c2316144   5.227   0.555   5.693  0.3183  0.1038 -0.0049
 3146poe     o216145   5.096   0.526   5.648  0.3447  0.0130 -0.0230
 3146poe    c2316146   5.102   0.540   5.507 -0.1612 -0.3591 -0.0817
 3146poe    c2316147   4.960   0.527   5.448 -0.0835 -0.6739 -0.2006
 3146poe     o216148   4.868   0.603   5.523  0.2191 -0.3499 -0.1546
 3146poe    c2316149   4.809   0.697   5.437 -0.1945 -0.3130  0.1686
 3146poe    c2316150   4.707   0.629   5.343 -0.3337 -0.0146  0.1018
 3146poe     o216151   4.621   0.557   5.428 -0.2835  0.2149  0.3510
 3146poe    c3116152   4.499   0.535   5.359 -0.2265  0.1335  0.2766
 3147poe    c3116153   4.121   5.634   5.530 -0.2845 -0.2504 -0.2506
 3147poe     o216154   4.136   5.556   5.647 -0.2172  0.2239  0.0592
 3147poe    c2316155   4.274   5.564   5.676 -0.3068  0.3771  0.4505
 3147poe    c2316156   4.333   5.488   5.796  0.0403 -0.2249 -0.0934
 3147poe     o216157   4.292   5.530   5.924  0.4032  0.2016 -0.1152
 3147poe    c2316158   4.376   5.482   6.027  0.1410  0.0650  0.0374
 3147poe    c2316159   4.295   5.506   6.156 -0.1270  0.8429 -0.2719
 3147poe     o216160   4.164   5.456   6.148  0.2225 -0.0959 -0.2077
 3147poe    c2316161   4.100   5.415   6.267  0.3540 -0.6069 -0.3117
 3147poe    c2316162   3.955   5.380   6.231 -0.0198  0.5045  0.0869
 3147poe     o216163   3.908   5.466   6.130 -0.2831  0.2077 -0.0485
 3147poe    c3116164   3.772   5.438   6.106 -0.2318 -0.5216  0.4991
 3148poe    c3116165   1.752   3.784   0.316  0.2019  0.2211 -0.0107
 3148poe     o216166   1.844   3.870   0.252  0.1564  0.0032 -0.3688
 3148poe    c2316167   1.929   3.936   0.342 -0.0599  0.1400 -0.2644
 3148poe    c2316168   2.010   4.044   0.268  0.3303  0.0794  0.0699
 3148poe     o216169   1.917   4.140   0.224  0.0171 -0.1430  0.2429
 3148poe    c2316170   1.989   4.260   0.206 -0.0464 -0.2108 -0.4839
 3148poe    c2316171   1.897   4.365   0.140 -0.0338 -0.0397 -0.2327
 3148poe     o216172   1.852   4.329   0.011 -0.9504 -0.4004  0.1857
 3148poe    c2316173   1.751   4.417  -0.035 -0.0445  0.7399  0.3497
 3148poe    c2316174   1.715   4.388  -0.181  0.1665  0.4254  0.3603
 3148poe     o216175   1.627   4.279  -0.200  0.7241 -0.0044  0.1799
 3148poe    c3116176   1.625   4.247  -0.337 -0.4506  0.5057  0.0620
 3149poe    c3116177   1.067   4.891   0.342 -0.3533  0.2415 -0.3202
 3149poe     o216178   1.072   4.795   0.446 -0.3993  0.6967  0.1075
 3149poe    c2316179   1.166   4.841   0.541 -0.2815  0.5416  0.0670
 3149poe    c2316180   1.246   4.718   0.585 -0.7645  0.1705 -0.0739
 3149poe     o216181   1.165   4.624   0.653 -0.2651 -0.6139 -0.5488
 3149poe    c2316182   1.242   4.507   0.672  0.2208 -0.2762 -0.4143
 3149poe    c2316183   1.139   4.393   0.680 -0.1459  0.0691 -0.1951
 3149poe     o216184   1.033   4.437   0.763 -0.0043 -0.3296  0.2001
 3149poe    c2316185   0.917   4.360   0.739 -0.2512  0.1700 -0.2183
 3149poe    c2316186   0.819   4.410   0.847 -0.1474 -0.0469 -0.0241
 3149poe     o216187   0.825   4.551   0.852 -0.5692 -0.0257 -0.1047
 3149poe    c3116188   0.702   4.601   0.898 -0.5371 -0.4618  0.4686
 3150poe    c3116189   4.004   4.397   0.762 -0.1374 -0.5099 -0.4270
 3150poe     o216190   3.878   4.377   0.824 -0.1821  0.5206 -0.1662
 3150poe    c2316191   3.852   4.254   0.889  0.0162  0.3289 -0.4483
 3150poe    c2316192   3.708   4.244   0.941  0.0582  0.9182 -0.2097
 3150poe     o216193   3.622   4.229   0.830 -0.1669  0.7136 -0.0103
 3150poe    c2316194   3.491   4.193   0.865  0.1980 -0.1402  0.5081
 3150poe    c2316195   3.416   4.156   0.736 -0.1642  0.1285  0.6380
 3150poe     o216196   3.404   4.271   0.656 -0.5088 -0.4609 -0.1851
 3150poe    c2316197   3.330   4.253   0.537 -0.1563 -0.4272 -0.4104
 3150poe    c2316198   3.347   4.390   0.469 -0.0010 -0.2480 -0.0197
 3150poe     o216199   3.485   4.419   0.465  0.0012 -0.1397  0.8011
 3150poe    c3116200   3.529   4.478   0.345 -0.6465  0.2148  0.7325
 3151poe    c3116201   0.827   2.633   1.691 -0.5972 -0.0186  0.1432
 3151poe     o216202   0.904   2.615   1.807  0.4302 -0.1313 -0.5461
 3151poe    c2316203   0.935   2.748   1.840  0.1718 -0.0679 -0.5619
 3151poe    c2316204   1.022   2.760   1.967 -0.6674 -0.5729  0.0680
 3151poe     o216205   0.950   2.733   2.086 -0.1075 -0.3597  0.4601
 3151poe    c2316206   1.030   2.779   2.192 -0.1411  0.8463 -0.0175
 3151poe    c2316207   0.966   2.760   2.331  0.5711  0.6897  0.2945
 3151poe     o216208   0.987   2.624   2.360  0.0681  0.5654  0.0898
 3151poe    c2316209   0.962   2.604   2.497 -0.0291 -0.4690 -0.0685
 3151poe    c2316210   0.965   2.456   2.539 -0.2137 -0.3515  0.3623
 3151poe     o216211   1.079   2.393   2.485 -0.1468 -0.1777  0.3026
 3151poe    c3116212   1.110   2.268   2.541  0.2103 -0.0625  0.3628
 3152poe    c3116213   4.479   6.974   6.719 -0.4037  0.1999 -0.7563
 3152poe     o216214   4.414   6.918   6.607 -0.4010 -0.2727 -0.5233
 3152poe    c2316215   4.402   6.783   6.647 -0.2482 -0.1652 -0.1161
 3152poe    c2316216   4.313   6.700   6.554 -0.0989 -0.1351 -0.2862
 3152poe     o216217   4.174   6.706   6.580  0.0360  0.1506  0.3731
 3152poe    c2316218   4.116   6.590   6.526  0.3342  0.0090  0.3567
 3152poe    c2316219   3.966   6.597   6.561  0.0678 -0.0419 -0.7356
 3152poe     o216220   3.926   6.730   6.537 -0.3395 -0.2411 -1.1456
 3152poe    c2316221   3.800   6.764   6.592  0.5792  0.6696  0.4521
 3152poe    c2316222   3.773   6.915   6.571 -0.1097  0.5073  0.1410
 3152poe     o216223   3.890   6.976   6.622  0.0666  0.0379  0.3144
 3152poe    c3116224   3.868   7.115   6.611  0.2199  0.0885  0.6468
 3153poe    c3116225   1.420   0.141   1.634  0.6091 -0.4274  0.1288
 3153poe     o216226   1.331   0.143   1.743  0.4284 -0.1082 -0.0200
 3153poe    c2316227   1.339   0.273   1.796 -0.4974 -0.2278  0.4265
 3153poe    c2316228   1.245   0.297   1.916 -0.5858  0.1495  0.2849
 3153poe     o216229   1.112   0.295   1.871 -0.4367 -0.3704 -0.1442
 3153poe    c2316230   1.046   0.419   1.867  0.9119  0.3749  0.4093
 3153poe    c2316231   0.905   0.393   1.923  0.5632 -0.1096 -0.6754
 3153poe     o216232   0.864   0.270   1.869 -0.4036 -0.4624  0.8210
 3153poe    c2316233   0.727   0.249   1.896 -0.4039 -0.5375  0.7644
 3153poe    c2316234   0.681   0.123   1.821 -0.0657 -0.1884 -0.0449
 3153poe     o216235   0.728   0.004   1.880  0.0314 -0.0192  0.2185
 3153poe    c3116236   0.631  -0.094   1.906 -0.2989  0.4161  0.6561
 3154poe    c3116237   3.880   3.302   0.752 -0.1193  0.0761  0.0036
 3154poe     o216238   3.920   3.193   0.672  0.2227  0.2795 -0.1058
 3154poe    c2316239   3.910   3.081   0.757  0.0512  0.8168  0.5904
 3154poe    c2316240   3.962   2.961   0.675 -0.4923  0.4752  0.7431
 3154poe     o216241   3.877   2.930   0.567  0.5521  0.0838  0.0218
 3154poe    c2316242   3.943   2.848   0.474  0.4507 -0.1453  0.1512
 3154poe    c2316243   3.854   2.810   0.354 -0.1651 -0.5126  0.7203
 3154poe     o216244   3.807   2.921   0.282  0.3134 -0.3722  0.6190
 3154poe    c2316245   3.686   2.978   0.329  0.3963  0.1734  0.1841
 3154poe    c2316246   3.651   3.103   0.246 -0.4255  0.0842  0.3887
 3154poe     o216247   3.719   3.219   0.290  0.1019 -0.1097  0.0880
 3154poe    c3116248   3.652   3.333   0.241 -0.8471 -0.7377 -0.1043
 3155poe    c3116249   5.997   6.036   1.363 -0.6211 -0.9288 -0.1096
 3155poe     o216250   6.032   6.012   1.497 -0.0871  0.1563 -0.0441
 3155poe    c2316251   6.026   6.131   1.573  0.0782 -0.1927  0.5241
 3155poe    c2316252   5.962   6.096   1.708  0.2980  0.4316  0.7922
 3155poe     o216253   6.048   6.027   1.796  0.1380 -0.1929  0.4657
 3155poe    c2316254   5.971   5.947   1.883  0.1028 -0.2005  0.4278
 3155poe    c2316255   6.053   5.881   1.996 -0.0851 -0.5173  0.3806
 3155poe     o216256   6.107   5.754   1.968 -0.0479 -0.4273  0.0352
 3155poe    c2316257   6.168   5.685   2.075  0.4514 -0.0329  0.0074
 3155poe    c2316258   6.209   5.539   2.050  0.3578 -0.0506 -0.0369
 3155poe     o216259   6.297   5.540   1.940  0.5470 -0.4955  0.1059
 3155poe    c3116260   6.314   5.410   1.887 -0.1232 -0.5732  0.0703
 3156poe    c3116261   0.772   0.532   6.266  0.3582  0.0664 -0.1067
 3156poe     o216262   0.653   0.467   6.307  0.4687  0.5682  1.0477
 3156poe    c2316263   0.669   0.337   6.359  0.3804 -0.1023 -0.5235
 3156poe    c2316264   0.539   0.258   6.384  0.7327 -0.5098  0.0551
 3156poe     o216265   0.487   0.230   6.256 -0.2202  0.1417  0.2926
 3156poe    c2316266   0.375   0.314   6.232 -0.2571  0.0247  0.0544
 3156poe    c2316267   0.331   0.320   6.085 -0.0533  0.6071  0.0160
 3156poe     o216268   0.392   0.400   5.985 -0.0544  0.2413 -0.2803
 3156poe    c2316269   0.400   0.537   6.014 -0.4639  0.2403 -0.1493
 3156poe    c2316270   0.534   0.601   5.973 -0.3142  0.1376  0.1763
 3156poe     o216271   0.523   0.628   5.835  0.2907 -0.2832  0.0386
 3156poe    c3116272   0.624   0.717   5.792 -0.0674 -0.0832 -0.3958
 3157poe    c3116273   0.536   6.859   0.281  0.5098  0.9125  0.1863
 3157poe     o216274   0.563   6.810   0.410  0.0881 -0.4871 -0.2353
 3157poe    c2316275   0.549   6.911   0.508  0.4812 -0.1902 -0.4794
 3157poe    c2316276   0.553   6.855   0.651 -0.0496 -0.4495 -0.5637
 3157poe     o216277   0.438   6.774   0.667 -0.2159 -0.1175 -0.0585
 3157poe    c2316278   0.424   6.714   0.794 -0.2530  0.7474  0.3563
 3157poe    c2316279   0.276   6.699   0.831 -0.1219  0.0271  0.6036
 3157poe     o216280   0.197   6.629   0.737  0.3084  0.5079 -0.1186
 3157poe    c2316281   0.079   6.581   0.797  0.3882  0.3569 -0.0815
 3157poe    c2316282   0.102   6.439   0.854 -0.2624  0.2261 -0.1460
 3157poe     o216283   0.103   6.340   0.754  0.4898 -0.3258  0.4057
 3157poe    c3116284   0.225   6.328   0.684  0.3680 -0.4883  0.2209
 3158poe    c3116285   4.229   2.195   4.123 -0.2631 -0.1157  0.0799
 3158poe     o216286   4.340   2.143   4.053 -0.3733 -0.3486  0.0785
 3158poe    c2316287   4.306   2.086   3.928  0.4197  0.1534 -0.3685
 3158poe    c2316288   4.440   2.067   3.855  0.5099  0.0215 -0.1691
 3158poe     o216289   4.524   1.996   3.943 -0.3755 -0.1378  0.5521
 3158poe    c2316290   4.636   1.947   3.874 -0.2960  0.2585  0.3977
 3158poe    c2316291   4.729   1.850   3.950  0.0264  0.3515  0.1259
 3158poe     o216292   4.661   1.726   3.955 -0.3662  0.5597 -0.0186
 3158poe    c2316293   4.729   1.610   3.996 -0.2083  0.5115 -0.4086
 3158poe    c2316294   4.835   1.554   3.899  0.0432 -0.0584  0.1874
 3158poe     o216295   4.786   1.472   3.795  0.2721  0.5665 -0.4164
 3158poe    c3116296   4.892   1.428   3.714 -0.3799  0.1022 -1.0288
 3159poe    c3116297   6.495   1.696   1.034  0.2509 -1.2729  0.4599
 3159poe     o216298   6.530   1.811   1.108 -0.1927 -0.5790 -0.3874
 3159poe    c2316299   6.588   1.905   1.020 -0.1739  0.1278  0.3646
 3159poe    c2316300   6.726   1.953   1.065 -0.1446 -0.1038  0.5215
 3159poe     o216301   6.722   2.088   1.106 -0.0325  0.2734 -0.6742
 3159poe    c2316302   6.848   2.121   1.160 -0.0507  0.1386 -0.5470
 3159poe    c2316303   6.881   2.270   1.136  0.0026  0.2876  0.4361
 3159poe     o216304   6.890   2.306   1.000  0.0578  0.6265  0.5297
 3159poe    c2316305   6.969   2.421   0.980  0.4922  0.2080 -0.1581
 3159poe    c2316306   6.954   2.467   0.833 -0.1958  0.0343 -0.1470
 3159poe     o216307   6.823   2.508   0.801 -0.1889  0.1968  0.0263
 3159poe    c3116308   6.821   2.648   0.812  0.1431  0.1799  0.3140
 3160poe    c3116309   5.956   5.787   0.505 -0.2929  0.5790 -0.2528
 3160poe     o216310   6.066   5.779   0.417 -0.4421 -0.2914 -0.3739
 3160poe    c2316311   6.174   5.713   0.479 -0.2191 -0.5485 -1.0276
 3160poe    c2316312   6.298   5.752   0.396 -0.0121  0.2279 -0.3748
 3160poe     o216313   6.303   5.678   0.276  0.9175 -0.2795 -0.0307
 3160poe    c2316314   6.412   5.710   0.194  0.8311  0.2573  0.0643
 3160poe    c2316315   6.415   5.626   0.064  0.1739  0.5712 -0.1606
 3160poe     o216316   6.294   5.640  -0.006  0.3008  0.3080 -0.4300
 3160poe    c2316317   6.277   5.551  -0.114  0.2197  0.4188 -0.5086
 3160poe    c2316318   6.185   5.618  -0.218 -0.3605  0.0949 -0.2130
 3160poe     o216319   6.054   5.634  -0.170 -0.2423  0.0147  0.1376
 3160poe    c3116320   5.984   5.714  -0.263  0.1279  0.2201  0.0361
 3161poe    c3116321   3.932   1.509   4.869 -0.7309 -0.1011 -0.4367
 3161poe     o216322   3.879   1.638   4.890  0.2362  0.2343 -0.0129
 3161poe    c2316323   3.834   1.681   4.764  0.3841 -0.2861 -0.2450
 3161poe    c2316324   3.745   1.807   4.766  0.0893 -0.4921 -0.2534
 3161poe     o216325   3.618   1.769   4.814  0.0413  0.1263  0.1205
 3161poe    c2316326   3.521   1.871   4.818  0.1106  0.1766  0.6241
 3161poe    c2316327   3.386   1.813   4.864 -0.2735  1.0043  0.5563
 3161poe     o216328   3.403   1.756   4.992  0.2589  0.6350  0.3260
 3161poe    c2316329   3.276   1.742   5.052 -0.0856  0.4566 -0.4296
 3161poe    c2316330   3.310   1.648   5.169  0.3313  0.3122 -0.6644
 3161poe     o216331   3.400   1.553   5.117 -0.3185 -0.6098 -0.1190
 3161poe    c3116332   3.427   1.459   5.219 -0.4889 -0.7392 -0.1907
 3162poe    c3116333   1.310   6.264   1.088 -0.3695 -0.0492  0.1501
 3162poe     o216334   1.420   6.175   1.093  0.2914  0.7572  0.1377
 3162poe    c2316335   1.532   6.219   1.019  0.1969  0.3819 -0.2329
 3162poe    c2316336   1.642   6.112   1.035 -0.1646 -0.0045 -0.3068
 3162poe     o216337   1.620   5.987   0.975 -0.0329 -0.2898  0.2306
 3162poe    c2316338   1.732   5.902   0.961  0.1396 -0.0094 -0.1066
 3162poe    c2316339   1.790   5.820   1.078  0.0470  0.0954  0.0117
 3162poe     o216340   1.683   5.746   1.134  0.2036 -0.0821  0.0761
 3162poe    c2316341   1.723   5.671   1.246 -1.0727 -0.1471  0.5001
 3162poe    c2316342   1.731   5.521   1.211 -0.4667  0.1763 -0.7956
 3162poe     o216343   1.602   5.481   1.171 -0.6384  0.2764 -0.3519
 3162poe    c3116344   1.602   5.340   1.161 -0.1288  0.2367  0.1114
 3163poe    c3116345   5.190   0.879   3.664 -0.2222 -0.4799 -0.3981
 3163poe     o216346   5.210   0.748   3.711  0.4274 -0.3246 -0.2244
 3163poe    c2316347   5.332   0.682   3.685  0.4003 -0.3979 -0.1658
 3163poe    c2316348   5.374   0.672   3.537 -0.1762 -0.1205 -0.3544
 3163poe     o216349   5.281   0.588   3.473 -0.1924 -0.0438 -0.4323
 3163poe    c2316350   5.330   0.560   3.344  0.2565  0.6766 -0.4256
 3163poe    c2316351   5.231   0.557   3.226  0.3278 -0.3357 -0.4735
 3163poe     o216352   5.131   0.460   3.244 -0.0995  0.1624 -0.1196
 3163poe    c2316353   5.057   0.452   3.125 -0.7107 -0.0736  0.2718
 3163poe    c2316354   4.917   0.516   3.132 -0.6658  0.0873 -0.2112
 3163poe     o216355   4.922   0.657   3.142 -0.2904  0.0545  0.1297
 3163poe    c3116356   4.793   0.702   3.107 -0.3003 -0.1573 -0.1102
 3164poe    c3116357   6.622   0.183   3.263 -0.3113 -0.2747 -0.5596
 3164poe     o216358   6.502   0.217   3.328 -0.2303 -0.0757 -0.5156
 3164poe    c2316359   6.500   0.356   3.354 -0.2507 -0.1268 -0.2376
 3164poe    c2316360   6.424   0.390   3.483  0.0088 -0.0902 -0.0931
 3164poe     o216361   6.285   0.371   3.470  0.0805 -0.5001 -0.2850
 3164poe    c2316362   6.234   0.293   3.575 -0.5689  0.5029  0.1585
 3164poe    c2316363   6.092   0.237   3.552 -0.3578 -0.0491  0.1953
 3164poe     o216364   6.100   0.136   3.454 -0.5145  0.2292 -0.1064
 3164poe    c2316365   5.970   0.082   3.453 -0.5927  0.4177  0.0045
 3164poe    c2316366   5.964  -0.063   3.401 -0.0166  0.3714  0.0598
 3164poe     o216367   5.972  -0.153   3.509  0.4932  0.2854 -0.0473
 3164poe    c3116368   6.098  -0.207   3.540  0.0986 -0.5730  0.1001
 3165poe    c3116369   2.651   6.862   0.843  0.3556 -0.3649 -0.2009
 3165poe     o216370   2.763   6.939   0.806  0.2789 -0.1780 -0.0434
 3165poe    c2316371   2.794   6.918   0.670 -0.2282  0.1027 -0.2055
 3165poe    c2316372   2.913   7.011   0.645 -0.5913  0.4508 -0.6507
 3165poe     o216373   2.884   7.130   0.715 -0.0558  0.5790 -0.6419
 3165poe    c2316374   2.983   7.230   0.718  0.4884  0.0257  0.6937
 3165poe    c2316375   2.936   7.358   0.790  0.2945  0.2972  0.0911
 3165poe     o216376   2.882   7.320   0.915 -0.2555  0.7416 -0.0085
 3165poe    c2316377   2.835   7.430   0.990 -0.6065  0.4821  0.1524
 3165poe    c2316378   2.883   7.422   1.136 -0.8206  0.0711  0.2005
 3165poe     o216379   2.857   7.306   1.212  0.5647 -0.5274 -0.2148
 3165poe    c3116380   2.928   7.299   1.333  0.6852 -0.1958 -0.2666
 3166poe    c3116381   4.319   4.466   3.965  0.3712 -0.1251  0.1803
 3166poe     o216382   4.300   4.574   3.875  0.5718 -0.2336  0.0086
 3166poe    c2316383   4.367   4.689   3.920 -0.5549  0.4206  0.0285
 3166poe    c2316384   4.383   4.795   3.809  0.5461 -0.0741 -0.3021
 3166poe     o216385   4.450   4.744   3.696  0.2913 -0.0294 -0.4736
 3166poe    c2316386   4.521   4.847   3.632  0.6384  0.0039 -0.0392
 3166poe    c2316387   4.606   4.790   3.517 -0.3423 -0.8945 -0.3378
 3166poe     o216388   4.709   4.701   3.553  0.1300 -0.0576  0.4476
 3166poe    c2316389   4.788   4.647   3.449 -0.1711 -0.1809  0.2803
 3166poe    c2316390   4.896   4.561   3.519  0.4908  0.3287 -0.1114
 3166poe     o216391   4.842   4.485   3.624 -0.1698  0.1718 -0.5566
 3166poe    c3116392   4.951   4.410   3.673 -0.5054 -0.0919 -0.2048
 3167poe    c3116393   1.413   5.143   5.412  0.5963  0.6266 -0.0777
 3167poe     o216394   1.374   5.109   5.281  0.5094 -0.2531  0.1735
 3167poe    c2316395   1.393   5.220   5.196  0.3251 -0.1077  0.3206
 3167poe    c2316396   1.398   5.186   5.046  0.3133 -0.2342  0.3490
 3167poe     o216397   1.514   5.118   5.003 -0.0669 -0.6407 -0.0489
 3167poe    c2316398   1.526   5.123   4.863 -0.2896 -0.3391 -0.0572
 3167poe    c2316399   1.650   5.040   4.826 -0.0910 -0.1932  0.2738
 3167poe     o216400   1.639   4.924   4.905 -0.3726 -0.5121 -0.2232
 3167poe    c2316401   1.756   4.845   4.905 -0.1889 -0.2428 -0.1274
 3167poe    c2316402   1.717   4.726   4.994  0.2986  0.0565  0.4908
 3167poe     o216403   1.639   4.779   5.100 -0.4700 -0.3807  0.1508
 3167poe    c3116404   1.645   4.690   5.209  0.1943  0.3776  0.7428
 3168poe    c3116405   4.911   5.731   3.477 -0.6143  0.0986  0.3058
 3168poe     o216406   4.797   5.813   3.496 -0.0373  1.0803 -0.3880
 3168poe    c2316407   4.720   5.822   3.379 -0.3508 -0.0389 -0.2768
 3168poe    c2316408   4.593   5.908   3.387 -0.2075  0.0892  0.7673
 3168poe     o216409   4.616   6.044   3.414  0.3901 -0.0197  0.8134
 3168poe    c2316410   4.498   6.121   3.403  0.0598 -0.5892  0.2828
 3168poe    c2316411   4.385   6.108   3.507 -0.1604  0.1415  0.1397
 3168poe     o216412   4.284   6.015   3.474  0.3806 -0.5346  0.3620
 3168poe    c2316413   4.164   6.045   3.542  0.1874  0.1741 -0.2753
 3168poe    c2316414   4.048   5.986   3.462  0.1477 -0.2075  0.0581
 3168poe     o216415   3.986   6.082   3.379  0.6732  0.3416  0.2964
 3168poe    c3116416   3.866   6.035   3.322  0.7480  0.2343  0.2290
 3169poe    c3116417   0.021   5.400   4.067  0.4498 -0.4494 -0.1572
 3169poe     o216418   0.122   5.498   4.058  0.0043 -0.0009 -0.2970
 3169poe    c2316419   0.174   5.523   4.187  0.4654  0.1306 -0.5072
 3169poe    c2316420   0.253   5.655   4.182  0.5159  0.1065 -0.3507
 3169poe     o216421   0.171   5.769   4.172  0.4056  0.0449 -0.1635
 3169poe    c2316422   0.140   5.797   4.037  0.7748 -0.3190 -0.3233
 3169poe    c2316423   0.104   5.947   4.036 -0.2129 -0.5506 -0.4495
 3169poe     o216424  -0.019   5.992   4.089  0.1807 -0.0899  0.0944
 3169poe    c2316425  -0.031   6.123   4.038  0.0075 -0.2638 -0.3166
 3169poe    c2316426  -0.131   6.206   4.121  0.0996 -0.2100 -0.2607
 3169poe     o216427  -0.265   6.167   4.104 -0.1592  0.4954  0.1303
 3169poe    c3116428  -0.359   6.266   4.140 -0.1103  0.5542  0.0976
 3170poe    c3116429   5.991   1.518   3.902  0.1455  0.7937 -0.0363
 3170poe     o216430   5.853   1.500   3.877  0.2176  0.0084  0.1189
 3170poe    c2316431   5.767   1.581   3.953 -0.2205 -0.1222 -0.2308
 3170poe    c2316432   5.624   1.554   3.903 -0.2620  0.0768 -0.2192
 3170poe     o216433   5.606   1.415   3.890  0.0434  0.0393 -0.2488
 3170poe    c2316434   5.480   1.379   3.838  0.3040 -0.4211 -0.5680
 3170poe    c2316435   5.478   1.225   3.832  0.4422 -0.4349 -0.2486
 3170poe     o216436   5.593   1.171   3.770  0.6790  0.0585 -0.2479
 3170poe    c2316437   5.587   1.030   3.766  0.2553  0.0647  0.0869
 3170poe    c2316438   5.713   0.971   3.700  0.1971 -0.1255  0.1441
 3170poe     o216439   5.731   1.007   3.565 -0.5680 -0.5162 -0.0618
 3170poe    c3116440   5.831   0.930   3.503  0.2457  0.7465 -0.3417
 3171poe    c3116441   2.095   1.043   2.019 -0.0697  0.2327 -0.2456
 3171poe     o216442   2.058   0.936   1.935 -0.0364  0.1067 -0.0999
 3171poe    c2316443   2.053   0.958   1.796 -0.4174  0.0751 -0.0896
 3171poe    c2316444   2.020   0.829   1.718 -0.4204  0.0027  0.0314
 3171poe     o216445   1.894   0.782   1.760 -0.3135  0.1571  0.5315
 3171poe    c2316446   1.879   0.665   1.682  1.2041 -0.0480  0.5089
 3171poe    c2316447   1.768   0.584   1.752  0.2343  0.5491 -0.3057
 3171poe     o216448   1.666   0.671   1.797  0.3849  0.4141  0.2981
 3171poe    c2316449   1.575   0.622   1.893  0.3131  0.3387  0.1912
 3171poe    c2316450   1.458   0.721   1.902  0.2031  0.1899  0.4104
 3171poe     o216451   1.495   0.842   1.966  0.3121  0.1651  0.3934
 3171poe    c3116452   1.396   0.942   1.969 -0.0137 -0.1265 -0.3069
 3172poe    c3116453   3.327   6.583   6.027  0.1563  0.0400  0.1828
 3172poe     o216454   3.402   6.642   5.922  0.2006 -0.3607 -0.0129
 3172poe    c2316455   3.331   6.751   5.868  0.0145 -0.4848 -0.0204
 3172poe    c2316456   3.368   6.795   5.725  0.0168 -0.4105  0.0033
 3172poe     o216457   3.472   6.890   5.728 -0.4604  0.1220 -0.0758
 3172poe    c2316458   3.490   6.945   5.600  0.5360  0.1041  0.0486
 3172poe    c2316459   3.547   7.088   5.609  0.4033  0.1634 -0.0467
 3172poe     o216460   3.437   7.169   5.645  0.1943 -0.2150  0.1763
 3172poe    c2316461   3.489   7.297   5.670 -0.0689 -0.0899  0.0920
 3172poe    c2316462   3.420   7.356   5.795 -0.2209  0.1406 -0.1026
 3172poe     o216463   3.464   7.291   5.911 -0.4383 -0.1860 -0.2035
 3172poe    c3116464   3.397   7.350   6.020 -0.2015  0.3246 -0.3318
 3173poe    c3116465   6.923   0.170   0.921  0.0623  0.8970  0.3561
 3173poe     o216466   6.833   0.214   0.823  0.0428 -0.1186 -0.0923
 3173poe    c2316467   6.847   0.144   0.701 -0.0788 -0.0187 -0.1644
 3173poe    c2316468   6.745   0.202   0.601 -0.3122 -0.0260  0.0704
 3173poe     o216469   6.751   0.339   0.569  0.2120 -0.0105  0.2233
 3173poe    c2316470   6.874   0.367   0.506  0.1431 -0.0124  0.0898
 3173poe    c2316471   6.944   0.496   0.552 -0.5069  0.2594  0.3338
 3173poe     o216472   6.998   0.495   0.682 -0.4295  0.0177  0.3004
 3173poe    c2316473   7.084   0.603   0.709  0.3478 -0.4978 -0.0819
 3173poe    c2316474   7.154   0.595   0.846 -0.0282 -0.2129  0.1304
 3173poe     o216475   7.237   0.481   0.841  0.0515 -0.1578  0.1882
 3173poe    c3116476   7.283   0.435   0.966 -0.0855 -0.1088  0.2572
 3174poe    c3116477   3.069   1.080   1.865  0.0016  0.2661 -0.0690
 3174poe     o216478   3.190   1.146   1.894  0.4132 -0.5024 -0.0093
 3174poe    c2316479   3.201   1.161   2.034 -0.2918  0.1687 -0.0186
 3174poe    c2316480   3.317   1.241   2.095 -0.5780 -0.1429  0.9508
 3174poe     o216481   3.317   1.373   2.045  0.2778 -0.6846 -0.5400
 3174poe    c2316482   3.441   1.435   2.076 -0.1371  0.1264 -0.4723
 3174poe    c2316483   3.423   1.587   2.071 -0.5808  0.0801 -0.3740
 3174poe     o216484   3.320   1.630   2.157 -0.2827 -0.0705  0.0613
 3174poe    c2316485   3.291   1.767   2.138 -0.3440 -0.1579 -0.4919
 3174poe    c2316486   3.142   1.791   2.169 -0.2290 -0.0272 -0.0282
 3174poe     o216487   3.061   1.725   2.074  0.1736 -0.1612 -0.2805
 3174poe    c3116488   2.929   1.770   2.092  0.0533 -0.2040 -1.0131
 3175poe    c3116489   3.390   5.009   1.813 -0.2890 -0.1550  0.0030
 3175poe     o216490   3.279   4.994   1.899 -0.5860 -0.4183 -0.4256
 3175poe    c2316491   3.175   5.067   1.837  0.1652  0.5101 -0.6193
 3175poe    c2316492   3.037   5.030   1.894  0.4243  0.0646 -0.2699
 3175poe     o216493   2.998   4.898   1.864 -0.7483  0.4367 -0.4370
 3175poe    c2316494   2.865   4.884   1.910 -0.4225 -0.0232  0.3824
 3175poe    c2316495   2.825   4.736   1.895 -0.1310 -0.0773  0.1008
 3175poe     o216496   2.889   4.658   1.993  0.1816  0.1669  0.0916
 3175poe    c2316497   2.857   4.522   1.970 -0.0744  0.2473 -0.0301
 3175poe    c2316498   2.875   4.440   2.099  0.0869  0.0804 -0.1595
 3175poe     o216499   3.013   4.421   2.123  0.0407 -0.6791 -0.4574
 3175poe    c3116500   3.029   4.298   2.190  0.3202 -0.2535  0.2706
 3176poe    c3116501   4.183   6.629   5.683  0.2120  0.0994  0.2238
 3176poe     o216502   4.117   6.550   5.587 -0.0538  0.2881  0.2500
 3176poe    c2316503   4.034   6.608   5.489 -0.0997 -0.1770  0.0135
 3176poe    c2316504   4.001   6.523   5.365  0.1700 -0.1625 -0.0698
 3176poe     o216505   3.946   6.397   5.396  0.3575 -0.1997  0.1133
 3176poe    c2316506   3.919   6.319   5.282  0.0708  0.0970 -0.0220
 3176poe    c2316507   3.842   6.190   5.315  0.0806  0.1365  0.1564
 3176poe     o216508   3.915   6.109   5.404 -0.1757 -0.2767 -0.0009
 3176poe    c2316509   3.847   5.996   5.453  0.3748 -0.6163 -0.0085
 3176poe    c2316510   3.948   5.943   5.556 -0.3925  0.0066  1.0902
 3176poe     o216511   4.001   6.049   5.633  1.0039  0.2605 -0.1583
 3176poe    c3116512   4.054   5.988   5.749 -0.1712 -0.1638  0.1760
 3177poe    c3116513   2.503   0.656   6.582 -0.7751  0.4813 -0.1208
 3177poe     o216514   2.467   0.727   6.465 -0.2738  0.4784 -0.2794
 3177poe    c2316515   2.367   0.823   6.492 -0.6930  0.0528 -0.3028
 3177poe    c2316516   2.370   0.912   6.366 -0.2409 -0.0066 -0.3378
 3177poe     o216517   2.463   1.017   6.375 -0.6293  0.2405  0.9294
 3177poe    c2316518   2.445   1.102   6.265  0.0403 -0.0973  0.5526
 3177poe    c2316519   2.551   1.213   6.250  0.3159 -0.4243  0.0582
 3177poe     o216520   2.687   1.185   6.225  0.5629  0.6243  0.1820
 3177poe    c2316521   2.764   1.152   6.338 -0.2087  0.1172  0.5642
 3177poe    c2316522   2.901   1.091   6.304 -0.2874  0.3728 -0.2408
 3177poe     o216523   2.924   0.958   6.263  0.5831  0.2134  0.7210
 3177poe    c3116524   3.055   0.906   6.276  0.7044  0.2421 -0.3257
 3178poe    c3116525   1.338   4.232   1.597  0.0854  0.0256 -0.8005
 3178poe     o216526   1.200   4.215   1.624  0.2591 -0.2062 -0.0335
 3178poe    c2316527   1.137   4.340   1.606 -0.2331 -0.3901  0.3931
 3178poe    c2316528   0.986   4.330   1.636 -0.2888 -0.2644  0.1557
 3178poe     o216529   0.950   4.323   1.772 -0.2056  0.6188  0.2314
 3178poe    c2316530   0.813   4.291   1.784 -0.1140  0.0215 -0.2385
 3178poe    c2316531   0.778   4.142   1.774  0.1613 -0.0164 -0.6369
 3178poe     o216532   0.810   4.071   1.892 -0.1551 -0.0243 -0.5564
 3178poe    c2316533   0.699   4.048   1.975  0.0325  0.2327 -0.2355
 3178poe    c2316534   0.604   3.932   1.939  0.5388 -0.0612 -0.6234
 3178poe     o216535   0.655   3.801   1.944  0.0771 -0.2285 -0.2002
 3178poe    c3116536   0.716   3.765   1.821 -0.6157 -0.7936 -0.3813
 3179poe    c3116537   7.124   1.821   4.275 -0.4563  0.1858 -0.4208
 3179poe     o216538   7.098   1.871   4.404 -0.1557  0.2019 -0.3671
 3179poe    c2316539   6.989   1.961   4.405 -0.5209 -0.2424  0.0819
 3179poe    c2316540   7.030   2.104   4.366 -0.3991 -0.0945  0.7373
 3179poe     o216541   7.124   2.158   4.456  0.1758 -0.0453  0.1140
 3179poe    c2316542   7.153   2.289   4.413 -0.3765  0.1327  0.2797
 3179poe    c2316543   7.282   2.332   4.486 -0.1096 -0.0347 -0.0932
 3179poe     o216544   7.383   2.233   4.479 -0.1359 -0.0627 -0.0778
 3179poe    c2316545   7.507   2.261   4.541 -0.0084  0.1803 -0.4417
 3179poe    c2316546   7.493   2.237   4.692 -0.0439 -0.3286 -0.5238
 3179poe     o216547   7.466   2.102   4.722  0.1478 -0.2162  0.1596
 3179poe    c3116548   7.572   2.010   4.739  0.6815  0.3432 -0.0942
 3180poe    c3116549   0.620   7.230   4.273 -0.3722  0.9976 -0.7822
 3180poe     o216550   0.532   7.298   4.360 -0.1708  0.3311 -0.0407
 3180poe    c2316551   0.509   7.424   4.302  0.1741  0.4666  0.1196
 3180poe    c2316552   0.384   7.503   4.348 -0.2203 -0.4375  0.6148
 3180poe     o216553   0.401   7.554   4.478  0.1612  0.2535  0.3007
 3180poe    c2316554   0.325   7.673   4.481 -0.0768  0.1153 -0.1873
 3180poe    c2316555   0.315   7.732   4.623  0.3643 -0.5232  0.1142
 3180poe     o216556   0.237   7.649   4.707 -0.2041 -0.2947 -0.1807
 3180poe    c2316557   0.183   7.728   4.811 -0.0329  0.0233 -0.3303
 3180poe    c2316558   0.158   7.630   4.926  0.4753  0.1148 -0.1413
 3180poe     o216559   0.268   7.559   4.981  0.6654  0.5717  0.0753
 3180poe    c3116560   0.218   7.470   5.078  0.1265  0.2476 -0.4871
 3181poe    c3116561   1.247   5.986   6.761  0.4425  0.6220  0.5529
 3181poe     o216562   1.317   6.045   6.653  0.1786 -0.4080 -0.1948
 3181poe    c2316563   1.243   6.142   6.583 -0.2090 -0.3330  0.3168
 3181poe    c2316564   1.245   6.284   6.642 -0.4126  0.0062 -0.4736
 3181poe     o216565   1.360   6.360   6.613 -0.3453 -0.0226 -0.2828
 3181poe    c2316566   1.337   6.499   6.610  0.0452  0.0367 -0.5787
 3181poe    c2316567   1.472   6.574   6.604  0.1907 -0.1171  0.4512
 3181poe     o216568   1.548   6.546   6.488  0.0517 -0.2396  0.3880
 3181poe    c2316569   1.647   6.647   6.493 -0.6750  0.5535 -0.6924
 3181poe    c2316570   1.756   6.603   6.394 -0.0104 -0.1646  0.3384
 3181poe     o216571   1.842   6.507   6.453  0.2729 -0.0874  0.0562
 3181poe    c3116572   1.960   6.482   6.381  0.3113  0.2342  0.0060
 3182poe    c3116573   5.165   1.820   3.183  0.4658 -0.0777  0.3754
 3182poe     o216574   5.232   1.944   3.173 -0.4150  0.3416 -0.4350
 3182poe    c2316575   5.370   1.929   3.197 -0.5670 -0.1221  0.1672
 3182poe    c2316576   5.459   2.008   3.099 -0.7607 -0.2547 -0.1198
 3182poe     o216577   5.425   1.974   2.967 -0.2939 -0.1138 -0.2782
 3182poe    c2316578   5.487   2.060   2.874 -0.2142  0.0412 -0.0827
 3182poe    c2316579   5.399   2.081   2.749 -0.1747  0.4812 -0.0368
 3182poe     o216580   5.364   1.967   2.673 -0.0484  0.5854 -0.2512
 3182poe    c2316581   5.287   2.000   2.560 -0.1026  0.1057 -0.3535
 3182poe    c2316582   5.242   1.876   2.480 -0.3875  0.0480 -0.1096
 3182poe     o216583   5.177   1.776   2.555 -0.2516  0.1282  0.1175
 3182poe    c3116584   5.155   1.659   2.479 -0.2038  0.1049  0.1394
 3183poe    c3116585   2.719   6.590   2.871  0.4676 -0.4085 -0.1333
 3183poe     o216586   2.687   6.718   2.821  0.1366 -0.4256  0.0325
 3183poe    c2316587   2.577   6.703   2.733  0.0478 -0.4743  0.1520
 3183poe    c2316588   2.462   6.790   2.788  0.0274 -0.3865 -0.0310
 3183poe     o216589   2.519   6.890   2.869 -0.4521 -0.3451  0.2577
 3183poe    c2316590   2.440   7.007   2.859 -0.2688 -0.1921  0.5727
 3183poe    c2316591   2.515   7.129   2.915  0.2064 -0.0979 -0.2437
 3183poe     o216592   2.646   7.138   2.863  0.5322 -0.2418  0.5280
 3183poe    c2316593   2.711   7.249   2.920 -0.4028  0.3045  0.5514
 3183poe    c2316594   2.838   7.288   2.842 -0.3324  0.0980  0.5638
 3183poe     o216595   2.938   7.192   2.869 -0.3836 -0.1906 -0.2348
 3183poe    c3116596   3.049   7.274   2.902 -0.5202 -0.2448  0.3666
 3184poe    c3116597   0.558   5.376   3.414 -0.4892  0.4207 -0.0404
 3184poe     o216598   0.606   5.505   3.442  0.2813  0.1087  0.1338
 3184poe    c2316599   0.614   5.539   3.578  0.1713 -0.0471  0.1795
 3184poe    c2316600   0.616   5.690   3.608 -0.2720 -0.0964  0.4758
 3184poe     o216601   0.502   5.761   3.564 -0.3409 -0.2408  0.4242
 3184poe    c2316602   0.494   5.870   3.652  0.5206 -0.2363  0.5085
 3184poe    c2316603   0.387   5.973   3.609  0.0134 -0.8118  0.3909
 3184poe     o216604   0.257   5.918   3.602 -0.3563  0.0675  0.3366
 3184poe    c2316605   0.177   6.011   3.531  0.2569 -0.1375 -0.6345
 3184poe    c2316606   0.045   5.954   3.477  0.0030 -0.1925  0.0297
 3184poe     o216607  -0.047   5.940   3.582  0.2426 -0.5108  0.2004
 3184poe    c3116608  -0.136   6.048   3.596 -0.1336 -0.6492 -1.0070
 3185poe    c3116609   3.103   5.098   3.411  0.2181 -0.6575 -0.3136
 3185poe     o216610   2.992   5.119   3.327 -0.2674 -0.0093  0.4820
 3185poe    c2316611   2.916   5.220   3.391  0.0488  0.7095 -0.2641
 3185poe    c2316612   2.769   5.227   3.347 -0.0638  0.7181  0.1166
 3185poe     o216613   2.689   5.135   3.418  0.3302  0.5344  0.3234
 3185poe    c2316614   2.561   5.177   3.378  0.3621 -0.1119 -0.4699
 3185poe    c2316615   2.451   5.083   3.430  0.3220  0.1487 -0.0790
 3185poe     o216616   2.408   5.073   3.564  0.0283 -0.3420 -0.2060
 3185poe    c2316617   2.499   5.000   3.643 -0.3683 -0.3458  0.2507
 3185poe    c2316618   2.460   4.983   3.791  0.5913 -1.1001  0.4308
 3185poe     o216619   2.335   4.919   3.799 -0.1671  0.1900 -0.5418
 3185poe    c3116620   2.298   4.894   3.933  0.1787 -0.1900 -0.5150
 3186poe    c3116621   1.466   2.643   0.071 -0.6692 -0.2433  0.1737
 3186poe     o216622   1.431   2.570   0.186 -0.0802 -0.3924  0.2616
 3186poe    c2316623   1.437   2.430   0.170  0.5376 -0.3835  0.3862
 3186poe    c2316624   1.365   2.360   0.287 -0.8615  0.5507  0.1079
 3186poe     o216625   1.426   2.388   0.410  0.0653  0.2431 -0.2697
 3186poe    c2316626   1.391   2.304   0.518 -0.2607  0.9928  0.2157
 3186poe    c2316627   1.448   2.363   0.649  0.0528  0.8068  0.1639
 3186poe     o216628   1.574   2.417   0.615  0.2432 -0.0861 -0.5798
 3186poe    c2316629   1.664   2.430   0.723  0.4425 -0.1864 -0.7322
 3186poe    c2316630   1.752   2.550   0.686 -0.4929  0.7004 -0.1473
 3186poe     o216631   1.779   2.541   0.548  0.3016 -0.6985  0.0849
 3186poe    c3116632   1.849   2.656   0.504 -0.5388 -0.3239 -0.2865
 3187poe    c3116633   4.392   5.167   3.451  0.5320  0.8892  0.1429
 3187poe     o216634   4.323   5.091   3.547  0.0848  0.4931 -0.4807
 3187poe    c2316635   4.193   5.059   3.503  0.1119 -0.3499  0.0175
 3187poe    c2316636   4.107   4.974   3.598 -0.1601 -0.4343 -0.3014
 3187poe     o216637   4.072   5.045   3.715 -0.1884 -0.3760 -0.3454
 3187poe    c2316638   4.067   4.967   3.833  0.6067 -0.2745 -0.2417
 3187poe    c2316639   4.064   5.036   3.971  0.1250  0.2971 -0.5342
 3187poe     o216640   4.166   5.133   3.959 -0.3111  0.7542 -0.5836
 3187poe    c2316641   4.204   5.189   4.082  0.0743 -0.2247 -0.2519
 3187poe    c2316642   4.281   5.098   4.181  0.4500  0.2900 -0.0679
 3187poe     o216643   4.418   5.091   4.150  0.5162  0.9588  0.0650
 3187poe    c3116644   4.501   5.053   4.258 -0.0258 -0.1518  0.0953
 3188poe    c3116645   0.909   6.269   3.212 -0.0482  0.1591  0.2494
 3188poe     o216646   0.803   6.356   3.244  0.0150  0.3219  0.0188
 3188poe    c2316647   0.741   6.384   3.120  0.2878 -0.0159 -0.1964
 3188poe    c2316648   0.597   6.437   3.135  0.3712  0.1766 -0.0684
 3188poe     o216649   0.580   6.519   3.249 -0.0118  0.3416 -0.2463
 3188poe    c2316650   0.445   6.557   3.269 -0.1534 -0.1819 -0.1865
 3188poe    c2316651   0.370   6.498   3.389 -0.2063  0.3769  0.0596
 3188poe     o216652   0.432   6.521   3.514  0.4191  0.1503 -0.2035
 3188poe    c2316653   0.379   6.437   3.613 -0.4163  0.4027 -0.4295
 3188poe    c2316654   0.451   6.461   3.747 -0.2712 -0.8275 -0.2725
 3188poe     o216655   0.591   6.447   3.741 -0.1809 -0.2598  0.2938
 3188poe    c3116656   0.631   6.472   3.874  0.2394 -0.0537  0.1330
 3189poe    c3116657   2.830   5.234   2.115  0.1219 -0.1059 -0.1012
 3189poe     o216658   2.811   5.374   2.113 -0.1367 -0.1477 -0.6287
 3189poe    c2316659   2.900   5.435   2.022  0.3744  0.5246  0.3032
 3189poe    c2316660   2.864   5.567   1.951 -0.1124  0.1262 -0.2062
 3189poe     o216661   2.884   5.682   2.029 -0.2923  0.0679 -0.0732
 3189poe    c2316662   2.915   5.790   1.943  0.1836  0.1461  0.1931
 3189poe    c2316663   2.927   5.927   2.012 -0.3265  0.3318 -0.0866
 3189poe     o216664   2.819   5.958   2.097 -0.4191  0.4028 -0.2286
 3189poe    c2316665   2.817   6.084   2.161  0.3753  0.2419  0.1233
 3189poe    c2316666   2.675   6.127   2.202  0.2501  0.0545 -0.1076
 3189poe     o216667   2.609   6.024   2.272 -0.1588  0.2506 -0.2005
 3189poe    c3116668   2.491   6.070   2.334  0.1332  0.6931  0.0407
 3190poe    c3116669   6.973   1.426   6.773 -0.3812  0.2614  0.3660
 3190poe     o216670   6.934   1.561   6.776  0.3090  0.4890 -0.5171
 3190poe    c2316671   6.805   1.569   6.719  0.1119  0.3006 -0.0982
 3190poe    c2316672   6.744   1.710   6.726 -0.2251  0.1491  0.0215
 3190poe     o216673   6.697   1.743   6.855 -0.0434  0.1026  0.0998
 3190poe    c2316674   6.660   1.877   6.878  0.1322  0.2134 -0.2615
 3190poe    c2316675   6.532   1.932   6.813 -0.1387 -0.0257  0.0703
 3190poe     o216676   6.405   1.889   6.857 -0.1034 -0.2376 -0.0289
 3190poe    c2316677   6.304   1.921   6.763 -0.0604  0.1800  0.0667
 3190poe    c2316678   6.293   1.842   6.632  0.2835  0.1418  0.0596
 3190poe     o216679   6.294   1.702   6.648  0.5985  0.0832 -0.4519
 3190poe    c3116680   6.282   1.623   6.532  0.2693 -0.5440 -0.0007
 3191poe    c3116681   3.163   2.128   1.909  0.3421 -0.3825 -0.2780
 3191poe     o216682   3.094   2.082   1.795 -0.2955  0.0666 -0.0789
 3191poe    c2316683   3.147   2.159   1.689 -0.3764 -0.1905 -0.3078
 3191poe    c2316684   3.094   2.113   1.552 -0.6554  0.3508 -0.3860
 3191poe     o216685   2.957   2.081   1.547 -0.5899  0.0221 -0.0847
 3191poe    c2316686   2.906   2.022   1.430  0.1687 -0.2149 -0.3036
 3191poe    c2316687   2.765   1.968   1.461 -0.1676  0.2631 -0.9754
 3191poe     o216688   2.691   2.077   1.512 -0.0723  0.0030 -0.2651
 3191poe    c2316689   2.567   2.025   1.554 -0.0960  0.1915 -0.0991
 3191poe    c2316690   2.501   2.143   1.627 -0.5150 -0.3415  0.3936
 3191poe     o216691   2.586   2.191   1.728 -0.1224  0.1196 -0.1461
 3191poe    c3116692   2.529   2.304   1.791 -0.0996  0.0014  0.0866
 3192poe    c3116693   6.546   6.434   2.771  0.3738  0.1241 -0.3981
 3192poe     o216694   6.469   6.530   2.841  0.2290  0.4011 -0.9260
 3192poe    c2316695   6.562   6.622   2.892  0.2331  0.0217 -0.2349
 3192poe    c2316696   6.481   6.745   2.937 -0.0663 -0.0533 -0.5651
 3192poe     o216697   6.375   6.762   2.847 -0.5106  0.1375 -0.0157
 3192poe    c2316698   6.304   6.884   2.856 -0.2916  0.2308  0.4333
 3192poe    c2316699   6.166   6.869   2.790 -0.0499 -0.2348  0.0266
 3192poe     o216700   6.102   6.755   2.842 -0.5242 -0.1038 -0.2676
 3192poe    c2316701   5.965   6.758   2.807 -0.3821  0.7495 -0.7824
 3192poe    c2316702   5.862   6.674   2.885  0.5667  0.2103 -0.0800
 3192poe     o216703   5.874   6.536   2.861 -0.3504  0.1739 -0.3966
 3192poe    c3116704   5.842   6.476   2.738  0.0495 -0.2438 -0.3039
 3193poe    c3116705   0.574   4.915   3.365  0.2517  0.0405  0.0252
 3193poe     o216706   0.518   4.798   3.421 -0.6082  0.1933 -0.4933
 3193poe    c2316707   0.610   4.692   3.434 -0.1128  0.7787  0.8840
 3193poe    c2316708   0.536   4.598   3.531 -0.3010  0.0595  0.0557
 3193poe     o216709   0.419   4.540   3.479  0.0429 -0.4328 -0.1775
 3193poe    c2316710   0.351   4.462   3.575  0.0742  0.0530  0.2474
 3193poe    c2316711   0.234   4.381   3.518  0.3027  0.3303 -0.6284
 3193poe     o216712   0.289   4.265   3.460 -0.1529  0.0528 -0.5149
 3193poe    c2316713   0.194   4.198   3.380 -0.4517 -0.2221  0.0650
 3193poe    c2316714   0.169   4.249   3.237  0.1306 -0.3842 -0.0984
 3193poe     o216715   0.274   4.215   3.149  0.2279 -0.5087  0.0660
 3193poe    c3116716   0.252   4.256   3.016  0.3976  0.0655  0.2105
 3194poe    c3116717   2.918   4.336   4.971 -0.3963  0.3961 -0.7214
 3194poe     o216718   2.844   4.247   4.891 -0.5178 -0.2449  0.0840
 3194poe    c2316719   2.912   4.123   4.893  0.7820  0.4392 -0.2105
 3194poe    c2316720   2.850   4.028   4.789  0.4662 -0.5766  0.8786
 3194poe     o216721   2.717   3.992   4.819 -0.1188  0.1686 -0.6809
 3194poe    c2316722   2.683   3.865   4.767 -0.2734 -0.0713  0.0048
 3194poe    c2316723   2.533   3.832   4.787 -0.4300  0.4127 -0.3630
 3194poe     o216724   2.456   3.924   4.713 -0.4934 -0.0006 -0.8136
 3194poe    c2316725   2.330   3.861   4.723 -0.2106 -0.4853 -0.2583
 3194poe    c2316726   2.225   3.920   4.627  0.0521 -0.0057 -0.2539
 3194poe     o216727   2.175   4.038   4.685  0.0787 -0.1587  0.0856
 3194poe    c3116728   2.037   4.056   4.663  0.0319 -0.9674 -0.3163
 3195poe    c3116729   2.854   0.917   3.711 -0.2967 -0.6129  0.5643
 3195poe     o216730   2.801   0.807   3.641  0.5241 -0.5871 -0.1147
 3195poe    c2316731   2.899   0.757   3.553  0.8966  0.3859 -0.2677
 3195poe    c2316732   2.854   0.630   3.479  0.0910  0.4788  0.0559
 3195poe     o216733   2.857   0.527   3.575 -0.5560  0.3849 -0.0140
 3195poe    c2316734   2.811   0.404   3.525 -0.0178 -0.1264  0.7344
 3195poe    c2316735   2.833   0.283   3.618 -0.4972 -0.3760  0.5291
 3195poe     o216736   2.972   0.261   3.631 -0.3916 -0.2207 -0.2975
 3195poe    c2316737   3.017   0.143   3.694 -0.3483 -0.0048  0.0782
 3195poe    c2316738   3.169   0.120   3.687 -0.3875 -0.2739  0.1072
 3195poe     o216739   3.248   0.202   3.770  0.1081 -0.2474 -0.3848
 3195poe    c3116740   3.386   0.173   3.773  0.1108 -0.1775  0.2720
 3196poe    c3116741   5.047   6.184   4.799  0.1635 -0.3004  0.3803
 3196poe     o216742   4.910   6.213   4.788  0.1407 -0.4194  0.3522
 3196poe    c2316743   4.851   6.137   4.684  0.0080 -0.1835  0.2541
 3196poe    c2316744   4.703   6.178   4.673  0.1208  0.2774  0.4177
 3196poe     o216745   4.617   6.162   4.784 -0.4149  0.3137  0.0066
 3196poe    c2316746   4.488   6.215   4.760 -0.2264  0.6911 -0.1732
 3196poe    c2316747   4.402   6.166   4.878  0.4459 -0.2117 -0.0471
 3196poe     o216748   4.381   6.027   4.883  0.1134 -0.1505  0.2929
 3196poe    c2316749   4.300   5.979   4.778 -0.2215  0.1213  0.4250
 3196poe    c2316750   4.282   5.827   4.790 -0.0179  0.0712  0.1113
 3196poe     o216751   4.372   5.727   4.750  0.2602  0.4335 -0.1726
 3196poe    c3116752   4.404   5.740   4.613 -0.0887 -0.1901 -0.3207
 3197poe    c3116753   5.025   3.990   6.965  0.6246 -0.3448  0.1262
 3197poe     o216754   4.941   4.026   6.857  0.4250 -0.0859  0.3670
 3197poe    c2316755   5.020   4.074   6.751  0.3140 -0.3441  0.1682
 3197poe    c2316756   4.929   4.084   6.627  0.2136  0.3769  0.2987
 3197poe     o216757   4.855   3.966   6.607  0.3579  0.3430 -0.0330
 3197poe    c2316758   4.752   3.985   6.512  0.0212 -0.2702  0.2064
 3197poe    c2316759   4.642   3.877   6.517 -0.4115  0.0992 -0.9402
 3197poe     o216760   4.564   3.868   6.635 -0.0356 -0.2005 -0.7139
 3197poe    c2316761   4.448   3.790   6.617 -0.0788 -0.1795 -0.5249
 3197poe    c2316762   4.410   3.759   6.763 -0.2845 -0.1886 -0.5797
 3197poe     o216763   4.418   3.877   6.839  0.2918 -0.3594 -0.3680
 3197poe    c3116764   4.373   3.853   6.970  0.2413 -0.4150 -0.3956
 3198poe    c3116765   5.976   7.037   4.584  0.4395  0.4259  0.0142
 3198poe     o216766   6.105   7.010   4.533  0.5328  0.3707  0.2785
 3198poe    c2316767   6.168   6.905   4.603 -0.4266 -0.7436 -0.4923
 3198poe    c2316768   6.314   6.900   4.555 -0.2226  0.0239  0.0228
 3198poe     o216769   6.322   6.848   4.425 -0.0796  0.4252 -0.1299
 3198poe    c2316770   6.460   6.836   4.395 -0.0707  0.4246 -0.0884
 3198poe    c2316771   6.484   6.771   4.257  1.2742  0.7435 -0.0180
 3198poe     o216772   6.397   6.826   4.160  0.3332 -0.0108  0.3743
 3198poe    c2316773   6.431   6.768   4.036  0.2763 -0.0977  0.3992
 3198poe    c2316774   6.354   6.856   3.936  0.1666 -0.1583  0.4311
 3198poe     o216775   6.221   6.878   3.977  0.3062  0.0170  0.7922
 3198poe    c3116776   6.175   6.997   3.915 -0.3763 -0.6480 -0.0034
 3199poe    c3116777   6.007   4.627   7.014 -0.5328  0.8478  0.0049
 3199poe     o216778   5.920   4.672   6.913 -0.4951  0.5756 -0.1485
 3199poe    c2316779   5.927   4.805   6.868 -0.1235  0.6766  0.2101
 3199poe    c2316780   5.829   4.827   6.751  0.0960  0.2566 -0.0522
 3199poe     o216781   5.892   4.764   6.642 -0.2247  0.0378 -0.1127
 3199poe    c2316782   5.828   4.769   6.517  0.0063 -0.3149 -0.2462
 3199poe    c2316783   5.886   4.685   6.401  0.6502  0.1331 -0.2540
 3199poe     o216784   5.882   4.544   6.411 -0.7954  0.1936  0.2637
 3199poe    c2316785   5.943   4.487   6.298 -0.3786 -0.4669  0.8116
 3199poe    c2316786   5.925   4.335   6.279  0.1734 -0.4090 -0.2535
 3199poe     o216787   5.795   4.311   6.230  0.2160  0.0393 -0.5910
 3199poe    c3116788   5.765   4.174   6.228 -0.3334  0.1389  0.0915
 3200poe    c3116789   3.617   2.955   2.938  0.4131 -0.3373 -0.0163
 3200poe     o216790   3.499   2.889   2.974  0.2840 -0.0723  0.0484
 3200poe    c2316791   3.410   2.975   3.042 -0.2970 -0.6913  0.0776
 3200poe    c2316792   3.268   2.916   3.059 -0.6125  0.0851  0.1937
 3200poe     o216793   3.195   2.906   2.938 -0.2782  0.1083 -0.0119
 3200poe    c2316794   3.056   2.892   2.953 -0.2378 -0.1686  0.0983
 3200poe    c2316795   2.993   2.898   2.813  0.0819 -0.1096 -0.0441
 3200poe     o216796   3.021   2.799   2.716  0.1588  0.1323 -0.2696
 3200poe    c2316797   2.951   2.837   2.599 -0.4071 -0.4148 -0.1140
 3200poe    c2316798   3.045   2.789   2.487  0.2810  0.4289  0.0886
 3200poe     o216799   3.122   2.679   2.529 -0.4099 -0.1929 -0.2477
 3200poe    c3116800   3.116   2.575   2.435 -0.1505 -0.6475  0.2341
 3201poe    c3116801   5.030   4.434   1.731 -0.8832  0.0677  0.1151
 3201poe     o216802   4.927   4.419   1.635 -0.3274 -0.2445 -0.4399
 3201poe    c2316803   4.814   4.487   1.685  0.1721  0.0803  0.2830
 3201poe    c2316804   4.691   4.428   1.614  0.6760 -0.8906  0.1994
 3201poe     o216805   4.682   4.455   1.476 -0.0956 -0.4935  0.3184
 3201poe    c2316806   4.555   4.438   1.417  0.3906 -0.9824 -0.6049
 3201poe    c2316807   4.504   4.293   1.401 -0.2289 -0.8098 -0.1876
 3201poe     o216808   4.472   4.249   1.531 -0.5748  0.1210  0.0589
 3201poe    c2316809   4.414   4.120   1.531  0.6849 -0.4636 -0.1527
 3201poe    c2316810   4.427   4.035   1.659 -0.1685 -0.3254  0.0272
 3201poe     o216811   4.365   4.112   1.760 -0.2658  0.1238 -0.3677
 3201poe    c3116812   4.324   4.030   1.867 -0.2238  0.4893 -0.0687
 3202poe    c3116813   4.152   1.654   3.177 -0.1454 -0.4112 -0.5326
 3202poe     o216814   4.162   1.560   3.281  0.0335  0.6222  0.4122
 3202poe    c2316815   4.294   1.526   3.318 -0.0346  0.0274  0.1274
 3202poe    c2316816   4.301   1.435   3.442  0.4467 -0.2071 -0.0699
 3202poe     o216817   4.241   1.493   3.556  0.2842 -0.2166 -0.1502
 3202poe    c2316818   4.329   1.485   3.667 -0.1564 -0.1355  0.2086
 3202poe    c2316819   4.299   1.584   3.781  0.6900 -0.0963  0.3981
 3202poe     o216820   4.160   1.580   3.804  0.4933  0.7698 -0.5709
 3202poe    c2316821   4.116   1.687   3.886 -0.1890  0.2615 -0.2694
 3202poe    c2316822   3.962   1.692   3.886 -0.1698  0.8327 -0.1077
 3202poe     o216823   3.914   1.662   3.757  0.2306 -0.4050  0.0179
 3202poe    c3116824   3.775   1.684   3.753  0.2334 -0.5134 -1.0152
 3203poe    c3116825   1.949   1.701   6.425  0.1691 -0.4308 -0.3516
 3203poe     o216826   1.937   1.840   6.402  0.2937 -0.2963  0.3681
 3203poe    c2316827   1.893   1.902   6.520  0.4821  0.3382  0.1073
 3203poe    c2316828   1.872   2.050   6.483 -0.4902  0.1905  0.0364
 3203poe     o216829   1.979   2.090   6.401 -0.0940 -0.0201  0.4464
 3203poe    c2316830   1.954   2.219   6.349  0.1021 -0.3460 -0.4848
 3203poe    c2316831   2.058   2.241   6.238  0.7699  0.0982  0.2145
 3203poe     o216832   2.044   2.123   6.162 -0.3056  0.3227  0.0366
 3203poe    c2316833   2.043   2.152   6.024  0.1523  0.1968  0.0028
 3203poe    c2316834   2.117   2.047   5.940  0.2610 -0.1301  0.5000
 3203poe     o216835   2.045   1.928   5.915  0.3002  0.0192 -0.3766
 3203poe    c3116836   2.136   1.825   5.883 -0.0422 -0.3001 -0.3287
 3204poe    c3116837   6.289   4.367   6.557  0.0469  0.1485 -0.3054
 3204poe     o216838   6.201   4.265   6.598  0.2979 -0.1040 -0.3893
 3204poe    c2316839   6.206   4.148   6.519  0.4657 -0.2078 -0.2253
 3204poe    c2316840   6.068   4.078   6.515  0.2257  0.2463  0.0093
 3204poe     o216841   6.025   4.025   6.639 -0.3504  0.4521 -0.1007
 3204poe    c2316842   5.886   4.006   6.631 -0.3640  0.3959  0.3044
 3204poe    c2316843   5.824   3.929   6.750  0.0553 -0.3059  0.0778
 3204poe     o216844   5.843   3.999   6.871  0.9181 -0.1264 -0.1560
 3204poe    c2316845   5.778   4.122   6.895 -0.4980 -0.9285  0.1941
 3204poe    c2316846   5.812   4.162   7.039  0.3031  0.3597 -0.3381
 3204poe     o216847   5.947   4.192   7.068  0.3012  0.1702 -0.1314
 3204poe    c3116848   5.964   4.243   7.198  0.4483 -0.0740 -0.0523
 3205poe    c3116849   4.399   5.238   5.501  0.2994  0.0534 -0.5530
 3205poe     o216850   4.515   5.285   5.566  0.0070 -0.4437  0.3509
 3205poe    c2316851   4.583   5.194   5.650  0.3422 -0.7262 -0.2134
 3205poe    c2316852   4.708   5.266   5.704  0.2512  0.0326 -0.9977
 3205poe     o216853   4.671   5.380   5.778 -0.2899 -0.5198 -0.4032
 3205poe    c2316854   4.785   5.452   5.820 -0.6332 -0.1898 -0.0246
 3205poe    c2316855   4.755   5.566   5.919 -0.2056 -0.2755  0.2053
 3205poe     o216856   4.688   5.677   5.863 -0.1588 -0.1817  0.3363
 3205poe    c2316857   4.613   5.750   5.958 -0.3209 -0.4700  0.4302
 3205poe    c2316858   4.579   5.892   5.911  0.2332 -0.3409  0.4184
 3205poe     o216859   4.480   5.886   5.811  0.4662  0.4466  0.1279
 3205poe    c3116860   4.437   6.012   5.764 -0.3170  0.0209 -0.3206
 3206poe    c3116861   6.852   7.121   5.840 -0.0890 -0.4622 -0.2603
 3206poe     o216862   6.974   7.134   5.910 -0.3444 -0.2355  0.1513
 3206poe    c2316863   7.074   7.159   5.813  0.0311 -0.4472  0.4834
 3206poe    c2316864   7.211   7.143   5.882  0.5526  0.4550 -0.3143
 3206poe     o216865   7.225   7.227   5.995 -0.1216 -0.1499  0.2318
 3206poe    c2316866   7.331   7.184   6.077  0.0516  0.3701  0.2791
 3206poe    c2316867   7.382   7.300   6.165  0.2156  0.1041  0.5343
 3206poe     o216868   7.278   7.352   6.245 -0.1581 -0.3226  0.3267
 3206poe    c2316869   7.306   7.381   6.380  0.0418  0.6001  0.0923
 3206poe    c2316870   7.175   7.385   6.461 -0.1180 -0.2359 -0.1180
 3206poe     o216871   7.074   7.440   6.380  0.0375 -0.1182 -0.2306
 3206poe    c3116872   6.943   7.438   6.432 -0.1735  0.1179 -0.7341
 3207poe    c3116873   5.756   3.216   4.896 -0.2150 -0.4389 -0.0050
 3207poe     o216874   5.893   3.184   4.884 -0.1469 -0.2224  0.1985
 3207poe    c2316875   5.945   3.157   5.012  0.1399  0.4260  0.2247
 3207poe    c2316876   6.099   3.169   5.003  0.0930  0.6180 -0.3143
 3207poe     o216877   6.139   3.117   4.878 -0.2049  0.1722 -0.2289
 3207poe    c2316878   6.276   3.084   4.879 -0.1648  0.3457  0.1149
 3207poe    c2316879   6.350   3.074   4.744 -0.0708  0.0513  0.1877
 3207poe     o216880   6.346   3.195   4.672 -0.2721 -0.0203  0.0788
 3207poe    c2316881   6.423   3.199   4.554 -0.0794 -0.2716  0.1938
 3207poe    c2316882   6.403   3.340   4.494 -0.7130 -0.3847  0.1272
 3207poe     o216883   6.297   3.341   4.402 -0.0323 -0.3220 -0.6680
 3207poe    c3116884   6.271   3.471   4.353  0.1948 -0.3142 -0.7689
 3208poe    c3116885   7.186   0.240   3.993  0.1840  0.1251  0.5635
 3208poe     o216886   7.280   0.149   3.940  0.2681  0.5043  0.0538
 3208poe    c2316887   7.406   0.155   4.004  0.3672 -0.1134 -0.0776
 3208poe    c2316888   7.490   0.028   3.981  0.4613 -0.1209  0.3035
 3208poe     o216889   7.486  -0.085   4.066 -0.2525 -0.0892  0.3198
 3208poe    c2316890   7.606  -0.157   4.049 -0.5705 -0.4056 -0.6089
 3208poe    c2316891   7.605  -0.295   4.117  0.0451 -0.0571  0.1224
 3208poe     o216892   7.643  -0.289   4.252  0.3606 -0.4457  0.0527
 3208poe    c2316893   7.616  -0.412   4.315  0.5262 -0.6180 -0.2153
 3208poe    c2316894   7.517  -0.410   4.433 -0.2114  0.5938 -0.8386
 3208poe     o216895   7.571  -0.338   4.541 -0.4011  0.2357 -0.5036
 3208poe    c3116896   7.490  -0.362   4.654  0.1387  0.4932 -0.0529
 3209poe    c3116897   7.243   4.496   3.828 -0.8249 -0.2215  0.5486
 3209poe     o216898   7.300   4.562   3.939 -0.6452  0.0218  0.3149
 3209poe    c2316899   7.439   4.538   3.936 -0.6022  0.3127 -0.2651
 3209poe    c2316900   7.523   4.640   4.015 -0.3343 -0.0230 -0.1115
 3209poe     o216901   7.503   4.772   3.969  0.7430  0.4052  0.6328
 3209poe    c2316902   7.548   4.801   3.839 -0.4297  0.3397  0.2033
 3209poe    c2316903   7.513   4.943   3.791  0.5069  0.4981 -0.0451
 3209poe     o216904   7.378   4.966   3.755  0.3627 -0.0294  0.1428
 3209poe    c2316905   7.324   5.095   3.737 -0.0221 -0.2184 -0.0607
 3209poe    c2316906   7.170   5.083   3.733  0.0011 -0.6033  0.1481
 3209poe     o216907   7.129   5.038   3.860 -0.0090 -0.5653  0.1583
 3209poe    c3116908   7.019   5.108   3.914  0.2474  0.0132 -0.0633
 3210poe    c3116909   0.237   6.294   6.358 -0.4710  0.2255  0.0170
 3210poe     o216910   0.140   6.211   6.300 -0.3624  0.3846 -0.3925
 3210poe    c2316911   0.197   6.122   6.206  0.0049  0.2972 -0.0862
 3210poe    c2316912   0.085   6.031   6.152 -0.2172  0.2142  0.5058
 3210poe     o216913  -0.028   6.112   6.132 -0.0485  0.2053 -0.5150
 3210poe    c2316914  -0.107   6.074   6.022 -0.2350 -0.2245 -0.2362
 3210poe    c2316915  -0.229   6.163   5.992 -0.0897  0.1476  0.2587
 3210poe     o216916  -0.312   6.171   6.106  0.5941 -0.0085  0.7688
 3210poe    c2316917  -0.388   6.290   6.106 -0.1838 -0.4912 -0.0194
 3210poe    c2316918  -0.461   6.325   6.238 -0.5322 -0.0711 -0.3218
 3210poe     o216919  -0.569   6.242   6.275 -0.4745  0.0954  0.2178
 3210poe    c3116920  -0.627   6.299   6.390 -1.1998 -0.4735  0.1409
 3211poe    c3116921   6.488   4.062   6.224 -0.3807 -0.4412 -0.4259
 3211poe     o216922   6.499   4.118   6.096 -0.5830  0.0024 -0.2486
 3211poe    c2316923   6.385   4.193   6.059 -0.2940  0.7285  0.3072
 3211poe    c2316924   6.437   4.291   5.953 -0.3204 -0.4371 -0.8022
 3211poe     o216925   6.533   4.218   5.879  0.3096 -0.0690 -0.3530
 3211poe    c2316926   6.590   4.300   5.779  0.6298  0.3374  0.1541
 3211poe    c2316927   6.701   4.228   5.700  0.6574  0.5648 -0.0138
 3211poe     o216928   6.817   4.183   5.767  0.2695 -0.0965  0.2154
 3211poe    c2316929   6.870   4.080   5.687  0.1340 -0.3061  0.3932
 3211poe    c2316930   6.981   4.016   5.772  0.6128 -0.1526 -0.1090
 3211poe     o216931   6.922   3.979   5.895 -0.3082 -0.2363 -0.5676
 3211poe    c3116932   7.018   3.911   5.972 -0.2177  0.3980 -0.1154
 3212poe    c3116933   2.463   1.841   5.360  0.4103  0.1006 -0.3575
 3212poe     o216934   2.527   1.946   5.293  0.7063 -0.0407 -0.2985
 3212poe    c2316935   2.458   2.069   5.288  0.4124 -0.2089 -0.3935
 3212poe    c2316936   2.542   2.196   5.265 -0.0426  0.1332 -0.1930
 3212poe     o216937   2.572   2.184   5.128  0.2820  0.2277 -0.1306
 3212poe    c2316938   2.655   2.285   5.075  0.1279  0.1022 -0.6191
 3212poe    c2316939   2.682   2.264   4.925  0.8445 -0.1402 -0.4580
 3212poe     o216940   2.764   2.151   4.906  0.7120 -0.3139 -0.0008
 3212poe    c2316941   2.813   2.134   4.775  0.3766 -0.3160 -0.1263
 3212poe    c2316942   2.780   1.991   4.730 -0.0214 -0.0515 -0.6999
 3212poe     o216943   2.821   1.913   4.840 -0.9298 -0.0466 -0.3497
 3212poe    c3116944   2.845   1.781   4.796 -0.3219 -0.0607  0.0083
 3213poe    c3116945   6.446   0.341   2.878 -0.2654  0.1427 -0.1842
 3213poe     o216946   6.333   0.267   2.920 -0.0915  0.2871  0.5465
 3213poe    c2316947   6.226   0.286   2.830 -0.0138 -0.0371  0.3822
 3213poe    c2316948   6.088   0.304   2.895 -0.6844  0.3119 -1.1094
 3213poe     o216949   6.014   0.188   2.928 -0.1107  0.3697  0.4503
 3213poe    c2316950   5.878   0.223   2.939 -0.3137 -0.2647  0.0096
 3213poe    c2316951   5.803   0.123   3.029  0.0835 -0.5048  0.0771
 3213poe     o216952   5.800  -0.013   2.994 -0.0470 -0.3752 -0.4217
 3213poe    c2316953   5.735  -0.095   3.087 -0.2089 -0.1178 -0.3071
 3213poe    c2316954   5.799  -0.234   3.106  0.1086  0.0292 -0.2961
 3213poe     o216955   5.922  -0.225   3.174  0.1074 -0.4449 -0.2243
 3213poe    c3116956   5.957  -0.360   3.193  0.1735 -0.4535 -0.4007
 3214poe    c3116957   1.551   5.891   0.550 -0.1552  0.8878 -0.2179
 3214poe     o216958   1.634   5.904   0.436  0.1222  0.0090 -0.1216
 3214poe    c2316959   1.555   5.941   0.325  0.2936 -0.2559 -0.3348
 3214poe    c2316960   1.635   5.983   0.200 -0.4017  0.2137 -0.6325
 3214poe     o216961   1.728   6.086   0.224 -0.0820 -0.2155  0.0236
 3214poe    c2316962   1.799   6.101   0.103 -0.7040 -0.0440 -0.3245
 3214poe    c2316963   1.882   6.230   0.105 -0.0930 -0.4372  0.3499
 3214poe     o216964   1.964   6.229   0.219  0.1881 -0.2752  0.1519
 3214poe    c2316965   2.014   6.356   0.253 -0.1867 -0.0051 -0.3124
 3214poe    c2316966   2.082   6.351   0.391 -0.1353 -0.0751 -0.3405
 3214poe     o216967   1.986   6.297   0.478  0.1973 -0.6165 -0.3031
 3214poe    c3116968   2.016   6.318   0.614  0.4525  1.1697 -0.6052
 3215poe    c3116969   2.643   1.198   0.971  0.0917  0.6284 -0.2238
 3215poe     o216970   2.659   1.070   1.026 -0.2205  0.2990 -0.8861
 3215poe    c2316971   2.786   1.021   0.989 -0.1209  0.2643 -0.5015
 3215poe    c2316972   2.833   0.919   1.095 -0.7235  0.0911 -0.3987
 3215poe     o216973   2.773   0.793   1.073  0.5105 -0.5354 -0.2720
 3215poe    c2316974   2.813   0.697   1.168  0.1234 -0.2549  0.1816
 3215poe    c2316975   2.753   0.555   1.166 -0.0808 -0.1723  0.3947
 3215poe     o216976   2.627   0.563   1.229 -0.1785  0.2827  0.1437
 3215poe    c2316977   2.541   0.462   1.181  0.0833  0.2829 -0.3357
 3215poe    c2316978   2.423   0.514   1.098 -0.2335 -0.3256 -0.2712
 3215poe     o216979   2.445   0.588   0.980  0.7792 -0.2335 -0.0329
 3215poe    c3116980   2.348   0.576   0.878  0.1097  0.0347  0.5622
 3216poe    c3116981   3.001   2.483   2.851 -0.3721 -0.4578 -0.1755
 3216poe     o216982   3.118   2.514   2.780 -0.1572 -0.2776  0.2568
 3216poe    c2316983   3.223   2.424   2.808  0.0052 -0.0377  0.4211
 3216poe    c2316984   3.358   2.492   2.778 -0.0405 -0.0126  0.2718
 3216poe     o216985   3.370   2.556   2.653  0.0948  0.3668  0.4759
 3216poe    c2316986   3.506   2.562   2.615  0.0660 -0.4039  0.2277
 3216poe    c2316987   3.529   2.662   2.501 -0.3005 -0.3854  0.1675
 3216poe     o216988   3.545   2.794   2.548 -0.3653 -0.2459 -0.1987
 3216poe    c2316989   3.604   2.882   2.455 -0.1423 -0.1751  0.0091
 3216poe    c2316990   3.565   3.025   2.494 -0.0620  0.0782 -0.8198
 3216poe     o216991   3.635   3.080   2.604 -0.2247 -0.0524 -0.6524
 3216poe    c3116992   3.604   3.218   2.605 -0.3941 -0.0852  0.2894
 3217poe    c3116993   2.311   5.026   0.658  0.9479 -0.1488 -0.3025
 3217poe     o216994   2.253   5.068   0.779  0.2251  0.2732 -0.7859
 3217poe    c2316995   2.152   5.166   0.766 -0.2947 -0.1053  0.2220
 3217poe    c2316996   2.076   5.224   0.886 -0.0071  0.3450  0.1901
 3217poe     o216997   2.029   5.124   0.974  0.0765 -0.0791 -0.2441
 3217poe    c2316998   1.993   5.186   1.095 -0.1885 -0.1240 -0.3006
 3217poe    c2316999   1.955   5.071   1.192 -0.0330 -0.1659 -0.2895
 3217poe     o217000   2.062   4.987   1.228 -0.1420 -0.0228  0.3704
 3217poe    c2317001   2.011   4.889   1.317 -0.0835  0.1261  0.5688
 3217poe    c2317002   2.122   4.785   1.336 -0.0340 -0.0370 -0.5343
 3217poe     o217003   2.178   4.747   1.212  0.1225 -0.1028 -0.4447
 3217poe    c3117004   2.251   4.630   1.240 -0.0742 -0.2057 -0.3555
 3218poe    c3117005   2.501   5.695   1.480 -0.0601 -0.4484  0.1775
 3218poe     o217006   2.476   5.752   1.606  0.0986 -0.3264  0.1537
 3218poe    c2317007   2.591   5.774   1.685  0.0701  0.5700 -0.0397
 3218poe    c2317008   2.560   5.776   1.836 -0.3717 -0.1273 -0.1184
 3218poe     o217009   2.460   5.870   1.868 -0.0038  0.2012  0.0606
 3218poe    c2317010   2.444   5.895   2.005  0.5007  0.3721  0.0915
 3218poe    c2317011   2.314   5.972   2.036  0.4330  0.3134 -0.0481
 3218poe     o217012   2.294   6.077   1.944  0.2207  0.1624 -0.1752
 3218poe    c2317013   2.184   6.156   1.982  0.0866 -0.2959  0.3897
 3218poe    c2317014   2.162   6.239   1.854  0.2336 -0.2576  0.3884
 3218poe     o217015   2.175   6.155   1.742  0.0919  0.0054  0.1749
 3218poe    c3117016   2.100   6.212   1.637  0.2558  0.5249  0.3361
 3219poe    c3117017   0.697   2.480   2.156  0.6775  0.5203 -0.5414
 3219poe     o217018   0.766   2.361   2.183  0.1265  0.2332 -0.3707
 3219poe    c2317019   0.734   2.301   2.306 -0.1596  0.3940 -0.3653
 3219poe    c2317020   0.786   2.156   2.291 -0.2411  0.2625  0.5607
 3219poe     o217021   0.907   2.166   2.219 -0.3955  0.0555  0.2724
 3219poe    c2317022   0.964   2.037   2.213  0.0422  0.2779 -0.4958
 3219poe    c2317023   1.092   2.038   2.127  0.4136 -0.2893  0.0327
 3219poe     o217024   1.064   2.074   1.993  0.1782 -0.6168 -0.0071
 3219poe    c2317025   1.188   2.090   1.929  0.1777  0.4077  0.2242
 3219poe    c2317026   1.170   2.126   1.780  0.7510  0.5343  0.1803
 3219poe     o217027   1.074   2.228   1.764 -0.6985 -0.8000  0.0823
 3219poe    c3117028   1.062   2.256   1.627  0.1917  0.0038  0.1608
 3220poe    c3117029   0.336   4.476   0.964  0.6825  0.0916 -0.2217
 3220poe     o217030   0.332   4.432   1.098 -0.5501  0.2628 -0.1882
 3220poe    c2317031   0.265   4.529   1.176 -0.3245  0.3603 -0.1126
 3220poe    c2317032   0.206   4.495   1.314 -0.0900 -0.5145 -0.2177
 3220poe     o217033   0.097   4.407   1.300 -0.3934 -0.2574  0.5057
 3220poe    c2317034   0.061   4.375   1.433 -0.4445 -0.3357  0.4730
 3220poe    c2317035  -0.049   4.267   1.431 -0.1247 -0.6613 -0.4888
 3220poe     o217036  -0.003   4.146   1.376  0.4546 -0.5732 -0.1977
 3220poe    c2317037  -0.080   4.034   1.410  0.0832 -0.1345  0.4384
 3220poe    c2317038  -0.018   3.915   1.334  0.2913  0.5606 -0.4994
 3220poe     o217039   0.014   3.960   1.204  1.0327 -0.2951 -0.6294
 3220poe    c3117040   0.022   3.847   1.121 -0.3821 -1.1825  0.3838
 3221poe    c3117041   1.532   0.373   4.970  0.0448  0.2415 -0.3164
 3221poe     o217042   1.572   0.244   5.012  0.1411  0.3184 -0.1699
 3221poe    c2317043   1.470   0.152   4.984  0.3325 -0.0929  0.4737
 3221poe    c2317044   1.511   0.004   4.989  0.4330 -0.0862 -0.1564
 3221poe     o217045   1.563  -0.028   5.116 -0.6455 -0.0857  0.3013
 3221poe    c2317046   1.625  -0.155   5.123 -0.6509 -0.0748  0.5447
 3221poe    c2317047   1.658  -0.183   5.271 -0.0112  0.0063  0.4219
 3221poe     o217048   1.773  -0.116   5.317  0.2148 -0.1438  0.0808
 3221poe    c2317049   1.777  -0.085   5.454  0.4314 -0.1628  0.0792
 3221poe    c2317050   1.875   0.026   5.495  0.1528  0.0978  0.0478
 3221poe     o217051   1.853   0.147   5.427  0.4235  0.0859 -0.0642
 3221poe    c3117052   1.948   0.237   5.480 -0.1398  0.7225 -0.1103
 3222poe    c3117053   7.044   3.513   4.392  0.0723 -0.7760  0.7018
 3222poe     o217054   6.968   3.552   4.505 -0.0480 -0.2333  0.4352
 3222poe    c2317055   6.921   3.448   4.587 -0.4462 -0.2463  0.1934
 3222poe    c2317056   6.836   3.488   4.708 -0.2981 -0.0871  0.2449
 3222poe     o217057   6.920   3.523   4.815  0.0051 -0.1756  0.0350
 3222poe    c2317058   6.853   3.569   4.930 -0.1582 -0.2537 -0.0287
 3222poe    c2317059   6.952   3.635   5.029  0.0156 -0.0648 -0.3263
 3222poe     o217060   7.026   3.726   4.952 -0.1127  0.7366  0.4794
 3222poe    c2317061   7.047   3.850   5.015 -0.3948  1.3427 -0.5848
 3222poe    c2317062   7.164   3.933   4.960  0.3815  0.4300 -0.3369
 3222poe     o217063   7.184   3.912   4.822 -0.6086 -0.0659 -0.4124
 3222poe    c3117064   7.261   4.013   4.761 -0.5356 -0.1755 -0.5008
 3223poe    c3117065   4.047   2.937   2.703 -0.1257 -0.3910  0.3092
 3223poe     o217066   4.126   2.829   2.658  0.2208  0.2515 -0.6632
 3223poe    c2317067   4.055   2.755   2.561 -0.0923  0.2297 -0.4206
 3223poe    c2317068   4.131   2.621   2.548  0.0006  0.2422 -0.0241
 3223poe     o217069   4.271   2.633   2.534  0.0719 -0.5659 -0.0293
 3223poe    c2317070   4.307   2.505   2.488 -0.1816 -0.5977 -0.1447
 3223poe    c2317071   4.458   2.472   2.499  0.0090  0.1798 -0.3726
 3223poe     o217072   4.512   2.461   2.629  0.2477  0.1791 -0.4711
 3223poe    c2317073   4.610   2.360   2.636 -0.3634 -0.3928 -0.0292
 3223poe    c2317074   4.700   2.352   2.761 -0.4847  0.1143  0.0968
 3223poe     o217075   4.647   2.311   2.885 -0.0472 -0.3542  0.1359
 3223poe    c3117076   4.701   2.382   2.994 -0.0945  0.0630 -0.1093
 3224poe    c3117077   1.666   1.587   3.455 -0.3988 -0.2587 -0.2560
 3224poe     o217078   1.775   1.634   3.379 -0.4448  0.5681  0.1846
 3224poe    c2317079   1.900   1.639   3.443 -0.7108  0.0463  0.7511
 3224poe    c2317080   2.025   1.691   3.369 -0.7516 -0.7284  0.1201
 3224poe     o217081   2.055   1.610   3.258  0.1236  0.2488 -0.3720
 3224poe    c2317082   2.170   1.666   3.199  0.4797  0.3682  0.4255
 3224poe    c2317083   2.201   1.622   3.055 -0.1194  0.0867  0.3807
 3224poe     o217084   2.105   1.626   2.952  0.4439  0.9004 -0.1265
 3224poe    c2317085   2.156   1.570   2.833 -0.5471 -0.6207  0.1321
 3224poe    c2317086   2.078   1.640   2.721  0.5628  0.0227 -0.2535
 3224poe     o217087   1.944   1.601   2.736  0.5755  0.1982  0.3459
 3224poe    c3117088   1.893   1.560   2.611  0.2220  0.5000  0.3890
 3225poe    c3117089   3.565   1.272   0.619  0.0625 -0.2246  0.2700
 3225poe     o217090   3.603   1.335   0.740 -0.1250 -0.0657  0.2453
 3225poe    c2317091   3.719   1.267   0.782 -0.0343  0.0660  0.2082
 3225poe    c2317092   3.805   1.362   0.867 -0.3308  0.3704  0.1730
 3225poe     o217093   3.724   1.421   0.966 -0.3982  0.1012  0.2796
 3225poe    c2317094   3.813   1.499   1.044 -0.0094 -0.1699  0.1098
 3225poe    c2317095   3.737   1.556   1.165 -0.1012  0.7535 -0.3655
 3225poe     o217096   3.599   1.563   1.138 -0.1190  0.3853 -0.3745
 3225poe    c2317097   3.554   1.612   1.263 -0.0092 -0.3462 -0.0395
 3225poe    c2317098   3.404   1.646   1.259  0.0004 -0.2596  0.3851
 3225poe     o217099   3.328   1.530   1.288  0.1102 -0.5203 -0.3648
 3225poe    c3117100   3.194   1.573   1.280  0.3280  0.3644  0.5023
 3226poe    c3117101   7.251   3.591   3.055 -0.0170  0.4038  0.1462
 3226poe     o217102   7.227   3.539   3.184 -0.1855 -0.2427 -0.1378
 3226poe    c2317103   7.189   3.406   3.158 -0.2456 -0.2049 -0.2437
 3226poe    c2317104   7.175   3.303   3.272 -0.1348 -0.0868 -0.1230
 3226poe     o217105   7.297   3.284   3.339 -0.3289 -0.1346  0.2187
 3226poe    c2317106   7.279   3.163   3.410 -0.3250 -0.1244  0.2370
 3226poe    c2317107   7.402   3.099   3.475 -0.3135 -0.1671  0.1734
 3226poe     o217108   7.509   3.092   3.383 -0.0607  0.4852  0.4113
 3226poe    c2317109   7.628   3.098   3.459  0.1894  0.3623  0.0327
 3226poe    c2317110   7.752   3.098   3.368  0.3986 -0.4074  0.3081
 3226poe     o217111   7.780   2.988   3.284  0.2071 -0.3504  0.1681
 3226poe    c3117112   7.696   2.983   3.172  0.5343  0.0760 -0.0958
 3227poe    c3117113   4.969   5.840   7.251 -0.0273  0.4323 -0.8656
 3227poe     o217114   5.099   5.894   7.251  0.0695  0.2085  0.1435
 3227poe    c2317115   5.145   5.869   7.382  0.0278 -0.2102  0.0825
 3227poe    c2317116   5.286   5.927   7.402 -0.1082  0.0658  0.2658
 3227poe     o217117   5.271   6.065   7.378  0.6780  0.0881 -0.1239
 3227poe    c2317118   5.384   6.146   7.403  0.1444  0.8002 -0.0116
 3227poe    c2317119   5.338   6.293   7.394 -0.3234  0.6489 -0.1371
 3227poe     o217120   5.316   6.327   7.259 -0.0179 -0.1835 -0.4026
 3227poe    c2317121   5.226   6.436   7.256 -0.4721 -0.5430 -0.0266
 3227poe    c2317122   5.189   6.492   7.117 -0.3210  0.4138  0.3117
 3227poe     o217123   5.115   6.402   7.037  0.2231  0.2018  0.0401
 3227poe    c3117124   5.094   6.472   6.917  0.3737 -0.1166 -0.1737
 3228poe    c3117125   0.911   0.913   3.728 -0.3170 -0.3073 -0.3394
 3228poe     o217126   0.903   0.784   3.784  0.3876 -0.2918 -0.1943
 3228poe    c2317127   0.878   0.682   3.690  0.1561  0.1791 -0.6541
 3228poe    c2317128   0.820   0.554   3.753  0.4406  0.6096  0.5103
 3228poe     o217129   0.894   0.480   3.848  0.3632 -0.0197  0.0896
 3228poe    c2317130   0.834   0.359   3.887  0.4507 -0.2886 -0.5866
 3228poe    c2317131   0.926   0.258   3.958 -0.0039  0.0248  0.4786
 3228poe     o217132   0.990   0.337   4.056 -0.4350  0.5080  0.3801
 3228poe    c2317133   1.067   0.279   4.159 -0.5895 -0.4509 -0.0338
 3228poe    c2317134   1.095   0.391   4.261  0.7744 -0.6434 -0.1714
 3228poe     o217135   1.113   0.510   4.187  0.3777 -0.1721  0.4771
 3228poe    c3117136   1.219   0.578   4.250  0.7531 -0.3566  0.0473
 3229poe    c3117137   5.242   7.073   6.425 -0.2173 -0.5203 -0.5665
 3229poe     o217138   5.166   7.083   6.543 -0.0993 -0.0079 -0.5340
 3229poe    c2317139   5.091   6.964   6.540 -0.0170 -0.0753  0.0160
 3229poe    c2317140   4.987   6.941   6.652 -0.0897  0.0214 -0.0309
 3229poe     o217141   5.032   6.936   6.785 -0.5999 -0.0006  0.1415
 3229poe    c2317142   4.932   6.908   6.881 -0.0457 -0.5539  0.5638
 3229poe    c2317143   5.020   6.856   6.996 -0.0642 -0.3793  0.6576
 3229poe     o217144   5.077   6.952   7.083  0.1973 -0.2132  0.3044
 3229poe    c2317145   4.991   6.979   7.191  0.1086 -0.2761  0.2499
 3229poe    c2317146   5.057   7.071   7.296 -0.1570  0.1388  0.0579
 3229poe     o217147   5.072   7.203   7.249  0.0124  0.1629  0.1822
 3229poe    c3117148   5.174   7.271   7.319 -0.0054  0.1671  0.2045
 3230poe    c3117149   3.893   0.591   0.564 -0.0500  0.0099 -0.0711
 3230poe     o217150   3.936   0.486   0.481 -0.3798 -0.3951  0.2626
 3230poe    c2317151   4.004   0.522   0.363 -0.7602 -0.9883 -0.1428
 3230poe    c2317152   4.079   0.416   0.279  0.1015 -0.7923  0.3626
 3230poe     o217153   4.011   0.297   0.245  0.1433 -0.6359 -0.2779
 3230poe    c2317154   4.107   0.204   0.201  0.4754 -0.5344  0.2280
 3230poe    c2317155   4.074   0.061   0.155 -0.5175 -0.1811 -0.1632
 3230poe     o217156   4.052  -0.022   0.267  0.4805 -0.3742 -0.1060
 3230poe    c2317157   4.126  -0.142   0.256  0.4085 -0.3875 -0.4602
 3230poe    c2317158   4.135  -0.224   0.386  0.6747  0.2204 -0.0937
 3230poe     o217159   4.185  -0.132   0.481 -0.6289  1.2916 -0.4108
 3230poe    c3117160   4.102  -0.125   0.595  0.2692  0.1986  0.3440
 3231poe    c3117161   5.454   3.411   6.231  0.6138  0.2778  0.3354
 3231poe     o217162   5.423   3.285   6.286  0.0766  0.4051  0.3287
 3231poe    c2317163   5.288   3.278   6.327  0.0244  0.0323  0.1002
 3231poe    c2317164   5.274   3.153   6.417 -0.3450  0.3034  0.4195
 3231poe     o217165   5.368   3.056   6.378 -0.7666  0.2754 -0.5660
 3231poe    c2317166   5.383   2.954   6.475  0.0105  0.7139 -0.2134
 3231poe    c2317167   5.481   2.856   6.409 -0.2961  0.2550  0.0060
 3231poe     o217168   5.610   2.899   6.371 -0.0880  0.0097  0.4278
 3231poe    c2317169   5.683   2.793   6.314 -0.8052 -0.1324 -0.2510
 3231poe    c2317170   5.833   2.830   6.309 -0.6350 -0.6159  0.8090
 3231poe     o217171   5.884   2.863   6.436  0.1141 -0.1871  0.4018
 3231poe    c3117172   6.003   2.938   6.425  0.0176  0.0461  0.9426
 3232poe    c3117173   0.694   1.027   1.973 -0.2472 -0.1217 -0.1713
 3232poe     o217174   0.614   1.108   2.056 -0.0752 -0.7264  0.6026
 3232poe    c2317175   0.479   1.067   2.056 -0.0391 -0.8470  0.3618
 3232poe    c2317176   0.407   1.143   2.169  0.2254 -0.0603  0.0059
 3232poe     o217177   0.397   1.283   2.163 -0.2203 -0.1140 -0.6913
 3232poe    c2317178   0.323   1.313   2.280  0.4764 -0.1330 -0.2369
 3232poe    c2317179   0.325   1.460   2.326 -0.4623 -0.2372  0.1639
 3232poe     o217180   0.461   1.490   2.349 -0.4029 -0.1709 -0.2667
 3232poe    c2317181   0.469   1.631   2.361  0.6084 -0.3242  1.0240
 3232poe    c2317182   0.584   1.692   2.279 -0.3095 -0.1812 -0.1867
 3232poe     o217183   0.713   1.682   2.336 -0.4062 -0.8744 -0.0778
 3232poe    c3117184   0.735   1.752   2.456 -0.1097 -0.7983 -0.1773
 3233poe    c3117185   7.132   4.750   1.659  0.0011  0.2128  0.3733
 3233poe     o217186   7.097   4.633   1.589 -0.0113  0.3226  0.1941
 3233poe    c2317187   6.961   4.602   1.607 -0.0587  0.3116 -0.1645
 3233poe    c2317188   6.920   4.482   1.519 -0.3170 -0.0037  0.3747
 3233poe     o217189   6.812   4.399   1.553 -0.6830  0.2671 -0.1084
 3233poe    c2317190   6.805   4.308   1.445 -0.1760 -0.4249  0.4320
 3233poe    c2317191   6.657   4.275   1.418 -0.1925 -0.1218  0.1444
 3233poe     o217192   6.600   4.326   1.299 -0.2043 -0.6847 -0.0970
 3233poe    c2317193   6.471   4.274   1.275 -0.5010 -0.0282  0.0525
 3233poe    c2317194   6.388   4.345   1.166 -0.1848 -0.5067 -0.5105
 3233poe     o217195   6.429   4.334   1.032 -0.1602 -0.2168 -0.5286
 3233poe    c3117196   6.339   4.410   0.954  0.2082  0.1812 -0.5699
 3234poe    c3117197   5.093   0.546   0.511 -0.1354 -0.0870  0.1553
 3234poe     o217198   5.171   0.659   0.478  0.2780 -0.4104  0.0009
 3234poe    c2317199   5.242   0.647   0.358  0.2341  0.1919 -0.0878
 3234poe    c2317200   5.279   0.784   0.297 -0.1024  0.1437 -0.4008
 3234poe     o217201   5.379   0.853   0.369 -0.2824  0.0527 -0.0626
 3234poe    c2317202   5.381   0.984   0.318 -0.2147  0.0133 -0.1616
 3234poe    c2317203   5.488   1.075   0.382 -0.3236  0.2510 -0.3157
 3234poe     o217204   5.435   1.096   0.511 -0.1144 -0.2171 -0.1517
 3234poe    c2317205   5.483   1.208   0.580  0.4811 -0.3505 -0.3414
 3234poe    c2317206   5.600   1.204   0.681 -0.1057  0.0672  0.3599
 3234poe     o217207   5.586   1.107   0.782 -0.1415 -0.1195  0.1762
 3234poe    c3117208   5.684   1.127   0.882 -0.0444 -0.2422  0.1046
 3235poe    c3117209   5.971   2.938   3.870 -0.8337  0.0954  0.4126
 3235poe     o217210   5.936   2.875   3.748 -0.3177  0.0961  0.2628
 3235poe    c2317211   6.037   2.861   3.650 -0.4437 -0.0017  0.1469
 3235poe    c2317212   5.982   2.760   3.547 -0.0998 -0.2619  0.2125
 3235poe     o217213   5.860   2.813   3.500  0.5047  0.4797 -0.5508
 3235poe    c2317214   5.811   2.727   3.400 -0.0413  0.4674 -0.2764
 3235poe    c2317215   5.717   2.617   3.454  0.6165 -0.0197 -0.1151
 3235poe     o217216   5.778   2.552   3.564 -0.0503 -0.3529  0.0649
 3235poe    c2317217   5.797   2.416   3.533  0.2668 -0.3487  0.2399
 3235poe    c2317218   5.886   2.357   3.644  0.2341  0.0822  0.4986
 3235poe     o217219   5.816   2.350   3.767 -0.4875 -0.5218  0.0642
 3235poe    c3117220   5.839   2.222   3.823  0.2253 -0.1456  0.6497
 3236poe    c3117221   5.089   3.041   0.400  0.2986  0.5809  0.5153
 3236poe     o217222   5.105   3.160   0.328 -0.0370  0.1786 -0.2385
 3236poe    c2317223   5.240   3.196   0.308 -0.1117  0.5134 -0.1572
 3236poe    c2317224   5.270   3.346   0.290  0.2013  0.4269 -0.3803
 3236poe     o217225   5.188   3.407   0.193 -0.6869 -0.0266  0.0660
 3236poe    c2317226   5.234   3.539   0.171  0.4486 -0.4092  0.0463
 3236poe    c2317227   5.158   3.591   0.047 -0.2334  0.1783  0.6940
 3236poe     o217228   5.022   3.622   0.067 -0.5581 -0.0955 -0.9289
 3236poe    c2317229   5.005   3.761   0.054 -0.2569 -0.0370 -0.7126
 3236poe    c2317230   4.871   3.821   0.099 -0.0112 -0.0074 -0.0016
 3236poe     o217231   4.761   3.764   0.031  0.1373  0.1086 -0.3433
 3236poe    c3117232   4.645   3.826   0.084  0.1515  0.0922 -0.2931
 3237poe    c3117233   2.873   0.195   1.697  0.4923  0.0041 -0.0640
 3237poe     o217234   2.807   0.255   1.806  0.4909 -0.3768  0.1481
 3237poe    c2317235   2.908   0.301   1.893  0.1535 -0.0792  0.3835
 3237poe    c2317236   2.836   0.322   2.028  0.1843 -0.5522  0.4742
 3237poe     o217237   2.720   0.398   2.000  0.1511 -0.7067  0.1942
 3237poe    c2317238   2.628   0.407   2.106 -0.1332  0.4987 -0.1421
 3237poe    c2317239   2.502   0.485   2.063 -0.2967  0.5038  0.3447
 3237poe     o217240   2.431   0.436   1.951  0.3315  0.8032 -0.1913
 3237poe    c2317241   2.314   0.511   1.933 -0.0259  0.1954 -0.4282
 3237poe    c2317242   2.220   0.420   1.852 -0.1730 -0.2981  0.2856
 3237poe     o217243   2.273   0.361   1.735 -0.1295 -0.1973  0.2546
 3237poe    c3117244   2.206   0.239   1.712 -0.1442 -0.1164 -0.1423
 3238poe    c3117245   5.768   3.380   6.886  0.1043  0.3727 -0.3486
 3238poe     o217246   5.803   3.388   6.750  0.5716  0.3478 -0.2309
 3238poe    c2317247   5.708   3.465   6.680  0.2747  0.0353 -0.1763
 3238poe    c2317248   5.745   3.499   6.534 -0.2306  0.5172 -0.1949
 3238poe     o217249   5.744   3.382   6.455  0.3916  0.3122  0.0987
 3238poe    c2317250   5.820   3.401   6.338  0.1443  0.1595 -0.0869
 3238poe    c2317251   5.866   3.279   6.257  0.0695 -0.1104  0.2736
 3238poe     o217252   5.746   3.230   6.202  0.2947 -0.3174 -0.0423
 3238poe    c2317253   5.765   3.135   6.099 -0.2642 -0.4890  0.0061
 3238poe    c2317254   5.627   3.093   6.046 -0.4242  0.3537 -0.2601
 3238poe     o217255   5.537   3.045   6.143  0.1398 -0.5126 -0.1579
 3238poe    c3117256   5.448   2.961   6.073  0.2014  0.0674 -0.9453
 3239poe    c3117257   6.186   6.533   4.524  0.1921  0.5991 -0.3488
 3239poe     o217258   6.242   6.410   4.566 -0.3106  0.4504 -0.1003
 3239poe    c2317259   6.362   6.437   4.634  0.3192  0.0076 -1.0230
 3239poe    c2317260   6.451   6.311   4.644  0.2736  0.1048  0.9546
 3239poe     o217261   6.402   6.198   4.712  0.1692 -0.7262 -0.4690
 3239poe    c2317262   6.489   6.098   4.761  0.6218  0.0724  0.3701
 3239poe    c2317263   6.417   6.003   4.859 -0.1733  0.2603 -0.0230
 3239poe     o217264   6.508   5.923   4.930 -0.1574  0.3147  0.0185
 3239poe    c2317265   6.462   5.806   4.995  0.1788  0.0462 -0.2218
 3239poe    c2317266   6.496   5.687   4.904  0.1384 -0.1427  0.0087
 3239poe     o217267   6.451   5.576   4.978 -0.8003  0.0175 -0.3015
 3239poe    c3117268   6.511   5.458   4.931 -0.3366  0.2151 -0.2139
 3240poe    c3117269   0.050   5.002   0.049  0.1365  0.0135  0.0346
 3240poe     o217270   0.004   4.964   0.177 -0.0160 -0.0694 -0.0447
 3240poe    c2317271  -0.137   4.958   0.183 -0.0619  1.0845  0.1801
 3240poe    c2317272  -0.187   4.935   0.326 -0.7752  0.7231 -0.1219
 3240poe     o217273  -0.150   5.043   0.410 -0.0780  0.2389  0.2029
 3240poe    c2317274  -0.254   5.070   0.502 -0.4159  0.0195 -0.1089
 3240poe    c2317275  -0.234   5.216   0.548  0.6350  0.0708 -0.6795
 3240poe     o217276  -0.120   5.244   0.625  0.2226  0.2469 -0.1266
 3240poe    c2317277  -0.112   5.369   0.689 -0.4980  0.1907  0.0840
 3240poe    c2317278   0.037   5.402   0.713 -0.5592  0.0502  0.6714
 3240poe     o217279   0.107   5.408   0.591 -0.9289  0.6298  0.4794
 3240poe    c3117280   0.238   5.456   0.609 -0.3920 -0.5379 -0.1699
 3241lim     li17281   0.283   0.415   5.599 -0.3916  0.6604  0.1291
 3242lim     li17282   1.262   0.890   2.692 -0.5157  0.5251  0.2517
 3243lim     li17283   2.598   5.814   1.024 -0.5791  0.3366  0.6007
 3244lim     li17284   3.399   1.034   1.528 -1.0396 -0.2549 -0.0128
 3245lim     li17285   4.791   7.239   0.359 -0.6304  0.0218 -0.5045
 3246lim     li17286   4.336   0.406   6.939  0.4546 -0.1010 -0.2176
 3247lim     li17287   5.717   4.725   1.454 -0.3819  1.1202 -1.8078
 3248lim     li17288   0.607   1.418   0.073  0.0640  0.9271 -0.0943
 3249lim     li17289   5.564   0.687   6.405 -0.2974  0.7925  1.3156
 3250lim     li17290   2.465   4.347   0.054  1.2418  0.6317 -0.1682
 3251lim     li17291   5.250   1.220   4.852  0.3622  0.9988  1.2868
 3252lim     li17292   0.483   3.224   2.125 -0.1759 -0.4983 -0.2233
 3253lim     li17293   7.249   1.909   4.490  0.5710  1.2698  0.0056
 3254lim     li17294   0.616   2.284   5.486 -0.5180  0.5526 -0.3410
 3255lim     li17295   6.290   1.367   2.561 -0.2122  1.4375 -1.2235
 3256lim     li17296   3.521   3.075   2.006  0.8273  0.1617  0.7245
 3257lim     li17297   1.957   3.116   2.917  1.4986  0.2335  0.4794
 3258lim     li17298   5.480   1.979   6.271  0.0603 -0.4763 -0.4040
 3259lim     li17299   6.227   6.541   6.461  0.0982 -0.1036  1.1632
 3260lim     li17300   3.578   5.988   0.277 -0.5619 -0.7767  0.4392
 3261lim     li17301   0.885   3.970   4.218  0.0691 -0.2848 -0.9383
 3262lim     li17302   4.776   5.934   3.821  1.2639 -0.6196  1.3693
 3263lim     li17303   1.941   1.629   0.246 -0.2886  0.3025  0.5501
 3264lim     li17304   5.846   7.018   6.957 -0.0576  0.1178  0.4208
 3265lim     li17305   1.508   6.050   6.590 -0.5572 -0.3512  0.0091
 3266lim     li17306   0.989   4.397   6.585  0.9209 -0.5417  0.2270
 3267lim     li17307   7.129   3.750   4.794  0.2439  0.7423  0.2063
 3268lim     li17308   3.430   0.676   0.053  0.8090  1.0015  0.7245
 3269lim     li17309   2.361   3.438   0.697  1.1928 -0.1022 -0.0194
 3270lim     li17310   5.899   5.254   7.145 -0.2132  0.6304  0.7188
 3271lim     li17311   5.694   1.132   2.120  0.1536 -0.2791  1.4230
 3272lim     li17312   0.042   6.014   4.481 -0.4794  0.0225  0.3023
 3273lim     li17313   4.503   0.853   0.849 -0.3342  1.5307  1.0516
 3274lim     li17314   5.407   1.579   2.901  0.3448 -0.1454 -0.0752
 3275lim     li17315   7.085   0.111   6.210 -0.6298 -0.4190 -0.5767
 3276lim     li17316   6.634   5.662   2.213  0.2250  0.7956 -0.4714
 3277lim     li17317   4.883   4.585   5.880 -0.4563 -0.2546  0.4283
 3278lim     li17318   2.271   2.833   5.168  0.2636 -1.0153 -0.8071
 3279lim     li17319   1.517   3.210   6.114  1.0260  0.4562  0.1453
 3280lim     li17320   2.775   3.357   6.594  0.5300 -0.2339  0.3016
 3281lim     li17321   6.504   3.306   3.833 -0.5157  0.9122  0.6836
 3282lim     li17322   4.164   4.533   0.148 -0.6899  0.1177  1.2697
 3283lim     li17323   2.085   4.418   5.227 -0.0525  0.7776 -1.0304
 3284lim     li17324   1.278   1.977   5.501  0.9565  1.2867  0.1389
 3285lim     li17325   2.129   2.407   3.909  0.8526  0.5881  0.8785
 3286lim     li17326   0.844   1.318   2.253 -0.9592 -0.7359  1.0953
 3287lim     li17327   4.929   2.388   5.529 -0.2062  0.4541 -0.9673
 3288lim     li17328   2.806   1.146   2.526  0.1827  0.2180  0.2857
 3289lim     li17329   5.411   0.615   1.717  1.6261 -0.3914 -0.1569
 3290lim     li17330   6.738   4.223   0.305  0.1541 -1.0414 -0.5674
 3291lim     li17331   5.373   1.039   3.050 -0.5684 -0.4059  1.0859
 3292lim     li17332   2.956   4.979   5.426 -0.3623 -0.2687 -0.1506
 3293lim     li17333   0.522   6.561   5.372  0.3395  1.1145 -0.5566
 3294lim     li17334   1.340   6.589   0.231  0.1295 -0.4209 -0.8432
 3295lim     li17335   0.047   2.748   4.094 -0.1912 -0.0794 -0.9840
 3296lim     li17336   2.806   6.180   0.405 -0.1618  0.9315  0.2247
 3297lim     li17337   6.628   4.096   5.976  0.1428 -1.0104 -1.2738
 3298lim     li17338   4.678   5.697   5.526  0.9138 -0.1936 -0.1439
 3299lim     li17339   4.707   5.037   6.608  0.0588 -0.3937 -0.2925
 3300lim     li17340   0.229   0.740   3.221 -0.2087 -0.8283 -0.5316
 3301lim     li17341   2.174   4.827   1.048  0.5983 -0.9137  0.3877
 3302lim     li17342   5.288   4.761   6.919 -0.5883  1.1359 -0.1860
 3303lim     li17343   5.512   3.115   6.303  0.5850  0.2661  0.5880
 3304lim     li17344   7.131   4.008   0.303  1.5438 -0.1433 -0.2077
 3305lim     li17345   4.906   5.886   2.586 -0.8642 -0.0523  0.8307
 3306lim     li17346   5.150   6.338   3.964 -0.7795 -0.1775 -0.6836
 3307lim     li17347   6.731   6.359   2.320  0.4013  0.7972  0.0550
 3308lim     li17348   6.456   2.598   6.431  0.2384 -0.4938 -0.0969
 3309lim     li17349   0.099   2.341   7.158 -0.7686 -0.5864 -1.0810
 3310lim     li17350   2.463   2.800   6.658 -1.2679  0.3186  0.2707
 3311lim     li17351   4.333   2.454   6.463  0.1572  0.4897 -1.2069
 3312lim     li17352   2.530   7.160   4.381  0.3978 -0.9001 -0.4752
 3313lim     li17353   0.764   4.524   2.848  0.1861  0.1970  0.4444
 3314lim     li17354   0.712   4.734   1.489 -1.0680 -0.2380  0.3602
 3315lim     li17355   1.260   4.634   4.158  0.5844 -0.0311  0.2656
 3316lim     li17356   5.840   3.680   3.123 -0.1731 -0.0631  0.0478
 3317lim     li17357   0.336   1.689   0.915 -0.0730 -0.1700  0.3669
 3318lim     li17358   1.966   1.011   3.454  0.2196 -0.4518  0.1616
 3319lim     li17359   1.412   6.378   4.517 -0.8862  0.0151 -0.1440
 3320lim     li17360   6.930   6.840   3.327 -0.5052 -0.1450  0.3210
 3321lim     li17361   6.557   2.841   1.574  0.4017  1.3345  0.4776
 3322lim     li17362   3.146   4.156   6.157  0.7224 -0.6953  0.3265
 3323lim     li17363   2.038   1.640   5.023 -0.1025 -0.8077  0.8468
 3324lim     li17364   3.823   5.742   1.049  0.7083 -0.5418  0.7376
 3325lim     li17365   3.979   2.588   3.906 -1.1761 -1.2235  0.4383
 3326lim     li17366   2.570   4.712   2.307 -0.8066 -0.9656 -0.7943
 3327lim     li17367   6.247   1.923   1.319 -0.5913 -0.1302 -0.1792
 3328lim     li17368   7.027   5.431   1.678 -0.0365 -0.3028 -0.2295
 3329lim     li17369   4.252   0.759   5.582 -0.1034  0.9825  0.9575
 3330lim     li17370   2.941   5.901   3.914  0.3817 -0.1258 -0.8216
 3331lim     li17371   1.868   3.897   4.083 -0.1715 -0.3344  0.3277
 3332lim     li17372   5.068   4.926   2.400 -0.3459  1.1195 -1.2070
 3333lim     li17373   6.304   2.528   5.446 -1.3502 -0.1346 -0.5042
 3334lim     li17374   1.218   5.492   6.086  1.1427 -0.0925 -0.5694
 3335lim     li17375   0.085   6.471   1.756 -0.4444  1.7400 -0.2478
 3336lim     li17376   5.969   1.279   5.307 -0.0929  0.1157 -0.2258
 3337lim     li17377   1.586   0.100   6.333  0.6867 -0.7654 -0.8305
 3338lim     li17378   6.108   5.898   0.080 -0.4249  0.5880 -0.7128
 3339lim     li17379   5.109   0.530   3.474  0.6426  0.2375  0.5575
 3340lim     li17380   5.747   2.474   3.871  0.1026 -0.4428  0.4209
 3341lim     li17381   3.223   6.345   5.435 -0.6556  0.1352  1.3043
 3342lim     li17382   0.099   2.140   2.840  0.0270  0.0651 -1.0364
 3343lim     li17383   3.967   0.846   1.610  1.3695  0.0392 -0.1152
 3344lim     li17384   3.255   2.570   3.519 -0.9169  0.6407  0.2029
 3345lim     li17385   0.108   4.100   1.234 -0.2058  0.7002 -0.0812
 3346lim     li17386   1.880   4.381   1.337  0.3795  0.1203  0.0695
 3347lim     li17387   3.761   5.563   2.266 -0.5098 -1.0624  1.1682
 3348lim     li17388   6.322   0.227   0.743  0.3371  1.3389  0.2168
 3349lim     li17389   4.639   2.655   7.168  0.2705 -0.5432 -0.1871
 3350lim     li17390   6.184   5.482   5.513  0.1869  0.4891  0.4011
 3351lim     li17391   7.193   3.441   0.759  1.2042 -0.8825 -0.7627
 3352lim     li17392   6.540   5.168   6.646 -0.5387  0.7243  0.5282
 3353lim     li17393   5.416   2.997   3.266 -1.0514  0.6452  0.7413
 3354lim     li17394   0.397   4.291   5.601 -0.4338  0.0558  0.0960
 3355lim     li17395   3.296   6.500   2.264 -0.4443  1.3925  0.0746
 3356lim     li17396   4.592   6.523   2.988 -1.3023  0.0989  1.0844
 3357lim     li17397   2.244   6.622   6.067  0.3503 -1.0171 -0.2398
 3358lim     li17398   6.532   1.315   1.752  0.5421 -0.0359 -0.2872
 3359lim     li17399   1.843   1.354   7.053 -0.0843 -0.6884 -1.1473
 3360lim     li17400   4.814   6.685   5.225 -0.6270  1.3983  1.2580
 3361lim     li17401   0.750   3.552   5.953  0.3383 -0.7320 -0.2930
 3362lim     li17402   0.103   2.171   6.166 -0.1510  0.7680 -0.4493
 3363lim     li17403   0.048   0.162   2.259 -0.8385 -0.7315 -0.6504
 3364lim     li17404   5.537   4.688   6.135 -0.5096  0.0962  0.2777
 3365lim     li17405   2.370   2.740   0.398 -0.2627 -0.1109 -0.1332
 3366lim     li17406   5.269   5.063   1.055  0.9311 -0.9414 -1.2650
 3367lim     li17407   2.534   7.040   7.183 -0.1986  0.9928  0.2588
 3368lim     li17408   5.436   4.031   0.702 -0.1810  0.6694  0.0532
 3369lim     li17409   4.683   3.944   2.329  0.0287 -0.3511 -0.0431
 3370lim     li17410   3.886   6.516   1.882 -0.4119 -0.3633 -0.0431
 3371lim     li17411   6.816   0.216   1.796 -0.0722 -1.3276 -0.2850
 3372lim     li17412   0.627   5.832   4.431  0.2338 -0.5656  0.4518
 3373lim     li17413   0.326   5.787   1.050  0.4500  0.8161  0.1687
 3374lim     li17414   1.810   0.932   7.094  0.1383 -0.1686  0.9234
 3375lim     li17415   0.669   5.190   4.550  0.5569  0.0338 -0.1558
 3376lim     li17416   7.053   2.937   0.208 -0.0657 -0.2682  0.1139
 3377lim     li17417   0.636   1.271   4.007 -1.1023  0.9616  0.7001
 3378lim     li17418   4.192   4.080   3.449 -0.3854  0.3753 -0.9806
 3379lim     li17419   1.366   7.103   7.063 -0.1535 -1.4659  1.0321
 3380lim     li17420   0.735   6.460   3.626  0.3602 -0.9847  1.3575
 3381lim     li17421   5.505   6.001   3.037 -1.3439 -0.1665  0.3730
 3382lim     li17422   1.580   5.247   0.153 -1.1595 -0.0545  1.1960
 3383lim     li17423   5.981   7.117   1.960 -0.4307 -0.1132 -0.2281
 3384lim     li17424   0.357   1.123   0.483  0.7978  1.1299  0.6327
 3385lim     li17425   6.793   0.987   4.000 -0.4003 -0.5700 -0.2014
 3386lim     li17426   2.779   7.135   0.865  0.6381  0.1673  0.5122
 3387lim     li17427   5.383   2.625   4.997 -0.5263 -0.2686  0.6346
 3388lim     li17428   2.909   1.439   6.764  0.0440  0.0766 -0.2856
 3389lim     li17429   5.414   4.410   4.026 -0.1924  0.1422  0.3587
 3390lim     li17430   6.820   5.764   3.935  0.6049  0.6211  1.4032
 3391lim     li17431   7.086   5.655   2.586  0.2637  0.8593  0.8368
 3392lim     li17432   2.165   3.702   6.847  0.5413  0.2706  0.1845
 3393lim     li17433   4.294   6.864   4.281 -0.8077  0.3322 -0.5725
 3394lim     li17434   6.884   4.353   4.952 -0.0202 -0.3775  0.2637
 3395lim     li17435   2.078   3.316   1.322  0.6154 -0.0009  1.2353
 3396lim     li17436   7.215   1.405   4.210 -1.1929  0.2493 -0.5764
 3397lim     li17437   5.041   6.071   0.998  0.8446 -1.2230 -0.9232
 3398lim     li17438   3.916   6.725   3.323  0.4141 -1.7691 -0.2309
 3399lim     li17439   3.764   5.073   5.232 -1.2884  0.1389 -1.3340
 3400lim     li17440   5.757   2.447   2.680 -0.7920 -0.0609  0.1298
 3401lim     li17441   4.077   2.223   7.050  0.2687 -1.5626 -1.0336
 3402lim     li17442   2.783   2.154   1.645  0.0456  0.7518  0.0991
 3403lim     li17443   1.716   0.208   5.324 -0.3062  0.4379 -0.2063
 3404lim     li17444   0.343   4.830   2.326  0.0071 -1.0861 -0.0649
 3405lim     li17445   4.868   1.757   5.902 -0.5442  0.8572 -0.1368
 3406lim     li17446   7.054   4.444   6.613 -0.5012  0.3814  0.6708
 3407lim     li17447   1.408   3.140   0.189  0.6165 -0.0713 -1.0500
 3408lim     li17448   0.460   6.723   6.765 -1.0703  0.0209  0.1253
 3409lim     li17449   3.986   0.258   1.231  0.0697 -0.3492 -0.8960
 3410lim     li17450   2.723   5.232   0.121 -0.6962  0.2005  0.5519
 3411lim     li17451   3.456   2.066   7.060  0.1285  0.0239  1.0829
 3412lim     li17452   1.014   2.206   6.947  1.4389 -0.5133  1.1526
 3413lim     li17453   2.301   5.397   3.995  0.0468  0.5686  0.0705
 3414lim     li17454   5.263   7.235   6.932  0.4896 -0.8000  1.5401
 3415lim     li17455   4.798   1.307   0.581  0.7886 -0.4269  0.0381
 3416lim     li17456   7.145   4.790   4.187 -0.2754  0.8259  0.4101
 3417lim     li17457   5.396   6.075   6.405 -0.8884 -0.6126 -0.3917
 3418lim     li17458   2.281   5.020   6.079 -0.0964  0.1175 -0.6646
 3419lim     li17459   6.326   6.325   1.119 -0.0924  0.8944  0.9738
 3420lim     li17460   4.562   7.049   6.095  0.0649  0.1773 -1.0182
 3421lim     li17461   3.524   1.630   5.009 -0.9814  0.4637  0.8567
 3422lim     li17462   1.415   5.587   3.666 -1.1150 -1.1951  0.5252
 3423lim     li17463   0.887   1.066   0.922  0.1962 -0.1309  0.5108
 3424lim     li17464   4.508   5.114   2.164 -0.6962  0.1344  0.5885
 3425lim     li17465   3.809   5.118   6.817  0.1765 -0.4137  0.7278
 3426lim     li17466   6.821   6.186   5.009 -0.6653  0.3808  0.3703
 3427lim     li17467   4.835   7.155   1.301 -0.3046 -0.8922  0.3017
 3428lim     li17468   1.353   1.072   4.306  0.4128  0.1979  0.3025
 3429lim     li17469   3.556   1.503   0.977  0.1103  0.7917  0.7558
 3430lim     li17470   0.250   1.807   1.762  1.1015 -1.6990 -0.9605
 3431lim     li17471   6.044   4.472   2.120  0.6190  0.1594  1.0447
 3432lim     li17472   5.971   6.279   3.817 -0.0728 -0.4548 -0.6055
 3433lim     li17473   5.319   0.871   0.774  0.1331  0.1697 -0.5715
 3434lim     li17474   3.748   7.028   6.007 -0.6089 -1.0414 -0.5876
 3435lim     li17475   1.006   3.394   0.933  0.9088 -0.8829 -0.3429
 3436lim     li17476   4.132   3.281   5.150 -0.5639  0.2239 -0.4522
 3437lim     li17477   0.891   4.225   3.301 -1.1979 -0.0650 -0.1537
 3438lim     li17478   1.950   2.859   5.562 -0.0698 -0.0142  0.3730
 3439lim     li17479   2.658   2.788   1.593  0.7987  0.0120  0.2285
 3440lim     li17480   2.748   1.965   4.987  0.7362  0.4667 -0.6860
 3441lim     li17481   1.305   5.587   2.371 -0.3540  1.3543 -0.2298
 3442lim     li17482   7.087   3.237   3.963  0.4204 -0.5310  0.3143
 3443lim     li17483   2.755   5.655   2.414 -0.0938 -0.2754 -0.8349
 3444lim     li17484   6.518   0.106   5.386 -0.5321  0.3548 -0.4369
 3445lim     li17485   3.819   1.830   5.967  0.8478 -0.1735 -0.0866
 3446lim     li17486   4.786   2.922   2.420 -0.1942 -0.1927  0.4982
 3447lim     li17487   4.374   3.214   1.665 -0.5174 -0.1213  0.1650
 3448lim     li17488   5.005   3.231   0.806 -0.6766 -0.8902 -0.7097
 3449lim     li17489   4.575   5.623   5.094  0.6820  1.0283  0.2429
 3450lim     li17490   4.068   3.233   0.287  0.7731 -0.1177  0.0647
 3451lim     li17491   1.505   4.041   0.031 -0.2340 -0.1016  0.4345
 3452lim     li17492   2.259   6.749   1.056  0.0396  0.9400  0.0139
 3453lim     li17493   5.330   0.222   2.656 -0.6444 -0.1324 -1.0506
 3454lim     li17494   4.062   6.079   6.512  0.0615 -1.0520  0.6460
 3455lim     li17495   4.513   7.153   2.342  0.3487 -0.0270  0.4539
 3456lim     li17496   2.478   4.291   4.723 -0.0216 -0.4979  0.4494
 3457lim     li17497   1.583   4.941   5.081  0.9950  0.3831  0.6530
 3458lim     li17498   5.663   6.715   1.850  1.2560 -1.1375 -0.1423
 3459lim     li17499   5.655   0.708   0.245  0.9247  1.2173 -0.2442
 3460lim     li17500   1.705   4.377   0.678  0.3877  0.6865  0.2801
 3461lim     li17501   6.957   1.248   3.071 -0.6816  0.4431 -0.7413
 3462lim     li17502   4.227   4.588   1.729  0.2629  0.7167 -0.0273
 3463lim     li17503   2.691   3.823   0.977 -0.3517  0.3334 -0.8522
 3464lim     li17504   3.751   0.971   4.545  0.9724 -0.5380 -0.8098
 3465lim     li17505   4.644   1.466   4.856 -1.0296 -0.5676 -0.2612
 3466lim     li17506   3.138   2.605   6.686  0.2306  0.9058 -0.1525
 3467lim     li17507   0.470   7.224   4.743 -0.4665 -0.0589 -0.5359
 3468lim     li17508   6.679   1.749   5.772 -0.5271  0.9230 -0.5719
 3469lim     li17509   3.149   2.035   6.003 -1.1179  0.5078  0.0622
 3470lim     li17510   1.423   1.906   3.132 -0.2080 -0.0417  0.0867
 3471lim     li17511   6.268   3.431   6.587 -0.7420 -0.3838 -0.6641
 3472lim     li17512   1.341   2.993   3.594  0.1948  1.3754 -1.1778
 3473lim     li17513   6.954   3.070   2.898  0.5875  0.9219  0.4671
 3474lim     li17514   5.596   7.167   3.787 -0.4830 -0.0142  0.1248
 3475lim     li17515   2.378   0.457   3.298 -0.0878  0.0814 -0.0584
 3476lim     li17516   3.104   0.529   3.831 -0.3728  0.0489  0.3963
 3477lim     li17517   1.564   3.894   5.084  0.6131  0.7733 -0.8592
 3478lim     li17518   3.121   4.692   1.575 -0.4686 -0.2719  1.0041
 3479lim     li17519   3.801   4.005   1.453 -0.3118 -1.1242 -0.0978
 3480lim     li17520   3.061   1.525   1.792  0.1062 -0.6989 -0.0901
 3481lim     li17521   6.237   4.239   5.151  0.3609 -0.1746 -0.8386
 3482lim     li17522   2.064   5.435   1.691  0.7251 -0.9791  0.4305
 3483lim     li17523   5.080   6.623   1.961 -0.1047 -0.4124  0.7991
 3484lim     li17524   7.109   1.613   7.154 -0.4037  0.1840 -0.5389
 3485lim     li17525   1.865   6.175   5.563 -0.6299 -0.4889  1.4702
 3486lim     li17526   6.567   3.867   1.966 -0.5729 -0.4069  0.9864
 3487lim     li17527   5.998   2.759   0.461 -0.2316  0.5582  0.0350
 3488lim     li17528   0.371   3.499   3.506 -0.3803  0.4078  0.7618
 3489lim     li17529   0.525   6.270   7.074  0.5755  0.1821  0.7704
 3490lim     li17530   4.630   1.705   1.724 -0.2495 -0.7279 -0.4250
 3491lim     li17531   4.626   1.129   1.987  0.1364 -1.7268  0.4809
 3492lim     li17532   3.844   3.818   4.030 -0.7386  0.3210  0.2917
 3493lim     li17533   3.985   6.212   5.546 -0.1223 -0.8375  1.9591
 3494lim     li17534   4.921   3.259   3.959  0.3786  0.4516  0.1167
 3495lim     li17535   3.000   5.490   6.179 -0.6396  0.4115  0.0061
 3496lim     li17536   7.129   5.685   6.221 -1.0339 -0.6228 -1.2833
 3497lim     li17537   6.595   6.607   7.130  0.5801 -0.4090  0.6044
 3498lim     li17538   0.194   0.019   1.574  0.2413  0.3484  0.7008
 3499lim     li17539   2.903   1.545   3.816  0.4455 -0.6903 -0.1855
 3500lim     li17540   7.073   6.874   4.250 -0.9361 -1.1167 -0.3698
 3501lim     li17541   2.277   1.159   4.334  1.0701  0.4813 -0.7688
 3502lim     li17542   3.430   2.318   0.679  0.2936  0.1557 -0.6747
 3503lim     li17543   6.281   7.220   3.106  0.0412  1.4461 -1.1971
 3504lim     li17544   4.471   0.565   2.725  0.0008  0.1454 -0.4038
 3505lim     li17545   0.974   4.897   5.731 -0.6955  0.0211  0.3443
 3506lim     li17546   1.049   6.936   5.824  0.7541 -0.6456 -0.2611
 3507lim     li17547   0.363   3.176   4.561  0.3038  0.0631  0.1130
 3508lim     li17548   0.475   2.549   3.294  0.8650  0.2135 -0.2976
 3509lim     li17549   1.241   0.373   7.220  0.0950 -0.8415  0.1469
 3510lim     li17550   1.352   6.948   1.467 -0.4383 -1.0436 -0.9763
 3511lim     li17551   6.123   1.460   6.910  0.0657 -0.4579  0.4462
 3512lim     li17552   3.339   6.160   1.505  0.2601  0.2962  0.6149
 3513lim     li17553   4.270   2.672   1.616  0.3360  0.1668 -0.8304
 3514lim     li17554   4.102   1.212   2.777 -0.4168 -1.1272 -0.9808
 3515lim     li17555   6.030   6.098   4.535  0.3278 -1.2445  0.0285
 3516lim     li17556   1.014   4.619   0.752 -0.2739 -0.4171  0.3542
 3517lim     li17557   1.629   4.908   3.239  0.2944  0.5258 -0.5657
 3518lim     li17558   1.891   2.543   6.561 -1.4152  0.3429 -0.3538
 3519lim     li17559   1.469   2.972   4.566 -0.4227 -0.8829  0.0496
 3520lim     li17560   1.009   1.385   5.058  0.4678  0.1744  0.0761
 3521lim     li17561   2.027   4.281   2.307 -0.7099 -0.3981 -0.9077
 3522lim     li17562   3.152   6.654   7.009  0.2446 -1.5325 -0.3023
 3523lim     li17563   1.854   6.170   0.357  0.6247 -0.3507  0.0334
 3524lim     li17564   7.078   1.209   1.702 -0.3554 -0.6639 -0.7577
 3525lim     li17565   2.407   0.327   6.149  0.6177 -0.6657  0.3925
 3526lim     li17566   5.169   3.132   5.353 -0.3126 -1.5823  0.7742
 3527lim     li17567   1.804   5.889   3.027  0.0155  1.0016  0.4025
 3528lim     li17568   4.569   4.483   4.736  0.2782 -0.2335  0.2902
 3529lim     li17569   6.037   0.920   2.920  0.6428 -0.9181  0.3825
 3530lim     li17570   5.950   6.464   5.967  1.3681  0.3295  0.4122
 3531lim     li17571   5.489   2.904   7.027 -0.1915 -0.9606 -0.6934
 3532lim     li17572   3.029   5.057   2.719 -0.3017 -0.8098  0.8501
 3533lim     li17573   4.051   0.017   4.873 -0.5215 -0.8804 -0.0267
 3534lim     li17574   3.162   4.533   4.420 -0.2424 -0.0615 -0.1045
 3535lim     li17575   1.004   3.259   2.444  0.4107 -0.0550  1.0002
 3536lim     li17576   6.447   0.122   6.319  0.6261 -0.3012 -0.1123
 3537lim     li17577   3.073   6.714   1.127 -1.0166 -0.8682 -0.9581
 3538lim     li17578   6.974   4.805   1.078  0.7066  0.2099 -0.7640
 3539lim     li17579   3.464   2.656   4.151 -0.7880 -1.2391 -0.4934
 3540lim     li17580   6.240   5.073   0.716  0.6224 -0.4590 -1.3788
 3541lim     li17581   2.252   2.944   3.929 -1.9456  0.0645  0.6054
 3542lim     li17582   3.500   0.563   6.455  0.1339 -0.0291 -0.6983
 3543lim     li17583   0.782   5.402   0.401  0.3160  1.4362 -1.1021
 3544lim     li17584   0.168   1.232   6.346 -0.4318 -0.0227  0.3600
 3545lim     li17585   0.349   4.800   6.827 -0.4242  1.4306  0.0554
 3546lim     li17586   7.095   3.542   2.157  0.9958  0.1382  0.4549
 3547lim     li17587   6.646   4.934   2.375  0.2640  1.0582 -0.0553
 3548lim     li17588   0.882   1.547   6.692 -0.7496  0.5561  1.0169
 3549lim     li17589   4.883   4.649   3.020 -0.5437 -0.7678  0.4408
 3550lim     li17590   1.625   2.488   0.434 -0.4218  0.9689  0.2987
 3551lim     li17591   6.608   1.375   0.360  0.5776  0.8291  0.0283
 3552lim     li17592   1.001   6.025   2.648 -0.1422 -0.4628  0.7837
 3553lim     li17593   6.918   6.637   0.979 -0.2146 -0.8967  0.1902
 3554lim     li17594   5.702   0.310   5.947 -1.5794  0.5466  0.0304
 3555lim     li17595   4.517   3.033   3.403  0.1761  0.8169 -0.7396
 3556lim     li17596   4.367   6.435   1.618 -1.5204  0.3552  0.2729
 3557lim     li17597   1.923   6.075   4.030 -0.1594  0.0000  0.3835
 3558lim     li17598   6.282   1.782   4.286  0.4547  0.0185  0.2218
 3559lim     li17599   3.884   3.775   6.906  0.0169  0.1903  0.5237
 3560lim     li17600   2.633   0.394   1.836 -0.3120  0.9616  0.8455
 3561lim     li17601   4.674   0.735   4.256  0.1780 -0.5593  0.2383
 3562lim     li17602   2.903   5.424   5.280  0.0581 -0.0938 -0.1112
 3563lim     li17603   5.667   6.797   5.247 -1.1808 -0.0029  0.4419
 3564lim     li17604   6.006   1.095   1.639 -0.6527 -1.1766 -0.1039
 3565lim     li17605   3.668   6.570   4.456 -0.0820 -0.5824 -1.1384
 3566lim     li17606   2.621   4.205   5.251  0.8519 -1.5700 -0.2736
 3567lim     li17607   1.511   0.571   0.565  0.5524 -0.4455 -0.4198
 3568lim     li17608   5.505   3.956   5.599  0.6745  0.5863 -0.3168
 3569lim     li17609   2.643   6.353   3.391  0.2091  0.9480 -0.3215
 3570lim     li17610   4.826   6.169   0.061  0.0391  0.9220  1.0386
 3571lim     li17611   2.648   7.151   6.325 -0.3778  0.2625  0.6802
 3572lim     li17612   5.698   6.206   0.501  0.6340 -0.5247  0.2394
 3573lim     li17613   4.522   5.211   3.832  0.3323 -0.9316 -0.0616
 3574lim     li17614   3.736   3.966   5.129  0.1465 -0.1094 -0.0302
 3575lim     li17615   5.239   6.050   6.961  0.1980  1.1854 -0.2592
 3576lim     li17616   2.755   4.740   3.537 -0.0228 -0.2025  0.1855
 3577lim     li17617   2.033   1.973   1.637  0.2958 -0.5361 -0.2795
 3578lim     li17618   6.537   3.514   5.712 -0.0614  0.8271 -0.4140
 3579lim     li17619   5.069   2.072   1.910 -0.2575 -0.2419 -0.2565
 3580lim     li17620   6.005   3.115   4.756 -0.8080 -0.4654  0.3988
 3581lim     li17621   2.720   6.060   4.627  0.3630  0.1416  1.6917
 3582lim     li17622   1.428   2.190   1.373  0.4030  0.3557  0.2395
 3583lim     li17623   7.225   2.997   1.897  0.1043  0.0683 -0.8562
 3584lim     li17624   6.511   5.519   3.451  0.1178  0.4181 -0.7365
 3585lim     li17625   5.187   5.616   5.737  0.3791 -0.4407 -0.2088
 3586lim     li17626   0.126   7.190   3.414 -0.7649  0.0276  1.0755
 3587lim     li17627   3.790   5.622   7.020 -0.5669 -1.3507 -0.8402
 3588lim     li17628   4.790   0.619   5.700  0.5355 -0.0391 -0.7107
 3589lim     li17629   3.631   5.119   4.267  0.2733 -0.4673 -0.7430
 3590lim     li17630   4.485   2.072   4.114 -0.3109  0.1329  0.5548
 3591lim     li17631   2.234   4.830   3.657 -1.3840 -0.5541 -0.9839
 3592lim     li17632   4.122   0.228   3.919 -0.0332 -0.1403  1.0224
 3593lim     li17633   5.444   5.828   4.429  1.2604  1.1568  0.3957
 3594lim     li17634   4.569   5.543   1.564 -0.5292  0.0224  0.5030
 3595lim     li17635   0.228   6.677   0.567  0.2658 -0.7498 -0.7207
 3596lim     li17636   0.962   0.748   5.000 -0.5394  0.7625  0.3548
 3597lim     li17637   1.452   3.170   1.386 -0.1992  0.6220 -0.1172
 3598lim     li17638   5.414   2.216   1.094 -0.5010 -0.3248 -0.2674
 3599lim     li17639   3.069   3.563   5.453  0.1941 -0.7301 -0.2128
 3600lim     li17640   2.472   2.527   2.733  0.5913 -1.0882  0.1898
 3601lim     li17641   1.562   7.110   2.664  0.0364 -0.0692 -0.7766
 3602lim     li17642   3.505   3.082   1.457 -1.1737 -0.1304 -0.5366
 3603lim     li17643   0.211   0.511   6.790 -0.1179 -0.3766  0.0407
 3604lim     li17644   3.574   4.344   0.605  0.5877  0.3378 -0.1196
 3605lim     li17645   3.483   2.968   0.698  0.0601 -0.5594  0.1904
 3606lim     li17646   1.975   0.274   4.649 -0.0733 -0.7945 -0.4290
 3607lim     li17647   3.849   2.507   5.090  0.4201 -1.1294 -0.2509
 3608lim     li17648   2.644   1.741   0.810  0.3204 -0.9169 -0.7660
 3609lim     li17649   0.846   5.619   7.048  0.1042  0.2094  0.8821
 3610lim     li17650   0.219   5.662   3.329  0.9595 -0.5501 -0.2484
 3611lim     li17651   6.305   6.582   2.814  0.3222  0.2979 -0.5804
 3612lim     li17652   2.381   0.890   1.215  0.7257 -1.3364 -0.5376
 3613lim     li17653   4.515   5.151   0.787  0.1218  0.2922  0.2487
 3614lim     li17654   0.412   4.792   4.958 -0.1248 -0.0509  0.9966
 3615lim     li17655   4.595   3.799   5.761 -0.3394 -0.1614 -0.2548
 3616lim     li17656   1.971   4.372   5.981  0.8542  0.3465 -0.8449
 3617lim     li17657   4.050   6.850   6.599 -0.4014 -0.3224 -0.5287
 3618lim     li17658   5.500   2.155   4.619 -0.3979  0.4455  0.7522
 3619lim     li17659   6.570   2.246   6.012  0.2286  0.2965  0.3145
 3620lim     li17660   4.653   3.785   1.022 -0.2114  0.1551 -0.2843
 3621lim     li17661   6.365   0.685   6.792  0.6077 -0.2948  0.4469
 3622lim     li17662   1.889   5.590   5.515 -0.7929  0.6099  0.0111
 3623lim     li17663   7.223   6.229   6.267  0.4217 -0.3044  0.2185
 3624lim     li17664   5.216   2.205   3.426  0.5940  0.5505  0.6370
 3625lim     li17665   1.599   1.489   2.193 -0.2507 -0.0151  0.5320
 3626lim     li17666   6.755   0.268   0.060  0.1333  1.0491 -0.3534
 3627lim     li17667   5.367   6.799   1.130  0.5488 -0.2600  0.6485
 3628lim     li17668   0.851   1.864   3.735 -0.0161  0.8075 -0.3409
 3629lim     li17669   3.175   5.987   6.169 -0.0917  0.6103 -0.4334
 3630lim     li17670   3.591   3.393   6.084 -0.2665 -0.1768 -0.5518
 3631lim     li17671   1.002   0.174   1.819  1.4025  0.0842 -0.0127
 3632lim     li17672   1.396   3.746   3.151  0.1803  0.4319 -0.4861
 3633lim     li17673   4.787   3.690   3.021  0.3240  0.0195  0.1129
 3634lim     li17674   3.229   4.609   6.724  0.2525 -0.2752 -0.2597
 3635lim     li17675   1.585   1.998   4.291 -0.4618  1.0913 -0.1651
 3636lim     li17676   0.791   6.269   1.448  0.3750 -0.5890 -0.1951
 3637lim     li17677   1.628   4.067   6.461 -0.1458  0.3484 -0.1985
 3638lim     li17678   4.483   6.395   0.656  1.1361 -1.5107 -0.8871
 3639lim     li17679   6.697   2.378   0.801 -0.8198 -0.0562 -1.5236
 3640lim     li17680   6.456   0.476   4.670 -1.0830  0.2723 -0.4552
 3641lim     li17681   1.874   6.914   3.507  0.3901 -0.6156  0.8913
 3642lim     li17682   3.589   3.770   0.353 -0.7937  0.4145 -0.3672
 3643lim     li17683   2.713   4.790   1.214 -0.5147 -0.2863  1.1147
 3644lim     li17684   1.262   4.432   2.039  0.8305  0.2287 -0.7397
 3645lim     li17685   3.163   2.684   2.704  0.3382 -0.0936  1.3490
 3646lim     li17686   2.389   3.267   5.520 -0.4118  0.0354  0.7451
 3647lim     li17687   0.368   5.673   5.392  2.1401 -0.7608  0.9304
 3648lim     li17688   0.164   2.602   5.172  0.0298 -0.7715 -0.4561
 3649lim     li17689   2.695   6.903   2.876  0.1325  0.4284  0.5079
 3650lim     li17690   1.566   2.457   2.513 -0.2287  0.4555 -0.3850
 3651lim     li17691   7.104   5.276   5.723 -0.5692 -0.0579  0.9900
 3652lim     li17692   2.730   6.603   5.262  0.4064  0.5498 -0.4240
 3653lim     li17693   5.779   1.340   3.821  0.1468 -0.5076  1.3932
 3654lim     li17694   2.658   0.800   6.091 -0.6743 -0.1501  0.4955
 3655lim     li17695   5.862   6.883   0.748  0.5559  0.1955  0.8738
 3656lim     li17696   2.066   6.533   6.996 -0.4270 -1.6475 -0.4734
 3657lim     li17697   0.911   3.146   6.615 -0.0542  0.0443  0.1182
 3658lim     li17698   5.706   5.163   1.602 -0.4679  0.5339  0.6351
 3659lim     li17699   5.716   5.873   2.256  0.0724 -0.1181  0.4139
 3660lim     li17700   4.016   1.547   3.683 -0.3542 -0.1106 -1.0609
 3661lim     li17701   1.882   1.639   2.934 -1.5907 -0.8389 -0.5757
 3662lim     li17702   2.641   0.618   0.556 -0.9769 -0.2487  0.2056
 3663lim     li17703   5.773   5.227   3.419 -0.0551 -0.2779  0.0856
 3664lim     li17704   5.833   5.021   5.016 -1.2352  0.5159  1.6769
 3665lim     li17705   5.023   4.537   0.342 -0.6292 -0.2965 -0.6807
 3666lim     li17706   2.928   0.829   7.217 -0.3802 -0.8485  0.2749
 3667lim     li17707   1.083   3.812   1.515 -0.4191  0.4311  0.2025
 3668lim     li17708   3.240   7.021   4.224  1.6672 -0.5611 -0.3193
 3669lim     li17709   6.087   4.197   6.954 -1.2717 -0.3906  0.2436
 3670lim     li17710   4.569   3.976   6.791 -0.3677 -0.4005  0.2696
 3671lim     li17711   3.509   0.642   3.034  0.1570 -1.6607  0.2831
 3672lim     li17712   3.911   1.370   6.850  0.1822 -0.5569 -0.3403
 3673lim     li17713   0.427   0.380   0.333  0.2788 -1.0731 -0.7209
 3674lim     li17714   0.881   5.714   3.281 -0.7720  0.1511 -0.4191
 3675lim     li17715   4.538   4.760   5.255 -1.1244  0.0201 -0.0858
 3676lim     li17716   1.269   0.884   6.450 -0.2640 -0.2879 -1.4707
 3677lim     li17717   3.599   7.168   1.599 -0.3192 -0.3950 -0.2164
 3678lim     li17718   5.129   5.143   0.213 -0.7075  0.2932 -0.5459
 3679lim     li17719   3.004   3.456   4.191  0.5865  0.2525  0.3041
 3680lim     li17720   3.520   5.073   1.371 -0.0466 -0.7777 -0.5176
 3681lim     li17721   3.908   4.403   6.354  0.9679  0.3107  0.0313
 3682lim     li17722   3.436   0.229   2.378 -0.3484  0.8421 -0.8074
 3683lim     li17723   4.990   1.799   0.056  0.5595  0.3474  0.1715
 3684lim     li17724   2.925   3.734   7.191  1.3021 -0.8681  0.4285
 3685lim     li17725   6.409   4.891   3.782 -0.1365 -0.8645 -0.6622
 3686lim     li17726   0.066   3.115   5.300  0.1763  0.2550 -0.3269
 3687lim     li17727   6.409   4.341   4.108  0.0776  0.1675  0.1959
 3688lim     li17728   2.011   1.963   6.267  0.6300  0.8190 -0.9403
 3689lim     li17729   3.546   6.339   3.016  0.4470 -0.1633  0.2894
 3690lim     li17730   0.455   7.091   6.164  1.0222  1.0478 -0.4506
 3691lim     li17731   1.373   5.798   1.046  0.2714  0.0876 -0.2664
 3692lim     li17732   0.021   5.045   0.484  0.7412  0.0985 -0.3535
 3693lim     li17733   4.676   4.544   3.680 -1.0150  0.2323  0.4131
 3694lim     li17734   6.061   3.737   2.223 -0.4611 -0.5448  0.9363
 3695lim     li17735   6.516   2.411   4.804 -0.8955  1.2418  0.5497
 3696lim     li17736   3.208   5.480   4.662  0.3884  0.9773 -0.0333
 3697lim     li17737   1.739   0.825   1.847 -0.8621 -0.7024 -0.4928
 3698lim     li17738   6.266   5.777   1.621 -0.6748  0.9211  0.3436
 3699lim     li17739   2.553   3.656   2.575 -0.2072 -0.4407 -0.5308
 3700lim     li17740   6.249   6.925   4.160 -1.1633  0.4879 -0.6044
 3701lim     li17741   3.265   5.390   0.421  0.4708 -1.2784 -0.6589
 3702lim     li17742   1.690   1.987   5.795 -0.5317  0.7704  1.6416
 3703lim     li17743   1.052   0.507   4.011 -0.8748  0.0787  0.0825
 3704lim     li17744   3.597   1.761   4.321 -0.9856  0.1666  0.3405
 3705lim     li17745   5.225   1.418   5.827  0.1308 -0.8427 -0.5980
 3706lim     li17746   2.223   7.041   1.989  0.2901  1.2284 -0.6287
 3707lim     li17747   2.326   6.076   1.761 -0.5961 -0.4667  0.4570
 3708lim     li17748   2.592   3.639   1.871  0.1113 -0.8727  0.5192
 3709lim     li17749   6.509   0.571   1.026  1.5317 -1.6119  0.1646
 3710lim     li17750   3.711   1.957   2.210 -0.0038 -0.7193 -0.6068
 3711lim     li17751   0.071   2.808   6.559  0.5216 -0.9723 -0.2719
 3712lim     li17752   2.427   0.769   2.661  1.0174  0.7268  0.2342
 3713lim     li17753   6.374   0.976   5.862 -0.3403  0.0666 -0.7139
 3714lim     li17754   0.486   2.454   0.863 -0.6901  0.2155  0.8957
 3715lim     li17755   6.255   3.130   1.061  0.2171  0.0123  0.3478
 3716lim     li17756   1.289   5.110   2.207  0.5652  0.3781  1.1339
 3717lim     li17757   2.993   2.494   5.731  1.4407  0.2083 -0.0062
 3718lim     li17758   5.302   0.240   4.330  0.5764 -0.1659  1.7380
 3719lim     li17759   5.815   3.707   4.119 -0.8902  0.3492 -0.1356
 3720lim     li17760   5.007   3.573   6.578 -0.4004 -0.1458  0.9247
 3721lim     li17761   0.772   3.996   4.772 -0.7570  0.2375 -0.4146
 3722lim     li17762   4.684   1.313   6.702  0.0546  0.0637 -0.0125
 3723lim     li17763   5.265   3.069   1.706  1.0479  0.4006 -0.1058
 3724lim     li17764   0.102   3.914   7.044  0.0980 -0.7739 -0.2772
 3725lim     li17765   3.543   0.243   5.043  1.0983  0.7996 -0.3456
 3726lim     li17766   6.534   3.158   2.133 -0.6702  0.8933  0.4481
 3727lim     li17767   5.324   5.366   4.521 -1.2484 -1.0186 -0.5925
 3728lim     li17768   0.154   3.466   6.693 -0.3814 -0.3950  0.8595
 3729lim     li17769   1.426   6.456   2.359 -0.0818 -0.6616 -1.8740
 3730lim     li17770   4.619   3.522   4.682 -0.9429  0.5233  0.7142
 3731lim     li17771   2.592   3.167   4.546 -0.1041 -0.9768  0.1562
 3732lim     li17772   5.408   1.954   7.242 -0.7459  0.1317  0.3476
 3733lim     li17773   6.278   3.967   0.616 -0.0055  0.1739 -0.3895
 3734lim     li17774   6.286   0.835   3.620 -0.5181 -0.9571 -0.4840
 3735lim     li17775   4.214   3.012   6.451  0.1301 -0.8245  0.1777
 3736lim     li17776   4.051   5.502   6.013 -0.5367  0.0375 -0.1028
 3737lim     li17777   6.412   3.470   5.188 -0.0572 -0.3351  0.2101
 3738lim     li17778   2.198   1.946   2.175  0.1360 -1.3363 -0.5683
 3739lim     li17779   2.717   0.956   5.272 -0.1426  0.2736  0.3478
 3740lim     li17780   6.645   2.319   2.443  0.3828 -0.3152  0.6155
 3741lim     li17781   2.933   0.924   4.500 -0.7064  0.6720  0.1344
 3742lim     li17782   3.800   4.158   2.631  0.4016 -0.2391 -0.4386
 3743lim     li17783   6.863   6.734   5.474 -0.0242 -0.6284  0.9453
 3744lim     li17784   3.716   0.086   0.436 -0.2968  0.0176 -0.1734
 3745lim     li17785   3.482   1.712   3.208  0.4375  0.1795  0.6028
 3746lim     li17786   1.462   7.252   0.749 -0.3922 -0.3900  0.0844
 3747lim     li17787   0.026   0.792   2.562 -1.1218 -0.2144 -1.0537
 3748lim     li17788   3.009   1.278   5.654 -0.4393  1.0176  0.9384
 3749lim     li17789   3.663   1.139   6.297 -0.0929  0.6607 -0.1529
 3750lim     li17790   6.976   0.819   5.423  0.1480 -0.3932  1.7823
 3751lim     li17791   4.842   3.354   0.121 -0.2081 -0.1237  0.6323
 3752lim     li17792   0.460   6.117   2.441 -0.0037  0.5920  0.4533
 3753lim     li17793   3.272   3.833   3.651  1.0078  1.1484  0.5080
 3754lim     li17794   6.346   0.320   2.126 -1.6008  1.4594  0.1328
 3755lim     li17795   1.256   7.169   3.980 -0.7893 -0.1354 -0.0059
 3756lim     li17796   3.710   5.228   3.664 -1.2581  0.1436 -0.0521
 3757lim     li17797   7.142   4.574   3.326 -1.0917 -0.2812 -1.0555
 3758lim     li17798   2.564   5.840   2.853  0.7224  0.1043 -0.0249
 3759lim     li17799   3.379   3.000   4.851  0.2644  0.1976  0.9420
 3760lim     li17800   6.532   3.373   0.343 -1.6765 -0.9419  0.4080
 3761lim     li17801   7.070   4.085   2.667 -0.4611 -0.1929  0.0879
 3762lim     li17802   3.376   4.834   2.958  0.2230 -0.0955 -0.0074
 3763lim     li17803   2.573   4.024   3.628  0.1685  0.2425 -0.6101
 3764lim     li17804   4.283   2.144   2.981  0.0219 -0.5007 -0.2028
 3765lim     li17805   2.036   5.276   7.155 -1.1523  0.7619 -0.6398
 3766lim     li17806   4.838   1.658   2.733 -0.5729  0.0736 -0.2465
 3767lim     li17807   0.914   2.312   2.109 -0.1977  0.1938  0.4040
 3768lim     li17808   1.605   1.476   0.804 -0.7143  0.3911  0.8230
 3769lim     li17809   0.775   2.919   0.340  0.2970 -0.0615 -0.4313
 3770lim     li17810   1.110   2.097   4.833  0.2317  0.4966 -0.4961
 3771lim     li17811   4.595   2.045   0.686  0.4620  0.6239 -0.1926
 3772lim     li17812   6.556   2.156   3.605  0.5792 -0.1842 -0.0463
 3773lim     li17813   6.949   5.747   0.160  1.0043  1.2564  0.5097
 3774lim     li17814   4.112   5.834   2.978 -0.2605  0.7315 -0.1652
 3775lim     li17815   5.349   6.910   5.604 -1.4013 -0.7700  0.0446
 3776lim     li17816   5.625   3.716   4.626 -0.3517 -0.2330  0.1552
 3777lim     li17817   0.995   0.258   2.901  0.1182 -1.4084 -1.2314
 3778lim     li17818   0.901   6.218   4.979 -0.2817 -0.6328 -0.0962
 3779lim     li17819   0.417   5.226   1.774 -0.9100 -0.4428 -0.0315
 3780lim     li17820   0.018   1.414   4.975  0.2540  0.0766  0.1949
 3781ntf    cn117821   4.558   6.256   5.223 -0.3745 -0.1220 -0.3258
 3781ntf    sn217822   4.466   6.133   5.321  0.0862 -0.0239  0.2315
 3781ntf    nn317823   4.398   6.045   5.210  0.1710  0.3243 -0.0999
 3781ntf    sn217824   4.373   5.891   5.226  0.0049  0.3503 -0.1035
 3781ntf    cn117825   4.194   5.888   5.194  0.0496 -0.1343 -0.3238
 3781ntf    fn417826   4.475   6.330   5.151 -0.2302  0.0819 -0.2844
 3781ntf    fn417827   4.641   6.337   5.286 -0.2058 -0.5377 -0.0098
 3781ntf    fn417828   4.633   6.197   5.131  0.0530 -0.0996  0.0056
 3781ntf    on517829   4.571   6.071   5.398 -0.0966  0.0318  0.5268
 3781ntf    on517830   4.371   6.214   5.392 -0.3526 -0.1079 -0.2579
 3781ntf    on517831   4.384   5.843   5.361 -0.4642  0.1079 -0.1481
 3781ntf    on517832   4.424   5.814   5.115 -0.4536  0.0543 -0.1102
 3781ntf    fn417833   4.142   5.770   5.224 -0.7460  0.2804 -0.0210
 3781ntf    fn417834   4.134   5.985   5.262  0.0366 -0.4480  0.1212
 3781ntf    fn417835   4.156   5.903   5.068 -0.7706  0.5580 -0.0078
 3782ntf    cn117836   5.490   1.952   3.871 -0.1504 -0.4201 -0.2488
 3782ntf    sn217837   5.527   1.913   4.045 -0.1233  0.0332 -0.1499
 3782ntf    nn317838   5.436   1.786   4.064  0.0211 -0.1014 -0.3552
 3782ntf    sn217839   5.296   1.770   4.133  0.2635 -0.1620  0.1294
 3782ntf    cn117840   5.187   1.732   3.993  0.4232 -0.1310 -0.0050
 3782ntf    fn417841   5.370   2.007   3.860  0.0075 -0.0972 -0.3700
 3782ntf    fn417842   5.574   2.048   3.836 -0.1967 -0.3316 -0.1201
 3782ntf    fn417843   5.507   1.856   3.783  0.1703 -0.2803 -0.3403
 3782ntf    on517844   5.665   1.870   4.044 -0.0483  0.2744 -0.1222
 3782ntf    on517845   5.488   2.026   4.125 -0.2191 -0.2901  0.2631
 3782ntf    on517846   5.239   1.886   4.198  0.0070 -0.3141  0.1751
 3782ntf    on517847   5.298   1.654   4.218  0.6706 -0.3090 -0.0788
 3782ntf    fn417848   5.067   1.696   4.036  0.4671 -0.0366  0.1973
 3782ntf    fn417849   5.170   1.836   3.913 -0.2464 -0.3012 -0.0919
 3782ntf    fn417850   5.232   1.638   3.911  0.0828 -0.2501 -0.0582
 3783ntf    cn117851   6.057   4.211   4.526  0.1288  0.0497  0.4810
 3783ntf    sn217852   5.967   4.179   4.371  0.0634  0.1012  0.5081
 3783ntf    nn317853   6.019   4.033   4.346 -0.2965 -0.0112  0.4111
 3783ntf    sn217854   6.033   3.954   4.211  0.0568 -0.2617  0.5941
 3783ntf    cn117855   6.197   3.883   4.245  0.1705 -0.2541  0.0636
 3783ntf    fn417856   6.189   4.218   4.518  0.1127  0.2751  0.4063
 3783ntf    fn417857   6.023   4.327   4.580 -0.6549  0.1137 -0.1287
 3783ntf    fn417858   6.042   4.117   4.617  0.3013 -0.0564  0.4006
 3783ntf    on517859   5.831   4.187   4.417  0.0021  0.5805  0.2485
 3783ntf    on517860   6.020   4.281   4.284 -0.1702  0.1163  0.3854
 3783ntf    on517861   6.038   4.037   4.093 -0.7351 -0.5847  0.3287
 3783ntf    on517862   5.936   3.848   4.198 -0.2129  0.0687 -0.1058
 3783ntf    fn417863   6.248   3.806   4.149  0.0924  0.2372 -0.3773
 3783ntf    fn417864   6.280   3.984   4.267  0.4788 -0.4550 -0.1700
 3783ntf    fn417865   6.200   3.816   4.359 -0.4215 -0.2628  0.0772
 3784ntf    cn117866   4.348   5.842   0.708 -0.3619 -0.0868  0.2069
 3784ntf    sn217867   4.237   5.961   0.789 -0.4716 -0.0370 -0.0165
 3784ntf    nn317868   4.170   6.028   0.664  0.2402  0.3348 -0.2021
 3784ntf    sn217869   4.082   5.975   0.545 -0.0491 -0.0126  0.1646
 3784ntf    cn117870   3.923   6.052   0.588 -0.2933 -0.3243 -0.1770
 3784ntf    fn417871   4.281   5.744   0.650  0.3487 -0.4549  0.0053
 3784ntf    fn417872   4.437   5.883   0.619 -0.1044  0.1009  0.5488
 3784ntf    fn417873   4.419   5.779   0.800 -0.1718 -0.5057 -0.2262
 3784ntf    on517874   4.155   5.878   0.874  0.1686 -0.5116  0.1415
 3784ntf    on517875   4.331   6.050   0.852 -0.2188 -0.0051 -0.4349
 3784ntf    on517876   4.068   5.832   0.552 -0.4750  0.0284  0.1559
 3784ntf    on517877   4.110   6.036   0.417 -0.6433  0.3576  0.2084
 3784ntf    fn417878   3.890   6.016   0.711  0.3657 -0.2503  0.0265
 3784ntf    fn417879   3.921   6.184   0.599 -0.1501 -0.3265 -0.1210
 3784ntf    fn417880   3.820   6.023   0.510 -0.0183 -0.2354 -0.5731
 3785ntf    cn117881   5.291   2.303   0.341  0.4843 -0.2262  0.1415
 3785ntf    sn217882   5.364   2.432   0.236  0.1019 -0.0869  0.0430
 3785ntf    nn317883   5.374   2.556   0.331 -0.1568  0.0671 -0.1322
 3785ntf    sn217884   5.297   2.693   0.336 -0.2030  0.0440 -0.2061
 3785ntf    cn117885   5.219   2.681   0.499  0.0952 -0.0976 -0.0737
 3785ntf    fn417886   5.304   2.181   0.293 -0.8135 -0.4318  0.2606
 3785ntf    fn417887   5.348   2.313   0.460 -0.4194  0.0829  0.5572
 3785ntf    fn417888   5.162   2.317   0.368  0.3706 -0.2328 -0.3929
 3785ntf    on517889   5.498   2.384   0.210  0.0719 -0.4300  0.5193
 3785ntf    on517890   5.264   2.434   0.132  0.3150 -0.8319 -0.1843
 3785ntf    on517891   5.187   2.708   0.243  0.1356  0.3980 -0.5578
 3785ntf    on517892   5.387   2.806   0.344 -0.2835  0.0941 -0.0150
 3785ntf    fn417893   5.219   2.801   0.555  0.3845 -0.1527  0.0505
 3785ntf    fn417894   5.092   2.646   0.489  0.1097 -0.3354  0.5143
 3785ntf    fn417895   5.278   2.602   0.588  0.2644 -0.0568 -0.1495
 3786ntf    cn117896   5.840   2.766   5.218 -0.3854  0.3265  0.0058
 3786ntf    sn217897   5.799   2.739   5.393 -0.0279  0.0566  0.0484
 3786ntf    nn317898   5.749   2.883   5.428  0.5337  0.0332  1.0031
 3786ntf    sn217899   5.840   3.010   5.445  0.3695  0.2837  0.0878
 3786ntf    cn117900   5.797   3.078   5.608  0.0737  0.1534  0.0638
 3786ntf    fn417901   5.729   2.803   5.157 -0.2432  0.4317 -0.1890
 3786ntf    fn417902   5.917   2.869   5.187 -0.1127 -0.0665 -0.6323
 3786ntf    fn417903   5.885   2.662   5.150 -0.2240  0.5986 -0.3095
 3786ntf    on517904   5.695   2.640   5.380  0.3763 -0.2966 -0.5505
 3786ntf    on517905   5.923   2.694   5.451 -0.1206  0.0468  0.2417
 3786ntf    on517906   5.791   3.112   5.356  0.4946  0.5607  0.3347
 3786ntf    on517907   5.983   2.991   5.452  0.2703 -0.3350  0.5327
 3786ntf    fn417908   5.683   3.145   5.607 -0.0520 -0.0469  0.5655
 3786ntf    fn417909   5.777   2.979   5.694 -0.4939  0.1509 -0.0690
 3786ntf    fn417910   5.896   3.156   5.646  0.3891 -0.3908  0.3757
 3787ntf    cn117911   0.555   3.086   7.091  0.2524 -0.1540  0.4625
 3787ntf    sn217912   0.692   3.205   7.102  0.2937 -0.1491 -0.0904
 3787ntf    nn317913   0.608   3.335   7.128  0.1101 -0.2017 -0.4068
 3787ntf    sn217914   0.534   3.428   7.026  0.2882  0.2596 -0.1189
 3787ntf    cn117915   0.638   3.577   7.043  0.5041  0.0621  0.2998
 3787ntf    fn417916   0.452   3.104   7.171  0.2448  0.2659  0.3608
 3787ntf    fn417917   0.499   3.092   6.971  0.1373 -0.2640  0.5109
 3787ntf    fn417918   0.605   2.964   7.106  0.0502 -0.2863  0.0682
 3787ntf    on517919   0.751   3.165   7.227 -0.4897 -0.1403  0.2906
 3787ntf    on517920   0.761   3.193   6.976  0.4691  0.2615 -0.0354
 3787ntf    on517921   0.405   3.472   7.073  0.3392  0.1308  0.1415
 3787ntf    on517922   0.537   3.396   6.885 -0.3873  0.3651 -0.1594
 3787ntf    fn417923   0.635   3.628   7.165  0.3045 -0.3997  0.4930
 3787ntf    fn417924   0.765   3.558   7.013  0.5692 -0.1705  0.7149
 3787ntf    fn417925   0.597   3.669   6.958  0.4815  0.0231  0.2683
 3788ntf    cn117926   0.835   0.639   6.879 -0.3346 -0.2589 -0.1990
 3788ntf    sn217927   1.007   0.585   6.856 -0.2530  0.0236 -0.2537
 3788ntf    nn317928   0.991   0.435   6.812 -0.1148 -0.1104  0.1488
 3788ntf    sn217929   0.977   0.313   6.909 -0.0861 -0.1735  0.0737
 3788ntf    cn117930   0.844   0.217   6.830 -0.1672  0.0853 -0.1034
 3788ntf    fn417931   0.740   0.614   6.790 -0.4511  0.1581 -0.1919
 3788ntf    fn417932   0.785   0.590   6.991 -0.0172 -0.1145  0.0044
 3788ntf    fn417933   0.838   0.770   6.897 -0.2096 -0.3010  0.0789
 3788ntf    on517934   1.059   0.665   6.747 -0.1403 -0.0805 -0.2766
 3788ntf    on517935   1.077   0.606   6.980  0.4516  0.0965 -0.6547
 3788ntf    on517936   0.914   0.345   7.035 -0.0950  0.1920 -0.0236
 3788ntf    on517937   1.092   0.225   6.912 -0.2263 -0.3529  0.2216
 3788ntf    fn417938   0.735   0.292   6.831 -0.6988 -0.6881  0.0618
 3788ntf    fn417939   0.861   0.188   6.702  0.6089  0.3917 -0.0810
 3788ntf    fn417940   0.816   0.106   6.896  0.0782  0.1909  0.1849
 3789ntf    cn117941   1.324   2.672   1.731  0.1239  0.0585 -0.1309
 3789ntf    sn217942   1.460   2.736   1.628  0.2568 -0.2019 -0.1169
 3789ntf    nn317943   1.574   2.749   1.735 -0.0428 -0.0799  0.1909
 3789ntf    sn217944   1.639   2.876   1.801  0.0543  0.0438 -0.1394
 3789ntf    cn117945   1.812   2.822   1.814 -0.1468 -0.5325  0.1733
 3789ntf    fn417946   1.203   2.691   1.679  0.0648  0.0693  0.0108
 3789ntf    fn417947   1.353   2.545   1.749  0.2369  0.0430 -0.4126
 3789ntf    fn417948   1.325   2.733   1.848 -0.4663  0.4674 -0.3329
 3789ntf    on517949   1.491   2.631   1.534 -0.3714 -0.2762 -0.2494
 3789ntf    on517950   1.414   2.860   1.570 -0.0276 -0.5364 -0.6123
 3789ntf    on517951   1.603   2.891   1.940  0.1115 -0.1537 -0.1025
 3789ntf    on517952   1.653   2.990   1.714 -0.2576 -0.1754 -0.4788
 3789ntf    fn417953   1.829   2.729   1.907  0.1567 -0.0701  0.5832
 3789ntf    fn417954   1.857   2.766   1.703 -0.5954 -0.3301 -0.1117
 3789ntf    fn417955   1.896   2.917   1.851  0.2043 -0.5700 -0.5165
 3790ntf    cn117956   0.580   5.736   6.013  0.1012  0.0417 -0.4814
 3790ntf    sn217957   0.418   5.685   5.948 -0.1167  0.1555 -0.0276
 3790ntf    nn317958   0.422   5.533   5.986 -0.6329  0.1836  0.1528
 3790ntf    sn217959   0.316   5.427   6.032 -0.1160 -0.3341  0.1699
 3790ntf    cn117960   0.389   5.272   5.970 -0.0427 -0.2387  0.0169
 3790ntf    fn417961   0.620   5.862   6.006  0.1911  0.0566  0.2108
 3790ntf    fn417962   0.594   5.699   6.139  0.1237  0.0648 -0.4769
 3790ntf    fn417963   0.674   5.675   5.942 -0.1140 -0.0674 -0.6708
 3790ntf    on517964   0.322   5.769   6.016 -0.3558 -0.2134  0.0927
 3790ntf    on517965   0.439   5.707   5.807  0.0953 -0.2431 -0.0600
 3790ntf    on517966   0.193   5.442   5.958  0.1225  0.6618 -0.0377
 3790ntf    on517967   0.316   5.406   6.175 -0.1074 -0.1209  0.2011
 3790ntf    fn417968   0.298   5.177   5.962 -0.6007  0.2524  0.4346
 3790ntf    fn417969   0.437   5.285   5.848  0.2917 -0.0013  0.1712
 3790ntf    fn417970   0.487   5.224   6.045  0.2232  0.0351 -0.1538
 3791ntf    cn117971   3.934   3.589   5.656 -0.0963 -0.2310  0.0883
 3791ntf    sn217972   3.905   3.412   5.625 -0.1603 -0.1959 -0.0522
 3791ntf    nn317973   3.832   3.430   5.487 -0.5656 -0.2031  0.1611
 3791ntf    sn217974   3.678   3.449   5.466 -0.4978  0.3324  0.1388
 3791ntf    cn117975   3.609   3.282   5.483 -0.3349  0.2323 -0.1776
 3791ntf    fn417976   4.003   3.649   5.560 -0.1053  0.1491  0.3185
 3791ntf    fn417977   3.825   3.663   5.665  0.4603  0.6607 -0.3637
 3791ntf    fn417978   4.000   3.603   5.770 -0.1862 -0.0380  0.1156
 3791ntf    on517979   4.033   3.347   5.612 -0.1987 -0.2684 -0.0691
 3791ntf    on517980   3.821   3.366   5.732  0.1841 -0.6674  0.0205
 3791ntf    on517981   3.643   3.482   5.330  0.3224  0.0860 -0.1353
 3791ntf    on517982   3.619   3.535   5.566  0.3670 -0.0501  0.9866
 3791ntf    fn417983   3.577   3.237   5.603  0.0433  0.2437 -0.0728
 3791ntf    fn417984   3.501   3.268   5.408 -0.2731 -0.7405 -0.0973
 3791ntf    fn417985   3.689   3.194   5.425 -0.1454  0.1055  0.2726
 3792ntf    cn117986   6.811   1.042   6.206  0.0870 -0.2033  0.4931
 3792ntf    sn217987   6.810   1.204   6.122 -0.1112 -0.2746  0.3576
 3792ntf    nn317988   6.708   1.284   6.210 -0.2579  0.0542 -0.1080
 3792ntf    sn217989   6.731   1.366   6.342 -0.1162 -0.4077  0.1578
 3792ntf    cn117990   6.563   1.385   6.409 -0.0603  0.0632  0.1642
 3792ntf    fn417991   6.819   1.058   6.337 -0.2229 -0.3703  0.5323
 3792ntf    fn417992   6.693   0.989   6.178  0.1595 -0.1092 -0.0045
 3792ntf    fn417993   6.906   0.960   6.163 -0.2704 -0.3360 -0.0480
 3792ntf    on517994   6.943   1.261   6.122 -0.3409  0.2569  0.6571
 3792ntf    on517995   6.753   1.172   5.993 -0.4545  0.2822  0.3721
 3792ntf    on517996   6.775   1.503   6.328 -0.3242 -0.3207  0.3578
 3792ntf    on517997   6.795   1.289   6.446 -0.5946 -0.1893  0.6156
 3792ntf    fn417998   6.476   1.451   6.334 -0.0301  0.3417  0.3717
 3792ntf    fn417999   6.504   1.269   6.433  0.1303  0.0071  0.3637
 3792ntf    fn418000   6.568   1.446   6.527  0.5948 -0.2901  0.3221
 3793ntf    cn118001   6.331   6.718   3.466  0.1306 -0.0984  0.0870
 3793ntf    sn218002   6.355   6.674   3.291 -0.1194 -0.2277  0.0839
 3793ntf    nn318003   6.364   6.517   3.301 -0.5168 -0.2447  0.1940
 3793ntf    sn218004   6.473   6.437   3.381 -0.0794  0.0966 -0.0570
 3793ntf    cn118005   6.417   6.267   3.352 -0.3970  0.1432  0.2695
 3793ntf    fn418006   6.440   6.696   3.537  0.0641 -0.0807  0.1943
 3793ntf    fn418007   6.281   6.838   3.489  0.2506 -0.1653  0.7242
 3793ntf    fn418008   6.244   6.630   3.513  0.0608 -0.0743  0.0024
 3793ntf    on518009   6.245   6.717   3.209  0.1550  0.0915 -0.1186
 3793ntf    on518010   6.490   6.722   3.269 -0.4520  0.7555  0.1540
 3793ntf    on518011   6.464   6.441   3.525  0.1057 -0.6953 -0.0219
 3793ntf    on518012   6.609   6.445   3.332  0.1399 -0.0667  0.5090
 3793ntf    fn418013   6.495   6.171   3.399  0.1375  0.6757  0.4811
 3793ntf    fn418014   6.298   6.242   3.403 -0.7267 -0.3341 -0.6948
 3793ntf    fn418015   6.402   6.239   3.223 -0.1389  0.0674  0.2548
 3794ntf    cn118016   4.880   4.281   5.062  0.1031  0.3291  0.1706
 3794ntf    sn218017   4.723   4.190   5.081  0.4665 -0.3167  0.1054
 3794ntf    nn318018   4.704   4.129   4.938  0.2550  0.1706 -0.0759
 3794ntf    sn218019   4.797   4.036   4.852  0.3278  0.1892 -0.0170
 3794ntf    cn118020   4.725   3.873   4.889 -0.0664  0.3446 -0.0875
 3794ntf    fn418021   4.887   4.377   5.151  0.6982  0.5779 -0.1428
 3794ntf    fn418022   4.983   4.201   5.086 -0.0642  0.1582  0.3241
 3794ntf    fn418023   4.891   4.341   4.945  0.4676  0.1213  0.0971
 3794ntf    on518024   4.743   4.090   5.183  0.1738  0.0298  0.5052
 3794ntf    on518025   4.627   4.295   5.103  1.2791  0.4104  0.2678
 3794ntf    on518026   4.935   4.027   4.890  0.4353 -1.0323 -0.6466
 3794ntf    on518027   4.773   4.055   4.711 -0.2272  0.5608  0.1235
 3794ntf    fn418028   4.675   3.865   5.011 -0.0602 -0.2488 -0.1192
 3794ntf    fn418029   4.624   3.846   4.808  0.2249 -0.2123 -0.2782
 3794ntf    fn418030   4.817   3.777   4.886  0.0583  0.4541  0.2282
 3795ntf    cn118031   1.549   2.045   7.113  0.4118 -0.1100 -0.0197
 3795ntf    sn218032   1.704   2.061   7.207  0.1189  0.5085  0.3637
 3795ntf    nn318033   1.800   2.122   7.098  0.3057 -0.0654  0.2063
 3795ntf    sn218034   1.953   2.089   7.087  0.4412  0.5485  0.2036
 3795ntf    cn118035   1.957   2.000   6.928  0.1804 -0.3095  0.6712
 3795ntf    fn418036   1.497   2.161   7.079 -0.1093 -0.0622  0.9154
 3795ntf    fn418037   1.557   1.967   7.007  0.4327  0.1242 -0.1908
 3795ntf    fn418038   1.459   1.984   7.188  0.0422  0.3607 -0.0751
 3795ntf    on518039   1.673   2.160   7.308 -0.0139  0.9186 -0.0716
 3795ntf    on518040   1.736   1.927   7.249  0.5696  0.4161 -0.2542
 3795ntf    on518041   2.001   1.991   7.182 -0.1851 -0.4156 -0.4516
 3795ntf    on518042   2.028   2.208   7.055  0.0852  0.6797 -0.1467
 3795ntf    fn418043   1.917   2.082   6.833  0.0849 -0.5492  0.5048
 3795ntf    fn418044   2.077   1.962   6.887  0.0718 -0.0036  0.0680
 3795ntf    fn418045   1.879   1.893   6.937  0.2580 -0.4687 -0.4868
 3796ntf    cn118046   4.335   1.316   0.108 -0.4088  0.4012 -0.6301
 3796ntf    sn218047   4.412   1.431   0.226 -0.5561 -0.0326 -0.1132
 3796ntf    nn318048   4.284   1.487   0.298 -0.4571  0.3216 -0.2169
 3796ntf    sn218049   4.285   1.582   0.423  0.4203  0.0265  0.0081
 3796ntf    cn118050   4.199   1.472   0.540  0.1967  0.2315  0.0388
 3796ntf    fn418051   4.253   1.371   0.020 -0.2047  0.5355 -0.7380
 3796ntf    fn418052   4.415   1.233   0.043 -0.3220 -0.0106  0.0046
 3796ntf    fn418053   4.258   1.236   0.179  0.2533  0.2760 -0.0493
 3796ntf    on518054   4.495   1.345   0.307 -0.1761 -0.3436 -0.8242
 3796ntf    on518055   4.466   1.538   0.147  0.5756 -0.0582  0.5966
 3796ntf    on518056   4.199   1.698   0.412 -0.2868 -0.4774  0.1581
 3796ntf    on518057   4.419   1.599   0.473  0.6439 -0.0876 -0.5501
 3796ntf    fn418058   4.113   1.391   0.481  0.1233  0.0893  0.3378
 3796ntf    fn418059   4.285   1.394   0.605 -0.1652 -0.1121  0.1034
 3796ntf    fn418060   4.144   1.540   0.639  0.5220 -0.2096  0.5272
 3797ntf    cn118061   2.798   0.422   4.565 -0.0746 -0.1395 -0.3713
 3797ntf    sn218062   2.741   0.302   4.689  0.1762  0.0141 -0.1083
 3797ntf    nn318063   2.886   0.249   4.718  0.1718  0.0275 -0.0617
 3797ntf    sn218064   2.939   0.106   4.682  0.1926 -0.0101  0.1137
 3797ntf    cn118065   2.906   0.012   4.834  0.2192 -0.2832 -0.0489
 3797ntf    fn418066   2.841   0.358   4.457  0.3450  0.0543 -0.3218
 3797ntf    fn418067   2.712   0.516   4.531  0.1809  0.3935  0.4439
 3797ntf    fn418068   2.903   0.488   4.610  0.0019 -0.3913 -0.1744
 3797ntf    on518069   2.697   0.379   4.803  0.1743 -0.5423  0.2749
 3797ntf    on518070   2.650   0.205   4.635  0.4404 -0.0912 -0.3664
 3797ntf    on518071   3.083   0.109   4.676  0.1654  0.5504 -0.3397
 3797ntf    on518072   2.865   0.035   4.580  0.5214 -0.3292  0.0980
 3797ntf    fn418073   2.778   0.007   4.869  0.1129  0.4040 -0.3350
 3797ntf    fn418074   2.946  -0.112   4.810 -0.5605 -0.3996 -0.8251
 3797ntf    fn418075   2.978   0.056   4.935  0.4127 -0.5132 -0.0858
 3798ntf    cn118076   2.662   0.230   6.790  0.1401  0.2412  0.4587
 3798ntf    sn218077   2.510   0.133   6.770  0.2098  0.1929  0.1641
 3798ntf    nn318078   2.407   0.239   6.823  0.0089 -0.1275  0.4194
 3798ntf    sn218079   2.301   0.326   6.746  0.2738  0.0253  0.2262
 3798ntf    cn118080   2.156   0.220   6.772  0.0087  0.3216 -0.0350
 3798ntf    fn418081   2.666   0.276   6.914  0.6665 -0.1379  0.5839
 3798ntf    fn418082   2.763   0.148   6.767  0.0317  0.2273  0.0321
 3798ntf    fn418083   2.668   0.335   6.710  0.1823 -0.1892 -0.1026
 3798ntf    on518084   2.505   0.104   6.629 -0.0245  0.0375  0.2025
 3798ntf    on518085   2.526   0.021   6.860  0.4401 -0.1388 -0.2838
 3798ntf    on518086   2.315   0.334   6.603  0.3623  0.1201  0.2404
 3798ntf    on518087   2.280   0.451   6.814 -0.4701 -0.0183  0.0876
 3798ntf    fn418088   2.144   0.189   6.900 -0.1007 -0.2371 -0.1756
 3798ntf    fn418089   2.041   0.277   6.738 -0.1488  0.0631  0.0582
 3798ntf    fn418090   2.175   0.105   6.709 -0.0498  0.5341 -0.4380
 3799ntf    cn118091   1.932   0.535   0.814  0.2823 -0.1580  0.1922
 3799ntf    sn218092   1.978   0.494   0.643 -0.0325  0.2376  0.0104
 3799ntf    nn318093   2.048   0.356   0.669 -0.3156  0.0732 -0.1056
 3799ntf    sn218094   2.181   0.305   0.603 -0.3423 -0.1202 -0.0132
 3799ntf    cn118095   2.113   0.213   0.462 -0.0887 -0.0353 -0.1925
 3799ntf    fn418096   1.837   0.450   0.850 -0.2658  0.4913  0.3079
 3799ntf    fn418097   2.032   0.534   0.901  0.0312 -0.9679  0.4782
 3799ntf    fn418098   1.875   0.654   0.819 -0.2847 -0.4241  0.1289
 3799ntf    on518099   1.854   0.485   0.570 -0.0612  0.6114  0.0102
 3799ntf    on518100   2.077   0.596   0.618  0.0892  0.2036  0.3432
 3799ntf    on518101   2.246   0.204   0.682 -0.7681 -0.3658  0.0263
 3799ntf    on518102   2.270   0.400   0.540 -0.5079 -0.1395 -0.2791
 3799ntf    fn418103   2.200   0.144   0.390  0.5978  0.0179  0.5679
 3799ntf    fn418104   2.022   0.124   0.500  0.1528 -0.2341 -0.0736
 3799ntf    fn418105   2.053   0.297   0.379 -0.1195  0.5102  0.3778
 3800ntf    cn118106   2.458   4.678   1.569  0.0382 -0.1003  0.1513
 3800ntf    sn218107   2.610   4.645   1.475 -0.1608 -0.0042 -0.2050
 3800ntf    nn318108   2.597   4.489   1.492  0.6805 -0.1272 -0.6052
 3800ntf    sn218109   2.530   4.382   1.398  0.0721 -0.1268 -0.1765
 3800ntf    cn118110   2.654   4.250   1.391 -0.0054 -0.2172  0.1175
 3800ntf    fn418111   2.351   4.633   1.507  0.2291  0.0316 -0.2772
 3800ntf    fn418112   2.456   4.624   1.690 -0.1198 -0.4842 -0.0225
 3800ntf    fn418113   2.449   4.808   1.588  0.2683 -0.0554 -0.0347
 3800ntf    on518114   2.582   4.699   1.344  0.3252  0.4023 -0.1436
 3800ntf    on518115   2.718   4.698   1.554 -0.1186 -0.0833 -0.2097
 3800ntf    on518116   2.519   4.425   1.261  0.2024 -0.1706 -0.2008
 3800ntf    on518117   2.417   4.315   1.457 -0.3300  0.0859 -0.7034
 3800ntf    fn418118   2.691   4.213   1.512 -0.4033  0.6408  0.5034
 3800ntf    fn418119   2.608   4.144   1.327  0.0339 -0.0191 -0.2427
 3800ntf    fn418120   2.767   4.285   1.330  0.1206 -0.1362  0.3948
 3801ntf    cn118121   5.326   5.724   3.611  0.1827 -0.2239  0.2101
 3801ntf    sn218122   5.310   5.809   3.771 -0.0977  0.0790  0.0214
 3801ntf    nn318123   5.434   5.757   3.852 -0.4118 -0.0175  0.4417
 3801ntf    sn218124   5.555   5.832   3.919 -0.1523 -0.2850  0.2765
 3801ntf    cn118125   5.694   5.731   3.859 -0.5209 -0.7585  0.2087
 3801ntf    fn418126   5.241   5.768   3.520  0.2558 -0.4100  0.0489
 3801ntf    fn418127   5.446   5.731   3.555  0.1089 -0.2584  0.0485
 3801ntf    fn418128   5.307   5.593   3.608 -0.0125 -0.2044  0.5787
 3801ntf    on518129   5.313   5.949   3.738 -0.1058  0.0532 -0.0909
 3801ntf    on518130   5.188   5.754   3.825 -0.2446  0.4073  0.0234
 3801ntf    on518131   5.557   5.816   4.062 -0.2632  0.0434  0.3139
 3801ntf    on518132   5.582   5.965   3.872  0.3635 -0.2554  0.6560
 3801ntf    fn418133   5.807   5.769   3.916 -0.2771 -0.5936 -0.3716
 3801ntf    fn418134   5.670   5.602   3.873  0.6238 -1.0265 -0.2218
 3801ntf    fn418135   5.717   5.763   3.732  0.1745 -0.0302  0.5104
 3802ntf    cn118136   3.752   7.015   2.610  0.3463 -0.4003  0.4246
 3802ntf    sn218137   3.834   7.164   2.547 -0.0040 -0.3676  0.0430
 3802ntf    nn318138   3.932   7.171   2.669 -0.1366  0.1723  0.1210
 3802ntf    sn218139   3.954   7.284   2.777  0.0058 -0.0047  0.2791
 3802ntf    cn118140   3.951   7.188   2.931  0.4140  0.2009  0.4141
 3802ntf    fn418141   3.668   6.968   2.519  0.4799  0.0390  0.0734
 3802ntf    fn418142   3.835   6.917   2.642  0.7098 -0.0102  0.6784
 3802ntf    fn418143   3.680   7.039   2.719 -0.5981  0.2041 -0.3223
 3802ntf    on518144   3.908   7.127   2.429  0.4293 -0.3738  0.3180
 3802ntf    on518145   3.718   7.250   2.541  0.2198 -0.0681  0.0119
 3802ntf    on518146   3.849   7.382   2.784  0.1404  0.2093 -0.5208
 3802ntf    on518147   4.087   7.338   2.778  0.0214 -0.0418  0.2273
 3802ntf    fn418148   3.833   7.130   2.946  0.4110  0.1961  0.3725
 3802ntf    fn418149   4.033   7.085   2.930 -0.0640 -0.1791 -0.3307
 3802ntf    fn418150   3.961   7.247   3.049 -0.6561  0.3014  0.4626
 3803ntf    cn118151   2.859   6.138   5.596  0.0391  0.0148  0.0572
 3803ntf    sn218152   2.905   6.271   5.711 -0.0495 -0.0113  0.1229
 3803ntf    nn318153   2.791   6.249   5.816 -0.5244 -0.7322 -0.5316
 3803ntf    sn218154   2.673   6.348   5.848 -0.0900 -0.3049 -0.2310
 3803ntf    cn118155   2.779   6.470   5.930  0.0137 -0.3440 -0.3081
 3803ntf    fn418156   2.735   6.148   5.552  0.0797  0.0857 -0.0439
 3803ntf    fn418157   2.938   6.147   5.490  0.1235 -0.1629  0.1055
 3803ntf    fn418158   2.863   6.017   5.649 -0.3008 -0.1338 -0.2568
 3803ntf    on518159   3.034   6.226   5.756 -0.5310 -1.0196  0.5230
 3803ntf    on518160   2.908   6.388   5.626  0.3189  0.7828  1.2099
 3803ntf    on518161   2.589   6.302   5.956 -0.1754 -0.7306 -0.4777
 3803ntf    on518162   2.608   6.419   5.740  0.2300  0.1086 -0.1553
 3803ntf    fn418163   2.882   6.502   5.853  0.1268 -0.1422 -0.0763
 3803ntf    fn418164   2.712   6.583   5.948  0.2329 -0.2242 -0.2369
 3803ntf    fn418165   2.827   6.437   6.049  0.4310  0.5364 -0.2171
 3804ntf    cn118166   2.226   5.073   4.756  0.3522 -0.2064  0.3448
 3804ntf    sn218167   2.063   5.134   4.703  0.6343  0.1213 -0.1525
 3804ntf    nn318168   2.006   5.141   4.849  0.4999 -0.0052 -0.1994
 3804ntf    sn218169   1.966   5.270   4.931  0.1479 -0.1374 -0.1614
 3804ntf    cn118170   1.877   5.375   4.812  0.3395  0.2272  0.0156
 3804ntf    fn418171   2.309   5.047   4.657 -0.1297 -0.2729 -0.0474
 3804ntf    fn418172   2.286   5.153   4.843  0.0416  0.7214 -0.2778
 3804ntf    fn418173   2.214   4.955   4.814 -0.3678 -0.3886 -0.1618
 3804ntf    on518174   2.096   5.259   4.640  0.1298  0.2927 -0.0847
 3804ntf    on518175   2.013   5.025   4.623  0.3904  0.0845  0.0486
 3804ntf    on518176   2.078   5.347   4.977  0.2875 -0.0964 -0.5654
 3804ntf    on518177   1.861   5.231   5.022 -0.1606 -0.3139 -0.5858
 3804ntf    fn418178   1.810   5.308   4.719 -0.2857  0.7510  0.0789
 3804ntf    fn418179   1.783   5.438   4.880 -0.1954 -0.5208 -0.0173
 3804ntf    fn418180   1.946   5.464   4.743  0.2198  0.5115  0.2599
 3805ntf    cn118181   6.415   3.861   1.511 -0.2671  0.2353 -0.5882
 3805ntf    sn218182   6.261   3.922   1.435 -0.3612  0.2436 -0.3944
 3805ntf    nn318183   6.246   4.066   1.494  0.1349  0.2338 -0.2348
 3805ntf    sn218184   6.127   4.124   1.578 -0.0096 -0.1736 -0.1559
 3805ntf    cn118185   6.167   4.301   1.574  0.0987 -0.1882  0.2323
 3805ntf    fn418186   6.519   3.939   1.489 -0.1317  0.2064 -0.0529
 3805ntf    fn418187   6.411   3.851   1.643 -0.0268 -0.1458 -0.6103
 3805ntf    fn418188   6.448   3.742   1.464 -0.1897  0.1266 -0.2596
 3805ntf    on518189   6.301   3.918   1.296 -0.0439  0.1100 -0.3015
 3805ntf    on518190   6.171   3.818   1.477 -0.4797  0.6115  0.2666
 3805ntf    on518191   6.131   4.101   1.720 -0.2810  0.3406 -0.0608
 3805ntf    on518192   6.000   4.120   1.510 -0.0464 -0.4315 -0.0710
 3805ntf    fn418193   6.070   4.373   1.628 -0.0556  0.1249 -0.4428
 3805ntf    fn418194   6.278   4.336   1.638  0.0962  0.1995  0.0332
 3805ntf    fn418195   6.183   4.348   1.451 -0.0725 -0.2079  0.2022
 3806ntf    cn118196   0.825   2.006   2.701 -0.3005  0.1459 -0.1407
 3806ntf    sn218197   0.746   2.121   2.818  0.0425  0.2551 -0.0130
 3806ntf    nn318198   0.812   2.064   2.948  0.6234  0.1897 -0.3330
 3806ntf    sn218199   0.777   2.088   3.099  0.1870 -0.2662 -0.3587
 3806ntf    cn118200   0.691   1.930   3.123 -0.1816 -0.0352 -0.1500
 3806ntf    fn418201   0.772   2.008   2.580 -0.3092  0.2766 -0.1353
 3806ntf    fn418202   0.954   2.036   2.688 -0.3264  0.0237 -0.6907
 3806ntf    fn418203   0.806   1.881   2.739 -0.1416  0.1077 -0.1838
 3806ntf    on518204   0.785   2.255   2.781 -0.1364  0.2346 -0.2798
 3806ntf    on518205   0.608   2.080   2.808  0.0377  0.1484  0.4967
 3806ntf    on518206   0.678   2.191   3.122  0.0948 -0.5037  0.3245
 3806ntf    on518207   0.891   2.075   3.185 -0.2052  0.3455  0.2675
 3806ntf    fn418208   0.675   1.894   3.250 -0.3234  0.3869 -0.0446
 3806ntf    fn418209   0.565   1.920   3.083 -0.1928  0.5938 -0.2854
 3806ntf    fn418210   0.753   1.825   3.073 -0.0805 -0.0830  0.0732
 3807ntf    cn118211   2.298   3.847   1.404 -0.2048 -0.2128  0.0782
 3807ntf    sn218212   2.214   3.755   1.271 -0.1812  0.1704 -0.2039
 3807ntf    nn318213   2.103   3.857   1.226 -0.3121 -0.1085 -0.5165
 3807ntf    sn218214   1.955   3.837   1.180 -0.5335  0.0363  0.1287
 3807ntf    cn118215   1.951   3.916   1.017  0.1513 -0.0517  0.0657
 3807ntf    fn418216   2.210   3.878   1.498 -0.1512  0.3336 -0.0453
 3807ntf    fn418217   2.396   3.777   1.457 -0.0093  0.2919  0.3913
 3807ntf    fn418218   2.347   3.965   1.368 -0.4236 -0.2156 -0.2340
 3807ntf    on518219   2.322   3.739   1.177  0.1240 -0.0072  0.1772
 3807ntf    on518220   2.163   3.634   1.331 -0.6507  0.2885 -0.3574
 3807ntf    on518221   1.853   3.896   1.263 -0.1357  0.0204  0.6304
 3807ntf    on518222   1.928   3.698   1.150  0.4876 -0.0097 -0.6043
 3807ntf    fn418223   1.831   3.901   0.962  0.3030 -0.1872 -0.2287
 3807ntf    fn418224   1.964   4.048   1.028 -0.0056 -0.0389  0.1088
 3807ntf    fn418225   2.042   3.870   0.933  0.1520  0.4203 -0.1959
 3808ntf    cn118226   6.335   4.015   3.618  0.0782 -0.2758  0.0295
 3808ntf    sn218227   6.173   4.060   3.686  0.0861 -0.1595 -0.0271
 3808ntf    nn318228   6.125   3.919   3.738  0.1344 -0.1448  0.0569
 3808ntf    sn218229   6.022   3.817   3.678  0.0460 -0.2744  0.4322
 3808ntf    cn118230   5.870   3.865   3.766  0.0051 -0.0462  0.2382
 3808ntf    fn418231   6.320   3.926   3.522 -0.1554 -0.3016  0.0916
 3808ntf    fn418232   6.407   4.116   3.571  0.1508 -0.3736 -0.0723
 3808ntf    fn418233   6.402   3.946   3.709 -0.1144 -0.2161  0.2157
 3808ntf    on518234   6.198   4.153   3.793 -0.3138 -0.0521 -0.0259
 3808ntf    on518235   6.100   4.116   3.575 -0.1400 -0.2076  0.0958
 3808ntf    on518236   6.039   3.681   3.723 -0.3766 -0.3730  0.2941
 3808ntf    on518237   6.000   3.829   3.536  0.7952 -0.0932  0.3287
 3808ntf    fn418238   5.770   3.787   3.731 -0.1057  0.0036  0.4376
 3808ntf    fn418239   5.876   3.861   3.899 -0.0834 -0.2122  0.2381
 3808ntf    fn418240   5.829   3.987   3.738 -0.0801 -0.2079 -0.3480
 3809ntf    cn118241   3.201   3.989   4.495  0.4425 -0.0176  0.0219
 3809ntf    sn218242   3.138   3.894   4.353 -0.5729  0.3594  0.2078
 3809ntf    nn318243   2.983   3.913   4.371 -0.7151 -0.5273 -0.0001
 3809ntf    sn218244   2.902   4.043   4.335 -0.1151 -0.1120  0.1230
 3809ntf    cn118245   2.836   4.002   4.171 -0.0545  0.2611  0.0053
 3809ntf    fn418246   3.159   3.952   4.615 -0.0225 -0.3754 -0.2434
 3809ntf    fn418247   3.332   3.976   4.506  0.3553 -0.0757  1.1006
 3809ntf    fn418248   3.169   4.116   4.484  0.7052  0.0366 -0.1276
 3809ntf    on518249   3.186   3.956   4.232  0.0260  0.6076  0.5689
 3809ntf    on518250   3.164   3.754   4.379 -0.1573  0.6075  1.1556
 3809ntf    on518251   2.980   4.160   4.305 -0.0457 -0.2328 -0.1683
 3809ntf    on518252   2.786   4.064   4.418  0.0957  0.1454  0.3552
 3809ntf    fn418253   2.778   4.101   4.104 -0.0896  0.4091  0.2543
 3809ntf    fn418254   2.930   3.963   4.086  0.1487 -0.9036  0.7519
 3809ntf    fn418255   2.740   3.912   4.176 -0.0967  0.2919 -0.2113
 3810ntf    cn118256   1.734   0.344   6.897  0.2854 -0.0500  0.1716
 3810ntf    sn218257   1.696   0.441   7.046  0.0413  0.0619  0.0383
 3810ntf    nn318258   1.690   0.326   7.152 -0.1828  0.1105  0.0777
 3810ntf    sn218259   1.715   0.341   7.306 -0.0502  0.2880  0.0384
 3810ntf    cn118260   1.834   0.209   7.344 -0.1576  0.1311 -0.1698
 3810ntf    fn418261   1.626   0.283   6.852  0.3763  0.1352 -0.2985
 3810ntf    fn418262   1.783   0.419   6.799  0.4590  0.0282  0.3172
 3810ntf    fn418263   1.820   0.249   6.930  0.0629 -0.2896  0.0691
 3810ntf    on518264   1.806   0.535   7.052  0.4326 -0.4051  0.2932
 3810ntf    on518265   1.563   0.489   7.019  0.3152  0.7529 -0.1076
 3810ntf    on518266   1.602   0.302   7.387  0.1190  0.2785  0.2699
 3810ntf    on518267   1.795   0.457   7.338 -0.2241  0.2241  0.7250
 3810ntf    fn418268   1.904   0.221   7.456  0.0184  0.0999 -0.2751
 3810ntf    fn418269   1.761   0.099   7.344  0.1725 -0.0922  0.3131
 3810ntf    fn418270   1.920   0.191   7.245 -0.2990  0.1603 -0.2992
 3811ntf    cn118271   7.173   4.593   5.258  0.1666 -0.4671 -0.1584
 3811ntf    sn218272   7.219   4.424   5.306  0.3795 -0.3040  0.2100
 3811ntf    nn318273   7.299   4.376   5.180 -0.2214 -0.7004 -0.0249
 3811ntf    sn218274   7.446   4.324   5.163  0.0559  0.1650 -0.3476
 3811ntf    cn118275   7.423   4.178   5.056  0.0382 -0.4558  0.4895
 3811ntf    fn418276   7.277   4.675   5.260 -0.0454 -0.1953 -0.2902
 3811ntf    fn418277   7.124   4.590   5.135 -1.1531 -0.0653  0.3392
 3811ntf    fn418278   7.086   4.648   5.341  0.4113 -0.5915  0.1804
 3811ntf    on518279   7.292   4.441   5.430 -0.1379  0.1623  0.4560
 3811ntf    on518280   7.093   4.354   5.313  0.4522 -0.4619 -0.0387
 3811ntf    on518281   7.502   4.269   5.284  0.0907 -0.3270 -0.5827
 3811ntf    on518282   7.531   4.412   5.087  0.0852  0.0290 -0.4727
 3811ntf    fn418283   7.348   4.088   5.117 -0.2378 -0.4810  0.1096
 3811ntf    fn418284   7.362   4.212   4.944  0.1606  0.0060  0.5605
 3811ntf    fn418285   7.538   4.124   5.019 -0.0253 -0.1441 -0.1706
 3812ntf    cn118286   6.179   1.141   7.184 -0.1365  0.3143 -0.4934
 3812ntf    sn218287   6.317   1.152   7.302 -0.4528  0.3096 -0.1187
 3812ntf    nn318288   6.392   1.021   7.260 -0.1995  0.5545 -0.4365
 3812ntf    sn218289   6.502   0.988   7.152 -0.1937 -0.1114 -0.2375
 3812ntf    cn118290   6.650   1.016   7.253 -0.3270 -0.3128  0.0144
 3812ntf    fn418291   6.212   1.128   7.057  0.3695 -0.4939 -0.2861
 3812ntf    fn418292   6.115   1.027   7.207  0.7706 -0.1177 -0.0663
 3812ntf    fn418293   6.093   1.240   7.198 -0.2236  0.1379  0.2910
 3812ntf    on518294   6.376   1.280   7.272 -0.5532  0.3941  0.0435
 3812ntf    on518295   6.249   1.143   7.429 -0.3995 -0.1180 -0.1171
 3812ntf    on518296   6.501   1.078   7.039  0.9503 -0.2384 -0.3588
 3812ntf    on518297   6.507   0.849   7.115 -0.5503 -0.2718  0.3127
 3812ntf    fn418298   6.653   1.140   7.299 -0.8681 -0.3584  0.1802
 3812ntf    fn418299   6.656   0.940   7.361  0.1664 -0.3333 -0.0248
 3812ntf    fn418300   6.764   0.995   7.188 -0.1083  0.0318  0.2851
 3813ntf    cn118301   4.952   1.596   1.280 -0.2079 -0.0520 -0.1701
 3813ntf    sn218302   4.989   1.773   1.302 -0.1242 -0.0974  0.0578
 3813ntf    nn318303   4.853   1.841   1.341 -0.2509 -0.4673  0.2600
 3813ntf    sn218304   4.728   1.901   1.267  0.1878  0.1033 -0.0181
 3813ntf    cn118305   4.771   2.078   1.261  0.2111  0.0880 -0.3326
 3813ntf    fn418306   5.058   1.517   1.275 -0.1501  0.0351 -0.3158
 3813ntf    fn418307   4.872   1.551   1.375  0.4445 -0.0856  0.3718
 3813ntf    fn418308   4.887   1.589   1.164 -0.2231  0.3370 -0.1880
 3813ntf    on518309   5.097   1.780   1.397  0.1434  0.0715 -0.2566
 3813ntf    on518310   5.027   1.824   1.173 -0.2414 -0.2511 -0.0383
 3813ntf    on518311   4.614   1.900   1.355 -0.2891 -0.0796 -0.6354
 3813ntf    on518312   4.705   1.857   1.131  0.0469  0.3430 -0.0716
 3813ntf    fn418313   4.894   2.088   1.213 -0.1099  0.4967 -1.0767
 3813ntf    fn418314   4.693   2.154   1.187  0.0160 -0.0112 -0.2281
 3813ntf    fn418315   4.776   2.137   1.379 -0.3820 -0.1285 -0.1983
 3814ntf    cn118316   4.406   4.880   1.391  0.0997 -0.2141  0.1107
 3814ntf    sn218317   4.307   5.026   1.435  0.0282 -0.2841  0.1851
 3814ntf    nn318318   4.259   4.986   1.579 -0.2579 -0.0369  0.1593
 3814ntf    sn218319   4.111   4.965   1.625 -0.2032  0.0075  0.3561
 3814ntf    cn118320   4.043   5.130   1.593 -0.1267 -0.0494 -0.1016
 3814ntf    fn418321   4.452   4.891   1.268 -0.2228 -0.4572 -0.0358
 3814ntf    fn418322   4.505   4.862   1.477 -0.1377 -0.2416  0.3845
 3814ntf    fn418323   4.338   4.766   1.393 -0.0957 -0.1062 -0.4231
 3814ntf    on518324   4.392   5.143   1.436 -0.0708 -0.2054 -0.2269
 3814ntf    on518325   4.204   5.025   1.334  0.3633 -0.6067 -0.1563
 3814ntf    on518326   4.109   4.948   1.769  0.4881  0.0305  0.3745
 3814ntf    on518327   4.029   4.874   1.550 -0.1274 -0.1463  0.4580
 3814ntf    fn418328   4.122   5.228   1.633  0.0342 -0.2093 -0.0273
 3814ntf    fn418329   4.016   5.160   1.467  0.3300 -0.2134 -0.2420
 3814ntf    fn418330   3.929   5.143   1.658 -0.0747  0.0239 -0.0233
 3815ntf    cn118331   6.087   0.604   6.026 -0.1206  0.3925  0.3123
 3815ntf    sn218332   6.209   0.482   5.970 -0.4551  0.0798  0.2586
 3815ntf    nn318333   6.181   0.483   5.815 -0.4197 -0.7306  0.2400
 3815ntf    sn218334   6.279   0.487   5.693 -0.5477  0.1229  0.1567
 3815ntf    cn118335   6.155   0.438   5.569 -0.1257 -0.2068 -0.1392
 3815ntf    fn418336   6.048   0.600   6.153  0.0299  0.6899  0.3687
 3815ntf    fn418337   6.136   0.725   6.005 -0.1681  0.3877  0.1742
 3815ntf    fn418338   5.969   0.593   5.967  0.2438  0.0163 -0.3506
 3815ntf    on518339   6.334   0.535   6.017 -0.4810  0.7551 -0.4231
 3815ntf    on518340   6.167   0.361   6.036 -0.4355  0.2114  0.5125
 3815ntf    on518341   6.380   0.385   5.682 -0.7394 -0.0132 -0.3370
 3815ntf    on518342   6.313   0.619   5.646  0.0788 -0.2191 -0.3678
 3815ntf    fn418343   6.199   0.463   5.447  0.3401  0.8628  0.2352
 3815ntf    fn418344   6.119   0.312   5.582 -0.0141 -0.2735 -0.4651
 3815ntf    fn418345   6.046   0.511   5.590  0.3519  0.4789  0.0021
 3816ntf    cn118346   2.955   1.388   5.272 -0.3201  0.1020  0.1886
 3816ntf    sn218347   2.794   1.467   5.243 -0.2088  0.2811  0.0557
 3816ntf    nn318348   2.701   1.375   5.329 -0.3119 -0.0263 -0.3835
 3816ntf    sn218349   2.631   1.419   5.462 -0.1347 -0.0888 -0.2692
 3816ntf    cn118350   2.488   1.493   5.378  0.0610  0.4024 -0.1767
 3816ntf    fn418351   3.052   1.451   5.207 -0.1379 -0.2373  0.1249
 3816ntf    fn418352   2.980   1.390   5.402 -0.1922  0.2093  0.1628
 3816ntf    fn418353   2.960   1.262   5.229 -0.2815  0.1800 -0.0399
 3816ntf    on518354   2.822   1.599   5.295  0.3366  0.1702  0.0540
 3816ntf    on518355   2.775   1.457   5.100  0.0960  0.9903 -0.0420
 3816ntf    on518356   2.699   1.525   5.533  0.0854 -0.2197 -0.2849
 3816ntf    on518357   2.574   1.314   5.543  0.3521 -0.2603 -0.1409
 3816ntf    fn418358   2.525   1.583   5.289 -0.0925  0.3378 -0.3068
 3816ntf    fn418359   2.417   1.404   5.310  0.3122 -0.4224  0.6198
 3816ntf    fn418360   2.411   1.552   5.468  0.4055  0.6863 -0.0683
 3817ntf    cn118361   0.032   2.472   1.320 -0.0755 -0.3042  0.2205
 3817ntf    sn218362   0.069   2.648   1.295  0.3513 -0.3969  0.1917
 3817ntf    nn318363   0.012   2.666   1.150 -0.0348  0.4890  0.4477
 3817ntf    sn218364  -0.017   2.797   1.069 -0.4354 -0.0715 -0.3253
 3817ntf    cn118365   0.143   2.882   1.057 -0.2927 -0.3398 -0.3400
 3817ntf    fn418366   0.111   2.397   1.245 -0.2418 -0.4396  0.1802
 3817ntf    fn418367   0.041   2.429   1.445 -0.0578 -0.4056  0.1846
 3817ntf    fn418368  -0.090   2.445   1.277 -0.0682 -0.1776  0.1204
 3817ntf    on518369  -0.007   2.707   1.402 -0.1694 -0.0919 -0.3404
 3817ntf    on518370   0.213   2.639   1.306  0.4141  0.6207  0.3023
 3817ntf    on518371  -0.104   2.888   1.139  0.0145 -0.1097  0.2814
 3817ntf    on518372  -0.048   2.762   0.932  0.0517  0.3328 -0.5417
 3817ntf    fn418373   0.174   2.948   1.168 -0.8411 -0.1683 -0.2871
 3817ntf    fn418374   0.243   2.800   1.031 -0.4771 -0.5282 -0.4573
 3817ntf    fn418375   0.152   2.972   0.960  0.4404  0.4623  0.4442
 3818ntf    cn118376   4.801   6.706   0.237 -0.4058  0.7733 -0.0356
 3818ntf    sn218377   4.630   6.669   0.189 -0.1195 -0.1527 -0.3648
 3818ntf    nn318378   4.654   6.564   0.075  0.2670 -0.4828  0.0153
 3818ntf    sn218379   4.670   6.593  -0.079 -0.4798 -0.0334  0.0171
 3818ntf    cn118380   4.499   6.564  -0.133 -0.5050 -0.1864  0.1804
 3818ntf    fn418381   4.819   6.793   0.336 -0.8536  0.4424  0.3402
 3818ntf    fn418382   4.854   6.590   0.274 -0.1666  0.8887 -0.0112
 3818ntf    fn418383   4.865   6.747   0.128  0.3857 -0.1119  0.0783
 3818ntf    on518384   4.587   6.600   0.308 -0.1732  0.1925 -0.1819
 3818ntf    on518385   4.569   6.796   0.157  0.1672  0.1604  0.3027
 3818ntf    on518386   4.757   6.498  -0.143 -0.0174  0.1643  0.3489
 3818ntf    on518387   4.696   6.732  -0.108 -0.5658 -0.1710 -0.7394
 3818ntf    fn418388   4.417   6.648  -0.071  0.3136  0.7877 -0.0253
 3818ntf    fn418389   4.476   6.571  -0.263 -0.5986 -0.1140  0.2000
 3818ntf    fn418390   4.459   6.442  -0.101 -0.2316 -0.3392 -0.0625
 3819ntf    cn118391   0.312   3.169   2.757  0.0429 -0.4321  0.1188
 3819ntf    sn218392   0.138   3.214   2.733  0.1028 -0.1595  0.1898
 3819ntf    nn318393   0.150   3.313   2.611 -0.3255 -0.0249  0.2557
 3819ntf    sn218394   0.200   3.462   2.610 -0.1528 -0.0850 -0.0613
 3819ntf    cn118395   0.337   3.455   2.491 -0.1293  0.0642 -0.0434
 3819ntf    fn418396   0.399   3.269   2.764  0.2074 -0.5671  0.0185
 3819ntf    fn418397   0.332   3.100   2.868  0.7345 -0.2825  0.0904
 3819ntf    fn418398   0.344   3.101   2.648 -0.1193  0.3245 -0.4072
 3819ntf    on518399   0.076   3.092   2.688  0.1114 -0.0529 -0.1143
 3819ntf    on518400   0.080   3.277   2.849  0.1357  0.4601 -0.1237
 3819ntf    on518401   0.263   3.497   2.735 -0.1655 -0.2440 -0.0104
 3819ntf    on518402   0.104   3.550   2.548  0.1220  0.1187 -0.1985
 3819ntf    fn418403   0.298   3.387   2.385 -0.0773  0.0490 -0.0527
 3819ntf    fn418404   0.366   3.576   2.447  0.6418 -0.1857 -0.2426
 3819ntf    fn418405   0.446   3.400   2.541  0.2697  0.1709 -0.7832
 3820ntf    cn118406   5.007   6.721   2.504 -0.2307  0.1938 -0.3657
 3820ntf    sn218407   4.846   6.661   2.444 -0.3227 -0.0291  0.1012
 3820ntf    nn318408   4.770   6.798   2.440 -0.3585 -0.0512  0.0152
 3820ntf    sn218409   4.748   6.884   2.310  0.0114 -0.0039 -0.0173
 3820ntf    cn118410   4.629   6.792   2.208 -0.0009  0.0134 -0.0179
 3820ntf    fn418411   5.096   6.623   2.500  0.1335  0.5320 -0.6356
 3820ntf    fn418412   5.065   6.825   2.444  0.3348  0.1324  0.0673
 3820ntf    fn418413   5.002   6.755   2.632  0.3665 -0.3518 -0.1955
 3820ntf    on518414   4.878   6.595   2.320  0.4741  0.4400  0.0428
 3820ntf    on518415   4.812   6.576   2.555  0.1248 -0.0830  0.2007
 3820ntf    on518416   4.866   6.890   2.229  0.0349 -0.0373  0.0143
 3820ntf    on518417   4.675   7.008   2.324  0.0685  0.0761 -0.4326
 3820ntf    fn418418   4.514   6.772   2.271  0.2993 -0.4265  0.3972
 3820ntf    fn418419   4.602   6.843   2.089  0.5280 -0.4452 -0.3384
 3820ntf    fn418420   4.676   6.671   2.185  0.2168  0.1804 -0.4781
 3821ntf    cn118421   6.885   7.014   4.816  0.4292  0.3359  0.1499
 3821ntf    sn218422   6.900   6.896   4.678 -0.1660  0.1011  0.2799
 3821ntf    nn318423   6.843   6.764   4.741 -0.3082  0.0794  0.1052
 3821ntf    sn218424   6.732   6.661   4.700 -0.2037  0.1508 -0.3550
 3821ntf    cn118425   6.586   6.747   4.764 -0.0943  0.5498 -0.6310
 3821ntf    fn418426   6.758   7.041   4.844  0.3418 -0.0798  0.1547
 3821ntf    fn418427   6.930   6.969   4.931  0.2109  0.8235  0.4296
 3821ntf    fn418428   6.945   7.131   4.805 -0.1272  0.6393  0.3190
 3821ntf    on518429   6.824   6.951   4.569  0.2850 -0.9200 -0.5634
 3821ntf    on518430   7.044   6.892   4.667 -0.1980  0.2343 -0.1837
 3821ntf    on518431   6.744   6.539   4.776 -0.2605  0.4838  0.1928
 3821ntf    on518432   6.710   6.650   4.557 -0.2804  0.4055 -0.3631
 3821ntf    fn418433   6.591   6.737   4.896 -0.1167  0.3489 -0.6440
 3821ntf    fn418434   6.589   6.875   4.734  0.1132  0.6267 -0.2887
 3821ntf    fn418435   6.471   6.695   4.723  0.0926 -0.4003  0.0169
 3822ntf    cn118436   1.387   3.583   4.020  0.3099 -0.0259  0.1288
 3822ntf    sn218437   1.471   3.500   4.158 -0.0323  0.1086  0.4172
 3822ntf    nn318438   1.359   3.481   4.267  0.0716  0.3734  0.5728
 3822ntf    sn218439   1.285   3.352   4.317 -0.2950  0.2669 -0.2216
 3822ntf    cn118440   1.124   3.388   4.243 -0.5434  0.0566  0.2088
 3822ntf    fn418441   1.377   3.713   4.042 -0.3346 -0.0077 -0.2628
 3822ntf    fn418442   1.464   3.573   3.912  0.2315 -0.1715  0.0866
 3822ntf    fn418443   1.277   3.522   3.980  0.7475 -0.8158  0.0916
 3822ntf    on518444   1.514   3.375   4.101 -0.1471  0.3222 -0.1358
 3822ntf    on518445   1.568   3.598   4.199  0.4841 -0.2447  0.0447
 3822ntf    on518446   1.254   3.362   4.457  0.1014  0.5313 -0.1524
 3822ntf    on518447   1.316   3.220   4.267 -0.6305 -0.0102  0.2838
 3822ntf    fn418448   1.084   3.513   4.261  0.2511  0.3083  0.2344
 3822ntf    fn418449   1.114   3.361   4.113 -0.0817 -0.3352  0.2563
 3822ntf    fn418450   1.028   3.318   4.301  0.1711 -0.1105  1.1958
 3823ntf    cn118451   2.448   5.419   4.941  0.1115  0.1898 -0.2693
 3823ntf    sn218452   2.445   5.570   5.043  0.1352 -0.0406  0.0731
 3823ntf    nn318453   2.293   5.602   5.061 -0.0137 -0.5282 -0.2818
 3823ntf    sn218454   2.203   5.690   4.967 -0.1333 -0.2015  0.1324
 3823ntf    cn118455   2.218   5.853   5.045  0.3223 -0.3403  0.3381
 3823ntf    fn418456   2.573   5.385   4.918  0.1666  0.2113 -0.0067
 3823ntf    fn418457   2.393   5.316   5.004  0.2813  0.0050 -0.4230
 3823ntf    fn418458   2.396   5.431   4.820 -0.0740  0.4027 -0.1696
 3823ntf    on518459   2.515   5.536   5.165  0.2997 -0.1177 -0.0425
 3823ntf    on518460   2.520   5.653   4.953  0.5202 -0.1902  0.2512
 3823ntf    on518461   2.062   5.669   4.984 -0.1224 -0.2720  0.1373
 3823ntf    on518462   2.251   5.706   4.832 -0.1205 -0.5068  0.1009
 3823ntf    fn418463   2.126   5.942   5.012  0.4138 -0.4217 -0.1405
 3823ntf    fn418464   2.210   5.834   5.176 -0.0471 -0.5415  0.2855
 3823ntf    fn418465   2.334   5.917   5.031  0.1606 -0.1335 -0.0751
 3824ntf    cn118466   6.747   0.666   2.927  0.2642  0.1531 -0.0535
 3824ntf    sn218467   6.839   0.757   3.054 -0.0570  0.1239  0.1980
 3824ntf    nn318468   6.739   0.783   3.173 -0.7379  0.0200 -0.3459
 3824ntf    sn218469   6.710   0.702   3.304 -0.1126  0.1387 -0.1319
 3824ntf    cn118470   6.749   0.826   3.432 -0.5655  0.1021  0.0425
 3824ntf    fn418471   6.803   0.670   2.807 -0.3802  0.0585 -0.3626
 3824ntf    fn418472   6.707   0.543   2.957  0.7066 -0.1118 -0.5182
 3824ntf    fn418473   6.632   0.731   2.915 -0.0116 -0.2635  0.2847
 3824ntf    on518474   6.957   0.680   3.084  0.3183  0.5510 -0.1875
 3824ntf    on518475   6.859   0.880   2.982  0.3867 -0.2876 -0.3879
 3824ntf    on518476   6.794   0.591   3.339 -0.5204 -0.1843 -0.1722
 3824ntf    on518477   6.568   0.682   3.320 -0.0778 -0.0342 -0.0378
 3824ntf    fn418478   6.746   0.761   3.548  0.2610  0.3945  0.2293
 3824ntf    fn418479   6.869   0.881   3.425 -0.6354  0.2705  0.1576
 3824ntf    fn418480   6.664   0.927   3.432 -0.0722  0.5154 -0.1857
 3825ntf    cn118481   0.688   4.350   0.426 -0.1337 -0.1335  0.4435
 3825ntf    sn218482   0.515   4.404   0.416 -0.0364  0.1000 -0.0071
 3825ntf    nn318483   0.518   4.451   0.266 -0.2640  0.3614  0.0698
 3825ntf    sn218484   0.458   4.363   0.150  0.2836  0.3548 -0.2114
 3825ntf    cn118485   0.489   4.477   0.012  0.0441  0.3876 -0.2378
 3825ntf    fn418486   0.718   4.253   0.341 -0.8919 -0.2266  0.2830
 3825ntf    fn418487   0.776   4.446   0.402 -0.0457 -0.3890 -0.3062
 3825ntf    fn418488   0.718   4.299   0.545 -0.0750 -0.4456  0.2967
 3825ntf    on518489   0.435   4.289   0.449 -0.4037  0.4226  0.2410
 3825ntf    on518490   0.508   4.518   0.505  0.4361 -0.1903  0.4051
 3825ntf    on518491   0.316   4.339   0.144  0.4385 -0.5750 -0.2505
 3825ntf    on518492   0.534   4.248   0.110 -0.6068 -0.4089  0.2596
 3825ntf    fn418493   0.419   4.587   0.033 -0.1438  0.2006  0.1255
 3825ntf    fn418494   0.612   4.524   0.003  0.1027  0.2607 -0.0912
 3825ntf    fn418495   0.452   4.432  -0.107 -0.0499  0.1669 -0.1241
 3826ntf    cn118496   0.789   7.028   2.288  0.0746 -0.1415 -0.3992
 3826ntf    sn218497   0.769   6.854   2.337 -0.0691  0.0851  0.3587
 3826ntf    nn318498   0.890   6.786   2.263  0.1747  0.1813  0.6675
 3826ntf    sn218499   1.009   6.700   2.320  0.0765 -0.2874  0.1780
 3826ntf    cn118500   1.155   6.800   2.278 -0.1335 -0.0530  0.0011
 3826ntf    fn418501   0.916   7.062   2.296 -0.1555  0.4393  1.0601
 3826ntf    fn418502   0.750   7.045   2.162 -0.3625 -0.1814 -0.2694
 3826ntf    fn418503   0.714   7.110   2.359 -0.1342 -0.3893 -0.3281
 3826ntf    on518504   0.779   6.874   2.479 -0.2028  0.7237  0.2786
 3826ntf    on518505   0.642   6.815   2.282 -0.0076  0.4535 -0.0477
 3826ntf    on518506   1.027   6.587   2.233  0.7096 -0.3380  0.3722
 3826ntf    on518507   1.020   6.674   2.461  0.1685 -1.1108  0.0214
 3826ntf    fn418508   1.182   6.807   2.149 -0.4863  0.5580 -0.0443
 3826ntf    fn418509   1.133   6.923   2.322 -0.0596 -0.0967  0.1600
 3826ntf    fn418510   1.265   6.748   2.331 -0.1565 -0.2278 -0.1205
 3827ntf    cn118511   1.547   5.024   3.874  0.0896  0.0192 -0.2648
 3827ntf    sn218512   1.677   5.150   3.855  0.1518 -0.0556 -0.3385
 3827ntf    nn318513   1.694   5.184   4.007 -0.2652  0.1476 -0.3365
 3827ntf    sn218514   1.683   5.324   4.078  0.1229  0.0463 -0.0757
 3827ntf    cn118515   1.736   5.284   4.248 -0.1871 -0.0281  0.0041
 3827ntf    fn418516   1.433   5.072   3.920 -0.2685 -1.0565 -0.0097
 3827ntf    fn418517   1.523   4.968   3.756 -0.2666 -0.2089 -0.0846
 3827ntf    fn418518   1.580   4.921   3.950 -0.4573  0.0813  0.0546
 3827ntf    on518519   1.786   5.073   3.800 -0.0489 -0.5410 -0.0619
 3827ntf    on518520   1.617   5.256   3.777  0.2359  0.1339 -0.1479
 3827ntf    on518521   1.550   5.378   4.094 -0.2212 -0.8449  0.1633
 3827ntf    on518522   1.784   5.416   4.035  0.2981 -0.1105 -0.0004
 3827ntf    fn418523   1.866   5.268   4.262 -0.0154  0.5567 -0.8381
 3827ntf    fn418524   1.704   5.378   4.335 -0.0306  0.0829 -0.0594
 3827ntf    fn418525   1.671   5.175   4.286  0.0815 -0.2551 -0.1848
 3828ntf    cn118526   4.266   3.450   6.484 -0.0036  0.2817  0.1622
 3828ntf    sn218527   4.343   3.513   6.332  0.2113 -0.1625  0.0837
 3828ntf    nn318528   4.243   3.633   6.320  0.2381 -0.1807 -0.3331
 3828ntf    sn218529   4.256   3.774   6.252 -0.1631  0.0654  0.0870
 3828ntf    cn118530   4.093   3.796   6.176 -0.1325 -0.4037 -0.1196
 3828ntf    fn418531   4.137   3.426   6.466  0.0112  0.4104 -0.1039
 3828ntf    fn418532   4.324   3.339   6.528  0.2791  0.3550 -0.0271
 3828ntf    fn418533   4.273   3.541   6.579  0.0899  0.4552 -0.0103
 3828ntf    on518534   4.478   3.554   6.366  0.3586 -0.6066  0.0412
 3828ntf    on518535   4.332   3.395   6.250 -0.6719 -0.1868  0.2258
 3828ntf    on518536   4.354   3.789   6.147 -0.1830 -0.1242  0.0407
 3828ntf    on518537   4.257   3.874   6.356  0.6240  0.0255  0.1305
 3828ntf    fn418538   3.989   3.795   6.258 -0.6059 -0.5409 -0.7177
 3828ntf    fn418539   4.088   3.917   6.121  0.2476 -0.1221  0.4529
 3828ntf    fn418540   4.058   3.710   6.082  0.2076 -0.3804 -0.2700
 3829ntf    cn118541   4.277   6.462   3.709 -0.1697  0.0453  0.2129
 3829ntf    sn218542   4.412   6.522   3.604 -0.0418  0.0311  0.3683
 3829ntf    nn318543   4.404   6.678   3.623  0.8656  0.2427 -0.8103
 3829ntf    sn218544   4.455   6.769   3.740  0.1554 -0.4418  0.0453
 3829ntf    cn118545   4.602   6.842   3.662  0.0935 -0.3405  0.0220
 3829ntf    fn418546   4.321   6.439   3.832 -0.2584 -0.1224  0.2136
 3829ntf    fn418547   4.178   6.550   3.718 -0.1100  0.1458 -0.0890
 3829ntf    fn418548   4.222   6.352   3.661 -0.7755  0.2443  0.4477
 3829ntf    on518549   4.526   6.455   3.660 -0.4237 -0.3471  0.6928
 3829ntf    on518550   4.372   6.477   3.473  0.0377 -0.5719  0.5511
 3829ntf    on518551   4.502   6.706   3.861 -0.1521  0.6660  0.7632
 3829ntf    on518552   4.384   6.893   3.757  0.2067 -0.4934  0.6619
 3829ntf    fn418553   4.634   6.961   3.709 -0.1145 -0.2926  0.0419
 3829ntf    fn418554   4.709   6.765   3.679  0.2433 -0.0870  0.2268
 3829ntf    fn418555   4.589   6.856   3.531  0.0454  0.0246  0.0667
 3830ntf    cn118556   6.365   1.829   5.064  0.2532  0.0478 -0.1416
 3830ntf    sn218557   6.257   1.953   4.987 -0.0386  0.0924  0.3358
 3830ntf    nn318558   6.148   1.992   5.093 -0.2164  0.8868 -0.1318
 3830ntf    sn218559   6.012   1.930   5.141 -0.0337  0.1331 -0.5639
 3830ntf    cn118560   6.050   1.887   5.314 -0.2063  0.3279 -0.4772
 3830ntf    fn418561   6.466   1.802   4.982  0.4764 -0.1761  0.2022
 3830ntf    fn418562   6.426   1.859   5.177  0.1439 -0.0958 -0.0444
 3830ntf    fn418563   6.297   1.717   5.086  0.1557  0.2256  0.4566
 3830ntf    on518564   6.348   2.060   4.952 -0.1128  0.0136 -0.1068
 3830ntf    on518565   6.201   1.881   4.875 -0.0492  0.3965  0.1443
 3830ntf    on518566   5.958   1.808   5.086 -0.0621 -0.0003 -0.2434
 3830ntf    on518567   5.915   2.034   5.163 -0.5030 -0.4274  0.0873
 3830ntf    fn418568   5.947   1.836   5.379 -0.0674  0.1784 -0.3743
 3830ntf    fn418569   6.154   1.807   5.328 -0.3248  0.2395 -0.0907
 3830ntf    fn418570   6.078   1.992   5.389  0.4308 -0.4562  0.4070
 3831ntf    cn118571   1.496   5.434   6.895  0.4076 -0.1457  0.5418
 3831ntf    sn218572   1.405   5.591   6.909  0.0411 -0.3158  0.1232
 3831ntf    nn318573   1.423   5.610   7.064 -0.3099  0.2026  0.1032
 3831ntf    sn218574   1.507   5.722   7.134  0.3461 -0.0951 -0.2087
 3831ntf    cn118575   1.373   5.835   7.180  0.4098 -0.2240  0.2961
 3831ntf    fn418576   1.480   5.383   6.774  0.3977 -0.1954  0.5643
 3831ntf    fn418577   1.623   5.462   6.915  0.4160  0.3654 -0.1766
 3831ntf    fn418578   1.463   5.332   6.973  0.4246 -0.0796  0.6361
 3831ntf    on518579   1.466   5.687   6.820  0.5252 -0.9655 -0.2456
 3831ntf    on518580   1.271   5.550   6.877 -0.0658  0.5158 -0.5196
 3831ntf    on518581   1.606   5.785   7.049 -0.0312 -0.2990 -0.8048
 3831ntf    on518582   1.554   5.677   7.262 -0.0873 -0.0725 -0.0414
 3831ntf    fn418583   1.422   5.949   7.227 -0.2080  0.5649 -0.9362
 3831ntf    fn418584   1.296   5.861   7.076 -0.0128 -0.6401  0.5005
 3831ntf    fn418585   1.285   5.790   7.268  0.1000 -0.1940  0.0030
 3832ntf    cn118586   4.347   4.814   2.688  0.0392 -0.0578  0.3981
 3832ntf    sn218587   4.232   4.752   2.814  0.0594 -0.0568  0.4174
 3832ntf    nn318588   4.332   4.750   2.935  0.2366  0.4626  0.2805
 3832ntf    sn218589   4.318   4.670   3.069 -0.3854 -0.1500 -0.1394
 3832ntf    cn118590   4.298   4.806   3.188 -0.1912 -0.0131 -0.2622
 3832ntf    fn418591   4.284   4.860   2.581  0.2054 -0.3236  0.1881
 3832ntf    fn418592   4.420   4.917   2.728  0.3784 -0.1636  0.0527
 3832ntf    fn418593   4.444   4.729   2.660  0.1794  0.1535  0.2421
 3832ntf    on518594   4.123   4.846   2.818 -0.1000 -0.2557  0.7993
 3832ntf    on518595   4.204   4.624   2.755  0.2065  0.1517 -0.1055
 3832ntf    on518596   4.439   4.603   3.111 -0.1399  0.2719 -0.1609
 3832ntf    on518597   4.194   4.599   3.083 -0.7422  0.4665 -0.1311
 3832ntf    fn418598   4.189   4.876   3.160 -0.1086 -0.0201 -0.6055
 3832ntf    fn418599   4.297   4.769   3.315  0.3561  0.5976 -0.0705
 3832ntf    fn418600   4.399   4.891   3.179 -0.2609 -0.0122 -1.0529
 3833ntf    cn118601   1.883   0.586   6.291  0.2097 -0.0040 -0.2499
 3833ntf    sn218602   1.971   0.544   6.137  0.3747 -0.2086 -0.1002
 3833ntf    nn318603   2.090   0.647   6.139  0.6609 -0.5363 -0.1439
 3833ntf    sn218604   2.136   0.748   6.027 -0.2492  0.0162 -0.0299
 3833ntf    cn118605   2.035   0.897   6.053 -0.0883  0.0758  0.2657
 3833ntf    fn418606   1.965   0.634   6.383 -0.0967  0.5585 -0.2638
 3833ntf    fn418607   1.795   0.684   6.276  0.6264  0.3601 -0.3517
 3833ntf    fn418608   1.822   0.482   6.344  0.3957  0.0520  0.0735
 3833ntf    on518609   2.022   0.413   6.169 -0.5445 -0.6120 -0.2398
 3833ntf    on518610   1.877   0.559   6.029  0.0658  0.3655  0.2399
 3833ntf    on518611   2.112   0.692   5.897  0.2084 -0.1388 -0.0497
 3833ntf    on518612   2.272   0.789   6.050 -0.0088 -0.3947 -0.6795
 3833ntf    fn418613   2.050   0.949   6.173  0.0484  0.4347  0.0944
 3833ntf    fn418614   2.057   0.992   5.964  0.4587 -0.1468  0.1588
 3833ntf    fn418615   1.906   0.869   6.042 -0.0291 -0.0395 -0.1914
 3834ntf    cn118616   5.615   6.394   2.292  0.3050  0.3647  0.0549
 3834ntf    sn218617   5.482   6.448   2.181 -0.1786 -0.0834  0.4137
 3834ntf    nn318618   5.467   6.307   2.113  0.1675  0.0762  0.0033
 3834ntf    sn218619   5.525   6.267   1.973 -0.0254  0.2728 -0.1335
 3834ntf    cn118620   5.390   6.163   1.910  0.3272 -0.3766  0.1755
 3834ntf    fn418621   5.674   6.483   2.369  0.3210  0.2120  0.2213
 3834ntf    fn418622   5.569   6.295   2.367  0.5843  0.6630  0.6291
 3834ntf    fn418623   5.718   6.340   2.228  0.1130  0.2230 -0.1342
 3834ntf    on518624   5.362   6.466   2.260 -0.5288  0.2846 -0.1882
 3834ntf    on518625   5.534   6.563   2.112  0.0184 -0.3750  0.0692
 3834ntf    on518626   5.633   6.174   1.993  0.4466  0.8804  0.1661
 3834ntf    on518627   5.535   6.364   1.867  0.3541 -0.0609 -0.4040
 3834ntf    fn418628   5.289   6.239   1.871  0.7416  0.2502  0.3240
 3834ntf    fn418629   5.426   6.092   1.804  0.6518  0.5219 -0.3247
 3834ntf    fn418630   5.346   6.075   1.999  0.1536 -0.2688  0.1978
 3835ntf    cn118631   1.570   6.642   0.561 -0.0842  0.0171  0.1709
 3835ntf    sn218632   1.690   6.691   0.433 -0.3149 -0.0788 -0.0852
 3835ntf    nn318633   1.724   6.832   0.493  0.0829 -0.0887 -0.2863
 3835ntf    sn218634   1.698   6.979   0.445 -0.0133 -0.0106  0.0030
 3835ntf    cn118635   1.844   6.996   0.337  0.0182 -0.3951 -0.0170
 3835ntf    fn418636   1.611   6.597   0.678  0.3104  0.1039  0.0677
 3835ntf    fn418637   1.479   6.737   0.575 -0.2513 -0.0729 -0.2514
 3835ntf    fn418638   1.511   6.531   0.518  0.0587  0.1908 -0.4916
 3835ntf    on518639   1.793   6.592   0.455 -0.5040 -0.1645  0.4471
 3835ntf    on518640   1.619   6.691   0.308 -0.0024 -0.0418 -0.2628
 3835ntf    on518641   1.729   7.072   0.551  0.1012  0.3487 -0.3421
 3835ntf    on518642   1.583   7.009   0.364  0.2313  0.3559 -0.2163
 3835ntf    fn418643   1.815   7.093   0.251  0.3050 -0.2228  0.0812
 3835ntf    fn418644   1.950   7.022   0.411 -0.1429 -0.5895  0.2865
 3835ntf    fn418645   1.872   6.882   0.278  0.4547 -0.1690 -0.2537
 3836ntf    cn118646   5.300   5.058   3.951 -0.1151 -0.2540  0.0191
 3836ntf    sn218647   5.133   5.044   4.022 -0.1326 -0.2159 -0.0128
 3836ntf    nn318648   5.090   4.906   3.958  0.1952 -0.3485  0.0536
 3836ntf    sn218649   4.954   4.858   3.899  0.1201  0.1641 -0.1912
 3836ntf    cn118650   4.986   4.878   3.721 -0.2722 -0.0576 -0.2874
 3836ntf    fn418651   5.349   5.181   3.966 -0.4147 -0.0534 -0.6006
 3836ntf    fn418652   5.388   4.978   4.007 -0.1643 -0.2950  0.0379
 3836ntf    fn418653   5.310   5.031   3.822 -0.5196 -0.0085 -0.0663
 3836ntf    on518654   5.161   5.033   4.163 -0.4708 -0.9050  0.0048
 3836ntf    on518655   5.062   5.162   3.980  0.2987  0.1444  0.2718
 3836ntf    on518656   4.836   4.937   3.924  0.0108 -0.1893  0.4195
 3836ntf    on518657   4.938   4.716   3.917 -0.4208  0.3427  0.8091
 3836ntf    fn418658   5.035   4.996   3.687  0.2661 -0.0772  0.4176
 3836ntf    fn418659   5.069   4.786   3.674 -0.2412 -0.0773 -0.1938
 3836ntf    fn418660   4.868   4.870   3.660 -0.3429 -0.2917 -0.1261
 3837ntf    cn118661   7.021   0.827   7.196 -0.0139 -0.3221 -0.2493
 3837ntf    sn218662   7.180   0.815   7.109  0.2274  0.1758  0.1265
 3837ntf    nn318663   7.160   0.918   6.993  0.4397  0.1962  0.1068
 3837ntf    sn218664   7.235   1.052   6.961  0.5607  0.1475  0.1902
 3837ntf    cn118665   7.272   1.023   6.786  0.1652 -0.4664  0.2056
 3837ntf    fn418666   6.914   0.806   7.121 -0.1420 -0.0929 -0.1293
 3837ntf    fn418667   7.019   0.741   7.296 -0.4389 -0.2234 -0.1721
 3837ntf    fn418668   6.989   0.943   7.249 -0.4108 -0.3750 -0.3654
 3837ntf    on518669   7.279   0.854   7.207  0.3456  0.0330  0.0650
 3837ntf    on518670   7.179   0.680   7.058 -0.2169  0.3496 -0.3174
 3837ntf    on518671   7.362   1.072   7.028  0.4440 -0.1793  0.5105
 3837ntf    on518672   7.146   1.165   6.962 -0.1109 -0.3800  0.3549
 3837ntf    fn418673   7.162   1.007   6.714  0.2750 -0.3378  0.0068
 3837ntf    fn418674   7.333   1.127   6.731 -0.0314 -0.4628 -0.0060
 3837ntf    fn418675   7.359   0.924   6.771  0.1712 -0.3631 -0.5060
 3838ntf    cn118676   5.099   1.103   5.503  0.1505 -0.4201  0.2680
 3838ntf    sn218677   5.199   1.150   5.358  0.0576 -0.0523  0.3230
 3838ntf    nn318678   5.096   1.244   5.287 -0.0543 -0.3379  0.1075
 3838ntf    sn218679   5.027   1.380   5.324  0.0930 -0.1541 -0.2864
 3838ntf    cn118680   5.111   1.497   5.213  0.1116  0.3528  0.2517
 3838ntf    fn418681   5.047   1.204   5.569 -0.0159 -0.4421  0.1722
 3838ntf    fn418682   4.993   1.031   5.470 -0.1319  0.0597  0.1228
 3838ntf    fn418683   5.165   1.027   5.589  0.7191 -0.3097 -0.0618
 3838ntf    on518684   5.304   1.224   5.424  0.1119  0.0822  0.0856
 3838ntf    on518685   5.238   1.027   5.294  0.3057 -0.1065  0.5738
 3838ntf    on518686   5.046   1.435   5.456  0.3257  0.4593 -0.5677
 3838ntf    on518687   4.891   1.383   5.278  0.0411 -0.1924 -0.1353
 3838ntf    fn418688   5.067   1.480   5.089 -0.5595 -0.7426  0.6177
 3838ntf    fn418689   5.083   1.621   5.247 -0.0863  0.4978 -0.4119
 3838ntf    fn418690   5.242   1.478   5.211  0.1008  0.2959 -0.0137
 3839ntf    cn118691   2.000   6.417   3.160  0.0448 -0.1970  0.3021
 3839ntf    sn218692   2.064   6.300   3.036  0.0401  0.3752 -0.2451
 3839ntf    nn318693   2.163   6.390   2.955 -0.0903  0.0668 -0.7491
 3839ntf    sn218694   2.316   6.377   2.921  0.0384 -0.1662 -0.1002
 3839ntf    cn118695   2.386   6.479   3.054  0.0281 -0.3665  0.0593
 3839ntf    fn418696   1.926   6.355   3.251 -0.4596  0.1583  0.1349
 3839ntf    fn418697   2.096   6.485   3.220 -0.3552  0.7294 -0.0848
 3839ntf    fn418698   1.928   6.508   3.098  0.2339  0.0680  0.4714
 3839ntf    on518699   2.123   6.205   3.127  0.6608  0.4610 -0.5593
 3839ntf    on518700   1.941   6.266   2.969 -0.2820  0.2985  0.3728
 3839ntf    on518701   2.353   6.458   2.807  0.3879 -0.0692  0.0825
 3839ntf    on518702   2.371   6.245   2.936 -0.3461 -0.2316  0.7860
 3839ntf    fn418703   2.515   6.454   3.068  0.1162  0.2261  0.3472
 3839ntf    fn418704   2.370   6.607   3.025  0.2362 -0.4199 -0.3063
 3839ntf    fn418705   2.336   6.458   3.174 -0.9658  0.4473 -0.1970
 3840ntf    cn118706   3.090   3.536   4.781 -0.0938  0.3895 -0.1431
 3840ntf    sn218707   3.226   3.456   4.871 -0.2270  0.3566  0.0298
 3840ntf    nn318708   3.351   3.507   4.791 -0.2863  0.3361 -0.0769
 3840ntf    sn218709   3.461   3.611   4.833  0.0453  0.1190 -0.4005
 3840ntf    cn118710   3.521   3.674   4.673  0.0952  0.2141 -0.3455
 3840ntf    fn418711   2.977   3.501   4.841  0.1112  0.3071  0.1945
 3840ntf    fn418712   3.106   3.667   4.773  0.4799  0.3198 -0.1805
 3840ntf    fn418713   3.077   3.486   4.659 -0.3351 -0.0949  0.0785
 3840ntf    on518714   3.209   3.506   5.005 -0.0341  0.1771  0.1214
 3840ntf    on518715   3.204   3.316   4.847  0.7831  0.1777  0.1145
 3840ntf    on518716   3.572   3.538   4.888  0.1334  0.2189 -0.4443
 3840ntf    on518717   3.419   3.733   4.898  0.3975 -0.3021  0.6417
 3840ntf    fn418718   3.519   3.580   4.579  0.1469 -0.0676 -0.0664
 3840ntf    fn418719   3.449   3.778   4.634  0.0096  0.2894  0.0091
 3840ntf    fn418720   3.644   3.722   4.681  0.1548  0.0324 -0.1555
 3841ntf    cn118721   3.958   2.907   1.752 -0.2339 -0.2194 -0.0357
 3841ntf    sn218722   4.050   2.954   1.901 -0.2123  0.1623 -0.1673
 3841ntf    nn318723   3.956   2.903   2.016  0.2954  0.0391  0.2009
 3841ntf    sn218724   3.914   2.754   2.043 -0.5103  0.2158 -0.0500
 3841ntf    cn118725   3.987   2.727   2.207  0.0243  0.0267 -0.3167
 3841ntf    fn418726   3.926   2.779   1.760 -0.8352 -0.0649  0.0640
 3841ntf    fn418727   3.842   2.969   1.738  0.0106  0.0276 -1.0409
 3841ntf    fn418728   4.031   2.911   1.642  0.1584 -0.7256  0.1994
 3841ntf    on518729   4.170   2.874   1.892 -0.1213  0.2706  0.0658
 3841ntf    on518730   4.066   3.096   1.883  0.0223  0.1784  0.1511
 3841ntf    on518731   3.974   2.651   1.963 -0.6659  0.7966 -0.9253
 3841ntf    on518732   3.773   2.751   2.073 -0.6206 -0.1633 -0.5856
 3841ntf    fn418733   3.979   2.601   2.245  0.3728 -0.0173 -0.3849
 3841ntf    fn418734   4.113   2.767   2.205 -0.0583  0.2909 -0.3280
 3841ntf    fn418735   3.923   2.803   2.295  0.4416  0.0780 -0.0516
 3842ntf    cn118736   3.891   3.672   0.864  0.5704  0.3029  0.1429
 3842ntf    sn218737   3.948   3.844   0.879  0.5140  0.3353 -0.0124
 3842ntf    nn318738   4.100   3.820   0.847  0.3928 -0.3621 -0.0872
 3842ntf    sn218739   4.154   3.811   0.700  0.0409  0.0530 -0.2468
 3842ntf    cn118740   4.177   3.988   0.668  0.2584  0.0945  0.1281
 3842ntf    fn418741   3.959   3.588   0.940 -0.6870 -0.0656  0.8892
 3842ntf    fn418742   3.765   3.647   0.895  0.5853  0.3553  0.2448
 3842ntf    fn418743   3.906   3.626   0.741  0.3610  0.7322 -0.0461
 3842ntf    on518744   3.867   3.918   0.785 -0.2118  0.0259  0.3595
 3842ntf    on518745   3.931   3.875   1.019 -0.0743 -0.0998  0.0193
 3842ntf    on518746   4.065   3.772   0.594  0.4044 -0.2782 -0.4324
 3842ntf    on518747   4.289   3.763   0.682  0.0394  0.2417 -0.7456
 3842ntf    fn418748   4.079   4.063   0.718 -0.1639 -0.0463 -0.4734
 3842ntf    fn418749   4.289   4.039   0.717  0.3335  0.0818 -0.0309
 3842ntf    fn418750   4.177   4.020   0.540  0.6818  0.2805  0.1729
 3843ntf    cn118751   1.489   6.326   6.988  0.2809  0.3638  0.0095
 3843ntf    sn218752   1.571   6.422   7.119  0.3505  0.0338  0.2066
 3843ntf    nn318753   1.522   6.568   7.092 -0.3087 -0.1701  0.2808
 3843ntf    sn218754   1.583   6.685   7.006 -0.3089  0.0415  0.5677
 3843ntf    cn118755   1.696   6.760   7.127  0.2388  0.1162  0.0150
 3843ntf    fn418756   1.523   6.365   6.866 -0.0517 -0.4043 -0.3341
 3843ntf    fn418757   1.524   6.199   6.991  0.0118  0.2782 -0.3264
 3843ntf    fn418758   1.358   6.342   6.992  0.2016 -0.3176  0.2735
 3843ntf    on518759   1.520   6.368   7.243  0.3657 -0.1056  0.1533
 3843ntf    on518760   1.712   6.406   7.090  0.3534  0.0581  0.2073
 3843ntf    on518761   1.484   6.788   6.988 -0.2261 -0.0905 -0.7069
 3843ntf    on518762   1.669   6.643   6.898 -0.1191 -0.8807  1.0670
 3843ntf    fn418763   1.728   6.886   7.100 -0.2874  0.2738  0.1060
 3843ntf    fn418764   1.637   6.765   7.245  0.0848  0.3701 -0.0712
 3843ntf    fn418765   1.811   6.696   7.139  0.2685  0.0475 -0.6248
 3844ntf    cn118766   3.219   0.155   6.440 -0.1623 -0.2325 -0.0203
 3844ntf    sn218767   3.043   0.195   6.414 -0.0879  0.0378 -0.1151
 3844ntf    nn318768   3.045   0.282   6.284 -0.5690  0.1376 -0.0563
 3844ntf    sn218769   2.931   0.301   6.177 -0.1257  0.0385 -0.5525
 3844ntf    cn118770   2.900   0.477   6.214 -0.3813 -0.1247  0.0197
 3844ntf    fn418771   3.239   0.081   6.548  0.3395  0.1018  0.1190
 3844ntf    fn418772   3.269   0.095   6.333 -0.2829 -0.1722 -0.1108
 3844ntf    fn418773   3.295   0.262   6.456 -0.3312 -0.2369  0.8459
 3844ntf    on518774   2.989   0.062   6.401 -0.7944  0.2686  0.4401
 3844ntf    on518775   3.015   0.271   6.533  0.8940 -0.0633  0.1918
 3844ntf    on518776   2.808   0.234   6.208 -0.4259  0.5221 -0.6846
 3844ntf    on518777   2.964   0.304   6.037  0.0961  0.1505 -0.4993
 3844ntf    fn418778   3.008   0.548   6.186  0.3018 -1.1318  0.0126
 3844ntf    fn418779   2.800   0.531   6.146 -0.1067  0.3442 -0.0102
 3844ntf    fn418780   2.878   0.500   6.342  0.4608  0.4053  0.0772
 3845ntf    cn118781   5.544   4.028   0.060 -0.2970 -0.1295  0.1296
 3845ntf    sn218782   5.481   3.906  -0.060  0.1193 -0.1276 -0.0927
 3845ntf    nn318783   5.511   3.771   0.013  0.3307  0.1071  0.2604
 3845ntf    sn218784   5.595   3.645  -0.029  0.0628  0.0444 -0.0897
 3845ntf    cn118785   5.681   3.605   0.126  0.2268 -0.0027 -0.1929
 3845ntf    fn418786   5.505   4.009   0.185 -0.1657 -0.5741  0.1066
 3845ntf    fn418787   5.676   4.034   0.065 -0.2783 -0.3736 -0.0514
 3845ntf    fn418788   5.510   4.150   0.025  0.5726  0.0744 -0.0302
 3845ntf    on518789   5.339   3.929  -0.063  0.0961 -0.2588 -0.0072
 3845ntf    on518790   5.556   3.915  -0.183 -0.0772  0.0545 -0.1994
 3845ntf    on518791   5.706   3.670  -0.118  0.1157  0.7715  0.1729
 3845ntf    on518792   5.507   3.537  -0.066  0.3279 -0.0254 -0.5374
 3845ntf    fn418793   5.761   3.500   0.119  0.2379  0.0031 -0.1447
 3845ntf    fn418794   5.748   3.704   0.182  0.0434 -0.3929  0.7213
 3845ntf    fn418795   5.587   3.580   0.215 -0.1692  0.7507 -0.3973
 3846ntf    cn118796   1.905   5.194   5.584 -0.1056 -0.0635 -0.2912
 3846ntf    sn218797   1.854   5.033   5.517  0.0894 -0.1845 -0.1504
 3846ntf    nn318798   1.859   4.942   5.645 -0.7602  0.6863  0.5162
 3846ntf    sn218799   1.775   4.811   5.666  0.3045 -0.0898  0.0392
 3846ntf    cn118800   1.646   4.866   5.781  0.3032  0.0752 -0.0407
 3846ntf    fn418801   1.928   5.288   5.494  0.2738  0.4120  0.2963
 3846ntf    fn418802   1.805   5.243   5.655  0.1356 -0.0745  0.0633
 3846ntf    fn418803   2.009   5.183   5.665  0.1734  0.7192 -0.5384
 3846ntf    on518804   1.724   5.064   5.465 -0.1515  0.5261  0.8564
 3846ntf    on518805   1.959   5.002   5.423 -0.0312  0.1350 -0.3932
 3846ntf    on518806   1.850   4.716   5.744  0.4237 -0.2414 -0.2578
 3846ntf    on518807   1.707   4.752   5.554 -0.3084  0.4156  0.1462
 3846ntf    fn418808   1.550   4.779   5.808  0.4403 -0.0637 -0.0028
 3846ntf    fn418809   1.698   4.889   5.900  0.0731 -0.1874  0.1108
 3846ntf    fn418810   1.594   4.984   5.748 -0.1237 -0.2459 -0.5288
 3847ntf    cn118811   1.377   7.026   1.993 -0.3016 -0.5020  0.4275
 3847ntf    sn218812   1.533   6.932   2.002 -0.2595 -0.5028 -0.2887
 3847ntf    nn318813   1.638   7.046   2.025  0.4900 -1.0112 -1.1242
 3847ntf    sn218814   1.695   7.159   1.932 -0.3173  0.3396 -0.0159
 3847ntf    cn118815   1.673   7.308   2.034  0.1536  0.5189 -0.1735
 3847ntf    fn418816   1.354   7.109   2.094  0.4393  0.4759 -0.1854
 3847ntf    fn418817   1.365   7.101   1.884  0.3808 -0.0454  0.6561
 3847ntf    fn418818   1.273   6.945   1.986 -0.1470 -0.6263 -0.6082
 3847ntf    on518819   1.506   6.848   2.115  0.0259  0.0191  0.1729
 3847ntf    on518820   1.544   6.871   1.871  0.8095 -0.1200 -0.3872
 3847ntf    on518821   1.615   7.167   1.812  0.1331  0.2422 -0.3254
 3847ntf    on518822   1.836   7.143   1.910 -0.3033  0.0169  0.2984
 3847ntf    fn418823   1.550   7.355   2.048 -0.1532 -0.4072  0.3593
 3847ntf    fn418824   1.716   7.272   2.154 -0.4539 -0.1482 -0.1459
 3847ntf    fn418825   1.742   7.413   1.993  0.4976  0.5080  0.3616
 3848ntf    cn118826   0.333   2.786   0.167  0.0567 -0.0624  0.3113
 3848ntf    sn218827   0.391   2.716   0.010 -0.2029  0.0138  0.1809
 3848ntf    nn318828   0.342   2.813  -0.103  0.1724 -0.3198 -0.2696
 3848ntf    sn218829   0.204   2.810  -0.178  0.0411 -0.0320 -0.0386
 3848ntf    cn118830   0.170   2.989  -0.176  0.2416  0.0048  0.0979
 3848ntf    fn418831   0.391   2.901   0.196 -0.0628  0.2830 -0.7983
 3848ntf    fn418832   0.202   2.807   0.168  0.0099 -0.2930 -0.7460
 3848ntf    fn418833   0.355   2.699   0.265  0.1535 -0.0522  0.2979
 3848ntf    on518834   0.534   2.726   0.025 -0.1240 -0.4440 -0.2546
 3848ntf    on518835   0.336   2.583   0.008 -0.2288  0.0156  0.6681
 3848ntf    on518836   0.098   2.746  -0.103 -0.0302 -0.1452 -0.2369
 3848ntf    on518837   0.214   2.776  -0.318 -0.5795 -0.0910 -0.0724
 3848ntf    fn418838   0.051   3.020  -0.223  0.3009  0.1763  0.0623
 3848ntf    fn418839   0.172   3.037  -0.052  0.1863 -0.2790  0.2098
 3848ntf    fn418840   0.249   3.059  -0.256 -0.2170 -0.2525 -0.5847
 3849ntf    cn118841   3.722   6.895   0.939 -0.1388  0.2295 -0.2512
 3849ntf    sn218842   3.697   7.073   0.968 -0.0741  0.1729  0.1530
 3849ntf    nn318843   3.554   7.064   1.031 -0.1314 -0.0814 -0.0087
 3849ntf    sn218844   3.418   7.069   0.951 -0.2393 -0.2517  0.1626
 3849ntf    cn118845   3.393   7.244   0.911 -0.2189 -0.3153 -0.1249
 3849ntf    fn418846   3.725   6.835   1.056 -0.2164  0.5151 -0.1025
 3849ntf    fn418847   3.631   6.842   0.858  0.2253 -0.5436 -0.1627
 3849ntf    fn418848   3.844   6.870   0.895 -0.0817  0.0111  0.0297
 3849ntf    on518849   3.795   7.119   1.063  0.1470  0.1939 -0.0844
 3849ntf    on518850   3.698   7.134   0.837 -0.6114 -0.0604  0.0359
 3849ntf    on518851   3.313   7.040   1.045 -0.2463  0.3433  0.3442
 3849ntf    on518852   3.410   6.992   0.830 -0.5562 -0.4220  0.2909
 3849ntf    fn418853   3.462   7.286   0.806  0.3936 -0.0229  0.3957
 3849ntf    fn418854   3.267   7.272   0.880  0.0361  0.4496 -0.4888
 3849ntf    fn418855   3.415   7.327   1.011  0.1298 -0.2128 -0.2864
 3850ntf    cn118856   1.633   2.427   5.136  0.7114  0.0516 -0.5267
 3850ntf    sn218857   1.735   2.503   5.265 -0.2603 -0.1495  0.3743
 3850ntf    nn318858   1.727   2.653   5.217 -0.1694 -0.2957 -0.1027
 3850ntf    sn218859   1.802   2.721   5.098 -0.2484 -0.1530 -0.0707
 3850ntf    cn118860   1.655   2.764   5.000 -0.2412  0.4672  0.1846
 3850ntf    fn418861   1.619   2.296   5.151  0.2220  0.1866  0.2711
 3850ntf    fn418862   1.511   2.479   5.139  0.5453 -0.3474 -0.3280
 3850ntf    fn418863   1.679   2.448   5.013  0.2707 -0.4373 -0.7787
 3850ntf    on518864   1.667   2.479   5.390  0.3640 -0.0251  0.7451
 3850ntf    on518865   1.858   2.430   5.251 -0.2525 -0.0679  0.0145
 3850ntf    on518866   1.893   2.640   5.021 -0.5905 -0.4269 -0.1895
 3850ntf    on518867   1.845   2.855   5.131 -0.0734 -0.2946  0.2725
 3850ntf    fn418868   1.685   2.804   4.877 -1.0330 -0.3762 -0.2968
 3850ntf    fn418869   1.577   2.659   4.979  0.2131  0.0845  0.3864
 3850ntf    fn418870   1.577   2.859   5.049 -0.1230  0.5214  0.2688
 3851ntf    cn118871   2.183   5.962   2.524  0.1446  0.2894 -0.0159
 3851ntf    sn218872   2.209   5.788   2.477 -0.1667  0.0988  0.5080
 3851ntf    nn318873   2.060   5.739   2.479 -0.4879  1.0364  0.2419
 3851ntf    sn218874   1.972   5.659   2.582  0.1277  0.0681  0.0284
 3851ntf    cn118875   2.002   5.485   2.538 -0.2061  0.1635 -0.5706
 3851ntf    fn418876   2.301   6.021   2.525  0.2096  0.1647 -0.2021
 3851ntf    fn418877   2.118   6.025   2.429 -0.1098  0.2128  0.1061
 3851ntf    fn418878   2.116   5.983   2.636  0.0826  0.3114 -0.0570
 3851ntf    on518879   2.271   5.786   2.347  0.1900  0.7745  0.6649
 3851ntf    on518880   2.299   5.742   2.580  0.4829  0.2778  0.0271
 3851ntf    on518881   1.833   5.671   2.548  0.1257 -0.0091  0.0099
 3851ntf    on518882   2.015   5.668   2.720  0.1237 -0.4176  0.0641
 3851ntf    fn418883   2.132   5.470   2.515 -0.0969 -0.1332  0.2346
 3851ntf    fn418884   1.971   5.396   2.630  0.3369  0.1672 -0.3785
 3851ntf    fn418885   1.945   5.447   2.424 -0.1299 -0.4043 -0.4222
 3852ntf    cn118886   1.512   4.079   4.597  0.3054 -0.1021 -0.4828
 3852ntf    sn218887   1.653   4.177   4.659 -0.1641  0.3002 -0.0479
 3852ntf    nn318888   1.588   4.316   4.694  0.1690  0.4180  0.0979
 3852ntf    sn218889   1.531   4.426   4.598  0.1353 -0.1168 -0.5035
 3852ntf    cn118890   1.650   4.563   4.611  0.1993 -0.2072 -0.1385
 3852ntf    fn418891   1.545   3.958   4.556  0.0732 -0.1939 -0.3961
 3852ntf    fn418892   1.427   4.076   4.697 -0.1024 -0.2216 -0.8292
 3852ntf    fn418893   1.445   4.138   4.499 -0.2275  0.3141  0.1293
 3852ntf    on518894   1.690   4.110   4.781 -0.1972 -0.0183 -0.2120
 3852ntf    on518895   1.750   4.180   4.552 -0.0127 -0.4374  0.0647
 3852ntf    on518896   1.414   4.486   4.658  0.4342  0.4023 -0.4330
 3852ntf    on518897   1.518   4.391   4.459 -0.5522  0.2906 -0.5464
 3852ntf    fn418898   1.770   4.537   4.562  0.4217 -0.0464  0.3117
 3852ntf    fn418899   1.597   4.674   4.561  0.2985 -0.0963 -0.0008
 3852ntf    fn418900   1.669   4.599   4.737  0.1694  0.0870 -0.2155
 3853ntf    cn118901   2.092   4.836   2.895 -0.0284 -0.2532 -0.1739
 3853ntf    sn218902   2.273   4.814   2.886 -0.0022 -0.0917 -0.0323
 3853ntf    nn318903   2.298   4.698   2.989  0.0432 -0.0401  0.0148
 3853ntf    sn218904   2.421   4.602   3.003  0.0482 -0.0062  0.2199
 3853ntf    cn118905   2.355   4.462   2.907 -0.0270  0.0329  0.2150
 3853ntf    fn418906   2.057   4.945   2.960 -0.4235 -0.1861 -0.4980
 3853ntf    fn418907   2.044   4.836   2.772 -0.2594 -0.8075 -0.0883
 3853ntf    fn418908   2.039   4.728   2.949  0.3024 -0.1577  0.3495
 3853ntf    on518909   2.294   4.781   2.748 -0.3058 -0.0169 -0.0982
 3853ntf    on518910   2.323   4.942   2.929  0.0059 -0.0400 -0.1994
 3853ntf    on518911   2.437   4.557   3.139  0.4361  0.3670  0.3006
 3853ntf    on518912   2.544   4.640   2.936 -0.0526  0.5607  0.3526
 3853ntf    fn418913   2.301   4.492   2.791  0.2568  0.1887  0.1222
 3853ntf    fn418914   2.443   4.367   2.881  0.0113  0.2094 -0.2979
 3853ntf    fn418915   2.258   4.394   2.966  0.0264 -0.2413 -0.0147
 3854ntf    cn118916   1.189   6.021   0.226 -0.0791 -0.2080 -0.3266
 3854ntf    sn218917   1.060   6.073   0.342  0.4420 -0.0753  0.1938
 3854ntf    nn318918   1.129   6.056   0.482  0.3241 -0.6110  0.1867
 3854ntf    sn218919   1.239   6.138   0.557 -0.0746 -0.2353  0.3691
 3854ntf    cn118920   1.133   6.279   0.602  0.1416 -0.0850  0.4101
 3854ntf    fn418921   1.282   6.114   0.215  0.1442 -0.4428 -0.4439
 3854ntf    fn418922   1.257   5.915   0.265  0.3594  0.1191 -0.2042
 3854ntf    fn418923   1.138   5.998   0.105 -0.0144  0.2404 -0.4406
 3854ntf    on518924   1.033   6.212   0.311 -0.5903 -0.2602  0.2236
 3854ntf    on518925   0.958   5.973   0.323  0.3382 -0.0344  0.5223
 3854ntf    on518926   1.344   6.187   0.471 -0.1222 -0.5860  0.1098
 3854ntf    on518927   1.282   6.074   0.679 -0.1264  0.0304  0.5283
 3854ntf    fn418928   1.168   6.336   0.716 -0.3643  0.0593  0.4939
 3854ntf    fn418929   1.147   6.375   0.512  0.6474 -0.4789  0.0579
 3854ntf    fn418930   1.004   6.257   0.619  0.0269  0.1760 -0.1226
 3855ntf    cn118931   2.329   4.810   5.521  0.1471  0.1752  0.1655
 3855ntf    sn218932   2.465   4.694   5.487  0.2382  0.2733  0.1920
 3855ntf    nn318933   2.462   4.632   5.632 -0.9834 -0.0346  0.0471
 3855ntf    sn218934   2.421   4.486   5.670 -0.0331 -0.3169  0.0091
 3855ntf    cn118935   2.559   4.454   5.785 -0.0418 -0.0025  0.1069
 3855ntf    fn418936   2.295   4.872   5.410 -0.2232 -0.0116  0.1750
 3855ntf    fn418937   2.219   4.752   5.565  0.2136  0.3127  0.5243
 3855ntf    fn418938   2.364   4.913   5.597 -0.4757  0.6236 -0.1534
 3855ntf    on518939   2.411   4.610   5.383  0.2322  0.2776  0.1924
 3855ntf    on518940   2.580   4.773   5.453  0.3197 -0.1416 -0.5223
 3855ntf    on518941   2.446   4.379   5.576  0.2126 -0.2786  0.0293
 3855ntf    on518942   2.302   4.480   5.752 -0.2899 -0.1975 -0.3548
 3855ntf    fn418943   2.559   4.326   5.818  0.4823 -0.1549 -0.4674
 3855ntf    fn418944   2.674   4.485   5.728 -0.2277  0.5586  0.0259
 3855ntf    fn418945   2.547   4.529   5.894  0.4220  0.0425  0.1284
 3856ntf    cn118946   4.466   4.547   2.352  0.2029 -0.3532  0.4237
 3856ntf    sn218947   4.342   4.523   2.222  0.1545 -0.2925  0.4588
 3856ntf    nn318948   4.319   4.370   2.248 -0.2781 -0.2098  0.5898
 3856ntf    sn218949   4.223   4.275   2.168  0.1303  0.0152 -0.1749
 3856ntf    cn118950   4.261   4.102   2.208 -0.1505 -0.0520 -0.2030
 3856ntf    fn418951   4.499   4.673   2.371 -0.3364 -0.1143 -0.1906
 3856ntf    fn418952   4.435   4.511   2.476  0.0034  0.2770  0.5611
 3856ntf    fn418953   4.584   4.491   2.328  0.3936  0.1305  0.2243
 3856ntf    on518954   4.240   4.612   2.273  0.1104 -0.0525 -0.0384
 3856ntf    on518955   4.405   4.556   2.097 -0.6013 -0.2531  0.0791
 3856ntf    on518956   4.246   4.287   2.026 -0.8019 -0.0398 -0.3364
 3856ntf    on518957   4.086   4.287   2.209  0.1535 -0.7003  0.1223
 3856ntf    fn418958   4.185   4.012   2.148  0.3335 -0.5185 -0.1187
 3856ntf    fn418959   4.385   4.083   2.168  0.0942  0.2130  0.4138
 3856ntf    fn418960   4.288   4.072   2.334 -0.2187 -0.0124 -0.1786
 3857ntf    cn118961   5.017   3.294   3.452  0.0265  0.3194  0.3214
 3857ntf    sn218962   5.161   3.375   3.528  0.2083  0.1536  0.1556
 3857ntf    nn318963   5.119   3.525   3.506 -0.0697  0.0486 -0.0383
 3857ntf    sn218964   5.163   3.629   3.397  0.1912  0.1374  0.1492
 3857ntf    cn118965   5.188   3.786   3.485  0.4792  0.1051  0.1267
 3857ntf    fn418966   5.006   3.166   3.482 -0.1878  0.2416 -0.0812
 3857ntf    fn418967   4.905   3.354   3.489 -0.6770 -0.4772 -0.4820
 3857ntf    fn418968   5.014   3.310   3.321  0.2587 -0.1444  0.2575
 3857ntf    on518969   5.155   3.344   3.669 -0.0364 -0.2366  0.0614
 3857ntf    on518970   5.276   3.325   3.456  0.0275  0.2751 -0.2230
 3857ntf    on518971   5.055   3.661   3.306 -0.2650 -0.5107  0.4585
 3857ntf    on518972   5.287   3.604   3.328 -0.2837 -0.8810 -0.3510
 3857ntf    fn418973   5.311   3.791   3.532  0.5458  0.0398 -0.0421
 3857ntf    fn418974   5.181   3.886   3.399 -0.3799  0.1342  0.2164
 3857ntf    fn418975   5.104   3.806   3.585  0.4718 -0.3996  0.2254
 3858ntf    cn118976   2.581   6.557   2.269 -0.1530 -0.2438 -0.0068
 3858ntf    sn218977   2.445   6.492   2.167 -0.2943  0.0503 -0.0077
 3858ntf    nn318978   2.514   6.418   2.046 -0.3325  0.0492 -0.0286
 3858ntf    sn218979   2.540   6.478   1.903 -0.6260  0.1680 -0.0338
 3858ntf    cn118980   2.710   6.414   1.886 -0.5650  0.3071  0.0503
 3858ntf    fn418981   2.537   6.642   2.360  0.6689 -0.1487  0.3152
 3858ntf    fn418982   2.648   6.460   2.330  0.3307  0.1119  0.0313
 3858ntf    fn418983   2.668   6.622   2.194 -0.8460  0.7177  0.0069
 3858ntf    on518984   2.368   6.397   2.244  0.0404 -0.5165 -0.3639
 3858ntf    on518985   2.375   6.613   2.135 -0.4043  0.0131  0.0938
 3858ntf    on518986   2.552   6.620   1.886 -0.0422  0.1695  0.3534
 3858ntf    on518987   2.480   6.399   1.798  0.1038 -0.5677  0.0864
 3858ntf    fn418988   2.752   6.427   1.762  0.1048 -0.6704  0.1647
 3858ntf    fn418989   2.797   6.471   1.967  0.1444 -0.2646 -0.3033
 3858ntf    fn418990   2.711   6.285   1.914  0.1068  0.2460 -0.2460
 3859ntf    cn118991   4.829   3.961   0.547  0.5051 -0.1361 -0.3360
 3859ntf    sn218992   4.807   3.782   0.568 -0.1808  0.0141  0.2815
 3859ntf    nn318993   4.945   3.750   0.636  0.2059  0.4443 -0.2918
 3859ntf    sn218994   5.053   3.637   0.629 -0.3074 -0.0796  0.1760
 3859ntf    cn118995   5.186   3.739   0.558  0.1157 -0.4715  0.3966
 3859ntf    fn418996   4.713   4.023   0.527  0.3186 -0.1660  0.6032
 3859ntf    fn418997   4.885   4.024   0.649  0.4026 -0.2204 -0.2259
 3859ntf    fn418998   4.907   3.985   0.443  0.0685 -0.6537 -0.7892
 3859ntf    on518999   4.696   3.781   0.660  0.0322  0.6350  0.5474
 3859ntf    on519000   4.796   3.726   0.435  0.4505  0.4695  0.0326
 3859ntf    on519001   5.025   3.530   0.536  0.4203  0.1779 -0.3489
 3859ntf    on519002   5.100   3.602   0.760  0.0089  0.0531  0.0990
 3859ntf    fn419003   5.150   3.824   0.463 -0.3789 -0.0010  0.9985
 3859ntf    fn419004   5.242   3.807   0.656  0.0469  0.5526 -0.2553
 3859ntf    fn419005   5.281   3.661   0.510  0.2745 -0.2507  0.3566
 3860ntf    cn119006   0.959   1.603   4.412  0.4041  0.2390  0.2777
 3860ntf    sn219007   1.054   1.605   4.257 -0.2715  0.1463 -0.1422
 3860ntf    nn319008   1.012   1.739   4.187 -0.3897  0.3854  0.3828
 3860ntf    sn219009   1.085   1.877   4.196 -0.2067  0.3112  0.0671
 3860ntf    cn119010   1.003   1.955   4.339  0.0092  0.2978  0.1992
 3860ntf    fn419011   0.833   1.637   4.393  0.4567 -0.0902 -0.7402
 3860ntf    fn419012   0.957   1.480   4.461 -0.6253  0.0370 -0.2357
 3860ntf    fn419013   1.014   1.679   4.505  0.1726  0.0515  0.5682
 3860ntf    on519014   1.190   1.581   4.300 -0.2397  0.6299  0.0266
 3860ntf    on519015   0.992   1.498   4.183 -0.2981  0.3141 -0.3615
 3860ntf    on519016   1.042   1.961   4.087  0.2002  0.3585 -0.0609
 3860ntf    on519017   1.225   1.869   4.231 -0.2741  0.2242  0.3162
 3860ntf    fn419018   0.878   1.996   4.322  0.1910  0.6981 -0.2016
 3860ntf    fn419019   0.999   1.879   4.447  0.0244 -0.2770 -0.1980
 3860ntf    fn419020   1.077   2.061   4.365 -0.0296  0.3996 -0.1029
 3861ntf    cn119021   6.019   1.390   0.721  0.1191  0.2215 -0.3943
 3861ntf    sn219022   6.087   1.228   0.769  0.1639  0.2325 -0.4204
 3861ntf    nn319023   6.233   1.234   0.712  0.4567  0.5471  0.3567
 3861ntf    sn219024   6.357   1.139   0.731 -0.0430 -0.0999  0.4161
 3861ntf    cn119025   6.450   1.233   0.856  0.4775 -0.1511  0.0677
 3861ntf    fn419026   6.083   1.487   0.783  0.1697  0.1706 -0.3660
 3861ntf    fn419027   6.029   1.410   0.591  0.1093  0.1938 -0.3993
 3861ntf    fn419028   5.890   1.396   0.750  0.1894 -0.1000  0.0002
 3861ntf    on519029   6.070   1.234   0.912 -0.0791 -0.5551 -0.4065
 3861ntf    on519030   6.003   1.138   0.693 -0.3708  0.0515  0.3716
 3861ntf    on519031   6.445   1.138   0.617 -0.4965  0.4289  0.0548
 3861ntf    on519032   6.336   1.013   0.799  0.5300 -0.2137  0.3880
 3861ntf    fn419033   6.478   1.354   0.810 -0.2873  0.0364  0.0778
 3861ntf    fn419034   6.379   1.251   0.966  0.7195  0.0243  0.1942
 3861ntf    fn419035   6.562   1.173   0.891  0.7849  0.0768 -0.5069
 3862ntf    cn119036   1.428   4.388   3.741  0.1330  0.1484 -0.1042
 3862ntf    sn219037   1.298   4.380   3.614  0.0473  0.0434 -0.0117
 3862ntf    nn319038   1.282   4.224   3.602  0.5928 -0.0136 -0.0236
 3862ntf    sn219039   1.168   4.127   3.647  0.2824  0.3654  0.0141
 3862ntf    cn119040   1.269   3.992   3.715 -0.4207 -0.0777  0.1895
 3862ntf    fn419041   1.481   4.506   3.765  0.1111  0.1737 -0.1802
 3862ntf    fn419042   1.398   4.336   3.859  0.4079 -0.3755 -0.2615
 3862ntf    fn419043   1.529   4.309   3.709 -0.1823 -0.2220 -0.2035
 3862ntf    on519044   1.191   4.455   3.674  0.1066 -0.3089  0.5363
 3862ntf    on519045   1.374   4.437   3.505  0.0839  0.2095  0.1002
 3862ntf    on519046   1.097   4.076   3.532 -0.2494  0.4812  0.2875
 3862ntf    on519047   1.085   4.168   3.757 -0.1974 -0.0920 -0.1689
 3862ntf    fn419048   1.191   3.892   3.754 -0.2136 -0.4575 -0.3559
 3862ntf    fn419049   1.366   3.952   3.635 -0.2990 -0.1147  0.3559
 3862ntf    fn419050   1.328   4.033   3.826 -0.2608  0.3057 -0.0361
 3863ntf    cn119051   5.816   0.453   2.436 -0.3275  0.3092 -0.2330
 3863ntf    sn219052   5.777   0.552   2.583  0.4033  0.1054  0.1057
 3863ntf    nn319053   5.711   0.674   2.509 -0.4117 -0.0188  0.6040
 3863ntf    sn219054   5.700   0.821   2.564  0.1095  0.1879  0.1734
 3863ntf    cn119055   5.521   0.828   2.594  0.0540 -0.0147 -0.1078
 3863ntf    fn419056   5.885   0.506   2.337  0.4847 -0.0311  0.1446
 3863ntf    fn419057   5.888   0.346   2.468 -0.3205  0.3836 -0.0019
 3863ntf    fn419058   5.711   0.402   2.375 -0.4136 -0.4456  0.5234
 3863ntf    on519059   5.678   0.472   2.650  0.5812 -0.7051 -0.5888
 3863ntf    on519060   5.909   0.576   2.636  0.4198  0.1542  0.0434
 3863ntf    on519061   5.719   0.930   2.472 -0.1494  0.1737  0.1028
 3863ntf    on519062   5.753   0.842   2.697  0.1077  0.1486  0.1806
 3863ntf    fn419063   5.454   0.814   2.481  0.2645  0.3736 -0.2811
 3863ntf    fn419064   5.488   0.740   2.687  0.0414  0.7156  0.5933
 3863ntf    fn419065   5.480   0.945   2.642  0.1899  0.0160 -0.0657
 3864ntf    cn119066   4.156   4.946   6.267 -0.2347  0.1549 -0.0457
 3864ntf    sn219067   4.090   4.877   6.112  0.1068  0.3398 -0.2779
 3864ntf    nn319068   4.201   4.922   6.011  0.0689 -0.0945 -0.5135
 3864ntf    sn219069   4.187   4.969   5.862  0.4966  0.3444 -0.4188
 3864ntf    cn119070   4.201   5.146   5.897 -0.0005  0.3281 -0.1245
 3864ntf    fn419071   4.282   4.905   6.269 -0.4312 -0.4857 -0.4908
 3864ntf    fn419072   4.162   5.078   6.276 -0.0228  0.0998  0.6357
 3864ntf    fn419073   4.094   4.897   6.372 -0.5393  0.1184 -0.2424
 3864ntf    on519074   4.091   4.735   6.137  0.1695  0.3705 -0.1058
 3864ntf    on519075   3.961   4.941   6.106 -0.4459 -0.7016  0.1450
 3864ntf    on519076   4.059   4.953   5.798  0.3928  0.0604 -0.1432
 3864ntf    on519077   4.305   4.928   5.791  0.5612  0.2005 -0.2305
 3864ntf    fn419078   4.106   5.186   5.980 -0.2462 -0.5138 -0.0006
 3864ntf    fn419079   4.321   5.168   5.949 -0.0575 -0.1826  0.2295
 3864ntf    fn419080   4.186   5.229   5.794  0.0896  0.8021  0.2387
 3865ntf    cn119081   3.935   2.098   6.457 -0.0261  0.2002 -0.0193
 3865ntf    sn219082   3.794   2.177   6.374 -0.2906  0.0043  0.2422
 3865ntf    nn319083   3.696   2.198   6.494 -0.3474  0.0933  0.1815
 3865ntf    sn219084   3.565   2.116   6.525 -0.2630 -0.1004  0.0282
 3865ntf    cn119085   3.457   2.177   6.391  0.0359  0.2396 -0.0601
 3865ntf    fn419086   3.903   1.977   6.500 -0.8407  0.6193  0.5837
 3865ntf    fn419087   4.040   2.085   6.378 -0.3479  0.1289 -0.4388
 3865ntf    fn419088   3.968   2.173   6.561 -0.5075  0.1868  0.1455
 3865ntf    on519089   3.842   2.305   6.330 -0.1455 -0.0860  0.1362
 3865ntf    on519090   3.751   2.080   6.276  0.1861 -0.0954  0.1280
 3865ntf    on519091   3.507   2.172   6.645 -0.2120 -0.4293  0.2045
 3865ntf    on519092   3.576   1.973   6.520  0.0282 -0.1181  1.0517
 3865ntf    fn419093   3.331   2.142   6.411  0.1623 -0.2440 -0.0868
 3865ntf    fn419094   3.447   2.309   6.397  0.1763  0.2569 -0.2032
 3865ntf    fn419095   3.492   2.142   6.269  0.4617 -0.6172  0.3012
 3866ntf    cn119096   4.767   3.238   6.082  0.2051  0.5699  0.3362
 3866ntf    sn219097   4.840   3.129   6.208 -0.1525  0.0075  0.0618
 3866ntf    nn319098   4.864   3.000   6.122  0.5975  0.2476 -0.0998
 3866ntf    sn219099   4.984   2.955   6.032  0.3699 -0.0156 -0.2730
 3866ntf    cn119100   5.075   2.837   6.136 -0.0942 -0.2664 -0.1449
 3866ntf    fn419101   4.652   3.189   6.039  0.5251  0.0986  0.0151
 3866ntf    fn419102   4.733   3.354   6.136 -0.7622  0.4086  0.1059
 3866ntf    fn419103   4.847   3.263   5.980 -0.4804  0.2312 -0.2992
 3866ntf    on519104   4.963   3.193   6.248  0.3199 -0.4839 -0.5892
 3866ntf    on519105   4.735   3.099   6.302  0.3604 -0.4408  0.4970
 3866ntf    on519106   5.086   3.054   6.010  0.2168  0.1372 -0.3044
 3866ntf    on519107   4.952   2.872   5.919  0.5588 -0.0435 -0.3063
 3866ntf    fn419108   5.001   2.731   6.160 -0.7133  0.2100  0.0772
 3866ntf    fn419109   5.192   2.803   6.083 -0.2270 -0.2172 -0.4713
 3866ntf    fn419110   5.100   2.880   6.259  0.1531 -0.5102 -0.1101
 3867ntf    cn119111   1.189   0.216   5.830  0.2350  0.1091 -0.1365
 3867ntf    sn219112   1.176   0.340   5.698 -0.1903 -0.0456 -0.2431
 3867ntf    nn319113   1.113   0.258   5.580 -0.5542  0.4746 -0.4162
 3867ntf    sn219114   1.167   0.183   5.453 -0.2300 -0.0067  0.0012
 3867ntf    cn119115   1.128   0.287   5.309  0.3000  0.3718  0.1248
 3867ntf    fn419116   1.069   0.174   5.866  0.2467  0.0509 -0.1653
 3867ntf    fn419117   1.257   0.109   5.791  0.1614 -0.0179  0.0825
 3867ntf    fn419118   1.247   0.263   5.939 -0.7479 -0.2526  0.5538
 3867ntf    on519119   1.076   0.431   5.749  0.1738 -0.0495  0.4955
 3867ntf    on519120   1.312   0.385   5.684  0.0802 -0.7142  0.1799
 3867ntf    on519121   1.088   0.066   5.428 -0.7677  0.4146 -0.2822
 3867ntf    on519122   1.309   0.177   5.429 -0.2809 -0.0387 -0.3028
 3867ntf    fn419123   1.004   0.333   5.298  0.1268 -0.0731  0.1935
 3867ntf    fn419124   1.204   0.395   5.307  0.6100  0.1531 -0.2158
 3867ntf    fn419125   1.159   0.229   5.194 -1.0399  0.1684 -0.1531
 3868ntf    cn119126   5.749   4.283   2.689  0.0880 -0.1426  0.1196
 3868ntf    sn219127   5.921   4.336   2.667  0.0455 -0.1743 -0.3140
 3868ntf    nn319128   5.911   4.486   2.712  0.4707 -0.1149 -0.4113
 3868ntf    sn219129   5.881   4.613   2.623 -0.1863  0.0418  0.0275
 3868ntf    cn119130   5.755   4.687   2.732 -0.0262  0.0414  0.2134
 3868ntf    fn419131   5.725   4.160   2.733 -0.3494 -0.0749  0.0763
 3868ntf    fn419132   5.692   4.370   2.770 -0.1354  0.0187 -0.2053
 3868ntf    fn419133   5.679   4.298   2.577 -0.0652 -0.3106  0.1916
 3868ntf    on519134   5.988   4.250   2.761 -0.5277  0.0859  0.3460
 3868ntf    on519135   5.952   4.307   2.529 -0.6858 -0.1414 -0.4883
 3868ntf    on519136   5.806   4.602   2.501 -0.0269  0.6611 -0.1246
 3868ntf    on519137   5.991   4.705   2.625 -0.2725  0.1400  0.3811
 3868ntf    fn419138   5.705   4.797   2.678  0.3286  0.0722 -0.0580
 3868ntf    fn419139   5.656   4.600   2.736 -0.3533  0.4285  0.5311
 3868ntf    fn419140   5.797   4.709   2.855  0.8201 -0.3602  0.0074
 3869ntf    cn119141   6.744   3.031   7.005 -0.1036 -0.2406 -0.2934
 3869ntf    sn219142   6.684   3.012   6.834 -0.3322 -0.3936 -0.1957
 3869ntf    nn319143   6.786   3.091   6.746 -0.3910  0.2281  0.2861
 3869ntf    sn219144   6.787   3.242   6.704 -0.0451  0.0984 -0.1865
 3869ntf    cn119145   6.721   3.229   6.535 -0.3304  0.0528 -0.0710
 3869ntf    fn419146   6.722   3.154   7.049  0.7010 -0.1095 -0.2466
 3869ntf    fn419147   6.690   2.946   7.090  0.1889  0.1978  0.3382
 3869ntf    fn419148   6.874   3.012   7.016 -0.1682 -0.3637  0.2642
 3869ntf    on519149   6.696   2.869   6.817  0.3657 -0.4570  0.6988
 3869ntf    on519150   6.550   3.063   6.826 -0.1156  0.0920 -0.7581
 3869ntf    on519151   6.920   3.294   6.683 -0.0794  0.4246  0.3664
 3869ntf    on519152   6.695   3.334   6.766  0.0408  0.3092 -0.3686
 3869ntf    fn419153   6.790   3.149   6.456 -0.7349 -0.5438  0.1662
 3869ntf    fn419154   6.592   3.198   6.539 -0.2884 -0.1114  0.0376
 3869ntf    fn419155   6.723   3.346   6.474 -0.1024 -0.0874 -0.3309
 3870ntf    cn119156   5.122   0.301   0.873 -0.3102 -0.0839 -0.0931
 3870ntf    sn219157   5.298   0.318   0.830 -0.3122  0.1655 -0.0053
 3870ntf    nn319158   5.369   0.236   0.943 -0.5419  0.4216  0.3325
 3870ntf    sn219159   5.405   0.083   0.945 -0.3967  0.4553  0.3179
 3870ntf    cn119160   5.566   0.095   0.861 -0.6531  0.3338 -0.1973
 3870ntf    fn419161   5.108   0.326   1.003  0.0584  0.2262 -0.1104
 3870ntf    fn419162   5.046   0.386   0.806  0.0296  0.2109 -0.1091
 3870ntf    fn419163   5.067   0.182   0.861 -0.0397 -0.2352  0.1646
 3870ntf    on519164   5.299   0.271   0.694  0.4472  0.2441 -0.0281
 3870ntf    on519165   5.321   0.461   0.838 -0.2197  0.1742 -0.4351
 3870ntf    on519166   5.329  -0.005   0.859  0.3846 -0.1068  0.1890
 3870ntf    on519167   5.438   0.024   1.073  0.6894 -0.2377 -0.2594
 3870ntf    fn419168   5.648   0.155   0.946 -0.7816  0.3502 -0.0846
 3870ntf    fn419169   5.623  -0.018   0.823 -0.3398  0.5047 -0.2418
 3870ntf    fn419170   5.562   0.165   0.749 -0.0257 -0.4725 -0.7347
 3871ntf    cn119171   6.893   4.445   2.112 -0.1385  0.1120 -0.1754
 3871ntf    sn219172   6.732   4.385   2.170 -0.0861 -0.0778 -0.2238
 3871ntf    nn319173   6.636   4.445   2.061 -0.2742  0.0028 -0.0153
 3871ntf    sn219174   6.546   4.381   1.949  0.0265 -0.2324 -0.1232
 3871ntf    cn119175   6.658   4.409   1.808 -0.2758  0.2081 -0.2781
 3871ntf    fn419176   6.953   4.365   2.025  0.1798  0.3637 -0.1885
 3871ntf    fn419177   6.892   4.558   2.042  0.1304  0.3982  0.2772
 3871ntf    fn419178   6.977   4.464   2.211  0.0777 -0.2097 -0.2953
 3871ntf    on519179   6.747   4.242   2.164  0.0469 -0.0481 -0.6116
 3871ntf    on519180   6.701   4.443   2.299  0.5110  0.0121 -0.1183
 3871ntf    on519181   6.432   4.464   1.922  0.0203 -0.2171 -0.0493
 3871ntf    on519182   6.528   4.239   1.967 -0.8898 -0.0543  0.4389
 3871ntf    fn419183   6.759   4.323   1.811 -0.5048 -0.0485  0.2874
 3871ntf    fn419184   6.603   4.408   1.688  0.4215  0.5558 -0.6049
 3871ntf    fn419185   6.717   4.527   1.817  0.4238 -0.1436 -0.1724
 3872ntf    cn119186   3.077   6.537   4.434 -0.5145  0.1804  0.1144
 3872ntf    sn219187   3.149   6.479   4.277  0.1042 -0.0590  0.4817
 3872ntf    nn319188   3.303   6.490   4.306  0.1586  0.2875  0.0680
 3872ntf    sn219189   3.415   6.580   4.244  0.4542 -0.0424  0.1159
 3872ntf    cn119190   3.478   6.491   4.099 -0.0122 -0.0516 -0.0839
 3872ntf    fn419191   2.946   6.551   4.432 -0.5204  0.1922  0.4368
 3872ntf    fn419192   3.108   6.459   4.537 -0.0441  0.2170  0.0053
 3872ntf    fn419193   3.123   6.658   4.461 -0.3277  0.1200  0.0691
 3872ntf    on519194   3.097   6.344   4.266 -0.4322  0.1803  0.0603
 3872ntf    on519195   3.100   6.577   4.184 -0.0347 -0.4450  0.1482
 3872ntf    on519196   3.528   6.588   4.333  0.1853 -0.5253  0.5029
 3872ntf    on519197   3.375   6.705   4.184  0.2841 -0.0340  0.2474
 3872ntf    fn419198   3.533   6.383   4.153  0.5960  0.1898 -0.2127
 3872ntf    fn419199   3.391   6.437   4.016 -0.2030  0.0850  0.0280
 3872ntf    fn419200   3.581   6.553   4.044  0.3053  0.1180  0.6833
 3873ntf    cn119201   7.044   5.653   0.934 -0.0271  0.0620  0.0075
 3873ntf    sn219202   7.013   5.765   1.074  0.0139  0.2720 -0.1493
 3873ntf    nn319203   6.907   5.666   1.134 -0.1838  0.2184 -0.5883
 3873ntf    sn219204   6.765   5.690   1.197  0.0900 -0.0151  0.1181
 3873ntf    cn119205   6.655   5.621   1.070  0.2409 -0.4920  0.2412
 3873ntf    fn419206   6.934   5.635   0.861  0.2892  0.3348 -0.5449
 3873ntf    fn419207   7.134   5.698   0.848  0.3070 -0.1592  0.2407
 3873ntf    fn419208   7.078   5.530   0.967 -0.1055  0.0831  0.1660
 3873ntf    on519209   7.142   5.775   1.138 -0.1978 -0.7229  0.4517
 3873ntf    on519210   6.976   5.883   1.001 -1.1457  0.4280  0.6666
 3873ntf    on519211   6.722   5.826   1.215 -0.2643 -0.2114  0.8217
 3873ntf    on519212   6.732   5.600   1.305  0.4336 -0.2067  0.0655
 3873ntf    fn419213   6.534   5.650   1.115  0.0056 -0.3199 -0.4836
 3873ntf    fn419214   6.670   5.697   0.962 -0.1577 -0.5568  0.1393
 3873ntf    fn419215   6.671   5.496   1.031 -0.0403 -0.3027 -0.4986
 3874ntf    cn119216   3.233   5.594   1.815 -0.2506 -0.0973  0.0163
 3874ntf    sn219217   3.299   5.547   1.977  0.1334 -0.0730 -0.1332
 3874ntf    nn319218   3.206   5.625   2.076  0.2721  0.1525 -0.1820
 3874ntf    sn219219   3.225   5.641   2.231  0.0042 -0.0125 -0.1325
 3874ntf    cn119220   3.273   5.817   2.231 -0.1764  0.0382 -0.0081
 3874ntf    fn419221   3.101   5.581   1.807 -0.2862  0.1246  0.2289
 3874ntf    fn419222   3.263   5.718   1.782  0.1813 -0.1452  0.2192
 3874ntf    fn419223   3.281   5.510   1.724 -0.6838 -0.2812 -0.0468
 3874ntf    on519224   3.262   5.408   1.975 -0.1434  0.0059 -0.4379
 3874ntf    on519225   3.437   5.590   1.977  0.0125  0.3238  0.5156
 3874ntf    on519226   3.342   5.582   2.291  0.1071  0.7085  0.3929
 3874ntf    on519227   3.103   5.633   2.308  0.3824 -0.3741  0.4344
 3874ntf    fn419228   3.164   5.891   2.216 -0.6040 -0.4735  0.5042
 3874ntf    fn419229   3.315   5.856   2.350 -0.3708  0.4260 -0.0652
 3874ntf    fn419230   3.359   5.843   2.134 -0.3937 -0.9312 -0.4737
 3875ntf    cn119231   4.076   1.215   2.207 -0.0437  0.0331 -0.3941
 3875ntf    sn219232   4.167   1.309   2.081 -0.1378 -0.0390 -0.5162
 3875ntf    nn319233   4.289   1.366   2.163 -0.5859  0.4562 -0.1885
 3875ntf    sn219234   4.380   1.489   2.129  0.2300 -0.0623  0.1095
 3875ntf    cn119235   4.279   1.613   2.215 -0.4312 -0.5299  0.0163
 3875ntf    fn419236   4.055   1.284   2.319  0.0573 -0.3086 -0.1628
 3875ntf    fn419237   3.953   1.185   2.168 -0.0458 -0.3835 -0.0759
 3875ntf    fn419238   4.134   1.103   2.247  0.1253  0.3579  0.2971
 3875ntf    on519239   4.207   1.198   1.998  0.5324 -0.1923  0.0024
 3875ntf    on519240   4.068   1.400   2.030 -0.1778 -0.1429 -0.6249
 3875ntf    on519241   4.381   1.519   1.988  0.8313 -0.9157 -0.0793
 3875ntf    on519242   4.504   1.462   2.198 -0.1504 -0.5254  0.6275
 3875ntf    fn419243   4.252   1.579   2.340 -0.4244  0.1714  0.2101
 3875ntf    fn419244   4.356   1.720   2.205 -0.3911 -0.5142  0.4570
 3875ntf    fn419245   4.161   1.640   2.162 -0.5720 -1.3542 -0.1008
 3876ntf    cn119246   4.717   2.971   0.491  0.4236 -0.0457 -0.4299
 3876ntf    sn219247   4.627   2.961   0.333 -0.1994  0.1022 -0.0913
 3876ntf    nn319248   4.545   2.834   0.374 -0.0723  0.0992  0.1598
 3876ntf    sn219249   4.390   2.813   0.356 -0.0247 -0.0749 -0.0600
 3876ntf    cn119250   4.356   2.723   0.511 -0.3337  0.1499  0.0015
 3876ntf    fn419251   4.635   3.003   0.590 -0.0804  0.0690 -0.8789
 3876ntf    fn419252   4.786   2.864   0.527  0.2176  0.0876  0.3805
 3876ntf    fn419253   4.807   3.068   0.487 -0.0915  0.4826  0.4209
 3876ntf    on519254   4.555   3.086   0.331  0.0091  0.2388  0.6172
 3876ntf    on519255   4.729   2.939   0.233 -0.1398  0.3140 -0.0780
 3876ntf    on519256   4.350   2.724   0.250 -0.1248 -0.0989 -0.0016
 3876ntf    on519257   4.310   2.933   0.361 -0.9295 -0.6803  0.2281
 3876ntf    fn419258   4.226   2.725   0.535 -0.2854 -0.2223  0.2913
 3876ntf    fn419259   4.401   2.599   0.518 -0.8767 -0.0500  0.0704
 3876ntf    fn419260   4.400   2.784   0.620  0.1554  0.0584 -0.1426
 3877ntf    cn119261   1.720   2.431   7.037 -0.1459  0.0168  0.1958
 3877ntf    sn219262   1.672   2.585   6.952 -0.0290 -0.1354 -0.1504
 3877ntf    nn319263   1.523   2.605   6.997  0.0783  0.1583  0.0784
 3877ntf    sn219264   1.401   2.537   6.925  0.2353 -0.0618  0.0198
 3877ntf    cn119265   1.361   2.659   6.796 -0.5135 -0.1888  0.1291
 3877ntf    fn419266   1.851   2.416   7.027 -0.1783  0.1355 -0.4772
 3877ntf    fn419267   1.699   2.423   7.167  0.3341 -0.5441  0.2417
 3877ntf    fn419268   1.661   2.323   6.988 -1.0163  0.6291 -0.1434
 3877ntf    on519269   1.753   2.691   7.010 -0.0663 -0.0566 -0.2427
 3877ntf    on519270   1.696   2.558   6.813  0.3887 -0.2314 -0.0622
 3877ntf    on519271   1.284   2.550   7.008 -0.0223 -0.2510 -0.3170
 3877ntf    on519272   1.426   2.413   6.857 -0.3073 -0.5345  0.6641
 3877ntf    fn419273   1.328   2.779   6.841  0.2694  0.2634 -0.4822
 3877ntf    fn419274   1.466   2.679   6.719 -0.7179  0.1191 -0.0708
 3877ntf    fn419275   1.265   2.624   6.713  0.1544 -0.0086 -0.7282
 3878ntf    cn119276   4.450   7.213   1.101  0.1014  0.1630  0.2776
 3878ntf    sn219277   4.397   7.305   0.954  0.2642 -0.1873 -0.0002
 3878ntf    nn319278   4.429   7.455   0.988 -0.6049  0.1164 -0.4682
 3878ntf    sn219279   4.556   7.538   0.946 -0.2791 -0.1278  0.0150
 3878ntf    cn119280   4.495   7.613   0.791  0.1095  0.4498  0.1376
 3878ntf    fn419281   4.404   7.269   1.212  0.6883  0.7555  0.2286
 3878ntf    fn419282   4.419   7.085   1.093  0.1724  0.1674 -0.0767
 3878ntf    fn419283   4.582   7.217   1.111  0.1220  0.4019 -0.0687
 3878ntf    on519284   4.472   7.244   0.847  0.4446 -0.9596  0.5629
 3878ntf    on519285   4.255   7.280   0.948  0.2905 -0.3577  0.0869
 3878ntf    on519286   4.675   7.470   0.903 -0.4088 -0.3918  0.0692
 3878ntf    on519287   4.583   7.652   1.030 -0.0723 -0.3832  0.2941
 3878ntf    fn419288   4.591   7.654   0.710 -0.1120  0.2562 -0.2261
 3878ntf    fn419289   4.415   7.526   0.731 -0.1382  0.4010  0.5304
 3878ntf    fn419290   4.413   7.715   0.810 -0.2399  0.2536 -0.2846
 3879ntf    cn119291   1.063   1.250   1.694 -0.3499  0.0123  0.2162
 3879ntf    sn219292   1.195   1.271   1.817 -0.3319  0.4506  0.1235
 3879ntf    nn319293   1.216   1.426   1.808 -0.0630  0.3802 -0.5157
 3879ntf    sn219294   1.167   1.548   1.893 -0.2053 -0.0750  0.0582
 3879ntf    cn119295   1.073   1.640   1.767 -0.4200  0.1184  0.3566
 3879ntf    fn419296   1.099   1.306   1.580 -0.2747 -0.0879  0.1906
 3879ntf    fn419297   1.029   1.126   1.662  0.5770 -0.2070  0.0576
 3879ntf    fn419298   0.949   1.311   1.724  0.0799  0.6342  0.6014
 3879ntf    on519299   1.146   1.213   1.940  0.2663  0.1646  0.2331
 3879ntf    on519300   1.304   1.204   1.749 -0.4929 -0.1114  0.4128
 3879ntf    on519301   1.271   1.642   1.928  0.1143 -0.5740  0.4539
 3879ntf    on519302   1.066   1.525   1.993  0.1888 -0.1988  0.4298
 3879ntf    fn419303   1.155   1.696   1.679 -0.0725 -0.2629  0.4326
 3879ntf    fn419304   0.999   1.559   1.693 -0.0437 -0.0442  0.1564
 3879ntf    fn419305   0.992   1.738   1.804 -0.2711  0.1433  0.6183
 3880ntf    cn119306   5.486   0.211   5.450  0.2983  0.1251 -0.3447
 3880ntf    sn219307   5.604   0.089   5.385  0.3321  0.0353 -0.1124
 3880ntf    nn319308   5.569   0.104   5.233 -0.5025  0.3541  0.1036
 3880ntf    sn219309   5.440   0.056   5.157 -0.0899 -0.1927 -0.2577
 3880ntf    cn119310   5.379   0.212   5.087 -0.0326 -0.1300 -0.1683
 3880ntf    fn419311   5.491   0.327   5.386  0.2940  0.0999 -0.3908
 3880ntf    fn419312   5.361   0.169   5.439  0.5168 -0.4937 -0.4911
 3880ntf    fn419313   5.506   0.237   5.578  0.3391 -0.0486 -0.3154
 3880ntf    on519314   5.732   0.145   5.420  0.1699  0.2099  0.2092
 3880ntf    on519315   5.562  -0.035   5.445 -0.1330  0.3048  0.1252
 3880ntf    on519316   5.332   0.008   5.239  0.5255 -0.2155  0.5505
 3880ntf    on519317   5.468  -0.027   5.042 -0.3490 -0.3433 -0.2117
 3880ntf    fn419318   5.327   0.278   5.189  0.2359  0.6588 -0.5385
 3880ntf    fn419319   5.477   0.285   5.037 -0.1551  0.0293 -0.1771
 3880ntf    fn419320   5.286   0.203   4.993 -0.0661  0.5716 -0.2050
 3881ntf    cn119321   0.662   5.343   2.486  0.0156 -0.0056  0.1615
 3881ntf    sn219322   0.827   5.315   2.557  0.0147  0.1033  0.2068
 3881ntf    nn319323   0.816   5.169   2.615  0.3971  0.2299  0.6004
 3881ntf    sn219324   0.938   5.081   2.659  0.1451 -0.2059  0.4252
 3881ntf    cn119325   0.977   5.139   2.827  0.2355 -0.1036  0.3686
 3881ntf    fn419326   0.565   5.298   2.563 -0.4485 -0.0306 -0.4330
 3881ntf    fn419327   0.641   5.472   2.469  0.3211  0.0231 -0.0065
 3881ntf    fn419328   0.642   5.288   2.367  0.3501 -0.5884  0.3673
 3881ntf    on519329   0.909   5.331   2.439  0.0581 -0.1622  0.1999
 3881ntf    on519330   0.842   5.406   2.667  0.3750  0.2395  0.0496
 3881ntf    on519331   1.057   5.103   2.582 -0.2116  0.1460 -0.0309
 3881ntf    on519332   0.907   4.941   2.680 -0.7179 -0.1065 -0.1233
 3881ntf    fn419333   1.032   5.259   2.832  0.2058 -0.0846  0.2279
 3881ntf    fn419334   0.865   5.139   2.898 -0.2474  0.0897 -0.3748
 3881ntf    fn419335   1.061   5.059   2.891  0.5353 -0.1653 -0.0947
 3882ntf    cn119336   3.808   1.103   0.330 -0.4132  0.2246 -0.1813
 3882ntf    sn219337   3.775   1.070   0.154  0.0775 -0.1229 -0.2103
 3882ntf    nn319338   3.920   1.024   0.112  0.1691 -0.1081  0.0899
 3882ntf    sn219339   3.989   0.885   0.097  0.3549 -0.0143  0.0735
 3882ntf    cn119340   4.136   0.892   0.204  0.1642 -0.2119  0.3533
 3882ntf    fn419341   3.894   1.201   0.352 -0.5012  0.3476 -0.3797
 3882ntf    fn419342   3.700   1.128   0.402 -0.2030  0.4245  0.0657
 3882ntf    fn419343   3.859   0.993   0.382 -0.4546  0.1073 -0.3848
 3882ntf    on519344   3.677   0.965   0.152  0.0698 -0.1177 -0.1244
 3882ntf    on519345   3.734   1.199   0.104  0.3155 -0.0501 -0.2192
 3882ntf    on519346   4.046   0.860  -0.033 -0.2192 -0.5324 -0.0834
 3882ntf    on519347   3.920   0.770   0.151  0.6335 -0.4923 -0.5658
 3882ntf    fn419348   4.200   1.005   0.176  0.0038 -0.1311  0.3093
 3882ntf    fn419349   4.110   0.886   0.333 -0.0042 -0.0692  0.3270
 3882ntf    fn419350   4.216   0.790   0.180 -0.4803 -0.7331  0.4019
 3883ntf    cn119351   5.903   5.208   3.941  0.0042 -0.4403 -0.4074
 3883ntf    sn219352   5.992   5.051   3.916  0.4124 -0.3123  0.2170
 3883ntf    nn319353   5.956   4.984   4.054 -0.5836 -0.7974 -0.2642
 3883ntf    sn219354   6.053   4.927   4.163 -0.2591  0.1887 -0.0205
 3883ntf    cn119355   6.080   5.056   4.288  0.2310  0.1059 -0.0386
 3883ntf    fn419356   5.896   5.280   3.830 -0.1738  0.0921 -0.0542
 3883ntf    fn419357   5.776   5.188   3.971  0.1022 -0.2491  0.1565
 3883ntf    fn419358   5.954   5.290   4.032 -0.3283 -0.0013 -0.6143
 3883ntf    on519359   5.926   4.988   3.804  0.0039 -0.2367  0.4136
 3883ntf    on519360   6.125   5.101   3.896 -0.0650  0.7897 -0.2804
 3883ntf    on519361   6.183   4.898   4.109 -0.2558  0.1903 -0.0133
 3883ntf    on519362   5.990   4.822   4.239 -0.2791  0.0698 -0.2018
 3883ntf    fn419363   6.080   5.175   4.230  0.0333  0.4465  0.6449
 3883ntf    fn419364   5.985   5.058   4.380 -0.1407  0.0062 -0.4153
 3883ntf    fn419365   6.199   5.046   4.344  0.1208 -0.4233  0.1064
 3884ntf    cn119366   4.910   6.822   4.155 -0.2967  0.1212  0.0270
 3884ntf    sn219367   5.074   6.769   4.215 -0.2791  0.1035 -0.0361
 3884ntf    nn319368   5.028   6.686   4.340 -0.3051 -0.0027 -0.1157
 3884ntf    sn219369   4.972   6.539   4.338 -0.1407 -0.0622 -0.7205
 3884ntf    cn119370   4.905   6.547   4.507  0.6880  0.5777 -0.4108
 3884ntf    fn419371   4.833   6.856   4.257 -0.1171  0.6110  0.0012
 3884ntf    fn419372   4.922   6.933   4.085  0.2073  0.4730  0.6590
 3884ntf    fn419373   4.844   6.736   4.080 -0.2208  0.3208 -0.2675
 3884ntf    on519374   5.127   6.686   4.109  0.7451  0.1953  0.3974
 3884ntf    on519375   5.141   6.893   4.246  0.3063 -0.2690  0.1996
 3884ntf    on519376   5.080   6.445   4.348  0.1651  0.3492 -0.0176
 3884ntf    on519377   4.860   6.503   4.255 -0.3823  0.5612 -0.6777
 3884ntf    fn419378   4.836   6.438   4.537  0.7206  0.6418 -0.0929
 3884ntf    fn419379   4.993   6.535   4.605  0.4792 -0.0577 -0.2922
 3884ntf    fn419380   4.819   6.647   4.520  0.1513 -0.0141  0.7833
 3885ntf    cn119381   7.040   3.874   6.357 -0.3279  0.4480  0.0943
 3885ntf    sn219382   6.897   3.965   6.422 -0.5313  0.0552  0.1954
 3885ntf    nn319383   6.790   3.850   6.419 -0.1568 -0.2905 -0.0530
 3885ntf    sn219384   6.708   3.791   6.540 -0.1859 -0.1316  0.0048
 3885ntf    cn119385   6.621   3.943   6.589 -0.0564 -0.0620  0.0199
 3885ntf    fn419386   7.098   3.806   6.455  0.0963  0.7126  0.0339
 3885ntf    fn419387   7.017   3.785   6.262  0.0906  0.1786  0.2455
 3885ntf    fn419388   7.133   3.956   6.310  0.1758  0.0918  0.4477
 3885ntf    on519389   6.938   4.010   6.553 -0.5105 -0.4765  0.3771
 3885ntf    on519390   6.885   4.069   6.323 -0.6161  0.1741  0.3294
 3885ntf    on519391   6.788   3.745   6.651  0.4702  0.7519 -0.0878
 3885ntf    on519392   6.601   3.705   6.497  0.5112 -0.8305 -0.3553
 3885ntf    fn419393   6.696   4.050   6.606 -0.1763 -0.0556  0.5382
 3885ntf    fn419394   6.531   3.989   6.504  0.2099 -0.0295 -0.2446
 3885ntf    fn419395   6.564   3.921   6.707 -1.1704  0.1344 -0.4703
 3886ntf    cn119396   2.917   1.962   4.154  0.1415 -0.1947  0.3408
 3886ntf    sn219397   2.833   1.912   4.307 -0.4335  0.1166  0.1322
 3886ntf    nn319398   2.740   1.798   4.253 -0.3679  0.2339 -0.2319
 3886ntf    sn219399   2.790   1.651   4.228 -0.1489  0.1828  0.4747
 3886ntf    cn119400   2.776   1.591   4.399  0.0180  0.2767  0.5210
 3886ntf    fn419401   2.988   2.074   4.155 -0.3305  0.1448 -1.2064
 3886ntf    fn419402   3.004   1.870   4.117 -0.3862 -0.4354 -0.3398
 3886ntf    fn419403   2.834   1.983   4.052 -0.1013  0.3696  0.6511
 3886ntf    on519404   2.942   1.882   4.397 -0.1932 -0.0076 -0.1998
 3886ntf    on519405   2.756   2.026   4.352 -0.5559 -0.0298  0.2940
 3886ntf    on519406   2.927   1.629   4.187 -0.1327  0.5106  0.3458
 3886ntf    on519407   2.694   1.568   4.159  0.2627  0.3860 -0.3543
 3886ntf    fn419408   2.673   1.649   4.458 -0.4151  0.9862 -0.8931
 3886ntf    fn419409   2.748   1.463   4.413  0.2011  0.1838  0.0687
 3886ntf    fn419410   2.883   1.619   4.472  0.6214 -0.2756 -0.1341
 3887ntf    cn119411   7.017   0.607   2.219  0.0593 -0.4060  0.5537
 3887ntf    sn219412   7.140   0.560   2.094 -0.2347  0.3312 -0.0200
 3887ntf    nn319413   7.122   0.674   1.988  0.0413  0.4860  0.0999
 3887ntf    sn219414   7.033   0.677   1.858 -0.3624 -0.4265  0.3486
 3887ntf    cn119415   7.158   0.637   1.732 -0.0221  0.2103  0.4775
 3887ntf    fn419416   7.023   0.533   2.328 -0.2928  0.0688  0.9034
 3887ntf    fn419417   7.039   0.732   2.257 -0.0003 -0.1548 -0.2197
 3887ntf    fn419418   6.894   0.598   2.172  0.2939  0.1575 -0.1824
 3887ntf    on519419   7.268   0.578   2.156 -0.2193 -0.0050  0.0490
 3887ntf    on519420   7.102   0.425   2.059  0.3887  0.0776  0.2796
 3887ntf    on519421   6.994   0.813   1.832 -0.2222 -0.3236  0.6781
 3887ntf    on519422   6.940   0.568   1.842 -0.6144 -0.1199 -0.3044
 3887ntf    fn419423   7.171   0.505   1.722  0.5931  0.3432 -0.5048
 3887ntf    fn419424   7.129   0.687   1.614  0.4683  0.0065  0.2667
 3887ntf    fn419425   7.282   0.676   1.757 -0.3227  0.9855  0.7903
 3888ntf    cn119426   7.174   4.415   0.765 -0.0701 -0.1966  0.1173
 3888ntf    sn219427   7.109   4.366   0.603  0.0317  0.1140 -0.0189
 3888ntf    nn319428   7.210   4.436   0.505  0.2824  0.3042  0.3750
 3888ntf    sn219429   7.237   4.588   0.479  0.0112  0.3001  0.0686
 3888ntf    cn119430   7.245   4.587   0.297 -0.0471 -0.2928  0.0674
 3888ntf    fn419431   7.169   4.548   0.768 -0.3136 -0.2054  0.1444
 3888ntf    fn419432   7.097   4.377   0.865 -0.0274  0.4817  0.4167
 3888ntf    fn419433   7.293   4.373   0.806 -0.4223 -0.6823  0.6463
 3888ntf    on519434   7.112   4.222   0.597  0.1120  0.1356 -0.5502
 3888ntf    on519435   6.973   4.414   0.602 -0.1189 -0.3060  0.0577
 3888ntf    on519436   7.373   4.622   0.514  0.2729 -0.0887 -0.5507
 3888ntf    on519437   7.127   4.674   0.514 -0.2704 -0.0610  0.0777
 3888ntf    fn419438   7.258   4.711   0.252 -0.1031 -0.4227 -0.3056
 3888ntf    fn419439   7.354   4.528   0.252  0.0034 -0.2682  0.1554
 3888ntf    fn419440   7.141   4.533   0.236 -0.5611  0.3479  0.3619
 3889ntf    cn119441   7.247   6.751   6.029  0.4188 -0.1692 -0.1353
 3889ntf    sn219442   7.421   6.732   6.080  0.3740 -0.1520  0.0265
 3889ntf    nn319443   7.489   6.683   5.947 -0.1072  0.2751 -0.3855
 3889ntf    sn219444   7.514   6.538   5.893  0.1524  0.0901  0.2168
 3889ntf    cn119445   7.683   6.491   5.939  0.0029 -0.2576  0.4150
 3889ntf    fn419446   7.190   6.638   5.990  0.5758 -0.3218  0.0762
 3889ntf    fn419447   7.172   6.814   6.118  0.1854 -0.1416 -0.3516
 3889ntf    fn419448   7.238   6.819   5.916  0.2147 -0.4487 -0.2892
 3889ntf    on519449   7.475   6.865   6.097  0.1660 -0.0547 -0.0683
 3889ntf    on519450   7.416   6.639   6.190  0.2873 -0.5017 -0.2711
 3889ntf    on519451   7.522   6.531   5.749 -0.0873 -0.1508  0.2127
 3889ntf    on519452   7.430   6.444   5.963  0.1077  0.2145  0.3299
 3889ntf    fn419453   7.720   6.369   5.902  0.6210  0.1633 -0.3703
 3889ntf    fn419454   7.757   6.578   5.873 -0.2544  0.0425  0.5216
 3889ntf    fn419455   7.726   6.509   6.063 -0.0052  0.2854  0.3429
 3890ntf    cn119456   5.070   2.267   6.864 -0.6049 -0.1230 -0.2009
 3890ntf    sn219457   4.901   2.309   6.918 -0.5121  0.0182 -0.0208
 3890ntf    nn319458   4.846   2.374   6.786  0.3331 -0.3274 -0.5540
 3890ntf    sn219459   4.710   2.345   6.713 -0.0255  0.3315 -0.1617
 3890ntf    cn119460   4.764   2.220   6.593  0.2677  0.4076 -0.1121
 3890ntf    fn419461   5.064   2.199   6.751 -0.1232 -0.0648 -0.2640
 3890ntf    fn419462   5.145   2.374   6.841 -0.3035 -0.2209  0.3132
 3890ntf    fn419463   5.147   2.197   6.945  0.0755 -0.2405 -0.9376
 3890ntf    on519464   4.840   2.182   6.947 -0.1214 -0.1607  0.0267
 3890ntf    on519465   4.914   2.398   7.031 -0.7569  0.0327 -0.0048
 3890ntf    on519466   4.674   2.459   6.634 -0.7811  0.2295  0.0280
 3890ntf    on519467   4.607   2.282   6.792  0.4146 -0.0261  0.1398
 3890ntf    fn419468   4.821   2.118   6.655  0.1327  0.1363 -0.4248
 3890ntf    fn419469   4.660   2.174   6.523  0.0489  0.6375  0.0597
 3890ntf    fn419470   4.846   2.257   6.497 -0.0633 -0.3838 -0.7230
 3891ntf    cn119471   2.327   6.268   5.071  0.2878 -0.3079  0.3185
 3891ntf    sn219472   2.249   6.361   5.205  0.0419 -0.0496 -0.0021
 3891ntf    nn319473   2.175   6.473   5.123  0.6799  0.5609  0.2470
 3891ntf    sn219474   2.219   6.596   5.036  0.2724  0.3483 -0.2631
 3891ntf    cn119475   2.166   6.720   5.159  0.6893  0.0895  0.1812
 3891ntf    fn419476   2.237   6.216   4.989  0.3137 -0.1984  0.2194
 3891ntf    fn419477   2.406   6.344   4.996  0.1750  0.0511  0.5591
 3891ntf    fn419478   2.387   6.161   5.121  0.2015 -0.5041  0.0097
 3891ntf    on519479   2.162   6.262   5.263 -0.0403  0.1846  0.2834
 3891ntf    on519480   2.357   6.405   5.290  0.6723  0.3588 -1.0020
 3891ntf    on519481   2.133   6.622   4.924  0.2645  0.3827 -0.2491
 3891ntf    on519482   2.360   6.620   5.016  0.3738  0.1374  0.1870
 3891ntf    fn419483   2.252   6.739   5.257  0.4293 -0.1281  0.4509
 3891ntf    fn419484   2.155   6.836   5.097 -0.1759 -0.0711  0.0246
 3891ntf    fn419485   2.052   6.695   5.220  0.4098 -0.0542 -0.3896
 3892ntf    cn119486   5.991   5.996   0.996 -0.2004 -0.1637 -0.0558
 3892ntf    sn219487   6.013   6.031   0.819  0.4023  0.2321  0.0964
 3892ntf    nn319488   6.136   5.939   0.785  0.2577 -0.0462  0.3244
 3892ntf    sn219489   6.287   5.980   0.787  0.2123  0.1307  0.1982
 3892ntf    cn119490   6.357   5.819   0.832 -0.0912 -0.0968 -0.1353
 3892ntf    fn419491   5.873   6.037   1.040 -0.1754 -0.0025 -0.1351
 3892ntf    fn419492   5.990   5.870   1.036  0.3266  0.0346  0.5920
 3892ntf    fn419493   6.086   6.053   1.068  0.1236 -0.4251 -0.2783
 3892ntf    on519494   5.892   5.976   0.764  0.6485  0.0889 -0.3061
 3892ntf    on519495   6.034   6.172   0.797 -0.6126  0.3489 -0.1349
 3892ntf    on519496   6.332   6.064   0.895 -0.2046  0.0830  0.4101
 3892ntf    on519497   6.345   5.995   0.655  0.0356 -0.3656  0.0619
 3892ntf    fn419498   6.316   5.770   0.948 -0.5071 -0.3433 -0.3827
 3892ntf    fn419499   6.316   5.729   0.744 -0.6774  0.0892 -0.0531
 3892ntf    fn419500   6.489   5.818   0.843 -0.0956 -0.5506 -0.0822
 3893ntf    cn119501   3.209   0.865   6.850  0.0972 -0.0800  0.0068
 3893ntf    sn219502   3.129   1.011   6.777 -0.0591  0.0321  0.4013
 3893ntf    nn319503   2.978   0.983   6.811 -0.2846  0.4173 -0.2563
 3893ntf    sn219504   2.858   1.019   6.716 -0.2194  0.3613 -0.3601
 3893ntf    cn119505   2.860   0.871   6.610 -0.0596 -0.1867  0.3952
 3893ntf    fn419506   3.334   0.846   6.811  0.1600  0.3708 -0.0195
 3893ntf    fn419507   3.209   0.866   6.982 -0.1002 -0.6875  0.0127
 3893ntf    fn419508   3.142   0.752   6.833  0.0548 -0.1081  0.3458
 3893ntf    on519509   3.174   1.119   6.862 -0.0602  0.4525 -0.1274
 3893ntf    on519510   3.171   1.008   6.639 -0.0154  1.0244  0.3821
 3893ntf    on519511   2.859   1.144   6.643  0.1364  0.3818 -0.3244
 3893ntf    on519512   2.744   1.006   6.803 -0.3448  0.0958 -0.5609
 3893ntf    fn419513   2.978   0.833   6.565 -0.2812 -0.1116 -0.2646
 3893ntf    fn419514   2.808   0.764   6.667  0.3386 -0.1095  0.9079
 3893ntf    fn419515   2.776   0.870   6.507 -0.4238  0.3623  0.6827
 3894ntf    cn119516   6.536   7.087   6.727  0.2221  0.3322  0.4837
 3894ntf    sn219517   6.402   7.041   6.842 -0.0037  0.1303  0.1383
 3894ntf    nn319518   6.434   7.143   6.957 -0.1024  0.7582 -0.3855
 3894ntf    sn219519   6.342   7.233   7.047 -0.2412  0.3076 -0.0753
 3894ntf    cn119520   6.373   7.152   7.207  0.3394 -0.1962 -0.4348
 3894ntf    fn419521   6.653   7.068   6.785  0.0378 -0.7040  0.5275
 3894ntf    fn419522   6.534   7.000   6.628 -0.4556  0.2656  0.5482
 3894ntf    fn419523   6.528   7.209   6.677 -0.1370  0.2033  0.2239
 3894ntf    on519524   6.287   7.066   6.759  0.3461 -0.5717 -0.5767
 3894ntf    on519525   6.443   6.906   6.873 -0.1742 -0.0553 -0.4310
 3894ntf    on519526   6.204   7.191   7.042 -0.0325 -0.4184  0.0341
 3894ntf    on519527   6.374   7.372   7.062 -0.3585  0.3716 -0.4092
 3894ntf    fn419528   6.499   7.162   7.247  0.2373  0.2954 -0.2268
 3894ntf    fn419529   6.296   7.196   7.306  0.1983 -0.3275 -0.4848
 3894ntf    fn419530   6.345   7.023   7.199 -0.2391 -0.0993 -0.0386
 3895ntf    cn119531   3.800   1.683   1.669  0.0646  0.2330 -0.3136
 3895ntf    sn219532   3.629   1.743   1.687 -0.0066 -0.0644  0.0211
 3895ntf    nn319533   3.641   1.891   1.637 -0.3750  0.0388  0.2367
 3895ntf    sn219534   3.593   2.028   1.696 -0.0613  0.1657  0.2031
 3895ntf    cn119535   3.537   2.111   1.544 -0.1098 -0.9874 -0.4148
 3895ntf    fn419536   3.876   1.718   1.771  0.0690 -0.4760 -0.0666
 3895ntf    fn419537   3.809   1.552   1.651 -0.0140  0.1452  0.2621
 3895ntf    fn419538   3.854   1.738   1.562 -0.6916  0.5333 -0.5407
 3895ntf    on519539   3.559   1.663   1.589 -0.2743 -0.0381  0.1918
 3895ntf    on519540   3.599   1.739   1.828  0.4358  0.3656  0.1292
 3895ntf    on519541   3.700   2.106   1.752 -0.1048 -0.0450  0.5780
 3895ntf    on519542   3.472   2.011   1.773  0.1031 -0.2651  0.3687
 3895ntf    fn419543   3.473   2.223   1.572 -0.3638 -1.2485  0.0517
 3895ntf    fn419544   3.639   2.143   1.467 -0.0282  0.2401  0.1826
 3895ntf    fn419545   3.453   2.040   1.469 -0.1804 -0.9840 -0.3392
 3896ntf    cn119546   2.029   3.682   1.938  0.2155  0.3575  0.0797
 3896ntf    sn219547   2.136   3.536   1.960 -0.3484 -0.0980 -0.1577
 3896ntf    nn319548   2.035   3.419   1.987 -0.4587  0.0605  0.1211
 3896ntf    sn219549   1.967   3.325   1.881  0.3401 -0.1184 -0.2463
 3896ntf    cn119550   2.079   3.182   1.877  0.2054 -0.2407  0.1960
 3896ntf    fn419551   1.920   3.682   2.012  0.3725 -0.9390  0.3441
 3896ntf    fn419552   2.088   3.797   1.962 -0.0947  0.5191  0.0648
 3896ntf    fn419553   1.988   3.685   1.812  0.0001 -0.7064  0.1136
 3896ntf    on519554   2.218   3.523   1.842 -0.3271  0.4879 -0.2099
 3896ntf    on519555   2.206   3.580   2.078 -0.1559 -0.2181 -0.2266
 3896ntf    on519556   1.976   3.362   1.742 -0.8838  0.5740 -0.1592
 3896ntf    on519557   1.843   3.263   1.921  0.0714  0.4724 -0.1430
 3896ntf    fn419558   2.051   3.089   1.787  0.4420 -0.0443 -0.0855
 3896ntf    fn419559   2.202   3.224   1.851  0.1214 -0.1023  0.0189
 3896ntf    fn419560   2.084   3.120   1.993 -0.0216 -0.2872  0.1820
 3897ntf    cn119561   4.269   5.340   4.660 -0.3064  0.3009  0.1202
 3897ntf    sn219562   4.304   5.281   4.829  0.0336  0.1209 -0.0109
 3897ntf    nn319563   4.218   5.392   4.898 -0.4322 -0.0613 -0.2853
 3897ntf    sn219564   4.100   5.387   5.002 -0.1865  0.0235 -0.0012
 3897ntf    cn119565   3.984   5.504   4.926  0.0310  0.2348 -0.0112
 3897ntf    fn419566   4.147   5.304   4.624  0.0404 -0.7412 -0.0370
 3897ntf    fn419567   4.288   5.470   4.644  0.3095  0.1633 -0.2990
 3897ntf    fn419568   4.353   5.287   4.573 -0.1590  0.1191  0.3702
 3897ntf    on519569   4.251   5.146   4.825  0.0512  0.1257 -0.5468
 3897ntf    on519570   4.445   5.300   4.846  0.1149 -0.1633 -0.3477
 3897ntf    on519571   4.134   5.448   5.129 -1.0460  0.2513  0.1232
 3897ntf    on519572   4.020   5.267   5.004 -0.3307  0.1242  0.7978
 3897ntf    fn419573   3.931   5.455   4.815 -0.0566  0.1820  0.0533
 3897ntf    fn419574   3.884   5.508   5.013  0.2455 -0.1697  0.2598
 3897ntf    fn419575   4.030   5.624   4.896  0.4993  0.0571 -0.0172
 3898ntf    cn119576   0.662   1.793   6.749 -0.1460 -0.0413 -0.0232
 3898ntf    sn219577   0.631   1.805   6.928  0.1907  0.2981  0.0147
 3898ntf    nn319578   0.488   1.866   6.909  0.1087  0.1907  0.2754
 3898ntf    sn219579   0.353   1.787   6.889  0.1393  0.2066  0.0003
 3898ntf    cn119580   0.225   1.882   6.977 -0.3110 -0.3236 -0.0834
 3898ntf    fn419581   0.693   1.907   6.691  0.6647 -0.2368  0.0164
 3898ntf    fn419582   0.768   1.717   6.726 -0.3991 -0.3266 -0.2556
 3898ntf    fn419583   0.560   1.735   6.688  0.0257  0.0311 -0.3763
 3898ntf    on519584   0.631   1.673   6.987 -0.0141  0.2896 -0.0037
 3898ntf    on519585   0.738   1.895   6.964  0.3784  0.2872 -0.5125
 3898ntf    on519586   0.354   1.652   6.937  0.9675  0.1829 -0.0550
 3898ntf    on519587   0.308   1.792   6.753  0.2179 -0.4445 -0.0523
 3898ntf    fn419588   0.199   1.995   6.914 -0.1077 -0.1502  0.1416
 3898ntf    fn419589   0.114   1.811   6.986 -0.4142 -0.2058 -0.4148
 3898ntf    fn419590   0.269   1.913   7.098 -0.5864  0.6394 -0.2289
 3899ntf    cn119591   1.323   1.707   2.626  0.2031 -0.7973 -0.3110
 3899ntf    sn219592   1.285   1.798   2.474  0.1636 -0.1796  0.0650
 3899ntf    nn319593   1.395   1.910   2.475 -0.7894  0.7862 -0.7846
 3899ntf    sn219594   1.542   1.908   2.419 -0.4592 -0.1915  0.0831
 3899ntf    cn119595   1.512   1.960   2.247 -0.0886  0.0477  0.0903
 3899ntf    fn419596   1.220   1.640   2.675  0.4383 -0.5349  0.5701
 3899ntf    fn419597   1.422   1.623   2.599  0.0406 -1.0152 -0.2374
 3899ntf    fn419598   1.360   1.788   2.724 -0.6875 -0.1374 -0.5137
 3899ntf    on519599   1.303   1.703   2.367 -0.0989  0.0151 -0.1553
 3899ntf    on519600   1.155   1.856   2.500  0.2599  0.0640  0.0063
 3899ntf    on519601   1.604   1.779   2.405  0.0679  0.0084  0.5473
 3899ntf    on519602   1.630   2.009   2.473 -0.5781 -0.0715  0.0554
 3899ntf    fn419603   1.618   1.934   2.171 -0.1188 -0.0185  0.0703
 3899ntf    fn419604   1.411   1.891   2.198 -0.2998  0.3532  0.0933
 3899ntf    fn419605   1.480   2.087   2.228  0.1897  0.0689 -0.2444
 3900ntf    cn119606   0.852   2.831   4.766 -0.2822 -0.1518  0.2614
 3900ntf    sn219607   0.843   2.990   4.679 -0.0868 -0.3139 -0.0570
 3900ntf    nn319608   0.869   3.102   4.786 -0.7865 -0.8795  0.7214
 3900ntf    sn219609   0.777   3.221   4.830  0.2376  0.0424  0.4141
 3900ntf    cn119610   0.908   3.329   4.897  0.4025  0.1282 -0.0440
 3900ntf    fn419611   0.749   2.824   4.849 -0.4391 -0.1039  0.0730
 3900ntf    fn419612   0.839   2.730   4.682  0.8742 -0.0911 -0.0080
 3900ntf    fn419613   0.962   2.827   4.840 -0.3360 -0.0657  0.3470
 3900ntf    on519614   0.954   2.991   4.586  0.1289 -0.5609  0.1980
 3900ntf    on519615   0.705   2.982   4.637 -0.1993  0.4969  0.1441
 3900ntf    on519616   0.697   3.183   4.944 -0.4581 -0.3148 -0.1879
 3900ntf    on519617   0.716   3.304   4.729  0.0963 -0.1959  0.3044
 3900ntf    fn419618   1.010   3.341   4.814  0.5274  0.4675  0.1581
 3900ntf    fn419619   0.865   3.452   4.915  0.2038  0.0581 -0.0396
 3900ntf    fn419620   0.951   3.287   5.015 -0.0532 -0.0546  0.0595
 3901ntf    cn119621   0.722   6.151   6.190 -0.0128 -0.5157 -0.1129
 3901ntf    sn219622   0.754   6.169   6.368 -0.2600 -0.0127 -0.1168
 3901ntf    nn319623   0.833   6.303   6.353 -0.4457  0.1219  0.0978
 3901ntf    sn219624   0.850   6.421   6.455 -0.0994  0.0331  0.1441
 3901ntf    cn119625   1.018   6.481   6.419 -0.1088  0.1118  0.2302
 3901ntf    fn419626   0.665   6.260   6.140  0.0769 -0.2158  0.4305
 3901ntf    fn419627   0.834   6.120   6.126  0.3455  0.5301 -0.0135
 3901ntf    fn419628   0.630   6.059   6.170 -0.2470 -0.2266 -0.3766
 3901ntf    on519629   0.621   6.177   6.423 -0.2496 -0.3936 -0.0292
 3901ntf    on519630   0.840   6.056   6.397 -0.1103  0.1630  0.1233
 3901ntf    on519631   0.868   6.382   6.593  0.4594 -0.1056  0.0354
 3901ntf    on519632   0.770   6.533   6.413 -0.4590 -0.2983 -0.0594
 3901ntf    fn419633   1.056   6.573   6.506  0.2346  0.1776  0.0145
 3901ntf    fn419634   1.097   6.375   6.428 -0.1465  0.0845  0.2421
 3901ntf    fn419635   1.033   6.533   6.299  0.0770 -0.4646  0.0000
 3902ntf    cn119636   3.439   6.987   2.003 -0.0535 -0.0497 -0.4149
 3902ntf    sn219637   3.456   6.928   1.832  0.5077 -0.0920 -0.3477
 3902ntf    nn319638   3.308   6.946   1.782  0.3943  0.0385  0.0354
 3902ntf    sn219639   3.201   6.832   1.771  0.2418  0.1963 -0.1347
 3902ntf    cn119640   3.050   6.934   1.771  0.1288  0.0299 -0.1164
 3902ntf    fn419641   3.401   6.892   2.088 -0.1088  0.3105 -0.0344
 3902ntf    fn419642   3.553   7.026   2.057 -0.0114 -0.6136 -0.0832
 3902ntf    fn419643   3.354   7.086   2.026  0.3330  0.1717  0.0879
 3902ntf    on519644   3.547   7.026   1.778  0.2372  0.4882  0.2432
 3902ntf    on519645   3.511   6.797   1.854  0.3530 -0.1622 -0.3734
 3902ntf    on519646   3.177   6.747   1.886 -0.1087  0.3417 -0.0973
 3902ntf    on519647   3.201   6.776   1.639 -0.9736  0.0008 -0.0665
 3902ntf    fn419648   2.935   6.872   1.786  0.0862 -0.0445 -0.7259
 3902ntf    fn419649   3.049   7.028   1.865 -0.0085 -0.6389  0.5626
 3902ntf    fn419650   3.036   7.002   1.659 -0.2287  0.3579  0.1232
 3903ntf    cn119651   2.433   3.803   4.062 -0.0715 -0.1710  0.2091
 3903ntf    sn219652   2.368   3.783   4.231  0.1982 -0.2913  0.3013
 3903ntf    nn319653   2.380   3.628   4.251 -0.3505 -0.3476  0.2234
 3903ntf    sn219654   2.293   3.509   4.196  0.3195 -0.6087 -0.2933
 3903ntf    cn119655   2.166   3.486   4.324  0.5149  0.3161  0.0734
 3903ntf    fn419656   2.536   3.723   4.037  0.1203 -0.0264  0.5218
 3903ntf    fn419657   2.345   3.787   3.965  0.4932 -0.3354 -0.2839
 3903ntf    fn419658   2.485   3.924   4.049 -0.1377 -0.1585  0.0659
 3903ntf    on519659   2.457   3.854   4.319  0.4678 -0.2589  0.0029
 3903ntf    on519660   2.234   3.836   4.220  0.4217  0.1625 -0.2812
 3903ntf    on519661   2.373   3.391   4.213  0.7327 -0.2497  0.2725
 3903ntf    on519662   2.227   3.528   4.069  0.2080 -0.2721 -0.1868
 3903ntf    fn419663   2.104   3.373   4.296  0.1723  0.4308  0.3661
 3903ntf    fn419664   2.223   3.478   4.444  0.5149 -0.0243  0.0495
 3903ntf    fn419665   2.080   3.587   4.334  0.5839  0.3273  0.5901
 3904ntf    cn119666   2.589   1.990   6.827 -0.3266  0.1286 -0.5642
 3904ntf    sn219667   2.589   1.875   6.686 -0.0274 -0.2719 -0.2395
 3904ntf    nn319668   2.448   1.814   6.717 -0.0837  0.0665  0.1843
 3904ntf    sn219669   2.315   1.821   6.633  0.0058  0.0492  0.0401
 3904ntf    cn119670   2.275   1.997   6.652  0.0023  0.0478  0.0477
 3904ntf    fn419671   2.491   2.078   6.826 -0.3603  0.1177  0.6879
 3904ntf    fn419672   2.582   1.929   6.944 -0.0393  0.0362 -0.5941
 3904ntf    fn419673   2.704   2.056   6.835 -0.5980  0.5773 -0.3736
 3904ntf    on519674   2.599   1.956   6.567 -0.1704  0.2711  0.1138
 3904ntf    on519675   2.693   1.779   6.715 -0.2426 -0.5049 -0.2308
 3904ntf    on519676   2.195   1.756   6.682 -0.2696  0.5779  0.0709
 3904ntf    on519677   2.339   1.797   6.493 -0.2057 -0.0961  0.0279
 3904ntf    fn419678   2.159   2.029   6.596 -0.2335 -0.0786  0.4638
 3904ntf    fn419679   2.252   2.025   6.779  0.0577 -0.1423  0.0998
 3904ntf    fn419680   2.369   2.077   6.606 -0.2801  0.1060 -0.4376
 3905ntf    cn119681   2.610   2.409   4.330 -0.4195 -0.3036  0.1455
 3905ntf    sn219682   2.553   2.538   4.215  0.0551 -0.1701  0.0558
 3905ntf    nn319683   2.667   2.533   4.107 -0.0947 -0.2042 -0.1020
 3905ntf    sn219684   2.742   2.643   4.025 -0.1784  0.0132  0.1101
 3905ntf    cn119685   2.895   2.645   4.123 -0.2188 -0.2343  0.1778
 3905ntf    fn419686   2.730   2.430   4.383 -0.4814 -0.5205  0.3738
 3905ntf    fn419687   2.522   2.410   4.429 -0.2791  0.7152  0.2733
 3905ntf    fn419688   2.605   2.290   4.273  0.0507 -0.0132 -0.5024
 3905ntf    on519689   2.422   2.489   4.178  0.0808 -0.3552  0.2088
 3905ntf    on519690   2.543   2.661   4.289  0.5314  0.3164 -0.6804
 3905ntf    on519691   2.683   2.775   4.030 -0.0418  0.0716  0.1731
 3905ntf    on519692   2.774   2.591   3.894 -0.0574 -0.0361  0.1592
 3905ntf    fn419693   2.983   2.730   4.073 -0.0049 -0.4692  0.1526
 3905ntf    fn419694   2.872   2.674   4.250  0.4159  0.2260  0.1904
 3905ntf    fn419695   2.959   2.529   4.118 -0.4954 -0.3857  0.0736
 3906ntf    cn119696   6.653   5.641   2.705 -0.3560  0.0891  0.2804
 3906ntf    sn219697   6.645   5.469   2.647  0.0120  0.2701 -0.3111
 3906ntf    nn319698   6.636   5.396   2.785  0.0345  0.0867 -0.4068
 3906ntf    sn219699   6.559   5.264   2.819  0.0624  0.1322 -0.1589
 3906ntf    cn119700   6.418   5.336   2.908 -0.1272  0.1727 -0.4876
 3906ntf    fn419701   6.538   5.688   2.753 -0.7028 -0.6702  0.2083
 3906ntf    fn419702   6.730   5.643   2.813 -0.0906 -0.4343  0.1020
 3906ntf    fn419703   6.700   5.722   2.612 -0.3922  0.3951  0.5243
 3906ntf    on519704   6.525   5.477   2.567 -0.4054  0.4077  0.3240
 3906ntf    on519705   6.768   5.459   2.573 -0.0574 -0.0623 -0.3832
 3906ntf    on519706   6.631   5.191   2.920 -0.1961 -0.7143 -0.5760
 3906ntf    on519707   6.519   5.189   2.702  0.3927  0.2403 -0.3421
 3906ntf    fn419708   6.474   5.420   2.993 -0.0617 -0.5534  0.2012
 3906ntf    fn419709   6.340   5.404   2.826 -0.7894 -0.4556 -0.3922
 3906ntf    fn419710   6.343   5.253   2.979  0.8236 -0.4224 -0.1626
 3907ntf    cn119711   3.304   4.221   0.055  0.3255  0.2289 -0.1587
 3907ntf    sn219712   3.295   4.050  -0.006 -0.0745  0.1908  0.0062
 3907ntf    nn319713   3.298   4.082  -0.160 -0.0695 -0.5103 -0.1426
 3907ntf    sn219714   3.178   4.117  -0.256 -0.3446 -0.4062  0.2348
 3907ntf    cn119715   3.189   3.974  -0.368  0.2658 -0.2777  0.1254
 3907ntf    fn419716   3.393   4.296  -0.008  0.4371  0.2246 -0.0053
 3907ntf    fn419717   3.184   4.275   0.042 -0.0070 -0.5274 -0.2630
 3907ntf    fn419718   3.339   4.219   0.182  0.0654 -0.3868 -0.0940
 3907ntf    on519719   3.412   3.995   0.058 -0.1211  0.4564  0.3200
 3907ntf    on519720   3.167   4.008   0.045 -0.1829  0.1639 -0.2870
 3907ntf    on519721   3.207   4.231  -0.339 -0.1218 -0.2566  0.5161
 3907ntf    on519722   3.049   4.117  -0.193 -0.2737 -0.2128  0.3842
 3907ntf    fn419723   3.292   3.973  -0.451  0.1792  0.2595  0.0029
 3907ntf    fn419724   3.198   3.865  -0.294 -0.1686  0.1413  0.8083
 3907ntf    fn419725   3.078   3.961  -0.438  0.2352  0.0987  0.1018
 3908ntf    cn119726   5.525   5.374   2.906 -0.0744  0.0416 -0.0219
 3908ntf    sn219727   5.702   5.376   2.862 -0.0597  0.5724  0.0646
 3908ntf    nn319728   5.715   5.532   2.850 -0.5645  0.6226  0.1608
 3908ntf    sn219729   5.776   5.642   2.944  0.1156  0.2485  0.1589
 3908ntf    cn119730   5.952   5.596   2.941  0.0328 -0.0718  0.1837
 3908ntf    fn419731   5.467   5.262   2.865  0.3494 -0.2271  0.1017
 3908ntf    fn419732   5.507   5.398   3.034 -0.3659 -0.2354 -0.0082
 3908ntf    fn419733   5.457   5.468   2.843 -0.6286 -0.3309  0.0099
 3908ntf    on519734   5.767   5.322   2.979 -0.5326  0.2078  0.1605
 3908ntf    on519735   5.702   5.300   2.739  0.4746  0.2063  0.2878
 3908ntf    on519736   5.737   5.636   3.083  0.3707 -0.5638  0.2013
 3908ntf    on519737   5.777   5.770   2.878  0.2650 -0.0316 -0.3877
 3908ntf    fn419738   5.991   5.527   3.047 -0.1138  0.2257  0.4336
 3908ntf    fn419739   5.983   5.523   2.835 -0.3219 -0.2208  0.1806
 3908ntf    fn419740   6.032   5.702   2.937  0.2004 -0.1827  0.5357
 3909ntf    cn119741   3.541   1.996   3.666  0.3434 -0.2354  0.2600
 3909ntf    sn219742   3.613   2.064   3.819 -0.0789  0.1835  0.2720
 3909ntf    nn319743   3.764   2.032   3.791 -0.1813 -0.1133  0.0454
 3909ntf    sn219744   3.888   2.120   3.752 -0.2470 -0.0628 -0.0489
 3909ntf    cn119745   3.917   2.087   3.576 -0.0445  0.1800 -0.0621
 3909ntf    fn419746   3.534   1.863   3.670 -0.2555 -0.2281 -0.4109
 3909ntf    fn419747   3.423   2.049   3.640  0.5612  0.0305 -0.1919
 3909ntf    fn419748   3.616   2.027   3.561  0.2252  0.2212  0.3127
 3909ntf    on519749   3.570   2.202   3.816 -0.1477  0.1516 -0.8454
 3909ntf    on519750   3.560   1.982   3.925 -0.1178  0.0936  0.1835
 3909ntf    on519751   4.010   2.077   3.816  0.0339  0.4669 -0.2130
 3909ntf    on519752   3.863   2.262   3.767  0.2720 -0.0500  0.7088
 3909ntf    fn419753   3.808   2.118   3.507 -0.1361 -0.3892 -0.1850
 3909ntf    fn419754   4.019   2.163   3.537 -0.2366  0.2650 -0.4035
 3909ntf    fn419755   3.939   1.959   3.551 -0.6880  0.0916 -0.1779
 3910ntf    cn119756   0.594   1.373   1.472 -0.2459 -0.0176  0.0513
 3910ntf    sn219757   0.424   1.319   1.438 -0.2601 -0.0421  0.1602
 3910ntf    nn319758   0.422   1.175   1.501  0.0524 -0.1232 -0.0103
 3910ntf    sn219759   0.359   1.130   1.638  0.3443  0.0737  0.1906
 3910ntf    cn119760   0.417   0.958   1.643  0.2903  0.0498  0.0270
 3910ntf    fn419761   0.621   1.361   1.601  0.2464  0.0838 -0.0385
 3910ntf    fn419762   0.690   1.311   1.405  0.0539  0.2516  0.2298
 3910ntf    fn419763   0.602   1.503   1.448  0.4776  0.0102  0.4320
 3910ntf    on519764   0.340   1.418   1.501 -0.1035  0.0453  0.2307
 3910ntf    on519765   0.410   1.319   1.294  0.1696 -0.4228  0.1159
 3910ntf    on519766   0.216   1.116   1.625  0.3360  0.3793 -0.0572
 3910ntf    on519767   0.413   1.192   1.756  0.3995  0.6316 -0.1249
 3910ntf    fn419768   0.437   0.908   1.522  0.1949  0.2425 -0.0676
 3910ntf    fn419769   0.528   0.942   1.714  0.1775 -0.6464  0.0520
 3910ntf    fn419770   0.326   0.882   1.701  0.6350 -0.4773 -0.1072
 3911ntf    cn119771   6.308   3.746   4.746  0.2547 -0.0094  0.0120
 3911ntf    sn219772   6.481   3.757   4.801  0.2116 -0.1766  0.1830
 3911ntf    nn319773   6.552   3.772   4.662 -0.5212 -0.0308 -0.1789
 3911ntf    sn219774   6.660   3.868   4.601 -0.0013 -0.4557  0.0665
 3911ntf    cn119775   6.557   4.000   4.530  0.5257 -0.3191 -0.4599
 3911ntf    fn419776   6.278   3.844   4.663  0.8204 -0.2840 -0.5202
 3911ntf    fn419777   6.281   3.633   4.683 -0.2172  0.1687 -0.1081
 3911ntf    fn419778   6.220   3.759   4.844 -0.0774  0.4025 -0.3404
 3911ntf    on519779   6.491   3.880   4.877  0.2494 -0.0318 -0.0551
 3911ntf    on519780   6.506   3.626   4.856 -0.0290  0.0635  0.8709
 3911ntf    on519781   6.712   3.803   4.483 -0.0789 -0.1176 -0.1564
 3911ntf    on519782   6.752   3.931   4.692  0.0580  0.5412 -0.6688
 3911ntf    fn419783   6.444   3.946   4.486  0.2203  0.0952 -0.1972
 3911ntf    fn419784   6.514   4.085   4.622 -0.0065 -0.3909 -0.6366
 3911ntf    fn419785   6.612   4.065   4.430 -0.2425  0.0229 -0.6688
 3912ntf    cn119786   3.806   3.674   3.296  0.4344 -0.1621 -0.2156
 3912ntf    sn219787   3.976   3.722   3.338  0.3831 -0.1032 -0.0716
 3912ntf    nn319788   3.973   3.705   3.494 -0.3777 -0.0456 -0.0753
 3912ntf    sn219789   4.072   3.623   3.584 -0.3817 -0.1928 -0.2034
 3912ntf    cn119790   3.992   3.461   3.605 -0.0473 -0.2725  0.4628
 3912ntf    fn419791   3.757   3.572   3.366  0.5885 -0.3972 -0.4489
 3912ntf    fn419792   3.723   3.777   3.303  0.4416 -0.1164 -0.8188
 3912ntf    fn419793   3.799   3.633   3.170  0.4630  0.0599 -0.2880
 3912ntf    on519794   4.051   3.625   3.263 -0.4294 -0.9418  0.1853
 3912ntf    on519795   3.980   3.858   3.290 -0.7273 -0.1351 -0.2855
 3912ntf    on519796   4.061   3.667   3.721 -0.2593 -0.2223 -0.1845
 3912ntf    on519797   4.206   3.602   3.533  0.0811  0.9690  0.4828
 3912ntf    fn419798   4.063   3.379   3.681 -0.1501 -0.4068  0.4120
 3912ntf    fn419799   3.875   3.479   3.664 -0.1345  0.3753  0.1040
 3912ntf    fn419800   3.975   3.402   3.488  0.3430 -0.1440  0.3367
 3913ntf    cn119801   2.384   2.525   6.149 -0.0734 -0.0593 -0.1359
 3913ntf    sn219802   2.390   2.693   6.080  0.1863 -0.0305 -0.0448
 3913ntf    nn319803   2.541   2.735   6.089  0.0097  0.5827  0.0323
 3913ntf    sn219804   2.624   2.784   6.213 -0.0383 -0.1808  0.3717
 3913ntf    cn119805   2.606   2.963   6.187 -0.0290 -0.2278  0.0321
 3913ntf    fn419806   2.477   2.436   6.120  0.7288  0.5447  0.5164
 3913ntf    fn419807   2.393   2.538   6.281  0.0026  0.4380 -0.1900
 3913ntf    fn419808   2.268   2.465   6.124 -0.2344  0.1639  0.0624
 3913ntf    on519809   2.340   2.680   5.945  0.1671 -0.5878  0.0112
 3913ntf    on519810   2.297   2.770   6.157 -0.3263 -0.3177 -0.3686
 3913ntf    on519811   2.765   2.762   6.191 -0.0956 -0.1565 -0.0397
 3913ntf    on519812   2.571   2.758   6.344  0.1614  0.3481  0.5611
 3913ntf    fn419813   2.475   2.987   6.185  0.1288  0.6422 -0.6845
 3913ntf    fn419814   2.670   3.027   6.284  0.8290 -0.0690 -0.6311
 3913ntf    fn419815   2.649   3.009   6.071 -0.5077 -0.2212 -0.1460
 3914ntf    cn119816   7.084   3.209   6.117  0.2482  0.6649  0.0519
 3914ntf    sn219817   7.211   3.081   6.134 -0.3288  0.1182  0.2710
 3914ntf    nn319818   7.342   3.161   6.101 -0.2626 -0.0478  0.1270
 3914ntf    sn219819   7.420   3.251   6.204  0.0621 -0.2503  0.0609
 3914ntf    cn119820   7.436   3.407   6.113 -0.4845 -0.0227  0.3464
 3914ntf    fn419821   6.962   3.159   6.107  0.5309 -0.0204 -0.0226
 3914ntf    fn419822   7.084   3.294   6.218 -0.0561 -0.0217  0.6338
 3914ntf    fn419823   7.107   3.288   6.013 -0.7703 -0.0062 -0.7023
 3914ntf    on519824   7.203   3.024   6.266 -0.3996  0.1119  0.2638
 3914ntf    on519825   7.182   2.986   6.029 -0.6512  0.5625 -0.0460
 3914ntf    on519826   7.559   3.216   6.216  0.0245 -0.1988  0.6651
 3914ntf    on519827   7.353   3.286   6.327 -0.6098  0.5193 -0.5073
 3914ntf    fn419828   7.336   3.494   6.113 -0.0806  0.4469  0.4996
 3914ntf    fn419829   7.537   3.475   6.165 -0.0132 -0.5146  0.0820
 3914ntf    fn419830   7.482   3.389   5.990 -0.1184  0.3905  0.4165
 3915ntf    cn119831   3.954   2.849   1.091 -0.6277  0.5550 -0.1200
 3915ntf    sn219832   3.932   2.914   1.260 -0.3242 -0.1336  0.1863
 3915ntf    nn319833   4.020   3.044   1.255 -0.4015 -0.1017 -0.3574
 3915ntf    sn219834   3.983   3.196   1.268  0.1351 -0.0048  0.0579
 3915ntf    cn119835   4.008   3.236   1.092  0.0370 -0.0044  0.0444
 3915ntf    fn419836   4.077   2.817   1.055 -0.5817  0.4047  0.1708
 3915ntf    fn419837   3.880   2.741   1.075 -0.0939  0.1478  0.1521
 3915ntf    fn419838   3.909   2.940   1.006 -0.2393  0.6018 -0.2753
 3915ntf    on519839   3.789   2.932   1.268 -0.2454  0.4479  0.2898
 3915ntf    on519840   3.998   2.820   1.347  0.1067  0.2973  0.3263
 3915ntf    on519841   4.088   3.273   1.331  0.2109  0.0827 -0.1742
 3915ntf    on519842   3.847   3.227   1.301 -0.0126 -0.1946 -0.3711
 3915ntf    fn419843   4.118   3.184   1.042 -0.1816 -0.2070 -0.2294
 3915ntf    fn419844   3.914   3.172   1.023  0.3668 -0.1460 -0.2730
 3915ntf    fn419845   4.013   3.364   1.062  0.4635 -0.0760 -0.1887
 3916ntf    cn119846   6.699   3.086   4.909 -0.2528 -0.1153  0.1011
 3916ntf    sn219847   6.720   3.184   5.060  0.0311 -0.1081  0.0578
 3916ntf    nn319848   6.674   3.072   5.160  0.2310 -0.1956  0.0516
 3916ntf    sn219849   6.751   2.959   5.237 -0.1340 -0.2988  0.2681
 3916ntf    cn119850   6.796   3.053   5.386  0.0564  0.0112  0.0175
 3916ntf    fn419851   6.593   3.007   4.910 -0.0409 -0.3910  0.6222
 3916ntf    fn419852   6.692   3.162   4.800  0.1117 -0.3224 -0.0665
 3916ntf    fn419853   6.797   3.001   4.885  0.1421  0.3906 -0.1264
 3916ntf    on519854   6.855   3.233   5.060 -0.0785  0.2039  0.3166
 3916ntf    on519855   6.630   3.297   5.048  0.3628  0.1707  0.1736
 3916ntf    on519856   6.881   2.922   5.188  0.2035  0.4982  0.5489
 3916ntf    on519857   6.658   2.855   5.273 -0.3849 -0.0337  0.3884
 3916ntf    fn419858   6.690   3.085   5.458  0.2000  0.8884 -0.1571
 3916ntf    fn419859   6.883   2.988   5.462 -0.2348 -0.1858  0.1864
 3916ntf    fn419860   6.849   3.169   5.353  0.2411 -0.0816 -0.0152
 3917ntf    cn119861   2.322   3.782   0.294  0.1299  0.3269  0.3087
 3917ntf    sn219862   2.490   3.798   0.228  0.0234 -0.3658 -0.1409
 3917ntf    nn319863   2.574   3.797   0.361 -0.2023  0.1562  0.0104
 3917ntf    sn219864   2.629   3.922   0.437  0.2996 -0.1519  0.1568
 3917ntf    cn119865   2.777   3.960   0.339  0.2734  0.3382  0.3053
 3917ntf    fn419866   2.308   3.677   0.373  0.1062 -0.0575 -0.2033
 3917ntf    fn419867   2.287   3.886   0.368 -0.5183  0.0678  0.3762
 3917ntf    fn419868   2.227   3.766   0.203  0.4720  0.3489 -0.0509
 3917ntf    on519869   2.518   3.683   0.145 -0.1600 -0.5405  0.0393
 3917ntf    on519870   2.492   3.924   0.156  1.0867 -0.6518 -0.6432
 3917ntf    on519871   2.692   3.884   0.561  0.8063  0.0885 -0.0221
 3917ntf    on519872   2.559   4.048   0.429  0.2146 -0.2111 -0.0356
 3917ntf    fn419873   2.840   4.067   0.385  0.0642  0.2870  0.7151
 3917ntf    fn419874   2.874   3.871   0.330  0.1083  0.2038 -0.1814
 3917ntf    fn419875   2.742   3.973   0.212  0.0592 -0.9123  0.2223
 3918ntf    cn119876   1.598   3.508   6.684 -0.0456  0.2997 -0.3716
 3918ntf    sn219877   1.601   3.650   6.797  0.1408  0.1778 -0.2198
 3918ntf    nn319878   1.565   3.759   6.690 -0.2575  0.0458 -0.2228
 3918ntf    sn219879   1.489   3.894   6.714 -0.1553  0.0659 -0.0184
 3918ntf    cn119880   1.321   3.847   6.663 -0.1105  0.1318 -0.2299
 3918ntf    fn419881   1.698   3.503   6.597  0.4502 -0.1472  0.2150
 3918ntf    fn419882   1.604   3.392   6.749  0.1110  0.3385 -0.3155
 3918ntf    fn419883   1.481   3.511   6.623  0.2184  0.5072 -0.8759
 3918ntf    on519884   1.488   3.607   6.877  0.1735  0.1290 -0.2000
 3918ntf    on519885   1.733   3.648   6.854  0.2571 -0.6715 -0.5045
 3918ntf    on519886   1.532   3.993   6.618 -0.3154  0.4710  0.3243
 3918ntf    on519887   1.480   3.931   6.853 -0.2524  0.5492 -0.1516
 3918ntf    fn419888   1.307   3.806   6.538  0.4610 -0.2429 -0.1747
 3918ntf    fn419889   1.270   3.754   6.742  0.6079  0.0571  0.1598
 3918ntf    fn419890   1.235   3.945   6.684 -0.5453 -0.3486  0.2654
 3919ntf    cn119891   6.812   6.669   3.675  0.0007 -0.0828  0.0605
 3919ntf    sn219892   6.978   6.734   3.642 -0.1268  0.1219 -0.1801
 3919ntf    nn319893   7.068   6.605   3.630 -0.3020 -0.0624  0.4441
 3919ntf    sn219894   7.181   6.557   3.727 -0.1001 -0.1051  0.1901
 3919ntf    cn119895   7.253   6.413   3.643 -0.0454  0.0775 -0.0785
 3919ntf    fn419896   6.721   6.763   3.656 -0.4206 -0.4585  0.2171
 3919ntf    fn419897   6.779   6.569   3.595 -0.1072 -0.1413  0.1778
 3919ntf    fn419898   6.798   6.618   3.796  0.2099 -0.1867  0.0421
 3919ntf    on519899   6.968   6.800   3.514  0.0138  0.6744  0.0936
 3919ntf    on519900   7.029   6.817   3.748 -0.5406  0.2400 -0.0761
 3919ntf    on519901   7.133   6.514   3.856  0.1996 -0.0573  0.3194
 3919ntf    on519902   7.297   6.642   3.738 -0.3383  0.2592 -0.0616
 3919ntf    fn419903   7.153   6.328   3.626 -0.4539  0.6607 -0.6295
 3919ntf    fn419904   7.304   6.442   3.525 -0.3000  0.6644 -0.0459
 3919ntf    fn419905   7.346   6.347   3.712  0.1407 -0.2154 -0.6074
 3920ntf    cn119906   3.192   0.434   1.009 -0.3809  0.1110 -0.2366
 3920ntf    sn219907   3.315   0.557   0.956 -0.2066 -0.0407 -0.1831
 3920ntf    nn319908   3.434   0.471   0.901 -0.1020  0.0013 -0.0231
 3920ntf    sn219909   3.454   0.414   0.755 -0.1905  0.2437 -0.1298
 3920ntf    cn119910   3.545   0.554   0.684 -0.1984  0.2836 -0.0617
 3920ntf    fn419911   3.231   0.339   1.093  0.1255  0.4456 -0.0913
 3920ntf    fn419912   3.089   0.493   1.067  0.1290  0.0302  0.7673
 3920ntf    fn419913   3.140   0.372   0.904 -0.2217 -0.5454  0.0702
 3920ntf    on519914   3.242   0.629   0.854 -0.2790  0.2071  0.0436
 3920ntf    on519915   3.353   0.633   1.072 -0.8952 -0.0756  0.0714
 3920ntf    on519916   3.340   0.403   0.667 -0.5473 -0.3467  0.3899
 3920ntf    on519917   3.550   0.308   0.748  0.1466  0.5485 -0.1319
 3920ntf    fn419918   3.665   0.575   0.738  0.0488  0.2435 -0.5924
 3920ntf    fn419919   3.565   0.538   0.554 -0.0539 -0.1226  0.0102
 3920ntf    fn419920   3.485   0.672   0.691  0.3194  0.5395  0.1634
 3921ntf    cn119921   6.061   0.800   4.337 -0.0508  0.4206  0.0981
 3921ntf    sn219922   5.947   0.872   4.216 -0.0826 -0.0380 -0.1486
 3921ntf    nn319923   5.817   0.878   4.304 -0.1250  0.2937 -0.2323
 3921ntf    sn219924   5.696   0.975   4.276 -0.4505  0.0084  0.1720
 3921ntf    cn119925   5.576   0.858   4.206 -0.2533 -0.1084  0.0279
 3921ntf    fn419926   6.020   0.677   4.365  0.8546  0.1677  0.3436
 3921ntf    fn419927   6.187   0.799   4.299 -0.0727  0.2568  0.0265
 3921ntf    fn419928   6.053   0.864   4.453 -0.4220 -0.0059  0.3132
 3921ntf    on519929   6.011   0.996   4.180  0.2454 -0.1129  0.1756
 3921ntf    on519930   5.919   0.770   4.118 -0.9714 -0.3539  0.4253
 3921ntf    on519931   5.705   1.073   4.171  0.0856 -0.4541 -0.2235
 3921ntf    on519932   5.626   1.019   4.394 -0.5108 -0.3184  0.2602
 3921ntf    fn419933   5.525   0.777   4.297  0.1978 -0.4149  0.0115
 3921ntf    fn419934   5.476   0.920   4.145 -0.0678  0.2852  0.1220
 3921ntf    fn419935   5.632   0.779   4.116 -0.0878 -0.2551  0.2597
 3922ntf    cn119936   6.654   0.703   1.669 -0.2214  0.0107 -0.0199
 3922ntf    sn219937   6.545   0.636   1.541 -0.2433  0.0802 -0.0372
 3922ntf    nn319938   6.405   0.692   1.585 -0.3935 -0.0696 -0.3153
 3922ntf    sn219939   6.322   0.657   1.714  0.2642 -0.3672  0.0330
 3922ntf    cn119940   6.187   0.556   1.645  0.4238 -0.6200  0.0890
 3922ntf    fn419941   6.677   0.607   1.758 -0.0280  0.2441  0.1839
 3922ntf    fn419942   6.764   0.767   1.633  0.1022 -0.3451  0.3235
 3922ntf    fn419943   6.579   0.793   1.730 -0.1909  0.2386 -0.3195
 3922ntf    on519944   6.589   0.709   1.424 -0.6399  0.4453  0.0356
 3922ntf    on519945   6.562   0.493   1.533 -0.5125  0.0442  0.0153
 3922ntf    on519946   6.262   0.782   1.752  0.0515 -0.6184  0.5315
 3922ntf    on519947   6.390   0.578   1.813 -0.1644 -0.6746  0.0885
 3922ntf    fn419948   6.114   0.510   1.745  0.1365  0.6977  0.5026
 3922ntf    fn419949   6.101   0.632   1.579  0.2699 -0.3266  0.6240
 3922ntf    fn419950   6.220   0.455   1.566 -0.3221 -0.3798 -0.5406
 3923ntf    cn119951   5.176   5.448   7.016  0.1847  0.3060  0.0698
 3923ntf    sn219952   5.291   5.514   7.141  0.1793 -0.2030  0.3448
 3923ntf    nn319953   5.376   5.613   7.054  0.3684 -0.2780  0.4440
 3923ntf    sn219954   5.531   5.604   7.028  0.2652 -0.3798 -0.1471
 3923ntf    cn119955   5.607   5.695   7.166 -0.0052  0.0890 -0.3049
 3923ntf    fn419956   5.091   5.530   6.956  0.1626  0.0353 -0.2692
 3923ntf    fn419957   5.244   5.391   6.919  0.1108  0.0922  0.1427
 3923ntf    fn419958   5.099   5.353   7.065  0.3049  0.2318  0.1139
 3923ntf    on519959   5.210   5.592   7.231  0.0887 -0.1268  0.1962
 3923ntf    on519960   5.358   5.401   7.201  0.8918  0.0777  0.0796
 3923ntf    on519961   5.561   5.693   6.918  0.0947  0.0090  0.1185
 3923ntf    on519962   5.597   5.476   7.031  0.8784 -0.0532  0.5448
 3923ntf    fn419963   5.675   5.805   7.138 -0.3413  0.3843  0.0374
 3923ntf    fn419964   5.523   5.736   7.259 -0.1540 -0.5036 -0.1759
 3923ntf    fn419965   5.691   5.618   7.232 -0.1238  0.2516  0.0352
 3924ntf    cn119966   4.792   2.437   3.378 -0.0167 -0.0131 -0.1884
 3924ntf    sn219967   4.807   2.614   3.340  0.2467 -0.0319 -0.1756
 3924ntf    nn319968   4.962   2.639   3.344  0.1841  0.3601 -0.0475
 3924ntf    sn219969   5.059   2.626   3.222  0.1048 -0.1114 -0.0637
 3924ntf    cn119970   5.047   2.787   3.138 -0.4784  0.0190  0.2645
 3924ntf    fn419971   4.867   2.363   3.298 -0.0973 -0.3020  0.0043
 3924ntf    fn419972   4.818   2.409   3.504  0.7099  0.0851 -0.3121
 3924ntf    fn419973   4.671   2.387   3.362 -0.0509 -0.0600  0.2126
 3924ntf    on519974   4.743   2.636   3.213  0.0098 -0.4715 -0.1325
 3924ntf    on519975   4.740   2.669   3.456 -0.0978  0.0026 -0.3908
 3924ntf    on519976   5.028   2.522   3.126 -0.2679  0.1141 -0.1910
 3924ntf    on519977   5.198   2.631   3.259  0.0368  0.0610  0.1675
 3924ntf    fn419978   4.967   2.785   3.033 -0.0775  0.2255 -0.0511
 3924ntf    fn419979   5.018   2.889   3.217  1.1031  0.4074  0.3812
 3924ntf    fn419980   5.165   2.823   3.090 -0.0954 -0.5267  0.7898
 3925ntf    cn119981   1.885   7.114   1.524 -0.0975 -0.3171 -0.1618
 3925ntf    sn219982   1.907   6.990   1.393  0.3832 -0.2401 -0.1596
 3925ntf    nn319983   1.948   6.859   1.470 -0.3105 -0.0665  0.5196
 3925ntf    sn219984   2.090   6.804   1.508 -0.1442  0.0816  0.1222
 3925ntf    cn119985   2.042   6.666   1.617 -0.1413  0.0439  0.0759
 3925ntf    fn419986   1.999   7.146   1.583 -0.2799  0.2934 -0.1369
 3925ntf    fn419987   1.833   7.227   1.480  0.2315  0.0052  0.2546
 3925ntf    fn419988   1.814   7.067   1.625 -0.1962 -0.4295 -0.2841
 3925ntf    on519989   1.774   6.977   1.339  0.2346 -0.5040  0.2590
 3925ntf    on519990   2.015   7.038   1.312 -0.2812  0.0599 -0.8857
 3925ntf    on519991   2.165   6.893   1.593  0.2673 -0.3761  0.2407
 3925ntf    on519992   2.149   6.742   1.393  0.0386  0.5693 -0.0508
 3925ntf    fn419993   1.945   6.706   1.697 -0.1943  0.0203  0.0236
 3925ntf    fn419994   1.993   6.572   1.538  0.2024  0.2851 -0.4291
 3925ntf    fn419995   2.141   6.624   1.694  0.3036  0.2964 -0.3538
 3926ntf    cn119996   5.768   3.172   0.555 -0.2140 -0.1410 -0.1706
 3926ntf    sn219997   5.890   3.238   0.673 -0.3586 -0.1841  0.0043
 3926ntf    nn319998   5.836   3.384   0.699 -0.4799 -0.2274 -0.0047
 3926ntf    sn219999   5.868   3.485   0.815 -0.1973  0.0039 -0.2815
 3926ntf    cn120000   5.732   3.426   0.921 -0.1458  0.1763 -0.1188
 3926ntf    fn420001   5.796   3.212   0.432 -0.2053 -0.3863 -0.2480
 3926ntf    fn420002   5.761   3.040   0.551 -0.4545 -0.1594  0.6394
 3926ntf    fn420003   5.647   3.221   0.580 -0.1752  0.0517 -0.3550
 3926ntf    on520004   5.881   3.152   0.788 -0.1614 -0.1634  0.0360
 3926ntf    on520005   6.013   3.223   0.599 -0.8475 -0.4314 -0.7776
 3926ntf    on520006   5.825   3.619   0.785  0.1858  0.2162  0.0971
 3926ntf    on520007   5.984   3.461   0.898 -0.3962 -0.0380 -0.0116
 3926ntf    fn420008   5.702   3.513   1.016  0.1324  0.3761 -0.2115
 3926ntf    fn420009   5.620   3.402   0.855 -0.1435 -0.1379 -0.0106
 3926ntf    fn420010   5.763   3.309   0.975 -0.8132  0.1429  0.2066
 3927ntf    cn120011   2.699   5.829   5.764  0.5595  0.6981 -0.3861
 3927ntf    sn220012   2.673   5.681   5.867  0.6412  0.7752 -0.2550
 3927ntf    nn320013   2.586   5.732   5.988  0.4187 -0.4289  0.0993
 3927ntf    sn220014   2.615   5.734   6.142 -0.2728 -0.0539  0.2261
 3927ntf    cn120015   2.498   5.861   6.199  0.0043  0.2973  0.0131
 3927ntf    fn420016   2.731   5.792   5.641  0.4880 -0.2648 -0.1250
 3927ntf    fn420017   2.594   5.909   5.764 -0.1853 -0.2496  0.1819
 3927ntf    fn420018   2.797   5.903   5.814  0.5736  0.4312 -0.0107
 3927ntf    on520019   2.603   5.587   5.783  0.8179  0.3268  0.0935
 3927ntf    on520020   2.810   5.652   5.904  0.3571  0.3164  0.4656
 3927ntf    on520021   2.735   5.806   6.173  0.2176 -0.6982 -0.1466
 3927ntf    on520022   2.584   5.616   6.220 -0.4063 -0.2383 -0.1035
 3927ntf    fn420023   2.375   5.822   6.173  0.1367  0.1023 -0.3253
 3927ntf    fn420024   2.506   5.892   6.327  0.2442  0.3866 -0.0228
 3927ntf    fn420025   2.515   5.974   6.132 -0.2023  0.2877 -0.0548
 3928ntf    cn120026   2.812   0.940   3.249 -0.0606 -0.2679 -0.2683
 3928ntf    sn220027   2.827   1.034   3.094  0.0286 -0.4318 -0.3598
 3928ntf    nn320028   2.693   1.115   3.083 -0.0167 -0.4402  0.1046
 3928ntf    sn220029   2.579   1.088   2.979 -0.2949 -0.1847  0.3411
 3928ntf    cn120030   2.439   1.171   3.059 -0.4689 -0.1734  0.0248
 3928ntf    fn420031   2.923   0.878   3.288 -0.1814 -0.2719  0.0710
 3928ntf    fn420032   2.772   1.018   3.348  0.4845 -0.2036 -0.0932
 3928ntf    fn420033   2.720   0.846   3.240  0.1634 -0.5371  0.2179
 3928ntf    on520034   2.945   1.112   3.122  0.0196 -0.5759  0.0955
 3928ntf    on520035   2.832   0.938   2.987  0.2194 -1.0652  0.2066
 3928ntf    on520036   2.532   0.951   2.974  0.2541 -0.3738  0.2711
 3928ntf    on520037   2.584   1.162   2.856  0.3524 -0.3475  0.2678
 3928ntf    fn420038   2.412   1.107   3.172 -0.6058 -0.4761 -0.1785
 3928ntf    fn420039   2.465   1.295   3.097 -0.8816  0.0198 -0.3023
 3928ntf    fn420040   2.331   1.160   2.983 -0.2706 -0.2571 -0.2447
 3929ntf    cn120041   4.115   6.583   7.078 -0.2431 -0.2116 -0.1192
 3929ntf    sn220042   3.942   6.634   7.099 -0.1420  0.1048 -0.0460
 3929ntf    nn320043   3.957   6.706   7.238 -0.2384 -0.4518  0.2545
 3929ntf    sn220044   3.851   6.748   7.346 -0.0040  0.3102  0.1907
 3929ntf    cn120045   3.820   6.921   7.299  0.2350  0.4225  0.4380
 3929ntf    fn420046   4.140   6.492   7.170  0.3779  0.0766  0.0054
 3929ntf    fn420047   4.134   6.527   6.960  1.0494 -0.4034  0.1578
 3929ntf    fn420048   4.200   6.684   7.091 -0.6648  0.1274  0.0569
 3929ntf    on520049   3.927   6.727   6.990 -0.5050 -0.0902 -0.1616
 3929ntf    on520050   3.872   6.508   7.100  0.4766 -0.2400 -0.0592
 3929ntf    on520051   3.915   6.748   7.476  0.3342  0.1781  0.0272
 3929ntf    on520052   3.718   6.695   7.332 -0.1307  0.6764 -0.0059
 3929ntf    fn420053   3.929   6.994   7.284  0.1225  0.5135  0.0529
 3929ntf    fn420054   3.759   6.922   7.181  0.1834 -0.3668  0.4511
 3929ntf    fn420055   3.737   6.984   7.381 -0.1604 -0.1229  0.4624
 3930ntf    cn120056   2.711   6.479   4.107 -0.5277 -0.0490  0.4063
 3930ntf    sn220057   2.621   6.322   4.099 -0.1615 -0.2501  0.2098
 3930ntf    nn320058   2.550   6.334   3.959 -0.1420  0.1293  0.2315
 3930ntf    sn220059   2.412   6.266   3.927  0.0880 -0.3408  0.2304
 3930ntf    cn120060   2.466   6.186   3.772  0.2446  0.2552 -0.0285
 3930ntf    fn420061   2.731   6.519   4.232  0.0933 -0.1132  0.3306
 3930ntf    fn420062   2.828   6.480   4.045 -0.5000  0.3183  0.4639
 3930ntf    fn420063   2.643   6.572   4.042  0.2703  0.4635  0.2825
 3930ntf    on520064   2.725   6.223   4.086  0.2255  0.1470  0.2821
 3930ntf    on520065   2.541   6.312   4.218  0.1516  0.5070  0.4899
 3930ntf    on520066   2.310   6.358   3.884  0.4359  0.0907  0.3165
 3930ntf    on520067   2.372   6.154   4.008 -0.1105 -0.3289  0.1504
 3930ntf    fn420068   2.597   6.177   3.756  0.2289 -0.1241  0.0411
 3930ntf    fn420069   2.424   6.060   3.765  0.0570  0.3308 -0.2730
 3930ntf    fn420070   2.420   6.241   3.661 -0.3008 -0.5040 -0.1904
 3931ntf    cn120071   4.140   6.937   1.285 -0.2934  0.1936  0.1929
 3931ntf    sn220072   4.126   6.779   1.373 -0.0865 -0.0099 -0.1357
 3931ntf    nn320073   3.976   6.745   1.340 -0.0245 -0.3811 -0.0345
 3931ntf    sn220074   3.896   6.612   1.364 -0.3548 -0.1803 -0.0198
 3931ntf    cn120075   3.929   6.508   1.218  0.2345 -0.0424  0.0129
 3931ntf    fn420076   4.059   7.031   1.331 -0.7600 -0.3038  0.3941
 3931ntf    fn420077   4.259   6.993   1.300 -0.1509 -0.0803  0.0891
 3931ntf    fn420078   4.116   6.934   1.155  0.0708  0.0551  0.1259
 3931ntf    on520079   4.235   6.696   1.330  0.3202  0.0469  0.7668
 3931ntf    on520080   4.135   6.818   1.512 -1.0896  0.0982 -0.0925
 3931ntf    on520081   3.754   6.630   1.349 -0.3561 -0.1244  0.0573
 3931ntf    on520082   3.930   6.530   1.478 -0.1114  0.1134  0.1190
 3931ntf    fn420083   3.868   6.390   1.224  0.0742  0.0297 -0.1843
 3931ntf    fn420084   3.905   6.567   1.102  0.4164  0.0253  0.0092
 3931ntf    fn420085   4.058   6.482   1.208  0.2356  0.1151 -0.3905
 3932ntf    cn120086   7.075   1.926   0.795 -0.2291 -0.2206  0.2530
 3932ntf    sn220087   7.209   2.047   0.775 -0.0059 -0.4881  0.1236
 3932ntf    nn320088   7.215   2.055   0.619 -0.2162 -0.2643  0.1259
 3932ntf    sn220089   7.176   2.170   0.519  0.2753 -0.0428  0.1868
 3932ntf    cn120090   7.309   2.156   0.396 -0.2535  0.1321 -0.4080
 3932ntf    fn420091   7.090   1.818   0.721 -0.5348  0.2195 -0.4641
 3932ntf    fn420092   7.064   1.891   0.922  0.1881 -0.2944  0.2685
 3932ntf    fn420093   6.961   1.982   0.757 -0.0921 -0.3650 -0.3815
 3932ntf    on520094   7.161   2.159   0.852  0.4744 -0.2794  0.1225
 3932ntf    on520095   7.331   1.983   0.815  0.3164  0.4611  0.7079
 3932ntf    on520096   7.183   2.302   0.575 -0.1898 -0.1276  0.4506
 3932ntf    on520097   7.057   2.132   0.447 -0.2420  0.1470  0.9290
 3932ntf    fn420098   7.341   2.030   0.370  0.0182  0.1425 -0.1191
 3932ntf    fn420099   7.281   2.217   0.282  0.0927  0.5341 -0.2789
 3932ntf    fn420100   7.418   2.209   0.448 -0.3012 -0.8906  0.7594
 3933ntf    cn120101   1.650   2.707   3.931  0.0205  0.0533  0.1364
 3933ntf    sn220102   1.827   2.743   3.909 -0.0098  0.1662  0.0727
 3933ntf    nn320103   1.841   2.743   3.752  0.4773  0.5960  0.1122
 3933ntf    sn220104   1.850   2.859   3.647  0.3766  0.1557 -0.3898
 3933ntf    cn120105   1.779   2.770   3.506 -0.0309 -0.0773 -0.0408
 3933ntf    fn420106   1.603   2.714   4.054 -0.7068  0.4453 -0.1617
 3933ntf    fn420107   1.569   2.783   3.859  0.1406  0.2741  0.2336
 3933ntf    fn420108   1.608   2.587   3.894 -0.3321  0.0233  0.6364
 3933ntf    on520109   1.844   2.870   3.975  0.1259  0.1002  0.1665
 3933ntf    on520110   1.892   2.627   3.965  0.2696  0.4357  0.3109
 3933ntf    on520111   1.985   2.880   3.601  0.7220 -0.4638  0.3221
 3933ntf    on520112   1.759   2.968   3.673 -0.0556 -0.3177  0.1128
 3933ntf    fn420113   1.657   2.728   3.537 -0.0645 -0.0022 -0.0729
 3933ntf    fn420114   1.774   2.837   3.392  0.3173  0.1558  0.0805
 3933ntf    fn420115   1.845   2.660   3.474 -0.5186 -0.2568 -0.4446
 3934ntf    cn120116   5.590   4.436   0.389  0.0697 -0.0151 -0.4826
 3934ntf    sn220117   5.608   4.462   0.210 -0.3160 -0.0517 -0.5266
 3934ntf    nn320118   5.633   4.617   0.214  0.4581 -0.1898  0.2624
 3934ntf    sn220119   5.723   4.708   0.123 -0.0877 -0.1269 -0.2244
 3934ntf    cn120120   5.865   4.725   0.235 -0.0068  0.0249 -0.3498
 3934ntf    fn420121   5.526   4.322   0.407 -0.3590  0.2432 -0.3596
 3934ntf    fn420122   5.703   4.426   0.457 -0.0916 -0.0232 -0.2157
 3934ntf    fn420123   5.518   4.530   0.449  0.0779 -0.1811 -0.2148
 3934ntf    on520124   5.713   4.371   0.174 -0.1010  0.1374 -0.3806
 3934ntf    on520125   5.471   4.435   0.171 -0.6969  0.5498  0.3723
 3934ntf    on520126   5.682   4.846   0.118 -0.0292 -0.0978  0.0869
 3934ntf    on520127   5.772   4.649   0.001 -0.3431 -0.3250 -0.2327
 3934ntf    fn420128   5.931   4.610   0.237  0.1239  0.0902 -0.8250
 3934ntf    fn420129   5.954   4.821   0.212 -0.3728  0.4069 -0.1801
 3934ntf    fn420130   5.825   4.743   0.360  0.3205  0.1961 -0.2684
 3935ntf    cn120131   2.740   2.751   0.603  0.0220 -0.1303 -0.1198
 3935ntf    sn220132   2.598   2.655   0.665 -0.0863  0.2763  0.2711
 3935ntf    nn320133   2.583   2.724   0.805  0.6494  0.2262  0.3815
 3935ntf    sn220134   2.448   2.759   0.878  0.2421 -0.2530 -0.1371
 3935ntf    cn120135   2.414   2.602   0.964 -0.0122 -0.1095  0.0253
 3935ntf    fn420136   2.857   2.725   0.659 -0.0298  0.0280  0.0619
 3935ntf    fn420137   2.765   2.716   0.478  0.4161  0.0655 -0.0957
 3935ntf    fn420138   2.719   2.882   0.607  0.0259 -0.1364  0.1104
 3935ntf    on520139   2.505   2.673   0.557  0.1764  0.1776  0.0257
 3935ntf    on520140   2.650   2.521   0.682 -0.5644  0.0380 -0.1409
 3935ntf    on520141   2.328   2.765   0.798 -0.1489  0.1339  0.4710
 3935ntf    on520142   2.461   2.849   0.989  0.0290 -0.4750  0.0691
 3935ntf    fn420143   2.477   2.496   0.915  0.0403 -0.1811  0.2450
 3935ntf    fn420144   2.454   2.615   1.090 -0.1979 -0.0122  0.0739
 3935ntf    fn420145   2.287   2.570   0.975 -0.2446  0.7517 -0.0716
 3936ntf    cn120146   0.809   1.883   6.196  0.2137 -0.2399 -0.2432
 3936ntf    sn220147   0.640   1.902   6.133  0.0838  0.0694  0.1937
 3936ntf    nn320148   0.591   2.037   6.196  0.1897 -0.0624  0.5633
 3936ntf    sn220149   0.566   2.185   6.149  0.0659 -0.2082  0.1538
 3936ntf    cn120150   0.687   2.287   6.240  0.0303  0.0151 -0.0491
 3936ntf    fn420151   0.895   1.976   6.158  0.2721 -0.2121 -0.0466
 3936ntf    fn420152   0.824   1.878   6.327 -0.7645 -0.3847 -0.1324
 3936ntf    fn420153   0.860   1.771   6.147  0.0412 -0.0530 -0.8520
 3936ntf    on520154   0.671   1.901   5.992 -0.3365 -0.1813  0.1023
 3936ntf    on520155   0.564   1.789   6.180  0.4649 -0.3062 -0.0904
 3936ntf    on520156   0.441   2.241   6.192  0.0840  0.2603 -0.3986
 3936ntf    on520157   0.605   2.201   6.011  0.1513 -0.3024  0.1668
 3936ntf    fn420158   0.671   2.284   6.371 -0.1231 -0.1296 -0.0706
 3936ntf    fn420159   0.811   2.265   6.200  0.2811  0.4567  0.4784
 3936ntf    fn420160   0.669   2.414   6.210 -0.5022 -0.0730 -0.1142
 3937ntf    cn120161   3.202   4.849   0.323 -0.0625 -0.0989  0.0122
 3937ntf    sn220162   3.059   4.921   0.237  0.0831  0.0288 -0.1221
 3937ntf    nn320163   3.119   4.964   0.098  0.2319  0.0131 -0.0631
 3937ntf    sn220164   3.188   5.100   0.060  0.0013  0.1169 -0.1190
 3937ntf    cn120165   3.290   5.048  -0.082  0.0891  0.6281 -0.2445
 3937ntf    fn420166   3.174   4.783   0.435  0.0442 -0.2961 -0.0763
 3937ntf    fn420167   3.253   4.759   0.241 -0.1905 -0.0548 -0.1157
 3937ntf    fn420168   3.294   4.942   0.342 -0.0708 -0.0450 -0.2070
 3937ntf    on520169   2.958   4.819   0.217  0.4082 -0.3619  0.2218
 3937ntf    on520170   3.011   5.031   0.316  0.0113 -0.0587 -0.0440
 3937ntf    on520171   3.290   5.148   0.150 -0.5495  0.7311  0.1774
 3937ntf    on520172   3.092   5.196   0.014 -0.2679  0.0149  0.2262
 3937ntf    fn420173   3.363   5.151  -0.120  0.4222  0.3881 -0.2561
 3937ntf    fn420174   3.374   4.949  -0.058 -0.4183  0.1422 -0.4502
 3937ntf    fn420175   3.216   5.003  -0.182 -0.0805  0.2011  0.0656
 3938ntf    cn120176   4.581   0.479   0.203 -0.1949  0.5343  0.3454
 3938ntf    sn220177   4.677   0.383   0.083 -0.2816  0.5117  0.2946
 3938ntf    nn320178   4.765   0.500   0.027 -0.1881  0.2872 -0.0358
 3938ntf    sn220179   4.903   0.551   0.082  0.0899 -0.2791 -0.2039
 3938ntf    cn120180   4.928   0.692  -0.030  0.2330 -0.2106 -0.0864
 3938ntf    fn420181   4.549   0.407   0.310  0.3230 -0.4654 -0.1638
 3938ntf    fn420182   4.638   0.593   0.240  0.2803  0.3153  0.2844
 3938ntf    fn420183   4.468   0.525   0.152 -0.5672 -0.3395  0.3610
 3938ntf    on520184   4.746   0.285   0.163  0.1888  0.3002 -0.3598
 3938ntf    on520185   4.572   0.338  -0.006  0.1988 -0.3875  0.1728
 3938ntf    on520186   5.012   0.461   0.055  0.2341 -0.2174  0.1712
 3938ntf    on520187   4.900   0.611   0.213 -0.1085  0.0256 -0.3465
 3938ntf    fn420188   4.816   0.758  -0.056  0.2024 -0.0569  0.4221
 3938ntf    fn420189   5.009   0.785   0.019  0.4289 -0.0022 -0.7903
 3938ntf    fn420190   4.977   0.654  -0.147  0.5294 -0.2106  0.0384
 3939ntf    cn120191   2.802   5.223   3.973  0.2240  0.1719  0.1926
 3939ntf    sn220192   2.907   5.240   3.826  0.4072 -0.3014  0.2688
 3939ntf    nn320193   3.049   5.231   3.892  0.5968 -0.0531 -0.1041
 3939ntf    sn220194   3.169   5.333   3.887  0.1348  0.5042  0.0553
 3939ntf    cn120195   3.124   5.451   4.018 -0.0455  0.1545  0.3135
 3939ntf    fn420196   2.828   5.320   4.059  0.5119  0.3463 -0.0889
 3939ntf    fn420197   2.676   5.228   3.932  0.3068  0.3005 -0.0432
 3939ntf    fn420198   2.823   5.105   4.030  0.5080  0.2699  0.2910
 3939ntf    on520199   2.867   5.124   3.750 -0.6046  0.0350  0.2785
 3939ntf    on520200   2.865   5.363   3.764 -0.2716 -0.5956  0.1314
 3939ntf    on520201   3.184   5.413   3.768  0.6357  0.4465  0.0760
 3939ntf    on520202   3.288   5.271   3.941  0.2027  0.4157 -0.1946
 3939ntf    fn420203   3.199   5.560   4.032  0.5576 -0.3148  0.7650
 3939ntf    fn420204   2.999   5.490   4.003  0.0094  0.0547 -0.4414
 3939ntf    fn420205   3.133   5.390   4.135 -0.4183 -0.1176  0.2011
 3940ntf    cn120206   4.503   1.183   6.005 -0.3679  0.0966  0.0052
 3940ntf    sn220207   4.519   1.339   6.097 -0.1060 -0.0047  0.1354
 3940ntf    nn320208   4.402   1.416   6.024 -0.2300 -0.1848  0.1419
 3940ntf    sn220209   4.414   1.513   5.902 -0.0167  0.0357  0.3365
 3940ntf    cn120210   4.257   1.504   5.812  0.3099  0.0523 -0.2437
 3940ntf    fn420211   4.391   1.121   6.038 -0.3115 -0.3302 -0.5818
 3940ntf    fn420212   4.495   1.205   5.875  0.3681  0.1600 -0.0339
 3940ntf    fn420213   4.607   1.102   6.018  0.2044  0.8020 -0.1067
 3940ntf    on520214   4.476   1.299   6.228 -0.4525 -0.6860 -0.1811
 3940ntf    on520215   4.651   1.394   6.085 -0.0306 -0.3043 -0.4528
 3940ntf    on520216   4.515   1.475   5.806 -0.0406  0.6299  0.0709
 3940ntf    on520217   4.417   1.650   5.949 -0.6625  0.0469  0.3481
 3940ntf    fn420218   4.253   1.590   5.712 -0.0374 -0.6173 -0.8194
 3940ntf    fn420219   4.224   1.386   5.761 -0.0123 -0.0091  0.1034
 3940ntf    fn420220   4.156   1.535   5.892  0.4555 -0.1746  0.0311
 3941ntf    cn120221   7.083   1.200   1.014 -0.1006 -0.2714  0.6134
 3941ntf    sn220222   7.231   1.209   1.119  0.4821  0.0934 -0.2248
 3941ntf    nn320223   7.216   1.073   1.197  1.0268  0.1022 -0.1038
 3941ntf    sn220224   7.280   0.934   1.163  0.2097 -0.3216  0.0677
 3941ntf    cn120225   7.456   0.972   1.190  0.1345  0.1901 -0.1484
 3941ntf    fn420226   6.960   1.194   1.063 -0.6863  0.8940 -0.6458
 3941ntf    fn420227   7.079   1.315   0.947  0.5797 -0.4482  0.2610
 3941ntf    fn420228   7.088   1.110   0.917 -0.0055  0.3977 -0.0107
 3941ntf    on520229   7.347   1.216   1.034  1.1328 -0.5512  0.5930
 3941ntf    on520230   7.201   1.326   1.197  0.2762 -0.1867  0.1210
 3941ntf    on520231   7.268   0.897   1.024 -0.4654 -0.3191  0.1257
 3941ntf    on520232   7.241   0.831   1.256 -0.2366  0.0786  0.3232
 3941ntf    fn420233   7.529   0.862   1.199 -0.4234 -0.1914 -0.2202
 3941ntf    fn420234   7.517   1.031   1.088 -0.0029  0.5404 -0.0263
 3941ntf    fn420235   7.484   1.044   1.297  0.3458 -0.2021  0.0623
 3942ntf    cn120236   0.634   1.938   0.476 -0.3576  0.1135 -0.0384
 3942ntf    sn220237   0.519   1.826   0.390 -0.1111 -0.3100  0.1768
 3942ntf    nn320238   0.458   1.930   0.290  0.1841 -0.0511  0.2626
 3942ntf    sn220239   0.381   1.893   0.158 -0.0966  0.3871  0.3015
 3942ntf    cn120240   0.502   1.949   0.034  0.1691  0.0783  0.4215
 3942ntf    fn420241   0.581   2.035   0.548 -0.1165  0.2967 -0.1072
 3942ntf    fn420242   0.707   1.872   0.565 -0.3937 -0.0049 -0.0956
 3942ntf    fn420243   0.722   1.986   0.389 -0.0632  0.4230  0.4238
 3942ntf    on520244   0.614   1.731   0.338  0.1117 -0.3069  0.5754
 3942ntf    on520245   0.439   1.790   0.504 -0.2459 -0.5889 -0.0076
 3942ntf    on520246   0.270   1.982   0.132 -0.0277  0.2808 -0.3892
 3942ntf    on520247   0.364   1.753   0.131 -0.5426  0.4634  0.1804
 3942ntf    fn420248   0.514   2.081   0.030 -0.0620  0.0974  0.3774
 3942ntf    fn420249   0.621   1.893   0.050  0.0424 -0.3232 -0.0402
 3942ntf    fn420250   0.463   1.910  -0.086  0.3253 -0.1519  0.4455
 3943ntf    cn120251   3.059   1.375   0.642 -0.1007  0.2798 -0.4644
 3943ntf    sn220252   3.026   1.370   0.820 -0.2208  0.0881 -0.4926
 3943ntf    nn320253   3.043   1.216   0.848 -0.4294  0.1292 -0.1262
 3943ntf    sn220254   3.174   1.130   0.839 -0.4425  0.1243 -0.2724
 3943ntf    cn120255   3.144   1.019   0.698  0.0831 -0.1432 -0.1749
 3943ntf    fn420256   3.183   1.341   0.608 -0.0729  0.1204 -0.2079
 3943ntf    fn420257   2.979   1.293   0.576 -0.4284  0.0799  0.1770
 3943ntf    fn420258   3.031   1.496   0.595 -0.0570  0.5461  0.1800
 3943ntf    on520259   3.122   1.456   0.885 -0.2440 -0.2642  0.0163
 3943ntf    on520260   2.891   1.421   0.823 -0.2564 -0.0092 -0.4413
 3943ntf    on520261   3.179   1.041   0.952  0.4117 -0.1301 -0.5007
 3943ntf    on520262   3.299   1.191   0.802 -0.3740 -0.3234 -0.8019
 3943ntf    fn420263   3.256   0.956   0.664  0.0286 -0.2038 -0.2415
 3943ntf    fn420264   3.063   0.919   0.729  0.0335 -0.0124  0.1166
 3943ntf    fn420265   3.096   1.082   0.592 -0.2118  0.3805  0.2640
 3944ntf    cn120266   6.568   2.914   5.760  0.2944 -0.0410  0.3305
 3944ntf    sn220267   6.410   2.973   5.692  0.4542 -0.1493 -0.1348
 3944ntf    nn320268   6.365   3.043   5.825 -0.5182 -0.1826 -0.4355
 3944ntf    sn220269   6.290   2.972   5.944 -0.0819 -0.2007 -0.1669
 3944ntf    cn120270   6.120   3.016   5.897 -0.2511 -0.2456  0.4031
 3944ntf    fn420271   6.607   2.992   5.860 -0.0024  0.6417 -0.0839
 3944ntf    fn420272   6.559   2.790   5.806  0.4129  0.0841  0.6929
 3944ntf    fn420273   6.665   2.908   5.671  0.0192 -0.2386  0.0394
 3944ntf    on520274   6.444   3.073   5.593 -0.2613  0.1469 -0.0905
 3944ntf    on520275   6.338   2.854   5.656 -0.2522  0.0735  0.5054
 3944ntf    on520276   6.309   3.035   6.072  0.6304 -0.1442 -0.2928
 3944ntf    on520277   6.292   2.828   5.942 -0.4202 -0.2105  0.2064
 3944ntf    fn420278   6.076   2.950   5.792  0.1419 -0.6208  0.4700
 3944ntf    fn420279   6.034   2.985   5.993 -0.0692 -0.2330  0.5720
 3944ntf    fn420280   6.100   3.145   5.878 -0.4232 -0.3536 -0.1525
 3945ntf    cn120281   0.346   5.590   0.003 -0.1399  0.2015  0.0464
 3945ntf    sn220282   0.483   5.688   0.072  0.0037  0.0503 -0.0227
 3945ntf    nn320283   0.421   5.744   0.205 -0.0838 -0.4649  0.1553
 3945ntf    sn220284   0.352   5.884   0.224  0.4666 -0.1568 -0.0860
 3945ntf    cn120285   0.252   5.855   0.373  0.3994  0.3029 -0.0418
 3945ntf    fn420286   0.234   5.659  -0.009  0.0474  0.4830 -0.1058
 3945ntf    fn420287   0.366   5.551  -0.121 -0.3170  0.6778 -0.1354
 3945ntf    fn420288   0.316   5.485   0.078 -0.4459  0.1249 -0.1803
 3945ntf    on520289   0.583   5.588   0.097 -0.0625  0.0903  0.4140
 3945ntf    on520290   0.506   5.786  -0.031  0.1153  0.1439  0.0903
 3945ntf    on520291   0.250   5.918   0.128  0.9101  0.2135 -0.4298
 3945ntf    on520292   0.441   5.991   0.262  0.9911 -0.6801  0.1783
 3945ntf    fn420293   0.163   5.951   0.395 -0.2026 -0.1910 -0.3027
 3945ntf    fn420294   0.182   5.743   0.366  0.0333  0.5264 -0.0413
 3945ntf    fn420295   0.324   5.851   0.484  0.1580 -0.2550  0.0948
 3946ntf    cn120296   0.818   0.649   1.519  0.1660 -0.0654  0.7069
 3946ntf    sn220297   0.740   0.485   1.512  0.1894 -0.0443 -0.0701
 3946ntf    nn320298   0.654   0.482   1.380  0.0296 -0.2964  0.0394
 3946ntf    sn220299   0.670   0.407   1.244  0.0638 -0.0716 -0.0807
 3946ntf    cn120300   0.574   0.255   1.273  0.0324 -0.0009  0.1839
 3946ntf    fn420301   0.879   0.668   1.635  0.3662  0.0721  0.5804
 3946ntf    fn420302   0.908   0.657   1.423 -0.4281  0.0390  0.1480
 3946ntf    fn420303   0.734   0.750   1.500 -0.0288 -0.3686 -0.0422
 3946ntf    on520304   0.845   0.387   1.516  0.0567 -0.1981 -0.3122
 3946ntf    on520305   0.655   0.488   1.628  0.4163 -0.3690  0.1032
 3946ntf    on520306   0.808   0.376   1.213 -0.0053  0.0703 -0.5451
 3946ntf    on520307   0.589   0.482   1.151 -0.1325 -0.7111 -0.4347
 3946ntf    fn420308   0.622   0.185   1.374  0.1009  0.0800  0.2080
 3946ntf    fn420309   0.448   0.291   1.289 -0.0053 -0.0922  0.0932
 3946ntf    fn420310   0.583   0.178   1.166 -0.4136  0.7326 -0.3953
 3947ntf    cn120311   6.822   5.060   2.071  0.5173  0.3713 -0.4865
 3947ntf    sn220312   6.839   5.241   2.061  0.0228  0.4733  0.4233
 3947ntf    nn320313   6.829   5.269   1.907  0.2309 -0.0111  0.3194
 3947ntf    sn220314   6.739   5.372   1.829  0.1851 -0.1196  0.2274
 3947ntf    cn120315   6.621   5.251   1.763  0.0347  0.1285  0.0426
 3947ntf    fn420316   6.935   4.996   2.047  0.3750 -0.2661  0.4947
 3947ntf    fn420317   6.791   5.023   2.194  0.4972  0.0411 -0.5894
 3947ntf    fn420318   6.735   5.005   1.988  0.1813  0.2608 -0.0651
 3947ntf    on520319   6.733   5.291   2.145 -0.5576  0.7794 -0.4699
 3947ntf    on520320   6.973   5.256   2.110  0.1524  0.7058  0.0077
 3947ntf    on520321   6.808   5.429   1.716 -0.2199  0.1621  0.1239
 3947ntf    on520322   6.652   5.457   1.907  0.3764 -0.0021  0.3147
 3947ntf    fn420323   6.569   5.179   1.861 -0.4399 -0.1038 -0.3778
 3947ntf    fn420324   6.523   5.307   1.693 -0.2272 -0.2519  0.1035
 3947ntf    fn420325   6.684   5.161   1.691  0.4476 -0.0060  0.5679
 3948ntf    cn120326   0.098   1.434   2.798 -0.3267 -0.0047 -0.0100
 3948ntf    sn220327  -0.042   1.356   2.713 -0.2745 -0.0655 -0.0412
 3948ntf    nn320328   0.009   1.367   2.565  0.0507  0.1870  0.0891
 3948ntf    sn220329  -0.071   1.326   2.436  0.2022  0.1078  0.0196
 3948ntf    cn120330  -0.061   1.476   2.334  0.0452  0.3595  0.3703
 3948ntf    fn420331   0.068   1.476   2.919 -0.7879 -0.0306 -0.1149
 3948ntf    fn420332   0.200   1.350   2.805  0.0344  0.4092 -0.2149
 3948ntf    fn420333   0.142   1.542   2.735 -0.2310 -0.1448 -0.1866
 3948ntf    on520334  -0.034   1.227   2.775 -0.3116  0.1444  0.4005
 3948ntf    on520335  -0.145   1.451   2.747  0.0769  0.4465 -0.3776
 3948ntf    on520336  -0.214   1.310   2.454  0.1437  0.4773 -0.1101
 3948ntf    on520337   0.008   1.233   2.360 -0.2607  0.0137 -0.3535
 3948ntf    fn420338  -0.125   1.462   2.219  0.5221 -0.2634  0.1711
 3948ntf    fn420339  -0.128   1.576   2.389 -0.5200  0.3696 -0.3191
 3948ntf    fn420340   0.063   1.506   2.299 -0.0522  0.0242 -0.2789
 3949ntf    cn120341   2.120   3.265   6.640 -0.0784 -0.2293 -0.1936
 3949ntf    sn220342   2.001   3.199   6.761  0.1859 -0.0952  0.1416
 3949ntf    nn320343   1.870   3.218   6.678  0.5084 -0.2244 -0.3990
 3949ntf    sn220344   1.784   3.115   6.596 -0.3528  0.0138  0.1963
 3949ntf    cn120345   1.689   3.045   6.735  0.1265 -0.4140  0.3083
 3949ntf    fn420346   2.114   3.191   6.531 -0.0806  0.0925 -0.4123
 3949ntf    fn420347   2.101   3.389   6.600 -0.1265 -0.3035 -0.4003
 3949ntf    fn420348   2.242   3.250   6.691 -0.1276  0.3034  0.0840
 3949ntf    on520349   2.041   3.063   6.784 -0.1526 -0.1719  0.2767
 3949ntf    on520350   1.993   3.287   6.875  0.9410  0.1243  0.0307
 3949ntf    on520351   1.859   3.006   6.540 -0.0486  0.1998  0.2406
 3949ntf    on520352   1.684   3.174   6.510  0.2722 -0.0155 -0.5515
 3949ntf    fn420353   1.669   2.915   6.718  0.1772 -0.3051 -0.6424
 3949ntf    fn420354   1.751   3.054   6.852 -0.5709  0.0030  0.6520
 3949ntf    fn420355   1.577   3.111   6.758  0.2347 -0.3530  0.6623
 3950ntf    cn120356   3.766   3.981   5.919  0.1308  0.0387  0.2240
 3950ntf    sn220357   3.663   4.128   5.941  0.1066  0.0971 -0.2569
 3950ntf    nn320358   3.772   4.242   5.942 -0.0344  0.2327 -0.0405
 3950ntf    sn220359   3.843   4.309   5.819 -0.2344  0.0424 -0.2638
 3950ntf    cn120360   3.733   4.441   5.759 -0.0206  0.1971 -0.3177
 3950ntf    fn420361   3.818   3.980   5.797  0.3100 -0.1020  0.3008
 3950ntf    fn420362   3.871   3.960   5.997 -0.2177 -0.5231  0.5452
 3950ntf    fn420363   3.683   3.878   5.925  0.4019 -0.1716  0.4149
 3950ntf    on520364   3.570   4.121   5.831 -0.0828 -0.4678 -0.0633
 3950ntf    on520365   3.598   4.118   6.070 -0.0753  0.0912 -0.3478
 3950ntf    on520366   3.870   4.230   5.702  0.1915 -0.8916  0.4564
 3950ntf    on520367   3.954   4.389   5.866 -0.0515 -0.1420 -0.3837
 3950ntf    fn420368   3.610   4.401   5.729 -0.2912  0.6206  0.2299
 3950ntf    fn420369   3.723   4.529   5.857 -0.0639 -0.1469 -0.0136
 3950ntf    fn420370   3.787   4.498   5.652 -0.4594 -0.2424 -0.7841
 3951ntf    cn120371   3.804   2.429   0.478  0.1855 -0.0218 -0.3686
 3951ntf    sn220372   3.633   2.480   0.440  0.0851  0.0174  0.1242
 3951ntf    nn320373   3.637   2.465   0.284 -0.4992 -0.2068  0.1299
 3951ntf    sn220374   3.547   2.367   0.201 -0.3901 -0.2923  0.1139
 3951ntf    cn120375   3.389   2.456   0.189  0.1077  0.6142  0.1857
 3951ntf    fn420376   3.831   2.301   0.460  0.0113 -0.0502 -0.4330
 3951ntf    fn420377   3.887   2.495   0.400  0.3667  0.1280 -0.0545
 3951ntf    fn420378   3.842   2.448   0.604  0.0422 -0.0528 -0.3203
 3951ntf    on520379   3.550   2.387   0.513 -0.0894 -0.6821 -0.9347
 3951ntf    on520380   3.628   2.616   0.487 -0.1106 -0.0625  0.3389
 3951ntf    on520381   3.522   2.236   0.256 -0.0141 -0.5927 -0.4185
 3951ntf    on520382   3.592   2.364   0.063  0.1040  0.0258  0.2655
 3951ntf    fn420383   3.298   2.380   0.129  0.0967  0.6168  0.1995
 3951ntf    fn420384   3.345   2.492   0.308 -0.0958  0.4322  0.1658
 3951ntf    fn420385   3.382   2.568   0.118 -0.1837  0.2326 -0.3949
 3952ntf    cn120386   6.439   2.073   0.119 -0.4025  0.0439 -0.0669
 3952ntf    sn220387   6.482   2.190   0.251 -0.0924  0.1441 -0.2544
 3952ntf    nn320388   6.454   2.330   0.185 -0.4168  0.2598  0.1219
 3952ntf    sn220389   6.482   2.471   0.248 -0.1317  0.3795 -0.2690
 3952ntf    cn120390   6.316   2.541   0.271 -0.2269  0.2148 -0.4481
 3952ntf    fn420391   6.317   2.095   0.073 -0.2781 -0.0054 -0.4238
 3952ntf    fn420392   6.521   2.076   0.015 -0.0171  0.0845  0.2389
 3952ntf    fn420393   6.435   1.946   0.155 -0.2377 -0.0169 -0.2575
 3952ntf    on520394   6.388   2.172   0.359  0.2457 -0.0969 -0.0020
 3952ntf    on520395   6.624   2.169   0.264  0.0400  0.8055 -0.5494
 3952ntf    on520396   6.540   2.569   0.159  0.5006 -0.4279 -0.7644
 3952ntf    on520397   6.533   2.471   0.383 -0.1513 -0.0994 -0.2589
 3952ntf    fn420398   6.262   2.500   0.385  0.2455 -0.1681 -0.3573
 3952ntf    fn420399   6.334   2.672   0.278  0.1487  0.1665 -0.4666
 3952ntf    fn420400   6.234   2.518   0.170 -0.5687  0.3190 -0.1934
 3953ntf    cn120401   7.174   0.422   2.781 -0.3080  0.0614 -0.3370
 3953ntf    sn220402   7.317   0.469   2.680 -0.1472  0.2235 -0.0352
 3953ntf    nn320403   7.420   0.478   2.798  0.0888  0.0034 -0.2235
 3953ntf    sn220404   7.547   0.389   2.820 -0.1662 -0.2307  0.3418
 3953ntf    cn120405   7.665   0.462   2.702 -0.5579 -0.1377  0.0030
 3953ntf    fn420406   7.202   0.331   2.874 -0.4887  0.3102 -0.0378
 3953ntf    fn420407   7.118   0.526   2.841  0.2258 -0.3051  0.8364
 3953ntf    fn420408   7.078   0.362   2.712 -0.2066 -0.0512 -0.3799
 3953ntf    on520409   7.331   0.371   2.575 -0.1569 -0.2352  0.3904
 3953ntf    on520410   7.275   0.603   2.646  0.0198  0.1586 -0.5084
 3953ntf    on520411   7.545   0.252   2.773  0.3618 -0.2429  0.3418
 3953ntf    on520412   7.613   0.417   2.945  0.9714  0.5138 -0.4006
 3953ntf    fn420413   7.720   0.575   2.743  0.0365 -0.4297  0.0235
 3953ntf    fn420414   7.764   0.377   2.682  0.0670  0.3955  0.7302
 3953ntf    fn420415   7.612   0.491   2.585  0.2245 -0.0552 -0.3411
 3954ntf    cn120416   3.952   4.457   5.350 -0.3419  0.5038  0.2073
 3954ntf    sn220417   4.065   4.415   5.214 -0.0096  0.1811  0.5803
 3954ntf    nn320418   4.076   4.258   5.209  0.1165  0.2017  0.1908
 3954ntf    sn220419   4.204   4.168   5.225 -0.0180  0.0056  0.1662
 3954ntf    cn120420   4.116   4.015   5.269 -0.3235  0.1146 -0.0596
 3954ntf    fn420421   3.825   4.424   5.339 -0.2590  0.3383 -0.3084
 3954ntf    fn420422   4.000   4.400   5.459  0.3267 -0.2405 -0.4588
 3954ntf    fn420423   3.957   4.586   5.377 -0.5079  0.4031  0.7286
 3954ntf    on520424   3.995   4.461   5.096  0.2446 -0.3742  0.2054
 3954ntf    on520425   4.190   4.482   5.241  0.4217 -0.5546  0.4556
 3954ntf    on520426   4.295   4.184   5.335  0.1390  1.0515 -0.1041
 3954ntf    on520427   4.261   4.133   5.097  0.0606  0.0271  0.1958
 3954ntf    fn420428   4.046   4.041   5.377  0.4614  0.3861  0.3944
 3954ntf    fn420429   4.027   3.974   5.181 -0.3799  0.8280 -0.3461
 3954ntf    fn420430   4.199   3.918   5.302  0.2517  0.5690 -0.1421
 3955ntf    cn120431   1.206   6.868   6.398 -0.9459  0.0133 -0.3162
 3955ntf    sn220432   1.193   7.047   6.366  0.0004  0.0634 -0.4426
 3955ntf    nn320433   1.057   7.088   6.432 -0.0057 -0.3488 -0.1996
 3955ntf    sn220434   0.913   7.088   6.370 -0.2188 -0.4736  0.2883
 3955ntf    cn120435   0.879   7.264   6.339  0.2774 -0.4525 -0.1330
 3955ntf    fn420436   1.123   6.785   6.336 -0.5380 -0.2398 -0.5233
 3955ntf    fn420437   1.325   6.816   6.372 -0.5661  0.6630  0.1003
 3955ntf    fn420438   1.176   6.838   6.523 -0.0592  0.0866 -0.0827
 3955ntf    on520439   1.304   7.097   6.443 -0.0257 -0.6853  0.0930
 3955ntf    on520440   1.200   7.059   6.222  0.0332  0.1423 -0.4349
 3955ntf    on520441   0.813   7.051   6.468  0.0019 -0.2873  0.5841
 3955ntf    on520442   0.907   7.020   6.243  0.4499 -0.1768  0.0944
 3955ntf    fn420443   0.886   7.343   6.445  0.6147 -0.1949 -0.3425
 3955ntf    fn420444   0.957   7.318   6.246  0.1363  0.2282  0.1325
 3955ntf    fn420445   0.758   7.276   6.287  0.2726  0.4794  0.0736
 3956ntf    cn120446   2.961   5.789   0.899  0.5082  0.2379  0.1203
 3956ntf    sn220447   3.020   5.619   0.878 -0.0018  0.0643  0.0745
 3956ntf    nn320448   3.091   5.585   1.014 -0.1303  0.0274  0.1325
 3956ntf    sn220449   3.033   5.512   1.140 -0.2543 -0.3685 -0.1542
 3956ntf    cn120450   3.069   5.337   1.104 -0.3870 -0.4586  0.1510
 3956ntf    fn420451   3.063   5.872   0.911  0.6517  0.0364  0.2904
 3956ntf    fn420452   2.882   5.838   0.804  0.3172 -0.0380  0.1368
 3956ntf    fn420453   2.891   5.798   1.011  0.1033 -0.0914 -0.1017
 3956ntf    on520454   2.905   5.540   0.841  0.0375  0.5830 -1.1875
 3956ntf    on520455   3.125   5.639   0.781  0.1519 -0.0590  0.2125
 3956ntf    on520456   2.890   5.516   1.151 -0.2934  0.3179 -0.8732
 3956ntf    on520457   3.113   5.541   1.257 -0.4892 -0.3941  0.0131
 3956ntf    fn420458   3.198   5.313   1.089 -0.2888  0.0183  0.2204
 3956ntf    fn420459   3.018   5.258   1.198 -0.5004 -0.2496  0.2677
 3956ntf    fn420460   3.005   5.303   0.993  0.2143 -0.0277 -0.3333
 3957ntf    cn120461   5.767   2.630   1.586 -0.3633 -0.3431 -0.1581
 3957ntf    sn220462   5.621   2.585   1.684 -0.3760  0.1373  0.0476
 3957ntf    nn320463   5.545   2.482   1.593  0.2630 -0.3046  0.0047
 3957ntf    sn220464   5.468   2.351   1.634  0.0378 -0.2153 -0.1268
 3957ntf    cn120465   5.595   2.221   1.636 -0.0449 -0.3008 -0.4320
 3957ntf    fn420466   5.740   2.661   1.461 -0.2888 -0.1950 -0.1375
 3957ntf    fn420467   5.838   2.729   1.636 -0.2343 -0.4011 -0.2259
 3957ntf    fn420468   5.848   2.526   1.572 -0.1974 -0.3112  0.5249
 3957ntf    on520469   5.673   2.536   1.809 -0.4907  0.1617  0.1053
 3957ntf    on520470   5.544   2.707   1.688 -0.4765  0.0700  0.1767
 3957ntf    on520471   5.371   2.303   1.539 -0.0794 -0.5928  0.1806
 3957ntf    on520472   5.419   2.354   1.770  0.2306  0.2283 -0.0636
 3957ntf    fn420473   5.668   2.226   1.526  1.0612  0.2160  0.3056
 3957ntf    fn420474   5.681   2.249   1.732 -0.3568  0.9513 -0.4912
 3957ntf    fn420475   5.542   2.101   1.654 -0.4054 -0.0267  0.4100
 3958ntf    cn120476   2.772   1.329   0.296  0.3634 -0.2068 -0.1992
 3958ntf    sn220477   2.677   1.287   0.147 -0.0679 -0.1004  0.0450
 3958ntf    nn320478   2.534   1.331   0.196 -0.0057 -0.1852  0.3030
 3958ntf    sn220479   2.405   1.245   0.219 -0.0546 -0.2205 -0.0967
 3958ntf    cn120480   2.432   1.206   0.395 -0.2345 -0.0756 -0.0368
 3958ntf    fn420481   2.902   1.324   0.270  0.3644  0.0023 -0.2390
 3958ntf    fn420482   2.736   1.447   0.343 -0.3039 -0.4154 -0.1743
 3958ntf    fn420483   2.757   1.245   0.398  0.4564 -0.1773 -0.1609
 3958ntf    on520484   2.736   1.373   0.048  0.1946 -0.4765 -0.1287
 3958ntf    on520485   2.698   1.145   0.133  0.1943 -0.0111 -0.4678
 3958ntf    on520486   2.401   1.113   0.161 -0.1272 -0.2364 -0.0568
 3958ntf    on520487   2.283   1.322   0.218  0.0098 -0.1194 -0.1478
 3958ntf    fn420488   2.334   1.135   0.448  0.0006 -0.0662  0.4165
 3958ntf    fn420489   2.541   1.133   0.415 -0.2011 -0.1250 -0.3818
 3958ntf    fn420490   2.435   1.317   0.466  0.0846 -0.0306 -0.1185
 3959ntf    cn120491   7.126   3.600   0.328  0.0681  0.2357  0.0536
 3959ntf    sn220492   6.966   3.543   0.262  0.1393 -0.2019  0.2544
 3959ntf    nn320493   7.015   3.496   0.120 -0.6252 -0.2070 -0.0127
 3959ntf    sn220494   6.986   3.587  -0.004 -0.1115 -0.2040 -0.1320
 3959ntf    cn120495   7.088   3.504  -0.130  0.4134  0.1732  0.0380
 3959ntf    fn420496   7.201   3.668   0.244  0.5435 -0.0378  0.2534
 3959ntf    fn420497   7.104   3.691   0.421 -0.9469 -0.0748  0.1321
 3959ntf    fn420498   7.204   3.504   0.376  0.0547  0.2597  0.1220
 3959ntf    on520499   6.928   3.428   0.341  0.2382 -0.4676 -0.0791
 3959ntf    on520500   6.882   3.660   0.267  0.6320  0.1632  0.1254
 3959ntf    on520501   7.049   3.717   0.004 -0.2343 -0.1535  0.0138
 3959ntf    on520502   6.855   3.569  -0.062  0.1298 -0.5593 -0.5717
 3959ntf    fn420503   7.034   3.388  -0.167 -0.1111  0.3620  0.1978
 3959ntf    fn420504   7.092   3.572  -0.243 -0.0050  0.1139 -0.0156
 3959ntf    fn420505   7.218   3.498  -0.108  0.4784 -0.2865 -0.4582
 3960ntf    cn120506   6.642   5.797   6.758  0.1665 -0.2373  0.0224
 3960ntf    sn220507   6.499   5.879   6.682  0.4339 -0.0624 -0.2928
 3960ntf    nn320508   6.490   5.801   6.546 -0.5602  0.0697 -0.3060
 3960ntf    sn220509   6.553   5.832   6.406  0.1719  0.0280  0.0115
 3960ntf    cn120510   6.406   5.915   6.338  0.2268 -0.2182 -0.4126
 3960ntf    fn420511   6.686   5.877   6.854  0.1767  0.2407 -0.3790
 3960ntf    fn420512   6.615   5.680   6.815 -0.4821  0.2199  0.6616
 3960ntf    fn420513   6.750   5.774   6.684  0.1722  0.1936 -0.1031
 3960ntf    on520514   6.392   5.840   6.769  0.1865 -0.2983 -0.7005
 3960ntf    on520515   6.538   6.018   6.675  0.1239  0.0369 -0.0863
 3960ntf    on520516   6.566   5.713   6.326 -0.2002  0.2126 -0.3254
 3960ntf    on520517   6.660   5.929   6.400  0.2684 -0.1270 -0.9252
 3960ntf    fn420518   6.303   5.834   6.321 -0.8582  0.9534  0.4371
 3960ntf    fn420519   6.366   6.014   6.415  0.4903 -0.2596 -0.2229
 3960ntf    fn420520   6.441   5.969   6.223  0.3513  0.4411 -0.0679
 3961ntf    cn120521   4.150   4.436   1.159 -0.2241  0.1897  0.1560
 3961ntf    sn220522   3.986   4.396   1.225 -0.0779 -0.2698  0.2451
 3961ntf    nn320523   3.888   4.478   1.134  0.2796 -0.1889 -0.0700
 3961ntf    sn220524   3.842   4.628   1.145  0.2842 -0.1993  0.0939
 3961ntf    cn120525   3.663   4.622   1.175  0.1711  0.2764 -0.4697
 3961ntf    fn420526   4.137   4.485   1.037  0.1953  0.1592  0.0955
 3961ntf    fn420527   4.218   4.533   1.218 -0.6452  0.7027 -0.1951
 3961ntf    fn420528   4.233   4.333   1.157  0.1564  0.4895  0.2865
 3961ntf    on520529   3.988   4.253   1.202  0.8731 -0.2090 -0.0923
 3961ntf    on520530   3.998   4.432   1.364 -0.3643 -0.0022  0.2018
 3961ntf    on520531   3.849   4.694   1.017 -0.2154  0.9374  0.6346
 3961ntf    on520532   3.899   4.699   1.257 -0.1748 -0.4472  0.4881
 3961ntf    fn420533   3.616   4.547   1.077 -0.3853  0.2520 -0.1841
 3961ntf    fn420534   3.633   4.561   1.288  0.1907  0.1850 -0.5144
 3961ntf    fn420535   3.598   4.737   1.183 -0.4144 -0.0952  0.2865
 3962ntf    cn120536   7.215   4.147   3.764 -0.1167 -0.2537  0.3548
 3962ntf    sn220537   7.168   4.013   3.651  0.2514 -0.0616 -0.0288
 3962ntf    nn320538   7.088   4.098   3.546 -0.0909 -0.2679  0.0641
 3962ntf    sn220539   7.051   4.059   3.399  0.1332 -0.1411 -0.0254
 3962ntf    cn120540   6.870   4.053   3.415  0.0942 -0.2065 -0.4575
 3962ntf    fn420541   7.106   4.220   3.779  0.0476  0.1956 -0.5884
 3962ntf    fn420542   7.259   4.112   3.884 -0.2118  0.6998  0.6757
 3962ntf    fn420543   7.307   4.225   3.710 -0.3970  0.0771  0.3510
 3962ntf    on520544   7.297   3.966   3.605  0.2858 -0.5418  0.5450
 3962ntf    on520545   7.091   3.921   3.731  0.3488  0.0720  0.2188
 3962ntf    on520546   7.100   3.928   3.363  0.3135 -0.2740  0.6991
 3962ntf    on520547   7.066   4.171   3.309  0.6329 -0.0889  0.1224
 3962ntf    fn420548   6.816   4.173   3.434  0.0723 -0.3937  0.7799
 3962ntf    fn420549   6.821   4.007   3.302  0.1037 -0.6129 -0.2982
 3962ntf    fn420550   6.821   3.971   3.506  0.0066  0.0785 -0.2463
 3963ntf    cn120551   2.683   5.992   6.730  0.0769  0.1325 -0.4649
 3963ntf    sn220552   2.813   6.078   6.824 -0.1128  0.0750 -0.1448
 3963ntf    nn320553   2.725   6.147   6.933  0.6336  0.1118  0.4405
 3963ntf    sn220554   2.714   6.300   6.969 -0.0916  0.2322 -0.2652
 3963ntf    cn120555   2.649   6.302   7.138 -0.0688  0.0865 -0.2554
 3963ntf    fn420556   2.733   5.918   6.633  0.1026 -0.2731 -0.1470
 3963ntf    fn420557   2.623   5.903   6.807  0.8701  0.1718  0.2110
 3963ntf    fn420558   2.602   6.080   6.675 -0.1762  0.1896 -0.0092
 3963ntf    on520559   2.893   5.968   6.872 -0.0811  0.0440 -0.2672
 3963ntf    on520560   2.878   6.164   6.727 -0.0826 -0.0607 -0.2458
 3963ntf    on520561   2.606   6.374   6.908 -0.0734  0.3023 -0.2124
 3963ntf    on520562   2.841   6.368   6.979  0.2604 -0.5041  0.3686
 3963ntf    fn420563   2.518   6.289   7.155 -0.0334  0.0783  0.0240
 3963ntf    fn420564   2.707   6.213   7.218  0.4261  0.2101 -0.4714
 3963ntf    fn420565   2.668   6.417   7.201 -0.4496 -0.0160  0.0543
 3964ntf    cn120566   4.688   4.305   0.699  0.3584  0.3683  0.2280
 3964ntf    sn220567   4.748   4.475   0.721  0.1220  0.4826 -0.0051
 3964ntf    nn320568   4.667   4.505   0.852  0.1352  0.0095  0.1126
 3964ntf    sn220569   4.709   4.525   1.002  0.3434 -0.0727  0.0657
 3964ntf    cn120570   4.583   4.647   1.051  0.1512 -0.3546  0.2772
 3964ntf    fn420571   4.559   4.283   0.717  0.3720 -0.1168 -0.2413
 3964ntf    fn420572   4.709   4.269   0.573 -0.2180  0.0440  0.2232
 3964ntf    fn420573   4.747   4.218   0.780  0.4555  0.1952 -0.0266
 3964ntf    on520574   4.888   4.440   0.732 -0.0595 -0.1930  0.2140
 3964ntf    on520575   4.706   4.537   0.598  0.6614  0.9136  0.0199
 3964ntf    on520576   4.838   4.579   1.036  0.4131 -0.3295  0.2129
 3964ntf    on520577   4.672   4.408   1.078 -0.1694  0.1030  0.0946
 3964ntf    fn420578   4.569   4.666   1.181  0.4960  0.5689  0.1858
 3964ntf    fn420579   4.611   4.771   1.015 -0.4881 -0.3405 -0.1831
 3964ntf    fn420580   4.465   4.629   0.995  0.4629  0.2762 -0.5973
 3965ntf    cn120581   4.115   1.318   1.225 -0.1564 -0.0352 -0.1255
 3965ntf    sn220582   4.135   1.149   1.289  0.3423  0.2618  0.5162
 3965ntf    nn320583   4.203   1.084   1.163 -0.5396 -0.2899  0.3112
 3965ntf    sn220584   4.188   0.937   1.111 -0.2512 -0.2340  0.0702
 3965ntf    cn120585   4.036   0.958   1.013 -0.1087  0.0631 -0.0894
 3965ntf    fn420586   4.047   1.320   1.112  0.3626  0.2285 -0.4382
 3965ntf    fn420587   4.052   1.396   1.311  0.7326 -0.0251  0.5308
 3965ntf    fn420588   4.230   1.378   1.200 -0.1618  0.1255  0.2323
 3965ntf    on520589   4.233   1.159   1.394  0.1259 -0.2500  0.7681
 3965ntf    on520590   4.004   1.100   1.323  0.5067 -0.5977 -0.0364
 3965ntf    on520591   4.150   0.836   1.206  0.3084 -0.3915  0.1349
 3965ntf    on520592   4.286   0.897   1.012  0.1049 -0.2862  0.4419
 3965ntf    fn420593   4.021   1.082   0.969 -1.0422  0.0110  0.0710
 3965ntf    fn420594   4.039   0.890   0.900 -0.1198 -0.2017  0.0694
 3965ntf    fn420595   3.927   0.922   1.078 -0.4128  0.2570 -0.4949
 3966ntf    cn120596   0.260   4.551   4.424  0.3081 -0.0829 -0.0686
 3966ntf    sn220597   0.414   4.617   4.494  0.1692 -0.0691  0.2240
 3966ntf    nn320598   0.485   4.481   4.529 -0.1915 -0.2044  0.4336
 3966ntf    sn220599   0.527   4.408   4.662 -0.3431 -0.5552  0.2894
 3966ntf    cn120600   0.369   4.324   4.694 -0.5721 -0.2305  0.0228
 3966ntf    fn420601   0.277   4.508   4.300 -0.3108 -0.3052 -0.0789
 3966ntf    fn420602   0.196   4.453   4.486  0.2245  0.0478  0.0504
 3966ntf    fn420603   0.166   4.644   4.419  0.2602 -0.1164  0.2268
 3966ntf    on520604   0.473   4.681   4.380 -0.2568  0.5556  0.3477
 3966ntf    on520605   0.364   4.705   4.597 -0.2919  0.6167 -0.5747
 3966ntf    on520606   0.544   4.486   4.782  0.0622  0.3552 -0.3428
 3966ntf    on520607   0.618   4.300   4.634  0.3841  0.2824 -0.6566
 3966ntf    fn420608   0.317   4.257   4.592 -0.2138  0.4004 -0.5805
 3966ntf    fn420609   0.388   4.242   4.796  0.0618  0.0666  0.1502
 3966ntf    fn420610   0.285   4.420   4.730  0.0429  0.3671 -0.1063
 3967ntf    cn120611   3.547   1.862   5.554 -0.0353 -0.0034  0.2942
 3967ntf    sn220612   3.624   1.713   5.484  0.0201  0.2581 -0.2048
 3967ntf    nn320613   3.775   1.747   5.510  0.0877 -0.1929  0.0110
 3967ntf    sn220614   3.874   1.810   5.405 -0.0491  0.0497  0.0248
 3967ntf    cn120615   4.031   1.793   5.495 -0.0460  0.1584  0.0405
 3967ntf    fn420616   3.415   1.859   5.542  0.0106 -0.1869 -0.1906
 3967ntf    fn420617   3.574   1.876   5.683  0.2969 -0.7041  0.3035
 3967ntf    fn420618   3.600   1.969   5.499  0.0769 -0.1583  0.0996
 3967ntf    on520619   3.585   1.607   5.574 -0.1891  0.6140  0.1240
 3967ntf    on520620   3.583   1.718   5.346  0.0846 -0.4310 -0.2521
 3967ntf    on520621   3.856   1.951   5.385 -0.6275 -0.0507 -0.1633
 3967ntf    on520622   3.891   1.721   5.293 -0.0332  0.3810 -0.2359
 3967ntf    fn420623   4.094   1.677   5.485 -0.2201  0.0452  0.2310
 3967ntf    fn420624   4.123   1.882   5.461 -0.0107  0.1584  0.1343
 3967ntf    fn420625   4.014   1.820   5.624  0.6202  0.2388  0.1143
 3968ntf    cn120626   4.818   7.210   1.910 -0.0228 -0.3318 -0.2161
 3968ntf    sn220627   4.962   7.160   1.811 -0.0162 -0.3794 -0.1821
 3968ntf    nn320628   5.038   7.297   1.830 -0.0350 -0.3138 -0.5766
 3968ntf    sn220629   5.067   7.406   1.721  0.0740  0.3378  0.1009
 3968ntf    cn120630   4.916   7.506   1.728 -0.0087  0.2265 -0.1133
 3968ntf    fn420631   4.738   7.295   1.847  0.0419  0.0958  0.2683
 3968ntf    fn420632   4.737   7.113   1.949  0.1495 -0.4626 -0.1863
 3968ntf    fn420633   4.855   7.276   2.019  0.1516 -0.0219 -0.4609
 3968ntf    on520634   5.033   7.062   1.890  0.2503  0.3995  0.5712
 3968ntf    on520635   4.908   7.128   1.682 -0.1542 -0.8462 -0.0107
 3968ntf    on520636   5.067   7.352   1.588  0.3667 -0.0010  0.2336
 3968ntf    on520637   5.177   7.487   1.767  0.7124 -0.6972  0.4382
 3968ntf    fn420638   4.805   7.438   1.703  0.5072 -0.6597  0.0124
 3968ntf    fn420639   4.891   7.559   1.847  0.3218 -0.5336  0.2973
 3968ntf    fn420640   4.921   7.606   1.641  0.3023  0.3014 -0.0085
 3969ntf    cn120641   4.871   0.187   2.822 -0.1762 -0.2594  0.1354
 3969ntf    sn220642   4.939   0.317   2.714 -0.0131 -0.2422  0.2592
 3969ntf    nn320643   4.920   0.236   2.581  0.2250  0.2239 -0.0611
 3969ntf    sn220644   5.033   0.188   2.483 -0.2825 -0.3949 -0.3493
 3969ntf    cn120645   5.047   0.327   2.367 -0.0265 -0.1610 -0.0396
 3969ntf    fn420646   4.743   0.174   2.792 -0.0159 -0.4308 -0.5018
 3969ntf    fn420647   4.941   0.076   2.810 -0.8728 -0.6963  0.0727
 3969ntf    fn420648   4.887   0.217   2.950  0.2851  0.2097 -0.0275
 3969ntf    on520649   4.844   0.426   2.723  0.0687 -0.1698  0.2447
 3969ntf    on520650   5.068   0.346   2.771  0.2105  0.0678 -0.4013
 3969ntf    on520651   5.004   0.070   2.406 -0.2192 -0.6787  0.0567
 3969ntf    on520652   5.165   0.199   2.540 -0.5311  0.1405  0.1365
 3969ntf    fn420653   4.952   0.337   2.276 -0.2730  0.2001  0.2552
 3969ntf    fn420654   5.049   0.441   2.434 -0.4449 -0.4494  0.4715
 3969ntf    fn420655   5.159   0.325   2.297  0.0536  0.0774  0.0791
 3970ntf    cn120656   3.961   0.701   6.832  0.0543  0.1672 -0.1443
 3970ntf    sn220657   3.915   0.723   6.657  0.2236  0.3967 -0.1603
 3970ntf    nn320658   4.046   0.793   6.606  0.5362  0.1424  0.2836
 3970ntf    sn220659   4.063   0.919   6.514  0.2761 -0.0742 -0.0639
 3970ntf    cn120660   4.153   0.838   6.378  0.3617  0.0634 -0.0887
 3970ntf    fn420661   3.859   0.661   6.906 -0.2015  0.3253 -0.4076
 3970ntf    fn420662   4.064   0.620   6.850  0.3233  0.4186 -0.5269
 3970ntf    fn420663   3.991   0.819   6.883 -0.3786  0.1210  0.2209
 3970ntf    on520664   3.903   0.590   6.602 -0.1616  0.3147  0.1151
 3970ntf    on520665   3.793   0.799   6.665 -0.0511 -0.0813  0.2669
 3970ntf    on520666   4.170   1.006   6.554 -0.1592  0.5179 -0.1732
 3970ntf    on520667   3.944   0.971   6.450  0.1590 -0.2177  0.0360
 3970ntf    fn420668   4.085   0.738   6.325 -0.6376  0.6849 -0.0014
 3970ntf    fn420669   4.188   0.922   6.281  0.3774  0.1678  0.0066
 3970ntf    fn420670   4.267   0.778   6.407  0.3904  0.2795  0.2428
 3971ntf    cn120671   0.278   3.008   0.684  0.3267  0.3493  0.1422
 3971ntf    sn220672   0.285   3.009   0.502 -0.0940 -0.2878  0.1205
 3971ntf    nn320673   0.287   3.164   0.479  0.0014 -0.3693 -0.4390
 3971ntf    sn220674   0.410   3.256   0.446 -0.1104  0.0989  0.4079
 3971ntf    cn120675   0.417   3.249   0.264 -0.3283  0.3065  0.3921
 3971ntf    fn420676   0.240   2.889   0.727  0.2120  0.5538  0.6002
 3971ntf    fn420677   0.388   3.041   0.750  0.5238 -0.3401  0.1647
 3971ntf    fn420678   0.184   3.089   0.728  0.1692  0.2272  0.0335
 3971ntf    on520679   0.411   2.943   0.475  0.3028  0.6911 -0.4795
 3971ntf    on520680   0.160   2.948   0.464 -0.3572  0.2862  0.0586
 3971ntf    on520681   0.534   3.205   0.500 -0.2865 -0.1564  0.5747
 3971ntf    on520682   0.381   3.394   0.472 -0.0838  0.3044 -0.5944
 3971ntf    fn420683   0.517   3.320   0.216 -0.2116 -0.7910 -1.0284
 3971ntf    fn420684   0.438   3.126   0.219 -0.0984  0.3566  0.3657
 3971ntf    fn420685   0.305   3.296   0.212 -0.3350  0.0535  0.1737
 3972ntf    cn120686   5.914   1.290   6.370 -0.1983 -0.6629  0.0862
 3972ntf    sn220687   5.916   1.115   6.420  0.1400 -0.7774 -0.3182
 3972ntf    nn320688   5.842   1.129   6.558  0.8321 -0.6225  0.0439
 3972ntf    sn220689   5.780   1.023   6.656 -0.1674 -0.3363 -0.2645
 3972ntf    cn120690   5.605   1.069   6.637  0.0653  0.4812 -0.4454
 3972ntf    fn420691   5.960   1.304   6.247 -0.6447 -0.1774 -0.0282
 3972ntf    fn420692   5.800   1.354   6.386  0.3143  0.3278 -0.1710
 3972ntf    fn420693   5.996   1.350   6.454 -0.2519  0.3252 -0.5601
 3972ntf    on520694   5.842   1.048   6.316 -0.0161 -0.0646 -0.6711
 3972ntf    on520695   6.058   1.089   6.430  0.2982 -0.0030 -0.4742
 3972ntf    on520696   5.815   1.054   6.793  1.2966 -0.8519 -0.5004
 3972ntf    on520697   5.793   0.884   6.622 -0.3733 -0.2300 -0.7736
 3972ntf    fn420698   5.523   0.995   6.709  1.2139 -0.2051  0.1789
 3972ntf    fn420699   5.591   1.194   6.678  0.5785  0.2274  0.5357
 3972ntf    fn420700   5.561   1.052   6.513  0.0148 -0.5646 -0.2916
 3973ntf    cn120701   5.123   1.096   0.105 -0.1824  0.0364  0.3677
 3973ntf    sn220702   5.127   1.274   0.068 -0.0750 -0.0727 -0.1466
 3973ntf    nn320703   5.118   1.274  -0.089  0.0391 -0.3546 -0.1548
 3973ntf    sn220704   5.151   1.388  -0.192 -0.3504 -0.2028 -0.1131
 3973ntf    cn120705   5.301   1.312  -0.260 -0.2069  0.1117 -0.1470
 3973ntf    fn420706   5.101   1.070   0.233 -0.2570  0.0982  0.3673
 3973ntf    fn420707   5.038   1.029   0.029 -0.1224  0.5306 -0.1366
 3973ntf    fn420708   5.240   1.046   0.069 -0.2990 -0.0088  0.0484
 3973ntf    on520709   5.013   1.329   0.138  0.4093  0.2981  0.3569
 3973ntf    on520710   5.258   1.305   0.118 -0.1077  0.0451 -0.1337
 3973ntf    on520711   5.194   1.513  -0.135 -0.3833 -0.0828 -0.3501
 3973ntf    on520712   5.055   1.391  -0.299 -0.2987 -0.3464 -0.1635
 3973ntf    fn420713   5.364   1.387  -0.350 -0.2853  0.3376 -0.0133
 3973ntf    fn420714   5.394   1.284  -0.170 -0.6210 -0.1484  0.1987
 3973ntf    fn420715   5.276   1.198  -0.323  0.2514 -0.0800  0.0173
 3974ntf    cn120716   6.638   7.246   1.227  0.0753  0.1344 -0.2527
 3974ntf    sn220717   6.517   7.351   1.313  0.0207  0.1105 -0.2999
 3974ntf    nn320718   6.393   7.258   1.336 -0.2770  0.7599  0.7817
 3974ntf    sn220719   6.248   7.256   1.276  0.0945  0.0279 -0.1092
 3974ntf    cn120720   6.154   7.361   1.391 -0.1440 -0.2143 -0.0816
 3974ntf    fn420721   6.639   7.126   1.282  0.3662  0.1867 -0.1449
 3974ntf    fn420722   6.616   7.232   1.097 -0.6602  0.2819 -0.1526
 3974ntf    fn420723   6.760   7.292   1.248  0.0972  0.0035 -0.0985
 3974ntf    on520724   6.569   7.382   1.444  0.3724 -0.2550 -0.3526
 3974ntf    on520725   6.504   7.459   1.217  0.1804  0.4141  0.0168
 3974ntf    on520726   6.197   7.123   1.303  0.2200  0.1359  0.6828
 3974ntf    on520727   6.231   7.316   1.146  0.2787  0.5917  0.1274
 3974ntf    fn420728   6.026   7.329   1.383  0.0519 -0.9205 -0.4919
 3974ntf    fn420729   6.188   7.346   1.518 -0.7111 -0.5517  0.0314
 3974ntf    fn420730   6.167   7.487   1.353  0.3830 -0.2843 -0.1455
 3975ntf    cn120731   3.207   2.824   5.801  0.0112  0.2237  0.1777
 3975ntf    sn220732   3.090   2.809   5.663  0.0442  0.3052  0.1412
 3975ntf    nn320733   3.184   2.778   5.541 -0.3659  0.1034 -0.1274
 3975ntf    sn220734   3.210   2.865   5.412  0.2370  0.2226  0.0705
 3975ntf    cn120735   3.300   2.741   5.313 -0.1798  0.1299 -0.1971
 3975ntf    fn420736   3.150   2.866   5.914 -0.1430  0.2485  0.0913
 3975ntf    fn420737   3.258   2.704   5.825  0.0387  0.2066  0.0291
 3975ntf    fn420738   3.307   2.904   5.769  0.3455 -0.5261 -0.6765
 3975ntf    on520739   3.025   2.687   5.704  0.1710  0.4334  0.7216
 3975ntf    on520740   3.022   2.936   5.662 -0.4833  0.0220 -0.0341
 3975ntf    on520741   3.301   2.976   5.419  0.6732 -0.0522 -0.9564
 3975ntf    on520742   3.089   2.879   5.335  0.1176 -0.6538  0.0876
 3975ntf    fn420743   3.419   2.714   5.365 -0.2542  0.4753  0.1574
 3975ntf    fn420744   3.240   2.626   5.290  0.0375 -0.0492  0.1192
 3975ntf    fn420745   3.330   2.792   5.195 -0.6780 -0.2769 -0.4978
 3976ntf    cn120746   5.366   5.168   6.512 -0.1667  0.1068  0.2505
 3976ntf    sn220747   5.378   5.038   6.385 -0.0378  0.0874  0.2820
 3976ntf    nn320748   5.259   5.071   6.288  0.0264 -0.3384  0.0607
 3976ntf    sn220749   5.118   5.006   6.263 -0.1134  0.0044 -0.0525
 3976ntf    cn120750   5.034   5.157   6.207  0.4965  0.3731  0.0152
 3976ntf    fn420751   5.241   5.199   6.542 -0.3851 -0.2066 -0.3116
 3976ntf    fn420752   5.423   5.136   6.627 -0.2761  0.3222  0.3644
 3976ntf    fn420753   5.426   5.279   6.472  0.3825 -0.2754 -0.0072
 3976ntf    on520754   5.507   5.066   6.326  0.0813  0.1165  0.5539
 3976ntf    on520755   5.377   4.913   6.456  0.4440  0.2005  0.4903
 3976ntf    on520756   5.037   4.970   6.377  0.1571 -0.1717  0.0850
 3976ntf    on520757   5.109   4.927   6.142  0.1203 -0.3230  0.1431
 3976ntf    fn420758   4.911   5.142   6.159  0.3203  1.0681  0.2403
 3976ntf    fn420759   5.032   5.234   6.314  0.2344  0.7181 -0.2352
 3976ntf    fn420760   5.105   5.215   6.112  0.2791 -0.5275 -0.7182
 3977ntf    cn120761   3.509   7.180   7.253 -0.3702  0.0543  0.0671
 3977ntf    sn220762   3.639   7.302   7.219 -0.3748 -0.0364 -0.2720
 3977ntf    nn320763   3.599   7.337   7.071 -0.1782  0.0565 -0.3042
 3977ntf    sn220764   3.683   7.341   6.938  0.0705  0.5701 -0.1333
 3977ntf    cn120765   3.714   7.521   6.938  0.2187  0.5455  0.1153
 3977ntf    fn420766   3.547   7.077   7.326  0.1142  0.1637 -0.0216
 3977ntf    fn420767   3.413   7.239   7.322 -0.2879  0.5627 -0.2486
 3977ntf    fn420768   3.454   7.127   7.145 -0.1926  0.3287 -0.1609
 3977ntf    on520769   3.603   7.406   7.312 -0.3406 -0.3399  0.0835
 3977ntf    on520770   3.766   7.237   7.238 -0.3296  0.3777  0.9420
 3977ntf    on520771   3.608   7.322   6.817 -0.2975  0.1296  0.1597
 3977ntf    on520772   3.811   7.275   6.932 -0.3039 -0.1441 -0.3363
 3977ntf    fn420773   3.753   7.548   7.062  0.2702 -0.6550  0.3790
 3977ntf    fn420774   3.815   7.547   6.856  0.0048 -0.2042 -0.4065
 3977ntf    fn420775   3.606   7.590   6.905 -0.0855  0.2425  0.4681
 3978ntf    cn120776   4.334   7.024   3.275 -0.2393  0.1788 -0.1561
 3978ntf    sn220777   4.403   7.017   3.107  0.1089  0.0966 -0.0109
 3978ntf    nn320778   4.555   7.033   3.140  0.2447 -0.5188 -0.3226
 3978ntf    sn220779   4.642   7.163   3.158 -0.2615 -0.2032 -0.1170
 3978ntf    cn120780   4.730   7.119   3.310 -0.3417 -0.1835 -0.0646
 3978ntf    fn420781   4.367   7.131   3.346  0.7859 -0.1526 -0.1252
 3978ntf    fn420782   4.202   7.037   3.268 -0.2817 -0.2140 -0.0731
 3978ntf    fn420783   4.362   6.916   3.346 -0.0515  0.6410  0.4884
 3978ntf    on520784   4.374   6.883   3.062 -0.5229  0.4428 -0.6456
 3978ntf    on520785   4.347   7.131   3.039  0.3808  0.3068  0.1143
 3978ntf    on520786   4.575   7.283   3.200  0.3156 -0.1188  0.5823
 3978ntf    on520787   4.741   7.178   3.053  0.0255  0.2061  0.2089
 3978ntf    fn420788   4.834   7.200   3.316 -0.3502 -0.1503 -0.3965
 3978ntf    fn420789   4.658   7.145   3.418  0.1061  0.4390  0.0921
 3978ntf    fn420790   4.777   6.995   3.309 -0.2586 -0.1502 -0.3192
 3979ntf    cn120791   0.797   0.709   4.376 -0.2653 -0.2147  0.1583
 3979ntf    sn220792   0.910   0.802   4.483  0.3137 -0.0370 -0.5991
 3979ntf    nn320793   0.818   0.911   4.549  0.3677 -0.2348 -0.1948
 3979ntf    sn220794   0.831   1.067   4.544 -0.2040 -0.1762  0.0145
 3979ntf    cn120795   0.698   1.110   4.660 -0.0378  0.2213  0.0582
 3979ntf    fn420796   0.858   0.620   4.299 -0.2743 -0.0637 -0.0252
 3979ntf    fn420797   0.715   0.640   4.453 -0.4305  0.1571  0.3155
 3979ntf    fn420798   0.719   0.779   4.295  0.1956  0.2552  0.1149
 3979ntf    on520799   0.949   0.704   4.581  0.1119  0.2777 -0.2023
 3979ntf    on520800   1.005   0.853   4.387  0.4426  0.0389 -0.4324
 3979ntf    on520801   0.799   1.130   4.418 -0.1976 -0.0048  0.0984
 3979ntf    on520802   0.944   1.122   4.615 -0.4335  0.2591  0.0438
 3979ntf    fn420803   0.728   1.099   4.789  0.1204  0.0540  0.0078
 3979ntf    fn420804   0.665   1.237   4.644 -0.7981  0.0850  0.5246
 3979ntf    fn420805   0.585   1.044   4.646 -0.0798  0.3710 -0.3104
 3980ntf    cn120806   2.367   1.587   1.237  0.6199  0.0078  0.0250
 3980ntf    sn220807   2.464   1.726   1.304  0.0625  0.3323  0.1690
 3980ntf    nn320808   2.583   1.655   1.379  0.1964  0.3573 -0.0195
 3980ntf    sn220809   2.723   1.613   1.321 -0.0496 -0.3883 -0.0850
 3980ntf    cn120810   2.706   1.432   1.321 -0.5032 -0.3513 -0.9321
 3980ntf    fn420811   2.448   1.503   1.175  0.5934  0.1323 -0.1786
 3980ntf    fn420812   2.327   1.518   1.343 -0.0336 -0.2378 -0.3746
 3980ntf    fn420813   2.255   1.615   1.172  0.7361  0.2025 -0.0931
 3980ntf    on520814   2.512   1.800   1.190 -0.2166 -0.4167 -0.4460
 3980ntf    on520815   2.377   1.795   1.396  0.4958  0.6206  0.3667
 3980ntf    on520816   2.824   1.640   1.420 -0.2955 -0.7420  0.2623
 3980ntf    on520817   2.760   1.638   1.184  0.0437 -0.4744 -0.0748
 3980ntf    fn420818   2.656   1.387   1.434  0.1829 -0.1136 -0.5274
 3980ntf    fn420819   2.635   1.387   1.219 -0.2111 -0.4654 -1.0877
 3980ntf    fn420820   2.821   1.368   1.308 -0.2568 -0.0448 -0.3008
 3981ntf    cn120821   6.056   5.645   4.855 -0.2001  0.7354  0.1390
 3981ntf    sn220822   5.927   5.697   4.973 -0.2082 -0.1745  0.5396
 3981ntf    nn320823   5.926   5.851   4.943  0.0973 -0.2990 -0.1254
 3981ntf    sn220824   6.013   5.958   5.019 -0.1488 -0.0401 -0.2085
 3981ntf    cn120825   5.903   6.011   5.154 -0.1009 -0.1398 -0.1297
 3981ntf    fn420826   6.000   5.626   4.737  0.3327  0.4870 -0.0779
 3981ntf    fn420827   6.146   5.741   4.850  0.6060 -0.0217 -0.0846
 3981ntf    fn420828   6.113   5.527   4.876 -0.3099  0.6276 -0.1584
 3981ntf    on520829   5.809   5.631   4.926 -0.0640  0.2082 -0.3777
 3981ntf    on520830   5.973   5.667   5.107 -0.5573  0.2002  0.7448
 3981ntf    on520831   6.035   6.074   4.935 -0.0390 -0.1062 -0.2710
 3981ntf    on520832   6.129   5.913   5.092 -0.4444 -0.4714  0.0005
 3981ntf    fn420833   5.790   6.059   5.105 -0.0169  0.0497 -0.1400
 3981ntf    fn420834   5.887   5.915   5.243 -0.7808 -0.0530 -0.1572
 3981ntf    fn420835   5.978   6.106   5.207 -0.1580 -0.4667  0.5465
 3982ntf    cn120836   1.918   5.474   0.679  0.1853 -0.0575  0.2637
 3982ntf    sn220837   1.832   5.374   0.555  0.4186  0.1954 -0.1046
 3982ntf    nn320838   1.875   5.233   0.610 -0.3611  0.1099  0.3021
 3982ntf    sn220839   1.810   5.095   0.574  0.2263 -0.1676  0.3007
 3982ntf    cn120840   1.660   5.086   0.676  0.0887  0.1698  0.1286
 3982ntf    fn420841   1.894   5.438   0.804  0.1904 -0.1441  0.2391
 3982ntf    fn420842   2.050   5.482   0.666  0.1045  0.2665 -0.3740
 3982ntf    fn420843   1.881   5.601   0.685  0.5056  0.0435  0.1717
 3982ntf    on520844   1.695   5.406   0.587  0.3642  0.0657 -0.2047
 3982ntf    on520845   1.889   5.406   0.426 -0.2246  0.0356 -0.4330
 3982ntf    on520846   1.888   4.984   0.625  0.2837 -0.3800 -0.2378
 3982ntf    on520847   1.781   5.089   0.433  0.5156 -0.0420  0.2354
 3982ntf    fn420848   1.687   5.115   0.802  0.2099  0.5164  0.0232
 3982ntf    fn420849   1.577   5.179   0.631  0.5659  0.5546  0.0342
 3982ntf    fn420850   1.605   4.966   0.672 -0.3415  0.3684  0.0409
 3983ntf    cn120851   2.901   5.901   1.540  0.2017  0.2412  0.1589
 3983ntf    sn220852   2.859   6.077   1.543 -0.3471  0.1153 -0.1269
 3983ntf    nn320853   2.932   6.120   1.675  0.1158 -0.0521 -0.3276
 3983ntf    sn220854   3.081   6.165   1.693  0.0470 -0.0165  0.1580
 3983ntf    cn120855   3.058   6.344   1.715 -0.3593 -0.0155 -0.2591
 3983ntf    fn420856   3.028   5.884   1.503  0.1667  0.2788  0.0207
 3983ntf    fn420857   2.889   5.835   1.654  0.6187  0.1107  0.1327
 3983ntf    fn420858   2.830   5.841   1.446  0.3986 -0.1155  0.2329
 3983ntf    on520859   2.911   6.138   1.423  0.6407 -0.6939 -0.1176
 3983ntf    on520860   2.718   6.089   1.571 -0.2774  0.4075  0.1037
 3983ntf    on520861   3.167   6.149   1.579 -0.1803  0.0820 -0.0289
 3983ntf    on520862   3.135   6.124   1.820  0.3556 -0.4033 -0.0956
 3983ntf    fn420863   3.168   6.416   1.734 -0.4995  0.1217  0.0487
 3983ntf    fn420864   2.992   6.392   1.611 -0.5491 -0.0184 -0.1395
 3983ntf    fn420865   2.979   6.366   1.819  0.0080 -0.4182  0.1101
 3984ntf    cn120866   6.896   2.270   5.748 -0.2363 -0.2254  0.6061
 3984ntf    sn220867   6.854   2.368   5.895 -0.0924 -0.0788  0.5495
 3984ntf    nn320868   6.846   2.510   5.828  0.4152 -0.2409  0.1339
 3984ntf    sn220869   6.958   2.618   5.812  0.2027  0.0143  0.3703
 3984ntf    cn120870   6.914   2.744   5.936 -0.2021  0.1466  0.0929
 3984ntf    fn420871   6.806   2.283   5.651  0.5886 -0.0349 -0.1501
 3984ntf    fn420872   7.014   2.300   5.695 -0.3729 -0.3154  0.2421
 3984ntf    fn420873   6.903   2.141   5.778 -0.3212 -0.1375  1.0006
 3984ntf    on520874   6.721   2.320   5.923 -0.5116  0.3266 -0.6657
 3984ntf    on520875   6.955   2.346   5.996  0.0790 -0.1891  0.3552
 3984ntf    on520876   6.943   2.689   5.688  0.0290 -0.1245  0.3124
 3984ntf    on520877   7.091   2.580   5.853  0.3708  0.5412  0.3198
 3984ntf    fn420878   6.784   2.769   5.934 -0.2181  0.0645  0.1132
 3984ntf    fn420879   6.937   2.683   6.051 -0.2888  0.2961  0.1897
 3984ntf    fn420880   6.977   2.860   5.933 -0.4538  0.2935  0.4101
 3985ntf    cn120881   6.620   6.922   2.082 -0.5292  0.2752  0.0299
 3985ntf    sn220882   6.547   7.074   2.012 -0.0206  0.6141  0.2366
 3985ntf    nn320883   6.618   7.088   1.873  0.8074 -0.4254  0.5366
 3985ntf    sn220884   6.661   6.973   1.774  0.4226 -0.0556 -0.0684
 3985ntf    cn120885   6.600   7.043   1.617 -0.0179 -0.3816 -0.0444
 3985ntf    fn420886   6.584   6.916   2.209 -0.7181 -0.6709 -0.0615
 3985ntf    fn420887   6.570   6.812   2.029  0.3800 -0.1126 -0.0377
 3985ntf    fn420888   6.751   6.936   2.076 -0.5834  0.8840  0.1568
 3985ntf    on520889   6.405   7.054   2.009  0.1371 -0.5749  0.1323
 3985ntf    on520890   6.589   7.178   2.102  0.0492 -0.0341  0.9678
 3985ntf    on520891   6.588   6.850   1.788  0.6716 -0.1738  0.2109
 3985ntf    on520892   6.803   6.962   1.753  0.3501 -0.4073 -0.3882
 3985ntf    fn420893   6.473   7.014   1.595 -0.0852 -0.4908  0.4646
 3985ntf    fn420894   6.622   7.173   1.616 -0.5694 -0.2895 -0.3122
 3985ntf    fn420895   6.670   6.982   1.522  0.5218  0.3214 -0.1032
 3986ntf    cn120896   6.538   6.859   0.463 -0.4084 -0.1332 -0.1855
 3986ntf    sn220897   6.532   7.016   0.554 -0.2723 -0.0433 -0.3343
 3986ntf    nn320898   6.599   6.965   0.686 -0.3518  0.2544 -0.1789
 3986ntf    sn220899   6.629   7.056   0.811 -0.2800  0.0062 -0.0158
 3986ntf    cn120900   6.503   6.988   0.923  0.2018  0.0952  0.5846
 3986ntf    fn420901   6.657   6.802   0.452 -0.3687  0.0749 -0.8251
 3986ntf    fn420902   6.460   6.770   0.524 -0.1839 -0.0544  0.2221
 3986ntf    fn420903   6.484   6.871   0.343 -0.1787 -0.2951 -0.3054
 3986ntf    on520904   6.617   7.096   0.468 -0.1944 -0.3621 -0.5584
 3986ntf    on520905   6.392   7.048   0.564 -0.3889 -0.6284 -0.0731
 3986ntf    on520906   6.603   7.197   0.803  0.1345  0.0956  0.1636
 3986ntf    on520907   6.755   7.012   0.868 -0.4487 -0.1386  0.2491
 3986ntf    fn420908   6.381   6.997   0.875  0.2432 -0.1667  0.4262
 3986ntf    fn420909   6.521   6.858   0.940  0.5294 -0.0099 -0.4948
 3986ntf    fn420910   6.504   7.051   1.039 -0.0143  0.9891  0.1043
 3987ntf    cn120911   4.771   3.157   7.009  0.1150  0.0776  0.5496
 3987ntf    sn220912   4.897   3.027   6.988  0.2231  0.2522  0.1070
 3987ntf    nn320913   4.949   3.049   6.841  0.5026  0.9201  0.3002
 3987ntf    sn220914   5.036   2.945   6.762 -0.4265  0.0409  0.4038
 3987ntf    cn120915   4.969   2.985   6.598 -0.1704  0.0063  0.2893
 3987ntf    fn420916   4.700   3.148   7.120  0.1132 -0.0287  0.5399
 3987ntf    fn420917   4.826   3.277   7.023 -0.0395  0.1583  0.4689
 3987ntf    fn420918   4.686   3.153   6.908  0.5051 -0.3429  0.2327
 3987ntf    on520919   5.000   3.058   7.083  0.0394 -0.0927  0.4220
 3987ntf    on520920   4.819   2.907   7.003 -0.1917  0.4754 -0.1966
 3987ntf    on520921   5.009   2.804   6.773 -0.1734 -0.0313  0.1057
 3987ntf    on520922   5.174   2.986   6.747 -0.3623 -0.0250  0.8134
 3987ntf    fn420923   4.839   2.960   6.598 -0.2431  0.3740  0.3145
 3987ntf    fn420924   4.975   3.115   6.572 -0.2890 -0.1486 -0.5302
 3987ntf    fn420925   5.020   2.916   6.497 -0.4681 -0.3751  0.3955
 3988ntf    cn120926   2.002   0.104   2.722  0.5346  0.1530 -0.0702
 3988ntf    sn220927   2.127   0.073   2.851  0.1193 -0.0866  0.2796
 3988ntf    nn320928   2.130  -0.084   2.856 -0.0589 -0.0976  0.0723
 3988ntf    sn220929   2.033  -0.168   2.947 -0.1448 -0.1505 -0.0687
 3988ntf    cn120930   2.119  -0.151   3.106  0.0320  0.2817 -0.2082
 3988ntf    fn420931   2.013   0.016   2.624  0.0415  0.0878 -0.0684
 3988ntf    fn420932   1.883   0.083   2.775  0.3274  0.3859 -0.4403
 3988ntf    fn420933   2.005   0.228   2.676  0.3582  0.3776  0.5048
 3988ntf    on520934   2.248   0.120   2.788  0.2533 -0.3218  0.3617
 3988ntf    on520935   2.079   0.150   2.963  0.0269 -0.0972  0.2477
 3988ntf    on520936   2.039  -0.309   2.918  0.7447 -0.1320 -0.0053
 3988ntf    on520937   1.900  -0.118   2.976 -0.1534 -0.3148  0.1790
 3988ntf    fn420938   2.250  -0.150   3.095 -0.0050 -0.1830 -0.7237
 3988ntf    fn420939   2.100  -0.035   3.168 -0.0899  0.2115 -0.1145
 3988ntf    fn420940   2.091  -0.255   3.184  0.1755  0.3170 -0.1095
 3989ntf    cn120941   6.869   0.499   5.707  0.1613 -0.0093 -0.6703
 3989ntf    sn220942   6.909   0.323   5.731 -0.0598  0.0225 -0.0539
 3989ntf    nn320943   7.046   0.301   5.658 -0.1448 -0.5189 -0.0560
 3989ntf    sn220944   7.056   0.321   5.502  0.0326  0.0938  0.0296
 3989ntf    cn120945   7.088   0.148   5.456 -0.2536  0.0354  0.0480
 3989ntf    fn420946   6.820   0.562   5.812  0.4955  0.1583 -0.6127
 3989ntf    fn420947   6.985   0.562   5.692  0.4363 -0.4841 -0.5594
 3989ntf    fn420948   6.797   0.534   5.602 -0.1934 -0.0592 -0.4438
 3989ntf    on520949   6.929   0.304   5.872  0.4961 -0.3725 -0.1852
 3989ntf    on520950   6.796   0.254   5.674 -0.0846  0.2730 -0.3108
 3989ntf    on520951   7.175   0.389   5.457 -0.0995  0.5275  0.3240
 3989ntf    on520952   6.930   0.343   5.436 -0.1901 -0.3698  0.2960
 3989ntf    fn420953   7.198   0.098   5.512 -0.4586  0.0828  0.4988
 3989ntf    fn420954   6.994   0.065   5.499 -0.3880  0.0457 -0.2293
 3989ntf    fn420955   7.088   0.136   5.325 -0.1595  0.2592  0.0270
 3990ntf    cn120956   2.965   3.164   3.387 -0.2572 -0.0758  0.2943
 3990ntf    sn220957   3.124   3.247   3.420 -0.0502 -0.4232  0.1751
 3990ntf    nn320958   3.176   3.157   3.538 -0.0671 -0.2801  0.2925
 3990ntf    sn220959   3.271   3.033   3.520 -0.0373 -0.1950 -0.1631
 3990ntf    cn120960   3.437   3.096   3.559  0.0389 -0.2935 -0.3286
 3990ntf    fn420961   2.988   3.036   3.365  0.2638  0.1140 -0.2885
 3990ntf    fn420962   2.874   3.179   3.482 -0.3883 -0.5646  0.2448
 3990ntf    fn420963   2.910   3.216   3.279  0.1770  0.7684  0.4667
 3990ntf    on520964   3.201   3.234   3.299  0.4569  0.2371  0.4225
 3990ntf    on520965   3.078   3.378   3.459  0.2451 -0.3701  0.3476
 3990ntf    on520966   3.278   2.978   3.387  0.3103  0.1152 -0.2756
 3990ntf    on520967   3.244   2.943   3.629 -0.1644 -1.3013 -1.0943
 3990ntf    fn420968   3.441   3.130   3.687  0.1365 -0.0312 -0.4014
 3990ntf    fn420969   3.540   3.013   3.554 -0.4052 -0.8757  0.0220
 3990ntf    fn420970   3.470   3.206   3.493 -0.1789 -0.0880 -0.0953
 3991ntf    cn120971   1.700   4.060   1.807 -0.1108  0.0954 -0.5500
 3991ntf    sn220972   1.678   4.241   1.816 -0.2002  0.0582 -0.0095
 3991ntf    nn320973   1.792   4.289   1.913 -0.5523  0.0717  0.4028
 3991ntf    sn220974   1.781   4.332   2.063 -0.3351 -0.0547  0.4567
 3991ntf    cn120975   1.752   4.512   2.054  0.1878  0.0068 -0.0178
 3991ntf    fn420976   1.628   4.003   1.712 -0.1084 -0.6104 -0.1339
 3991ntf    fn420977   1.821   4.023   1.769  0.1420  0.1267  0.2107
 3991ntf    fn420978   1.670   4.002   1.922  0.5518  0.0587 -0.3896
 3991ntf    on520979   1.694   4.288   1.681  0.3623  0.2601  0.1225
 3991ntf    on520980   1.547   4.251   1.875 -0.1654 -0.5060  0.1756
 3991ntf    on520981   1.907   4.328   2.133  0.0309 -0.4266 -0.2170
 3991ntf    on520982   1.671   4.277   2.139 -0.2749  0.0307  0.6061
 3991ntf    fn420983   1.628   4.544   2.022  0.0122 -0.7332 -0.0933
 3991ntf    fn420984   1.778   4.570   2.170 -0.6870  0.3129  0.0317
 3991ntf    fn420985   1.827   4.565   1.959  0.2903  0.4577  0.3174
 3992ntf    cn120986   4.148   6.070   2.336  0.1073 -0.3178  0.5005
 3992ntf    sn220987   4.095   6.166   2.482 -0.2104  0.3993 -0.0805
 3992ntf    nn320988   4.173   6.302   2.481  0.4894  0.0004 -0.2835
 3992ntf    sn220989   4.139   6.432   2.399  0.3532  0.2369  0.1478
 3992ntf    cn120990   4.048   6.536   2.518 -0.1911 -0.3863  0.2845
 3992ntf    fn420991   4.142   6.145   2.227  0.4882 -0.4227  0.4073
 3992ntf    fn420992   4.277   6.042   2.342  0.2145 -0.0359 -0.4394
 3992ntf    fn420993   4.082   5.957   2.322 -0.2737 -0.0325 -0.0571
 3992ntf    on520994   3.954   6.182   2.457 -0.1868  0.2335 -0.3277
 3992ntf    on520995   4.138   6.073   2.584  0.0814 -0.0727 -0.6243
 3992ntf    on520996   4.039   6.415   2.296  0.3643 -0.0080  0.1761
 3992ntf    on520997   4.257   6.510   2.376 -0.0716  0.7673 -0.2444
 3992ntf    fn420998   4.121   6.593   2.613 -0.7636 -0.0724  0.5395
 3992ntf    fn420999   3.989   6.639   2.461 -0.4071 -0.4357  0.4157
 3992ntf    fn421000   3.955   6.470   2.585 -0.1918 -0.9860 -0.3003
 3993ntf    cn121001   3.557   1.212   4.928  0.2186  0.3273 -0.2562
 3993ntf    sn221002   3.473   1.333   4.823 -0.3225 -0.0573 -0.2685
 3993ntf    nn321003   3.323   1.290   4.845 -0.2767 -0.0639  0.0364
 3993ntf    sn221004   3.203   1.282   4.745  0.1689 -0.4098 -0.4753
 3993ntf    cn121005   3.080   1.348   4.860  0.3787 -0.5629 -0.1636
 3993ntf    fn421006   3.684   1.245   4.946  0.0997  0.6061  0.0819
 3993ntf    fn421007   3.498   1.209   5.046  0.0866 -0.4927 -0.3350
 3993ntf    fn421008   3.555   1.091   4.875 -0.0382  0.0715  0.3257
 3993ntf    on521009   3.513   1.460   4.878  0.4285 -0.5207  0.2730
 3993ntf    on521010   3.526   1.301   4.693  0.2610  0.5595 -0.1890
 3993ntf    on521011   3.154   1.149   4.716 -0.6321 -0.1912 -0.1284
 3993ntf    on521012   3.212   1.384   4.643  0.1401  0.1982  0.1235
 3993ntf    fn421013   2.963   1.288   4.845  0.2454 -0.3876  0.1507
 3993ntf    fn421014   3.124   1.354   4.985  0.8281 -0.1116 -0.3398
 3993ntf    fn421015   3.055   1.476   4.836 -0.3739 -0.5769  0.4817
 3994ntf    cn121016   3.692   5.704   5.328  0.1359  0.0856 -0.3150
 3994ntf    sn221017   3.581   5.575   5.392  0.3841 -0.0931 -0.2441
 3994ntf    nn321018   3.644   5.561   5.536 -0.2904  0.1191  0.0732
 3994ntf    sn221019   3.569   5.512   5.665  0.0208 -0.1480  0.1557
 3994ntf    cn121020   3.593   5.659   5.769 -0.0306 -0.1081  0.1109
 3994ntf    fn421021   3.815   5.693   5.376  0.0872 -0.3544 -0.2836
 3994ntf    fn421022   3.700   5.716   5.197  0.9131 -0.2067 -0.2977
 3994ntf    fn421023   3.647   5.822   5.366 -0.2888 -0.1624 -0.0434
 3994ntf    on521024   3.455   5.643   5.389  0.1954 -0.4308 -0.0673
 3994ntf    on521025   3.615   5.463   5.308  0.6352 -0.3258  0.1646
 3994ntf    on521026   3.649   5.421   5.742 -0.3276 -0.4614  0.1513
 3994ntf    on521027   3.429   5.477   5.665 -0.0952  0.2951  1.0001
 3994ntf    fn421028   3.712   5.654   5.826  0.2920  0.2283 -0.5176
 3994ntf    fn421029   3.586   5.779   5.712 -0.2530 -0.1932 -0.0444
 3994ntf    fn421030   3.497   5.668   5.860  0.0734 -0.7998  0.2917
 3995ntf    cn121031   4.155   1.729   4.365  0.0329  0.3555  0.2308
 3995ntf    sn221032   4.143   1.552   4.324 -0.0019  0.4142 -0.0195
 3995ntf    nn321033   4.247   1.489   4.424 -0.1225 -0.0150 -0.1640
 3995ntf    sn221034   4.227   1.393   4.547  0.1196 -0.1126 -0.1999
 3995ntf    cn121035   4.246   1.237   4.457 -0.2027 -0.1470 -0.2112
 3995ntf    fn421036   4.259   1.785   4.304 -0.1151  0.3302 -0.0504
 3995ntf    fn421037   4.047   1.796   4.329 -0.0272  0.0841 -0.1046
 3995ntf    fn421038   4.178   1.758   4.492  0.2590  0.3534  0.1920
 3995ntf    on521039   4.004   1.522   4.342  0.1558 -0.2939  0.0425
 3995ntf    on521040   4.198   1.557   4.191  0.4189 -0.0082  0.1354
 3995ntf    on521041   4.093   1.398   4.601  0.0725 -0.6661 -0.2665
 3995ntf    on521042   4.336   1.399   4.641 -0.2700 -0.2461  0.2645
 3995ntf    fn421043   4.230   1.128   4.530 -0.7835 -0.0983 -0.2641
 3995ntf    fn421044   4.165   1.219   4.354 -0.3570 -0.6243 -0.0110
 3995ntf    fn421045   4.367   1.227   4.405 -0.1699  0.5424 -0.2727
 3996ntf    cn121046   6.039   5.651   3.692 -0.2335  0.2533  0.3380
 3996ntf    sn221047   5.996   5.680   3.518 -0.0076  0.1190  0.2588
 3996ntf    nn321048   6.053   5.826   3.522 -0.2164  0.1973  0.4063
 3996ntf    sn221049   6.177   5.898   3.458 -0.4059  0.0164 -0.1663
 3996ntf    cn121050   6.097   5.972   3.312  0.0758 -0.1409 -0.5161
 3996ntf    fn421051   5.994   5.749   3.768  0.0902  0.3612  0.3936
 3996ntf    fn421052   5.982   5.540   3.735 -0.9143  0.2501 -0.5537
 3996ntf    fn421053   6.168   5.643   3.721 -0.1179 -0.0024 -0.2316
 3996ntf    on521054   6.070   5.577   3.449  0.4382  0.6617 -0.0799
 3996ntf    on521055   5.852   5.679   3.516 -0.0058 -0.5329  0.1431
 3996ntf    on521056   6.275   5.807   3.403  0.0305  0.1230  0.4327
 3996ntf    on521057   6.219   6.015   3.530 -0.0005  0.1350 -0.5919
 3996ntf    fn421058   6.056   5.887   3.220  0.3930 -0.0632 -0.7301
 3996ntf    fn421059   5.984   6.035   3.340  0.1175 -0.0765 -0.4902
 3996ntf    fn421060   6.172   6.064   3.255 -0.2638  0.0486 -0.6615
 3997ntf    cn121061   1.620   3.664   5.757 -0.4957  0.0505 -0.5442
 3997ntf    sn221062   1.769   3.675   5.654  0.1095 -0.0280  0.3233
 3997ntf    nn321063   1.829   3.804   5.723  0.4978 -0.0682  0.0642
 3997ntf    sn221064   1.886   3.930   5.649  0.0048  0.2425  0.2055
 3997ntf    cn121065   2.042   3.870   5.577 -0.1234  0.2732 -0.0987
 3997ntf    fn421066   1.650   3.605   5.871 -0.0078  0.5218 -0.4260
 3997ntf    fn421067   1.576   3.782   5.795 -0.2419  0.0349 -0.1984
 3997ntf    fn421068   1.525   3.595   5.696 -0.3511 -0.6379 -0.0018
 3997ntf    on521069   1.841   3.557   5.695 -0.1342 -0.3317 -0.1300
 3997ntf    on521070   1.718   3.682   5.520  0.9328  0.1729  0.0125
 3997ntf    on521071   1.939   4.029   5.740 -0.2371  0.3970  0.1792
 3997ntf    on521072   1.814   3.982   5.536  0.4834  0.0804 -0.1763
 3997ntf    fn421073   2.131   3.833   5.668 -0.4129  0.4957  0.2736
 3997ntf    fn421074   2.022   3.769   5.494 -0.4994  0.2208  0.0550
 3997ntf    fn421075   2.100   3.962   5.502  0.2450 -0.0400 -0.2003
 3998ntf    cn121076   5.787   3.677   6.078  0.2861 -0.4053  0.2241
 3998ntf    sn221077   5.958   3.672   6.015  0.1658  0.0849 -0.1445
 3998ntf    nn321078   5.973   3.827   5.993 -0.0390  0.1145 -0.0786
 3998ntf    sn221079   6.060   3.935   6.067  0.1547 -0.1461  0.0765
 3998ntf    cn121080   6.039   4.079   5.958  0.2627 -0.1571  0.0410
 3998ntf    fn421081   5.758   3.761   6.177 -0.5457  0.0039 -0.3620
 3998ntf    fn421082   5.706   3.712   5.980 -0.1102  0.0664  0.7105
 3998ntf    fn421083   5.739   3.560   6.118 -0.8388 -0.0480 -0.0475
 3998ntf    on521084   6.030   3.612   6.125 -0.4118 -0.5377 -0.1000
 3998ntf    on521085   5.945   3.606   5.888 -0.3891  0.2361 -0.1725
 3998ntf    on521086   6.202   3.916   6.053  0.0700 -0.1835 -0.8005
 3998ntf    on521087   6.009   3.973   6.196 -0.2594 -0.4997  0.0193
 3998ntf    fn421088   6.068   4.054   5.831  0.0100 -0.6744  0.0836
 3998ntf    fn421089   5.916   4.128   5.958  0.3563  0.0792  0.1687
 3998ntf    fn421090   6.112   4.179   6.003 -0.1330  0.1733 -0.0393
 3999ntf    cn121091   6.705   2.705   3.286 -0.1295  0.0053  0.0859
 3999ntf    sn221092   6.808   2.645   3.424  0.1718 -0.0843 -0.1771
 3999ntf    nn321093   6.951   2.690   3.378  0.2602 -0.1692  0.0140
 3999ntf    sn221094   7.048   2.794   3.445 -0.1766  0.0316  0.3381
 3999ntf    cn121095   7.078   2.708   3.602  0.2541 -0.2595  0.0960
 3999ntf    fn421096   6.738   2.650   3.171  0.5928  0.6481 -0.0255
 3999ntf    fn421097   6.575   2.688   3.303  0.0072 -1.1371  0.0635
 3999ntf    fn421098   6.724   2.834   3.263 -0.1367 -0.0500 -0.2324
 3999ntf    on521099   6.754   2.715   3.538  0.0907 -0.1080 -0.2003
 3999ntf    on521100   6.787   2.503   3.420 -0.2217 -0.0459  0.4455
 3999ntf    on521101   6.990   2.919   3.488 -0.0618  0.1805  0.0637
 3999ntf    on521102   7.170   2.805   3.369 -0.4074  0.0448 -0.0335
 3999ntf    fn421103   7.098   2.577   3.592  0.5607 -0.2176  0.1302
 3999ntf    fn421104   7.173   2.760   3.678  0.1112 -0.3054  0.3040
 3999ntf    fn421105   6.974   2.719   3.682  0.0844  0.0268 -0.1613
 4000ntf    cn121106   4.856   0.789   4.842  0.0010 -0.1251 -0.1008
 4000ntf    sn221107   4.895   0.644   4.738 -0.1762 -0.2568  0.0153
 4000ntf    nn321108   4.957   0.558   4.853 -0.2526 -0.3020  0.0228
 4000ntf    sn221109   4.889   0.441   4.933 -0.0221 -0.0132  0.6474
 4000ntf    cn121110   5.027   0.398   5.042  0.2417  0.1678  0.3869
 4000ntf    fn421111   4.805   0.751   4.958  0.2759 -0.0473  0.0469
 4000ntf    fn421112   4.972   0.842   4.878  0.1164 -0.1575 -0.4174
 4000ntf    fn421113   4.769   0.872   4.788  0.4129 -0.0060 -0.5915
 4000ntf    on521114   4.770   0.598   4.682 -0.2905  0.2681 -0.1745
 4000ntf    on521115   5.000   0.700   4.657  0.2179 -0.9013  0.0724
 4000ntf    on521116   4.883   0.322   4.852  0.5948  0.0939  0.4400
 4000ntf    on521117   4.780   0.474   5.022 -0.2590 -0.4256  0.5099
 4000ntf    fn421118   4.997   0.292   5.116 -0.2487  0.1343  0.1364
 4000ntf    fn421119   5.133   0.363   4.971 -0.0949 -0.2076  0.0670
 4000ntf    fn421120   5.055   0.497   5.125 -0.4762  0.4364  0.3125
 4001ntf    cn121121   5.851   3.186   0.086 -0.0963  0.4065 -0.4877
 4001ntf    sn221122   5.954   3.049   0.025 -0.3520  0.0109 -0.0351
 4001ntf    nn321123   6.057   3.116  -0.072 -0.0980 -0.1307  0.1339
 4001ntf    sn221124   6.212   3.125  -0.053 -0.0690 -0.1564 -0.0866
 4001ntf    cn121125   6.255   2.951  -0.081  0.0133 -0.1336 -0.1040
 4001ntf    fn421126   5.786   3.148   0.195  0.0520 -0.1215 -0.5769
 4001ntf    fn421127   5.920   3.297   0.103  0.2828  0.0792  0.1847
 4001ntf    fn421128   5.757   3.215  -0.002 -0.2368  0.1254 -0.4313
 4001ntf    on521129   6.000   2.989   0.148 -0.2323 -0.5279 -0.3369
 4001ntf    on521130   5.859   2.970  -0.049 -0.2891  0.3334 -0.4600
 4001ntf    on521131   6.258   3.151   0.082 -0.4075 -0.6699  0.1326
 4001ntf    on521132   6.276   3.196  -0.161  0.2276  0.3686  0.4236
 4001ntf    fn421133   6.207   2.872   0.015 -0.0502 -0.0035 -0.0285
 4001ntf    fn421134   6.216   2.904  -0.198  0.1932  0.2877 -0.3323
 4001ntf    fn421135   6.386   2.938  -0.079  0.0114 -0.1410  0.0652
 4002ntf    cn121136   1.252   5.573   5.030  0.1443 -0.2340 -0.1002
 4002ntf    sn221137   1.327   5.635   5.184  0.1265 -0.2375 -0.0907
 4002ntf    nn321138   1.275   5.522   5.280 -0.4225 -0.1168 -0.2373
 4002ntf    sn221139   1.146   5.512   5.368 -0.0687  0.1966  0.3261
 4002ntf    cn121140   1.199   5.620   5.504  0.3854 -0.0860  0.3734
 4002ntf    fn421141   1.290   5.648   4.928  0.1567  0.1390  0.1752
 4002ntf    fn421142   1.292   5.450   5.001  0.4449 -0.1521 -0.0305
 4002ntf    fn421143   1.120   5.576   5.028  0.1423 -0.2154  0.0228
 4002ntf    on521144   1.468   5.642   5.159  0.1791 -0.7944  0.0458
 4002ntf    on521145   1.269   5.766   5.202  0.1614 -0.2008 -0.2431
 4002ntf    on521146   1.139   5.382   5.430  0.0348 -0.0923 -0.2612
 4002ntf    on521147   1.030   5.574   5.307 -0.0844 -0.3187 -0.1794
 4002ntf    fn421148   1.330   5.638   5.499  0.3722  0.0904  0.6237
 4002ntf    fn421149   1.149   5.742   5.489  0.2564 -0.1791  0.0368
 4002ntf    fn421150   1.162   5.593   5.628 -0.9800  0.3003  0.0670
 4003ntf    cn121151   1.199   4.434   0.250 -0.2524  0.0594 -0.0929
 4003ntf    sn221152   1.372   4.475   0.214 -0.2185  0.0654  0.0743
 4003ntf    nn321153   1.357   4.631   0.204 -0.3565  0.0436 -0.0692
 4003ntf    sn221154   1.454   4.732   0.133  0.0569 -0.2674  0.0477
 4003ntf    cn121155   1.363   4.755  -0.023  0.1732 -0.0171  0.0156
 4003ntf    fn421156   1.179   4.304   0.265  0.0530  0.0399  0.1611
 4003ntf    fn421157   1.151   4.488   0.361 -0.0910  0.0930 -0.0389
 4003ntf    fn421158   1.122   4.474   0.151 -0.2371  0.3016 -0.0077
 4003ntf    on521159   1.443   4.425   0.329  0.2670  0.1356 -0.1915
 4003ntf    on521160   1.389   4.414   0.084  0.1503 -0.1241  0.2107
 4003ntf    on521161   1.582   4.680   0.092  0.4597  0.4065  0.4246
 4003ntf    on521162   1.450   4.864   0.192  0.1620 -0.1001 -0.3153
 4003ntf    fn421163   1.337   4.640  -0.083  0.5437 -0.3269  0.4374
 4003ntf    fn421164   1.250   4.822  -0.008  0.2807  0.1082  0.2756
 4003ntf    fn421165   1.432   4.824  -0.112 -0.1352 -0.2690 -0.4216
 4004ntf    cn121166   4.087   6.379   4.755  0.1424 -0.3552 -0.1571
 4004ntf    sn221167   4.124   6.536   4.671 -0.0028 -0.1585  0.1453
 4004ntf    nn321168   4.130   6.634   4.793  0.1612  0.6395 -0.4863
 4004ntf    sn221169   4.057   6.768   4.829 -0.0890  0.3369  0.1646
 4004ntf    cn121170   3.965   6.713   4.976  0.4423  0.2943  0.4808
 4004ntf    fn421171   4.071   6.273   4.678 -0.5217 -0.0103 -0.5084
 4004ntf    fn421172   4.180   6.348   4.844  0.3108 -0.4317 -0.3570
 4004ntf    fn421173   3.974   6.394   4.821  0.3886  0.0243  0.1896
 4004ntf    on521174   4.253   6.524   4.607 -0.3375  0.0193 -0.5776
 4004ntf    on521175   4.016   6.556   4.577 -0.0895  0.3674  0.3495
 4004ntf    on521176   3.963   6.816   4.730 -0.0699  0.7156  0.3267
 4004ntf    on521177   4.152   6.863   4.880  0.2379  0.0883  0.0159
 4004ntf    fn421178   3.861   6.638   4.943  0.3714  0.0378  1.2788
 4004ntf    fn421179   4.046   6.644   5.055  0.5616  0.4026  0.4555
 4004ntf    fn421180   3.912   6.812   5.047 -0.1465  0.2232  0.1450
 4005ntf    cn121181   4.140   0.403   3.141 -0.2758  0.1561  0.2905
 4005ntf    sn221182   4.067   0.553   3.216 -0.2528  0.2883  0.0489
 4005ntf    nn321183   4.028   0.487   3.353  0.2303 -0.5360 -0.1967
 4005ntf    sn221184   3.885   0.446   3.404  0.0999  0.3205  0.1439
 4005ntf    cn121185   3.874   0.282   3.328  0.4715  0.5066 -0.3209
 4005ntf    fn421186   4.234   0.434   3.053 -0.4427 -0.0093  0.0539
 4005ntf    fn421187   4.198   0.334   3.238  0.3093 -0.5140 -0.5257
 4005ntf    fn421188   4.048   0.322   3.092  0.1360  0.0910 -0.3744
 4005ntf    on521189   4.186   0.634   3.227 -0.0880  0.0753 -0.1602
 4005ntf    on521190   3.964   0.591   3.123 -0.2850  0.0699 -0.0048
 4005ntf    on521191   3.776   0.525   3.352  0.2236  0.5095  0.1701
 4005ntf    on521192   3.890   0.414   3.545  0.1949 -0.3359 -0.0066
 4005ntf    fn421193   3.783   0.206   3.387  0.3501  0.4989 -0.5173
 4005ntf    fn421194   3.856   0.288   3.197  0.2755  0.6064 -0.2894
 4005ntf    fn421195   3.989   0.216   3.335  0.3864  0.4202  0.3933
 4006ntf    cn121196   6.413   2.716   4.136 -0.0025  0.1540  0.3877
 4006ntf    sn221197   6.234   2.749   4.151 -0.0456  0.1456 -0.0835
 4006ntf    nn321198   6.197   2.653   4.269  0.2990  0.3669  0.2049
 4006ntf    sn221199   6.178   2.685   4.422 -0.0202 -0.1851  0.2837
 4006ntf    cn121200   6.028   2.589   4.457 -0.1203 -0.1430 -0.0295
 4006ntf    fn421201   6.462   2.772   4.026 -0.0495  0.0556  0.3171
 4006ntf    fn421202   6.494   2.763   4.228  0.4788  0.4485 -0.1788
 4006ntf    fn421203   6.436   2.586   4.131 -0.3571  0.1186 -0.8941
 4006ntf    on521204   6.227   2.888   4.189  0.1766  0.0309  0.3793
 4006ntf    on521205   6.181   2.706   4.024 -0.0513 -0.2558  0.0523
 4006ntf    on521206   6.133   2.819   4.453  0.2188 -0.0665  0.1205
 4006ntf    on521207   6.281   2.627   4.505 -0.0552  0.1199  0.5422
 4006ntf    fn421208   5.928   2.605   4.371 -0.2049 -0.0567  0.0863
 4006ntf    fn421209   6.054   2.459   4.454 -0.1914 -0.1602  0.1138
 4006ntf    fn421210   5.964   2.615   4.569  0.1553 -0.3886  0.1858
 4007ntf    cn121211   3.366   2.435   1.352 -0.1584  0.0836 -0.0033
 4007ntf    sn221212   3.295   2.562   1.243  0.3241  0.1454 -0.2469
 4007ntf    nn321213   3.146   2.514   1.245  0.4634 -0.2736  0.4283
 4007ntf    sn221214   3.079   2.405   1.154  0.1430  0.1385  0.1668
 4007ntf    cn121215   2.965   2.517   1.066 -0.0432 -0.1549  0.0328
 4007ntf    fn421216   3.492   2.467   1.379 -0.1882 -0.0298  0.2694
 4007ntf    fn421217   3.306   2.429   1.470 -0.3421 -0.3021 -0.1148
 4007ntf    fn421218   3.355   2.316   1.297 -0.0629 -0.1778  0.5406
 4007ntf    on521219   3.313   2.688   1.311 -0.3557  0.0368  0.1359
 4007ntf    on521220   3.374   2.540   1.124  1.0544  0.4782  0.1634
 4007ntf    on521221   2.999   2.320   1.239 -0.4958  0.1738 -0.3899
 4007ntf    on521222   3.156   2.335   1.054  0.1778 -0.6549  0.7364
 4007ntf    fn421223   2.901   2.467   0.962 -0.1092  0.1431 -0.0705
 4007ntf    fn421224   2.876   2.576   1.144 -0.0342 -0.0748 -0.0178
 4007ntf    fn421225   3.031   2.624   1.025 -0.4128  0.0364 -0.0597
 4008ntf    cn121226   0.429   3.571   1.719  0.0173  0.0630  0.4088
 4008ntf    sn221227   0.294   3.532   1.604  0.3141  0.3565 -0.0412
 4008ntf    nn321228   0.174   3.536   1.705 -0.1522  0.2553 -0.5854
 4008ntf    sn221229   0.085   3.661   1.739 -0.0852  0.2269 -0.2999
 4008ntf    cn121230  -0.032   3.654   1.600 -0.0595 -0.3451 -0.2945
 4008ntf    fn421231   0.547   3.586   1.661  0.0802  0.1140  0.5492
 4008ntf    fn421232   0.414   3.686   1.782  0.3224  0.3923 -0.1096
 4008ntf    fn421233   0.429   3.475   1.810 -0.2830  0.1300  0.4783
 4008ntf    on521234   0.292   3.643   1.512 -0.3721  0.6531  0.3233
 4008ntf    on521235   0.321   3.398   1.559 -0.6527  0.4885 -1.0721
 4008ntf    on521236   0.151   3.789   1.733 -0.3128  0.3291 -0.6733
 4008ntf    on521237  -0.012   3.637   1.843 -0.5377  0.3446 -0.6908
 4008ntf    fn421238  -0.109   3.546   1.606 -0.1018 -0.3020 -0.0680
 4008ntf    fn421239  -0.110   3.761   1.598 -0.1010 -0.3733 -0.1978
 4008ntf    fn421240   0.029   3.646   1.483  0.0171  0.3799 -0.3086
 4009ntf    cn121241   1.685   1.689   4.804  0.3690 -0.3484  0.2113
 4009ntf    sn221242   1.658   1.527   4.726 -0.1985 -0.1595  0.0077
 4009ntf    nn321243   1.544   1.469   4.817 -0.2448  0.0537  0.0867
 4009ntf    sn221244   1.549   1.385   4.949  0.0343 -0.0938 -0.0156
 4009ntf    cn121245   1.562   1.212   4.897  0.5012  0.0769 -0.4742
 4009ntf    fn421246   1.591   1.778   4.775  0.4564 -0.3341 -0.0274
 4009ntf    fn421247   1.692   1.682   4.936 -0.2571  0.3003  0.2882
 4009ntf    fn421248   1.794   1.745   4.755  0.1148  0.1711  0.2294
 4009ntf    on521249   1.604   1.566   4.598 -0.0188  0.6954  0.1810
 4009ntf    on521250   1.787   1.462   4.732  0.1139  0.3948 -0.5287
 4009ntf    on521251   1.423   1.392   5.019  0.0983  0.1838  0.0759
 4009ntf    on521252   1.661   1.420   5.034  0.3750 -0.3299 -0.3666
 4009ntf    fn421253   1.567   1.125   4.996  1.4403  0.1517 -0.4516
 4009ntf    fn421254   1.457   1.169   4.829 -0.0402  0.6745 -0.0286
 4009ntf    fn421255   1.661   1.190   4.812  0.5297  0.2177 -0.4768
 4010ntf    cn121256   0.313   1.976   5.106  0.0087 -0.1906 -0.3469
 4010ntf    sn221257   0.490   1.938   5.115  0.0530  0.0627 -0.1279
 4010ntf    nn321258   0.548   2.067   5.182  0.0052  0.0687 -0.0975
 4010ntf    sn221259   0.693   2.122   5.207  0.1768 -0.3626 -0.1368
 4010ntf    cn121260   0.693   2.242   5.071  0.0596 -0.0432  0.1415
 4010ntf    fn421261   0.267   1.994   5.229  0.1139  0.9352 -0.4669
 4010ntf    fn421262   0.283   2.083   5.035 -0.7735 -0.1748  0.0017
 4010ntf    fn421263   0.248   1.868   5.067  0.0585 -0.4335  0.2244
 4010ntf    on521264   0.495   1.823   5.203  0.3939  0.5454  0.4944
 4010ntf    on521265   0.539   1.911   4.982  0.0219 -0.3231 -0.0639
 4010ntf    on521266   0.801   2.032   5.176  0.2695 -0.2988 -0.0030
 4010ntf    on521267   0.701   2.205   5.325  0.4950  0.1565 -0.5219
 4010ntf    fn421268   0.738   2.185   4.960 -0.0263  0.5344 -0.1938
 4010ntf    fn421269   0.575   2.287   5.033  0.1008  0.0901  0.1689
 4010ntf    fn421270   0.769   2.348   5.094 -0.1567  0.1074  0.1643
 4011ntf    cn121271   0.640   4.131   0.986  0.4570 -0.0322  0.1390
 4011ntf    sn221272   0.529   3.988   0.997  0.2760  0.1138  0.2276
 4011ntf    nn321273   0.650   3.889   1.009 -0.2465 -0.5695 -0.0383
 4011ntf    sn221274   0.689   3.808   1.138 -0.0511 -0.1366  0.1756
 4011ntf    cn121275   0.533   3.733   1.194  0.0136 -0.1183  0.3804
 4011ntf    fn421276   0.578   4.248   0.981 -0.6274 -0.5870  0.3201
 4011ntf    fn421277   0.716   4.137   1.094 -0.6749 -0.2078  0.9601
 4011ntf    fn421278   0.717   4.125   0.879 -0.1815 -0.2067 -0.3165
 4011ntf    on521279   0.446   4.011   1.113  0.1154  1.0652 -0.0674
 4011ntf    on521280   0.471   4.002   0.866 -0.0237 -0.2741  0.3167
 4011ntf    on521281   0.739   3.887   1.248 -0.0581 -0.1539  0.1911
 4011ntf    on521282   0.775   3.701   1.097  0.5806  0.4158  0.0381
 4011ntf    fn421283   0.464   3.680   1.094  0.2966  0.2322 -0.0025
 4011ntf    fn421284   0.548   3.634   1.281  0.1621 -0.2576  0.1963
 4011ntf    fn421285   0.450   3.818   1.253 -0.4735 -0.1353 -0.2734
 4012ntf    cn121286   0.733   2.950   2.831  0.1205 -0.0222 -0.4404
 4012ntf    sn221287   0.696   2.989   2.658  0.1724  0.4251 -0.3538
 4012ntf    nn321288   0.579   2.887   2.634  0.0214  0.5844 -0.2895
 4012ntf    sn221289   0.535   2.811   2.504  0.0612 -0.0420  0.0598
 4012ntf    cn121290   0.365   2.764   2.546  0.1365 -0.3310  0.0465
 4012ntf    fn421291   0.623   2.968   2.902  0.1753 -0.1318 -0.3266
 4012ntf    fn421292   0.787   2.831   2.853  0.1230  0.0078 -0.2822
 4012ntf    fn421293   0.827   3.034   2.873  0.1098 -0.2178 -0.0151
 4012ntf    on521294   0.657   3.128   2.652 -0.4395  0.2921  0.3878
 4012ntf    on521295   0.819   2.944   2.598  0.2063 -0.1386  0.1391
 4012ntf    on521296   0.611   2.689   2.490 -0.1561 -0.1181 -0.4535
 4012ntf    on521297   0.508   2.894   2.390  0.4611 -0.1592 -0.1234
 4012ntf    fn421298   0.270   2.785   2.456 -0.1971 -0.4670  0.3618
 4012ntf    fn421299   0.351   2.636   2.576 -0.2148 -0.3505 -0.1888
 4012ntf    fn421300   0.321   2.833   2.651  0.0237 -0.4527  0.0806
 4013ntf    cn121301   5.380   6.196   5.787 -0.1056 -0.1257  0.1351
 4013ntf    sn221302   5.475   6.045   5.824  0.2723  0.1032  0.1025
 4013ntf    nn321303   5.616   6.109   5.799  0.0483  0.5121 -0.1300
 4013ntf    sn221304   5.694   6.127   5.663 -0.1230  0.2877 -0.2590
 4013ntf    cn121305   5.776   5.965   5.657  0.0071  0.3322  0.2483
 4013ntf    fn421306   5.438   6.308   5.827 -0.1963 -0.0852  0.1532
 4013ntf    fn421307   5.348   6.219   5.661 -0.1178 -0.0493  0.1521
 4013ntf    fn421308   5.260   6.188   5.842  0.1340 -0.3685  0.6369
 4013ntf    on521309   5.450   6.026   5.965  0.8734 -0.2441  0.1672
 4013ntf    on521310   5.436   5.949   5.725 -0.1193 -0.0647  0.4172
 4013ntf    on521311   5.804   6.220   5.669  0.2084 -0.1085 -0.1615
 4013ntf    on521312   5.620   6.119   5.539 -0.1974  0.2817 -0.2146
 4013ntf    fn421313   5.694   5.878   5.601 -0.2914  1.0144 -0.3934
 4013ntf    fn421314   5.894   5.964   5.598 -0.1195  0.2449 -0.0066
 4013ntf    fn421315   5.795   5.912   5.777 -0.1877 -0.5583 -0.1116
 4014ntf    cn121316   1.314   6.837   5.069  0.3178 -0.2873  0.1074
 4014ntf    sn221317   1.289   6.901   4.901  0.1830 -0.1029  0.1983
 4014ntf    nn321318   1.240   6.770   4.831  0.2197  0.1407 -0.2934
 4014ntf    sn221319   1.121   6.744   4.732 -0.0598 -0.3981  0.1717
 4014ntf    cn121320   0.987   6.707   4.848 -0.1825 -0.1693  0.1034
 4014ntf    fn421321   1.209   6.770   5.114 -0.0922  0.1546 -0.1848
 4014ntf    fn421322   1.412   6.748   5.078 -0.1035 -0.7383  0.2689
 4014ntf    fn421323   1.336   6.927   5.163 -0.1286 -0.3848  0.3078
 4014ntf    on521324   1.196   7.011   4.907 -0.2141 -0.4036 -0.3569
 4014ntf    on521325   1.426   6.929   4.864  0.1782  0.0842  0.3188
 4014ntf    on521326   1.131   6.617   4.664  0.5615 -0.2098 -0.0958
 4014ntf    on521327   1.070   6.859   4.662 -0.3396 -0.2414  0.6321
 4014ntf    fn421328   0.939   6.811   4.914  0.3277  0.2387 -0.1630
 4014ntf    fn421329   0.890   6.631   4.797 -0.4268  0.2005  0.0125
 4014ntf    fn421330   1.040   6.635   4.946  0.2149 -0.4910 -0.3427
 4015ntf    cn121331   2.957   0.308   5.651 -0.0204  0.0063 -0.2579
 4015ntf    sn221332   3.100   0.406   5.597  0.0703 -0.0538 -0.1302
 4015ntf    nn321333   3.097   0.508   5.716  0.0084 -0.6619  0.3941
 4015ntf    sn221334   3.211   0.573   5.801 -0.0595  0.1896 -0.1546
 4015ntf    cn121335   3.231   0.716   5.690 -0.1987  0.1429 -0.2400
 4015ntf    fn421336   2.982   0.246   5.765  0.1604 -0.3275 -0.4784
 4015ntf    fn421337   2.844   0.376   5.665 -0.0144 -0.0364  0.0025
 4015ntf    fn421338   2.929   0.212   5.564  0.1550  0.0327 -0.3435
 4015ntf    on521339   3.205   0.308   5.601  0.4356  0.3432  0.0618
 4015ntf    on521340   3.047   0.459   5.473 -0.4379 -0.0371  0.0892
 4015ntf    on521341   3.339   0.507   5.810 -0.1844 -0.0394 -0.0401
 4015ntf    on521342   3.163   0.641   5.919  0.8540 -0.0335  0.3578
 4015ntf    fn421343   3.356   0.758   5.679 -0.1939  0.1408 -0.1944
 4015ntf    fn421344   3.196   0.691   5.565  0.0226 -0.3867 -0.1997
 4015ntf    fn421345   3.159   0.822   5.723 -0.0575 -0.0453  0.7056
 4016ntf    cn121346   0.061   1.491   5.508  0.4704 -0.1375 -0.0058
 4016ntf    sn221347   0.061   1.315   5.554 -0.0363 -0.1404 -0.0039
 4016ntf    nn321348   0.214   1.282   5.565 -0.0544 -0.2193  0.0117
 4016ntf    sn221349   0.310   1.268   5.689 -0.1378 -0.1284  0.0871
 4016ntf    cn121350   0.278   1.099   5.750  0.3623 -0.0932  0.4483
 4016ntf    fn421351  -0.058   1.549   5.506  0.5682  0.0738  0.2973
 4016ntf    fn421352   0.136   1.564   5.587  0.3653 -0.4111  0.3497
 4016ntf    fn421353   0.101   1.514   5.384  0.7444 -0.3921  0.0358
 4016ntf    on521354  -0.011   1.307   5.679 -0.1108  0.0406 -0.0352
 4016ntf    on521355   0.000   1.248   5.443 -0.3952 -0.0778  0.1524
 4016ntf    on521356   0.273   1.347   5.803  0.2842 -0.1548  0.2434
 4016ntf    on521357   0.449   1.265   5.652 -0.2743  0.5600 -0.4928
 4016ntf    fn421358   0.248   1.013   5.655  0.2320  0.3271  0.1092
 4016ntf    fn421359   0.383   1.052   5.815  0.5295  0.1805  0.3796
 4016ntf    fn421360   0.182   1.103   5.842 -0.2446 -0.3177 -0.1720
 4017ntf    cn121361   1.548   3.665   2.617 -0.1233 -0.1739 -0.1717
 4017ntf    sn221362   1.405   3.654   2.506 -0.4209 -0.2675  0.2202
 4017ntf    nn321363   1.307   3.765   2.560  0.0126  0.2466 -0.0465
 4017ntf    sn221364   1.205   3.759   2.679  0.2791 -0.1998  0.1641
 4017ntf    cn121365   1.048   3.765   2.587  0.1850 -0.1729  0.3267
 4017ntf    fn421366   1.519   3.654   2.746  0.2132  0.1706 -0.0629
 4017ntf    fn421367   1.635   3.566   2.601 -0.2322 -0.2674 -0.1793
 4017ntf    fn421368   1.614   3.776   2.587 -0.4596  0.1820  0.3820
 4017ntf    on521369   1.453   3.693   2.376 -0.6595  0.2050  0.2711
 4017ntf    on521370   1.366   3.518   2.531 -0.5847 -0.2635 -0.0144
 4017ntf    on521371   1.211   3.883   2.752 -0.2174 -0.2893  0.3605
 4017ntf    on521372   1.198   3.638   2.757  0.1333 -0.2420  0.0855
 4017ntf    fn421373   1.042   3.869   2.506 -0.0324 -0.3184  0.1550
 4017ntf    fn421374   1.026   3.659   2.512 -0.5798  0.5586 -0.5157
 4017ntf    fn421375   0.946   3.770   2.672  0.2037  0.2124  0.3301
 4018ntf    cn121376   2.239   1.454   5.750  0.2511  0.3113  0.0125
 4018ntf    sn221377   2.094   1.411   5.851  0.2113  0.0963 -0.1362
 4018ntf    nn321378   2.107   1.501   5.979  0.4942  0.2752 -0.2912
 4018ntf    sn221379   2.202   1.467   6.100 -0.0881 -0.0461  0.0771
 4018ntf    cn121380   2.101   1.344   6.188  0.6104 -0.2377  0.6108
 4018ntf    fn421381   2.357   1.430   5.805  0.4670  0.1609 -0.5077
 4018ntf    fn421382   2.236   1.384   5.638  0.2103 -0.3214  0.4064
 4018ntf    fn421383   2.237   1.582   5.717  0.3711  0.1164 -0.7697
 4018ntf    on521384   1.982   1.452   5.770  0.2020 -0.1246 -0.2365
 4018ntf    on521385   2.101   1.269   5.875  0.2667  0.0905 -0.1892
 4018ntf    on521386   2.212   1.584   6.184  0.3711  0.5111 -0.7327
 4018ntf    on521387   2.323   1.403   6.057  0.1153  0.5240 -0.2177
 4018ntf    fn421388   2.166   1.271   6.278  0.0904 -0.6363  0.6666
 4018ntf    fn421389   2.002   1.405   6.251  0.2371  0.0800 -0.2809
 4018ntf    fn421390   2.050   1.253   6.107  0.0777 -0.2692  0.9803
 4019ntf    cn121391   5.344   5.171   2.026 -0.3290  0.1200 -0.0089
 4019ntf    sn221392   5.463   5.309   2.032  0.0289 -0.1890  0.0698
 4019ntf    nn321393   5.577   5.246   2.119 -0.2863 -0.1762  0.4964
 4019ntf    sn221394   5.713   5.182   2.072 -0.2908  0.0092  0.2233
 4019ntf    cn121395   5.735   5.051   2.197  0.0314 -0.1175  0.0350
 4019ntf    fn421396   5.403   5.068   1.968 -0.3444  0.0817  0.0435
 4019ntf    fn421397   5.291   5.141   2.143 -0.1186 -0.1071  0.0287
 4019ntf    fn421398   5.237   5.196   1.953  0.0068 -0.3118 -0.6611
 4019ntf    on521399   5.488   5.338   1.893  0.3483  0.5224  0.2732
 4019ntf    on521400   5.395   5.406   2.114 -0.9553 -0.2482 -0.6479
 4019ntf    on521401   5.831   5.262   2.096 -0.0837 -0.3104  0.2757
 4019ntf    on521402   5.722   5.108   1.949  1.0202 -0.2372  0.4541
 4019ntf    fn421403   5.840   4.977   2.169 -0.3756 -0.5655 -0.3260
 4019ntf    fn421404   5.750   5.090   2.322 -0.1311  0.5733 -0.1534
 4019ntf    fn421405   5.646   4.954   2.191  0.2918 -0.3361 -0.3011
 4020ntf    cn121406   4.156   1.872   1.250  0.1133 -0.0139 -0.0691
 4020ntf    sn221407   4.129   1.803   1.083 -0.1717  0.2419 -0.1276
 4020ntf    nn321408   4.174   1.920   0.988  0.3775  0.0438 -0.1117
 4020ntf    sn221409   4.086   2.014   0.899 -0.2599 -0.0445  0.4155
 4020ntf    cn121410   4.094   2.166   0.999 -0.2689  0.2547 -0.0331
 4020ntf    fn421411   4.086   1.980   1.278  0.1365 -0.2227  0.8334
 4020ntf    fn421412   4.129   1.782   1.343 -0.3410 -0.6592 -0.8070
 4020ntf    fn421413   4.283   1.907   1.260  0.1295 -0.1317  0.1396
 4020ntf    on521414   4.227   1.698   1.078 -0.2673  0.1135  0.5260
 4020ntf    on521415   3.989   1.770   1.092 -0.1073 -0.0978 -0.3599
 4020ntf    on521416   3.944   1.991   0.899 -0.3109  0.2441 -0.3455
 4020ntf    on521417   4.148   2.048   0.773 -0.2072 -0.2242  0.3938
 4020ntf    fn421418   4.006   2.260   0.969 -0.2085  0.1889 -0.4198
 4020ntf    fn421419   4.085   2.151   1.130 -0.4218  0.3912 -0.0281
 4020ntf    fn421420   4.209   2.223   0.967  0.0445  0.0252  0.6603
 4021ntf    cn121421   2.219   5.651   3.215  0.0432 -0.1500  0.2440
 4021ntf    sn221422   2.348   5.541   3.279  0.1549 -0.2214 -0.0996
 4021ntf    nn321423   2.394   5.625   3.403  0.3917 -0.2140 -0.1932
 4021ntf    sn221424   2.524   5.714   3.402  0.2637 -0.0277 -0.1984
 4021ntf    cn121425   2.641   5.584   3.448  0.1083 -0.2317 -0.3754
 4021ntf    fn421426   2.272   5.769   3.186 -0.1366 -0.1728 -0.1747
 4021ntf    fn421427   2.151   5.606   3.111 -0.7454 -0.3317  0.8305
 4021ntf    fn421428   2.121   5.681   3.300 -0.2333  0.6287 -0.3418
 4021ntf    on521429   2.278   5.423   3.324  0.0184 -0.2462 -0.3784
 4021ntf    on521430   2.444   5.522   3.173 -0.9568  0.6569 -1.2889
 4021ntf    on521431   2.533   5.803   3.515 -0.0987 -0.9455  0.5682
 4021ntf    on521432   2.577   5.764   3.277  0.8952  0.2907  0.1918
 4021ntf    fn421433   2.609   5.524   3.562 -0.3344 -0.2404 -0.5065
 4021ntf    fn421434   2.640   5.495   3.350 -0.2946 -0.0824 -0.5036
 4021ntf    fn421435   2.762   5.638   3.452  0.2107 -0.4789 -0.0130
 4022ntf    cn121436   5.361   1.783   5.401 -0.1177  0.3554  0.4633
 4022ntf    sn221437   5.483   1.696   5.504  0.0682 -0.0162 -0.0664
 4022ntf    nn321438   5.564   1.814   5.569 -0.1480 -0.0586  0.2825
 4022ntf    sn221439   5.519   1.954   5.623  0.2804  0.0645  0.3274
 4022ntf    cn121440   5.582   2.063   5.493 -0.0883  0.1082  0.1839
 4022ntf    fn421441   5.274   1.858   5.467 -0.7522  0.0609 -0.0242
 4022ntf    fn421442   5.423   1.867   5.320  0.1257 -0.0880  0.1857
 4022ntf    fn421443   5.301   1.701   5.316  0.9722  0.0596 -0.0306
 4022ntf    on521444   5.413   1.622   5.606  0.5801  0.0102  0.3122
 4022ntf    on521445   5.559   1.614   5.413  0.3279 -0.1772  0.2896
 4022ntf    on521446   5.604   1.978   5.737  0.6376  0.0843  0.0566
 4022ntf    on521447   5.379   1.986   5.635  0.3185  0.3111  0.1198
 4022ntf    fn421448   5.554   2.186   5.534  0.0234  0.1776  0.0548
 4022ntf    fn421449   5.712   2.061   5.465 -0.0626 -0.3255  0.3389
 4022ntf    fn421450   5.517   2.047   5.378  0.2468  0.1357 -0.0124
 4023ntf    cn121451   1.841   5.723   5.919  0.3462  0.0920  0.2008
 4023ntf    sn221452   1.803   5.575   6.019 -0.0029  0.0591  0.0176
 4023ntf    nn321453   1.882   5.610   6.150  0.2632 -0.1842 -0.0777
 4023ntf    sn221454   1.987   5.521   6.226  0.1177  0.0977  0.4559
 4023ntf    cn121455   1.891   5.403   6.326  0.1319 -0.2638  0.0458
 4023ntf    fn421456   1.822   5.844   5.970  0.0886 -0.0841  0.5314
 4023ntf    fn421457   1.968   5.716   5.881  0.2570  0.4483 -0.1589
 4023ntf    fn421458   1.770   5.713   5.808  0.2091  0.0940  0.2868
 4023ntf    on521459   1.660   5.579   6.035 -0.0349  0.3294 -0.3023
 4023ntf    on521460   1.853   5.472   5.931 -0.5231 -0.3476  0.1950
 4023ntf    on521461   2.061   5.615   6.307 -0.5569  0.3041  0.8416
 4023ntf    on521462   2.069   5.434   6.145 -0.4510 -0.1952  0.1892
 4023ntf    fn421463   1.967   5.348   6.419  0.3217  0.2648  0.2091
 4023ntf    fn421464   1.786   5.459   6.384  0.0914 -0.1187 -0.1655
 4023ntf    fn421465   1.840   5.307   6.250  0.3259 -0.7222  0.4914
 4024ntf    cn121466   1.233   1.257   3.669  0.6100 -0.0309  0.2090
 4024ntf    sn221467   1.196   1.236   3.846 -0.0011  0.3318  0.1284
 4024ntf    nn321468   1.310   1.135   3.881 -0.2181 -0.0189 -0.1733
 4024ntf    sn221469   1.314   0.982   3.918 -0.1467  0.0784  0.2181
 4024ntf    cn121470   1.317   0.906   3.753  0.8591  0.0948  0.2233
 4024ntf    fn421471   1.356   1.296   3.640  0.7038 -0.1069  0.5072
 4024ntf    fn421472   1.228   1.143   3.602  0.2580  0.2153 -0.1919
 4024ntf    fn421473   1.149   1.342   3.612  0.6573  0.1648  0.4294
 4024ntf    on521474   1.212   1.364   3.910 -0.1603  0.3648  0.1022
 4024ntf    on521475   1.062   1.184   3.846  0.1943 -0.1757  0.6479
 4024ntf    on521476   1.193   0.929   3.976 -0.1036  0.3570  0.5684
 4024ntf    on521477   1.435   0.937   3.984  0.1131  0.5305  0.0575
 4024ntf    fn421478   1.216   0.933   3.673  0.6106  0.1767  0.5616
 4024ntf    fn421479   1.433   0.945   3.702  0.7037  0.2480 -0.0171
 4024ntf    fn421480   1.322   0.774   3.752  0.6906  0.0860  0.4909
 4025ntf    cn121481   3.092   2.174   2.333 -0.1182 -0.4776 -0.2630
 4025ntf    sn221482   2.984   2.076   2.442 -0.1538 -0.1488  0.0005
 4025ntf    nn321483   2.904   2.195   2.506  0.3193  0.1967 -0.0410
 4025ntf    sn221484   2.773   2.262   2.451  0.3603  0.0861 -0.2734
 4025ntf    cn121485   2.653   2.187   2.565  0.3031  0.5896 -0.0027
 4025ntf    fn421486   3.017   2.246   2.251  0.3134  0.0062 -0.2364
 4025ntf    fn421487   3.165   2.256   2.407 -0.2520 -0.7860  0.2205
 4025ntf    fn421488   3.174   2.105   2.256  0.5111  0.3239 -0.3295
 4025ntf    on521489   2.902   1.998   2.352 -0.7105  0.6562 -0.2083
 4025ntf    on521490   3.091   2.022   2.521  0.3148  0.6048 -0.1050
 4025ntf    on521491   2.715   2.226   2.324  0.6310 -0.0607 -0.3567
 4025ntf    on521492   2.765   2.403   2.479  0.5746  0.0422  0.0137
 4025ntf    fn421493   2.537   2.246   2.539  0.3673  0.6282 -0.2021
 4025ntf    fn421494   2.641   2.056   2.548  0.2037  0.6663 -0.5313
 4025ntf    fn421495   2.677   2.199   2.695 -0.2190 -0.0580  0.1643
 4026ntf    cn121496   2.984   3.039   2.224 -0.2044  0.0966 -0.0327
 4026ntf    sn221497   2.830   3.131   2.250 -0.1927  0.0904  0.0560
 4026ntf    nn321498   2.767   3.029   2.352  0.3306 -0.2218  0.0698
 4026ntf    sn221499   2.653   2.924   2.332  0.0784 -0.0181  0.4128
 4026ntf    cn121500   2.492   3.003   2.301  0.1870  0.0619  0.0385
 4026ntf    fn421501   3.067   3.042   2.328 -0.1303 -0.1377 -0.0842
 4026ntf    fn421502   2.951   2.911   2.213 -0.8869  0.2717 -0.0103
 4026ntf    fn421503   3.059   3.062   2.118  0.3527  0.0967  0.3551
 4026ntf    on521504   2.864   3.259   2.307  0.3670  0.0803 -0.2489
 4026ntf    on521505   2.774   3.133   2.118 -0.1142 -0.2729  0.0147
 4026ntf    on521506   2.632   2.851   2.454 -0.2495 -0.6633 -0.0227
 4026ntf    on521507   2.667   2.849   2.209 -0.5090  0.5061  0.0163
 4026ntf    fn421508   2.393   2.916   2.282 -0.1361  0.3095  0.5627
 4026ntf    fn421509   2.447   3.077   2.401 -0.0248 -0.0562  0.0315
 4026ntf    fn421510   2.494   3.077   2.192  0.1856 -0.1426 -0.1007
 4027ntf    cn121511   4.185   4.044   0.060 -0.2436 -0.3280  0.0189
 4027ntf    sn221512   4.057   4.123  -0.042 -0.1077 -0.0998  0.0234
 4027ntf    nn321513   3.995   4.213   0.071 -0.2140 -0.3400  0.1577
 4027ntf    sn221514   3.863   4.178   0.149 -0.0831  0.1364  0.5993
 4027ntf    cn121515   3.725   4.225   0.041  0.1582  0.0442  0.2498
 4027ntf    fn421516   4.126   3.938   0.113 -0.5783 -0.0465  0.2096
 4027ntf    fn421517   4.280   4.000  -0.020  0.8247  0.1995  0.9749
 4027ntf    fn421518   4.244   4.117   0.153 -0.0605 -0.1119 -0.2634
 4027ntf    on521519   4.136   4.209  -0.126  0.1617 -0.5799 -0.2206
 4027ntf    on521520   3.973   4.016  -0.090 -0.1124 -0.4343  0.7621
 4027ntf    on521521   3.846   4.263   0.265  0.0062  0.4490  0.3847
 4027ntf    on521522   3.849   4.037   0.176 -0.0979  0.1029  0.4219
 4027ntf    fn421523   3.717   4.165  -0.077  0.1060  0.5229  0.0066
 4027ntf    fn421524   3.610   4.201   0.101 -0.1263 -0.2600 -0.4098
 4027ntf    fn421525   3.723   4.354   0.010 -0.2645 -0.0740 -0.2379
 4028ntf    cn121526   2.771   3.187   0.254 -0.2094  0.0802 -0.0746
 4028ntf    sn221527   2.659   3.324   0.212  0.0334  0.3389  0.1131
 4028ntf    nn321528   2.560   3.253   0.112  0.1962  0.5322 -0.1847
 4028ntf    sn221529   2.520   3.290  -0.036 -0.1347  0.0412 -0.2181
 4028ntf    cn121530   2.348   3.339  -0.001 -0.0655  0.3593 -0.3228
 4028ntf    fn421531   2.823   3.140   0.142  0.1160  0.4368 -0.0748
 4028ntf    fn421532   2.875   3.217   0.330 -0.1396 -0.0285 -0.1275
 4028ntf    fn421533   2.709   3.086   0.312  0.2099 -0.2395 -0.1792
 4028ntf    on521534   2.601   3.354   0.340 -0.1260  0.3946  0.0291
 4028ntf    on521535   2.750   3.419   0.153  0.7410 -0.2280  0.2819
 4028ntf    on521536   2.511   3.167  -0.112  0.5567 -0.3334  0.2908
 4028ntf    on521537   2.573   3.410  -0.094  0.7582 -0.0954  0.2931
 4028ntf    fn421538   2.342   3.435   0.090 -0.2146  0.0352  0.0092
 4028ntf    fn421539   2.292   3.375  -0.115  0.2623  0.2130 -0.5342
 4028ntf    fn421540   2.277   3.242   0.054  0.3747  0.2744  0.1028
 4029ntf    cn121541   2.321   7.239   1.453  0.3979  0.0559  0.5435
 4029ntf    sn221542   2.479   7.303   1.389  0.0203  0.1633 -0.2873
 4029ntf    nn321543   2.430   7.383   1.262 -0.5010  0.2609 -0.0299
 4029ntf    sn221544   2.404   7.318   1.122 -0.1475 -0.0247  0.0340
 4029ntf    cn121545   2.246   7.399   1.083 -0.2564 -0.4396 -0.4061
 4029ntf    fn421546   2.315   7.226   1.584  0.1376  0.0984  0.5357
 4029ntf    fn421547   2.225   7.328   1.436  0.6343  0.1498 -0.3603
 4029ntf    fn421548   2.292   7.123   1.397 -0.5842  0.4293  0.2619
 4029ntf    on521549   2.540   7.387   1.490 -0.2800 -0.2036  0.2015
 4029ntf    on521550   2.561   7.188   1.360  0.5068  0.3995  0.1504
 4029ntf    on521551   2.361   7.180   1.119 -0.3621  0.0439 -0.0382
 4029ntf    on521552   2.490   7.373   1.021  0.1158  0.1862  0.3757
 4029ntf    fn421553   2.198   7.380   0.962  0.3737  0.2512 -0.7705
 4029ntf    fn421554   2.151   7.381   1.174  0.3455 -0.8916  0.1353
 4029ntf    fn421555   2.257   7.531   1.083 -0.0763 -0.4547 -0.5515
 4030ntf    cn121556   5.395   6.846   3.154  0.1443  0.1168  0.0664
 4030ntf    sn221557   5.476   6.695   3.216  0.0749 -0.1195 -0.4203
 4030ntf    nn321558   5.376   6.590   3.155 -0.8462  0.5345 -0.0575
 4030ntf    sn221559   5.385   6.497   3.029  0.0964  0.0160  0.3795
 4030ntf    cn121560   5.233   6.535   2.936  0.2803 -0.1436  0.0101
 4030ntf    fn421561   5.265   6.848   3.178  0.0527  0.8005 -0.4760
 4030ntf    fn421562   5.451   6.959   3.193  0.0086  0.0766  0.3885
 4030ntf    fn421563   5.389   6.851   3.022  0.1415  0.2035  0.0697
 4030ntf    on521564   5.612   6.703   3.170  0.3083  0.3705  0.3316
 4030ntf    on521565   5.448   6.700   3.357 -0.5993 -0.0913 -0.5492
 4030ntf    on521566   5.354   6.362   3.070  1.0067 -0.3285 -0.0348
 4030ntf    on521567   5.490   6.512   2.931 -0.3103 -0.4209 -0.1308
 4030ntf    fn421568   5.215   6.666   2.940 -0.4745 -0.2521  0.5764
 4030ntf    fn421569   5.249   6.506   2.808  0.4833 -0.3847  0.0888
 4030ntf    fn421570   5.125   6.474   2.982  0.4097 -0.0482  0.4456
 4031ntf    cn121571   3.367   5.611   6.827  0.3018 -0.0010 -0.1481
 4031ntf    sn221572   3.460   5.633   6.982 -0.1520 -0.0316  0.1293
 4031ntf    nn321573   3.414   5.778   7.021 -0.2580  0.0409 -0.2657
 4031ntf    sn221574   3.493   5.913   7.009  0.2425 -0.1721  0.5322
 4031ntf    cn121575   3.416   5.991   6.863  0.3790 -0.2627  0.4124
 4031ntf    fn421576   3.240   5.626   6.860  0.3075 -0.3317  0.0247
 4031ntf    fn421577   3.391   5.700   6.732  0.4105  0.1077 -0.0198
 4031ntf    fn421578   3.386   5.490   6.777  0.0311 -0.0534 -0.1241
 4031ntf    on521579   3.399   5.542   7.077 -0.3793 -0.0815 -0.0660
 4031ntf    on521580   3.599   5.607   6.954 -0.3075 -0.2401 -0.4707
 4031ntf    on521581   3.632   5.906   6.971  0.1859 -0.4962  0.3898
 4031ntf    on521582   3.458   6.004   7.116  0.1854 -0.3096  0.6305
 4031ntf    fn421583   3.284   5.987   6.868  0.3547  0.1518  0.1116
 4031ntf    fn421584   3.452   6.118   6.854  0.4827 -0.2986  0.3231
 4031ntf    fn421585   3.453   5.936   6.749 -0.4076 -0.3653  0.2052
 4032ntf    cn121586   5.160   3.423   4.675  0.2338  0.2380  0.1283
 4032ntf    sn221587   5.184   3.597   4.629 -0.2723  0.3104  0.1239
 4032ntf    nn321588   5.057   3.617   4.540 -0.1384  0.1455 -0.1050
 4032ntf    sn221589   5.029   3.703   4.411  0.0808  0.3627 -0.0094
 4032ntf    cn121590   4.939   3.841   4.489 -0.9818 -0.2581 -0.1155
 4032ntf    fn421591   5.053   3.411   4.752  0.0835  0.1452 -0.0910
 4032ntf    fn421592   5.139   3.346   4.569  0.0862  0.2468  0.1501
 4032ntf    fn421593   5.261   3.375   4.745 -0.3718 -0.5706  0.4742
 4032ntf    on521594   5.177   3.675   4.750 -0.9295  0.7413 -0.1907
 4032ntf    on521595   5.311   3.596   4.560 -0.0812 -0.2258  0.4705
 4032ntf    on521596   4.939   3.633   4.323 -0.0488  0.6001 -0.0653
 4032ntf    on521597   5.143   3.766   4.349  0.4913 -0.1555  0.2074
 4032ntf    fn421598   4.935   3.948   4.412 -0.1167 -0.6411 -0.7137
 4032ntf    fn421599   4.817   3.804   4.524 -0.8011 -0.2290  0.5596
 4032ntf    fn421600   4.997   3.875   4.603 -0.1109 -0.3616 -0.5162
 4033ntf    cn121601   5.465   3.849   6.265  0.4819  0.4278 -0.3225
 4033ntf    sn221602   5.460   3.811   6.443 -0.2494 -0.0616 -0.4435
 4033ntf    nn321603   5.381   3.939   6.490  0.1660  0.0761 -0.1164
 4033ntf    sn221604   5.430   4.082   6.533 -0.2513  0.1484  0.1136
 4033ntf    cn121605   5.350   4.186   6.407 -0.3172 -0.0396  0.0004
 4033ntf    fn421606   5.507   3.744   6.196 -0.0236 -0.2156  0.3261
 4033ntf    fn421607   5.347   3.869   6.210  0.3176  0.0569 -0.1131
 4033ntf    fn421608   5.538   3.957   6.245 -0.2368  0.9096 -0.3847
 4033ntf    on521609   5.386   3.687   6.447 -0.4982  0.0943 -0.2227
 4033ntf    on521610   5.598   3.803   6.483 -0.5109 -0.3803  0.4284
 4033ntf    on521611   5.570   4.111   6.518 -0.3912  0.8488  0.1493
 4033ntf    on521612   5.361   4.119   6.655 -0.0003 -0.5398  0.4718
 4033ntf    fn421613   5.368   4.314   6.433  0.1367 -0.0534 -0.2385
 4033ntf    fn421614   5.396   4.170   6.284  0.2245  0.6951  0.1036
 4033ntf    fn421615   5.219   4.168   6.404 -0.2747 -0.4899  0.6301
 4034ntf    cn121616   2.130   2.330   4.541  0.0151  0.0130 -0.2523
 4034ntf    sn221617   2.175   2.491   4.613 -0.4389  0.0007  0.0633
 4034ntf    nn321618   2.082   2.582   4.525  0.0285  0.1692 -0.2550
 4034ntf    sn221619   2.118   2.697   4.424 -0.5382  0.3220 -0.2857
 4034ntf    cn121620   2.015   2.834   4.483 -0.5116  0.0892  0.3124
 4034ntf    fn421621   2.002   2.298   4.556 -0.0018  0.3904  0.4563
 4034ntf    fn421622   2.167   2.316   4.415 -0.3982 -0.2907 -0.3404
 4034ntf    fn421623   2.192   2.233   4.606  0.2005  0.0683 -0.3480
 4034ntf    on521624   2.113   2.492   4.743 -0.4706  0.3807  0.0466
 4034ntf    on521625   2.318   2.495   4.600 -0.3959 -1.0532  0.1051
 4034ntf    on521626   2.067   2.676   4.291 -0.1491 -0.5737 -0.3074
 4034ntf    on521627   2.255   2.741   4.441 -0.3998 -0.0589 -0.4050
 4034ntf    fn421628   2.050   2.888   4.599 -0.9000 -0.0396  0.4879
 4034ntf    fn421629   2.015   2.939   4.402 -0.1629  0.1444  0.3826
 4034ntf    fn421630   1.888   2.801   4.494 -0.4350 -0.3182 -0.0210
 4035ntf    cn121631   3.845   4.555   4.642 -0.0004 -0.1706  0.1443
 4035ntf    sn221632   3.960   4.683   4.583 -0.1199 -0.1582 -0.0621
 4035ntf    nn321633   3.895   4.722   4.445 -0.1815 -0.5088 -0.1348
 4035ntf    sn221634   3.964   4.744   4.306 -0.1723 -0.0666 -0.0644
 4035ntf    cn121635   3.946   4.576   4.237  0.1675  0.0620 -0.4697
 4035ntf    fn421636   3.882   4.497   4.755  0.1488 -0.6084 -0.1241
 4035ntf    fn421637   3.721   4.598   4.660 -0.2940 -0.6897 -0.6160
 4035ntf    fn421638   3.830   4.459   4.553  0.4500  0.6308 -0.8191
 4035ntf    on521639   3.950   4.792   4.677 -0.0605  0.4204 -0.7170
 4035ntf    on521640   4.088   4.618   4.569  0.1250  0.4396 -0.6581
 4035ntf    on521641   4.107   4.763   4.300 -0.1845 -0.1194 -0.5306
 4035ntf    on521642   3.880   4.819   4.216  0.1453 -0.0612 -0.3592
 4035ntf    fn421643   3.990   4.488   4.325 -0.5679 -0.3356 -0.4941
 4035ntf    fn421644   3.819   4.542   4.224  0.2493 -0.3183 -0.2873
 4035ntf    fn421645   3.988   4.563   4.112  0.3272  0.1552 -0.4255
 4036ntf    cn121646   0.927   2.623   6.026 -0.5540 -0.0719 -0.2218
 4036ntf    sn221647   0.876   2.751   6.144  0.0479  0.3504 -0.4120
 4036ntf    nn321648   0.859   2.658   6.269 -0.2267  0.9819  0.0315
 4036ntf    sn221649   0.892   2.669   6.422 -0.1950 -0.1038  0.1143
 4036ntf    cn121650   1.054   2.587   6.418  0.0033  0.2872  0.0860
 4036ntf    fn421651   0.826   2.540   6.013  0.0532 -0.8803  0.1653
 4036ntf    fn421652   0.958   2.676   5.908 -0.0886  0.0832 -0.0334
 4036ntf    fn421653   1.034   2.552   6.057 -0.5847 -0.0861 -0.1500
 4036ntf    on521654   0.996   2.830   6.159  0.3037 -0.2111  0.5714
 4036ntf    on521655   0.753   2.811   6.097 -0.1227 -0.0880 -0.5278
 4036ntf    on521656   0.806   2.583   6.500 -0.1146  0.2894  0.6380
 4036ntf    on521657   0.909   2.799   6.481 -0.4508 -0.1721  0.3417
 4036ntf    fn421658   1.048   2.475   6.347  0.0809  0.3601 -0.0371
 4036ntf    fn421659   1.143   2.664   6.357  0.0271  0.1218 -0.0912
 4036ntf    fn421660   1.104   2.568   6.539 -0.3968 -0.5806  0.1250
 4037ntf    cn121661   0.089   7.148   6.914  0.0327  0.1876  0.3646
 4037ntf    sn221662   0.113   7.251   6.766 -0.2512 -0.0519  0.1517
 4037ntf    nn321663   0.269   7.254   6.754 -0.3094 -0.2541 -0.7117
 4037ntf    sn221664   0.359   7.199   6.638  0.5152  0.0269 -0.2128
 4037ntf    cn121665   0.516   7.270   6.697  0.2408  0.1797  0.3423
 4037ntf    fn421666  -0.040   7.125   6.929  0.0930 -0.6601 -0.3297
 4037ntf    fn421667   0.147   7.030   6.901  0.0219  0.2536 -0.3103
 4037ntf    fn421668   0.137   7.203   7.025  0.3762  0.0741  0.2727
 4037ntf    on521669   0.052   7.169   6.664  0.3108 -0.2369 -0.0350
 4037ntf    on521670   0.059   7.380   6.799  0.0914  0.1336 -0.0110
 4037ntf    on521671   0.341   7.254   6.506 -0.0862  0.4874  0.0580
 4037ntf    on521672   0.378   7.056   6.637  0.2441 -0.0166  0.6320
 4037ntf    fn421673   0.559   7.232   6.816  0.0607  0.0309  0.3603
 4037ntf    fn421674   0.611   7.249   6.606  0.1128  0.0571  0.2368
 4037ntf    fn421675   0.503   7.401   6.701  0.2143  0.1934 -0.0895
 4038ntf    cn121676   4.767   4.438   6.836 -0.3201 -0.2696  0.1045
 4038ntf    sn221677   4.798   4.393   7.009  0.2505  0.1455  0.1123
 4038ntf    nn321678   4.724   4.509   7.084  0.5885  0.2834  0.2334
 4038ntf    sn221679   4.801   4.632   7.144  0.8265  0.2131  0.0764
 4038ntf    cn121680   4.666   4.753   7.126  0.2287 -0.4978 -0.2933
 4038ntf    fn421681   4.815   4.343   6.757  0.5574  0.3602 -0.1400
 4038ntf    fn421682   4.636   4.442   6.821 -0.2864  0.1417 -0.1034
 4038ntf    fn421683   4.813   4.557   6.802 -0.2044 -0.4686 -0.4563
 4038ntf    on521684   4.741   4.262   7.027  0.5115 -0.0475 -0.4338
 4038ntf    on521685   4.942   4.385   7.016  0.2410 -0.0446  0.1050
 4038ntf    on521686   4.895   4.691   7.052  0.9224 -0.1078 -0.0319
 4038ntf    on521687   4.823   4.635   7.287 -0.1382  0.3936  0.2320
 4038ntf    fn421688   4.714   4.874   7.150  1.2054 -0.9736  0.2452
 4038ntf    fn421689   4.619   4.757   7.003  0.0141 -0.8550 -0.2248
 4038ntf    fn421690   4.567   4.732   7.211  0.3981  0.0830  0.0571
 4039ntf    cn121691   0.395   3.562   5.440 -0.3113  0.8912 -0.3847
 4039ntf    sn221692   0.263   3.567   5.315 -0.3800  0.0665 -0.3502
 4039ntf    nn321693   0.351   3.633   5.203  0.7259 -0.2118  0.3398
 4039ntf    sn221694   0.386   3.573   5.062  0.3472  0.2899  0.0284
 4039ntf    cn121695   0.253   3.644   4.961  0.1866  0.1103  0.1129
 4039ntf    fn421696   0.375   3.467   5.529  0.0236  0.8847 -0.3160
 4039ntf    fn421697   0.508   3.528   5.380 -0.4142  0.4031 -0.3028
 4039ntf    fn421698   0.432   3.672   5.503  0.5329  0.2436  0.2805
 4039ntf    on521699   0.231   3.428   5.296 -0.3221 -0.1067  0.7497
 4039ntf    on521700   0.162   3.650   5.376  0.0312  0.2763  0.0563
 4039ntf    on521701   0.374   3.432   5.036  0.3739  0.2453  0.2539
 4039ntf    on521702   0.500   3.640   5.005  0.1169 -0.0358 -0.8316
 4039ntf    fn421703   0.243   3.581   4.845  0.2817  0.4328 -0.0723
 4039ntf    fn421704   0.132   3.623   5.012  0.2636  0.1284  0.3028
 4039ntf    fn421705   0.256   3.773   4.932 -0.2026  0.0894 -0.0359
 4040ntf    cn121706   1.343   4.018   5.482  0.2785  0.2428  0.1628
 4040ntf    sn221707   1.193   4.121   5.480  0.0752 -0.0536  0.1021
 4040ntf    nn321708   1.230   4.223   5.593  0.5197 -0.0154 -0.0748
 4040ntf    sn221709   1.263   4.376   5.586  0.2022  0.0680  0.2202
 4040ntf    cn121710   1.258   4.427   5.761  0.2379  0.3920  0.1274
 4040ntf    fn421711   1.325   3.905   5.549  0.0674 -0.1816 -0.5969
 4040ntf    fn421712   1.374   3.974   5.361  0.0902 -0.2396  0.2850
 4040ntf    fn421713   1.446   4.077   5.541  0.5339  0.1217 -0.1580
 4040ntf    on521714   1.184   4.168   5.344 -0.1656 -0.1619  0.0799
 4040ntf    on521715   1.093   4.025   5.520 -0.5488  0.2689 -0.6609
 4040ntf    on521716   1.166   4.459   5.519 -0.4672 -0.5934  0.3558
 4040ntf    on521717   1.400   4.400   5.547  0.2157 -0.4227 -0.0393
 4040ntf    fn421718   1.289   4.556   5.766  0.1420  0.4136  0.1686
 4040ntf    fn421719   1.138   4.401   5.809  0.3312  0.0648  0.1873
 4040ntf    fn421720   1.354   4.363   5.826 -0.1281  0.2333  0.5127
 4041ntf    cn121721   3.317   2.572   2.080  0.3345 -0.0502 -0.1093
 4041ntf    sn221722   3.193   2.700   2.042  0.2018 -0.1572 -0.0405
 4041ntf    nn321723   3.261   2.761   1.914 -0.4242  0.8907  0.1178
 4041ntf    sn221724   3.223   2.744   1.763 -0.0850  0.0892  0.1190
 4041ntf    cn121725   3.372   2.657   1.705 -0.0083  0.1644  0.2045
 4041ntf    fn421726   3.339   2.497   1.973  0.4278 -0.2202  0.0299
 4041ntf    fn421727   3.435   2.615   2.121  0.3515  0.0846 -0.3000
 4041ntf    fn421728   3.277   2.490   2.176 -0.0233 -0.1912 -0.3741
 4041ntf    on521729   3.066   2.637   2.019  0.5159 -0.5825 -0.6506
 4041ntf    on521730   3.208   2.795   2.149 -0.0312 -0.1620 -0.0044
 4041ntf    on521731   3.241   2.867   1.689  0.5633  0.1483  0.3648
 4041ntf    on521732   3.117   2.654   1.725 -0.0309  0.1844 -0.2669
 4041ntf    fn421733   3.387   2.638   1.575 -0.2076 -0.4654  0.2719
 4041ntf    fn421734   3.480   2.712   1.758 -0.1163 -0.0272  0.6301
 4041ntf    fn421735   3.384   2.537   1.760  0.0210  0.0979  0.0546
 4042ntf    cn121736   4.731   6.722   1.800 -0.3342 -0.0975 -0.0305
 4042ntf    sn221737   4.846   6.608   1.718  0.0312  0.2226  0.0375
 4042ntf    nn321738   4.899   6.698   1.601 -0.0906  0.6933  0.3438
 4042ntf    sn221739   5.031   6.691   1.517 -0.2563  0.2506  0.1195
 4042ntf    cn121740   4.988   6.584   1.376 -0.2162 -0.2730  0.4992
 4042ntf    fn421741   4.610   6.710   1.748 -0.6269  0.2357  0.5552
 4042ntf    fn421742   4.714   6.720   1.931 -0.2483 -0.3363 -0.0225
 4042ntf    fn421743   4.774   6.845   1.779 -0.3590 -0.1493 -0.3816
 4042ntf    on521744   4.937   6.565   1.822 -0.1179  0.2890  0.1964
 4042ntf    on521745   4.755   6.508   1.666 -0.2562  0.4900  0.0273
 4042ntf    on521746   5.141   6.628   1.586 -0.5619  0.3131  0.6731
 4042ntf    on521747   5.049   6.819   1.454 -0.4372  0.5519  0.6779
 4042ntf    fn421748   4.882   6.625   1.310 -0.0611  0.2858  0.5906
 4042ntf    fn421749   5.087   6.583   1.287 -0.3393  0.5214  0.3451
 4042ntf    fn421750   4.969   6.458   1.411  0.0513 -0.5113 -0.1903
 4043ntf    cn121751   6.253   1.498   6.132 -0.1944  0.6682 -0.2510
 4043ntf    sn221752   6.382   1.520   6.006 -0.0218  0.0427 -0.1863
 4043ntf    nn321753   6.316   1.623   5.907 -0.9065  0.0328  0.3830
 4043ntf    sn221754   6.231   1.573   5.785  0.0144  0.0093 -0.2547
 4043ntf    cn121755   6.112   1.709   5.768  0.1659  0.1450 -0.2304
 4043ntf    fn421756   6.290   1.418   6.231 -0.1307  0.1512 -0.6882
 4043ntf    fn421757   6.215   1.607   6.198 -0.2839  0.1750  0.5225
 4043ntf    fn421758   6.147   1.438   6.080  0.1771  0.0134 -0.2661
 4043ntf    on521759   6.493   1.577   6.078 -0.1176 -0.0433  0.0298
 4043ntf    on521760   6.418   1.391   5.951 -0.0475 -0.2323  0.4305
 4043ntf    on521761   6.145   1.458   5.799  0.0956 -0.0225 -0.0189
 4043ntf    on521762   6.296   1.587   5.656 -0.6904  0.1403 -0.6030
 4043ntf    fn421763   6.069   1.740   5.890  0.8296  0.3650 -0.0453
 4043ntf    fn421764   6.162   1.819   5.712  0.3888 -0.0915 -0.4960
 4043ntf    fn421765   6.004   1.672   5.701  0.1692  0.5491 -0.4635
 4044ntf    cn121766   4.039   0.375   6.209 -0.3030 -0.2671 -0.0476
 4044ntf    sn221767   3.947   0.231   6.271 -0.2202 -0.2878  0.0278
 4044ntf    nn321768   4.054   0.187   6.377  0.0861  0.3314 -0.0176
 4044ntf    sn221769   4.147   0.060   6.372 -0.2742  0.0589  0.1466
 4044ntf    cn121770   4.292   0.141   6.298 -0.0206 -0.2435  0.3147
 4044ntf    fn421771   3.969   0.439   6.117 -0.1293 -0.3443 -0.2319
 4044ntf    fn421772   4.080   0.472   6.289  0.4254 -0.5152 -0.1202
 4044ntf    fn421773   4.151   0.334   6.153 -0.0767  0.0622  0.1537
 4044ntf    on521774   3.835   0.292   6.339  0.0747 -0.1367  0.3792
 4044ntf    on521775   3.926   0.148   6.155 -0.3023  0.5901 -0.5972
 4044ntf    on521776   4.108  -0.055   6.294 -0.5300  0.2120  0.0439
 4044ntf    on521777   4.190   0.026   6.505  0.3648 -0.2190 -0.1318
 4044ntf    fn421778   4.277   0.149   6.167 -0.1911  0.0962  0.3547
 4044ntf    fn421779   4.313   0.263   6.343 -0.4473 -0.2122  0.4289
 4044ntf    fn421780   4.407   0.079   6.320  0.2719  0.0748 -0.2944
 4045ntf    cn121781   6.175   3.803   5.417  0.2370  0.2388 -0.2857
 4045ntf    sn221782   6.160   3.633   5.355  0.1566  0.1640 -0.0634
 4045ntf    nn321783   6.017   3.638   5.289  0.2878 -0.4938 -0.4157
 4045ntf    sn221784   5.981   3.644   5.137  0.2187  0.4147 -0.3720
 4045ntf    cn121785   5.965   3.823   5.112 -0.4085  0.4055 -0.0572
 4045ntf    fn421786   6.219   3.876   5.316 -0.4518  0.4564 -0.4348
 4045ntf    fn421787   6.056   3.848   5.452  0.2323 -0.4742  0.6646
 4045ntf    fn421788   6.254   3.820   5.522 -0.2226  0.1134  0.0857
 4045ntf    on521789   6.274   3.606   5.271 -0.0717 -0.7680 -0.0824
 4045ntf    on521790   6.158   3.559   5.479 -0.1111 -0.1472 -0.2487
 4045ntf    on521791   5.842   3.608   5.119  0.2207  0.2908 -0.1478
 4045ntf    on521792   6.081   3.599   5.043  0.6855  0.5869  0.0431
 4045ntf    fn421793   5.923   3.854   4.990 -0.4526  0.0643 -0.1277
 4045ntf    fn421794   5.890   3.878   5.206  0.0075  0.1333  0.4395
 4045ntf    fn421795   6.086   3.874   5.131 -0.2674  0.3106 -0.6963
 4046ntf    cn121796   2.487   6.390   0.511 -0.1937 -0.0070 -0.4530
 4046ntf    sn221797   2.559   6.535   0.593 -0.3325 -0.1611 -0.0575
 4046ntf    nn321798   2.524   6.662   0.507  0.1133 -0.2482 -0.3725
 4046ntf    sn221799   2.554   6.693   0.357 -0.3229 -0.0755 -0.4280
 4046ntf    cn121800   2.397   6.649   0.277 -0.5866 -0.0008  0.0503
 4046ntf    fn421801   2.505   6.283   0.586  0.3686  0.2638 -0.1975
 4046ntf    fn421802   2.356   6.408   0.507 -0.2086 -0.1408 -0.5672
 4046ntf    fn421803   2.534   6.383   0.387 -0.5147 -0.0810 -0.5718
 4046ntf    on521804   2.486   6.538   0.718 -0.0736 -0.4742  0.1034
 4046ntf    on521805   2.702   6.519   0.603 -0.3463 -0.1384  0.1971
 4046ntf    on521806   2.645   6.608   0.283  0.0837  0.0168 -0.0371
 4046ntf    on521807   2.560   6.834   0.328 -0.0608  0.0185  0.0745
 4046ntf    fn421808   2.305   6.709   0.351 -0.5733 -0.0514  0.1090
 4046ntf    fn421809   2.389   6.679   0.149 -0.2941 -0.0490  0.0207
 4046ntf    fn421810   2.371   6.520   0.290  0.1083 -0.1212  0.2614
 4047ntf    cn121811   0.048   5.670   6.898  0.1404 -0.1799  0.3844
 4047ntf    sn221812   0.021   5.508   6.821 -0.0475  0.0480 -0.0338
 4047ntf    nn321813  -0.038   5.417   6.935 -0.1448 -0.2529 -0.3211
 4047ntf    sn221814   0.007   5.273   6.979  0.2350 -0.1220 -0.2730
 4047ntf    cn121815   0.129   5.320   7.105  0.1804 -0.3042 -0.1516
 4047ntf    fn421816   0.084   5.762   6.811  0.0487 -0.0343  0.4985
 4047ntf    fn421817  -0.063   5.713   6.957 -0.3372 -0.2823 -0.4283
 4047ntf    fn421818   0.139   5.661   6.993  0.3710  0.4783  0.2298
 4047ntf    on521819  -0.080   5.522   6.719 -0.0780  0.2927  0.0300
 4047ntf    on521820   0.155   5.476   6.778  0.1747  0.3540  0.4303
 4047ntf    on521821   0.078   5.198   6.879 -0.0735  0.0025 -0.5855
 4047ntf    on521822  -0.093   5.202   7.055  0.5487  0.0271  0.2848
 4047ntf    fn421823   0.196   5.212   7.143 -0.0804 -0.2873  0.3661
 4047ntf    fn421824   0.222   5.406   7.066 -0.2217 -0.0102 -0.4739
 4047ntf    fn421825   0.084   5.374   7.217  0.7522  0.1569 -0.1367
 4048ntf    cn121826   0.335   2.185   2.133  0.3847 -0.3645  0.0286
 4048ntf    sn221827   0.305   2.017   2.197  0.0301 -0.1822  0.3386
 4048ntf    nn321828   0.154   2.015   2.239  0.1193  0.1772  0.6887
 4048ntf    sn221829   0.023   2.006   2.152  0.2527 -0.1638  0.5216
 4048ntf    cn121830  -0.006   1.829   2.181 -0.3925 -0.1473 -0.0042
 4048ntf    fn421831   0.288   2.284   2.207 -0.3042 -0.6599 -0.0068
 4048ntf    fn421832   0.465   2.207   2.119  0.3102  0.3504  0.4233
 4048ntf    fn421833   0.280   2.203   2.014 -0.1033 -0.3197  0.2612
 4048ntf    on521834   0.347   1.935   2.087 -0.4678 -0.1053  0.0908
 4048ntf    on521835   0.391   2.008   2.313  0.1584  0.1852  0.2746
 4048ntf    on521836   0.031   2.026   2.010  0.0347  0.1607  0.5533
 4048ntf    on521837  -0.091   2.068   2.216  0.0990 -0.1815  0.2659
 4048ntf    fn421838   0.103   1.755   2.166 -0.1709  0.2264 -0.2502
 4048ntf    fn421839  -0.048   1.813   2.305  0.7470  0.3529  0.4624
 4048ntf    fn421840  -0.101   1.794   2.096 -0.0955  0.0979 -0.4443
 4049ntf    cn121841   4.513   1.923   6.795  0.2591 -0.4232  0.3602
 4049ntf    sn221842   4.344   1.932   6.730  0.3095  0.1426  0.3056
 4049ntf    nn321843   4.337   1.801   6.644 -0.2925  0.0770  0.4517
 4049ntf    sn221844   4.212   1.718   6.597 -0.1212  0.0776 -0.0153
 4049ntf    cn121845   4.243   1.717   6.418  0.1718 -0.0608  0.0366
 4049ntf    fn421846   4.601   1.956   6.702 -0.1154 -0.0766  0.1261
 4049ntf    fn421847   4.532   2.000   6.901  0.2350  0.5384 -0.3216
 4049ntf    fn421848   4.547   1.799   6.829  0.4480 -0.4252  0.1643
 4049ntf    on521849   4.263   1.933   6.849  0.0398 -1.0979  0.1429
 4049ntf    on521850   4.337   2.049   6.645 -0.1402 -0.0811  0.0320
 4049ntf    on521851   4.083   1.780   6.617  0.0372  0.4177 -0.0316
 4049ntf    on521852   4.216   1.578   6.629 -0.6726 -0.0227 -0.3682
 4049ntf    fn421853   4.145   1.666   6.345 -0.2649  0.5301  0.2033
 4049ntf    fn421854   4.247   1.840   6.369 -0.0246 -0.2306 -0.4106
 4049ntf    fn421855   4.361   1.665   6.389  0.4226  0.4581  0.1117
 4050ntf    cn121856   6.262   7.063   2.321  0.2526  0.0119 -0.3850
 4050ntf    sn221857   6.106   7.081   2.413  0.4168  0.1022 -0.1201
 4050ntf    nn321858   6.086   6.935   2.467  0.1643  0.1805  0.0001
 4050ntf    sn221859   6.038   6.804   2.395  0.0992  0.3152 -0.2025
 4050ntf    cn121860   5.860   6.789   2.431  0.1434 -0.3277 -0.2333
 4050ntf    fn421861   6.368   7.033   2.395 -0.5864 -0.3759  0.6875
 4050ntf    fn421862   6.252   6.959   2.240  0.5427  0.0196 -0.4348
 4050ntf    fn421863   6.289   7.176   2.258  0.1213  0.3051  0.0842
 4050ntf    on521864   6.139   7.179   2.513 -0.8613  0.8037 -0.3702
 4050ntf    on521865   6.006   7.128   2.321  0.3126  0.3793  0.1347
 4050ntf    on521866   6.094   6.695   2.472 -0.1215  0.4244  0.1162
 4050ntf    on521867   6.056   6.805   2.252  0.1554  0.6008 -0.1933
 4050ntf    fn421868   5.798   6.674   2.407 -0.2299 -0.1040 -0.3547
 4050ntf    fn421869   5.831   6.810   2.558  0.0186 -0.2273 -0.2783
 4050ntf    fn421870   5.804   6.883   2.356 -0.3565 -0.3707  0.0787
 4051ntf    cn121871   3.014   0.495   1.426  0.0411  0.0888 -0.3745
 4051ntf    sn221872   3.166   0.497   1.526 -0.0884  0.0198 -0.1761
 4051ntf    nn321873   3.099   0.543   1.661 -0.1915  0.1533 -0.2717
 4051ntf    sn221874   3.142   0.661   1.755 -0.0707  0.1768 -0.3567
 4051ntf    cn121875   3.172   0.578   1.914  0.0165 -0.0407 -0.4855
 4051ntf    fn421876   2.908   0.446   1.488  0.3407 -0.4547 -0.2848
 4051ntf    fn421877   2.982   0.620   1.394  0.2899  0.2208 -0.1160
 4051ntf    fn421878   3.033   0.428   1.314  0.8298 -0.0971 -0.1377
 4051ntf    on521879   3.205   0.358   1.528  0.1889  0.1009  0.1758
 4051ntf    on521880   3.250   0.587   1.452  0.0316  0.4798  0.5113
 4051ntf    on521881   3.031   0.749   1.781 -0.0224  0.0956  0.1186
 4051ntf    on521882   3.268   0.724   1.724  0.3462 -0.3652  0.2180
 4051ntf    fn421883   3.061   0.528   1.964 -0.1205  0.5082 -0.2296
 4051ntf    fn421884   3.252   0.473   1.901 -0.0624 -0.0951 -0.5306
 4051ntf    fn421885   3.235   0.657   2.000 -0.2348 -0.2027 -0.1499
 4052ntf    cn121886   6.597   4.695   0.268 -0.0100  0.3137 -0.1719
 4052ntf    sn221887   6.425   4.641   0.294  0.0307  0.2312 -0.0777
 4052ntf    nn321888   6.396   4.554   0.166 -0.2728  0.3767 -0.1090
 4052ntf    sn221889   6.321   4.416   0.165  0.2469  0.0905 -0.1105
 4052ntf    cn121890   6.152   4.483   0.160  0.1472 -0.1426  0.1320
 4052ntf    fn421891   6.684   4.596   0.260 -0.3653  0.0118 -0.3552
 4052ntf    fn421892   6.619   4.752   0.150 -0.3559  0.5286 -0.1375
 4052ntf    fn421893   6.642   4.772   0.366  0.3783 -0.0244 -0.0845
 4052ntf    on521894   6.417   4.582   0.425 -0.4766 -0.5434 -0.4537
 4052ntf    on521895   6.363   4.771   0.284 -0.0640  0.1743 -0.2280
 4052ntf    on521896   6.334   4.331   0.281 -0.0615 -0.2191 -0.3005
 4052ntf    on521897   6.330   4.350   0.037 -0.0695  0.2372 -0.2088
 4052ntf    fn421898   6.127   4.555   0.268  0.0630  1.1169 -0.7119
 4052ntf    fn421899   6.130   4.565   0.059  0.0077 -0.0992  0.1963
 4052ntf    fn421900   6.058   4.390   0.158  0.1269 -0.1154 -0.2263
 4053ntf    cn121901   6.295   6.975   5.772  0.7438  0.4161 -0.1786
 4053ntf    sn221902   6.309   6.906   5.940 -0.2222  0.1813 -0.1857
 4053ntf    nn321903   6.268   7.029   6.029 -0.1968  0.1031 -0.0663
 4053ntf    sn221904   6.123   7.055   6.084 -0.1588 -0.2570  0.2129
 4053ntf    cn121905   6.119   7.231   6.128 -0.0754 -0.1508 -0.2045
 4053ntf    fn421906   6.308   6.897   5.666  0.0302 -0.4522  0.3582
 4053ntf    fn421907   6.176   7.034   5.763  0.4968 -0.0979 -0.2999
 4053ntf    fn421908   6.383   7.070   5.748  0.4393  0.7112 -0.1462
 4053ntf    on521909   6.218   6.795   5.949 -0.3698  0.2622 -0.6328
 4053ntf    on521910   6.447   6.864   5.946 -0.3506 -0.1493  0.4788
 4053ntf    on521911   6.106   6.989   6.211  0.5536 -0.2290  0.3285
 4053ntf    on521912   6.019   7.034   5.987 -0.0648 -0.4917  0.1623
 4053ntf    fn421913   6.151   7.264   6.252 -1.0201 -0.2252  0.0629
 4053ntf    fn421914   6.199   7.299   6.047  0.9974 -0.9354  0.1818
 4053ntf    fn421915   5.999   7.286   6.118 -0.0066  0.0634  0.1241
 4054ntf    cn121916   0.973   3.378   3.548 -0.4100  0.2041 -0.1620
 4054ntf    sn221917   0.832   3.263   3.548 -0.0866 -0.1939 -0.3945
 4054ntf    nn321918   0.768   3.285   3.690  0.1133 -0.3812 -0.2731
 4054ntf    sn221919   0.729   3.186   3.805 -0.1950  0.2956  0.2165
 4054ntf    cn121920   0.842   3.235   3.938 -0.2041 -0.2739  0.4390
 4054ntf    fn421921   0.933   3.499   3.583  0.3959  0.4988 -0.2397
 4054ntf    fn421922   1.072   3.337   3.626 -0.3900 -0.4791 -0.5381
 4054ntf    fn421923   1.021   3.405   3.428 -0.5370  0.4414 -0.1600
 4054ntf    on521924   0.749   3.316   3.444  0.0855 -0.1019 -0.4854
 4054ntf    on521925   0.895   3.135   3.526 -0.1082 -0.2476 -0.1570
 4054ntf    on521926   0.765   3.047   3.786  0.5835  0.5356 -0.1184
 4054ntf    on521927   0.604   3.221   3.866 -0.2148  0.7487 -0.0816
 4054ntf    fn421928   0.800   3.334   4.015 -0.7028 -0.2506  0.1407
 4054ntf    fn421929   0.865   3.130   4.015 -0.1353 -0.2977  0.3865
 4054ntf    fn421930   0.957   3.281   3.890  0.0480 -0.4850  0.8338
 4055ntf    cn121931   2.611   4.037   2.212 -0.0292 -0.3750 -0.1980
 4055ntf    sn221932   2.535   4.202   2.214  0.4808 -0.1373 -0.1486
 4055ntf    nn321933   2.592   4.262   2.347 -0.1878  0.2337 -0.0247
 4055ntf    sn221934   2.529   4.263   2.491  0.5223 -0.1953  0.2967
 4055ntf    cn121935   2.657   4.187   2.595  0.4261 -0.3107  0.3309
 4055ntf    fn421936   2.741   4.054   2.198 -0.1032  0.2336 -0.1694
 4055ntf    fn421937   2.587   3.952   2.311 -0.0740 -0.2894 -0.1364
 4055ntf    fn421938   2.565   3.974   2.105  0.1209 -0.6446 -0.1057
 4055ntf    on521939   2.585   4.274   2.100  0.0345 -0.0116 -0.2692
 4055ntf    on521940   2.392   4.180   2.214  0.3601  0.4518  1.6933
 4055ntf    on521941   2.421   4.169   2.513  0.6794 -0.3225  0.5269
 4055ntf    on521942   2.508   4.399   2.533  0.4981 -0.0495 -0.1779
 4055ntf    fn421943   2.696   4.071   2.545  0.2364 -0.3030  0.1655
 4055ntf    fn421944   2.771   4.254   2.593  0.4421 -0.3379  0.3279
 4055ntf    fn421945   2.617   4.167   2.720 -0.5643 -0.5215 -0.0056
 4056ntf    cn121946   4.323   2.544   5.647 -0.1861 -0.0223 -0.1088
 4056ntf    sn221947   4.175   2.464   5.715 -0.1162  0.1596  0.2607
 4056ntf    nn321948   4.064   2.562   5.665  0.3539  0.2611 -0.5987
 4056ntf    sn221949   3.921   2.534   5.606  0.2150 -0.1343 -0.0762
 4056ntf    cn121950   3.813   2.649   5.697  0.2008 -0.2399  0.0415
 4056ntf    fn421951   4.335   2.527   5.517  0.0251 -0.0695 -0.0837
 4056ntf    fn421952   4.333   2.675   5.659  0.6085 -0.0516 -0.4129
 4056ntf    fn421953   4.432   2.496   5.705 -0.2993 -0.1452  0.0051
 4056ntf    on521954   4.186   2.343   5.637  0.0771  0.3395  0.0091
 4056ntf    on521955   4.189   2.468   5.859 -1.0170  0.4706  0.3461
 4056ntf    on521956   3.870   2.403   5.640  0.2582 -0.2652 -0.5156
 4056ntf    on521957   3.906   2.574   5.468 -0.3427  0.5857  0.1881
 4056ntf    fn421958   3.794   2.621   5.825  0.3305  0.1834  0.1531
 4056ntf    fn421959   3.868   2.769   5.697 -0.3550  0.0198 -0.0147
 4056ntf    fn421960   3.695   2.668   5.640  0.3075  0.2498 -0.0173
 4057ntf    cn121961   4.296   5.818   1.659  0.0623  0.0003  0.4723
 4057ntf    sn221962   4.188   5.686   1.723 -0.2044  0.1324  0.2979
 4057ntf    nn321963   4.046   5.751   1.712 -0.5183 -0.6034 -0.0469
 4057ntf    sn221964   3.941   5.753   1.829 -0.1356  0.0019  0.2946
 4057ntf    cn121965   3.797   5.697   1.733  0.0978 -0.2016  0.0590
 4057ntf    fn421966   4.274   5.840   1.530  0.0143 -0.3906  0.4139
 4057ntf    fn421967   4.269   5.931   1.723  0.0066 -0.0459  0.5294
 4057ntf    fn421968   4.428   5.807   1.667  0.1201  0.2676 -0.0733
 4057ntf    on521969   4.209   5.581   1.627  0.2014  0.2816  0.2193
 4057ntf    on521970   4.234   5.660   1.857 -0.5377 -0.3893  0.3124
 4057ntf    on521971   3.907   5.888   1.866 -0.0628  0.2694 -0.5744
 4057ntf    on521972   3.954   5.661   1.939  0.3644 -0.4374 -0.1243
 4057ntf    fn421973   3.684   5.723   1.797 -0.2551  0.3160 -0.7547
 4057ntf    fn421974   3.788   5.749   1.612 -0.0945 -0.0958  0.1183
 4057ntf    fn421975   3.802   5.566   1.712  0.5759 -0.1841  0.0579
 4058ntf    cn121976   7.116   1.042   3.620  0.3364  0.1907 -0.0885
 4058ntf    sn221977   6.993   1.168   3.571  0.0010 -0.0826  0.0450
 4058ntf    nn321978   7.044   1.285   3.662  0.1926  0.0391 -0.2169
 4058ntf    sn221979   6.991   1.432   3.674  0.1729  0.0166 -0.0195
 4058ntf    cn121980   7.100   1.517   3.556  0.1977  0.1446  0.0954
 4058ntf    fn421981   7.137   1.027   3.750  0.0407  0.0031 -0.0614
 4058ntf    fn421982   7.069   0.928   3.571 -0.2330  0.5729 -0.4462
 4058ntf    fn421983   7.230   1.064   3.557  0.0788 -0.0898 -0.6641
 4058ntf    on521984   7.023   1.171   3.430  0.1359  0.0957  0.0782
 4058ntf    on521985   6.868   1.105   3.605 -0.0307 -0.0346  0.0180
 4058ntf    on521986   7.033   1.483   3.802 -0.6108 -0.1010  0.2928
 4058ntf    on521987   6.856   1.458   3.628  0.0084  0.6008  0.7743
 4058ntf    fn421988   7.085   1.490   3.427 -0.9127 -0.1844  0.2868
 4058ntf    fn421989   7.101   1.649   3.563 -0.3624  0.1408  0.2677
 4058ntf    fn421990   7.229   1.491   3.566  0.2011  0.0744 -0.1105
 4059ntf    cn121991   0.781   4.929   3.903  0.2337  0.0066  0.0702
 4059ntf    sn221992   0.832   4.846   3.750 -0.0654 -0.2468  0.1081
 4059ntf    nn321993   0.983   4.817   3.782 -0.0663 -0.7698 -0.3389
 4059ntf    sn221994   1.109   4.847   3.694 -0.0796  0.1521 -0.0540
 4059ntf    cn121995   1.121   5.024   3.733 -0.0424  0.0868  0.2358
 4059ntf    fn421996   0.843   4.862   3.999  0.4168  0.2503  0.1245
 4059ntf    fn421997   0.816   5.056   3.913 -0.1640  0.0911  0.4168
 4059ntf    fn421998   0.651   4.914   3.922  0.3016  0.3458  0.8578
 4059ntf    on521999   0.754   4.724   3.747  0.0539 -0.3169 -0.1892
 4059ntf    on522000   0.810   4.945   3.648  0.0874 -0.5531 -0.2246
 4059ntf    on522001   1.078   4.851   3.553  0.0135  0.0896 -0.0762
 4059ntf    on522002   1.225   4.776   3.742 -0.1730  0.2596  0.3321
 4059ntf    fn422003   1.228   5.089   3.692 -0.5026  0.2801 -0.6941
 4059ntf    fn422004   1.018   5.083   3.674 -0.1412 -0.2827  0.0337
 4059ntf    fn422005   1.114   5.048   3.863 -0.2202  0.3372  0.1803
 4060ntf    cn122006   5.227   1.104   6.488  0.3431 -0.0846 -0.0496
 4060ntf    sn222007   5.162   1.061   6.324  0.3476  0.0621 -0.0891
 4060ntf    nn322008   5.018   1.007   6.355  0.1814  0.2952 -0.4384
 4060ntf    sn222009   4.886   1.088   6.379  0.1317  0.0112  0.2766
 4060ntf    cn122010   4.769   0.949   6.383 -0.0009  0.1010 -0.3099
 4060ntf    fn422011   5.242   0.997   6.565  0.1862 -0.6800 -0.8341
 4060ntf    fn422012   5.341   1.171   6.488  0.4658 -0.2919  0.2065
 4060ntf    fn422013   5.148   1.186   6.554  0.5056  0.0198  0.0167
 4060ntf    on522014   5.167   1.188   6.254 -0.3302  0.4208  0.5027
 4060ntf    on522015   5.249   0.954   6.283 -0.2159 -0.5751  0.3504
 4060ntf    on522016   4.850   1.175   6.269  0.2270  0.3663  0.5257
 4060ntf    on522017   4.875   1.147   6.510 -0.4856  0.2273  0.1335
 4060ntf    fn422018   4.762   0.888   6.501 -0.4858 -0.0613 -0.4197
 4060ntf    fn422019   4.644   0.986   6.359 -0.2267 -0.7535 -0.4949
 4060ntf    fn422020   4.797   0.859   6.290 -0.1736 -0.2055 -0.0676
 4061ntf    cn122021   0.519   7.198   5.358  0.2171  0.3583  0.2465
 4061ntf    sn222022   0.397   7.223   5.490 -0.0568  0.2171  0.0177
 4061ntf    nn322023   0.317   7.088   5.481 -0.2464  0.2971  0.4603
 4061ntf    sn222024   0.318   6.965   5.579 -0.2454 -0.2335 -0.1963
 4061ntf    cn122025   0.147   6.906   5.562 -0.4845  0.4421 -0.1854
 4061ntf    fn422026   0.458   7.193   5.241 -0.0516  0.3062  0.3899
 4061ntf    fn422027   0.616   7.289   5.354  0.3908  0.1647  0.0057
 4061ntf    fn422028   0.577   7.079   5.363 -0.0360  0.2050 -0.3763
 4061ntf    on522029   0.477   7.244   5.608  0.2457  0.5170 -0.2402
 4061ntf    on522030   0.314   7.331   5.442 -0.2272  0.0112 -0.1550
 4061ntf    on522031   0.324   7.001   5.718  0.6781  0.9638 -0.5336
 4061ntf    on522032   0.395   6.851   5.536  0.4741  0.5353 -0.9819
 4061ntf    fn422033   0.105   6.812   5.645  0.1823  0.5624  0.2903
 4061ntf    fn422034   0.060   7.004   5.580 -0.4345  0.4736 -0.1169
 4061ntf    fn422035   0.132   6.856   5.440  0.3812 -0.9637  0.2522
 4062ntf    cn122036   7.021   6.583   7.199 -0.3551 -0.3100  0.0292
 4062ntf    sn222037   7.095   6.423   7.243  0.2240  0.0469  0.3657
 4062ntf    nn322038   7.058   6.400   7.394 -0.6205  0.2324  0.1930
 4062ntf    sn222039   6.933   6.334   7.461 -0.2844 -0.1723  0.4249
 4062ntf    cn122040   6.910   6.446   7.603  0.0832  0.2437  0.1585
 4062ntf    fn422041   7.056   6.614   7.075 -0.1259 -0.1194  0.1426
 4062ntf    fn422042   6.889   6.591   7.210 -0.3585 -0.5198  0.1460
 4062ntf    fn422043   7.059   6.686   7.271  0.1260 -0.4801  0.0217
 4062ntf    on522044   7.036   6.331   7.148  0.2751  0.0977  0.2842
 4062ntf    on522045   7.238   6.439   7.244  0.2916 -0.4138 -0.5131
 4062ntf    on522046   6.958   6.204   7.518 -0.1930 -0.4808 -0.3179
 4062ntf    on522047   6.811   6.344   7.385 -0.3703  0.3507  0.6284
 4062ntf    fn422048   6.836   6.400   7.703 -0.2661  0.1634 -0.1326
 4062ntf    fn422049   7.023   6.479   7.663  0.2617  0.0681 -0.0774
 4062ntf    fn422050   6.860   6.563   7.569  0.2957  0.3722  0.2874
 4063ntf    cn122051   1.253   1.396   2.986  0.1715  0.1438 -0.3036
 4063ntf    sn222052   1.419   1.367   2.919  0.2939  0.1852 -0.0220
 4063ntf    nn322053   1.473   1.278   3.036 -0.1651 -0.1723 -0.0749
 4063ntf    sn222054   1.540   1.327   3.170  0.3450 -0.2303 -0.3076
 4063ntf    cn122055   1.581   1.167   3.247  0.0344 -0.3339 -0.3572
 4063ntf    fn422056   1.252   1.462   3.101  0.0391 -0.1072 -0.1604
 4063ntf    fn422057   1.175   1.461   2.900  0.1106  0.0149 -0.3455
 4063ntf    fn422058   1.185   1.285   3.009  0.2120  0.1593 -0.1098
 4063ntf    on522059   1.397   1.301   2.792 -0.1426 -0.4313  0.3665
 4063ntf    on522060   1.478   1.498   2.915  0.1826  0.2319 -0.1318
 4063ntf    on522061   1.456   1.391   3.267  0.1419  0.1843 -0.7534
 4063ntf    on522062   1.673   1.382   3.165  0.1022  0.3526 -0.3401
 4063ntf    fn422063   1.645   1.170   3.363 -0.3693  0.8053 -0.1470
 4063ntf    fn422064   1.470   1.097   3.264 -0.0633 -0.1417 -0.1864
 4063ntf    fn422065   1.653   1.093   3.165  0.9108 -0.2247  0.2994
 4064ntf    cn122066   3.648   1.176   2.880 -0.1984 -0.0105  0.1753
 4064ntf    sn222067   3.679   1.297   3.012  0.1264 -0.2911  0.3587
 4064ntf    nn322068   3.821   1.248   3.057  0.3200  0.2678  0.3742
 4064ntf    sn222069   3.866   1.132   3.153 -0.0427 -0.2516 -0.0759
 4064ntf    cn122070   3.848   1.197   3.322  0.1491  0.1225 -0.1987
 4064ntf    fn422071   3.750   1.168   2.795 -0.4964 -0.1187 -0.1750
 4064ntf    fn422072   3.626   1.056   2.931  0.5466 -0.0723  0.3620
 4064ntf    fn422073   3.537   1.210   2.816  0.0420  0.8766  0.2198
 4064ntf    on522074   3.681   1.429   2.954  0.0075 -0.5415 -0.2237
 4064ntf    on522075   3.572   1.275   3.106  0.4006  0.1448  0.7773
 4064ntf    on522076   4.008   1.115   3.141 -0.0318 -0.5093  0.4013
 4064ntf    on522077   3.784   1.013   3.144 -0.2823 -0.0794 -0.1813
 4064ntf    fn422078   3.735   1.262   3.344  0.3768  0.3891  0.2001
 4064ntf    fn422079   3.844   1.097   3.408 -0.3049  0.3115  0.0063
 4064ntf    fn422080   3.953   1.267   3.360  0.2478 -0.5154  0.7351
 4065ntf    cn122081   5.683   0.556   3.037  0.2526  0.6263 -0.3140
 4065ntf    sn222082   5.664   0.655   3.188 -0.2112 -0.3518  0.2788
 4065ntf    nn322083   5.643   0.538   3.291 -0.1663 -0.6315 -0.0264
 4065ntf    sn222084   5.752   0.452   3.364  0.2807 -0.1785 -0.1548
 4065ntf    cn122085   5.750   0.510   3.536 -0.0493  0.5116 -0.3870
 4065ntf    fn422086   5.572   0.488   3.012 -0.2664  1.4778 -0.3749
 4065ntf    fn422087   5.709   0.627   2.928  0.3935  0.6792 -0.2456
 4065ntf    fn422088   5.769   0.456   3.048  0.1529  0.5886  0.1246
 4065ntf    on522089   5.784   0.734   3.197 -0.0763 -0.5584  0.2985
 4065ntf    on522090   5.546   0.733   3.162 -0.1435 -0.4589 -0.3754
 4065ntf    on522091   5.887   0.478   3.319  0.1683 -0.4990 -0.6944
 4065ntf    on522092   5.715   0.313   3.376 -0.3133 -0.0194 -0.1224
 4065ntf    fn422093   5.856   0.480   3.610 -0.3638  0.5251  0.0686
 4065ntf    fn422094   5.735   0.642   3.533 -0.5006  0.4719  0.0597
 4065ntf    fn422095   5.644   0.464   3.599 -0.0478  0.4786 -0.4092
 4066ntf    cn122096   2.105   6.987   6.436 -0.2018 -0.1516  0.1256
 4066ntf    sn222097   2.076   6.908   6.597  0.0643  0.0161  0.2547
 4066ntf    nn322098   2.082   7.026   6.701 -0.1893  0.2865 -0.0376
 4066ntf    sn222099   2.068   7.017   6.857 -0.0106 -0.2434 -0.0492
 4066ntf    cn122100   1.950   7.153   6.881  0.5546  0.1736  0.3906
 4066ntf    fn422101   2.003   7.061   6.396  0.0092  0.1892  0.2218
 4066ntf    fn422102   2.203   7.075   6.435  0.1530 -0.5425 -0.1099
 4066ntf    fn422103   2.134   6.904   6.337 -0.2408 -0.1928  0.1483
 4066ntf    on522104   1.942   6.861   6.574  0.4871 -1.0148 -0.1476
 4066ntf    on522105   2.177   6.806   6.613  0.4139  0.1501 -0.9772
 4066ntf    on522106   2.185   7.045   6.937  0.0083  0.2684 -0.2503
 4066ntf    on522107   1.997   6.899   6.900  0.0191 -0.1217  0.3386
 4066ntf    fn422108   1.899   7.169   7.003 -0.1714  0.7206  0.0295
 4066ntf    fn422109   1.996   7.272   6.846 -0.1969  0.4167  0.2092
 4066ntf    fn422110   1.850   7.133   6.797  0.3129 -0.0771  0.7329
 4067ntf    cn122111   3.645   4.407   3.308  0.0667 -0.2225 -0.1769
 4067ntf    sn222112   3.701   4.282   3.428  0.3376 -0.0788 -0.1521
 4067ntf    nn322113   3.842   4.340   3.466  0.3803 -0.2658 -0.0242
 4067ntf    sn222114   3.881   4.421   3.594 -0.0146 -0.0283 -0.0523
 4067ntf    cn122115   3.942   4.574   3.516  0.3242 -0.4149 -0.5497
 4067ntf    fn422116   3.523   4.387   3.263  0.0437 -0.4729 -0.0038
 4067ntf    fn422117   3.643   4.531   3.355 -0.1837 -0.3782  0.2272
 4067ntf    fn422118   3.728   4.417   3.206  0.0329 -0.4088 -0.2216
 4067ntf    on522119   3.599   4.273   3.529  0.5789 -0.1181  0.0879
 4067ntf    on522120   3.716   4.164   3.347 -0.3989 -0.2994  0.0290
 4067ntf    on522121   3.994   4.365   3.664  0.0795  0.4089  0.1535
 4067ntf    on522122   3.772   4.472   3.673  0.3353  0.4499  0.1310
 4067ntf    fn422123   3.970   4.673   3.599  0.4330 -0.4756 -0.5137
 4067ntf    fn422124   4.062   4.558   3.463  0.8069 -0.0255  0.4061
 4067ntf    fn422125   3.866   4.620   3.418 -0.1946  0.5630  0.2983
 4068ntf    cn122126   3.977   0.117   5.550  0.0905  0.4479 -0.2643
 4068ntf    sn222127   3.919   0.030   5.401 -0.1755 -0.0066  0.1018
 4068ntf    nn322128   3.915  -0.114   5.463  0.2959 -0.0463  0.0458
 4068ntf    sn222129   3.916  -0.248   5.381 -0.1760 -0.0020 -0.0357
 4068ntf    cn122130   4.095  -0.277   5.366 -0.1234  0.1044  0.3701
 4068ntf    fn422131   4.012   0.242   5.525 -0.2197  0.6348  0.2217
 4068ntf    fn422132   3.879   0.125   5.639  0.0196 -0.2302 -0.2779
 4068ntf    fn422133   4.076   0.050   5.606 -0.3364 -0.0677 -0.1142
 4068ntf    on522134   3.787   0.083   5.383 -0.0299  0.3134 -0.0355
 4068ntf    on522135   4.015   0.049   5.294 -0.3146  0.7645  0.1107
 4068ntf    on522136   3.866  -0.245   5.246 -0.3496  0.5155  0.0382
 4068ntf    on522137   3.872  -0.356   5.466 -0.2161 -0.1354 -0.2241
 4068ntf    fn422138   4.144  -0.226   5.253 -0.5320 -0.0606  0.1167
 4068ntf    fn422139   4.173  -0.229   5.462  0.2798  0.0212  0.0893
 4068ntf    fn422140   4.130  -0.405   5.362  0.0437  0.1317  0.9358
 4069ntf    cn122141   4.069   2.076   4.553 -0.1566 -0.0150 -0.0923
 4069ntf    sn222142   3.915   2.112   4.463  0.0397 -0.0102 -0.4270
 4069ntf    nn322143   3.828   2.172   4.579  0.2481  0.3469 -0.4547
 4069ntf    sn222144   3.765   2.310   4.618  0.3385  0.3311 -0.2522
 4069ntf    cn122145   3.625   2.240   4.710  0.1495  0.2029 -0.6354
 4069ntf    fn422146   4.136   2.188   4.580 -0.5458  0.2409 -0.1803
 4069ntf    fn422147   4.053   2.015   4.669  0.2366 -0.3583 -0.2178
 4069ntf    fn422148   4.158   2.002   4.490 -0.2559 -0.1436 -0.0802
 4069ntf    on522149   3.958   2.196   4.354 -0.2514 -0.2258 -0.7085
 4069ntf    on522150   3.869   1.979   4.432 -0.4308  0.0686 -0.0694
 4069ntf    on522151   3.715   2.392   4.510 -0.8657 -0.4921 -0.3299
 4069ntf    on522152   3.839   2.377   4.723 -0.2137  0.7365 -0.1174
 4069ntf    fn422153   3.557   2.334   4.773  0.6216  0.0547  0.1125
 4069ntf    fn422154   3.539   2.171   4.637 -0.2851  0.5227 -0.4292
 4069ntf    fn422155   3.664   2.160   4.808 -0.1558  0.4910 -0.2785
 4070ntf    cn122156   2.213   4.384   6.603  0.3060  0.2063  0.4395
 4070ntf    sn222157   2.070   4.351   6.711  0.1172  0.1104  0.1626
 4070ntf    nn322158   1.964   4.429   6.626  0.1564 -0.3799 -0.3469
 4070ntf    sn222159   1.910   4.576   6.640  0.2041 -0.4212  0.3045
 4070ntf    cn122160   1.787   4.556   6.772  0.0683 -0.0160  0.2407
 4070ntf    fn422161   2.195   4.357   6.475  0.0170 -0.0760  0.5395
 4070ntf    fn422162   2.221   4.516   6.605 -0.2462  0.2425  0.4205
 4070ntf    fn422163   2.330   4.343   6.649  0.4604  0.3442  0.1743
 4070ntf    on522164   2.043   4.210   6.693  0.9210 -0.1020  0.5487
 4070ntf    on522165   2.109   4.396   6.842  0.3790 -0.2132  0.1986
 4070ntf    on522166   1.832   4.626   6.529  0.2006 -0.1347  0.4369
 4070ntf    on522167   1.994   4.680   6.692 -0.3521  0.2389 -0.0998
 4070ntf    fn422168   1.674   4.496   6.735  0.0496  0.2299 -0.0995
 4070ntf    fn422169   1.833   4.474   6.866  0.0470 -0.0808  0.1945
 4070ntf    fn422170   1.755   4.671   6.829 -0.3615 -0.0960  0.1710
 4071ntf    cn122171   0.163   3.838   4.471 -0.2358  0.2345 -0.2023
 4071ntf    sn222172   0.235   3.676   4.431 -0.2761  0.0504  0.4439
 4071ntf    nn322173   0.381   3.729   4.406 -0.5855  0.7215  0.0441
 4071ntf    sn222174   0.465   3.742   4.274 -0.1518  0.1616  0.2651
 4071ntf    cn122175   0.522   3.569   4.270  0.0314  0.2253  0.1055
 4071ntf    fn422176   0.167   3.924   4.371 -0.1980 -0.0141 -0.4174
 4071ntf    fn422177   0.032   3.840   4.493 -0.1471  0.5474  0.3191
 4071ntf    fn422178   0.223   3.911   4.564 -0.3823  0.3013 -0.1604
 4071ntf    on522179   0.222   3.589   4.545 -0.4323 -0.2808  0.1781
 4071ntf    on522180   0.161   3.644   4.311  0.0626 -0.4502  0.3620
 4071ntf    on522181   0.583   3.824   4.284 -0.0113 -0.0304  0.2006
 4071ntf    on522182   0.376   3.770   4.165  0.1665 -0.0836 -0.0634
 4071ntf    fn422183   0.593   3.547   4.380 -0.0996  0.7846  0.3033
 4071ntf    fn422184   0.419   3.486   4.274  0.3527 -0.2235 -0.6976
 4071ntf    fn422185   0.597   3.548   4.163  0.0338 -0.0736  0.1653
 4072ntf    cn122186   2.586   1.972   5.808 -0.1069  0.1424 -0.2333
 4072ntf    sn222187   2.641   2.115   5.709 -0.1972  0.2074 -0.1883
 4072ntf    nn322188   2.516   2.210   5.719 -0.1547  0.2532 -0.0904
 4072ntf    sn222189   2.488   2.353   5.661  0.1410  0.4819  0.3216
 4072ntf    cn122190   2.538   2.457   5.802  0.2127  0.5062  0.2784
 4072ntf    fn422191   2.599   2.006   5.935  0.0653 -0.8567  0.0299
 4072ntf    fn422192   2.458   1.942   5.793 -0.0959 -0.0025 -0.0363
 4072ntf    fn422193   2.667   1.869   5.788 -0.0325  0.1986 -0.2247
 4072ntf    on522194   2.754   2.164   5.784 -0.3593  0.2566  0.0235
 4072ntf    on522195   2.665   2.065   5.576  0.3823 -0.2340  0.0797
 4072ntf    on522196   2.346   2.377   5.651  0.0821  0.0548  0.0732
 4072ntf    on522197   2.569   2.399   5.551  0.2774 -0.3517  0.0645
 4072ntf    fn422198   2.462   2.429   5.907 -0.1632  0.0797 -0.0991
 4072ntf    fn422199   2.660   2.441   5.849  0.0802 -0.6308  0.2822
 4072ntf    fn422200   2.520   2.584   5.772  0.2779  0.4228 -0.1290
 4073ntf    cn122201   1.102   1.396   6.101 -0.5141  0.0633  0.1882
 4073ntf    sn222202   1.116   1.228   6.034  0.3968  0.0902  0.3043
 4073ntf    nn322203   0.982   1.210   5.954  0.6668 -0.8572  0.0441
 4073ntf    sn222204   0.954   1.126   5.824  0.1821  0.0264 -0.4343
 4073ntf    cn122205   0.774   1.142   5.802  0.1115 -0.3150 -0.1218
 4073ntf    fn422206   1.140   1.407   6.227  0.4063 -0.0777 -0.0689
 4073ntf    fn422207   1.175   1.483   6.034 -0.7302  0.1817  0.1028
 4073ntf    fn422208   0.978   1.443   6.092 -0.3606  0.4906  0.2937
 4073ntf    on522209   1.236   1.237   5.954  0.5038 -0.5940  0.3792
 4073ntf    on522210   1.120   1.140   6.149  0.3522 -0.1979  0.0878
 4073ntf    on522211   0.976   0.986   5.847  0.8611  0.2257  0.1471
 4073ntf    on522212   1.006   1.179   5.701  0.5255 -0.3682 -0.4574
 4073ntf    fn422213   0.731   1.074   5.697  0.0029 -0.4454  0.0057
 4073ntf    fn422214   0.702   1.110   5.909  0.1308  0.3121  0.0849
 4073ntf    fn422215   0.737   1.268   5.782 -0.0207 -0.1805  0.8998
 4074ntf    cn122216   6.865   3.469   1.765  0.4643  0.4366  0.1011
 4074ntf    sn222217   6.796   3.301   1.749 -0.0246  0.6535 -0.1049
 4074ntf    nn322218   6.838   3.270   1.601  0.1671 -0.1553  0.1142
 4074ntf    sn222219   6.978   3.223   1.550  0.0575 -0.1604 -0.1840
 4074ntf    cn122220   6.977   3.297   1.384 -0.2461 -0.1248 -0.1667
 4074ntf    fn422221   6.848   3.526   1.646  0.7896 -0.3535 -0.3324
 4074ntf    fn422222   6.799   3.540   1.854  0.2939 -0.1329  0.4328
 4074ntf    fn422223   6.995   3.460   1.787  0.4056 -0.6693  0.0516
 4074ntf    on522224   6.870   3.227   1.849  0.0194  0.4023 -0.3256
 4074ntf    on522225   6.655   3.316   1.776 -0.1089  0.2112 -0.2945
 4074ntf    on522226   6.998   3.082   1.528 -0.7521 -0.2495 -0.3577
 4074ntf    on522227   7.085   3.287   1.622 -0.3013  0.5005 -0.2327
 4074ntf    fn422228   6.868   3.264   1.317 -0.3765  0.0530 -0.0445
 4074ntf    fn422229   6.990   3.429   1.388 -0.6626 -0.0856 -0.0545
 4074ntf    fn422230   7.079   3.251   1.314 -0.0102  0.6683 -0.3553
 4075ntf    cn122231   5.859   0.100   4.349 -0.1980 -0.1375  0.2749
 4075ntf    sn222232   5.941   0.042   4.197 -0.0596  0.2138  0.2153
 4075ntf    nn322233   5.935   0.169   4.105 -0.3453 -0.0368 -0.1150
 4075ntf    sn222234   5.910   0.190   3.951 -0.1096 -0.1073 -0.1632
 4075ntf    cn122235   6.021   0.331   3.923  0.0292 -0.1157  0.3316
 4075ntf    fn422236   5.920   0.201   4.409  0.0442 -0.5131  0.6674
 4075ntf    fn422237   5.736   0.145   4.337 -0.0475  0.2664  0.2331
 4075ntf    fn422238   5.865   0.004   4.440  0.3220 -0.3279  0.0483
 4075ntf    on522239   6.073   0.010   4.244 -0.1020 -0.2261  0.0371
 4075ntf    on522240   5.863  -0.071   4.152 -0.0441  0.2602  0.0691
 4075ntf    on522241   5.777   0.236   3.923  0.0023  0.4186  0.1577
 4075ntf    on522242   5.957   0.085   3.864  0.5198  0.1428 -0.1320
 4075ntf    fn422243   6.143   0.281   3.926  0.0584 -0.1005 -0.3607
 4075ntf    fn422244   6.001   0.389   3.805 -0.1608 -0.2974  0.2741
 4075ntf    fn422245   6.013   0.426   4.014  0.1840 -0.1735  0.4063
 4076ntf    cn122246   1.399   5.441   2.727 -0.1930  0.1246  0.0472
 4076ntf    sn222247   1.387   5.512   2.894  0.2882  0.1383  0.0787
 4076ntf    nn322248   1.539   5.527   2.931  0.2030  0.1320  0.4419
 4076ntf    sn222249   1.629   5.446   3.031  0.4348  0.1870  0.2789
 4076ntf    cn122250   1.722   5.365   2.898 -0.2733  0.0425 -0.1351
 4076ntf    fn422251   1.452   5.320   2.727  0.1217  0.2603  0.0473
 4076ntf    fn422252   1.279   5.439   2.672  0.0193 -0.0912 -0.4115
 4076ntf    fn422253   1.478   5.516   2.652  0.1454  0.2554  0.5317
 4076ntf    on522254   1.337   5.644   2.864  0.9590  0.2828 -0.4229
 4076ntf    on522255   1.300   5.420   2.965 -0.2518  0.6604  0.1013
 4076ntf    on522256   1.571   5.335   3.103  0.2889  0.1835  0.1565
 4076ntf    on522257   1.729   5.521   3.102  0.7046  0.3878 -0.3054
 4076ntf    fn422258   1.656   5.302   2.802 -0.2862 -0.4253  0.1756
 4076ntf    fn422259   1.799   5.452   2.834  0.0045 -0.1133 -0.0154
 4076ntf    fn422260   1.806   5.276   2.948  0.0204  0.1878 -0.3612
 4077ntf    cn122261   5.084   5.303   5.380  0.1760 -0.3700  0.1071
 4077ntf    sn222262   4.926   5.215   5.359 -0.0363  0.0029  0.1367
 4077ntf    nn322263   4.911   5.141   5.497 -0.2700 -0.1497  0.0291
 4077ntf    sn222264   4.928   4.988   5.528 -0.0607 -0.0842  0.2346
 4077ntf    cn122265   5.107   4.972   5.501 -0.1215 -0.6428  0.1481
 4077ntf    fn422266   5.137   5.362   5.275 -0.0563 -0.0629  0.1601
 4077ntf    fn422267   5.057   5.401   5.465  0.1402 -0.2174 -0.0786
 4077ntf    fn422268   5.171   5.224   5.439  0.0542 -0.3452  0.3210
 4077ntf    on522269   4.831   5.322   5.339  0.1877  0.1746 -0.0115
 4077ntf    on522270   4.949   5.130   5.246 -0.0787 -0.2483  0.3168
 4077ntf    on522271   4.854   4.903   5.439  0.6075 -0.7338  0.2890
 4077ntf    on522272   4.925   4.965   5.671  0.6693  0.3727  0.3275
 4077ntf    fn422273   5.161   4.851   5.506  0.3863 -0.4502 -0.4917
 4077ntf    fn422274   5.141   5.015   5.380 -0.3558  0.0425  0.3188
 4077ntf    fn422275   5.176   5.048   5.585  0.0732  0.0343 -0.6070
 4078ntf    cn122276   1.480   0.358   4.481 -0.6099 -0.2181 -0.0070
 4078ntf    sn222277   1.546   0.259   4.344 -0.0018  0.2131 -0.0296
 4078ntf    nn322278   1.505   0.114   4.390 -0.2666  0.1610 -0.4239
 4078ntf    sn222279   1.592  -0.011   4.426  0.0330  0.3383 -0.5328
 4078ntf    cn122280   1.496  -0.085   4.561  0.1772  0.6036 -0.2814
 4078ntf    fn422281   1.543   0.340   4.596  0.1302  0.4098 -0.3059
 4078ntf    fn422282   1.470   0.487   4.452  0.2087 -0.3516 -0.9148
 4078ntf    fn422283   1.356   0.312   4.493 -0.8691  0.4108 -0.1959
 4078ntf    on522284   1.484   0.301   4.221  0.0811  0.5076  0.0283
 4078ntf    on522285   1.686   0.294   4.345  0.1952 -0.5395 -0.0814
 4078ntf    on522286   1.721   0.017   4.484  0.1156  0.1409 -0.6217
 4078ntf    on522287   1.585  -0.121   4.334 -0.0982 -0.1606  0.0638
 4078ntf    fn422288   1.466   0.003   4.655 -0.3055  0.3656 -0.2052
 4078ntf    fn422289   1.377  -0.132   4.526 -0.1565  0.8868  0.4411
 4078ntf    fn422290   1.563  -0.186   4.614 -0.1589  0.5731  0.0894
 4079ntf    cn122291   2.533   5.121   1.751 -0.0773  0.1171  0.2632
 4079ntf    sn222292   2.578   5.285   1.687  0.1548  0.0728  0.3103
 4079ntf    nn322293   2.646   5.247   1.551  0.0245  0.0774  0.2443
 4079ntf    sn222294   2.791   5.200   1.517 -0.2050 -0.2947 -0.2394
 4079ntf    cn122295   2.874   5.362   1.517 -0.0653 -0.3648 -0.0673
 4079ntf    fn422296   2.635   5.040   1.777 -0.0298  0.0649 -0.0892
 4079ntf    fn422297   2.458   5.119   1.860 -0.6533 -0.0702 -0.1315
 4079ntf    fn422298   2.469   5.064   1.650  0.3142  0.0370  0.0596
 4079ntf    on522299   2.451   5.349   1.660  0.3299  0.2429 -0.1101
 4079ntf    on522300   2.671   5.347   1.778  0.0177  0.4770  0.1768
 4079ntf    on522301   2.794   5.155   1.380  0.1746  0.4162 -0.4707
 4079ntf    on522302   2.861   5.109   1.605 -0.2363 -0.0709  0.0178
 4079ntf    fn422303   3.000   5.360   1.477 -0.0942 -0.0029 -0.1749
 4079ntf    fn422304   2.802   5.445   1.443 -0.1532 -0.7025 -0.3693
 4079ntf    fn422305   2.877   5.422   1.634 -0.4392  0.1961 -0.3405
 4080ntf    cn122306   3.476   5.258   6.313  0.2647 -0.2908 -0.0995
 4080ntf    sn222307   3.345   5.145   6.256 -0.1365 -0.1094  0.4588
 4080ntf    nn322308   3.326   5.061   6.387 -0.3938 -0.7506  0.0139
 4080ntf    sn222309   3.240   5.110   6.509  0.0178  0.0221 -0.0014
 4080ntf    cn122310   3.092   5.015   6.464 -0.1805  0.3428 -0.0281
 4080ntf    fn422311   3.587   5.192   6.343  0.4020 -0.1721 -0.3365
 4080ntf    fn422312   3.510   5.342   6.216 -0.1952 -0.1313 -0.1243
 4080ntf    fn422313   3.442   5.339   6.412 -0.1738 -0.6608  0.0545
 4080ntf    on522314   3.233   5.226   6.215  0.3665  0.2420 -0.2556
 4080ntf    on522315   3.408   5.067   6.153 -0.3063  0.1162  0.1837
 4080ntf    on522316   3.182   5.242   6.509  0.1837  0.0962  0.1747
 4080ntf    on522317   3.273   5.056   6.639 -0.0954 -0.1720 -0.0540
 4080ntf    fn422318   3.081   4.894   6.517  0.1033 -0.0075 -0.7525
 4080ntf    fn422319   2.983   5.073   6.512 -0.3768  0.0575 -0.1224
 4080ntf    fn422320   3.072   5.005   6.334 -0.1755 -0.7488  0.0440
 4081ntf    cn122321   6.309   2.953   2.994 -0.1434  0.1694 -0.1242
 4081ntf    sn222322   6.129   2.960   3.021 -0.0704  0.0136  0.4423
 4081ntf    nn322323   6.108   2.841   3.120 -0.2119 -0.4112 -0.0941
 4081ntf    sn222324   6.057   2.701   3.069 -0.1342 -0.3061 -0.4585
 4081ntf    cn122325   6.165   2.613   3.186 -0.4117 -0.3532 -0.2376
 4081ntf    fn422326   6.340   3.024   2.888  0.0761 -0.1860 -0.3016
 4081ntf    fn422327   6.387   2.988   3.095  0.1609  0.2370 -0.3810
 4081ntf    fn422328   6.348   2.829   2.967 -0.2238  0.1345 -0.0817
 4081ntf    on522329   6.109   3.084   3.091 -0.6302  0.0658  0.1974
 4081ntf    on522330   6.074   2.953   2.887  0.5391  0.3516  0.1699
 4081ntf    on522331   6.100   2.658   2.938 -0.0592 -0.9723 -0.2195
 4081ntf    on522332   5.924   2.667   3.111 -0.1801  0.5377  0.1113
 4081ntf    fn422333   6.155   2.481   3.179 -0.0523 -0.3953  0.0656
 4081ntf    fn422334   6.292   2.647   3.171 -0.4305 -0.0773  0.2365
 4081ntf    fn422335   6.145   2.646   3.312  0.2161  0.4618 -0.3369
 4082ntf    cn122336   6.822   2.432   6.708 -0.0353  0.2382 -0.1307
 4082ntf    sn222337   6.753   2.272   6.656  0.1941  0.1988 -0.3143
 4082ntf    nn322338   6.880   2.199   6.599 -0.1335 -0.6888  0.0775
 4082ntf    sn222339   6.918   2.172   6.449  0.0525 -0.2743  0.0483
 4082ntf    cn122340   6.957   1.995   6.462  0.2151 -0.2152  0.3735
 4082ntf    fn422341   6.897   2.487   6.615  0.1610  0.4046  0.1233
 4082ntf    fn422342   6.719   2.513   6.727 -0.5036 -0.4816  0.4731
 4082ntf    fn422343   6.892   2.429   6.821  0.0961  0.1598 -0.2143
 4082ntf    on522344   6.710   2.217   6.782  0.1230  0.4764 -0.2155
 4082ntf    on522345   6.655   2.319   6.562  0.2545  0.2449 -0.3545
 4082ntf    on522346   7.047   2.223   6.410 -0.2822  0.1328 -0.5466
 4082ntf    on522347   6.812   2.179   6.352  0.3612  0.0256 -0.2693
 4082ntf    fn422348   6.985   1.937   6.346  0.4739  0.1114  0.2722
 4082ntf    fn422349   7.059   1.976   6.545  0.2723  0.9086  0.5791
 4082ntf    fn422350   6.849   1.933   6.507  0.3393 -0.6264  0.1167
 4083ntf    cn122351   5.603   0.859   1.189 -0.3499 -0.1933 -0.0922
 4083ntf    sn222352   5.432   0.906   1.228 -0.2724 -0.2646  0.3348
 4083ntf    nn322353   5.421   1.053   1.177  0.0525 -0.2408  0.3328
 4083ntf    sn222354   5.405   1.188   1.256  0.0269 -0.0214 -0.0399
 4083ntf    cn122355   5.225   1.177   1.279 -0.0053  0.1463 -0.2072
 4083ntf    fn422356   5.620   0.861   1.058 -0.1010 -0.5940 -0.0687
 4083ntf    fn422357   5.689   0.933   1.257 -0.2646 -0.2866 -0.0979
 4083ntf    fn422358   5.627   0.738   1.236 -0.4064 -0.2030 -0.0890
 4083ntf    on522359   5.354   0.829   1.134 -0.4693  0.6354 -0.2503
 4083ntf    on522360   5.408   0.867   1.365 -0.1208  0.2533  0.5071
 4083ntf    on522361   5.430   1.311   1.185 -0.1109  0.5154  0.8166
 4083ntf    on522362   5.457   1.172   1.390 -0.9482 -0.1270  0.3349
 4083ntf    fn422363   5.178   1.172   1.155 -0.4736 -0.1978 -0.0185
 4083ntf    fn422364   5.194   1.065   1.342 -0.1422  0.0261 -0.4861
 4083ntf    fn422365   5.170   1.277   1.345  0.0962 -0.0613  0.1968
 4084ntf    cn122366   1.333   4.055   0.649  0.1500  0.1543  0.0860
 4084ntf    sn222367   1.474   3.963   0.579  0.0535  0.1381 -0.0888
 4084ntf    nn322368   1.434   3.824   0.639  0.6890 -0.1022 -0.2193
 4084ntf    sn222369   1.461   3.774   0.785 -0.1123 -0.0684 -0.0525
 4084ntf    cn122370   1.638   3.733   0.777 -0.1404 -0.2254  0.1201
 4084ntf    fn422371   1.216   3.995   0.639  0.4295 -0.3166 -0.4283
 4084ntf    fn422372   1.353   4.088   0.775 -0.4273  0.5468  0.0799
 4084ntf    fn422373   1.313   4.170   0.587 -0.5643 -0.1558 -0.2729
 4084ntf    on522374   1.453   3.966   0.437 -0.2951 -0.7011 -0.0612
 4084ntf    on522375   1.594   4.022   0.632  0.3201 -0.6732  0.2184
 4084ntf    on522376   1.407   3.643   0.813  0.0116 -0.1572 -0.2270
 4084ntf    on522377   1.467   3.870   0.892 -0.3095 -0.3599  0.2234
 4084ntf    fn422378   1.672   3.678   0.893  0.0692 -0.2702  0.0372
 4084ntf    fn422379   1.663   3.649   0.678 -0.5764  0.1485 -0.3137
 4084ntf    fn422380   1.713   3.840   0.754 -0.0701 -0.2074  0.4279
 4085ntf    cn122381   1.376   1.259   0.071 -0.1242  0.1903 -0.0670
 4085ntf    sn222382   1.503   1.151   0.143 -0.2683  0.1610  0.1452
 4085ntf    nn322383   1.445   1.010   0.105 -0.2650  0.2717 -0.2799
 4085ntf    sn222384   1.448   0.877   0.189  0.1154  0.4710  0.0234
 4085ntf    cn122385   1.309   0.909   0.302  0.5340  0.4548  0.5468
 4085ntf    fn422386   1.256   1.230   0.118 -0.1216  0.0852 -0.1255
 4085ntf    fn422387   1.388   1.389   0.093  0.1294  0.2260 -0.4111
 4085ntf    fn422388   1.375   1.244  -0.060  0.2459  0.1040 -0.0620
 4085ntf    on522389   1.617   1.184   0.062 -0.4204 -0.7947 -0.4869
 4085ntf    on522390   1.506   1.178   0.284 -0.2193  0.7173  0.0378
 4085ntf    on522391   1.569   0.867   0.266 -0.1179  0.5133  0.3996
 4085ntf    on522392   1.403   0.754   0.129 -0.7472  0.6841  0.2160
 4085ntf    fn422393   1.204   0.964   0.243  0.4612 -0.2536  0.0020
 4085ntf    fn422394   1.268   0.796   0.360 -0.0677  0.4594  0.1439
 4085ntf    fn422395   1.341   0.988   0.403  0.2454 -0.0206  1.0175
 4086ntf    cn122396   2.981   3.523   5.855 -0.6909  0.4570 -0.0921
 4086ntf    sn222397   2.818   3.592   5.814 -0.5306  0.6993 -0.3192
 4086ntf    nn322398   2.831   3.737   5.874  0.2751  0.3946  0.2588
 4086ntf    sn222399   2.825   3.880   5.809 -0.2068  0.2176 -0.0916
 4086ntf    cn122400   2.646   3.882   5.779 -0.2302  0.1299  0.0403
 4086ntf    fn422401   3.077   3.553   5.769 -0.1455 -0.0575  0.3293
 4086ntf    fn422402   3.021   3.558   5.977 -0.2496  0.0460 -0.1158
 4086ntf    fn422403   2.978   3.391   5.858 -0.3924  0.4416 -0.4161
 4086ntf    on522404   2.824   3.579   5.670 -0.0828 -0.1167 -0.2338
 4086ntf    on522405   2.734   3.502   5.887 -0.1842  0.3711 -0.3211
 4086ntf    on522406   2.878   3.892   5.675 -0.0747 -0.3408 -0.0932
 4086ntf    on522407   2.832   3.992   5.898  1.0986 -0.2106  0.3647
 4086ntf    fn422408   2.607   4.001   5.735  0.5034  0.4762  0.3113
 4086ntf    fn422409   2.600   3.799   5.687 -0.0069 -0.0047  0.0502
 4086ntf    fn422410   2.570   3.855   5.884 -0.0756  0.1038  0.1459
 4087ntf    cn122411   0.179   6.188   4.840  0.0976 -0.3194  0.3275
 4087ntf    sn222412   0.197   6.316   4.968  0.1410  0.0269 -0.0241
 4087ntf    nn322413   0.053   6.361   5.011  0.0196 -0.2440 -0.1503
 4087ntf    sn222414   0.016   6.432   5.146  0.4234 -0.4303  0.0587
 4087ntf    cn122415  -0.104   6.558   5.092  0.3560 -0.4372  0.1908
 4087ntf    fn422416   0.140   6.074   4.893  0.2082 -0.5790 -0.1463
 4087ntf    fn422417   0.092   6.224   4.747  0.2152 -0.3637  0.2001
 4087ntf    fn422418   0.296   6.171   4.779 -0.1847 -0.6572 -0.1228
 4087ntf    on522419   0.273   6.238   5.062 -0.0603 -0.2601 -0.1007
 4087ntf    on522420   0.262   6.422   4.894 -0.7042  0.2217 -0.5057
 4087ntf    on522421   0.119   6.514   5.204 -0.1088  0.1651  0.1673
 4087ntf    on522422  -0.065   6.350   5.232  0.3174 -0.1088  0.2675
 4087ntf    fn422423  -0.163   6.622   5.191 -0.3481  0.3536 -0.7171
 4087ntf    fn422424  -0.046   6.646   5.012 -0.2554 -0.1188  0.0922
 4087ntf    fn422425  -0.210   6.515   5.024  0.1772  0.4144 -0.0738
 4088ntf    cn122426   6.557   3.908   5.267  0.2645 -0.0969  0.2425
 4088ntf    sn222427   6.730   3.963   5.253  0.2517 -0.0778  0.1629
 4088ntf    nn322428   6.797   3.823   5.276  0.6369  0.0488 -0.1972
 4088ntf    sn222429   6.817   3.751   5.413  0.1653  0.0636 -0.1207
 4088ntf    cn122430   6.997   3.771   5.430  0.1344  0.1545  0.1141
 4088ntf    fn422431   6.544   3.777   5.274  0.3300 -0.1499 -0.6112
 4088ntf    fn422432   6.501   3.942   5.382  0.6133 -0.3211  0.4836
 4088ntf    fn422433   6.482   3.955   5.169  0.2878 -0.0919  0.2273
 4088ntf    on522434   6.750   4.016   5.120  0.0053 -0.2586  0.0535
 4088ntf    on522435   6.749   4.058   5.360  0.4644  0.2109 -0.1286
 4088ntf    on522436   6.798   3.609   5.391 -0.0126  0.0206  0.3000
 4088ntf    on522437   6.765   3.813   5.533 -0.0251 -0.4076  0.0436
 4088ntf    fn422438   7.057   3.765   5.313 -0.5682 -0.6066 -0.2181
 4088ntf    fn422439   7.028   3.888   5.483 -0.0390  0.1532  0.2213
 4088ntf    fn422440   7.046   3.674   5.506  0.0294 -0.4892 -0.6283
 4089ntf    cn122441   4.355   3.500   3.900  0.1532  0.1083  0.2253
 4089ntf    sn222442   4.391   3.354   4.002  0.4153  0.2427  0.3279
 4089ntf    nn322443   4.274   3.367   4.106 -0.0194  0.8831 -0.2400
 4089ntf    sn222444   4.297   3.426   4.249 -0.3583  0.0087  0.1820
 4089ntf    cn122445   4.155   3.355   4.338 -0.3796 -0.1271  0.0406
 4089ntf    fn422446   4.414   3.606   3.955 -0.4690  0.3426  0.4459
 4089ntf    fn422447   4.415   3.486   3.783 -0.5848  0.2074 -0.1682
 4089ntf    fn422448   4.228   3.525   3.875  0.2075  0.1985  0.0398
 4089ntf    on522449   4.369   3.236   3.921 -0.3376  0.1682  0.6276
 4089ntf    on522450   4.529   3.374   4.039  0.5562 -0.1747  0.0413
 4089ntf    on522451   4.272   3.567   4.261  0.2525  0.0953  0.4459
 4089ntf    on522452   4.414   3.379   4.319 -0.0345  0.1259 -0.2730
 4089ntf    fn422453   4.177   3.227   4.365 -0.4163 -0.0056  0.6646
 4089ntf    fn422454   4.116   3.411   4.451  0.0988 -0.2318  0.2602
 4089ntf    fn422455   4.052   3.364   4.257 -0.3536 -0.6445 -0.0565
 4090ntf    cn122456   5.814   6.341   1.107  0.2529  0.2454  0.1339
 4090ntf    sn222457   5.800   6.517   1.147 -0.3097  0.1543  0.3500
 4090ntf    nn322458   5.772   6.519   1.302 -0.2153 -0.2322  0.3711
 4090ntf    sn222459   5.886   6.516   1.410 -0.0876  0.4689  0.2615
 4090ntf    cn122460   5.930   6.691   1.427  0.5866  0.3169  0.1293
 4090ntf    fn422461   5.697   6.278   1.115  0.1204  0.4371 -0.2668
 4090ntf    fn422462   5.864   6.317   0.987 -0.4900 -0.7176 -0.0040
 4090ntf    fn422463   5.887   6.272   1.193  0.0907 -0.2176 -0.0952
 4090ntf    on522464   5.925   6.578   1.110 -0.3424  0.3361  0.5360
 4090ntf    on522465   5.689   6.565   1.067  0.0096  0.3582  0.0264
 4090ntf    on522466   6.013   6.457   1.375 -0.3477  0.0504  0.0135
 4090ntf    on522467   5.833   6.489   1.541 -0.3701 -0.3839 -0.0210
 4090ntf    fn422468   6.037   6.708   1.503  0.5984  0.1534  0.1481
 4090ntf    fn422469   5.961   6.748   1.312 -0.8016  0.0863 -0.3792
 4090ntf    fn422470   5.836   6.765   1.483  0.1526 -0.0112 -0.1604
 4091ntf    cn122471   3.282   4.239   1.769 -0.0128  0.2130 -0.5032
 4091ntf    sn222472   3.198   4.094   1.700 -0.2663  0.1290 -0.0168
 4091ntf    nn322473   3.295   3.984   1.757 -0.4694 -0.0398  0.0035
 4091ntf    sn222474   3.318   3.834   1.715  0.1432 -0.0081  0.2311
 4091ntf    cn122475   3.267   3.747   1.867 -0.0675  0.1730  0.2647
 4091ntf    fn422476   3.403   4.244   1.715  0.0898 -0.2190 -0.3184
 4091ntf    fn422477   3.216   4.350   1.739  0.5950  0.6970 -0.0863
 4091ntf    fn422478   3.303   4.237   1.900  0.0256  0.7838 -0.4981
 4091ntf    on522479   3.074   4.107   1.773 -0.0405  0.4799  0.3046
 4091ntf    on522480   3.200   4.123   1.559  0.2177 -0.3042 -0.1011
 4091ntf    on522481   3.458   3.802   1.700  0.2686  0.3782  0.5602
 4091ntf    on522482   3.241   3.789   1.602  0.1284  0.1850  0.1638
 4091ntf    fn422483   3.338   3.785   1.972 -0.1109 -0.0053  0.3567
 4091ntf    fn422484   3.144   3.765   1.910 -0.0769 -0.1556  0.3776
 4091ntf    fn422485   3.285   3.616   1.859 -0.0544  0.1594  0.5323
 4092ntf    cn122486   4.151   3.647   0.140 -0.0874  0.0378  0.1246
 4092ntf    sn222487   4.072   3.501   0.065 -0.1249  0.0221  0.1934
 4092ntf    nn322488   4.180   3.479  -0.047 -0.2993 -0.4112  0.1087
 4092ntf    sn222489   4.303   3.382  -0.061 -0.0982 -0.1315 -0.1062
 4092ntf    cn122490   4.281   3.324  -0.232 -0.2314 -0.1383 -0.0881
 4092ntf    fn422491   4.179   3.743   0.054 -0.5467  0.5152  0.5020
 4092ntf    fn422492   4.065   3.702   0.224  0.4067  0.0841  0.6128
 4092ntf    fn422493   4.260   3.618   0.210  0.1197  0.0774 -0.1823
 4092ntf    on522494   4.077   3.400   0.168 -0.1927 -0.0093  0.1654
 4092ntf    on522495   3.949   3.548   0.007  0.1160  0.1127 -0.2482
 4092ntf    on522496   4.304   3.259   0.015  0.6936  0.1354  0.3204
 4092ntf    on522497   4.428   3.452  -0.064  0.2456 -0.7247  0.1128
 4092ntf    fn422498   4.169   3.255  -0.244 -0.1480 -0.2564 -0.1944
 4092ntf    fn422499   4.275   3.422  -0.321  0.9508  0.0476  0.0196
 4092ntf    fn422500   4.371   3.241  -0.284 -0.0008 -0.0865  0.2231
 4093ntf    cn122501   7.009   1.268   0.589 -0.1825  0.1402 -0.1240
 4093ntf    sn222502   7.062   1.208   0.426 -0.3068  0.0282 -0.1231
 4093ntf    nn322503   6.971   1.080   0.421 -0.1357 -0.0814 -0.5030
 4093ntf    sn222504   7.002   0.937   0.478 -0.0871  0.1519  0.0689
 4093ntf    cn122505   7.019   0.864   0.312  0.3175 -0.1030  0.2213
 4093ntf    fn422506   6.893   1.332   0.587 -0.0986  0.2947 -0.1035
 4093ntf    fn422507   7.011   1.168   0.675  0.2948  0.2690  0.0164
 4093ntf    fn422508   7.101   1.348   0.640 -0.0917  0.1129 -0.2466
 4093ntf    on522509   7.016   1.316   0.343 -0.2060  0.0127 -0.1988
 4093ntf    on522510   7.205   1.189   0.431 -0.2909  0.1180 -0.2100
 4093ntf    on522511   6.884   0.877   0.535 -0.1139  0.2583  0.1255
 4093ntf    on522512   7.134   0.918   0.532 -0.0490  0.5567  0.1255
 4093ntf    fn422513   7.087   0.947   0.235 -0.3002  0.2579  0.0527
 4093ntf    fn422514   7.083   0.748   0.315  0.5287 -0.0021 -0.3005
 4093ntf    fn422515   6.906   0.840   0.247  0.3044  0.1340  0.1569
 4094ntf    cn122516   3.074   0.209   7.205 -0.1377  0.1276  0.3530
 4094ntf    sn222517   3.061   0.295   7.365  0.5260  0.5680  0.1741
 4094ntf    nn322518   2.910   0.266   7.392  0.5234  0.4766  0.0613
 4094ntf    sn222519   2.830   0.281   7.526 -0.1671  0.0720 -0.2934
 4094ntf    cn122520   2.904   0.167   7.647 -0.2384  0.3096 -0.0218
 4094ntf    fn422521   3.199   0.209   7.160 -0.1674 -1.3492  0.2288
 4094ntf    fn422522   3.039   0.082   7.198 -0.0029  0.1142 -0.1356
 4094ntf    fn422523   2.992   0.269   7.120  0.0106 -0.1931 -0.0161
 4094ntf    on522524   3.152   0.217   7.445  0.0693 -0.5310 -0.3637
 4094ntf    on522525   3.090   0.433   7.333  0.6677  0.4945 -0.0220
 4094ntf    on522526   2.699   0.222   7.513  0.0195 -0.4074 -0.0343
 4094ntf    on522527   2.835   0.413   7.586  0.9312  0.1657 -0.5729
 4094ntf    fn422528   2.891   0.044   7.598 -0.1232  0.2323  0.1407
 4094ntf    fn422529   3.035   0.180   7.666 -0.2034  0.2718 -0.2305
 4094ntf    fn422530   2.847   0.175   7.765  0.0541  0.4018  0.1143
 4095ntf    cn122531   6.966   7.039   2.703 -0.0543 -0.1300  0.2297
 4095ntf    sn222532   6.800   7.033   2.777 -0.0415  0.0619  0.2756
 4095ntf    nn322533   6.751   7.180   2.749 -0.1805 -0.0007  0.1946
 4095ntf    sn222534   6.631   7.225   2.658  0.1428  0.0921 -0.1864
 4095ntf    cn122535   6.713   7.262   2.500  0.3386  0.3639 -0.0212
 4095ntf    fn422536   6.955   7.058   2.573 -0.0565  0.4582  0.3111
 4095ntf    fn422537   7.047   7.131   2.754  0.1135 -0.0847 -0.1141
 4095ntf    fn422538   7.044   6.933   2.720 -0.1388 -0.2615 -0.1972
 4095ntf    on522539   6.726   6.924   2.719  0.3733  0.0252 -0.1906
 4095ntf    on522540   6.839   7.016   2.915  0.1518  0.1286  0.2299
 4095ntf    on522541   6.572   7.351   2.696 -0.4538 -0.2297 -0.0238
 4095ntf    on522542   6.541   7.116   2.629  0.2094 -0.1030  0.3333
 4095ntf    fn422543   6.628   7.299   2.406  0.8128  0.1759 -0.5330
 4095ntf    fn422544   6.797   7.363   2.517 -0.2231  0.8769 -0.2811
 4095ntf    fn422545   6.779   7.158   2.450  0.1177 -0.1462  0.7367
 4096ntf    cn122546   0.439   4.993   0.942 -0.1270  0.1632 -0.1532
 4096ntf    sn222547   0.362   4.931   1.095 -0.1928  0.0975 -0.2127
 4096ntf    nn322548   0.346   5.070   1.167 -0.0125 -0.0645  0.1468
 4096ntf    sn222549   0.237   5.181   1.145  0.0274 -0.0142  0.2052
 4096ntf    cn122550   0.338   5.332   1.130 -0.0068  0.0506  0.6120
 4096ntf    fn422551   0.371   5.086   0.879 -0.4647  0.1152  0.1365
 4096ntf    fn422552   0.558   5.048   0.956 -0.0995  0.1143 -0.1934
 4096ntf    fn422553   0.452   4.897   0.852  0.3018  0.1700 -0.0998
 4096ntf    on522554   0.238   4.876   1.048 -0.1768 -0.4254  0.3468
 4096ntf    on522555   0.460   4.840   1.151 -0.3508  0.3553  0.4910
 4096ntf    on522556   0.166   5.208   1.267  0.3679  0.3877  0.3190
 4096ntf    on522557   0.166   5.183   1.020 -0.1750 -0.4192  0.3135
 4096ntf    fn422558   0.271   5.445   1.147  0.4378  0.4330 -0.1143
 4096ntf    fn422559   0.442   5.333   1.211  0.3794 -0.1140  0.1185
 4096ntf    fn422560   0.387   5.337   1.007 -0.3934  0.0893  0.4562
 4097ntf    cn122561   5.824   5.599   1.267  0.5021 -0.4242  0.1592
 4097ntf    sn222562   5.738   5.487   1.382  0.1916 -0.2409  0.1047
 4097ntf    nn322563   5.655   5.594   1.463  0.1045 -0.3136  0.1116
 4097ntf    sn222564   5.693   5.672   1.593 -0.2486 -0.4728  0.3106
 4097ntf    cn122565   5.621   5.837   1.569  0.5787 -0.1401  0.0822
 4097ntf    fn422566   5.896   5.695   1.321 -0.9232  0.4764  0.4942
 4097ntf    fn422567   5.907   5.532   1.188 -0.1146 -0.9552 -0.0445
 4097ntf    fn422568   5.746   5.665   1.183  1.0180 -0.1088 -0.0770
 4097ntf    on522569   5.645   5.411   1.303  0.1855  0.4898 -0.6133
 4097ntf    on522570   5.840   5.409   1.447  0.6271  0.5092  0.3311
 4097ntf    on522571   5.834   5.702   1.603 -0.3632  0.2391 -0.2005
 4097ntf    on522572   5.631   5.612   1.709 -0.6187  0.3581  0.5453
 4097ntf    fn422573   5.489   5.831   1.570  0.5784 -0.1784 -0.1717
 4097ntf    fn422574   5.657   5.911   1.672 -0.5191  0.4435  0.0587
 4097ntf    fn422575   5.662   5.896   1.458 -0.2006 -0.0524 -0.1659
 4098ntf    cn122576   2.919   2.941   7.171  0.0980  0.0503  0.1892
 4098ntf    sn222577   2.985   2.985   7.007 -0.0089 -0.2788  0.0569
 4098ntf    nn322578   3.135   3.004   7.049 -0.0239  0.0451 -0.0371
 4098ntf    sn222579   3.235   3.125   7.061  0.1697 -0.1541  0.4173
 4098ntf    cn122580   3.396   3.048   7.026  0.2521  0.1766  0.0511
 4098ntf    fn422581   2.787   2.953   7.169  0.0697 -0.2784 -0.0288
 4098ntf    fn422582   2.947   2.813   7.190  0.6182  0.3553  1.5464
 4098ntf    fn422583   2.963   3.021   7.266  0.3079 -0.2993  0.3868
 4098ntf    on522584   2.973   2.863   6.931 -0.1041 -0.5437  0.4925
 4098ntf    on522585   2.920   3.105   6.960  0.0698 -0.1755  0.2121
 4098ntf    on522586   3.250   3.186   7.190 -0.6088  0.5325  0.1950
 4098ntf    on522587   3.223   3.222   6.954  0.3345 -0.3503  0.2205
 4098ntf    fn422588   3.480   3.139   6.980 -0.2578  0.4971 -0.2627
 4098ntf    fn422589   3.444   2.995   7.138  0.0624 -0.3324 -0.1051
 4098ntf    fn422590   3.392   2.949   6.939  0.4191  0.1041  0.1265
 4099ntf    cn122591   5.255   4.758   1.830 -0.0526 -0.2123 -0.1407
 4099ntf    sn222592   5.127   4.866   1.759 -0.0788 -0.1789 -0.0433
 4099ntf    nn322593   5.082   4.796   1.626 -0.1078 -0.2367 -0.0029
 4099ntf    sn222594   5.123   4.802   1.475 -0.2257 -0.0513 -0.0285
 4099ntf    cn122595   5.057   4.644   1.413 -0.5039  0.1915 -0.3522
 4099ntf    fn422596   5.363   4.751   1.754  0.1233  0.1492  0.0746
 4099ntf    fn422597   5.295   4.803   1.948 -0.5164  0.0570 -0.0832
 4099ntf    fn422598   5.208   4.635   1.837 -0.5903 -0.0054 -0.0721
 4099ntf    on522599   5.017   4.868   1.852  0.1983 -1.1297  0.3154
 4099ntf    on522600   5.201   4.988   1.732 -0.1952 -0.3303 -1.1007
 4099ntf    on522601   5.265   4.790   1.455 -0.1876  0.2212  0.0835
 4099ntf    on522602   5.047   4.899   1.400 -0.1552 -0.0482 -0.0972
 4099ntf    fn422603   5.108   4.543   1.481 -0.0754  0.1492 -0.7272
 4099ntf    fn422604   4.927   4.643   1.434 -0.4820  0.3281 -0.2036
 4099ntf    fn422605   5.089   4.628   1.285  0.7268 -0.4705  0.0237
 4100ntf    cn122606   7.078   0.677   6.043 -0.0298  0.2380  0.2851
 4100ntf    sn222607   7.214   0.615   6.147  0.2301  0.0205 -0.1831
 4100ntf    nn322608   7.172   0.700   6.272  0.9197  0.1143 -0.0128
 4100ntf    sn222609   7.144   0.666   6.423  0.0230 -0.0051 -0.2015
 4100ntf    cn122610   6.978   0.738   6.442  0.1064  0.0495  0.3250
 4100ntf    fn422611   7.079   0.600   5.936  0.0792  0.1418  0.3549
 4100ntf    fn422612   6.958   0.659   6.098 -0.1683 -0.3021 -0.1842
 4100ntf    fn422613   7.080   0.804   6.008  0.7896 -0.0368 -0.7001
 4100ntf    on522614   7.193   0.473   6.161 -1.1864  0.2638  0.3113
 4100ntf    on522615   7.333   0.659   6.079  0.5459 -0.7855 -0.1644
 4100ntf    on522616   7.214   0.754   6.513 -0.0820 -0.4319  0.3004
 4100ntf    on522617   7.119   0.528   6.457 -0.6108  0.1786  0.1028
 4100ntf    fn422618   6.902   0.685   6.537 -0.2884  0.5344  0.2840
 4100ntf    fn422619   6.985   0.863   6.486  0.0834  0.1456  0.0557
 4100ntf    fn422620   6.916   0.745   6.325  0.2994  0.0026  0.2201
 4101ntf    cn122621   2.875   3.213   5.133 -0.3286 -0.3188 -0.5047
 4101ntf    sn222622   2.715   3.272   5.196 -0.2287 -0.1224 -0.4322
 4101ntf    nn322623   2.682   3.374   5.082  0.0261  0.4100 -0.0327
 4101ntf    sn222624   2.675   3.531   5.085  0.1122  0.4130  0.0027
 4101ntf    cn122625   2.498   3.542   5.048  0.0761 -0.1797 -0.0046
 4101ntf    fn422626   2.971   3.304   5.146 -0.0815 -0.6225 -0.1664
 4101ntf    fn422627   2.909   3.100   5.194 -0.1630 -0.2673 -0.5013
 4101ntf    fn422628   2.874   3.181   5.005 -0.0762 -0.2791 -0.5172
 4101ntf    on522629   2.631   3.156   5.181  0.4598 -0.6158 -0.5216
 4101ntf    on522630   2.741   3.316   5.330 -0.0206 -0.2603 -0.4256
 4101ntf    on522631   2.743   3.602   4.979  0.0684  0.4206 -0.0199
 4101ntf    on522632   2.694   3.580   5.220 -0.1113 -0.0533  0.2043
 4101ntf    fn422633   2.443   3.661   5.070 -0.2860 -0.3054 -0.2114
 4101ntf    fn422634   2.466   3.515   4.923  0.1703 -0.6996  0.0799
 4101ntf    fn422635   2.425   3.455   5.116 -0.0986  0.0313  0.0800
 4102ntf    cn122636   4.688   4.643   4.338  0.4627  0.2170  0.4315
 4102ntf    sn222637   4.827   4.526   4.343  0.4253  0.1305 -0.3079
 4102ntf    nn322638   4.937   4.628   4.389  0.5023 -0.0344 -0.1220
 4102ntf    sn222639   4.968   4.684   4.532 -0.0434 -0.1874  0.0587
 4102ntf    cn122640   5.124   4.593   4.553 -0.0611 -0.2790 -0.2173
 4102ntf    fn422641   4.678   4.715   4.448 -0.2852  0.5100  0.1774
 4102ntf    fn422642   4.696   4.726   4.234  0.1026 -0.3882 -0.0882
 4102ntf    fn422643   4.582   4.565   4.329 -0.0899  0.8642  1.2074
 4102ntf    on522644   4.775   4.440   4.447 -0.0075 -0.0487 -0.6708
 4102ntf    on522645   4.839   4.480   4.207 -0.0038 -0.3562 -0.1814
 4102ntf    on522646   4.884   4.645   4.642 -0.4311  0.6134  0.0559
 4102ntf    on522647   5.005   4.824   4.524 -0.6962 -0.0285 -0.2651
 4102ntf    fn422648   5.206   4.612   4.451  0.0950 -0.3419 -0.1048
 4102ntf    fn422649   5.191   4.628   4.661 -0.8331  0.2862  0.0868
 4102ntf    fn422650   5.108   4.462   4.558 -0.3960 -0.2192  0.3120
 4103ntf    cn122651   1.011   1.133   0.380  0.2968  0.4591 -0.1569
 4103ntf    sn222652   0.898   1.197   0.253 -0.0066 -0.0050 -0.1219
 4103ntf    nn322653   0.936   1.116   0.123 -0.3657  0.1851 -0.3475
 4103ntf    sn222654   0.861   0.989   0.068 -0.1440 -0.0681 -0.0729
 4103ntf    cn122655   1.001   0.897  -0.000 -0.3494 -0.2032 -0.3159
 4103ntf    fn422656   1.138   1.167   0.365  0.2761  0.4134 -0.4542
 4103ntf    fn422657   0.982   1.189   0.496  0.0910 -0.1897  0.1068
 4103ntf    fn422658   1.004   1.003   0.403  0.2015  0.4765 -0.0914
 4103ntf    on522659   0.765   1.174   0.303  0.1905 -0.0129  0.4020
 4103ntf    on522660   0.929   1.336   0.235 -0.5833  0.1144 -0.2138
 4103ntf    on522661   0.769   1.025  -0.038 -0.4208 -0.4113  0.0493
 4103ntf    on522662   0.820   0.906   0.178 -0.2222  0.4529  0.2968
 4103ntf    fn422663   0.962   0.788  -0.064 -0.3791 -0.4476  0.1135
 4103ntf    fn422664   1.081   0.969  -0.076  0.3976 -0.5356  0.1401
 4103ntf    fn422665   1.073   0.852   0.102 -0.9646 -0.0523  0.1894
 4104ntf    cn122666   5.567   3.264   2.637 -0.1868  0.1003  0.3746
 4104ntf    sn222667   5.474   3.279   2.793 -0.1668  0.2771  0.3704
 4104ntf    nn322668   5.328   3.243   2.748  0.1550 -0.1600 -0.3424
 4104ntf    sn222669   5.247   3.110   2.762  0.3153 -0.2267 -0.0415
 4104ntf    cn122670   5.318   3.023   2.619  0.4246 -0.8375  0.3771
 4104ntf    fn422671   5.675   3.188   2.641 -0.2233  0.0273 -0.0343
 4104ntf    fn422672   5.498   3.214   2.536  0.1465 -0.2367  0.3143
 4104ntf    fn422673   5.603   3.384   2.592 -0.6952  0.1605  0.1173
 4104ntf    on522674   5.539   3.178   2.872 -0.2313  0.3136  0.4694
 4104ntf    on522675   5.494   3.413   2.842 -0.1478  0.4426 -0.0856
 4104ntf    on522676   5.107   3.122   2.727  0.2288  0.9394  0.6669
 4104ntf    on522677   5.282   3.027   2.875  0.8266 -0.1903 -0.1716
 4104ntf    fn422678   5.445   2.987   2.633  0.7499  0.0734 -0.1257
 4104ntf    fn422679   5.246   2.917   2.587  0.1850 -0.5053 -0.1888
 4104ntf    fn422680   5.324   3.099   2.511 -0.2697 -0.0503  0.8788
 4105ntf    cn122681   6.514   4.512   3.640  0.0905  0.0014  0.0553
 4105ntf    sn222682   6.574   4.683   3.626  0.0887  0.0083  0.1358
 4105ntf    nn322683   6.673   4.698   3.747  0.2972  0.8574 -0.1337
 4105ntf    sn222684   6.827   4.665   3.742  0.1264  0.0208 -0.0423
 4105ntf    cn122685   6.891   4.818   3.668  0.6063 -0.1443  0.0287
 4105ntf    fn422686   6.446   4.504   3.754 -0.0671  0.0078 -0.0367
 4105ntf    fn422687   6.438   4.483   3.536 -0.0496  0.5663 -0.0018
 4105ntf    fn422688   6.611   4.423   3.626 -0.1169 -0.2478  0.1757
 4105ntf    on522689   6.634   4.704   3.497  0.0205  0.2994  0.1507
 4105ntf    on522690   6.454   4.760   3.650 -0.1773 -0.3760  0.0577
 4105ntf    on522691   6.864   4.565   3.646 -0.2893 -0.3927  0.2214
 4105ntf    on522692   6.889   4.657   3.872  0.5853  0.2786 -0.2461
 4105ntf    fn422693   6.836   4.843   3.550  0.1309 -0.0744  0.2627
 4105ntf    fn422694   6.850   4.918   3.744  0.3680 -0.1377 -0.1057
 4105ntf    fn422695   7.020   4.825   3.642  0.6817 -1.0056  0.1273
 4106ntf    cn122696   4.751   2.075   5.097  0.0866  0.3764  0.4873
 4106ntf    sn222697   4.922   2.136   5.106  0.0970  0.4223 -0.0137
 4106ntf    nn322698   4.980   2.094   4.966 -0.3391 -0.0753 -0.0488
 4106ntf    sn222699   5.020   2.186   4.845 -0.1212 -0.1100 -0.0030
 4106ntf    cn122700   4.864   2.242   4.772 -0.0222  0.0743 -0.0747
 4106ntf    fn422701   4.681   2.115   5.202 -0.1966  0.0662  0.4181
 4106ntf    fn422702   4.690   2.132   4.994 -0.1633 -0.1882  0.3177
 4106ntf    fn422703   4.730   1.945   5.103  0.0341  0.3584 -0.0850
 4106ntf    on522704   4.912   2.279   5.122 -0.3470  0.4147 -0.1980
 4106ntf    on522705   4.973   2.060   5.217 -0.4606 -0.7240 -0.5208
 4106ntf    on522706   5.076   2.101   4.743 -0.0958 -0.1890  0.0763
 4106ntf    on522707   5.096   2.304   4.881  0.1975 -0.3579  0.1430
 4106ntf    fn422708   4.801   2.323   4.857 -0.2182  0.0871 -0.2309
 4106ntf    fn422709   4.874   2.302   4.655  0.2709  0.8194  0.3252
 4106ntf    fn422710   4.788   2.135   4.753  0.2613 -0.2550  0.6114
 4107ntf    cn122711   6.158   0.666   5.157 -0.1382  0.1284 -0.3925
 4107ntf    sn222712   6.283   0.793   5.195 -0.0934  0.0378 -0.2387
 4107ntf    nn322713   6.377   0.792   5.069  0.6826  0.0644  0.3334
 4107ntf    sn222714   6.400   0.890   4.949 -0.0273 -0.0964  0.0621
 4107ntf    cn122715   6.566   0.943   5.001 -0.1836  0.3758  0.0847
 4107ntf    fn422716   6.094   0.688   5.043 -0.3883  0.0290 -0.2713
 4107ntf    fn422717   6.204   0.544   5.137 -0.4462 -0.0650  0.0796
 4107ntf    fn422718   6.068   0.664   5.253  0.4719 -0.0507  0.1839
 4107ntf    on522719   6.212   0.918   5.207 -0.2449 -0.1501  0.9360
 4107ntf    on522720   6.343   0.736   5.313  0.1239  0.1944 -0.2723
 4107ntf    on522721   6.321   1.011   4.948  0.4322  0.2216  0.9484
 4107ntf    on522722   6.420   0.821   4.824  0.3216  0.0546  0.0343
 4107ntf    fn422723   6.583   1.061   4.944 -0.3813  0.2382 -0.2593
 4107ntf    fn422724   6.572   0.960   5.132 -0.4550  0.5310  0.0791
 4107ntf    fn422725   6.664   0.862   4.966 -0.1994  0.2031  0.4357
 4108ntf    cn122726   6.461   6.311   0.366  0.0163  0.0566  0.2362
 4108ntf    sn222727   6.310   6.266   0.277  0.2133  0.3020 -0.2226
 4108ntf    nn322728   6.202   6.340   0.364 -0.0052  0.2634 -0.4577
 4108ntf    sn222729   6.110   6.462   0.325 -0.2693  0.2202  0.0294
 4108ntf    cn122730   6.195   6.607   0.393 -0.1664 -0.0522  0.4884
 4108ntf    fn422731   6.458   6.439   0.398 -0.4234 -0.0363  0.5879
 4108ntf    fn422732   6.482   6.238   0.475  0.5494 -0.2430 -0.0609
 4108ntf    fn422733   6.575   6.298   0.300 -0.4089 -0.6076 -0.3762
 4108ntf    on522734   6.325   6.306   0.139  0.0377 -0.0026 -0.3324
 4108ntf    on522735   6.298   6.125   0.305 -0.1122  0.3921  0.1073
 4108ntf    on522736   5.988   6.454   0.401  0.1130  0.2841  0.6642
 4108ntf    on522737   6.095   6.486   0.184 -0.1743  0.1298  0.0034
 4108ntf    fn422738   6.323   6.593   0.363 -0.3530  0.0240 -0.3545
 4108ntf    fn422739   6.152   6.718   0.337  0.1035  0.1171  0.6122
 4108ntf    fn422740   6.189   6.609   0.526  0.2330 -0.2637  0.5119
 4109ntf    cn122741   0.661   3.961   2.717  0.2055 -0.4774 -0.3737
 4109ntf    sn222742   0.591   4.045   2.572 -0.0386 -0.0406 -0.0049
 4109ntf    nn322743   0.442   4.027   2.619 -0.0915 -0.1405 -0.2076
 4109ntf    sn222744   0.334   4.141   2.617 -0.1442 -0.1810  0.2424
 4109ntf    cn122745   0.289   4.166   2.443 -0.3902 -0.2778  0.2918
 4109ntf    fn422746   0.703   4.041   2.813 -0.1489 -0.7708  0.0261
 4109ntf    fn422747   0.572   3.883   2.775  0.1794  0.2061  0.5165
 4109ntf    fn422748   0.766   3.883   2.698  0.1215 -0.5801 -0.4135
 4109ntf    on522749   0.654   4.175   2.572  0.3691 -0.2377  0.3387
 4109ntf    on522750   0.625   3.953   2.466  0.3544  0.2570 -0.1386
 4109ntf    on522751   0.374   4.271   2.665 -0.3360  0.1589 -0.5026
 4109ntf    on522752   0.215   4.094   2.683 -0.2232 -0.3478 -0.0178
 4109ntf    fn422753   0.194   4.254   2.416  0.3597  0.2352 -0.7529
 4109ntf    fn422754   0.395   4.203   2.372 -0.0164 -0.3145  0.8293
 4109ntf    fn422755   0.240   4.055   2.389 -0.1488 -0.3922  0.3069
 4110ntf    cn122756   4.627   5.217   2.757 -0.1927 -0.1722  0.2184
 4110ntf    sn222757   4.592   5.370   2.666 -0.4424 -0.4118 -0.0903
 4110ntf    nn322758   4.458   5.413   2.736 -0.1191  0.0616  0.2442
 4110ntf    sn222759   4.312   5.365   2.707  0.0953 -0.1198 -0.5736
 4110ntf    cn122760   4.270   5.275   2.860  0.4264  0.4425 -0.1499
 4110ntf    fn422761   4.665   5.245   2.881 -0.1323 -0.0858  0.1806
 4110ntf    fn422762   4.529   5.130   2.767 -0.4209  0.0551 -0.0232
 4110ntf    fn422763   4.735   5.160   2.707 -0.2690  0.0698 -0.2233
 4110ntf    on522764   4.697   5.463   2.700 -0.1965 -0.6394 -0.2183
 4110ntf    on522765   4.591   5.326   2.529 -0.0704  0.1016 -0.2635
 4110ntf    on522766   4.297   5.263   2.606 -0.5950 -0.1711 -0.4262
 4110ntf    on522767   4.223   5.477   2.696  0.1257 -0.0627 -0.2543
 4110ntf    fn422768   4.291   5.351   2.966  0.1839  0.5213 -0.1576
 4110ntf    fn422769   4.151   5.218   2.861  0.5592  0.1531 -0.4328
 4110ntf    fn422770   4.346   5.167   2.869 -0.1401  0.0944  0.5446
 4111ntf    cn122771   1.345   1.410   1.451 -0.0742  0.2277  0.0519
 4111ntf    sn222772   1.504   1.482   1.400 -0.1454  0.3940  0.0624
 4111ntf    nn322773   1.596   1.429   1.516  0.0569 -0.0172 -0.2852
 4111ntf    sn222774   1.679   1.296   1.522  0.1161  0.0274 -0.1067
 4111ntf    cn122775   1.838   1.348   1.452  0.0859  0.1438 -0.0889
 4111ntf    fn422776   1.250   1.452   1.369  0.0188 -0.1310 -0.2375
 4111ntf    fn422777   1.351   1.279   1.461 -0.2405  0.1732 -0.5328
 4111ntf    fn422778   1.315   1.463   1.569  0.8906 -0.0415  0.4271
 4111ntf    on522779   1.531   1.433   1.268 -0.5779 -0.1414  0.1691
 4111ntf    on522780   1.480   1.624   1.411  0.7731  0.5958 -0.5065
 4111ntf    on522781   1.643   1.194   1.425  0.2265 -0.3081  0.2015
 4111ntf    on522782   1.708   1.246   1.654 -0.1902  0.0061 -0.0463
 4111ntf    fn422783   1.864   1.470   1.497  0.3823  0.2031 -0.4185
 4111ntf    fn422784   1.941   1.272   1.486 -0.0120 -0.1321 -0.4033
 4111ntf    fn422785   1.845   1.351   1.320  0.2477  0.4662 -0.0740
 4112ntf    cn122786   1.819   6.016   1.431  0.0896  0.0378 -0.1206
 4112ntf    sn222787   1.661   6.021   1.521  0.4018 -0.2948  0.4547
 4112ntf    nn322788   1.673   6.166   1.581  0.1035 -0.0709 -0.0225
 4112ntf    sn222789   1.615   6.300   1.522  0.2504  0.0905  0.1985
 4112ntf    cn122790   1.749   6.414   1.566  0.1935  0.3234 -0.2264
 4112ntf    fn422791   1.928   6.024   1.505  0.1660  0.0552 -0.2345
 4112ntf    fn422792   1.828   5.895   1.377 -0.6890 -0.1514  0.1618
 4112ntf    fn422793   1.822   6.104   1.332 -0.0824 -0.1644 -0.3081
 4112ntf    on522794   1.557   6.001   1.424  0.0176  0.0134  0.7996
 4112ntf    on522795   1.688   5.920   1.620  0.4796 -0.0113  0.7251
 4112ntf    on522796   1.503   6.341   1.603  0.2052  0.1507  0.1056
 4112ntf    on522797   1.608   6.321   1.380 -0.2927 -0.0468  0.2019
 4112ntf    fn422798   1.863   6.386   1.505  0.1398 -0.4761  0.0273
 4112ntf    fn422799   1.714   6.533   1.521 -0.6852 -0.1206 -0.7407
 4112ntf    fn422800   1.779   6.421   1.695 -0.3395 -0.3919 -0.0571
 4113ntf    cn122801   3.350   3.436   1.022 -0.1904  0.1095 -0.0622
 4113ntf    sn222802   3.327   3.489   0.849  0.1256 -0.2406 -0.2144
 4113ntf    nn322803   3.350   3.347   0.786 -0.4869 -0.4062 -0.0752
 4113ntf    sn222804   3.439   3.304   0.664  0.1868 -0.1937  0.3348
 4113ntf    cn122805   3.300   3.283   0.548  0.5541  0.1828 -0.1779
 4113ntf    fn422806   3.466   3.376   1.037 -0.4537 -0.3555  0.1435
 4113ntf    fn422807   3.346   3.529   1.116 -0.3656  0.3881 -0.3418
 4113ntf    fn422808   3.258   3.344   1.050 -0.0441 -0.0445 -0.0890
 4113ntf    on522809   3.190   3.536   0.848  0.1361 -0.2069 -0.1148
 4113ntf    on522810   3.426   3.591   0.825 -0.4124  0.4333  0.3421
 4113ntf    on522811   3.492   3.170   0.670 -0.2664 -0.3867  0.1196
 4113ntf    on522812   3.518   3.410   0.606  0.2122 -0.1845  0.3861
 4113ntf    fn422813   3.224   3.391   0.541 -0.2137 -0.3449 -0.1405
 4113ntf    fn422814   3.333   3.244   0.426 -0.5904  0.0873 -0.4658
 4113ntf    fn422815   3.224   3.187   0.599  0.1972  0.4356 -0.2321
 4114ntf    cn122816   1.757   0.270   1.393 -0.1637 -0.1170 -0.1303
 4114ntf    sn222817   1.599   0.292   1.305 -0.1549  0.0926 -0.0936
 4114ntf    nn322818   1.508   0.370   1.406  0.6558  0.0921  0.6499
 4114ntf    sn222819   1.419   0.499   1.408  0.2565 -0.1666 -0.1558
 4114ntf    cn122820   1.248   0.452   1.446  0.0316  0.4116 -0.4384
 4114ntf    fn422821   1.804   0.380   1.448 -0.4194 -0.1645  0.1904
 4114ntf    fn422822   1.754   0.185   1.495  0.1172 -0.2794 -0.2574
 4114ntf    fn422823   1.852   0.234   1.309  0.0848  0.1616  0.0291
 4114ntf    on522824   1.632   0.370   1.188  0.1981 -0.3067 -0.2658
 4114ntf    on522825   1.566   0.153   1.288  0.7753 -0.1196 -0.2134
 4114ntf    on522826   1.386   0.575   1.289 -0.7145 -0.5453 -0.1373
 4114ntf    on522827   1.455   0.574   1.526  0.0765 -0.0471 -0.1768
 4114ntf    fn422828   1.180   0.565   1.456 -0.0438  0.2970  0.4329
 4114ntf    fn422829   1.198   0.380   1.347 -0.3781 -0.2405  0.2365
 4114ntf    fn422830   1.237   0.383   1.559  1.1992  0.3293 -0.3680
 4115ntf    cn122831   0.421   0.732   4.928  0.2386 -0.0742  0.3016
 4115ntf    sn222832   0.518   0.813   5.059  0.5119  0.1429 -0.0327
 4115ntf    nn322833   0.404   0.884   5.141 -0.0264  0.1004 -0.7300
 4115ntf    sn222834   0.386   1.036   5.174 -0.1360 -0.1103  0.2155
 4115ntf    cn122835   0.475   1.059   5.331  0.3650  0.1018 -0.0976
 4115ntf    fn422836   0.319   0.662   4.975  0.0494  0.1984  0.2997
 4115ntf    fn422837   0.361   0.823   4.852  0.1676 -0.0887  0.3406
 4115ntf    fn422838   0.494   0.653   4.852  0.1337  0.1730 -0.0600
 4115ntf    on522839   0.563   0.694   5.127  0.1249 -0.0036 -0.0278
 4115ntf    on522840   0.618   0.887   4.986  0.1943 -0.0148 -0.6366
 4115ntf    on522841   0.250   1.064   5.214 -0.1043 -0.0345  0.2700
 4115ntf    on522842   0.449   1.135   5.090 -0.4420 -0.3891 -0.3546
 4115ntf    fn422843   0.585   0.988   5.316  0.2277 -0.0263 -0.5292
 4115ntf    fn422844   0.509   1.184   5.359 -0.1407  0.1035  0.5287
 4115ntf    fn422845   0.407   1.001   5.428 -0.1339  0.3860 -0.2686
 4116ntf    cn122846   1.053   4.792   4.905 -0.0698 -0.5261  0.1272
 4116ntf    sn222847   0.925   4.788   5.034 -0.0128 -0.0877  0.1983
 4116ntf    nn322848   0.905   4.939   5.071  0.2572 -0.2164  0.8820
 4116ntf    sn222849   0.789   5.033   5.021  0.2573 -0.7324 -0.0899
 4116ntf    cn122850   0.866   5.195   5.053 -0.8255 -0.1813 -0.2264
 4116ntf    fn422851   1.176   4.810   4.950 -0.1062 -0.5127  0.2226
 4116ntf    fn422852   1.062   4.686   4.827  0.4163 -0.4421  0.0644
 4116ntf    fn422853   1.042   4.894   4.822  0.1091 -0.5250  0.1060
 4116ntf    on522854   0.812   4.719   4.978  0.3803 -0.7213  0.1850
 4116ntf    on522855   0.979   4.712   5.144 -0.0726 -0.3186  0.0676
 4116ntf    on522856   0.678   5.036   5.112  0.0211 -0.2767 -0.3905
 4116ntf    on522857   0.754   5.048   4.881  0.0060 -0.4239  0.0047
 4116ntf    fn422858   0.903   5.202   5.179  0.1452 -0.4225 -0.4829
 4116ntf    fn422859   0.978   5.203   4.982 -0.4565 -0.3703  0.3264
 4116ntf    fn422860   0.788   5.297   5.023  0.0772  0.7169  0.4445
 4117ntf    cn122861   6.924   4.438   7.204  0.0607 -0.2575  0.3952
 4117ntf    sn222862   6.875   4.487   7.036 -0.0123 -0.1360  0.4524
 4117ntf    nn322863   6.735   4.418   7.016 -0.1650  0.3634 -0.2255
 4117ntf    sn222864   6.701   4.279   6.953  0.3757  0.1423 -0.0339
 4117ntf    cn122865   6.619   4.340   6.803 -0.0571 -0.3655 -0.0102
 4117ntf    fn422866   6.949   4.308   7.209 -0.3726 -0.3598 -0.0826
 4117ntf    fn422867   7.019   4.517   7.251 -0.2056 -0.0858  0.6475
 4117ntf    fn422868   6.829   4.464   7.292 -0.0578  0.0166  0.1875
 4117ntf    on522869   6.862   4.630   7.054  0.0836 -0.0849  0.1143
 4117ntf    on522870   6.979   4.439   6.950 -0.3815 -0.0422 -0.0556
 4117ntf    on522871   6.591   4.218   7.023  0.4873 -0.4305 -0.3499
 4117ntf    on522872   6.802   4.185   6.910 -0.5136 -0.7417 -0.2612
 4117ntf    fn422873   6.708   4.408   6.732 -0.3677  0.3839  0.3013
 4117ntf    fn422874   6.575   4.240   6.729  0.0363  0.0754 -0.6656
 4117ntf    fn422875   6.519   4.425   6.820  0.0643 -0.3156  0.4546
 4118ntf    cn122876   6.573   1.506   5.032 -0.0888 -0.0418  0.1109
 4118ntf    sn222877   6.740   1.530   5.098 -0.1047  0.2184  0.0564
 4118ntf    nn322878   6.745   1.406   5.194 -0.1351  0.3385  0.2140
 4118ntf    sn222879   6.844   1.351   5.303  0.1249  0.0486 -0.1657
 4118ntf    cn122880   6.739   1.387   5.448  0.2119  0.1333 -0.1226
 4118ntf    fn422881   6.469   1.520   5.113 -0.2159  0.4399 -0.1340
 4118ntf    fn422882   6.541   1.576   4.924 -0.1026 -0.0375  0.1178
 4118ntf    fn422883   6.566   1.377   5.001  0.5785 -0.0625  0.0326
 4118ntf    on522884   6.808   1.519   4.972 -0.1667  0.8097 -0.0306
 4118ntf    on522885   6.730   1.656   5.168 -0.3097  0.2460 -0.0221
 4118ntf    on522886   6.962   1.433   5.315 -0.0507  0.3712 -0.5859
 4118ntf    on522887   6.857   1.208   5.301  0.4358  0.0776 -0.2315
 4118ntf    fn422888   6.702   1.512   5.467  0.3445  0.1982 -0.2902
 4118ntf    fn422889   6.630   1.312   5.437  0.2072  0.1203  0.0157
 4118ntf    fn422890   6.798   1.349   5.560  0.0108  0.0254 -0.0518
 4119ntf    cn122891   2.732   2.895   3.184  0.1077  0.3643 -0.1832
 4119ntf    sn222892   2.776   2.735   3.260 -0.0455  0.3189 -0.1899
 4119ntf    nn322893   2.627   2.685   3.251 -0.0161  0.3611 -0.9307
 4119ntf    sn222894   2.567   2.567   3.167  0.1099 -0.3024 -0.0975
 4119ntf    cn122895   2.528   2.445   3.296 -0.3484 -0.2155 -0.1504
 4119ntf    fn422896   2.837   2.972   3.162  0.1401  0.2822 -0.3190
 4119ntf    fn422897   2.673   2.882   3.066 -0.0505  0.1867 -0.0860
 4119ntf    fn422898   2.643   2.958   3.258 -0.1055 -0.0954 -0.0448
 4119ntf    on522899   2.880   2.683   3.175 -0.1529  0.3354 -0.3324
 4119ntf    on522900   2.812   2.769   3.396  0.1714  0.2333 -0.2258
 4119ntf    on522901   2.655   2.498   3.077  0.4855 -0.4182  0.3595
 4119ntf    on522902   2.436   2.600   3.115  0.2798  0.9082  0.2232
 4119ntf    fn422903   2.636   2.401   3.359 -0.5659 -0.1382  0.2818
 4119ntf    fn422904   2.448   2.482   3.394  0.2446  0.3492  0.1252
 4119ntf    fn422905   2.467   2.343   3.238 -0.4188 -0.3261  0.1152
 4120ntf    cn122906   1.069   2.426   5.553  0.1647 -0.1387 -0.2926
 4120ntf    sn222907   1.207   2.468   5.442  0.3864 -0.3305 -0.0916
 4120ntf    nn322908   1.121   2.557   5.345  0.3408 -0.5132 -0.2196
 4120ntf    sn222909   1.031   2.530   5.219  0.0400 -0.3434 -0.0423
 4120ntf    cn122910   1.102   2.649   5.102  0.0531 -0.1307  0.1813
 4120ntf    fn422911   0.975   2.361   5.487  0.2017 -0.2570 -0.2297
 4120ntf    fn422912   1.097   2.340   5.649 -0.4399  0.1710  0.1644
 4120ntf    fn422913   1.011   2.534   5.604  0.3957 -0.0947 -0.1205
 4120ntf    on522914   1.290   2.546   5.530  0.2238  0.3037 -0.4871
 4120ntf    on522915   1.262   2.347   5.387  0.6081 -0.2430 -0.0613
 4120ntf    on522916   0.892   2.569   5.230  0.2042  0.2727 -0.1398
 4120ntf    on522917   1.054   2.401   5.157  0.8462 -0.5148  0.6010
 4120ntf    fn422918   1.231   2.625   5.084  0.1152  0.0223  0.4168
 4120ntf    fn422919   1.039   2.643   4.986  0.3583 -0.4770  0.0307
 4120ntf    fn422920   1.092   2.773   5.146  0.1213  0.1263 -0.5220
 4121ntf    cn122921   5.240   7.100   5.988 -0.0624  0.2017  0.1667
 4121ntf    sn222922   5.320   6.943   5.941 -0.0368  0.1563  0.3605
 4121ntf    nn322923   5.232   6.842   6.022 -0.3182  0.1049 -0.0085
 4121ntf    sn222924   5.261   6.719   6.115  0.2985 -0.1387 -0.5158
 4121ntf    cn122925   5.099   6.691   6.192  0.4906 -0.5718 -0.2672
 4121ntf    fn422926   5.239   7.122   6.118  0.0622 -0.4010  0.2727
 4121ntf    fn422927   5.298   7.208   5.940  0.3131 -0.3436 -0.6291
 4121ntf    fn422928   5.113   7.105   5.951 -0.0224 -0.2494 -0.0388
 4121ntf    on522929   5.297   6.925   5.800 -0.2919  0.3158  0.3823
 4121ntf    on522930   5.455   6.957   5.990  0.0896  0.0791  0.0395
 4121ntf    on522931   5.348   6.757   6.223 -0.4136 -0.0097  0.0246
 4121ntf    on522932   5.287   6.596   6.043  0.4986 -0.7190  0.5305
 4121ntf    fn422933   5.043   6.804   6.233  0.3479 -0.8103  0.2141
 4121ntf    fn422934   5.001   6.648   6.114 -0.0425 -0.1976  0.1842
 4121ntf    fn422935   5.098   6.613   6.299  0.2773 -0.5547 -0.2554
 4122ntf    cn122936   3.282   4.978   1.034  0.1946 -0.0155 -0.1593
 4122ntf    sn222937   3.189   4.826   1.066 -0.1257  0.2501  0.1887
 4122ntf    nn322938   3.192   4.745   0.931 -0.0149  0.5614  0.0032
 4122ntf    sn222939   3.094   4.631   0.887 -0.0652  0.5640  0.1071
 4122ntf    cn122940   3.206   4.499   0.831 -0.2138  0.3746  0.2545
 4122ntf    fn422941   3.240   5.054   0.934 -0.3019 -0.1554 -0.0562
 4122ntf    fn422942   3.278   5.060   1.138  0.0424  0.3049 -0.4155
 4122ntf    fn422943   3.412   4.959   1.016  0.2169  0.4438 -0.4856
 4122ntf    on522944   3.259   4.763   1.175 -0.2533 -0.5942 -0.2043
 4122ntf    on522945   3.061   4.884   1.097 -0.2294  0.2040 -0.1438
 4122ntf    on522946   3.011   4.663   0.773 -0.0522 -0.6225 -0.2549
 4122ntf    on522947   3.026   4.569   0.998  0.5553 -0.3033  0.0161
 4122ntf    fn422948   3.293   4.559   0.751 -0.0597 -0.1227  0.0412
 4122ntf    fn422949   3.283   4.451   0.928 -0.0036 -0.3152 -0.2465
 4122ntf    fn422950   3.153   4.399   0.764 -0.3849  0.1094  0.7821
 4123ntf    cn122951   1.876   5.787   2.098 -0.1536 -0.1229  0.1998
 4123ntf    sn222952   1.705   5.725   2.088 -0.1711 -0.0711  0.1779
 4123ntf    nn322953   1.717   5.600   1.994 -0.3628  0.4807 -0.5895
 4123ntf    sn222954   1.638   5.464   1.992  0.3798  0.0349  0.2288
 4123ntf    cn122955   1.753   5.348   2.073 -0.0028 -0.3295  0.2535
 4123ntf    fn422956   1.966   5.690   2.094  0.0014  0.0277  0.0476
 4123ntf    fn422957   1.899   5.873   2.000 -0.6162 -0.3302 -0.0937
 4123ntf    fn422958   1.895   5.850   2.213  0.2559 -0.4692  0.3241
 4123ntf    on522959   1.660   5.699   2.222 -0.2538 -1.0391 -0.0352
 4123ntf    on522960   1.631   5.831   2.025  0.2762  0.1513  0.0166
 4123ntf    on522961   1.621   5.407   1.861 -0.2998  0.1707  0.2561
 4123ntf    on522962   1.526   5.461   2.082  0.5085 -0.2227  0.3840
 4123ntf    fn422963   1.726   5.222   2.047 -0.3164 -0.4042  0.9233
 4123ntf    fn422964   1.870   5.376   2.018  0.0839 -0.3098  0.4491
 4123ntf    fn422965   1.762   5.361   2.204 -0.3585  0.0377  0.2451
 4124ntf    cn122966   5.595   1.646   0.452  0.1845  0.3117  0.0058
 4124ntf    sn222967   5.763   1.713   0.459  0.2732  0.0965 -0.0604
 4124ntf    nn322968   5.743   1.860   0.407  0.5679  0.2457  0.2382
 4124ntf    sn222969   5.718   1.904   0.258 -0.1116 -0.0350  0.2636
 4124ntf    cn122970   5.887   1.944   0.202 -0.1329 -0.0956  0.1565
 4124ntf    fn422971   5.596   1.525   0.505  0.8043  0.2907 -0.0519
 4124ntf    fn422972   5.504   1.719   0.516 -0.3008 -0.3124  0.0405
 4124ntf    fn422973   5.552   1.629   0.327 -0.2505  0.1493  0.1754
 4124ntf    on522974   5.784   1.700   0.602  0.1875 -0.8265 -0.1272
 4124ntf    on522975   5.835   1.625   0.370  0.4914 -0.1996  0.4052
 4124ntf    on522976   5.654   2.033   0.252 -0.2314 -0.0840  0.4682
 4124ntf    on522977   5.674   1.805   0.164  0.5219  0.1248 -0.2084
 4124ntf    fn422978   5.947   2.034   0.278 -0.3598 -0.1352  0.3872
 4124ntf    fn422979   5.961   1.835   0.203  0.0030 -0.0063 -0.0539
 4124ntf    fn422980   5.873   1.990   0.079  0.2267 -1.1122 -0.2729
 4125ntf    cn122981   0.812   7.254   7.213  0.1191 -0.1748  0.0614
 4125ntf    sn222982   0.802   7.136   7.350 -0.0451 -0.1096  0.1058
 4125ntf    nn322983   0.823   7.235   7.471 -0.1003 -0.0066  0.0306
 4125ntf    sn222984   0.955   7.270   7.547 -0.1600 -0.4146  0.3267
 4125ntf    cn122985   0.891   7.286   7.716  0.0821  0.0289  0.3797
 4125ntf    fn422986   0.774   7.374   7.255 -0.5181 -0.3415 -0.0305
 4125ntf    fn422987   0.938   7.262   7.173 -0.0068  0.4646 -0.2314
 4125ntf    fn422988   0.738   7.222   7.108  0.7281 -0.1092 -0.3913
 4125ntf    on522989   0.667   7.085   7.347  0.0226 -0.2618 -0.4114
 4125ntf    on522990   0.904   7.038   7.321  0.1437  0.1109  0.0167
 4125ntf    on522991   1.005   7.402   7.519 -0.1645 -0.4486  0.1546
 4125ntf    on522992   1.054   7.165   7.558  0.3366 -0.0093 -0.1686
 4125ntf    fn422993   0.985   7.318   7.803 -0.0069  0.1260  0.4408
 4125ntf    fn422994   0.800   7.381   7.728 -0.0138 -0.0455  0.2589
 4125ntf    fn422995   0.833   7.177   7.764  0.0468  0.1373  0.5820
 4126ntf    cn122996   6.424   0.044   3.805 -0.0090  0.2806  0.3441
 4126ntf    sn222997   6.564   0.040   3.921  0.4848  0.1778 -0.2507
 4126ntf    nn322998   6.679   0.008   3.818  0.2520 -0.3768 -0.3439
 4126ntf    sn222999   6.811   0.089   3.790 -0.1851  0.3743 -0.2583
 4126ntf    cn123000   6.755   0.207   3.664  0.3718  0.4484 -0.4368
 4126ntf    fn423001   6.452   0.091   3.684  0.0293 -0.7682 -0.0666
 4126ntf    fn423002   6.387  -0.082   3.787  0.2513  0.2119  0.2699
 4126ntf    fn423003   6.322   0.109   3.858  0.2057  0.2057  0.8584
 4126ntf    on523004   6.559   0.174   3.974  0.7371  0.3626 -0.6836
 4126ntf    on523005   6.544  -0.080   3.998  0.2113  0.3481 -0.0536
 4126ntf    on523006   6.903   0.005   3.717  0.3029  0.5026  0.2030
 4126ntf    on523007   6.866   0.172   3.895 -0.0583 -0.1471  0.0908
 4126ntf    fn423008   6.734   0.154   3.544 -0.0767  0.1727 -0.2395
 4126ntf    fn423009   6.653   0.284   3.698 -0.2447 -0.3900 -0.3721
 4126ntf    fn423010   6.848   0.300   3.648  0.0494  0.7807 -0.4058
 4127ntf    cn123011   1.909   7.144   5.885  0.1353  0.5104 -0.2016
 4127ntf    sn223012   2.086   7.179   5.908  0.2241  0.0235 -0.1380
 4127ntf    nn323013   2.123   7.184   5.756  0.0891 -0.6331 -0.1987
 4127ntf    sn223014   2.263   7.154   5.692  0.3460  0.2726 -0.0773
 4127ntf    cn123015   2.321   7.325   5.673  0.3758  0.2031 -0.6353
 4127ntf    fn423016   1.891   7.017   5.853  0.1369  0.4408  0.0760
 4127ntf    fn423017   1.840   7.161   5.996 -0.0384 -0.3665 -0.1682
 4127ntf    fn423018   1.854   7.221   5.792 -0.3792  0.3395 -0.0448
 4127ntf    on523019   2.088   7.305   5.978  0.0383 -0.1003  0.0949
 4127ntf    on523020   2.117   7.054   5.973 -0.3758 -0.3677 -0.5941
 4127ntf    on523021   2.247   7.106   5.557  0.1251  0.0554  0.0243
 4127ntf    on523022   2.365   7.091   5.772  0.1934  0.2344  0.0879
 4127ntf    fn423023   2.433   7.337   5.603  0.6462  0.0500 -0.2361
 4127ntf    fn423024   2.234   7.399   5.607 -0.4216  0.0711  0.2502
 4127ntf    fn423025   2.341   7.386   5.789 -0.2131 -0.0232 -0.4141
 4128ntf    cn123026   4.397   4.986   7.141  0.0289 -0.1477  0.2419
 4128ntf    sn223027   4.307   5.144   7.134  0.0580 -0.1442 -0.1138
 4128ntf    nn323028   4.426   5.243   7.159 -0.4668  0.6308 -0.6198
 4128ntf    sn223029   4.413   5.386   7.221 -0.5208  0.2853  0.1818
 4128ntf    cn123030   4.533   5.485   7.127 -0.3991  0.2519  0.3015
 4128ntf    fn423031   4.461   4.960   7.253  0.4311 -0.2107 -0.0019
 4128ntf    fn423032   4.315   4.884   7.125  0.2774 -0.3311  0.1315
 4128ntf    fn423033   4.488   4.983   7.045 -0.0346 -0.2418  0.1850
 4128ntf    on523034   4.242   5.144   7.006 -0.0640 -0.0950 -0.0524
 4128ntf    on523035   4.222   5.129   7.250  0.4833  0.4219  0.2740
 4128ntf    on523036   4.466   5.385   7.355 -0.7522 -0.2743  0.2722
 4128ntf    on523037   4.291   5.456   7.186 -0.8975 -0.4433  0.0264
 4128ntf    fn423038   4.646   5.419   7.111 -0.6268 -0.0619 -0.0237
 4128ntf    fn423039   4.494   5.501   7.002  0.6019  0.3485 -0.0060
 4128ntf    fn423040   4.560   5.605   7.178 -0.0958  0.0842  0.5376
 4129ntf    cn123041   1.814   0.942   1.006  0.1327 -0.0195  0.1485
 4129ntf    sn223042   1.924   1.033   0.894  0.2702 -0.5718 -0.1663
 4129ntf    nn323043   2.036   1.081   0.993 -0.0392 -0.6098  0.2025
 4129ntf    sn223044   2.192   1.065   0.982 -0.0057 -0.0588 -0.1433
 4129ntf    cn123045   2.253   1.225   1.043  0.4630 -0.2726 -0.0429
 4129ntf    fn423046   1.872   0.836   1.061  0.0739  0.0422  0.3327
 4129ntf    fn423047   1.784   1.017   1.111 -0.1873 -0.4900  0.3962
 4129ntf    fn423048   1.705   0.897   0.947  0.0752 -0.1630  0.3642
 4129ntf    on523049   1.958   0.936   0.793  0.9951 -0.4804 -0.0179
 4129ntf    on523050   1.846   1.148   0.857 -0.0021 -0.4823  0.6700
 4129ntf    on523051   2.263   1.059   0.857 -0.4988  0.2015 -0.4387
 4129ntf    on523052   2.237   0.975   1.086  0.3777  0.3964  0.0869
 4129ntf    fn423053   2.356   1.215   1.124  0.1865  0.6810  0.4337
 4129ntf    fn423054   2.284   1.306   0.942 -0.3778 -0.0817 -0.1574
 4129ntf    fn423055   2.162   1.285   1.117  0.9606 -0.2022  0.5116
 4130ntf    cn123056   2.281   5.592   0.511 -0.0860 -0.4645 -0.2022
 4130ntf    sn223057   2.425   5.564   0.405  0.0293 -0.0703 -0.1505
 4130ntf    nn323058   2.406   5.693   0.317 -0.1501 -0.1644 -0.2493
 4130ntf    sn223059   2.331   5.712   0.181 -0.4164 -0.3224 -0.1272
 4130ntf    cn123060   2.246   5.868   0.216  0.1869  0.0272 -0.2081
 4130ntf    fn423061   2.291   5.711   0.567 -0.0010 -0.6757  0.2395
 4130ntf    fn423062   2.163   5.580   0.451 -0.5290 -0.2231  0.6031
 4130ntf    fn423063   2.277   5.505   0.611  0.1231  0.0346  0.2446
 4130ntf    on523064   2.541   5.573   0.491 -0.0113 -0.0635 -0.0969
 4130ntf    on523065   2.407   5.436   0.341 -0.2386 -0.3313  0.4384
 4130ntf    on523066   2.221   5.621   0.157 -0.2914 -0.4776 -0.1181
 4130ntf    on523067   2.408   5.734   0.060  0.0775 -0.2261  0.2033
 4130ntf    fn423068   2.163   5.848   0.318 -0.3104  0.0234 -0.6117
 4130ntf    fn423069   2.323   5.970   0.253  0.7783 -0.5066  0.0463
 4130ntf    fn423070   2.166   5.918   0.124 -0.3975 -0.1533  0.1989
 4131ntf    cn123071   3.835   2.185   3.043  0.3705  0.0027 -0.3859
 4131ntf    sn223072   3.801   2.335   2.945  0.0403  0.2261  0.0659
 4131ntf    nn323073   3.924   2.426   2.982  0.2523 -0.1285  0.2485
 4131ntf    sn223074   3.929   2.553   3.075 -0.1260  0.1238 -0.0696
 4131ntf    cn123075   3.931   2.683   2.948 -0.0459  0.3387  0.1518
 4131ntf    fn423076   3.821   2.074   2.973  0.7060  0.0800 -0.5799
 4131ntf    fn423077   3.961   2.194   3.083  0.2188  0.3957  0.0123
 4131ntf    fn423078   3.766   2.173   3.155  0.4964  0.5146 -0.2530
 4131ntf    on523079   3.813   2.298   2.806  0.7046 -0.2875  0.2494
 4131ntf    on523080   3.673   2.381   2.992 -0.1248 -0.0290 -0.1291
 4131ntf    on523081   4.056   2.579   3.138 -0.5068  0.9136  0.3856
 4131ntf    on523082   3.818   2.585   3.161  0.0431  0.5645 -0.0173
 4131ntf    fn423083   4.026   2.666   2.858 -0.4523  0.1468 -0.2405
 4131ntf    fn423084   3.816   2.686   2.883 -0.1648 -0.2222  0.3264
 4131ntf    fn423085   3.953   2.799   3.008 -0.3798  0.2625  0.4262
 4132ntf    cn123086   2.777   3.581   3.371 -0.3022 -0.0378 -0.3061
 4132ntf    sn223087   2.610   3.653   3.367 -0.1399  0.3559 -0.0661
 4132ntf    nn323088   2.545   3.569   3.252  0.2969 -0.2764  0.1412
 4132ntf    sn223089   2.404   3.504   3.223  0.0424  0.2381  0.2147
 4132ntf    cn123090   2.460   3.346   3.152 -0.5753  0.2139 -0.2271
 4132ntf    fn423091   2.832   3.566   3.252 -0.3953  0.0850 -0.3649
 4132ntf    fn423092   2.863   3.657   3.436 -0.5870  0.1715 -0.1697
 4132ntf    fn423093   2.771   3.463   3.432  0.0619 -0.0903 -0.3734
 4132ntf    on523094   2.561   3.624   3.500 -0.3650 -0.1711 -0.2612
 4132ntf    on523095   2.630   3.792   3.336 -0.2192  0.4868  0.4663
 4132ntf    on523096   2.347   3.575   3.112  0.0715  0.1758  0.1601
 4132ntf    on523097   2.323   3.466   3.336  0.0486  0.2761  0.2319
 4132ntf    fn423098   2.517   3.370   3.035  0.0511  0.2501  0.0806
 4132ntf    fn423099   2.557   3.293   3.225 -0.6245  0.7519  0.2457
 4132ntf    fn423100   2.366   3.255   3.142  0.0385 -0.4632  0.0688
 4133ntf    cn123101   3.696   5.866   6.134 -0.2343  0.1289  0.3733
 4133ntf    sn223102   3.611   5.756   6.251 -0.0894 -0.3327  0.0522
 4133ntf    nn323103   3.732   5.679   6.314  0.1143 -0.1699 -0.1376
 4133ntf    sn223104   3.795   5.725   6.450 -0.2696 -0.0375 -0.0030
 4133ntf    cn123105   3.703   5.625   6.569  0.1076 -0.1069  0.2327
 4133ntf    fn423106   3.753   5.804   6.032  0.2646  0.5147  0.4126
 4133ntf    fn423107   3.611   5.952   6.081  0.0394 -0.3614 -0.9084
 4133ntf    fn423108   3.782   5.946   6.196  0.4058 -0.2052 -0.0631
 4133ntf    on523109   3.539   5.856   6.326  0.4163  0.4202 -0.4523
 4133ntf    on523110   3.527   5.672   6.170 -0.4157 -0.0729  0.1155
 4133ntf    on523111   3.771   5.862   6.487  0.1847 -0.1152  0.5952
 4133ntf    on523112   3.930   5.676   6.468 -0.0110  0.5087 -0.3930
 4133ntf    fn423113   3.704   5.684   6.687  0.1883  0.1155  0.1203
 4133ntf    fn423114   3.575   5.618   6.536  0.1808  0.4359 -0.1770
 4133ntf    fn423115   3.743   5.499   6.577  0.1642 -0.1266 -0.3405
 4134ntf    cn123116   0.577   1.949   4.279 -0.1701  0.1402 -0.1882
 4134ntf    sn223117   0.455   1.814   4.285  0.1440 -0.1272  0.3173
 4134ntf    nn323118   0.546   1.689   4.312  0.4847  0.0036 -0.2020
 4134ntf    sn223119   0.501   1.563   4.394 -0.4094  0.2479 -0.3000
 4134ntf    cn123120   0.552   1.609   4.563 -0.2021 -0.0749 -0.2719
 4134ntf    fn423121   0.674   1.925   4.192 -0.0075  0.0225  0.0204
 4134ntf    fn423122   0.520   2.063   4.245  0.2893  0.4544  0.0769
 4134ntf    fn423123   0.639   1.958   4.396 -0.2783 -0.1826 -0.1035
 4134ntf    on523124   0.372   1.863   4.392  0.8203 -0.2402  0.8975
 4134ntf    on523125   0.396   1.815   4.154 -0.1852 -0.2292  0.4654
 4134ntf    on523126   0.581   1.450   4.355 -0.0772  0.0878  0.7971
 4134ntf    on523127   0.358   1.551   4.407 -0.3536 -0.2451 -0.1066
 4134ntf    fn423128   0.684   1.606   4.570 -0.2307 -0.4694  0.1031
 4134ntf    fn423129   0.509   1.731   4.593  0.6063  0.2434 -0.3658
 4134ntf    fn423130   0.506   1.528   4.657 -0.3700  0.0964 -0.2057
 4135ntf    cn123131   3.574   3.337   3.998 -0.1080 -0.1449  0.0721
 4135ntf    sn223132   3.471   3.226   4.100  0.1943 -0.2269  0.2895
 4135ntf    nn323133   3.520   3.259   4.245 -0.2811  0.1341  0.3688
 4135ntf    sn223134   3.596   3.166   4.346  0.2590  0.0718 -0.0912
 4135ntf    cn123135   3.769   3.217   4.319  0.1507  0.3308 -0.3030
 4135ntf    fn423136   3.566   3.316   3.868  0.1298 -0.1241  0.0541
 4135ntf    fn423137   3.556   3.467   4.017  0.1234 -0.0898 -0.0976
 4135ntf    fn423138   3.702   3.314   4.023 -0.0462  0.0172 -0.0997
 4135ntf    on523139   3.342   3.277   4.061  0.4560 -0.0616 -0.3863
 4135ntf    on523140   3.507   3.096   4.048  0.1360 -0.1623  0.0849
 4135ntf    on523141   3.588   3.025   4.319  0.7129  0.0649 -0.2009
 4135ntf    on523142   3.574   3.209   4.482  0.2295  0.4277 -0.2059
 4135ntf    fn423143   3.822   3.149   4.220  0.2098  0.6205 -0.4700
 4135ntf    fn423144   3.790   3.347   4.302  0.0485  0.3293 -0.4389
 4135ntf    fn423145   3.850   3.188   4.420 -0.4683 -0.6995 -0.0872
 4136ntf    cn123146   3.359   6.433   6.581 -0.1330  0.0995 -0.4395
 4136ntf    sn223147   3.209   6.429   6.478 -0.1493 -0.4343 -0.3977
 4136ntf    nn323148   3.215   6.573   6.415 -0.1690 -0.0910  0.3724
 4136ntf    sn223149   3.187   6.719   6.464  0.1066  0.0473  0.1218
 4136ntf    cn123150   3.065   6.772   6.340  0.5261 -0.1063 -0.3605
 4136ntf    fn423151   3.452   6.345   6.550 -0.2919 -0.1711 -0.1641
 4136ntf    fn423152   3.418   6.551   6.577  0.1909 -0.0645 -0.4788
 4136ntf    fn423153   3.327   6.399   6.705 -0.0949 -0.0267 -0.4638
 4136ntf    on523154   3.258   6.338   6.378  0.4844  0.1060 -0.5825
 4136ntf    on523155   3.094   6.389   6.556  0.0386  0.5509  0.4051
 4136ntf    on523156   3.300   6.802   6.431  0.4286 -0.5823 -0.3875
 4136ntf    on523157   3.123   6.722   6.594 -0.7860 -0.8797 -0.2794
 4136ntf    fn423158   3.001   6.879   6.384  0.0152 -0.6773  0.3109
 4136ntf    fn423159   3.115   6.802   6.221  0.3810  0.8017 -0.2040
 4136ntf    fn423160   2.975   6.678   6.318 -0.1313  0.1919  0.9224
 4137ntf    cn123161   2.380   1.358   1.913  0.0633  0.1251 -0.2995
 4137ntf    sn223162   2.346   1.447   2.067 -0.0016 -0.1240 -0.1690
 4137ntf    nn323163   2.205   1.393   2.111 -0.1097  0.5968  0.4027
 4137ntf    sn223164   2.066   1.464   2.126 -0.3165  0.2548  0.1238
 4137ntf    cn123165   2.082   1.499   2.304 -0.4230  0.4765  0.0906
 4137ntf    fn423166   2.320   1.414   1.809  0.4670  0.6000 -0.2809
 4137ntf    fn423167   2.509   1.354   1.882  0.0659 -0.4333 -0.2388
 4137ntf    fn423168   2.350   1.229   1.913  0.7497 -0.0422  0.0148
 4137ntf    on523169   2.459   1.403   2.145 -0.3993  0.0739  0.5327
 4137ntf    on523170   2.354   1.583   2.020 -0.0323 -0.1105 -0.1351
 4137ntf    on523171   1.952   1.377   2.112 -0.4968  0.4507  0.3738
 4137ntf    on523172   2.061   1.592   2.061  0.1293  0.1077 -0.2069
 4137ntf    fn423173   1.983   1.580   2.337  0.0716  0.8461  0.6942
 4137ntf    fn423174   2.078   1.400   2.392  1.2452  0.0500 -0.2863
 4137ntf    fn423175   2.193   1.563   2.336 -0.0271 -0.2744  0.2609
 4138ntf    cn123176   3.021   6.216   4.913 -0.1856 -0.0213  0.1627
 4138ntf    sn223177   2.921   6.155   5.051 -0.0000 -0.0294  0.2936
 4138ntf    nn323178   2.904   6.004   5.011  0.1267  0.0266  0.0280
 4138ntf    sn223179   2.992   5.884   5.063 -0.2698 -0.2020  0.1779
 4138ntf    cn123180   2.899   5.852   5.215 -0.0541 -0.3287  0.2853
 4138ntf    fn423181   2.981   6.168   4.796 -0.1811 -0.6760  0.4271
 4138ntf    fn423182   3.010   6.347   4.897  0.1688 -0.0245 -0.1171
 4138ntf    fn423183   3.152   6.200   4.921 -0.1096  0.5046  0.0015
 4138ntf    on523184   3.003   6.185   5.166  0.6015  0.4520 -0.2617
 4138ntf    on523185   2.796   6.226   5.047 -0.3322 -0.6097  0.1493
 4138ntf    on523186   3.120   5.907   5.125 -0.1764  0.0403 -0.1019
 4138ntf    on523187   2.977   5.761   4.988  0.2679 -0.2319  0.1138
 4138ntf    fn423188   2.892   5.960   5.292  0.1035 -0.1537  0.0563
 4138ntf    fn423189   2.773   5.814   5.198 -0.0763 -0.0933 -0.0782
 4138ntf    fn423190   2.956   5.759   5.289 -0.6064 -0.7111  0.2366
 4139ntf    cn123191   1.914   4.774   4.215  0.1340 -0.2700 -0.3047
 4139ntf    sn223192   1.964   4.604   4.176  0.1907 -0.3202 -0.0181
 4139ntf    nn323193   1.923   4.592   4.025  0.0349 -0.3211  0.0235
 4139ntf    sn223194   1.788   4.548   3.958 -0.2203 -0.2071  0.4630
 4139ntf    cn123195   1.821   4.371   3.932 -0.4890 -0.1546 -0.2319
 4139ntf    fn423196   1.980   4.871   4.154 -0.0308  0.4873  0.6908
 4139ntf    fn423197   1.786   4.800   4.196  0.1047 -0.0229  0.2112
 4139ntf    fn423198   1.939   4.807   4.341  0.8525 -0.6991 -0.3312
 4139ntf    on523199   2.107   4.591   4.183  0.2546  0.3635 -0.0189
 4139ntf    on523200   1.888   4.522   4.268 -0.3892  0.1767 -0.0489
 4139ntf    on523201   1.770   4.613   3.831 -1.0535 -0.2036  0.5791
 4139ntf    on523202   1.672   4.552   4.044 -0.5055  0.6157  0.0467
 4139ntf    fn423203   1.882   4.321   4.038 -0.3737  0.3366 -0.0678
 4139ntf    fn423204   1.718   4.290   3.911 -0.2616 -0.5080 -0.0033
 4139ntf    fn423205   1.906   4.353   3.831  0.1407 -0.6238  0.3738
 4140ntf    cn123206   4.112   5.436   3.407  0.4229  0.2739 -0.5280
 4140ntf    sn223207   4.215   5.578   3.455  0.1561  0.4324 -0.4300
 4140ntf    nn323208   4.130   5.603   3.585  0.4831 -0.6060 -0.0036
 4140ntf    sn223209   4.156   5.548   3.730  0.1052  0.1656  0.3643
 4140ntf    cn123210   4.085   5.694   3.813  0.0853  0.3268  0.0658
 4140ntf    fn423211   4.172   5.370   3.309 -0.1087  0.0831 -0.7281
 4140ntf    fn423212   4.096   5.340   3.497  0.5809  0.3815 -0.3826
 4140ntf    fn423213   3.991   5.471   3.369  0.0399 -0.2088  0.2162
 4140ntf    on523214   4.342   5.517   3.482 -0.0150  0.1531 -0.2446
 4140ntf    on523215   4.199   5.675   3.349  0.4021  0.2373 -0.6457
 4140ntf    on523216   4.294   5.541   3.771  0.4301 -0.0237 -0.7078
 4140ntf    on523217   4.071   5.437   3.765  0.6563 -0.3676  0.0348
 4140ntf    fn423218   4.147   5.805   3.777  0.3974  0.2672  0.4129
 4140ntf    fn423219   3.959   5.702   3.775  0.1025 -0.0567 -0.0833
 4140ntf    fn423220   4.094   5.677   3.944  0.2160  0.3627  0.0623
 4141ntf    cn123221   0.565   4.518   2.020  0.1754 -0.6422  0.2107
 4141ntf    sn223222   0.425   4.568   1.914  0.4930 -0.0767  0.0524
 4141ntf    nn323223   0.308   4.485   1.977  0.1488  0.3251 -0.0538
 4141ntf    sn223224   0.248   4.342   1.949 -0.2871  0.4084  0.4393
 4141ntf    cn123225   0.122   4.380   1.824  0.2271  0.0066 -0.2013
 4141ntf    fn423226   0.671   4.593   1.994  0.0843 -0.6620 -0.2295
 4141ntf    fn423227   0.543   4.545   2.148  0.4374  0.3953  0.0476
 4141ntf    fn423228   0.601   4.393   1.996 -0.2324 -0.6283 -0.5422
 4141ntf    on523229   0.408   4.708   1.943 -0.0298 -0.1016 -0.1235
 4141ntf    on523230   0.462   4.537   1.777 -0.1183 -0.3264 -0.0578
 4141ntf    on523231   0.170   4.289   2.058 -0.1231  0.4789  0.5926
 4141ntf    on523232   0.338   4.246   1.889 -0.4659  0.3876  0.2053
 4141ntf    fn423233   0.070   4.266   1.782 -0.0760 -0.1247  0.5203
 4141ntf    fn423234   0.021   4.448   1.875  0.8361  0.5954  0.2391
 4141ntf    fn423235   0.166   4.444   1.716  0.5684 -0.0508 -0.0993
 4142ntf    cn123236   0.441   6.291   4.116 -0.2521  0.3045 -0.3243
 4142ntf    sn223237   0.318   6.404   4.187 -0.2848 -0.0505  0.1838
 4142ntf    nn323238   0.381   6.426   4.329  0.6676  0.1155 -0.2600
 4142ntf    sn223239   0.385   6.336   4.458  0.1966  0.1150 -0.2434
 4142ntf    cn123240   0.490   6.431   4.572 -0.2931 -0.1582  0.4345
 4142ntf    fn423241   0.564   6.337   4.134 -0.3146  0.1690  0.4699
 4142ntf    fn423242   0.438   6.173   4.176 -0.1525  0.2642 -0.3975
 4142ntf    fn423243   0.419   6.274   3.986  0.1977 -0.2579 -0.3319
 4142ntf    on523244   0.324   6.527   4.114 -0.5639  0.1170  0.4381
 4142ntf    on523245   0.199   6.323   4.191 -0.0087 -0.4546  0.3025
 4142ntf    on523246   0.465   6.216   4.447 -0.0347 -0.0599 -0.0266
 4142ntf    on523247   0.256   6.331   4.520  0.4614 -0.1412  0.2900
 4142ntf    fn423248   0.612   6.440   4.524 -0.3908 -0.2152  0.1745
 4142ntf    fn423249   0.438   6.552   4.583 -0.4928 -0.2210  0.1947
 4142ntf    fn423250   0.503   6.377   4.692  0.0617  0.0844  0.5066
 4143ntf    cn123251   1.449   2.416   3.617 -0.0052 -0.3192  0.0076
 4143ntf    sn223252   1.298   2.475   3.534  0.0800  0.1315  0.1748
 4143ntf    nn323253   1.354   2.511   3.392  0.1671  0.1041  0.2019
 4143ntf    sn223254   1.396   2.418   3.272  0.0737 -0.3596  0.5286
 4143ntf    cn123255   1.251   2.427   3.163  0.1334  0.0420  0.4802
 4143ntf    fn423256   1.497   2.311   3.551 -0.0091  0.0108 -0.5296
 4143ntf    fn423257   1.547   2.504   3.618  0.2309 -0.5620 -0.8183
 4143ntf    fn423258   1.427   2.372   3.740 -0.2615  0.0066  0.0807
 4143ntf    on523259   1.207   2.364   3.548  0.3325 -0.0470  0.4105
 4143ntf    on523260   1.268   2.595   3.609 -0.4211  0.0832  0.0570
 4143ntf    on523261   1.406   2.279   3.308 -0.2792 -0.4217  0.3928
 4143ntf    on523262   1.500   2.486   3.200 -0.4948  0.0114  0.0551
 4143ntf    fn423263   1.250   2.545   3.103  0.0918 -0.0804  0.2375
 4143ntf    fn423264   1.276   2.343   3.063  0.2740  0.5052  0.1212
 4143ntf    fn423265   1.133   2.400   3.216  0.1863 -0.1218  0.5168
 4144ntf    cn123266   1.758   4.209   3.033 -0.0777  0.7914  0.1117
 4144ntf    sn223267   1.628   4.211   2.906 -0.5078 -0.0552  0.5250
 4144ntf    nn323268   1.687   4.323   2.813 -0.7628 -0.1813  0.2095
 4144ntf    sn223269   1.653   4.476   2.807  0.1799  0.0297 -0.0517
 4144ntf    cn123270   1.813   4.555   2.774  0.1496  0.0106 -0.2452
 4144ntf    fn423271   1.826   4.320   3.055  0.2481  0.5771  0.2078
 4144ntf    fn423272   1.712   4.167   3.150  0.4520  0.2366  0.1278
 4144ntf    fn423273   1.852   4.119   3.008 -0.5069  0.2209  0.4894
 4144ntf    on523274   1.637   4.081   2.843 -0.4326 -0.1104  0.6504
 4144ntf    on523275   1.510   4.243   2.981 -0.5771  0.1211  0.3432
 4144ntf    on523276   1.617   4.528   2.937  0.0644 -0.2682  0.0367
 4144ntf    on523277   1.577   4.510   2.689 -0.5774 -0.8706  0.1626
 4144ntf    fn423278   1.913   4.498   2.840 -0.2133 -0.0568  0.2515
 4144ntf    fn423279   1.844   4.538   2.647 -0.2906 -0.2670 -0.3198
 4144ntf    fn423280   1.810   4.687   2.784 -0.2363 -0.0171  0.0397
 4145ntf    cn123281   0.106   5.900   1.744  0.3228  0.3588 -0.0639
 4145ntf    sn223282   0.170   5.735   1.785 -0.1666  0.0710 -0.4388
 4145ntf    nn323283   0.269   5.710   1.666 -0.3370 -0.2437 -0.5160
 4145ntf    sn223284   0.242   5.633   1.532  0.2440 -0.7025 -0.3715
 4145ntf    cn123285   0.408   5.662   1.462  0.3222 -0.0755  0.0706
 4145ntf    fn423286   0.030   5.888   1.636  0.0008  0.0556  0.1951
 4145ntf    fn423287   0.026   5.953   1.836  0.0824 -0.2685  0.0971
 4145ntf    fn423288   0.198   5.989   1.713  0.1763  0.6135  0.2208
 4145ntf    on523289   0.250   5.752   1.904 -0.3955  0.3098 -0.3193
 4145ntf    on523290   0.053   5.652   1.795 -0.0946  0.0069 -0.1185
 4145ntf    on523291   0.162   5.695   1.429  0.2904  0.2608  0.1673
 4145ntf    on523292   0.239   5.489   1.541 -0.2787 -0.7004 -0.4807
 4145ntf    fn423293   0.506   5.653   1.550 -0.3647  0.4209  0.9109
 4145ntf    fn423294   0.435   5.578   1.363  0.0945  0.1689 -0.2026
 4145ntf    fn423295   0.420   5.779   1.401 -0.6949 -0.0025 -0.0116
 4146ntf    cn123296   6.344   4.721   5.802  0.4075  0.0084  0.0968
 4146ntf    sn223297   6.480   4.715   5.923  0.2239 -0.1272  0.2991
 4146ntf    nn323298   6.436   4.608   6.029 -0.0355 -0.2806  0.0392
 4146ntf    sn223299   6.349   4.625   6.158  0.3441  0.5985  0.1863
 4146ntf    cn123300   6.474   4.631   6.291  0.2239  0.1651  0.3190
 4146ntf    fn423301   6.229   4.742   5.864  0.6751  0.5060  0.4289
 4146ntf    fn423302   6.356   4.820   5.715 -0.9257  0.0548 -0.0563
 4146ntf    fn423303   6.316   4.607   5.740 -0.0311  0.1215  0.0832
 4146ntf    on523304   6.590   4.663   5.846  0.0833 -0.3121  0.2217
 4146ntf    on523305   6.488   4.849   5.975 -0.3444 -0.2410  0.6941
 4146ntf    on523306   6.275   4.504   6.185  0.2685  0.4568 -0.6409
 4146ntf    on523307   6.276   4.747   6.184  0.0460  0.4486  0.0494
 4146ntf    fn423308   6.565   4.537   6.272  0.1108  0.1611 -0.2308
 4146ntf    fn423309   6.549   4.739   6.298 -0.3807  0.6377 -0.3132
 4146ntf    fn423310   6.425   4.616   6.413  0.3559  0.1107  0.3652
 4147ntf    cn123311   0.916   4.881   2.130 -0.1267  0.3210 -0.1231
 4147ntf    sn223312   1.041   4.951   2.018  0.0671  0.3976  0.1397
 4147ntf    nn323313   0.953   5.053   1.938 -0.0580  0.1177 -0.0833
 4147ntf    sn223314   0.918   5.204   1.965 -0.1734  0.0682  0.0495
 4147ntf    cn123315   0.989   5.270   1.811  0.0148  0.1451  0.1688
 4147ntf    fn423316   0.882   4.964   2.227 -0.4144  0.5197 -0.3913
 4147ntf    fn423317   0.800   4.852   2.074 -0.3342 -0.2027  0.5786
 4147ntf    fn423318   0.961   4.771   2.187 -0.3759  0.0042 -0.5313
 4147ntf    on523319   1.147   4.998   2.103  0.2560  0.0759  0.0878
 4147ntf    on523320   1.064   4.835   1.935  0.0434  0.1745  0.4445
 4147ntf    on523321   0.976   5.276   2.076  0.1448 -0.2668  0.1028
 4147ntf    on523322   0.776   5.221   1.950 -0.0920  0.0662 -0.7683
 4147ntf    fn423323   0.900   5.257   1.714  0.0453 -0.0769  0.1721
 4147ntf    fn423324   1.018   5.400   1.808  0.4662  0.0347 -0.4623
 4147ntf    fn423325   1.095   5.206   1.765  0.2008  0.2880  0.3914
 4148ntf    cn123326   5.561   3.380   1.277  0.0122  0.2144 -0.1352
 4148ntf    sn223327   5.408   3.302   1.218  0.1894 -0.1361 -0.1274
 4148ntf    nn323328   5.415   3.150   1.258  1.1609  0.0814  0.5415
 4148ntf    sn223329   5.449   3.022   1.174 -0.0380  0.0106  0.1440
 4148ntf    cn123330   5.559   2.923   1.280  0.1594  0.1258  0.0484
 4148ntf    fn423331   5.567   3.386   1.409  0.2791 -0.2977 -0.1253
 4148ntf    fn423332   5.657   3.307   1.224 -0.4548 -0.1339 -0.5163
 4148ntf    fn423333   5.580   3.505   1.235  0.0336  0.2894  0.0992
 4148ntf    on523334   5.308   3.369   1.297 -0.1318 -0.2149 -0.4619
 4148ntf    on523335   5.399   3.328   1.076  0.0105  0.2603 -0.0436
 4148ntf    on523336   5.527   3.038   1.053 -0.2537  0.0279  0.0069
 4148ntf    on523337   5.325   2.951   1.158 -0.2599  0.2025  0.9604
 4148ntf    fn423338   5.504   2.873   1.389 -0.0339 -0.3525 -0.2684
 4148ntf    fn423339   5.618   2.825   1.214  0.0114  0.3473 -0.4131
 4148ntf    fn423340   5.661   2.994   1.327  0.1563 -0.0138  0.2666
 4149ntf    cn123341   2.781   6.267   2.551  0.2417  0.2295 -0.4548
 4149ntf    sn223342   2.849   6.141   2.663 -0.3007  0.1496 -0.2118
 4149ntf    nn323343   3.001   6.182   2.664 -0.2596 -0.0044 -0.1233
 4149ntf    sn223344   3.125   6.120   2.591 -0.1984 -0.0524  0.0226
 4149ntf    cn123345   3.156   5.986   2.711 -0.1172  0.2192  0.3055
 4149ntf    fn423346   2.807   6.390   2.591  0.2439  0.3172 -0.7254
 4149ntf    fn423347   2.838   6.259   2.432  0.7303  0.2419 -0.2249
 4149ntf    fn423348   2.650   6.270   2.534  0.1029  0.3461  0.5446
 4149ntf    on523349   2.784   6.165   2.790 -0.1724 -0.6077  0.0044
 4149ntf    on523350   2.812   6.017   2.598 -0.3819  0.1763 -0.2165
 4149ntf    on523351   3.239   6.206   2.612 -0.2343 -0.1145  0.4951
 4149ntf    on523352   3.100   6.052   2.466 -0.0962  0.2376 -0.1555
 4149ntf    fn423353   3.050   5.907   2.714 -0.3274  0.5037  0.4049
 4149ntf    fn423354   3.267   5.917   2.690 -0.6010 -0.4476 -0.0915
 4149ntf    fn423355   3.174   6.027   2.836 -0.4632  0.1834  0.3688
 4150ntf    cn123356   2.688   5.104   4.905 -0.1866 -0.1816  0.0628
 4150ntf    sn223357   2.823   5.104   4.782 -0.1338  0.1832  0.1190
 4150ntf    nn323358   2.921   5.011   4.861 -0.1255 -0.0683 -0.1867
 4150ntf    sn223359   3.071   5.025   4.905 -0.2074 -0.0315  0.0829
 4150ntf    cn123360   3.151   4.895   4.806 -0.0371  0.1677 -0.0426
 4150ntf    fn423361   2.726   5.135   5.028  0.0201  0.2788 -0.1116
 4150ntf    fn423362   2.583   5.176   4.871 -0.1587 -0.0418  0.2685
 4150ntf    fn423363   2.642   4.980   4.912 -0.5948 -0.0003  0.6849
 4150ntf    on523364   2.765   5.032   4.672 -0.2261  0.1059  0.2180
 4150ntf    on523365   2.871   5.239   4.767  0.2339  0.0430  0.0281
 4150ntf    on523366   3.083   4.974   5.040 -0.8239  0.6285  0.3924
 4150ntf    on523367   3.134   5.148   4.865  0.4165 -0.1679  0.6200
 4150ntf    fn423368   3.172   4.926   4.679 -0.1086  0.0549 -0.0813
 4150ntf    fn423369   3.274   4.865   4.845 -0.1370 -0.0285  0.1233
 4150ntf    fn423370   3.086   4.780   4.815  0.4664 -0.1061  0.1106
 4151ntf    cn123371   6.244   6.582   4.965 -0.0801 -0.0207  0.0155
 4151ntf    sn223372   6.288   6.697   5.098 -0.2612  0.3712 -0.2615
 4151ntf    nn323373   6.312   6.828   5.015  0.2682  0.4416 -0.0078
 4151ntf    sn223374   6.333   6.977   5.058 -0.0243  0.5392 -0.1979
 4151ntf    cn123375   6.165   7.041   5.030 -0.2112  0.2977  0.3668
 4151ntf    fn423376   6.349   6.557   4.888 -0.5924 -0.1014 -0.6629
 4151ntf    fn423377   6.193   6.468   5.007 -0.1066  0.0096  0.0652
 4151ntf    fn423378   6.153   6.627   4.880  0.0893 -0.5955 -0.4772
 4151ntf    on523379   6.166   6.717   5.173 -0.2852 -0.4493 -0.0775
 4151ntf    on523380   6.412   6.650   5.156 -0.2680 -0.4008 -0.8556
 4151ntf    on523381   6.422   7.055   4.975  0.3309  0.4680  0.1140
 4151ntf    on523382   6.347   6.992   5.201  0.3691 -0.5469 -0.1120
 4151ntf    fn423383   6.108   7.001   4.918  0.8302 -0.3777  0.0535
 4151ntf    fn423384   6.082   7.004   5.126 -0.0748 -1.0996 -0.0395
 4151ntf    fn423385   6.162   7.173   5.038 -0.0401  0.2929  0.5110
 4152ntf    cn123386   5.146   0.844   4.262 -0.0859 -0.3415 -0.0409
 4152ntf    sn223387   4.971   0.889   4.245 -0.0641 -0.2418 -0.0092
 4152ntf    nn323388   4.949   0.899   4.089  0.8044  0.0450 -0.1163
 4152ntf    sn223389   4.885   1.010   3.998  0.0304 -0.0546  0.3010
 4152ntf    cn123390   5.030   1.118   3.989 -0.1001  0.0895 -0.0876
 4152ntf    fn423391   5.218   0.953   4.243  0.0365 -0.3994  0.0870
 4152ntf    fn423392   5.179   0.804   4.384 -0.8823 -0.3071  0.1900
 4152ntf    fn423393   5.194   0.760   4.173  0.0241 -0.9239  0.5583
 4152ntf    on523394   4.888   0.782   4.296  0.4940 -0.9769 -0.6196
 4152ntf    on523395   4.969   1.013   4.318 -0.2689 -0.2107 -0.0659
 4152ntf    on523396   4.773   1.088   4.046 -0.1467 -0.0641 -0.0914
 4152ntf    on523397   4.875   0.962   3.863 -0.0052 -0.4059  0.4265
 4152ntf    fn423398   5.137   1.046   4.019 -0.2426 -0.3133 -0.5446
 4152ntf    fn423399   5.044   1.172   3.869  0.1873 -0.0147 -0.1021
 4152ntf    fn423400   5.027   1.217   4.077 -0.0660  0.2429 -0.2586
 4153ntf    cn123401   5.139   0.793   2.610  0.2869  0.1248  0.1066
 4153ntf    sn223402   5.094   0.936   2.714  0.0766  0.0795  0.0782
 4153ntf    nn323403   5.224   1.022   2.691  0.1924 -0.2442 -0.4907
 4153ntf    sn223404   5.237   1.178   2.680 -0.1699 -0.1601  0.1966
 4153ntf    cn123405   5.277   1.181   2.502 -0.4830 -0.3378  0.1230
 4153ntf    fn423406   5.139   0.811   2.479  0.1096 -0.5483  0.0133
 4153ntf    fn423407   5.260   0.752   2.644  0.3985  0.3280 -0.0455
 4153ntf    fn423408   5.059   0.691   2.635  0.0757  0.3246  0.2557
 4153ntf    on523409   4.973   0.976   2.647  0.2184  0.6399  0.1533
 4153ntf    on523410   5.081   0.876   2.844 -0.3037 -0.4996 -0.2241
 4153ntf    on523411   5.351   1.234   2.748 -0.4948  0.2633  0.3900
 4153ntf    on523412   5.113   1.252   2.681  0.0031  0.1590 -0.6210
 4153ntf    fn423413   5.404   1.154   2.477 -0.4695 -0.0625 -0.1151
 4153ntf    fn423414   5.212   1.086   2.438 -0.4169 -0.0414 -0.3853
 4153ntf    fn423415   5.246   1.296   2.444  0.1350 -0.1612  0.1402
 4154ntf    cn123416   6.583   1.869   1.987  0.2177  0.3415  0.0877
 4154ntf    sn223417   6.451   1.941   1.885 -0.0400  0.1732  0.3010
 4154ntf    nn323418   6.329   1.880   1.962 -0.0206 -0.0181  0.1802
 4154ntf    sn223419   6.182   1.851   1.914 -0.1108  0.2811  0.2729
 4154ntf    cn123420   6.098   1.961   2.032 -0.5585 -0.0032  0.2182
 4154ntf    fn423421   6.621   1.929   2.098  0.2878  0.5950 -0.0725
 4154ntf    fn423422   6.543   1.753   2.038  0.1190  0.1108 -0.5031
 4154ntf    fn423423   6.696   1.849   1.920 -0.1754  0.8548 -0.7454
 4154ntf    on523424   6.461   2.084   1.902  0.2649  0.2705 -0.6285
 4154ntf    on523425   6.482   1.883   1.757  0.5167 -0.6988  0.8206
 4154ntf    on523426   6.136   1.718   1.942 -0.6822  0.3934 -0.1209
 4154ntf    on523427   6.150   1.911   1.786 -0.4041 -0.1588  0.1381
 4154ntf    fn423428   6.117   1.919   2.156 -0.3448 -0.1237  0.1445
 4154ntf    fn423429   6.138   2.087   2.028  0.1164 -0.1954  0.7608
 4154ntf    fn423430   5.966   1.959   2.018 -0.5219 -0.8884 -0.0909
 4155ntf    cn123431   6.960   2.866   2.553 -0.0076 -0.0488  0.0813
 4155ntf    sn223432   6.913   2.801   2.390 -0.2641 -0.3569  0.2781
 4155ntf    nn323433   7.026   2.698   2.354  0.2830  0.3293  0.0002
 4155ntf    sn223434   7.145   2.725   2.256  0.0591  0.0808 -0.3430
 4155ntf    cn123435   7.238   2.569   2.265 -0.1308 -0.0143 -0.0324
 4155ntf    fn423436   6.866   2.949   2.596 -0.6994 -0.3473 -0.8370
 4155ntf    fn423437   6.981   2.780   2.651 -0.0068 -0.0242  0.1030
 4155ntf    fn423438   7.074   2.930   2.533 -0.0122 -0.1964 -0.4332
 4155ntf    on523439   6.791   2.731   2.421  0.1513 -0.9250  0.6639
 4155ntf    on523440   6.900   2.918   2.307 -0.0027 -0.4536  0.0981
 4155ntf    on523441   7.251   2.816   2.291  0.0660 -0.0801  0.0502
 4155ntf    on523442   7.109   2.730   2.116  0.2606  0.0602 -0.3960
 4155ntf    fn423443   7.354   2.577   2.202 -0.3434  0.3169 -0.3862
 4155ntf    fn423444   7.260   2.527   2.388  0.1321 -0.3512 -0.1950
 4155ntf    fn423445   7.167   2.473   2.208 -0.1195  0.2920 -0.5656
 4156ntf    cn123446   5.447   5.940   5.084  0.3507 -0.6111 -0.3277
 4156ntf    sn223447   5.318   5.815   5.056 -0.0846 -0.1917 -0.2196
 4156ntf    nn323448   5.253   5.798   5.198  0.0546 -0.6119 -0.2038
 4156ntf    sn223449   5.099   5.789   5.227  0.1219 -0.3377  0.2432
 4156ntf    cn123450   5.069   5.954   5.297 -0.0146 -0.3992  0.3312
 4156ntf    fn423451   5.504   5.990   4.975 -0.2240 -0.2472 -0.4711
 4156ntf    fn423452   5.391   6.045   5.142 -0.1652 -0.9589 -0.1908
 4156ntf    fn423453   5.545   5.907   5.165 -0.0795  0.1129  0.5069
 4156ntf    on523454   5.231   5.867   4.953  0.2587  0.0131 -0.4102
 4156ntf    on523455   5.389   5.698   5.010 -0.0206 -0.0372 -0.5122
 4156ntf    on523456   5.065   5.709   5.343 -0.1843  0.2454  0.5647
 4156ntf    on523457   5.017   5.774   5.109 -0.1514 -0.9005  0.4992
 4156ntf    fn423458   5.116   6.054   5.224  0.1606 -0.4690  0.3461
 4156ntf    fn423459   4.940   5.981   5.298  0.2035  0.7242 -0.1252
 4156ntf    fn423460   5.110   5.971   5.421  0.2718 -0.2419  0.2172
 4157ntf    cn123461   0.280   5.229   3.261 -0.0379  0.3243  0.5059
 4157ntf    sn223462   0.154   5.352   3.216  0.1128  0.3514  0.1516
 4157ntf    nn323463   0.041   5.331   3.323 -0.2771 -0.4218 -0.4082
 4157ntf    sn223464  -0.114   5.353   3.304 -0.2233  0.2493 -0.0768
 4157ntf    cn123465  -0.169   5.413   3.467 -0.2121 -0.2858  0.1233
 4157ntf    fn423466   0.386   5.232   3.182 -0.3903  0.4687  0.0345
 4157ntf    fn423467   0.326   5.252   3.383  0.7501  0.1773  0.2472
 4157ntf    fn423468   0.250   5.101   3.261  0.1119  0.2883  0.5903
 4157ntf    on523469   0.213   5.476   3.261  0.0969  0.4201 -0.0140
 4157ntf    on523470   0.125   5.334   3.076 -0.5489 -0.0323  0.3338
 4157ntf    on523471  -0.189   5.231   3.299  0.1658  0.0167 -0.3179
 4157ntf    on523472  -0.148   5.452   3.205 -0.0597 -0.1830 -0.5657
 4157ntf    fn423473  -0.094   5.515   3.505 -0.3506 -0.4559  0.8700
 4157ntf    fn423474  -0.294   5.453   3.470 -0.1214 -0.0357  0.6255
 4157ntf    fn423475  -0.143   5.329   3.566  0.7577 -0.1498 -0.0013
 4158ntf    cn123476   1.323   4.513   1.231 -0.5307  0.1030 -0.2072
 4158ntf    sn223477   1.288   4.414   1.083 -0.0431 -0.1791 -0.1389
 4158ntf    nn323478   1.294   4.268   1.140  0.3040 -0.1776 -0.1735
 4158ntf    sn223479   1.205   4.144   1.103  0.1346  0.0038 -0.3776
 4158ntf    cn123480   1.049   4.186   1.185  0.2043 -0.0782 -0.2025
 4158ntf    fn423481   1.438   4.472   1.283 -0.6245  0.1491  0.0368
 4158ntf    fn423482   1.336   4.642   1.204 -0.2572  0.0822 -0.1753
 4158ntf    fn423483   1.229   4.498   1.323 -0.3034  0.3874  0.0742
 4158ntf    on523484   1.155   4.458   1.046 -0.2208 -0.1949  0.4665
 4158ntf    on523485   1.395   4.442   0.991  0.3083 -0.0083  0.3244
 4158ntf    on523486   1.248   4.026   1.174 -0.4213  0.1301  0.1764
 4158ntf    on523487   1.162   4.128   0.967  0.0752 -0.0046 -0.3575
 4158ntf    fn423488   1.071   4.224   1.310  0.5300 -0.5131 -0.1269
 4158ntf    fn423489   0.978   4.284   1.131  0.1579 -0.1091 -0.1978
 4158ntf    fn423490   0.971   4.080   1.191 -0.0722  0.1160 -0.3209
 4159ntf    cn123491   6.211   1.957   3.145  0.1061  0.1808  0.1399
 4159ntf    sn223492   6.050   1.970   3.060  0.2083  0.2018 -0.0510
 4159ntf    nn323493   5.991   2.097   3.132  0.6409  0.3346  0.0741
 4159ntf    sn223494   5.960   2.245   3.088  0.0943  0.0750 -0.4346
 4159ntf    cn123495   5.809   2.200   2.998 -0.1073 -0.1297  0.0034
 4159ntf    fn423496   6.284   1.863   3.087 -0.0233  0.0872  0.1264
 4159ntf    fn423497   6.280   2.070   3.147  0.0084  0.2414  0.1271
 4159ntf    fn423498   6.195   1.926   3.272 -0.2537 -0.1802  0.0115
 4159ntf    on523499   6.088   1.998   2.924  0.2846  0.2058 -0.0288
 4159ntf    on523500   5.977   1.851   3.095  0.6681 -0.0902 -0.0702
 4159ntf    on523501   6.046   2.303   2.988 -0.5436  1.2811 -0.2979
 4159ntf    on523502   5.912   2.330   3.194 -0.3981  0.4234 -0.9301
 4159ntf    fn423503   5.777   2.287   2.904  0.1703  0.0253  0.0518
 4159ntf    fn423504   5.813   2.084   2.934  0.0202 -0.0613 -0.1131
 4159ntf    fn423505   5.705   2.189   3.080 -0.7412 -0.2330 -0.7979
 4160ntf    cn123506   3.214   1.766   6.344  0.2515 -0.4189  0.2943
 4160ntf    sn223507   3.348   1.676   6.260  0.2331  0.1626 -0.3682
 4160ntf    nn323508   3.273   1.571   6.171  0.1254  0.2635 -0.3967
 4160ntf    sn223509   3.265   1.416   6.196  0.0530  0.2590 -0.4448
 4160ntf    cn123510   3.171   1.364   6.050 -0.2504  0.3031 -0.2654
 4160ntf    fn423511   3.139   1.834   6.258  0.4950 -0.4775  0.0332
 4160ntf    fn423512   3.130   1.679   6.395 -0.5099 -0.3401 -0.7833
 4160ntf    fn423513   3.237   1.845   6.447 -0.5218 -0.0206  0.1686
 4160ntf    on523514   3.415   1.774   6.177  0.6364 -0.0239 -0.2656
 4160ntf    on523515   3.428   1.627   6.370  0.1621 -0.1849 -0.4700
 4160ntf    on523516   3.175   1.384   6.304 -0.0286  0.7823 -0.3516
 4160ntf    on523517   3.389   1.343   6.199 -0.1881 -0.1474 -0.1785
 4160ntf    fn423518   3.253   1.313   5.960 -0.4043 -0.2356 -0.1080
 4160ntf    fn423519   3.086   1.266   6.079  0.2396 -0.0101  0.1357
 4160ntf    fn423520   3.107   1.464   5.992  0.2229  0.6238 -0.2412
 4161ntf    cn123521   0.531   6.053   3.272 -0.2742  0.1305  0.2216
 4161ntf    sn223522   0.434   6.026   3.121  0.0813  0.1344 -0.0112
 4161ntf    nn323523   0.504   5.893   3.078 -0.1059  0.0008  0.0956
 4161ntf    sn223524   0.607   5.862   2.964 -0.0084 -0.2847  0.2591
 4161ntf    cn123525   0.492   5.841   2.825 -0.5701  0.6255  0.5790
 4161ntf    fn423526   0.564   5.940   3.334  0.2908  0.1569 -0.0201
 4161ntf    fn423527   0.647   6.107   3.236 -0.4376  0.4658  0.2023
 4161ntf    fn423528   0.485   6.133   3.366  0.4608  0.3721  0.3843
 4161ntf    on523529   0.302   6.004   3.176  0.3947 -0.9229  0.3333
 4161ntf    on523530   0.456   6.137   3.032 -0.2416 -0.0421 -0.3120
 4161ntf    on523531   0.672   5.735   2.981 -0.0775 -0.3830 -0.1950
 4161ntf    on523532   0.696   5.965   2.915 -0.3848 -0.1365 -0.1158
 4161ntf    fn423533   0.549   5.811   2.709 -0.2532  0.4727  0.7735
 4161ntf    fn423534   0.411   5.739   2.841  0.0161 -0.0582 -0.6639
 4161ntf    fn423535   0.423   5.950   2.794  0.1833  0.7845 -0.6287
 4162ntf    cn123536   1.553   4.681   1.593  0.0157  0.1139  0.3178
 4162ntf    sn223537   1.687   4.769   1.679  0.4707 -0.0460 -0.2183
 4162ntf    nn323538   1.633   4.916   1.670 -0.2043 -0.2898 -0.1942
 4162ntf    sn223539   1.650   5.013   1.549 -0.4232 -0.0990 -0.0717
 4162ntf    cn123540   1.480   5.060   1.501 -0.3888  0.3306  0.2187
 4162ntf    fn423541   1.558   4.554   1.627 -0.2986 -0.1318 -0.5328
 4162ntf    fn423542   1.432   4.718   1.631 -0.2469 -0.5173  0.0932
 4162ntf    fn423543   1.553   4.697   1.461 -0.2266 -0.3298  0.2643
 4162ntf    on523544   1.691   4.721   1.815 -0.0737  0.0301 -0.1747
 4162ntf    on523545   1.806   4.745   1.601  0.3867 -0.3679 -0.2495
 4162ntf    on523546   1.704   4.963   1.425  0.2461 -0.3294  0.3129
 4162ntf    on523547   1.716   5.133   1.594  0.3887 -0.4531 -0.3155
 4162ntf    fn423548   1.496   5.130   1.390 -0.2282  0.3938  0.2806
 4162ntf    fn423549   1.399   4.961   1.465 -0.3415  0.3268  0.1201
 4162ntf    fn423550   1.409   5.135   1.582  0.0966  0.2016  0.7685
 4163ntf    cn123551   1.097   3.111   1.685  0.1323  0.1779 -0.0611
 4163ntf    sn223552   0.919   3.117   1.651  0.1328  0.1528 -0.0677
 4163ntf    nn323553   0.918   3.238   1.551  0.1723 -0.0107 -0.2685
 4163ntf    sn223554   0.794   3.312   1.488 -0.0755 -0.4085 -0.2527
 4163ntf    cn123555   0.790   3.472   1.575  0.2870 -0.2479 -0.5261
 4163ntf    fn423556   1.159   3.125   1.569 -0.4162 -0.1602 -0.3969
 4163ntf    fn423557   1.127   3.219   1.756 -0.6389  0.3586  0.0001
 4163ntf    fn423558   1.142   3.009   1.756  0.2128  0.2120 -0.0623
 4163ntf    on523559   0.895   2.989   1.588  0.1762  0.0217  0.1812
 4163ntf    on523560   0.860   3.153   1.777 -0.5212 -0.6403 -0.1371
 4163ntf    on523561   0.663   3.259   1.516 -0.2523  0.1429 -0.0105
 4163ntf    on523562   0.829   3.344   1.352 -0.0289  0.0695 -0.1308
 4163ntf    fn423563   0.909   3.529   1.572  0.3341 -0.2943  0.2016
 4163ntf    fn423564   0.705   3.560   1.524 -0.2388 -0.2003  0.4124
 4163ntf    fn423565   0.754   3.452   1.701  0.3351 -0.2456 -0.5122
 4164ntf    cn123566   3.100   1.738   0.252 -0.1004  0.0214 -0.4014
 4164ntf    sn223567   3.102   1.916   0.285  0.0807 -0.0804  0.1569
 4164ntf    nn323568   2.956   1.952   0.238  0.2192  0.1573 -0.0940
 4164ntf    sn223569   2.913   2.017   0.102  0.1100 -0.0713 -0.1692
 4164ntf    cn123570   2.743   2.048   0.158  0.1814 -0.3564  0.2033
 4164ntf    fn423571   3.214   1.677   0.282 -0.1850  0.0815  0.0456
 4164ntf    fn423572   3.000   1.688   0.323  0.5187 -0.1775  0.3591
 4164ntf    fn423573   3.076   1.712   0.125 -0.1049 -0.0925 -0.3773
 4164ntf    on523574   3.112   1.937   0.427 -0.0329  0.5200  0.0795
 4164ntf    on523575   3.207   1.964   0.199  0.2750 -0.1641  0.3480
 4164ntf    on523576   2.904   1.925  -0.009  0.5572 -0.5443  0.1814
 4164ntf    on523577   2.961   2.152   0.084 -0.4743  0.1936  0.2447
 4164ntf    fn423578   2.741   2.154   0.237  0.2811  0.1317 -0.4505
 4164ntf    fn423579   2.661   2.088   0.063  0.5393  0.3057  0.1695
 4164ntf    fn423580   2.688   1.943   0.218  0.0034 -0.3620  0.0293
 4165ntf    cn123581   4.408   2.978   1.046 -0.1034  0.1220 -0.3877
 4165ntf    sn223582   4.480   2.922   1.204  0.2614 -0.0547 -0.6154
 4165ntf    nn323583   4.620   2.862   1.167  0.2014 -0.4065 -0.2703
 4165ntf    sn223584   4.711   2.760   1.244  0.3069 -0.1649 -0.0755
 4165ntf    cn123585   4.744   2.644   1.108 -0.1252  0.0954 -0.4035
 4165ntf    fn423586   4.287   3.029   1.062 -0.1018  0.0978 -0.2957
 4165ntf    fn423587   4.472   3.071   0.978 -0.1173  0.0952 -0.4373
 4165ntf    fn423588   4.385   2.874   0.967 -0.0464 -0.4232  0.2963
 4165ntf    on523589   4.481   3.046   1.277  0.3414  0.0539 -0.7993
 4165ntf    on523590   4.383   2.825   1.246  0.0892  0.3571 -0.0533
 4165ntf    on523591   4.652   2.685   1.352  0.8067 -0.8867 -0.3006
 4165ntf    on523592   4.839   2.821   1.272  0.3530 -0.2398 -0.1252
 4165ntf    fn423593   4.640   2.634   1.027 -0.6123  0.0290  0.2189
 4165ntf    fn423594   4.855   2.680   1.047  0.4548  0.2806  0.7271
 4165ntf    fn423595   4.767   2.525   1.162  0.4714  0.2718 -0.2632
 4166ntf    cn123596   3.663   1.117   5.264 -0.0618  0.2909 -0.2462
 4166ntf    sn223597   3.523   1.061   5.365  0.2867  0.0993  0.1316
 4166ntf    nn323598   3.427   0.995   5.259  0.0823  0.0518  0.3441
 4166ntf    sn223599   3.271   0.991   5.241  0.1260  0.1351 -0.0616
 4166ntf    cn123600   3.242   1.108   5.105  0.1895 -0.0394 -0.2259
 4166ntf    fn423601   3.772   1.136   5.335 -0.2684  0.3833  0.0497
 4166ntf    fn423602   3.704   1.037   5.168  0.7614  0.0885  0.2637
 4166ntf    fn423603   3.638   1.236   5.211  0.1693  0.4364 -0.0297
 4166ntf    on523604   3.581   0.961   5.452  0.2275  0.1591  0.2405
 4166ntf    on523605   3.479   1.190   5.413  0.9538  0.2277  0.4033
 4166ntf    on523606   3.207   1.060   5.351  0.3706  0.3505 -0.0508
 4166ntf    on523607   3.218   0.864   5.198  0.4922  0.0837 -0.3646
 4166ntf    fn423608   3.116   1.102   5.065  0.2612  0.4447 -0.5273
 4166ntf    fn423609   3.260   1.234   5.143 -0.3573 -0.1198  0.3251
 4166ntf    fn423610   3.308   1.098   4.992  0.6747  0.0042  0.0525
 4167ntf    cn123611   4.224   0.128   1.793 -0.2534 -0.3939 -0.2733
 4167ntf    sn223612   4.224   0.297   1.859  0.4782 -0.3789 -0.3084
 4167ntf    nn323613   4.136   0.272   1.987  0.1414 -0.0743 -0.4777
 4167ntf    sn223614   3.983   0.245   2.008  0.1691  0.0315 -0.1245
 4167ntf    cn123615   3.928   0.393   2.097  0.0774 -0.1189  0.0701
 4167ntf    fn423616   4.260   0.105   1.668  0.0033 -0.3425 -0.2083
 4167ntf    fn423617   4.311   0.064   1.869 -0.3725 -0.4425 -0.1777
 4167ntf    fn423618   4.111   0.062   1.814 -0.1559 -0.4077  0.2243
 4167ntf    on523619   4.363   0.321   1.891  0.2995  0.1455  0.0915
 4167ntf    on523620   4.152   0.377   1.763 -0.2038  0.4008  0.8145
 4167ntf    on523621   3.970   0.148   2.114  0.1684  0.0176 -0.1371
 4167ntf    on523622   3.891   0.239   1.897 -0.2788 -0.8642  0.2825
 4167ntf    fn423623   3.800   0.398   2.131 -0.0057  0.3515 -0.2961
 4167ntf    fn423624   4.001   0.408   2.206  0.1713 -0.1170  0.0077
 4167ntf    fn423625   3.958   0.502   2.029 -0.1757 -0.1551 -0.1030
 4168ntf    cn123626   6.688   3.668   3.197  0.1973 -0.4178 -0.3753
 4168ntf    sn223627   6.731   3.492   3.183 -0.0269 -0.4995 -0.0422
 4168ntf    nn323628   6.615   3.420   3.261  0.0600 -0.5807  0.0135
 4168ntf    sn223629   6.619   3.326   3.386  0.2944 -0.3295  0.1977
 4168ntf    cn123630   6.620   3.167   3.297 -0.1822 -0.2187 -0.0104
 4168ntf    fn423631   6.761   3.749   3.122  0.0224 -0.1616 -0.2662
 4168ntf    fn423632   6.560   3.692   3.173  0.3089  0.3246 -0.2462
 4168ntf    fn423633   6.710   3.707   3.321 -0.1208 -0.2727 -0.3637
 4168ntf    on523634   6.732   3.468   3.041 -0.0642 -0.5319 -0.0374
 4168ntf    on523635   6.857   3.481   3.254  0.1098 -0.1221 -0.2272
 4168ntf    on523636   6.495   3.328   3.460 -0.0897  0.3585 -0.4511
 4168ntf    on523637   6.739   3.307   3.463  0.4837 -0.1255 -0.0470
 4168ntf    fn423638   6.634   3.060   3.374  0.3431 -0.5973 -0.6271
 4168ntf    fn423639   6.506   3.144   3.235 -0.1836 -0.1668 -0.0281
 4168ntf    fn423640   6.714   3.161   3.204  0.1948 -0.9533  0.4105
 4169ntf    cn123641   3.880   4.791   2.072  0.1464 -0.0615 -0.3047
 4169ntf    sn223642   3.749   4.743   1.956 -0.1312  0.0836 -0.0506
 4169ntf    nn323643   3.777   4.589   1.942  0.1827  0.0939  0.4543
 4169ntf    sn223644   3.682   4.466   1.923  0.1271  0.1741  0.2132
 4169ntf    cn123645   3.606   4.440   2.086 -0.5792  0.0371 -0.1305
 4169ntf    fn423646   3.873   4.920   2.100 -0.1158 -0.2144  0.3301
 4169ntf    fn423647   3.868   4.723   2.185 -0.1894  0.4927 -0.0059
 4169ntf    fn423648   4.007   4.775   2.036  0.2126  0.2085 -0.1948
 4169ntf    on523649   3.624   4.778   2.019 -0.1331  0.3697 -0.2122
 4169ntf    on523650   3.778   4.817   1.836  0.1330  0.4766  0.2553
 4169ntf    on523651   3.757   4.345   1.904  0.2937  0.2554  0.3524
 4169ntf    on523652   3.577   4.491   1.827  0.1353  0.0685  0.1766
 4169ntf    fn423653   3.687   4.467   2.187 -0.1895 -0.5643 -0.2733
 4169ntf    fn423654   3.507   4.524   2.110 -0.2022  0.2959  0.5643
 4169ntf    fn423655   3.558   4.320   2.111  0.0167 -0.2062 -0.1383
 4170ntf    cn123656   4.925   5.909   0.490  0.2753 -0.2446  0.0420
 4170ntf    sn223657   4.867   6.076   0.533 -0.0324 -0.3229 -0.0630
 4170ntf    nn323658   5.004   6.132   0.587 -0.1307 -0.2075  0.0683
 4170ntf    sn223659   5.111   6.216   0.508  0.1675 -0.5954  0.0626
 4170ntf    cn123660   5.034   6.372   0.561  0.4030 -0.5258  0.2032
 4170ntf    fn423661   4.829   5.851   0.419 -0.2155  0.1288  0.3959
 4170ntf    fn423662   5.040   5.922   0.425  0.2716 -0.1214  0.0573
 4170ntf    fn423663   4.943   5.820   0.586  0.7709 -0.1098  0.0753
 4170ntf    on523664   4.826   6.129   0.406 -0.0548 -0.3247 -0.0565
 4170ntf    on523665   4.765   6.063   0.634  0.4026  0.3025  0.4706
 4170ntf    on523666   5.100   6.216   0.364  0.2832  0.0101  0.0532
 4170ntf    on523667   5.248   6.215   0.553  0.2154 -0.2370 -0.0710
 4170ntf    fn423668   5.107   6.474   0.518 -0.1501 -0.0416  0.4056
 4170ntf    fn423669   4.913   6.376   0.508  0.3939  0.3518  0.2810
 4170ntf    fn423670   5.034   6.392   0.691 -0.2090  0.0226  0.1204
 4171ntf    cn123671   3.845   0.828   2.333  0.0904 -0.1271  0.3501
 4171ntf    sn223672   3.792   0.933   2.471  0.5180 -0.2036  0.5764
 4171ntf    nn323673   3.757   1.063   2.389 -0.5982 -0.8109  0.0628
 4171ntf    sn223674   3.614   1.115   2.350 -0.1873  0.1603 -0.1583
 4171ntf    cn123675   3.550   1.153   2.516  0.0657  0.3058 -0.0928
 4171ntf    fn423676   3.751   0.809   2.243  0.5041 -0.4709 -0.0136
 4171ntf    fn423677   3.946   0.887   2.270 -0.5004  0.0968 -0.3939
 4171ntf    fn423678   3.899   0.711   2.364  0.4372 -0.1356 -0.2729
 4171ntf    on523679   3.682   0.859   2.528 -0.3713  0.3998 -0.3305
 4171ntf    on523680   3.910   0.956   2.551  0.4485  0.0628  0.6051
 4171ntf    on523681   3.522   1.019   2.297 -0.1862  0.1770 -0.1906
 4171ntf    on523682   3.620   1.241   2.279  0.1363  0.6747  0.7552
 4171ntf    fn423683   3.457   1.248   2.515 -0.3293 -0.0807 -0.2483
 4171ntf    fn423684   3.490   1.052   2.576 -0.1486  0.1678 -0.5361
 4171ntf    fn423685   3.643   1.194   2.601  0.2135 -0.0041 -0.1069
 4172ntf    cn123686   4.584   0.559   1.460 -0.0314  0.0286 -0.0653
 4172ntf    sn223687   4.544   0.725   1.397  0.1664  0.1204  0.0520
 4172ntf    nn323688   4.690   0.784   1.394  0.1431  0.1907  0.2886
 4172ntf    sn223689   4.754   0.877   1.285  0.0867  0.0380  0.1240
 4172ntf    cn123690   4.802   1.017   1.391  0.1130  0.2703 -0.1940
 4172ntf    fn423691   4.476   0.484   1.469 -0.2048  0.2459 -0.3100
 4172ntf    fn423692   4.668   0.497   1.380 -0.0896 -0.3243  0.1465
 4172ntf    fn423693   4.630   0.561   1.584 -0.2947 -0.0961  0.0347
 4172ntf    on523694   4.488   0.699   1.267  0.2197 -0.0079  0.0546
 4172ntf    on523695   4.458   0.784   1.497 -0.0086 -0.3267  0.1656
 4172ntf    on523696   4.671   0.932   1.181  0.1504  0.1316  0.1223
 4172ntf    on523697   4.879   0.821   1.239  0.1980  0.3689  0.0142
 4172ntf    fn423698   4.702   1.058   1.468  0.2978  0.3917 -0.0188
 4172ntf    fn423699   4.903   0.985   1.470 -0.2653  0.5303  0.4052
 4172ntf    fn423700   4.838   1.122   1.318  0.4853  0.1185 -0.2312
 4173ntf    cn123701   5.191   2.067   0.632 -0.1698  0.3582  0.1010
 4173ntf    sn223702   5.315   1.934   0.625 -0.1828  0.3484  0.0724
 4173ntf    nn323703   5.252   1.840   0.735  0.2488 -0.5228 -0.4158
 4173ntf    sn223704   5.166   1.710   0.724 -0.0804 -0.3461  0.0422
 4173ntf    cn123705   5.268   1.594   0.819 -0.2355 -0.0012  0.6359
 4173ntf    fn423706   5.201   2.155   0.534 -0.2341  0.3003  0.0423
 4173ntf    fn423707   5.066   2.024   0.629  0.0051 -0.1756  0.2959
 4173ntf    fn423708   5.198   2.145   0.739  0.4900  0.1400  0.2202
 4173ntf    on523709   5.310   1.896   0.486 -0.3506  0.0680  0.1534
 4173ntf    on523710   5.430   2.003   0.676  0.2128 -0.3369  0.1176
 4173ntf    on523711   5.152   1.657   0.590  0.4834 -0.0435 -0.1367
 4173ntf    on523712   5.050   1.717   0.809 -0.2019 -0.2861 -0.1285
 4173ntf    fn423713   5.299   1.628   0.943  0.3916  0.6306  0.3149
 4173ntf    fn423714   5.209   1.476   0.832 -0.2021  0.0009  0.8177
 4173ntf    fn423715   5.383   1.560   0.763 -0.6066 -0.3267  0.0640
 4174ntf    cn123716   4.551   6.056   4.351  0.0467 -0.1607  0.1057
 4174ntf    sn223717   4.655   5.918   4.295 -0.0392 -0.1301 -0.1271
 4174ntf    nn323718   4.550   5.807   4.256 -0.1440  0.0505 -0.3685
 4174ntf    sn223719   4.542   5.694   4.148 -0.1678  0.0526 -0.3681
 4174ntf    cn123720   4.410   5.603   4.235 -0.0346  0.0681 -0.1469
 4174ntf    fn423721   4.493   6.131   4.259  0.0620  0.1169  0.3185
 4174ntf    fn423722   4.450   6.015   4.426 -0.2908  0.3670 -0.0580
 4174ntf    fn423723   4.625   6.142   4.420 -0.2105  0.0803  0.0849
 4174ntf    on523724   4.723   5.974   4.181  0.2136  0.0889  0.1306
 4174ntf    on523725   4.734   5.882   4.410  0.6878  0.6206 -0.3811
 4174ntf    on523726   4.650   5.598   4.147 -0.0659  0.1668 -0.3638
 4174ntf    on523727   4.479   5.738   4.026 -0.0352 -0.1889 -0.5248
 4174ntf    fn423728   4.300   5.675   4.223  0.2207  0.5075  0.1488
 4174ntf    fn423729   4.390   5.485   4.179 -0.0719  0.1601 -0.3291
 4174ntf    fn423730   4.442   5.585   4.362 -1.0021 -0.1437  0.0751
 4175ntf    cn123731   2.102   2.045   1.047  0.0128  0.1292 -0.2233
 4175ntf    sn223732   2.062   2.129   1.204 -0.0365 -0.2310 -0.0419
 4175ntf    nn323733   2.031   2.277   1.163 -0.0296 -0.3712 -0.5685
 4175ntf    sn223734   1.903   2.326   1.088 -0.0557  0.0361 -0.2659
 4175ntf    cn123735   1.796   2.384   1.223  0.5429  0.0638  0.1986
 4175ntf    fn423736   2.134   1.919   1.068 -0.1721  0.1612  0.2726
 4175ntf    fn423737   2.006   2.043   0.956 -0.1358 -0.6263 -0.0534
 4175ntf    fn423738   2.205   2.104   0.990  0.4475 -0.5410 -0.1338
 4175ntf    on523739   1.947   2.063   1.259  0.0163  0.2088  0.6040
 4175ntf    on523740   2.182   2.115   1.283 -0.0102 -0.0014 -0.0413
 4175ntf    on523741   1.819   2.224   1.030  0.0770 -0.1272 -0.1707
 4175ntf    on523742   1.930   2.446   1.012  0.2335  0.0559 -0.1335
 4175ntf    fn423743   1.793   2.516   1.223  0.5390  0.0636  0.0222
 4175ntf    fn423744   1.668   2.352   1.207  0.6560 -0.3617  0.1270
 4175ntf    fn423745   1.829   2.333   1.340 -0.1005 -0.1632  0.2878
 4176ntf    cn123746   6.345   1.567   3.452 -0.0807  0.1295 -0.2436
 4176ntf    sn223747   6.176   1.631   3.469 -0.0956  0.0638 -0.1443
 4176ntf    nn323748   6.207   1.755   3.560 -0.5039  0.4035 -0.4673
 4176ntf    sn223749   6.121   1.824   3.671 -0.1526 -0.1568  0.1543
 4176ntf    cn123750   6.120   2.000   3.626  0.4314 -0.1537  0.1512
 4176ntf    fn423751   6.423   1.662   3.402  0.3297  0.0768  0.2818
 4176ntf    fn423752   6.396   1.539   3.570 -0.4669  0.1122 -0.0803
 4176ntf    fn423753   6.358   1.460   3.375 -0.1638  0.0565 -0.1560
 4176ntf    on523754   6.138   1.668   3.335 -0.2133  0.3717 -0.0250
 4176ntf    on523755   6.109   1.521   3.534  0.0167  0.2056  0.2123
 4176ntf    on523756   6.175   1.821   3.805  0.4900 -0.6875 -0.1119
 4176ntf    on523757   5.982   1.786   3.658 -0.1454  0.0426 -0.5097
 4176ntf    fn423758   6.071   2.073   3.724 -0.5621 -0.2601 -0.2542
 4176ntf    fn423759   6.244   2.044   3.614  0.2905  0.2633  0.2188
 4176ntf    fn423760   6.051   2.041   3.521  0.2502 -0.1001  0.2910
 4177ntf    cn123761   5.186   3.874   1.795 -0.0772  0.1794  0.0648
 4177ntf    sn223762   5.293   3.759   1.886 -0.0764  0.4357  0.3917
 4177ntf    nn323763   5.345   3.666   1.770 -0.1382 -0.0437  0.7437
 4177ntf    sn223764   5.482   3.599   1.734 -0.2364  0.2509 -0.1971
 4177ntf    cn123765   5.505   3.688   1.577  0.0084 -0.0681 -0.3419
 4177ntf    fn423766   5.081   3.817   1.738  0.3863 -0.5134 -0.0978
 4177ntf    fn423767   5.136   3.970   1.871 -0.3883 -0.2528  0.4126
 4177ntf    fn423768   5.258   3.937   1.704  0.1866 -0.1281  0.0614
 4177ntf    on523769   5.389   3.835   1.962 -0.0431  0.4775  0.3076
 4177ntf    on523770   5.193   3.690   1.964 -0.0032 -0.5853 -0.3842
 4177ntf    on523771   5.462   3.461   1.696  1.0284 -0.0053  0.0117
 4177ntf    on523772   5.599   3.630   1.812 -0.2470 -0.2689  0.0250
 4177ntf    fn423773   5.624   3.667   1.523 -0.0040 -0.1383 -0.3424
 4177ntf    fn423774   5.408   3.647   1.496 -0.6749  0.5368  0.1556
 4177ntf    fn423775   5.497   3.820   1.579 -0.5686 -0.1100  0.3268
 4178ntf    cn123776   3.545   0.378   4.038 -0.1795  0.2262  0.2208
 4178ntf    sn223777   3.530   0.287   4.195  0.3157 -0.2244  0.0081
 4178ntf    nn323778   3.453   0.398   4.276  0.0069 -0.8354  0.5590
 4178ntf    sn223779   3.300   0.433   4.281  0.1227 -0.1682 -0.2555
 4178ntf    cn123780   3.253   0.378   4.448  0.2536 -0.2289 -0.2383
 4178ntf    fn423781   3.605   0.496   4.049 -0.7921  0.5669 -0.0109
 4178ntf    fn423782   3.603   0.312   3.940  0.4019 -0.1462  0.8076
 4178ntf    fn423783   3.426   0.411   3.990 -0.3577 -0.2225  0.3489
 4178ntf    on523784   3.454   0.168   4.167 -0.3485  0.3047 -0.4892
 4178ntf    on523785   3.668   0.278   4.236  0.3281 -0.3034 -0.0502
 4178ntf    on523786   3.233   0.339   4.196  0.3151 -0.3434 -0.2164
 4178ntf    on523787   3.262   0.571   4.267  0.1585 -0.1376 -0.0605
 4178ntf    fn423788   3.124   0.377   4.476  0.3012  0.1281  0.0054
 4178ntf    fn423789   3.307   0.259   4.466 -0.1422 -0.4029 -0.1847
 4178ntf    fn423790   3.306   0.463   4.535  0.1802  0.0736 -0.4863
 4179ntf    cn123791   6.455   4.828   4.680  0.0982  0.5152  0.1850
 4179ntf    sn223792   6.504   4.715   4.814  0.0932  0.1286 -0.1346
 4179ntf    nn323793   6.530   4.821   4.928 -0.0300  0.1103 -0.0902
 4179ntf    sn223794   6.597   4.792   5.066 -0.1649  0.1312 -0.0203
 4179ntf    cn123795   6.769   4.791   5.007 -0.2556 -0.5120 -0.2808
 4179ntf    fn423796   6.439   4.773   4.561 -0.2489  0.3052  0.3269
 4179ntf    fn423797   6.354   4.906   4.713 -0.2707 -0.1245  0.5885
 4179ntf    fn423798   6.547   4.921   4.660  0.5673  0.0159 -0.0114
 4179ntf    on523799   6.394   4.627   4.839  0.1452 -0.0002 -0.3593
 4179ntf    on523800   6.627   4.651   4.774  0.2487 -0.1410  0.7545
 4179ntf    on523801   6.576   4.663   5.128  0.4641 -0.2256 -0.5339
 4179ntf    on523802   6.590   4.908   5.151 -0.0518  0.1736 -0.0682
 4179ntf    fn423803   6.795   4.900   4.937 -0.1886 -0.6648 -0.4975
 4179ntf    fn423804   6.853   4.782   5.109  0.0497 -0.6041 -0.5372
 4179ntf    fn423805   6.805   4.688   4.931 -0.1355 -0.5964 -0.1101
 4180ntf    cn123806   0.300   6.938   2.102  0.4231  0.4018 -0.3083
 4180ntf    sn223807   0.161   6.933   1.985  0.1645  0.1100  0.0122
 4180ntf    nn323808   0.056   6.837   2.053  0.1714 -0.4905 -0.7996
 4180ntf    sn223809  -0.100   6.845   2.061  0.2100 -0.3425 -0.0935
 4180ntf    cn123810  -0.135   6.853   2.239  0.2221  0.0093 -0.1070
 4180ntf    fn423811   0.399   7.021   2.070  0.8236  0.1493  0.2700
 4180ntf    fn423812   0.258   6.980   2.220  0.0231 -0.3211 -0.1922
 4180ntf    fn423813   0.343   6.816   2.129 -0.7926 -0.1437 -0.7679
 4180ntf    on523814   0.118   7.067   1.955 -0.4218 -0.1554 -0.3618
 4180ntf    on523815   0.217   6.864   1.872  0.0625 -0.2104  0.1534
 4180ntf    on523816  -0.161   6.721   2.019  0.7336 -0.6104 -0.0685
 4180ntf    on523817  -0.161   6.967   2.013 -0.3128 -0.4272  0.3450
 4180ntf    fn423818  -0.264   6.837   2.264  0.2599 -0.5264 -0.2433
 4180ntf    fn423819  -0.067   6.759   2.303  0.3278  0.0993 -0.0847
 4180ntf    fn423820  -0.096   6.970   2.289 -0.3375  0.0573  0.2303
 4181ntf    cn123821   0.714   0.740   2.514  0.4314 -0.1633 -0.0650
 4181ntf    sn223822   0.711   0.828   2.355 -0.1733 -0.0093  0.0303
 4181ntf    nn323823   0.862   0.829   2.314 -0.1438 -0.1211  0.1343
 4181ntf    sn223824   0.963   0.709   2.317 -0.0939 -0.0918 -0.2741
 4181ntf    cn123825   1.065   0.742   2.170  0.2266 -0.0350 -0.0417
 4181ntf    fn423826   0.779   0.624   2.509  0.1952 -0.2877 -0.3016
 4181ntf    fn423827   0.776   0.811   2.607 -0.2947  0.2806  0.0830
 4181ntf    fn423828   0.591   0.714   2.554  0.3869 -0.8358 -0.6061
 4181ntf    on523829   0.630   0.748   2.266  0.2332  0.3255 -0.6447
 4181ntf    on523830   0.660   0.960   2.381 -0.2220 -0.0856  0.3285
 4181ntf    on523831   0.905   0.578   2.300 -0.0167 -0.2123  0.3618
 4181ntf    on523832   1.056   0.722   2.426 -0.8525  0.3203  0.3337
 4181ntf    fn423833   1.139   0.639   2.134  0.3874  0.0613  0.0113
 4181ntf    fn423834   0.981   0.767   2.071 -0.2317  0.0855  0.3732
 4181ntf    fn423835   1.142   0.848   2.191 -0.4727  0.4595  0.0740
 4182ntf    cn123836   1.507   6.698   5.525 -0.1748  0.4518  0.0652
 4182ntf    sn223837   1.428   6.607   5.660 -0.0239 -0.0220 -0.1628
 4182ntf    nn323838   1.547   6.574   5.756  0.0389 -0.0457 -0.2485
 4182ntf    sn223839   1.603   6.664   5.872 -0.2995  0.0551 -0.1609
 4182ntf    cn123840   1.474   6.645   5.999 -0.0461 -0.1667  0.0646
 4182ntf    fn423841   1.607   6.625   5.479 -0.3651  0.2283  0.0065
 4182ntf    fn423842   1.431   6.703   5.417  0.0937 -0.6287 -0.1896
 4182ntf    fn423843   1.558   6.815   5.560  0.4865  0.4436 -0.8205
 4182ntf    on523844   1.330   6.703   5.704  0.2196 -0.1476  0.6728
 4182ntf    on523845   1.386   6.487   5.592 -0.9206  0.1198  0.1164
 4182ntf    on523846   1.596   6.804   5.839  0.6487  0.2345  0.3551
 4182ntf    on523847   1.723   6.615   5.936 -0.5037 -0.4953 -0.2021
 4182ntf    fn423848   1.433   6.520   6.011  0.5346 -0.3822 -0.1645
 4182ntf    fn423849   1.518   6.682   6.118 -0.2116  0.2000  0.0120
 4182ntf    fn423850   1.368   6.722   5.983  0.1602  0.0065 -0.4901
 4183ntf    cn123851   5.557   3.171   4.491  0.2189 -0.4518  0.3394
 4183ntf    sn223852   5.665   3.024   4.480  0.2001 -0.4594  0.2632
 4183ntf    nn323853   5.587   2.943   4.371 -0.7779  0.5446  0.1849
 4183ntf    sn223854   5.588   2.960   4.215  0.0277  0.1752  0.1441
 4183ntf    cn123855   5.706   2.829   4.168 -0.2944 -0.0302 -0.0930
 4183ntf    fn423856   5.607   3.265   4.568 -0.0757 -0.2650  0.3037
 4183ntf    fn423857   5.528   3.219   4.371  0.1439 -0.8365  0.2019
 4183ntf    fn423858   5.441   3.136   4.544 -0.3336  0.1867 -0.4277
 4183ntf    on523859   5.798   3.069   4.449  0.1484 -0.1589  0.4674
 4183ntf    on523860   5.647   2.970   4.613  0.5379  0.0429  0.5187
 4183ntf    on523861   5.645   3.080   4.161 -0.1674  0.0706 -0.3013
 4183ntf    on523862   5.462   2.916   4.161 -0.2706  0.4543  0.6108
 4183ntf    fn423863   5.820   2.836   4.233 -0.0665 -1.2931 -0.3302
 4183ntf    fn423864   5.661   2.708   4.196 -0.1799 -0.1332 -0.3494
 4183ntf    fn423865   5.738   2.823   4.040 -0.3574  0.2283 -0.1215
 4184ntf    cn123866   1.917   0.766   5.161 -0.2397  0.1692  0.0318
 4184ntf    sn223867   1.840   0.606   5.120  0.1926 -0.0743  0.1588
 4184ntf    nn323868   1.769   0.637   4.983  0.5251 -0.7592 -0.1723
 4184ntf    sn223869   1.819   0.632   4.834 -0.0807  0.0819 -0.4138
 4184ntf    cn123870   1.842   0.810   4.803  0.1245  0.1622  0.1678
 4184ntf    fn423871   2.018   0.806   5.085 -0.0047 -0.1704  0.1619
 4184ntf    fn423872   1.832   0.867   5.166 -0.2171  0.1940 -0.0696
 4184ntf    fn423873   1.963   0.756   5.284 -0.0641  0.1276 -0.0356
 4184ntf    on523874   1.939   0.503   5.128  0.2122 -0.0157  0.7223
 4184ntf    on523875   1.745   0.585   5.226  0.4991 -0.6793  0.3143
 4184ntf    on523876   1.722   0.581   4.741 -0.7007 -0.2337  0.3897
 4184ntf    on523877   1.954   0.580   4.830  0.0008  0.2958 -0.4877
 4184ntf    fn423878   1.924   0.867   4.889 -0.5183  0.4268  0.6121
 4184ntf    fn423879   1.897   0.834   4.685 -0.0133  0.1616  0.1032
 4184ntf    fn423880   1.733   0.884   4.812  0.3571  0.5445 -0.0862
 4185ntf    cn123881   0.505   5.355   3.913  0.0536 -0.2096  0.1073
 4185ntf    sn223882   0.576   5.505   3.986 -0.1791  0.1595 -0.4206
 4185ntf    nn323883   0.724   5.496   3.934 -0.0872 -0.0582 -0.1254
 4185ntf    sn223884   0.853   5.573   3.980  0.1686 -0.2146 -0.5762
 4185ntf    cn123885   0.911   5.459   4.109  0.0587  0.3912  0.0139
 4185ntf    fn423886   0.375   5.356   3.889  0.1233 -0.6433 -0.3066
 4185ntf    fn423887   0.566   5.317   3.803  0.1000  0.4567 -0.0985
 4185ntf    fn423888   0.524   5.252   3.994 -0.1294  0.1552  0.6215
 4185ntf    on523889   0.500   5.608   3.920 -0.2563  0.6028  0.3425
 4185ntf    on523890   0.551   5.493   4.128 -0.0914 -0.2192 -0.4381
 4185ntf    on523891   0.837   5.695   4.055 -0.1021 -0.4462 -0.2525
 4185ntf    on523892   0.960   5.566   3.883  0.2373 -0.4072 -0.4875
 4185ntf    fn423893   0.873   5.341   4.062  0.4080  0.1691  0.2776
 4185ntf    fn423894   1.040   5.448   4.140  0.0233 -0.2070 -0.0250
 4185ntf    fn423895   0.841   5.467   4.220  0.5019  0.0354  0.3259
 4186ntf    cn123896   6.738   2.973   4.482  0.4514 -0.2820  0.3868
 4186ntf    sn223897   6.813   3.100   4.375  0.2183 -0.4488  0.0263
 4186ntf    nn323898   6.923   3.156   4.471 -0.1214 -0.0087  0.1597
 4186ntf    sn223899   7.058   3.089   4.513  0.0072  0.0749 -0.1197
 4186ntf    cn123900   7.010   3.016   4.673  0.4025  0.1341  0.0282
 4186ntf    fn423901   6.638   2.916   4.417  0.2498  0.1540  0.3144
 4186ntf    fn423902   6.824   2.882   4.525  0.3409 -0.2152  0.7487
 4186ntf    fn423903   6.695   3.029   4.593 -0.1520 -0.2134  0.1236
 4186ntf    on523904   6.860   3.028   4.258 -0.4656 -0.2005 -0.4092
 4186ntf    on523905   6.708   3.198   4.363  0.2977 -0.4564 -0.8481
 4186ntf    on523906   7.162   3.185   4.541 -0.2008  0.2415  0.0904
 4186ntf    on523907   7.095   2.971   4.439 -0.1501 -0.4172  0.5738
 4186ntf    fn423908   6.992   2.885   4.659 -0.0394  0.1598  0.3608
 4186ntf    fn423909   7.101   3.014   4.769  0.1832  0.0441  0.2354
 4186ntf    fn423910   6.906   3.073   4.731  0.0903  0.1191 -0.5022
 4187ntf    cn123911   0.096   4.577   2.796  0.3790 -0.0939 -0.0635
 4187ntf    sn223912   0.225   4.704   2.807  0.1144  0.1551  0.1733
 4187ntf    nn323913   0.166   4.781   2.930 -0.3257  0.2144 -0.0738
 4187ntf    sn223914   0.113   4.929   2.928  0.0779  0.3621  0.1907
 4187ntf    cn123915   0.269   5.022   2.910  0.4510 -0.3096 -0.0823
 4187ntf    fn423916  -0.021   4.639   2.796  0.0879 -0.6348 -0.6363
 4187ntf    fn423917   0.099   4.490   2.696  0.7021  0.1766 -0.2924
 4187ntf    fn423918   0.095   4.510   2.910 -0.3360 -0.1237 -0.0836
 4187ntf    on523919   0.344   4.630   2.840  0.1090  0.1189  0.1120
 4187ntf    on523920   0.232   4.765   2.676  0.7000 -0.5591 -0.1336
 4187ntf    on523921   0.061   4.971   3.056 -0.0766  0.1838  0.1868
 4187ntf    on523922   0.033   4.968   2.816  0.3168  0.1392 -0.0599
 4187ntf    fn423923   0.249   5.150   2.885 -0.1993 -0.3222  0.3383
 4187ntf    fn423924   0.336   5.020   3.024 -0.2018 -0.2854  0.3075
 4187ntf    fn423925   0.340   4.985   2.805 -0.1555  0.0415 -0.6227
 4188ntf    cn123926   4.733   1.006   2.926  0.2521  0.0357 -0.0691
 4188ntf    sn223927   4.819   1.135   3.021  0.0921 -0.0329  0.1699
 4188ntf    nn323928   4.705   1.164   3.124 -0.4003 -0.3817 -0.2770
 4188ntf    sn223929   4.593   1.274   3.130 -0.1712 -0.1513 -0.2247
 4188ntf    cn123930   4.675   1.414   3.210 -0.1413 -0.1408 -0.2739
 4188ntf    fn423931   4.654   0.928   2.997 -0.2691  0.3781 -0.2678
 4188ntf    fn423932   4.652   1.060   2.837 -0.1508 -0.1409  0.1903
 4188ntf    fn423933   4.821   0.931   2.861  0.2621  0.0327 -0.0517
 4188ntf    on523934   4.936   1.077   3.082  0.0465 -0.0512  0.2392
 4188ntf    on523935   4.842   1.244   2.929  0.6670  0.1085  0.4710
 4188ntf    on523936   4.480   1.240   3.213  0.0037 -0.3612 -0.0717
 4188ntf    on523937   4.556   1.322   2.999  0.2878 -0.0336 -0.3118
 4188ntf    fn423938   4.733   1.371   3.321  0.1298  0.2046 -0.2777
 4188ntf    fn423939   4.775   1.464   3.139  0.1481  0.4203  0.5035
 4188ntf    fn423940   4.592   1.510   3.247 -0.3774 -0.3894 -0.1625
 4189ntf    cn123941   6.716   3.864   2.583  0.0944  0.1132 -0.3036
 4189ntf    sn223942   6.684   3.725   2.470 -0.0344 -0.0290 -0.0931
 4189ntf    nn323943   6.620   3.623   2.571  0.0462  0.3460  0.3354
 4189ntf    sn223944   6.471   3.593   2.613 -0.0196 -0.1388 -0.2308
 4189ntf    cn123945   6.478   3.673   2.777  0.4902 -0.0401 -0.2989
 4189ntf    fn423946   6.776   3.829   2.696 -0.4107  0.3481  0.0420
 4189ntf    fn423947   6.783   3.957   2.518  0.2887 -0.3291 -0.7441
 4189ntf    fn423948   6.602   3.916   2.625  0.0731 -0.1979  0.0294
 4189ntf    on523949   6.600   3.779   2.366  0.4179  1.1039  0.1220
 4189ntf    on523950   6.813   3.676   2.429  0.1676  0.4751 -0.0707
 4189ntf    on523951   6.458   3.452   2.637  0.4580 -0.1175  0.1837
 4189ntf    on523952   6.357   3.655   2.551  0.3399  0.2624 -0.5021
 4189ntf    fn423953   6.362   3.678   2.840  0.7337  0.2052  0.1359
 4189ntf    fn423954   6.552   3.607   2.864  0.2783  0.3365  0.1684
 4189ntf    fn423955   6.527   3.796   2.777  0.4941 -0.0412 -0.0442
 4190ntf    cn123956   6.144   6.268   2.401  0.5511 -0.0676  0.1322
 4190ntf    sn223957   6.171   6.130   2.286  0.4788  0.0967 -0.0845
 4190ntf    nn323958   6.192   6.022   2.398 -0.1066 -0.0907 -0.1506
 4190ntf    sn223959   6.331   5.970   2.450 -0.0307 -0.0266 -0.2902
 4190ntf    cn123960   6.292   5.962   2.627  0.1638  0.0787 -0.2415
 4190ntf    fn423961   6.031   6.267   2.470  0.7486 -1.0359  0.4533
 4190ntf    fn423962   6.234   6.291   2.495  0.0326  0.6897  0.4580
 4190ntf    fn423963   6.138   6.383   2.335 -0.4404 -0.1597  0.0526
 4190ntf    on523964   6.040   6.119   2.227  0.4353 -0.2158  0.0669
 4190ntf    on523965   6.288   6.170   2.212  0.3114  0.1040 -0.3458
 4190ntf    on523966   6.441   6.064   2.450 -0.1544  0.1180 -0.2346
 4190ntf    on523967   6.353   5.835   2.406 -0.7601 -0.1356 -0.3223
 4190ntf    fn423968   6.267   6.080   2.681 -0.0084  0.0160 -0.1818
 4190ntf    fn423969   6.188   5.888   2.660  0.2405  0.2397  0.3715
 4190ntf    fn423970   6.396   5.909   2.689  0.1409  0.0446 -0.2322
 4191ntf    cn123971   3.498   3.089   6.626  0.6709  0.0428 -0.2842
 4191ntf    sn223972   3.484   3.040   6.451  0.2156 -0.6219 -0.0679
 4191ntf    nn323973   3.335   2.990   6.444  0.0151 -0.0544  0.0664
 4191ntf    sn223974   3.203   3.068   6.414  0.0776 -0.0418 -0.1788
 4191ntf    cn123975   3.189   3.042   6.235 -0.2513  0.1039 -0.1755
 4191ntf    fn423976   3.457   2.995   6.710  0.2292  0.2033 -0.3185
 4191ntf    fn423977   3.624   3.112   6.659  0.3783  0.4921  0.5520
 4191ntf    fn423978   3.426   3.193   6.664 -0.1892 -0.6034 -0.1028
 4191ntf    on523979   3.508   3.165   6.384  0.2549 -0.4672  0.2290
 4191ntf    on523980   3.589   2.942   6.444  0.0549 -0.8505  0.6146
 4191ntf    on523981   3.203   3.212   6.432  0.0883 -0.0958  0.2700
 4191ntf    on523982   3.084   2.997   6.457  0.0450  0.5375  0.7286
 4191ntf    fn423983   3.145   2.922   6.202  0.0650 -0.0149 -0.1646
 4191ntf    fn423984   3.115   3.132   6.171  0.1774  0.2438 -0.4793
 4191ntf    fn423985   3.308   3.042   6.176  0.1195 -0.2393  0.5572
 4192ntf    cn123986   1.197   6.660   1.031 -0.2621  0.0128 -0.1351
 4192ntf    sn223987   1.042   6.717   1.106 -0.1909 -0.1295  0.1230
 4192ntf    nn323988   0.994   6.823   1.000  0.5518 -0.0910 -0.1804
 4192ntf    sn223989   0.986   6.979   1.010  0.1859 -0.1084 -0.1862
 4192ntf    cn123990   0.818   6.997   1.078  0.1177  0.2461 -0.4456
 4192ntf    fn423991   1.288   6.755   1.022 -0.6517  0.4901  0.7892
 4192ntf    fn423992   1.251   6.560   1.100 -0.0324  0.0950 -0.1943
 4192ntf    fn423993   1.174   6.623   0.906  0.0027  0.3029 -0.2714
 4192ntf    on523994   0.970   6.593   1.118 -0.0081 -0.2792 -0.3123
 4192ntf    on523995   1.092   6.772   1.230 -0.4607  0.5020 -0.0435
 4192ntf    on523996   0.979   7.038   0.878  0.3675 -0.3510 -0.3054
 4192ntf    on523997   1.065   7.055   1.104 -0.0592  0.2186 -0.2440
 4192ntf    fn423998   0.805   6.943   1.198  0.5100  0.2094 -0.4160
 4192ntf    fn423999   0.778   7.120   1.107 -0.4668 -0.0175 -0.1222
 4192ntf    fn424000   0.731   6.936   1.000  0.4514  0.2403 -0.8203
 4193ntf    cn124001   4.219   0.745   4.949  0.4941 -0.0715 -0.1577
 4193ntf    sn224002   4.101   0.779   5.083  0.2325 -0.1138 -0.3775
 4193ntf    nn324003   4.010   0.653   5.058 -0.3689  0.2647 -0.1212
 4193ntf    sn224004   3.938   0.566   5.167  0.2801  0.1345  0.2086
 4193ntf    cn124005   4.044   0.418   5.174 -0.2099 -0.2315 -0.0082
 4193ntf    fn424006   4.293   0.643   4.987 -0.0145 -0.3673  0.0505
 4193ntf    fn424007   4.165   0.702   4.837 -0.2963 -0.1885  0.2574
 4193ntf    fn424008   4.297   0.848   4.919  0.3788 -0.0814 -0.4906
 4193ntf    on524009   4.177   0.779   5.206 -0.2598 -0.2846 -0.0663
 4193ntf    on524010   4.047   0.908   5.048  0.6773  0.2442  0.2490
 4193ntf    on524011   3.816   0.511   5.113  0.4439 -0.1065  0.0787
 4193ntf    on524012   3.939   0.617   5.301 -0.4364  0.5584  0.0592
 4193ntf    fn424013   4.074   0.388   5.049 -0.8712  0.1656 -0.2666
 4193ntf    fn424014   4.155   0.446   5.240 -0.1870 -0.0908 -0.1044
 4193ntf    fn424015   3.987   0.313   5.229 -0.2143 -0.1811  0.0839
 4194ntf    cn124016   5.572   3.480   5.792 -0.4830 -0.3446 -0.0950
 4194ntf    sn224017   5.420   3.491   5.693 -0.2307  0.3004 -0.4166
 4194ntf    nn324018   5.372   3.631   5.745 -0.1833  0.1316  0.0847
 4194ntf    sn224019   5.266   3.731   5.688 -0.2424  0.0674  0.0839
 4194ntf    cn124020   5.167   3.759   5.838 -0.1506 -0.0298  0.1631
 4194ntf    fn424021   5.661   3.558   5.733 -0.4963 -0.3430 -0.1127
 4194ntf    fn424022   5.557   3.521   5.917 -0.4790 -0.5908 -0.0131
 4194ntf    fn424023   5.626   3.359   5.796 -0.1585 -0.1944  0.1899
 4194ntf    on524024   5.470   3.486   5.557 -0.3633 -0.2026 -0.4477
 4194ntf    on524025   5.339   3.383   5.742 -0.1104  0.2824 -0.2537
 4194ntf    on524026   5.169   3.678   5.595 -0.2221  0.0195  0.0901
 4194ntf    on524027   5.332   3.854   5.652 -0.0556  0.1154  0.5854
 4194ntf    fn424028   5.087   3.862   5.817 -0.2355 -0.2097 -0.4244
 4194ntf    fn424029   5.088   3.660   5.876  0.1608 -0.1492  0.5045
 4194ntf    fn424030   5.249   3.778   5.940 -0.2802 -0.1839  0.2934
 4195ntf    cn124031   6.589   2.986   1.014 -0.5501  0.0507 -0.0060
 4195ntf    sn224032   6.448   2.870   1.014 -0.3064 -0.2479  0.0610
 4195ntf    nn324033   6.480   2.802   0.876  0.0332 -1.1924  0.6010
 4195ntf    sn224034   6.376   2.804   0.758  0.2035 -0.0782  0.4651
 4195ntf    cn124035   6.478   2.753   0.617 -0.0277  0.3624  0.1329
 4195ntf    fn424036   6.617   3.037   0.896 -0.0411 -0.3222 -0.0505
 4195ntf    fn424037   6.567   3.085   1.099 -0.0731  0.2381 -0.1023
 4195ntf    fn424038   6.702   2.927   1.049 -0.3652  0.1040 -0.5046
 4195ntf    on524039   6.479   2.788   1.128 -0.0346  0.2512  0.3500
 4195ntf    on524040   6.330   2.953   1.018 -0.0312  0.1653 -0.1845
 4195ntf    on524041   6.328   2.935   0.720  0.5385 -0.0692  0.0669
 4195ntf    on524042   6.279   2.700   0.779 -0.0026  0.0567  0.1874
 4195ntf    fn424043   6.486   2.621   0.617  0.1164  0.3682 -0.6629
 4195ntf    fn424044   6.434   2.798   0.501 -0.4175 -0.1163  0.0919
 4195ntf    fn424045   6.603   2.794   0.632  0.2230 -0.3493  0.0469
 4196ntf    cn124046   5.427   1.624   3.451  0.0352 -0.2623  0.3377
 4196ntf    sn224047   5.434   1.448   3.405  0.0536 -0.1528 -0.0858
 4196ntf    nn324048   5.289   1.400   3.442  0.0374  0.3238  0.4870
 4196ntf    sn224049   5.229   1.261   3.482  0.2931 -0.0276 -0.3265
 4196ntf    cn124050   5.084   1.273   3.373 -0.1456  0.1221  0.2683
 4196ntf    fn424051   5.436   1.657   3.578 -0.3202  0.0335  0.2884
 4196ntf    fn424052   5.529   1.692   3.402 -0.3238 -0.0030 -0.0516
 4196ntf    fn424053   5.318   1.676   3.397  0.0841 -0.5938 -0.0896
 4196ntf    on524054   5.451   1.458   3.262  0.4419  0.2420 -0.0157
 4196ntf    on524055   5.544   1.411   3.491 -0.3432  0.2958  0.6198
 4196ntf    on524056   5.180   1.249   3.617  0.4480 -0.0145 -0.2693
 4196ntf    on524057   5.290   1.144   3.424 -0.3619 -0.4909 -0.0981
 4196ntf    fn424058   5.016   1.161   3.352  0.0793  0.0453 -0.0634
 4196ntf    fn424059   5.002   1.363   3.423 -0.4284  0.0729 -0.1102
 4196ntf    fn424060   5.122   1.309   3.251  0.4946 -0.4720  0.2836
 4197ntf    cn124061   5.013   0.166   3.801 -0.3286  0.1392  0.2032
 4197ntf    sn224062   4.989   0.218   3.974 -0.2722  0.1606  0.2050
 4197ntf    nn324063   4.853   0.144   4.002 -0.2352  0.1693  0.4119
 4197ntf    sn224064   4.715   0.198   4.053 -0.3572 -0.0123  0.2752
 4197ntf    cn124065   4.609   0.192   3.906  0.0348  0.1344 -0.0115
 4197ntf    fn424066   5.006   0.035   3.784  0.5851  0.1510 -0.2685
 4197ntf    fn424067   4.921   0.212   3.717  0.1880  0.2340 -0.3133
 4197ntf    fn424068   5.128   0.205   3.749 -0.3582 -0.0156  0.0226
 4197ntf    on524069   5.100   0.152   4.038 -0.6736 -0.0688  0.6717
 4197ntf    on524070   5.001   0.361   3.966 -0.1730  0.1462  0.1026
 4197ntf    on524071   4.718   0.339   4.082  0.1023  0.0146  0.0926
 4197ntf    on524072   4.656   0.112   4.154  0.0683 -0.4496  0.1561
 4197ntf    fn424073   4.661   0.280   3.821  0.1557 -0.3704 -0.4712
 4197ntf    fn424074   4.612   0.071   3.853  0.2569 -0.0742  0.4710
 4197ntf    fn424075   4.481   0.213   3.930  0.1585  0.7893  0.1069
 4198ntf    cn124076   4.719   7.059   5.463 -0.0565  0.3333 -0.0881
 4198ntf    sn224077   4.718   7.137   5.628 -0.1287 -0.2494  0.1881
 4198ntf    nn324078   4.602   7.238   5.595 -0.1560 -0.2253  0.3546
 4198ntf    sn224079   4.563   7.371   5.668  0.1664 -0.0023  0.1217
 4198ntf    cn124080   4.411   7.411   5.577  0.1830 -0.1852  0.0124
 4198ntf    fn424081   4.750   7.149   5.371  0.0378  0.0653 -0.3188
 4198ntf    fn424082   4.811   6.964   5.458 -0.0483  0.3369 -0.0078
 4198ntf    fn424083   4.607   6.999   5.425 -0.0958 -0.1181  0.7102
 4198ntf    on524084   4.680   7.029   5.716  0.1464 -0.0372  0.5692
 4198ntf    on524085   4.850   7.194   5.638 -0.3471  0.2698  0.1357
 4198ntf    on524086   4.651   7.483   5.644  0.1406  0.1547  0.7441
 4198ntf    on524087   4.518   7.355   5.804  0.1820  0.1583  0.1460
 4198ntf    fn424088   4.366   7.526   5.625 -0.0089 -0.3213  0.1627
 4198ntf    fn424089   4.433   7.421   5.447 -0.1241 -0.5371 -0.0689
 4198ntf    fn424090   4.312   7.324   5.596 -0.2788  0.3728  0.1856
 4199ntf    cn124091   3.493   4.847   0.625 -0.1310 -0.0373 -0.1041
 4199ntf    sn224092   3.605   4.976   0.563 -0.3719  0.1676 -0.1133
 4199ntf    nn324093   3.646   4.929   0.419 -0.1064  0.5025 -0.1475
 4199ntf    sn224094   3.781   4.965   0.347  0.0810  0.2368  0.0727
 4199ntf    cn124095   3.727   4.934   0.177 -0.0968  0.3404  0.1098
 4199ntf    fn424096   3.382   4.845   0.553 -0.0674 -0.0976 -0.1996
 4199ntf    fn424097   3.538   4.724   0.604  0.1960  0.0509  0.0777
 4199ntf    fn424098   3.457   4.858   0.752  0.0167 -0.1257 -0.0547
 4199ntf    on524099   3.529   5.098   0.552 -0.1194  0.3122 -0.2665
 4199ntf    on524100   3.715   4.978   0.657 -0.1462  0.9941 -0.3845
 4199ntf    on524101   3.883   4.864   0.360  0.0789  0.2321  0.0485
 4199ntf    on524102   3.814   5.104   0.336 -0.9060  0.4428 -0.3461
 4199ntf    fn424103   3.630   5.020   0.152 -0.1586  0.3207  0.2851
 4199ntf    fn424104   3.823   4.954   0.088  0.1401 -0.0222  0.2825
 4199ntf    fn424105   3.682   4.810   0.165 -0.4291  0.4422  0.2931
 4200ntf    cn124106   1.385   2.323   6.308  0.1406 -0.2345 -0.1366
 4200ntf    sn224107   1.520   2.207   6.274  0.1218 -0.2802 -0.0555
 4200ntf    nn324108   1.433   2.076   6.266  0.0199 -0.1964 -0.3241
 4200ntf    sn224109   1.478   1.926   6.275 -0.1579 -0.2343 -0.0372
 4200ntf    cn124110   1.395   1.882   6.430 -0.4109  0.2679 -0.0275
 4200ntf    fn424111   1.315   2.279   6.412 -0.0016  0.5131  0.0937
 4200ntf    fn424112   1.431   2.446   6.324 -0.5897  0.0268  0.0048
 4200ntf    fn424113   1.302   2.326   6.205 -0.1413 -0.6081  0.0735
 4200ntf    on524114   1.585   2.252   6.153  0.2479  0.2775  0.2167
 4200ntf    on524115   1.604   2.216   6.391  0.5749  0.6508 -0.4489
 4200ntf    on524116   1.615   1.889   6.298 -0.0992  0.1264  0.2082
 4200ntf    on524117   1.408   1.858   6.169  0.2446  0.0743 -0.5074
 4200ntf    fn424118   1.267   1.914   6.446 -0.6636 -0.4950 -0.4881
 4200ntf    fn424119   1.403   1.754   6.461 -0.1838  0.3255  0.1480
 4200ntf    fn424120   1.461   1.937   6.531  0.5380 -0.3739 -0.2888
 4201ntf    cn124121   1.232   2.880   2.834  0.1541 -0.6907  0.0407
 4201ntf    sn224122   1.263   2.828   2.663 -0.2629 -0.0164 -0.2459
 4201ntf    nn324123   1.410   2.879   2.642 -0.0565  0.0497  1.2294
 4201ntf    sn224124   1.450   3.017   2.579 -0.0809 -0.2063  0.6413
 4201ntf    cn124125   1.477   2.958   2.409 -0.6502  0.0645  0.4530
 4201ntf    fn424126   1.320   2.832   2.920  0.0080 -0.3062  0.4127
 4201ntf    fn424127   1.236   3.012   2.844 -0.4960 -0.6448 -0.2352
 4201ntf    fn424128   1.113   2.843   2.880  0.0331 -0.2885  0.0641
 4201ntf    on524129   1.248   2.686   2.686 -1.0864  0.1301  0.1493
 4201ntf    on524130   1.157   2.893   2.590 -0.3172 -0.2696 -0.3946
 4201ntf    on524131   1.581   3.058   2.623 -0.3793  0.7872  0.6148
 4201ntf    on524132   1.345   3.115   2.564 -0.2972 -0.5479 -0.1346
 4201ntf    fn424133   1.528   3.051   2.330 -0.1113 -0.0003  0.7153
 4201ntf    fn424134   1.557   2.853   2.399 -0.5210  0.2443 -0.4196
 4201ntf    fn424135   1.366   2.919   2.350 -0.4348  0.3609 -0.1538
 4202ntf    cn124136   4.699   0.248   6.549 -0.0819  0.7497  0.0236
 4202ntf    sn224137   4.783   0.221   6.707  0.0295 -0.3027 -0.2094
 4202ntf    nn324138   4.894   0.330   6.686  0.3685 -0.7500 -0.7699
 4202ntf    sn224139   5.033   0.340   6.759  0.0550  0.2568 -0.2970
 4202ntf    cn124140   5.033   0.521   6.778  0.2728  0.1946  0.3191
 4202ntf    fn424141   4.784   0.223   6.451  0.1422  0.2283  0.3512
 4202ntf    fn424142   4.595   0.168   6.530 -0.1275  0.6648  0.6187
 4202ntf    fn424143   4.647   0.368   6.529 -0.0836  0.8431  0.5818
 4202ntf    on524144   4.688   0.249   6.812  0.3403  0.2477 -0.0697
 4202ntf    on524145   4.835   0.086   6.706  0.4374 -0.1443 -0.5904
 4202ntf    on524146   5.145   0.318   6.671  0.4117  0.2393  0.1567
 4202ntf    on524147   5.038   0.289   6.894  0.6851  0.1374 -0.3615
 4202ntf    fn424148   5.111   0.578   6.688  0.0235  0.2426  0.1335
 4202ntf    fn424149   4.909   0.563   6.759  0.2182 -0.0048  0.2306
 4202ntf    fn424150   5.064   0.573   6.896  0.0809  0.0667  0.4279
 4203ntf    cn124151   7.108   2.020   3.364  0.2855 -0.2202 -0.0268
 4203ntf    sn224152   6.999   2.052   3.222  0.0899  0.0482  0.1842
 4203ntf    nn324153   7.013   1.917   3.144  0.4568  0.0505  0.2482
 4203ntf    sn224154   6.923   1.789   3.132 -0.0545  0.4486 -0.2204
 4203ntf    cn124155   6.795   1.850   3.019 -0.2502 -0.1431 -0.3212
 4203ntf    fn424156   7.235   2.016   3.325  0.1660  0.4036 -0.4986
 4203ntf    fn424157   7.099   2.101   3.469  0.5967  0.2176 -0.3323
 4203ntf    fn424158   7.093   1.897   3.409  0.1246 -0.2661 -0.2045
 4203ntf    on524159   6.872   2.096   3.275 -0.1162 -0.0165 -0.2538
 4203ntf    on524160   7.071   2.154   3.151  0.7877 -0.3930  0.2555
 4203ntf    on524161   6.839   1.752   3.243  0.5450  0.2532  0.1743
 4203ntf    on524162   6.984   1.683   3.056 -0.6345  0.3411 -0.5416
 4203ntf    fn424163   6.732   1.954   3.072 -0.1050 -0.1233 -0.1859
 4203ntf    fn424164   6.849   1.884   2.904 -0.2593 -0.3418 -0.3844
 4203ntf    fn424165   6.711   1.750   2.997 -0.1688 -0.2704 -0.0550
 4204ntf    cn124166   3.331   4.434   3.814  0.2344 -0.2317 -0.1216
 4204ntf    sn224167   3.261   4.581   3.735  0.1198 -0.3026 -0.1527
 4204ntf    nn324168   3.224   4.674   3.856  0.0499 -0.7246  0.1493
 4204ntf    sn224169   3.085   4.688   3.928  0.0011 -0.0280 -0.0735
 4204ntf    cn124170   3.030   4.837   3.840  0.5063  0.1782 -0.0460
 4204ntf    fn424171   3.246   4.371   3.893 -0.0352  0.2504 -0.0306
 4204ntf    fn424172   3.357   4.344   3.720  0.5163 -0.4954  0.2027
 4204ntf    fn424173   3.442   4.447   3.885  0.3408 -0.2199 -0.2879
 4204ntf    on524174   3.371   4.638   3.661  0.0369 -0.6504 -0.5426
 4204ntf    on524175   3.151   4.529   3.658 -0.2941  0.1377  0.1328
 4204ntf    on524176   3.095   4.720   4.069 -0.1383  0.0214 -0.0752
 4204ntf    on524177   2.984   4.590   3.899  0.6886 -0.5822 -0.6071
 4204ntf    fn424178   3.017   4.822   3.709 -0.8751 -0.1855  0.1165
 4204ntf    fn424179   2.911   4.872   3.885  0.5670  0.1351  0.1499
 4204ntf    fn424180   3.118   4.934   3.852  0.3282  0.3875 -0.3965
 4205ntf    cn124181   0.788   3.485   5.295  0.1726  0.0200  0.0307
 4205ntf    sn224182   0.865   3.526   5.455  0.2349 -0.0231  0.0118
 4205ntf    nn324183   0.984   3.424   5.453  0.1809 -0.0800 -0.5285
 4205ntf    sn224184   1.027   3.305   5.546 -0.0446  0.1054 -0.1831
 4205ntf    cn124185   0.958   3.157   5.466  0.1348 -0.1038  0.0458
 4205ntf    fn424186   0.736   3.364   5.305  0.7281 -0.2119  0.1342
 4205ntf    fn424187   0.690   3.572   5.278 -0.2408 -0.2962  0.7403
 4205ntf    fn424188   0.868   3.493   5.190  0.5001  0.1638  0.2873
 4205ntf    on524189   0.914   3.658   5.425 -0.2628  0.0051 -0.7119
 4205ntf    on524190   0.761   3.510   5.554  0.1174  0.4642 -0.0288
 4205ntf    on524191   0.969   3.306   5.678  0.0425 -0.1589 -0.1420
 4205ntf    on524192   1.169   3.281   5.533 -0.0736  0.2358 -0.7546
 4205ntf    fn424193   0.993   3.143   5.339 -0.5781 -0.6469 -0.0982
 4205ntf    fn424194   0.992   3.043   5.524 -0.2707 -0.6120 -0.7135
 4205ntf    fn424195   0.826   3.152   5.465  0.1351 -0.0829 -0.1205
 4206ntf    cn124196   0.210   5.639   4.822  0.3980 -0.1362  0.2501
 4206ntf    sn224197   0.237   5.578   4.652  0.3158 -0.1377  0.2380
 4206ntf    nn324198   0.096   5.510   4.642  0.1709  0.2250 -0.2103
 4206ntf    sn224199  -0.021   5.516   4.537 -0.0773  0.0809  0.0562
 4206ntf    cn124200  -0.150   5.455   4.651  0.0490  0.1995  0.2644
 4206ntf    fn424201   0.112   5.728   4.830  0.1863 -0.4390  1.1613
 4206ntf    fn424202   0.194   5.547   4.916 -0.4283  0.0160  0.2653
 4206ntf    fn424203   0.317   5.704   4.863  0.1517  0.2044  0.3543
 4206ntf    on524204   0.251   5.699   4.575 -0.0635 -0.2621 -0.0287
 4206ntf    on524205   0.344   5.483   4.658  0.2862 -0.1761  0.1632
 4206ntf    on524206  -0.014   5.415   4.434 -0.0114  0.1690 -0.0252
 4206ntf    on524207  -0.076   5.645   4.503  0.0259  0.0154 -0.3631
 4206ntf    fn424208  -0.123   5.332   4.690 -0.5363  0.0076  0.0713
 4206ntf    fn424209  -0.158   5.527   4.761 -0.1296  0.0713  0.3348
 4206ntf    fn424210  -0.269   5.457   4.594  0.1773 -0.2404 -0.0240
 4207ntf    cn124211   1.173   6.199   5.780  0.0886  0.3293 -0.6258
 4207ntf    sn224212   1.255   6.037   5.782  0.0729  0.3281 -0.0162
 4207ntf    nn324213   1.308   6.020   5.929 -0.1931  0.0843  0.0543
 4207ntf    sn224214   1.456   6.014   5.980 -0.0995  0.2096 -0.2022
 4207ntf    cn124215   1.490   6.193   5.985  0.2334  0.1349  0.2054
 4207ntf    fn424216   1.070   6.204   5.863  0.0543  0.3983 -0.6723
 4207ntf    fn424217   1.255   6.298   5.810 -0.1750  0.2650  0.3314
 4207ntf    fn424218   1.119   6.224   5.661 -0.2748 -0.2035 -0.5791
 4207ntf    on524219   1.150   5.940   5.755  0.4935 -0.0067 -0.4770
 4207ntf    on524220   1.357   6.057   5.682  0.1551 -0.1907 -0.0386
 4207ntf    on524221   1.557   5.951   5.898  0.6588 -0.0875  0.9346
 4207ntf    on524222   1.448   5.975   6.118 -0.1695  0.0590 -0.2489
 4207ntf    fn424223   1.619   6.216   6.008  0.2685  0.4023 -0.2562
 4207ntf    fn424224   1.466   6.243   5.865  0.0740  0.4096  0.3505
 4207ntf    fn424225   1.421   6.251   6.082  0.2657  0.2775  0.1424
 4208ntf    cn124226   5.223   1.444   1.846  0.5119 -0.7087 -0.0038
 4208ntf    sn224227   5.139   1.340   1.969  0.0339 -0.0900  0.2019
 4208ntf    nn324228   5.112   1.444   2.083 -0.0184  0.2693 -0.1335
 4208ntf    sn224229   4.993   1.544   2.104 -0.2057  0.0795 -0.2871
 4208ntf    cn124230   5.095   1.694   2.098 -0.3363  0.1795 -0.0282
 4208ntf    fn424231   5.329   1.508   1.892  0.1363  0.1113 -0.2495
 4208ntf    fn424232   5.264   1.366   1.748 -0.3350 -0.4812 -0.5478
 4208ntf    fn424233   5.149   1.534   1.783  0.3538 -0.5634  0.3872
 4208ntf    on524234   5.029   1.283   1.895  0.0352 -0.0707  0.1851
 4208ntf    on524235   5.247   1.254   2.010  0.4288  0.4286  0.2578
 4208ntf    on524236   4.942   1.535   2.239 -0.3272 -0.0263 -0.3402
 4208ntf    on524237   4.909   1.563   1.989 -0.0605  0.6581 -0.2999
 4208ntf    fn424238   5.032   1.806   2.132 -0.4936  0.0083  0.2445
 4208ntf    fn424239   5.195   1.687   2.184  0.1223 -0.2001 -0.5863
 4208ntf    fn424240   5.151   1.709   1.979  0.8229 -0.2766  0.4541
 4209ntf    cn124241   1.204   1.856   0.505 -0.0821  0.0912 -0.1899
 4209ntf    sn224242   1.364   1.771   0.515 -0.2685 -0.2285  0.1070
 4209ntf    nn324243   1.454   1.900   0.527  0.4175 -0.7587  0.7791
 4209ntf    sn224244   1.608   1.912   0.499  0.1793 -0.1924 -0.3171
 4209ntf    cn124245   1.621   1.979   0.330  0.0882 -0.1376 -0.3028
 4209ntf    fn424246   1.162   1.894   0.625  0.2666 -0.5699  0.1473
 4209ntf    fn424247   1.210   1.959   0.422 -0.4037 -0.2656 -0.6588
 4209ntf    fn424248   1.108   1.779   0.457 -0.2572  0.0711  0.1845
 4209ntf    on524249   1.348   1.687   0.631 -0.0430 -0.2351  0.1343
 4209ntf    on524250   1.366   1.710   0.385 -0.4672 -0.3231  0.1483
 4209ntf    on524251   1.684   1.790   0.487  0.6722 -0.0109  0.8437
 4209ntf    on524252   1.672   2.012   0.581 -0.4683 -0.3512  0.3932
 4209ntf    fn424253   1.568   1.897   0.240 -0.3139 -0.4058  0.1720
 4209ntf    fn424254   1.564   2.097   0.314  0.5049  0.1748  0.4953
 4209ntf    fn424255   1.745   2.003   0.292 -0.0542  0.6503 -0.2766
 4210ntf    cn124256   2.167   6.099   1.197 -0.0433  0.1616  0.2177
 4210ntf    sn224257   2.238   5.937   1.239 -0.1370  0.0281 -0.1330
 4210ntf    nn324258   2.177   5.858   1.118 -0.0564  0.1963 -0.2848
 4210ntf    sn224259   2.244   5.752   1.024 -0.3206 -0.3089  0.0934
 4210ntf    cn124260   2.195   5.598   1.108 -0.1249 -0.3557  0.1222
 4210ntf    fn424261   2.035   6.089   1.200 -0.0219 -0.4077 -0.4536
 4210ntf    fn424262   2.207   6.187   1.288  0.0686  0.0974  0.2299
 4210ntf    fn424263   2.205   6.141   1.077 -0.1384 -0.2509  0.0419
 4210ntf    on524264   2.378   5.973   1.248 -0.0977 -0.1896  0.1264
 4210ntf    on524265   2.181   5.887   1.362 -0.1564 -0.1504 -0.2145
 4210ntf    on524266   2.388   5.761   1.019 -0.3641  0.0892 -0.4246
 4210ntf    on524267   2.171   5.744   0.900  0.2017  0.2998 -0.2604
 4210ntf    fn424268   2.223   5.596   1.237 -0.1775  0.7160  0.1624
 4210ntf    fn424269   2.065   5.573   1.101 -0.2991  0.3706  0.6810
 4210ntf    fn424270   2.249   5.493   1.049 -0.2244 -0.5330  0.3453
 4211ntf    cn124271   6.096   5.250   1.272  0.1226 -0.0392 -0.2556
 4211ntf    sn224272   6.124   5.073   1.241  0.2633 -0.0058 -0.3241
 4211ntf    nn324273   6.243   5.039   1.336  0.0348  0.5803  0.1748
 4211ntf    sn224274   6.234   4.991   1.485  0.1886  0.1532  0.0472
 4211ntf    cn124275   6.411   4.985   1.527  0.1410 -0.0322  0.2264
 4211ntf    fn424276   6.184   5.328   1.212  0.3254 -0.0036  0.0837
 4211ntf    fn424277   5.978   5.296   1.234 -0.1486 -0.5273 -0.0187
 4211ntf    fn424278   6.113   5.281   1.400 -0.0236  0.5181 -0.3709
 4211ntf    on524279   5.994   5.017   1.272 -0.0866  0.9439 -0.0464
 4211ntf    on524280   6.165   5.082   1.103  0.5563  0.0993 -0.2295
 4211ntf    on524281   6.196   4.852   1.495  0.0500  0.1778 -0.1344
 4211ntf    on524282   6.185   5.088   1.580  0.5643  0.4250 -0.0325
 4211ntf    fn424283   6.482   5.093   1.499  0.4714 -0.4178 -0.4742
 4211ntf    fn424284   6.430   4.957   1.655  0.0174  0.5246  0.3651
 4211ntf    fn424285   6.471   4.887   1.461 -0.6592 -0.1496 -0.3517
 4212ntf    cn124286   0.166   7.000   0.044 -0.0764  0.2564  0.3588
 4212ntf    sn224287   0.091   6.854   0.123  0.2015 -0.0173  0.1181
 4212ntf    nn324288  -0.036   6.927   0.178  0.0331 -0.2932  0.0981
 4212ntf    sn224289  -0.114   6.879   0.306 -0.1939 -0.1106  0.0295
 4212ntf    cn124290  -0.286   6.920   0.266 -0.0098  0.5642 -0.0800
 4212ntf    fn424291   0.297   6.982   0.035 -0.0537  0.3238  0.5532
 4212ntf    fn424292   0.115   7.036  -0.073  0.1276 -0.2690  0.0996
 4212ntf    fn424293   0.156   7.103   0.125 -0.2023  0.1734  0.4491
 4212ntf    on524294   0.083   6.760   0.013  0.2688  0.0725  0.0356
 4212ntf    on524295   0.188   6.816   0.223 -0.0188 -0.7320  0.0679
 4212ntf    on524296  -0.092   6.956   0.425 -0.4540  0.4591 -0.2869
 4212ntf    on524297  -0.115   6.735   0.317 -0.4273 -0.1292 -0.2306
 4212ntf    fn424298  -0.301   7.049   0.239  0.6024  0.6114 -0.2092
 4212ntf    fn424299  -0.332   6.847   0.166 -0.3892  0.1859  0.3636
 4212ntf    fn424300  -0.368   6.897   0.367  0.2962  0.2447  0.0986
 4213ntf    cn124301   4.438   1.907   3.412 -0.2121  0.3959 -0.4497
 4213ntf    sn224302   4.523   2.067   3.412  0.1791  0.1909 -0.2020
 4213ntf    nn324303   4.667   2.018   3.449  0.2707  0.5217 -0.1100
 4213ntf    sn224304   4.804   2.005   3.373  0.3271 -0.3204  0.1148
 4213ntf    cn124305   4.872   1.855   3.449  0.0027 -0.3360  0.3748
 4213ntf    fn424306   4.489   1.807   3.342  0.1768  0.3412 -0.0974
 4213ntf    fn424307   4.424   1.860   3.535 -0.3854  0.0810 -0.5883
 4213ntf    fn424308   4.317   1.931   3.364 -0.3370 -0.0676 -0.3751
 4213ntf    on524309   4.511   2.123   3.280  0.1022  0.5986 -0.0252
 4213ntf    on524310   4.459   2.137   3.521 -0.0606 -0.1342 -0.1333
 4213ntf    on524311   4.892   2.117   3.397  0.2994 -0.2434 -0.1327
 4213ntf    on524312   4.786   1.982   3.232 -0.7494 -0.0533  0.2012
 4213ntf    fn424313   5.002   1.867   3.466 -0.0228  0.5276  0.0222
 4213ntf    fn424314   4.828   1.836   3.572 -0.9074  0.3439  0.1667
 4213ntf    fn424315   4.852   1.743   3.381 -0.4223  0.2562 -0.4886
 4214ntf    cn124316   5.936   0.262   6.396 -0.1972  0.1588  0.1016
 4214ntf    sn224317   5.967   0.173   6.552  0.2229  0.6315  0.2866
 4214ntf    nn324318   5.956   0.289   6.657  0.3015  0.2046  0.7650
 4214ntf    sn224319   5.860   0.300   6.782 -0.1032 -0.0709  0.4826
 4214ntf    cn124320   5.966   0.231   6.912 -0.2708 -0.2237  0.5382
 4214ntf    fn424321   5.980   0.386   6.403  0.5105 -0.0680 -0.2179
 4214ntf    fn424322   5.994   0.208   6.290  0.6861  0.7626  0.2690
 4214ntf    fn424323   5.806   0.268   6.369 -0.1547 -0.2733 -0.2221
 4214ntf    on524324   5.866   0.071   6.560 -0.1653  1.0086  0.2070
 4214ntf    on524325   6.103   0.129   6.531 -0.1173 -0.2876 -0.0352
 4214ntf    on524326   5.740   0.220   6.788 -0.3845  0.3981  1.1283
 4214ntf    on524327   5.858   0.439   6.821  0.9216  0.2101 -0.4139
 4214ntf    fn424328   6.083   0.290   6.927 -0.3316  0.0273  0.0353
 4214ntf    fn424329   5.894   0.234   7.023 -0.4062  0.0590  0.4407
 4214ntf    fn424330   5.992   0.102   6.893  0.1547 -0.1192  0.3874
 4215ntf    cn124331   3.617   1.112   3.764 -0.3043 -0.3017  0.2955
 4215ntf    sn224332   3.552   1.280   3.788 -0.0926 -0.1710 -0.0391
 4215ntf    nn324333   3.510   1.259   3.938  0.2169  0.3508  0.1237
 4215ntf    sn224334   3.369   1.270   4.006 -0.0211 -0.3507 -0.2439
 4215ntf    cn124335   3.433   1.271   4.176 -0.2059  0.0835 -0.1778
 4215ntf    fn424336   3.526   1.023   3.801 -0.1482 -0.5786  0.0244
 4215ntf    fn424337   3.641   1.078   3.638 -0.7807 -0.6258  0.2878
 4215ntf    fn424338   3.726   1.088   3.835  0.2179  0.0744 -0.3681
 4215ntf    on524339   3.668   1.365   3.775 -0.7877  0.7921 -0.0756
 4215ntf    on524340   3.441   1.291   3.697 -0.2298 -0.0648  0.1423
 4215ntf    on524341   3.291   1.149   3.997 -0.2462 -0.2039 -0.2520
 4215ntf    on524342   3.292   1.391   3.998 -0.2341 -0.4853 -0.2122
 4215ntf    fn424343   3.350   1.210   4.259  0.0092 -0.1619 -0.1453
 4215ntf    fn424344   3.555   1.220   4.175 -0.0847  0.3616  0.2137
 4215ntf    fn424345   3.448   1.392   4.228 -0.1580  0.0862 -0.1991
 4216ntf    cn124346   4.892   5.718   0.883 -0.3443 -0.5483 -0.2042
 4216ntf    sn224347   4.891   5.591   1.013  0.0917 -0.2714  0.0721
 4216ntf    nn324348   4.739   5.556   1.028  0.1924 -0.4865  0.6120
 4216ntf    sn224349   4.636   5.631   1.121 -0.0928 -0.0279 -0.0669
 4216ntf    cn124350   4.520   5.705   1.001 -0.0015  0.4338  0.1265
 4216ntf    fn424351   5.012   5.748   0.836 -0.4636 -0.1717 -0.2685
 4216ntf    fn424352   4.818   5.680   0.780 -0.1895 -0.0294 -0.5123
 4216ntf    fn424353   4.837   5.835   0.910  0.2178 -0.2537 -0.3200
 4216ntf    on524354   4.960   5.482   0.948 -0.0115 -0.3157  0.0364
 4216ntf    on524355   4.954   5.661   1.122  0.1294  0.0769 -0.1717
 4216ntf    on524356   4.676   5.740   1.206 -0.3140 -0.0410  0.0528
 4216ntf    on524357   4.547   5.536   1.182  0.2950 -0.0115  0.5306
 4216ntf    fn424358   4.433   5.617   0.953  0.2425  0.0927  0.3007
 4216ntf    fn424359   4.442   5.797   1.053  0.2835  0.2794  0.8457
 4216ntf    fn424360   4.587   5.757   0.900  0.2764 -0.1191  0.0211
 4217ntf    cn124361   0.190   6.644   1.293 -0.2948  0.3780  0.0119
 4217ntf    sn224362   0.207   6.471   1.239 -0.2908  0.3673  0.0455
 4217ntf    nn324363   0.313   6.497   1.127 -0.0993  0.2354  0.1953
 4217ntf    sn224364   0.450   6.424   1.101 -0.1107  0.3051 -0.0653
 4217ntf    cn124365   0.550   6.537   1.202  0.4152 -0.3146  0.1151
 4217ntf    fn424366   0.292   6.712   1.242 -0.2510  0.4336  0.1731
 4217ntf    fn424367   0.082   6.705   1.249  0.0678  0.8551 -0.2285
 4217ntf    fn424368   0.191   6.650   1.425 -0.4162  0.3985  0.0121
 4217ntf    on524369   0.246   6.391   1.353 -0.4370  0.1123 -0.0825
 4217ntf    on524370   0.081   6.442   1.176 -0.2793  0.1336  0.1280
 4217ntf    on524371   0.504   6.448   0.969  0.2093 -0.0583 -0.0016
 4217ntf    on524372   0.472   6.293   1.158 -0.7219  0.0260 -0.4591
 4217ntf    fn424373   0.661   6.477   1.240  0.8430  0.2868 -0.1726
 4217ntf    fn424374   0.589   6.639   1.127 -0.1354 -0.1257  0.0817
 4217ntf    fn424375   0.483   6.583   1.307 -0.1729  0.3779 -0.5526
 4218ntf    cn124376   1.191   5.927   4.812 -0.2478  0.5088 -0.0938
 4218ntf    sn224377   1.155   5.898   4.636 -0.1592 -0.4544  0.0446
 4218ntf    nn324378   1.234   5.765   4.607  0.3082 -0.1552 -0.0543
 4218ntf    sn224379   1.199   5.649   4.508 -0.1746 -0.0088 -0.0557
 4218ntf    cn124380   1.324   5.664   4.377 -0.3112  0.2323 -0.1591
 4218ntf    fn424381   1.149   6.048   4.846  0.0124  0.5857 -0.0479
 4218ntf    fn424382   1.131   5.834   4.884  0.6402 -0.1507 -0.1900
 4218ntf    fn424383   1.321   5.923   4.838 -0.3507  0.2405  0.3873
 4218ntf    on524384   1.011   5.897   4.649 -0.1567  0.0208  0.1176
 4218ntf    on524385   1.217   6.010   4.570 -0.6344 -0.2028  0.0168
 4218ntf    on524386   1.073   5.669   4.441 -0.1620  0.1613 -0.0291
 4218ntf    on524387   1.220   5.522   4.573  0.2025  0.2879  0.4109
 4218ntf    fn424388   1.270   5.621   4.264 -0.9773  0.4988  0.0546
 4218ntf    fn424389   1.353   5.792   4.354  0.4855  0.1786  0.5176
 4218ntf    fn424390   1.436   5.601   4.406 -0.3447  0.5394  0.6548
 4219ntf    cn124391   1.688   0.567   3.377 -0.1541  0.2015 -0.2570
 4219ntf    sn224392   1.575   0.516   3.243  0.1529 -0.1791 -0.3739
 4219ntf    nn324393   1.466   0.449   3.333  0.5038  0.0882  0.2560
 4219ntf    sn224394   1.329   0.508   3.383  0.2898  0.1467 -0.3905
 4219ntf    cn124395   1.371   0.600   3.534 -0.0065 -0.6815  0.2033
 4219ntf    fn424396   1.711   0.470   3.463 -0.8301 -0.3350 -0.6688
 4219ntf    fn424397   1.807   0.609   3.340  0.0512 -0.1568 -0.0114
 4219ntf    fn424398   1.634   0.663   3.450  0.6546  0.2276  0.3127
 4219ntf    on524399   1.534   0.640   3.181  0.1888 -0.0100 -0.0644
 4219ntf    on524400   1.656   0.425   3.166  0.4100 -0.0671 -0.2373
 4219ntf    on524401   1.235   0.413   3.437 -0.2252  0.5086 -0.6425
 4219ntf    on524402   1.272   0.611   3.300  0.0732  0.0528 -0.3589
 4219ntf    fn424403   1.462   0.528   3.598  0.3088 -0.1320  0.3823
 4219ntf    fn424404   1.421   0.722   3.522 -0.5581 -0.4441  0.2830
 4219ntf    fn424405   1.270   0.603   3.619 -0.1118 -0.4179  0.0684
 4220ntf    cn124406   5.485   0.131   0.015 -0.4683 -0.1720  0.0657
 4220ntf    sn224407   5.650   0.148  -0.059 -0.5319  0.3805  0.0422
 4220ntf    nn324408   5.745   0.070   0.039 -0.4222  0.2251 -0.1868
 4220ntf    sn224409   5.798   0.125   0.176  0.1459  0.1862 -0.3888
 4220ntf    cn124410   5.739  -0.016   0.275  0.2390  0.3637 -0.0796
 4220ntf    fn424411   5.388   0.167  -0.067 -0.2419 -0.1691 -0.2014
 4220ntf    fn424412   5.448   0.011   0.057 -0.2496 -0.1083  0.4473
 4220ntf    fn424413   5.476   0.215   0.117 -0.0902  0.0374 -0.0694
 4220ntf    on524414   5.632   0.072  -0.180 -0.0994  0.4371 -0.0586
 4220ntf    on524415   5.667   0.291  -0.066  0.1387  0.3245  0.4349
 4220ntf    on524416   5.730   0.236   0.237 -0.1559 -0.0445 -0.3034
 4220ntf    on524417   5.941   0.117   0.188  0.0577 -0.5984  0.2078
 4220ntf    fn424418   5.784  -0.133   0.234 -0.7111  0.1771 -0.6214
 4220ntf    fn424419   5.777  -0.015   0.402 -0.0893  0.0387  0.0231
 4220ntf    fn424420   5.608  -0.032   0.271  0.2108  0.6921 -0.6332
 4221ntf    cn124421   4.432   2.452   2.035  0.2753  0.1203 -0.0845
 4221ntf    sn224422   4.586   2.450   1.940  0.1843 -0.1067 -0.2266
 4221ntf    nn324423   4.672   2.552   2.022  0.0272  0.3595 -0.6365
 4221ntf    sn224424   4.823   2.551   2.068 -0.2418 -0.3362  0.2664
 4221ntf    cn124425   4.802   2.491   2.238  0.1735  0.3297  0.5539
 4221ntf    fn424426   4.371   2.335   2.027 -0.3530  0.4541 -0.2978
 4221ntf    fn424427   4.447   2.493   2.160 -0.2948  0.0474  0.0131
 4221ntf    fn424428   4.346   2.535   1.978 -0.2523 -0.4642 -0.1489
 4221ntf    on524429   4.622   2.311   1.955 -0.2439 -0.1986 -0.0402
 4221ntf    on524430   4.548   2.503   1.811  0.1408  0.1120 -0.1243
 4221ntf    on524431   4.885   2.680   2.083 -0.4047 -0.2130 -0.0908
 4221ntf    on524432   4.900   2.454   1.995  0.0414 -0.0569  0.1941
 4221ntf    fn424433   4.783   2.361   2.248  0.3835  0.2289 -0.2874
 4221ntf    fn424434   4.909   2.514   2.311  0.2185  0.6054  0.4018
 4221ntf    fn424435   4.705   2.550   2.306 -0.4277  0.1442 -0.1347
 4222ntf    cn124436   1.515   1.650   6.816  0.3311 -0.1761 -0.1725
 4222ntf    sn224437   1.376   1.532   6.819 -0.0390  0.2639  0.1240
 4222ntf    nn324438   1.390   1.482   6.671 -0.3635 -0.2747  0.2724
 4222ntf    sn224439   1.488   1.375   6.613  0.2379  0.1868  0.4259
 4222ntf    cn124440   1.509   1.451   6.450 -0.4793 -0.3697  0.0679
 4222ntf    fn424441   1.631   1.586   6.826  0.2624 -0.2600  0.0945
 4222ntf    fn424442   1.518   1.736   6.716  1.0105 -0.4431 -0.3877
 4222ntf    fn424443   1.505   1.715   6.931  0.5180 -0.3409 -0.0620
 4222ntf    on524444   1.405   1.433   6.920 -0.5328  0.0142  0.0219
 4222ntf    on524445   1.264   1.621   6.834 -0.3756 -0.2042  0.4074
 4222ntf    on524446   1.426   1.249   6.581  0.3600  0.3629 -0.5165
 4222ntf    on524447   1.624   1.368   6.662  0.5633 -0.5240 -0.5451
 4222ntf    fn424448   1.593   1.553   6.454 -0.3133 -0.5229  0.4610
 4222ntf    fn424449   1.553   1.362   6.363 -0.3796 -0.1761 -0.0806
 4222ntf    fn424450   1.404   1.509   6.394 -0.4449  0.2885  0.6689
 4223ntf    cn124451   3.300   4.637   5.221  0.2926 -0.3308  0.1284
 4223ntf    sn224452   3.280   4.552   5.062 -0.2996 -0.0989  0.0774
 4223ntf    nn324453   3.294   4.406   5.119  0.1197  0.0257  0.2998
 4223ntf    sn224454   3.419   4.312   5.106  0.0741  0.0290 -0.1813
 4223ntf    cn124455   3.462   4.307   4.929  0.2679 -0.4358 -0.1236
 4223ntf    fn424456   3.198   4.611   5.302 -0.1763  0.4849 -0.2005
 4223ntf    fn424457   3.405   4.593   5.290  0.0377 -0.2709  0.5619
 4223ntf    fn424458   3.309   4.768   5.216 -0.4919 -0.2941 -0.3531
 4223ntf    on524459   3.144   4.586   5.030 -0.3748 -0.1474  0.3417
 4223ntf    on524460   3.387   4.606   4.982 -0.2152  0.0500  0.2899
 4223ntf    on524461   3.386   4.174   5.130 -0.6233  0.3078  0.5105
 4223ntf    on524462   3.534   4.362   5.177 -0.3719 -0.2210  0.7231
 4223ntf    fn424463   3.521   4.421   4.896  0.4415 -0.2513  0.7942
 4223ntf    fn424464   3.544   4.208   4.899  0.2762 -0.4753  0.0309
 4223ntf    fn424465   3.354   4.302   4.852  0.2353 -0.2232 -0.0931
 4224ntf    cn124466   5.755   5.473   0.654  0.0174  0.2182 -0.1513
 4224ntf    sn224467   5.685   5.408   0.499 -0.0694  0.0188 -0.0298
 4224ntf    nn324468   5.575   5.317   0.564  0.1849 -0.6399 -0.5056
 4224ntf    sn224469   5.500   5.204   0.486 -0.1052 -0.4251 -0.5416
 4224ntf    cn124470   5.610   5.063   0.520  0.3732  0.1038  0.1242
 4224ntf    fn424471   5.840   5.392   0.716 -0.4024 -0.3258 -0.2723
 4224ntf    fn424472   5.827   5.583   0.643  0.1585  0.1539  0.1288
 4224ntf    fn424473   5.661   5.505   0.741  0.3682  0.5405  0.1099
 4224ntf    on524474   5.636   5.536   0.453 -0.9583 -0.3097  0.0023
 4224ntf    on524475   5.798   5.352   0.428  0.2968  0.7914 -0.0678
 4224ntf    on524476   5.497   5.215   0.342 -0.5534  0.7597 -0.4476
 4224ntf    on524477   5.378   5.164   0.550 -0.2621  0.1976 -0.4471
 4224ntf    fn424478   5.571   4.944   0.478  0.5004  0.0708  0.0973
 4224ntf    fn424479   5.722   5.076   0.450 -0.1924  0.4377 -0.7443
 4224ntf    fn424480   5.650   5.065   0.646  0.0953  0.4220  0.2074
 4225ntf    cn124481   2.261   4.537   0.327 -0.0208  0.0797  0.5194
 4225ntf    sn224482   2.136   4.534   0.459 -0.2357  0.0859  0.3162
 4225ntf    nn324483   2.153   4.384   0.502  0.1733 -0.0446 -0.2771
 4225ntf    sn224484   2.171   4.334   0.650 -0.1778  0.1294 -0.1743
 4225ntf    cn124485   2.351   4.348   0.663 -0.1811 -0.0849  0.1234
 4225ntf    fn424486   2.307   4.655   0.288 -0.2941 -0.0077 -0.0710
 4225ntf    fn424487   2.372   4.471   0.356 -0.1615 -0.6198 -0.5010
 4225ntf    fn424488   2.207   4.491   0.215 -0.0386  0.2125  0.4733
 4225ntf    on524489   2.198   4.637   0.539 -0.4834 -0.0470  0.6798
 4225ntf    on524490   2.010   4.566   0.397 -0.0698 -0.0752 -0.1069
 4225ntf    on524491   2.149   4.192   0.661 -0.0923  0.1606  0.4075
 4225ntf    on524492   2.131   4.419   0.760  0.2608  0.3084 -0.1520
 4225ntf    fn424493   2.401   4.324   0.783 -0.3335  0.4247  0.2872
 4225ntf    fn424494   2.405   4.257   0.582 -0.0697  0.2446 -0.1768
 4225ntf    fn424495   2.410   4.460   0.624  0.1700 -0.2093  0.2909
 4226ntf    cn124496   3.726   5.413   2.999 -0.0161  0.5515  0.2645
 4226ntf    sn224497   3.699   5.467   2.828 -0.2644 -0.0988  0.0959
 4226ntf    nn324498   3.545   5.500   2.827 -0.2907 -0.2258 -0.1237
 4226ntf    sn224499   3.444   5.472   2.710 -0.1450 -0.0493 -0.2920
 4226ntf    cn124500   3.389   5.643   2.681  0.0170  0.0354 -0.1061
 4226ntf    fn424501   3.672   5.294   3.024 -0.0976  0.4689 -0.2893
 4226ntf    fn424502   3.854   5.393   3.025 -0.0304  0.4886  0.2874
 4226ntf    fn424503   3.680   5.499   3.088 -0.3142  0.1290  0.5253
 4226ntf    on524504   3.788   5.580   2.826  0.1490 -0.4230 -0.0547
 4226ntf    on524505   3.738   5.352   2.750 -0.3578 -0.0189 -0.0682
 4226ntf    on524506   3.328   5.405   2.762 -0.2435  0.4152  0.0953
 4226ntf    on524507   3.498   5.427   2.584  0.0901 -0.1108 -0.1702
 4226ntf    fn424508   3.299   5.649   2.584 -0.4290 -0.2634  0.2868
 4226ntf    fn424509   3.328   5.692   2.787  0.2249  0.4549 -0.1787
 4226ntf    fn424510   3.492   5.720   2.649 -0.2706  0.2771 -0.4585
 4227ntf    cn124511   1.959   5.586   3.551 -0.0376 -0.0346  0.0388
 4227ntf    sn224512   1.959   5.750   3.629  0.0142  0.0519 -0.1444
 4227ntf    nn324513   2.001   5.844   3.510 -0.1348  0.1527 -0.1171
 4227ntf    sn224514   1.979   5.997   3.480  0.2421  0.2132 -0.0872
 4227ntf    cn124515   2.144   6.070   3.505  0.2860 -0.0472  0.3987
 4227ntf    fn424516   1.897   5.592   3.434  0.6478 -0.0117 -0.3307
 4227ntf    fn424517   2.078   5.535   3.524 -0.1940 -0.2947 -0.1676
 4227ntf    fn424518   1.899   5.492   3.622 -0.2842  0.0038 -0.1150
 4227ntf    on524519   1.823   5.769   3.672 -0.1035 -0.2076 -0.3992
 4227ntf    on524520   2.054   5.731   3.736  0.2705  0.6832 -0.2537
 4227ntf    on524521   1.900   6.064   3.580 -0.0261 -0.5808  0.2474
 4227ntf    on524522   1.956   6.022   3.340  0.1855 -0.7755 -0.2652
 4227ntf    fn424523   2.184   6.059   3.631 -0.4791 -0.3806  0.6225
 4227ntf    fn424524   2.231   6.023   3.417  0.5557  0.4650  0.3910
 4227ntf    fn424525   2.147   6.201   3.489  0.2932 -0.0801  0.1285
 4228ntf    cn124526   1.195   5.156   1.066  0.1495 -0.1798 -0.4070
 4228ntf    sn224527   1.046   5.051   1.080  0.3046 -0.2949  0.4346
 4228ntf    nn324528   0.988   5.075   1.224 -0.2526 -0.2957  0.2104
 4228ntf    sn224529   0.887   5.188   1.265  0.1853  0.1728  0.0095
 4228ntf    cn124530   0.959   5.242   1.422  0.6815 -0.2307 -0.0797
 4228ntf    fn424531   1.240   5.144   0.942  0.5436 -0.3283 -0.2516
 4228ntf    fn424532   1.174   5.284   1.091  0.1260 -0.3316  0.3695
 4228ntf    fn424533   1.298   5.125   1.143  0.0479 -0.2043 -0.2786
 4228ntf    on524534   0.963   5.108   0.977  0.7368 -0.6040 -0.0917
 4228ntf    on524535   1.089   4.917   1.049 -0.1688 -0.3950  0.2034
 4228ntf    on524536   0.759   5.133   1.300  0.3267  0.3973  0.8961
 4228ntf    on524537   0.883   5.314   1.194  0.7907  0.5463  0.6313
 4228ntf    fn424538   0.936   5.159   1.523 -0.2228 -0.0215 -0.1114
 4228ntf    fn424539   1.092   5.248   1.420  0.6544  0.3187 -0.3134
 4228ntf    fn424540   0.920   5.365   1.450 -0.3987 -0.4852 -0.4265
 4229ntf    cn124541   5.674   4.172   5.152  0.6826  0.0332  0.2209
 4229ntf    sn224542   5.669   4.353   5.167 -0.2996  0.0226  0.0994
 4229ntf    nn324543   5.604   4.373   5.309 -0.0670  0.4006  0.1527
 4229ntf    sn224544   5.632   4.480   5.420  0.1724  0.1333  0.3533
 4229ntf    cn124545   5.465   4.507   5.488 -0.0847 -0.2189 -0.1358
 4229ntf    fn424546   5.554   4.116   5.166  0.8834 -0.4035  0.2163
 4229ntf    fn424547   5.730   4.134   5.038 -0.0797 -0.3192 -0.0475
 4229ntf    fn424548   5.744   4.113   5.247  0.8012 -0.0831  0.0626
 4229ntf    on524549   5.808   4.390   5.156 -0.2218 -0.0746  0.6762
 4229ntf    on524550   5.578   4.401   5.066  0.4379  0.1157 -0.5239
 4229ntf    on524551   5.673   4.613   5.382 -0.0457  0.0296 -0.2482
 4229ntf    on524552   5.700   4.422   5.533  0.0047 -0.4659  0.1470
 4229ntf    fn424553   5.385   4.560   5.397 -0.0542  0.1684  0.0634
 4229ntf    fn424554   5.414   4.392   5.528 -0.0181 -0.2934 -0.2636
 4229ntf    fn424555   5.468   4.584   5.595 -0.3916 -0.2011 -0.1397
 4230ntf    cn124556   6.401   5.430   4.068  0.2512  0.0152 -0.3676
 4230ntf    sn224557   6.555   5.360   4.000  0.3063  0.0538 -0.2821
 4230ntf    nn324558   6.650   5.372   4.125  0.0355 -0.4136 -0.0265
 4230ntf    sn224559   6.711   5.261   4.217  0.2755 -0.2450  0.0182
 4230ntf    cn124560   6.714   5.336   4.383 -0.1186  0.3821 -0.2525
 4230ntf    fn424561   6.421   5.560   4.077 -0.2986  0.0779 -0.0566
 4230ntf    fn424562   6.290   5.410   3.998  0.0318 -0.4498  0.1026
 4230ntf    fn424563   6.359   5.390   4.187  0.7979 -0.3496 -0.2898
 4230ntf    on524564   6.519   5.224   3.968 -0.4309  0.0888  0.3633
 4230ntf    on524565   6.597   5.451   3.897  0.1107  0.0643 -0.3535
 4230ntf    on524566   6.851   5.247   4.185  0.3821  0.0541  0.3435
 4230ntf    on524567   6.633   5.140   4.231 -0.0298 -0.0145  0.3489
 4230ntf    fn424568   6.794   5.441   4.392 -0.0421  0.2831  0.2657
 4230ntf    fn424569   6.595   5.376   4.422 -0.1699 -0.0281  0.0146
 4230ntf    fn424570   6.764   5.250   4.471  0.1838  0.3190 -0.4807
 4231ntf    cn124571   3.603   6.004   3.565  0.1092  0.2656  0.4032
 4231ntf    sn224572   3.508   5.880   3.472 -0.1047  0.4417  0.3842
 4231ntf    nn324573   3.368   5.949   3.472 -0.2058  0.2423 -0.1508
 4231ntf    sn224574   3.313   6.060   3.375 -0.4794  0.2924  0.0576
 4231ntf    cn124575   3.261   6.191   3.490 -0.2642  0.6359 -0.2310
 4231ntf    fn424576   3.528   6.013   3.674  0.2588 -0.3296  0.5575
 4231ntf    fn424577   3.725   5.967   3.601  0.0934 -0.3847 -0.1852
 4231ntf    fn424578   3.601   6.123   3.507 -0.2806  0.0616 -0.0037
 4231ntf    on524579   3.570   5.862   3.343 -0.5336 -0.0777  0.2464
 4231ntf    on524580   3.509   5.766   3.561  0.0701  0.2177  0.0948
 4231ntf    on524581   3.191   6.019   3.311 -0.0888  0.0302 -0.5346
 4231ntf    on524582   3.405   6.131   3.289 -0.3534  0.1986  0.1141
 4231ntf    fn424583   3.353   6.246   3.567 -0.1763 -0.1766  0.2681
 4231ntf    fn424584   3.216   6.295   3.421 -0.2866  0.6165 -0.2457
 4231ntf    fn424585   3.157   6.153   3.563 -0.3222  0.3066 -0.4769
 4232ntf    cn124586   6.509   6.424   4.030  0.0122  0.2576  0.4747
 4232ntf    sn224587   6.372   6.305   4.017  0.0842  0.2403 -0.1417
 4232ntf    nn324588   6.404   6.230   4.151  0.8883 -0.0808 -0.5049
 4232ntf    sn224589   6.427   6.078   4.183  0.0265 -0.2175 -0.5004
 4232ntf    cn124590   6.586   6.067   4.271 -0.1324 -0.0378 -0.1884
 4232ntf    fn424591   6.521   6.482   3.912 -0.1519 -0.0994  0.2830
 4232ntf    fn424592   6.487   6.519   4.120  0.1765  0.4833  0.2800
 4232ntf    fn424593   6.623   6.362   4.053 -0.0445  0.2606  0.7706
 4232ntf    on524594   6.261   6.396   4.029 -0.1389 -0.0169 -0.2271
 4232ntf    on524595   6.393   6.231   3.895  0.0801 -0.3852  0.2319
 4232ntf    on524596   6.450   5.991   4.071  0.5351 -0.4585 -0.2146
 4232ntf    on524597   6.336   6.037   4.288  0.2209 -0.2230 -0.3334
 4232ntf    fn424598   6.574   6.141   4.381 -0.3401  0.6676 -0.6778
 4232ntf    fn424599   6.612   5.943   4.309  0.3448  0.2791  0.5412
 4232ntf    fn424600   6.690   6.116   4.205 -0.4185  0.9481  0.0725
 4233ntf    cn124601   2.430   1.659   3.525  0.2685 -0.0241 -0.2371
 4233ntf    sn224602   2.444   1.511   3.630 -0.1811 -0.0141 -0.1631
 4233ntf    nn324603   2.573   1.447   3.567 -0.2228 -0.0216 -0.2421
 4233ntf    sn224604   2.612   1.295   3.568  0.0240  0.0416  0.1922
 4233ntf    cn124605   2.529   1.257   3.411  0.1503 -0.1009  0.1600
 4233ntf    fn424606   2.535   1.740   3.522  0.0209  0.3188  0.2610
 4233ntf    fn424607   2.398   1.627   3.401  0.0126 -0.0746 -0.1574
 4233ntf    fn424608   2.338   1.743   3.568 -0.0554 -0.4107 -0.1688
 4233ntf    on524609   2.466   1.552   3.766 -0.3469 -0.2727 -0.0589
 4233ntf    on524610   2.321   1.441   3.603 -0.2953  0.1809 -0.1491
 4233ntf    on524611   2.538   1.219   3.667 -0.6266 -0.1942 -0.4638
 4233ntf    on524612   2.748   1.257   3.539  0.0318  0.0008  0.2841
 4233ntf    fn424613   2.399   1.283   3.408  0.2612  0.4285 -0.0197
 4233ntf    fn424614   2.580   1.329   3.313 -0.4396  0.2150  0.0768
 4233ntf    fn424615   2.542   1.129   3.381 -0.5439 -0.1839  0.1822
 4234ntf    cn124616   0.518   5.176   7.119  0.4469  0.0931  0.4183
 4234ntf    sn224617   0.521   5.047   7.248  0.0761 -0.3444 -0.0064
 4234ntf    nn324618   0.672   5.007   7.258  0.1812 -0.0055 -0.2322
 4234ntf    sn224619   0.741   4.878   7.201 -0.2537 -0.1886 -0.3456
 4234ntf    cn124620   0.711   4.770   7.344  0.1208 -0.0178 -0.1362
 4234ntf    fn424621   0.566   5.293   7.155  0.4776  0.2875 -0.2525
 4234ntf    fn424622   0.598   5.124   7.027  0.0643  0.0041  0.1350
 4234ntf    fn424623   0.397   5.186   7.067  0.6560  0.2026 -0.0493
 4234ntf    on524624   0.474   5.119   7.364 -0.1433  0.2158 -0.4366
 4234ntf    on524625   0.431   4.941   7.210  0.1923 -0.3816 -0.1765
 4234ntf    on524626   0.885   4.891   7.202 -0.2720  0.0057  0.1752
 4234ntf    on524627   0.692   4.814   7.082 -0.0753 -0.4453 -0.2832
 4234ntf    fn424628   0.726   4.838   7.456 -0.3446  0.5185 -0.3987
 4234ntf    fn424629   0.584   4.735   7.344 -0.0422  0.5747  0.1839
 4234ntf    fn424630   0.780   4.657   7.352  0.1316 -0.0007  0.0160
 4235ntf    cn124631   3.039   7.099   3.338  0.1535 -0.0584 -0.1055
 4235ntf    sn224632   2.906   7.004   3.419  0.1433  0.0861  0.0487
 4235ntf    nn324633   2.797   6.998   3.306  0.1978 -0.0037  0.0001
 4235ntf    sn224634   2.750   6.882   3.212  0.0821  0.2337 -0.2378
 4235ntf    cn124635   2.591   6.843   3.291  0.1049  0.0760 -0.2676
 4235ntf    fn424636   3.055   7.051   3.216  0.1079 -0.2462 -0.0384
 4235ntf    fn424637   3.000   7.225   3.326  0.1148 -0.0080  0.5257
 4235ntf    fn424638   3.154   7.100   3.403  0.3417  0.3721 -0.4403
 4235ntf    on524639   2.985   6.886   3.445  0.1908  0.2722  0.7578
 4235ntf    on524640   2.871   7.092   3.527  0.2277 -0.0292  0.1705
 4235ntf    on524641   2.823   6.758   3.204  0.3841  0.3914  0.0373
 4235ntf    on524642   2.712   6.940   3.086 -0.1650 -0.1784 -0.3552
 4235ntf    fn424643   2.539   6.733   3.240 -0.2967 -0.0034  0.2988
 4235ntf    fn424644   2.605   6.826   3.422 -0.7626  0.2964 -0.1338
 4235ntf    fn424645   2.504   6.942   3.277  0.2670  0.2386 -0.1309
 4236ntf    cn124646   4.788   6.314   6.142  0.0347  0.1723 -0.2626
 4236ntf    sn224647   4.724   6.304   5.972 -0.1252 -0.6511 -0.1554
 4236ntf    nn324648   4.735   6.455   5.932 -0.3370 -0.5486  0.1689
 4236ntf    sn224649   4.642   6.569   5.988 -0.0478 -0.1297 -0.1983
 4236ntf    cn124650   4.547   6.607   5.838  0.0400 -0.2942 -0.2962
 4236ntf    fn424651   4.914   6.355   6.151  0.1401 -0.2209  0.0913
 4236ntf    fn424652   4.721   6.395   6.222  0.1572  0.2153 -0.2026
 4236ntf    fn424653   4.782   6.200   6.208  0.0954  0.2142 -0.1841
 4236ntf    on524654   4.816   6.221   5.898  0.1242 -0.4507 -0.0690
 4236ntf    on524655   4.590   6.253   5.990 -0.1884 -0.3634  0.2201
 4236ntf    on524656   4.708   6.695   6.012  0.5994 -0.3211 -0.9223
 4236ntf    on524657   4.537   6.522   6.075 -0.1730  0.0194 -0.2673
 4236ntf    fn424658   4.471   6.715   5.851 -0.1961 -0.4575 -0.3152
 4236ntf    fn424659   4.627   6.635   5.736  0.2266  0.1948 -0.0200
 4236ntf    fn424660   4.473   6.505   5.798 -0.3397  0.0206 -0.4091
 4237ntf    cn124661   1.752   2.920   0.240 -0.1099 -0.0162  0.0929
 4237ntf    sn224662   1.673   3.023   0.368 -0.1417  0.2674 -0.1540
 4237ntf    nn324663   1.792   3.124   0.385  0.2881 -0.1525 -0.6118
 4237ntf    sn224664   1.916   3.122   0.481 -0.3028  0.4253  0.1751
 4237ntf    cn124665   2.039   3.212   0.382 -0.1137 -0.1891 -0.1555
 4237ntf    fn424666   1.812   2.994   0.149 -0.2158  0.1943  0.1928
 4237ntf    fn424667   1.849   2.840   0.281 -0.0456  0.1366  0.2353
 4237ntf    fn424668   1.663   2.851   0.169  0.2282 -0.0292 -0.3208
 4237ntf    on524669   1.562   3.086   0.301 -0.4352 -0.0199  0.0579
 4237ntf    on524670   1.645   2.929   0.473  0.4387 -0.1741 -0.3844
 4237ntf    on524671   1.983   2.996   0.498 -0.7087  0.1355 -0.3577
 4237ntf    on524672   1.902   3.201   0.601  0.1037 -0.0483  0.5367
 4237ntf    fn424673   2.087   3.143   0.280 -0.0398  0.4991 -0.5964
 4237ntf    fn424674   2.001   3.328   0.330  0.1193 -0.0244  0.0348
 4237ntf    fn424675   2.149   3.243   0.449 -0.3517  0.3720 -0.0132
 4238ntf    cn124676   6.147   2.325   6.658 -0.3048 -0.0945  0.1487
 4238ntf    sn224677   5.986   2.404   6.629  0.0792  0.6805  0.0687
 4238ntf    nn324678   5.883   2.286   6.614 -0.3755  1.1427 -0.4967
 4238ntf    sn224679   5.770   2.267   6.506 -0.2455 -0.0878 -0.4394
 4238ntf    cn124680   5.695   2.432   6.516  0.1660  0.0472  0.5736
 4238ntf    fn424681   6.252   2.399   6.694  0.0882 -0.7610  0.3862
 4238ntf    fn424682   6.136   2.240   6.758 -0.0557  0.0715  0.3194
 4238ntf    fn424683   6.194   2.243   6.565 -0.0422  0.7779 -0.5125
 4238ntf    on524684   5.964   2.465   6.758  0.1586  0.7731  0.0380
 4238ntf    on524685   6.003   2.497   6.521 -0.3479  0.9798  0.2552
 4238ntf    on524686   5.669   2.173   6.547 -0.1922 -0.1575 -0.4684
 4238ntf    on524687   5.813   2.254   6.369  0.0044  0.2613 -0.3970
 4238ntf    fn424688   5.568   2.430   6.477  0.2893  0.4898  0.1341
 4238ntf    fn424689   5.696   2.484   6.638 -0.0288  0.2724  0.4816
 4238ntf    fn424690   5.752   2.517   6.432 -0.0627 -0.5861 -0.2287
 4239ntf    cn124691   3.753   7.204   3.993 -0.1075 -0.1878  0.0081
 4239ntf    sn224692   3.834   7.102   3.867 -0.1267 -0.0121 -0.1464
 4239ntf    nn324693   3.908   6.982   3.935  0.0195  0.4355  0.4913
 4239ntf    sn224694   3.833   6.856   3.991  0.4523  0.0605  0.2282
 4239ntf    cn124695   3.819   6.744   3.848  0.0255  0.0581  0.2698
 4239ntf    fn424696   3.734   7.324   3.939 -0.3888 -0.1585  0.1666
 4239ntf    fn424697   3.645   7.148   4.045 -0.0860 -0.5981 -0.3913
 4239ntf    fn424698   3.837   7.220   4.094 -0.0243 -0.1066 -0.0728
 4239ntf    on524699   3.724   7.073   3.777 -0.0664 -1.0262  0.0946
 4239ntf    on524700   3.931   7.191   3.809 -0.2209  0.1420 -0.0673
 4239ntf    on524701   3.697   6.871   4.035  0.4636  0.0573  0.2643
 4239ntf    on524702   3.917   6.773   4.074 -0.4508 -0.6424  0.4554
 4239ntf    fn424703   3.759   6.627   3.865 -0.2447  0.1980  0.2792
 4239ntf    fn424704   3.754   6.809   3.753 -0.2250  0.3373  0.6293
 4239ntf    fn424705   3.933   6.701   3.795 -0.1995 -0.4152  0.1592
 4240ntf    cn124706   5.852   6.614   4.741 -0.2218  0.0639  0.0649
 4240ntf    sn224707   5.736   6.556   4.614 -0.1567 -0.1540  0.1057
 4240ntf    nn324708   5.633   6.470   4.696 -0.3033 -0.0966 -0.0169
 4240ntf    sn224709   5.546   6.342   4.671 -0.4724  0.0440 -0.1479
 4240ntf    cn124710   5.379   6.414   4.673 -0.3295  0.3759 -0.0076
 4240ntf    fn424711   5.909   6.527   4.823  0.0507  0.2847  0.1125
 4240ntf    fn424712   5.955   6.663   4.673  0.0319  0.0374  0.4250
 4240ntf    fn424713   5.810   6.720   4.810 -0.5820 -0.0360  0.0010
 4240ntf    on524714   5.686   6.681   4.564 -0.5187 -0.3837 -0.1143
 4240ntf    on524715   5.818   6.481   4.522 -0.5171 -0.1705 -0.2043
 4240ntf    on524716   5.549   6.254   4.786  0.2794  0.3518  0.0760
 4240ntf    on524717   5.573   6.282   4.543 -0.1042  0.1595 -0.1272
 4240ntf    fn424718   5.345   6.434   4.799 -0.3499  0.1449  0.0242
 4240ntf    fn424719   5.371   6.533   4.618 -0.1092  0.2760 -0.2591
 4240ntf    fn424720   5.283   6.337   4.624 -0.1604  0.0616  0.1475
 4241ntf    cn124721   0.139   3.779   6.349 -0.1129 -0.5030 -0.3378
 4241ntf    sn224722   0.296   3.867   6.375 -0.3198 -0.1244 -0.3633
 4241ntf    nn324723   0.256   4.017   6.351 -0.5796 -0.1288  0.0544
 4241ntf    sn224724   0.258   4.131   6.459  0.0352  0.0780 -0.1751
 4241ntf    cn124725   0.275   4.280   6.356 -0.2102  0.1634 -0.0925
 4241ntf    fn424726   0.153   3.648   6.357  0.2312 -0.4755 -0.4366
 4241ntf    fn424727   0.057   3.817   6.446 -0.0539 -0.4876 -0.2937
 4241ntf    fn424728   0.074   3.811   6.238 -0.3824 -0.4263 -0.1587
 4241ntf    on524729   0.331   3.831   6.510 -0.0063 -0.7796 -0.6134
 4241ntf    on524730   0.382   3.812   6.273 -0.2389 -0.8745  0.1086
 4241ntf    on524731   0.374   4.137   6.545 -0.2962  0.1896  0.2665
 4241ntf    on524732   0.128   4.150   6.519  0.0056 -0.2297 -0.1419
 4241ntf    fn424733   0.286   4.384   6.436  0.3255 -0.4118  0.5989
 4241ntf    fn424734   0.384   4.277   6.281  0.0857 -0.2077  0.3439
 4241ntf    fn424735   0.169   4.301   6.280 -0.0113  0.1525 -0.3767
 4242ntf    cn124736   0.416   7.057   1.032  0.2038  0.1748  0.3586
 4242ntf    sn224737   0.265   7.154   1.057 -0.1320 -0.2488 -0.0214
 4242ntf    nn324738   0.159   7.038   1.052  0.2366 -0.5792 -0.2435
 4242ntf    sn224739   0.063   7.015   0.931  0.1933 -0.0928 -0.3041
 4242ntf    cn124740  -0.055   7.153   0.940  0.1113 -0.1774 -0.0754
 4242ntf    fn424741   0.436   6.969   1.128  0.1394  0.0942  0.2986
 4242ntf    fn424742   0.406   6.996   0.914 -0.3809  0.8544  0.0537
 4242ntf    fn424743   0.527   7.130   1.026  0.4376 -0.2037 -0.0698
 4242ntf    on524744   0.284   7.204   1.190 -0.4421 -0.6466  0.1758
 4242ntf    on524745   0.251   7.247   0.948 -0.9299 -0.5527 -0.1916
 4242ntf    on524746  -0.025   6.902   0.948  0.0140  0.0954  0.0257
 4242ntf    on524747   0.112   7.023   0.795  0.0917  0.0425 -0.3328
 4242ntf    fn424748  -0.019   7.263   0.876  0.0356  0.0186  0.2136
 4242ntf    fn424749  -0.171   7.115   0.890 -0.3819  0.7089  0.3788
 4242ntf    fn424750  -0.079   7.189   1.065 -0.1367 -0.2406 -0.1053
 4243ntf    cn124751   6.674   5.730   5.513 -0.3848 -0.1275  0.1967
 4243ntf    sn224752   6.735   5.578   5.434  0.1412  0.1715  0.0181
 4243ntf    nn324753   6.785   5.631   5.295  0.0909  0.2673  0.0369
 4243ntf    sn224754   6.916   5.714   5.271  0.2835 -0.1280 -0.2813
 4243ntf    cn124755   7.020   5.596   5.180  0.5842  0.0328 -0.1452
 4243ntf    fn424756   6.545   5.753   5.493 -0.3007  0.0653 -0.1289
 4243ntf    fn424757   6.686   5.717   5.644 -0.6826 -0.6190  0.1762
 4243ntf    fn424758   6.739   5.840   5.479 -0.7024 -0.0833 -0.2770
 4243ntf    on524759   6.843   5.520   5.510 -0.0569  0.3262  0.4229
 4243ntf    on524760   6.616   5.496   5.423  0.5333 -0.3326 -0.5064
 4243ntf    on524761   6.990   5.747   5.390 -0.0045 -0.0662 -0.1195
 4243ntf    on524762   6.899   5.818   5.172  0.1800  0.4555  0.3428
 4243ntf    fn424763   6.960   5.562   5.067 -0.3778  0.1430  0.3260
 4243ntf    fn424764   7.133   5.641   5.128  0.5673 -0.1267 -0.3241
 4243ntf    fn424765   7.032   5.490   5.258 -0.3615  0.0266 -0.0056
 4244ntf    cn124766   3.138   6.666   4.787  0.2530 -0.1413 -0.0346
 4244ntf    sn224767   3.230   6.662   4.944 -0.0578  0.0898  0.1566
 4244ntf    nn324768   3.347   6.761   4.911  0.0839 -0.0761  0.1525
 4244ntf    sn224769   3.372   6.904   4.971 -0.0656  0.1023 -0.2046
 4244ntf    cn124770   3.485   6.848   5.101  0.2549  0.6320 -0.2516
 4244ntf    fn424771   3.127   6.786   4.734 -0.2696 -0.1005  0.1597
 4244ntf    fn424772   3.194   6.588   4.696 -0.1852 -0.3754 -0.1062
 4244ntf    fn424773   3.018   6.616   4.813  0.1088  0.1100 -0.2101
 4244ntf    on524774   3.132   6.693   5.045  0.1716 -0.5486  0.5882
 4244ntf    on524775   3.286   6.529   4.939 -0.3352 -0.0261  0.1188
 4244ntf    on524776   3.261   6.964   5.042 -0.1429 -0.2270 -0.0462
 4244ntf    on524777   3.457   6.980   4.883 -0.0683 -0.0597 -0.3467
 4244ntf    fn424778   3.485   6.923   5.210 -0.0519 -0.0725  0.2398
 4244ntf    fn424779   3.446   6.731   5.150 -0.0117  0.8053 -0.0519
 4244ntf    fn424780   3.609   6.840   5.054  0.1980  0.4992 -0.3780
 4245ntf    cn124781   5.337   4.948   3.211  0.0130  0.2871  0.3888
 4245ntf    sn224782   5.380   4.781   3.156  0.2182  0.5075 -0.1302
 4245ntf    nn324783   5.420   4.713   3.292 -0.1942 -0.5044 -0.5056
 4245ntf    sn224784   5.314   4.637   3.379 -0.0607  0.0913  0.1862
 4245ntf    cn124785   5.342   4.461   3.342  0.2551  0.2023 -0.1134
 4245ntf    fn424786   5.443   5.010   3.261  0.0795  0.1284  0.4422
 4245ntf    fn424787   5.282   5.011   3.108 -0.8208 -0.1885  0.5369
 4245ntf    fn424788   5.250   4.947   3.310 -0.2003  0.0619  0.1972
 4245ntf    on524789   5.265   4.728   3.087  0.6434 -0.4195 -0.1463
 4245ntf    on524790   5.496   4.807   3.074  0.1966  0.2733 -0.2381
 4245ntf    on524791   5.176   4.663   3.346 -0.0537 -0.1414 -0.0324
 4245ntf    on524792   5.346   4.638   3.519  0.4249 -0.4665  0.0842
 4245ntf    fn424793   5.309   4.381   3.442  0.2427  0.2472 -0.0817
 4245ntf    fn424794   5.291   4.411   3.230  0.2915 -0.3407  0.1072
 4245ntf    fn424795   5.473   4.450   3.331  0.2235 -0.2056 -0.1066
 4246ntf    cn124796   2.925   0.820   2.217  0.0013 -0.1540  0.1188
 4246ntf    sn224797   2.744   0.802   2.234 -0.0069 -0.1504  0.0344
 4246ntf    nn324798   2.699   0.797   2.084  0.9319  0.0794 -0.2625
 4246ntf    sn224799   2.652   0.897   1.972  0.1951 -0.2017 -0.2063
 4246ntf    cn124800   2.473   0.872   1.988  0.1492  0.3906  0.2548
 4246ntf    fn424801   2.975   0.854   2.335 -0.3324  0.4800  0.0825
 4246ntf    fn424802   2.978   0.702   2.187  0.2221 -0.0347  0.0432
 4246ntf    fn424803   2.964   0.911   2.130 -0.4478 -0.1160 -0.0478
 4246ntf    on524804   2.733   0.675   2.302  0.5093 -0.0983  0.2256
 4246ntf    on524805   2.689   0.916   2.304 -0.6545 -0.2435 -0.3203
 4246ntf    on524806   2.687   0.846   1.842 -0.1757  0.1308 -0.4348
 4246ntf    on524807   2.669   1.037   2.002  0.0128 -0.1955 -0.1300
 4246ntf    fn424808   2.404   0.911   1.881 -0.2583 -0.2501  0.2737
 4246ntf    fn424809   2.431   0.746   1.999  0.1772  0.4109  0.6038
 4246ntf    fn424810   2.433   0.931   2.099  0.4836  0.4833  0.3239
 4247ntf    cn124811   4.103   3.190   3.030  0.0226 -0.5875 -0.1707
 4247ntf    sn224812   4.184   3.332   2.949 -0.2466 -0.2734  0.1111
 4247ntf    nn324813   4.202   3.283   2.801  0.0268  0.5111 -0.1171
 4247ntf    sn224814   4.325   3.229   2.720  0.1104  0.3998  0.0819
 4247ntf    cn124815   4.278   3.293   2.556  0.3226  0.3939  0.0187
 4247ntf    fn424816   4.078   3.220   3.156 -0.5372  0.3776 -0.4933
 4247ntf    fn424817   3.989   3.150   2.976 -0.2160  0.0083 -0.1139
 4247ntf    fn424818   4.180   3.083   3.026  0.4307 -0.2955 -0.1530
 4247ntf    on524819   4.093   3.443   2.965 -0.4296 -0.5016  0.7104
 4247ntf    on524820   4.303   3.338   3.030  0.0220  0.0370 -0.3055
 4247ntf    on524821   4.331   3.085   2.711 -0.3524  0.4004 -0.2945
 4247ntf    on524822   4.452   3.291   2.751 -0.0300  0.6533  0.1559
 4247ntf    fn424823   4.264   3.423   2.543  0.3090  0.4512  0.6072
 4247ntf    fn424824   4.366   3.264   2.461  0.1016 -0.6719  0.1254
 4247ntf    fn424825   4.164   3.240   2.514  0.6582 -0.0010 -0.4176
 4248ntf    cn124826   2.530   4.214   6.495  0.0050  0.3213  0.3386
 4248ntf    sn224827   2.562   4.040   6.537 -0.2436  0.2325  0.1643
 4248ntf    nn324828   2.471   3.975   6.427 -0.3286  0.0075  0.3688
 4248ntf    sn224829   2.489   3.831   6.367  0.0417  0.1591  0.1148
 4248ntf    cn124830   2.579   3.886   6.219  0.0344 -0.0110  0.0476
 4248ntf    fn424831   2.586   4.301   6.578 -0.4227  0.2100  0.7518
 4248ntf    fn424832   2.575   4.248   6.375 -0.2164  0.8589  0.4003
 4248ntf    fn424833   2.402   4.248   6.490 -0.0333  0.1668  0.2923
 4248ntf    on524834   2.702   4.033   6.503 -0.2247 -0.0799  0.3101
 4248ntf    on524835   2.519   4.021   6.673  0.6136 -0.2575  0.3772
 4248ntf    on524836   2.373   3.764   6.316  0.6390 -0.6109 -0.2574
 4248ntf    on524837   2.588   3.746   6.429  0.3569  0.1908 -0.3400
 4248ntf    fn424838   2.522   3.988   6.157  0.1601  0.1944  0.2716
 4248ntf    fn424839   2.700   3.929   6.252 -0.0726  0.3260 -0.0046
 4248ntf    fn424840   2.587   3.793   6.125  0.5540 -0.1808  0.2553
 4249ntf    cn124841   0.905   2.071   1.142  0.3089 -0.2912 -0.0370
 4249ntf    sn224842   0.800   2.181   1.242  0.5099 -0.1082 -0.0274
 4249ntf    nn324843   0.843   2.313   1.167  0.1879 -0.0559 -0.1237
 4249ntf    sn224844   0.967   2.406   1.189  0.0969  0.0184  0.0770
 4249ntf    cn124845   0.901   2.534   1.300  0.2448  0.1229  0.0447
 4249ntf    fn424846   0.886   2.079   1.011 -0.4411  0.1133  0.0892
 4249ntf    fn424847   1.034   2.088   1.167  0.2985  0.4150 -0.4272
 4249ntf    fn424848   0.867   1.946   1.166  0.0779 -0.1549  0.3120
 4249ntf    on524849   0.662   2.146   1.215  0.5398 -0.5754  0.4155
 4249ntf    on524850   0.841   2.177   1.380 -0.2587 -0.4456  0.1953
 4249ntf    on524851   1.001   2.479   1.070  0.0450 -0.0441  0.0240
 4249ntf    on524852   1.088   2.354   1.248 -0.2784 -0.2274  0.6398
 4249ntf    fn424853   0.976   2.644   1.302 -0.2005  0.4248  0.3751
 4249ntf    fn424854   0.780   2.568   1.261  0.1384  0.2078  0.4413
 4249ntf    fn424855   0.891   2.501   1.428  0.6476 -0.0050  0.0452
 4250ntf    cn124856   7.068   6.112   1.524 -0.0451 -0.2870 -0.0158
 4250ntf    sn224857   6.952   6.248   1.558  0.2290  0.0659 -0.4752
 4250ntf    nn324858   6.880   6.191   1.686  0.2461  0.4647 -0.2890
 4250ntf    sn224859   6.898   6.246   1.832  0.0362 -0.2918  0.0270
 4250ntf    cn124860   6.800   6.399   1.830 -0.1632 -0.4225 -0.3039
 4250ntf    fn424861   7.132   6.133   1.411 -0.0679 -0.0524  0.0136
 4250ntf    fn424862   7.152   6.079   1.621 -0.0222 -0.0843  0.0330
 4250ntf    fn424863   6.997   6.004   1.496 -0.5235  0.1227 -0.4049
 4250ntf    on524864   7.027   6.371   1.553  0.2425  0.0689 -0.2188
 4250ntf    on524865   6.865   6.235   1.444 -0.2152  0.4762 -0.1867
 4250ntf    on524866   7.033   6.293   1.855 -0.1534  0.1266  0.3095
 4250ntf    on524867   6.836   6.163   1.932 -0.3075 -0.6732 -0.4997
 4250ntf    fn424868   6.805   6.470   1.943  0.4706 -0.4220 -0.3264
 4250ntf    fn424869   6.848   6.487   1.743 -0.0181  0.2044  0.3916
 4250ntf    fn424870   6.671   6.379   1.808 -0.2702 -0.1586  0.0605
 4251ntf    cn124871   1.861   1.607   4.343 -0.2309  0.2241  0.2771
 4251ntf    sn224872   1.932   1.580   4.178 -0.0477  0.1450  0.3690
 4251ntf    nn324873   1.954   1.727   4.127 -0.2555  0.0533  0.0130
 4251ntf    sn224874   1.960   1.777   3.978  0.1192  0.3634  0.1305
 4251ntf    cn124875   2.139   1.772   3.946  0.1469 -0.4806  0.3867
 4251ntf    fn424876   1.941   1.676   4.422 -0.1350  0.1755  0.2213
 4251ntf    fn424877   1.745   1.671   4.337 -0.0802  0.5080  0.3857
 4251ntf    fn424878   1.855   1.489   4.401  0.3865 -0.2008 -0.4971
 4251ntf    on524879   2.056   1.514   4.210  0.3172  0.4409 -0.3962
 4251ntf    on524880   1.824   1.510   4.114  0.2132 -0.4059  0.5243
 4251ntf    on524881   1.929   1.917   3.976 -0.0417  0.3209 -0.4738
 4251ntf    on524882   1.902   1.695   3.875  0.2016  0.5497 -0.0657
 4251ntf    fn424883   2.161   1.691   3.843 -0.0148  0.6187 -0.5312
 4251ntf    fn424884   2.183   1.887   3.897 -0.0649 -0.6155 -0.1325
 4251ntf    fn424885   2.222   1.739   4.043  0.7890 -0.4369 -0.1388
 4252ntf    cn124886   6.657   0.842   2.371 -0.4484  0.0885 -0.2737
 4252ntf    sn224887   6.497   0.805   2.292 -0.4346 -0.3343 -0.1126
 4252ntf    nn324888   6.417   0.750   2.415  0.2611  0.3060  0.6420
 4252ntf    sn224889   6.317   0.832   2.503 -0.1340  0.1861  0.3101
 4252ntf    cn124890   6.167   0.831   2.401  0.1694 -0.6015 -0.1432
 4252ntf    fn424891   6.701   0.731   2.428 -0.1938  0.1556 -0.3418
 4252ntf    fn424892   6.750   0.877   2.284 -0.4653  0.0803 -0.2946
 4252ntf    fn424893   6.663   0.932   2.467 -0.4638 -0.4140  0.2087
 4252ntf    on524894   6.457   0.933   2.237  0.0453 -0.1636 -0.0708
 4252ntf    on524895   6.525   0.701   2.196  0.4496 -0.2411  0.0350
 4252ntf    on524896   6.351   0.971   2.522  0.1226  0.1057  0.4541
 4252ntf    on524897   6.281   0.761   2.624 -0.1405  0.1984  0.3153
 4252ntf    fn424898   6.058   0.843   2.476  0.5143  0.4298  0.2108
 4252ntf    fn424899   6.155   0.934   2.318 -0.4051 -0.3765  0.2042
 4252ntf    fn424900   6.150   0.717   2.337 -0.1500 -0.4209 -0.3849
 4253ntf    cn124901   6.150   5.608   6.231  0.0237  0.2909 -0.1012
 4253ntf    sn224902   5.975   5.561   6.244  0.0610  0.1234 -0.1970
 4253ntf    nn324903   5.903   5.696   6.279  0.0009  0.1724 -0.5043
 4253ntf    sn224904   5.829   5.738   6.411  0.2030 -0.2066 -0.2669
 4253ntf    cn124905   5.958   5.781   6.532  0.0698 -0.2567 -0.1063
 4253ntf    fn424906   6.176   5.705   6.144  0.0369 -0.1016 -0.5356
 4253ntf    fn424907   6.211   5.646   6.342  0.0189 -0.5527  0.1950
 4253ntf    fn424908   6.218   5.506   6.182 -0.3510  0.1241 -0.2735
 4253ntf    on524909   5.936   5.526   6.110 -0.3259  0.4697 -0.1781
 4253ntf    on524910   5.957   5.460   6.346 -0.0300 -0.1152 -0.4493
 4253ntf    on524911   5.751   5.636   6.477  0.4706 -0.0561  0.2856
 4253ntf    on524912   5.761   5.863   6.385  0.5428  0.0714  0.1654
 4253ntf    fn424913   6.048   5.859   6.476  0.4132 -0.1097  0.6372
 4253ntf    fn424914   5.922   5.838   6.646  0.4562  0.1829 -0.2014
 4253ntf    fn424915   6.021   5.674   6.577  0.1773 -0.0355  0.2684
 4254ntf    cn124916   6.875   2.288   3.880  0.0390  0.0122 -0.0314
 4254ntf    sn224917   7.013   2.292   3.999  0.2638 -0.0271 -0.2894
 4254ntf    nn324918   6.936   2.334   4.129  0.7289  0.2580 -0.1057
 4254ntf    sn224919   6.902   2.482   4.168  0.0741  0.1371 -0.2119
 4254ntf    cn124920   6.744   2.457   4.255  0.1254  0.3574 -0.0533
 4254ntf    fn424921   6.786   2.193   3.905  0.3486 -0.2417  0.1113
 4254ntf    fn424922   6.803   2.398   3.871 -0.2315 -0.1014  0.6857
 4254ntf    fn424923   6.907   2.257   3.755  0.1690  0.3331 -0.0806
 4254ntf    on524924   7.044   2.151   3.998 -0.8088 -0.2721 -0.0115
 4254ntf    on524925   7.108   2.386   3.945  0.0544  0.0227 -0.5741
 4254ntf    on524926   6.866   2.569   4.059 -0.3542  0.4025  0.1372
 4254ntf    on524927   6.985   2.543   4.270 -0.5383  0.6722 -0.0239
 4254ntf    fn424928   6.650   2.401   4.181  0.0762 -0.1342  0.3737
 4254ntf    fn424929   6.776   2.381   4.359  0.1015  0.0914 -0.2400
 4254ntf    fn424930   6.702   2.573   4.302  0.3932  0.0681  0.9307
 4255ntf    cn124931   0.479   5.384   5.087 -0.0680  0.2984 -0.3875
 4255ntf    sn224932   0.511   5.383   5.266 -0.7001 -0.1594 -0.2735
 4255ntf    nn324933   0.475   5.234   5.300 -0.2632 -0.1956  0.0407
 4255ntf    sn224934   0.346   5.174   5.368 -0.2211 -0.1816  0.1321
 4255ntf    cn124935   0.388   5.199   5.544  0.0473 -0.0048  0.0455
 4255ntf    fn424936   0.523   5.280   5.019  0.2518  0.0280  0.2219
 4255ntf    fn424937   0.348   5.385   5.065 -0.1747 -0.0348  0.1990
 4255ntf    fn424938   0.526   5.490   5.024 -0.0103  0.4792 -0.0408
 4255ntf    on524939   0.651   5.410   5.282 -0.8501  0.0386  0.8636
 4255ntf    on524940   0.429   5.490   5.319 -0.8174 -0.1638 -0.4468
 4255ntf    on524941   0.336   5.031   5.351 -0.1078 -0.1206 -0.4730
 4255ntf    on524942   0.220   5.243   5.356 -0.2021 -0.3171 -0.9055
 4255ntf    fn424943   0.410   5.323   5.582  0.0196  0.0193 -0.0178
 4255ntf    fn424944   0.287   5.159   5.620  0.1230 -0.1047  0.0933
 4255ntf    fn424945   0.495   5.130   5.580 -0.0563 -0.3547 -0.3073
 4256ntf    cn124946   6.075   4.677   1.013  0.1623 -0.4275  0.0626
 4256ntf    sn224947   6.003   4.604   0.862 -0.0385 -0.1556  0.0257
 4256ntf    nn324948   5.878   4.690   0.824 -0.0950 -0.2436  0.0124
 4256ntf    sn224949   5.727   4.646   0.826 -0.1373 -0.0909  0.2865
 4256ntf    cn124950   5.668   4.713   0.668  0.0716 -0.1470  0.1848
 4256ntf    fn424951   5.995   4.670   1.118 -0.1662  0.2862 -0.1319
 4256ntf    fn424952   6.191   4.623   1.047 -0.1302 -1.1312 -0.0507
 4256ntf    fn424953   6.103   4.805   0.993 -0.5550 -0.3520 -0.5089
 4256ntf    on524954   6.112   4.610   0.767 -0.1300  0.3017 -0.0522
 4256ntf    on524955   5.972   4.474   0.916 -0.0523 -0.3368 -0.4204
 4256ntf    on524956   5.653   4.722   0.924  0.1896  0.2878  0.2416
 4256ntf    on524957   5.698   4.505   0.811 -0.6629  0.0514 -0.0360
 4256ntf    fn424958   5.710   4.837   0.651  0.5430 -0.3843 -0.4032
 4256ntf    fn424959   5.702   4.635   0.566  0.5869  0.1404  0.1311
 4256ntf    fn424960   5.537   4.728   0.671  0.0768 -0.1321  0.3799
 4257ntf    cn124961   5.683   0.327   1.924 -0.0224 -0.0596  0.1936
 4257ntf    sn224962   5.713   0.479   1.828  0.1197 -0.1909  0.0296
 4257ntf    nn324963   5.808   0.427   1.715  0.3866 -0.0586  0.1917
 4257ntf    sn224964   5.776   0.352   1.580  0.2504  0.1162  0.1262
 4257ntf    cn124965   5.786   0.493   1.466  0.4725 -0.1634 -0.2009
 4257ntf    fn424966   5.649   0.354   2.049 -0.6223 -0.5297  0.1365
 4257ntf    fn424967   5.585   0.257   1.868  0.1283 -0.4032  0.3599
 4257ntf    fn424968   5.789   0.250   1.941  0.2168  0.2748  0.2333
 4257ntf    on524969   5.582   0.523   1.788  0.0629 -0.4970 -0.1268
 4257ntf    on524970   5.781   0.564   1.923 -0.2394 -0.0577  0.1703
 4257ntf    on524971   5.646   0.293   1.569  0.3052  0.0147  0.0240
 4257ntf    on524972   5.886   0.268   1.540 -0.0737 -0.4949  0.5009
 4257ntf    fn424973   5.781   0.607   1.532 -0.1586 -0.2395 -0.1180
 4257ntf    fn424974   5.895   0.495   1.391  0.0884  0.2666 -0.7614
 4257ntf    fn424975   5.686   0.493   1.379  0.2824 -0.0572  0.0181
 4258ntf    cn124976   3.044   7.108   2.264 -0.2505  0.0199  0.1660
 4258ntf    sn224977   3.131   7.205   2.391 -0.2868  0.3080 -0.0281
 4258ntf    nn324978   3.233   7.093   2.431 -0.4382  0.1491 -0.0882
 4258ntf    sn224979   3.224   6.982   2.542 -0.0604  0.0081 -0.2006
 4258ntf    cn124980   3.321   7.073   2.665 -0.5104 -0.3935  0.4560
 4258ntf    fn424981   3.127   7.062   2.172  0.3685  0.4232  0.5129
 4258ntf    fn424982   2.987   7.006   2.325 -0.0875  0.0711  0.4045
 4258ntf    fn424983   2.952   7.176   2.198 -0.1905  0.3904  0.4548
 4258ntf    on524984   3.187   7.313   2.314 -0.2576 -0.0578 -0.5243
 4258ntf    on524985   3.034   7.239   2.493 -0.7083 -0.0211 -0.3194
 4258ntf    on524986   3.311   6.870   2.512  0.3684  0.4319 -0.5432
 4258ntf    on524987   3.101   6.954   2.611 -0.1017 -0.3120 -0.4003
 4258ntf    fn424988   3.440   7.114   2.625 -0.6000  0.5123  1.0761
 4258ntf    fn424989   3.254   7.183   2.694 -0.2900 -0.2414  0.3939
 4258ntf    fn424990   3.330   7.008   2.780  0.0809 -0.5634  0.3192
 4259ntf    cn124991   1.117   5.890   1.807 -0.1610 -0.0490  0.3216
 4259ntf    sn224992   1.126   5.898   1.988  0.4933  0.3327  0.2755
 4259ntf    nn324993   0.989   5.973   2.007  0.1356 -0.1494 -0.3706
 4259ntf    sn224994   0.878   5.938   2.113  0.3473  0.0081 -0.0950
 4259ntf    cn124995   0.760   5.849   2.007  0.6238  0.0198 -0.4160
 4259ntf    fn424996   1.112   6.013   1.759  0.0004 -0.3602 -0.5165
 4259ntf    fn424997   1.218   5.832   1.745 -0.3399 -0.2268  0.1972
 4259ntf    fn424998   1.012   5.818   1.771 -0.0531  0.0430 -0.1927
 4259ntf    on524999   1.123   5.760   2.028  0.2512  0.2522 -0.0205
 4259ntf    on525000   1.244   5.974   2.021  0.5710  0.3800 -0.1098
 4259ntf    on525001   0.804   6.057   2.147  0.2913  0.0604 -0.3935
 4259ntf    on525002   0.909   5.848   2.221  0.0679  0.1526  0.1054
 4259ntf    fn425003   0.812   5.752   1.935  0.2980 -0.3186 -0.1965
 4259ntf    fn425004   0.658   5.795   2.072  0.8846 -0.1390 -0.1407
 4259ntf    fn425005   0.706   5.936   1.924  0.0039  0.1164  0.0777
 4260ntf    cn125006   2.052   3.702   3.404  0.4077  0.3486  0.2259
 4260ntf    sn225007   1.960   3.755   3.552  0.3227 -0.1365  0.3500
 4260ntf    nn325008   1.811   3.732   3.509  0.3533 -0.1498  0.2492
 4260ntf    sn225009   1.700   3.639   3.569 -0.0107 -0.0761 -0.3071
 4260ntf    cn125010   1.574   3.763   3.609  0.0665 -0.0596 -0.1176
 4260ntf    fn425011   2.183   3.709   3.418  0.4724  0.3033 -0.3374
 4260ntf    fn425012   2.033   3.575   3.371 -0.1316  0.4850  0.0014
 4260ntf    fn425013   2.026   3.774   3.296 -0.5551 -0.6908 -0.2611
 4260ntf    on525014   2.010   3.670   3.657  0.1535 -0.3795  0.2328
 4260ntf    on525015   1.983   3.897   3.567 -0.2290 -0.0474  0.3760
 4260ntf    on525016   1.722   3.579   3.698 -1.0321  0.0966 -0.0432
 4260ntf    on525017   1.642   3.559   3.464 -0.0258 -0.2220 -0.1885
 4260ntf    fn425018   1.606   3.844   3.709 -0.4683 -0.4342  0.3620
 4260ntf    fn425019   1.554   3.839   3.502  0.0991 -0.1218 -0.1678
 4260ntf    fn425020   1.457   3.710   3.640 -0.1541  0.2147 -0.4713
 4261ntf    cn125021   4.092   6.515   6.066 -0.3659  0.1347  0.4406
 4261ntf    sn225022   4.001   6.366   6.015  0.0628 -0.0551  0.2181
 4261ntf    nn325023   3.959   6.303   6.153 -0.0308  0.3321  0.3663
 4261ntf    sn225024   3.841   6.355   6.243 -0.4428  0.1733 -0.0735
 4261ntf    cn125025   3.690   6.267   6.193 -0.1007 -0.3698 -0.1566
 4261ntf    fn425026   4.144   6.569   5.956  0.1344 -0.2895  0.4642
 4261ntf    fn425027   4.017   6.610   6.119 -0.2986  0.3049  0.2325
 4261ntf    fn425028   4.203   6.491   6.134 -0.1346  0.0719  0.0437
 4261ntf    on525029   3.892   6.408   5.931  0.0301 -0.5158  0.0297
 4261ntf    on525030   4.101   6.282   5.954 -0.5875 -0.1517 -0.7185
 4261ntf    on525031   3.810   6.493   6.218 -0.5643  0.1163 -0.2289
 4261ntf    on525032   3.866   6.317   6.380  0.3578  0.2304 -0.1966
 4261ntf    fn425033   3.578   6.321   6.237  0.1802  0.2382 -0.1775
 4261ntf    fn425034   3.675   6.255   6.062 -0.6474  0.5842 -0.1887
 4261ntf    fn425035   3.694   6.143   6.240 -0.1931 -0.0947  0.6016
 4262ntf    cn125036   4.367   3.443   2.103  0.5019 -0.1997 -0.4052
 4262ntf    sn225037   4.381   3.596   2.005 -0.1417  0.1729  0.0805
 4262ntf    nn325038   4.228   3.631   2.008 -0.2221 -0.1832  0.2587
 4262ntf    sn225039   4.118   3.590   1.904 -0.1652  0.2873  0.0117
 4262ntf    cn125040   4.024   3.746   1.901 -0.0708  0.3378 -0.4520
 4262ntf    fn425041   4.483   3.379   2.110  0.4478 -0.3158 -0.5420
 4262ntf    fn425042   4.332   3.450   2.230  0.2214 -0.4889 -0.4637
 4262ntf    fn425043   4.283   3.355   2.050  0.2512 -0.3105  0.1741
 4262ntf    on525044   4.451   3.681   2.098 -0.5239  1.0470 -0.4268
 4262ntf    on525045   4.449   3.560   1.883  0.0213  0.3502  0.1191
 4262ntf    on525046   4.022   3.495   1.955 -0.1018  0.1917 -0.0466
 4262ntf    on525047   4.172   3.576   1.771 -0.1872 -0.4278  0.0779
 4262ntf    fn425048   3.970   3.782   2.017  0.1458  0.3815 -0.3636
 4262ntf    fn425049   4.104   3.841   1.858  0.6398 -0.2037 -0.3486
 4262ntf    fn425050   3.917   3.729   1.825 -0.3745 -0.0450  0.0481
 4263ntf    cn125051   2.455   6.964   4.034  0.0030 -0.1860 -0.4600
 4263ntf    sn225052   2.376   7.122   4.078  0.1587 -0.2874  0.1934
 4263ntf    nn325053   2.235   7.072   4.127 -0.3093  0.6392 -0.1937
 4263ntf    sn225054   2.114   7.008   4.050 -0.0631  0.0169 -0.0670
 4263ntf    cn125055   2.119   6.836   4.108 -0.1478  0.0559  0.0581
 4263ntf    fn425056   2.388   6.887   3.950 -0.2493 -0.2683 -0.1858
 4263ntf    fn425057   2.579   6.981   3.992  0.2483 -0.0226  0.3133
 4263ntf    fn425058   2.471   6.885   4.139 -0.4309  0.4130  0.0634
 4263ntf    on525059   2.455   7.161   4.192 -0.5335  0.6729  0.3518
 4263ntf    on525060   2.370   7.209   3.963 -0.2939 -0.3031  0.2026
 4263ntf    on525061   2.112   7.001   3.906  0.3704 -0.7341 -0.0420
 4263ntf    on525062   1.992   7.061   4.106  0.0348 -0.0223  0.1840
 4263ntf    fn425063   2.022   6.766   4.052 -0.3302  0.6538 -0.3771
 4263ntf    fn425064   2.229   6.778   4.063  0.1431  0.5329  0.1520
 4263ntf    fn425065   2.120   6.818   4.239  0.6074 -0.2392  0.0197
 4264ntf    cn125066   4.577   5.443   6.504 -0.1870  0.0053 -0.3161
 4264ntf    sn225067   4.530   5.614   6.547 -0.1137 -0.0294 -0.0977
 4264ntf    nn325068   4.498   5.675   6.406 -0.3211 -0.6168 -0.3071
 4264ntf    sn225069   4.465   5.823   6.368  0.2461 -0.4028  0.0131
 4264ntf    cn125070   4.621   5.909   6.331  0.0410 -0.1564 -0.2911
 4264ntf    fn425071   4.599   5.363   6.606  0.2481  0.5206 -0.0001
 4264ntf    fn425072   4.489   5.389   6.422 -0.3044 -0.7447  0.2911
 4264ntf    fn425073   4.689   5.437   6.434  0.1028 -1.1100  0.2317
 4264ntf    on525074   4.418   5.586   6.634 -0.0664 -0.0022 -0.0287
 4264ntf    on525075   4.650   5.669   6.605  0.1928 -0.5905 -0.1862
 4264ntf    on525076   4.408   5.897   6.478  0.6265  0.0802 -0.1118
 4264ntf    on525077   4.395   5.822   6.241  0.2302  0.3402  0.0136
 4264ntf    fn425078   4.615   6.026   6.271 -0.3593  0.1014  0.2336
 4264ntf    fn425079   4.683   5.928   6.447 -0.5270  0.3321 -0.0619
 4264ntf    fn425080   4.705   5.830   6.267  0.4686  0.0492  0.0091
 4265ntf    cn125081   4.580   6.251   6.546 -0.1081  0.0985 -0.2007
 4265ntf    sn225082   4.537   6.340   6.698  0.0499  0.0826 -0.1465
 4265ntf    nn325083   4.591   6.482   6.659 -0.1972  0.0961 -0.4458
 4265ntf    sn225084   4.736   6.537   6.684 -0.0027 -0.5794 -0.0806
 4265ntf    cn125085   4.753   6.627   6.527 -0.0709 -0.1032  0.1865
 4265ntf    fn425086   4.521   6.286   6.433 -0.3262 -0.4240 -0.2503
 4265ntf    fn425087   4.709   6.265   6.521 -0.0367 -0.0042  0.1160
 4265ntf    fn425088   4.563   6.121   6.560  0.4247  0.0391 -0.0991
 4265ntf    on525089   4.393   6.345   6.704  0.0183 -0.6307 -0.2222
 4265ntf    on525090   4.614   6.282   6.805  0.3958  0.5064 -0.1630
 4265ntf    on525091   4.852   6.452   6.669  0.2003 -0.3358  0.1151
 4265ntf    on525092   4.742   6.637   6.787  0.3527 -0.5888 -0.0892
 4265ntf    fn425093   4.654   6.714   6.515 -0.0009 -0.0284  0.1493
 4265ntf    fn425094   4.864   6.699   6.515  0.1288 -0.3081  0.7788
 4265ntf    fn425095   4.760   6.553   6.418  0.0789 -0.0398  0.1535
 4266ntf    cn125096   4.980   5.887   1.927  0.4850  0.0251  0.0885
 4266ntf    sn225097   4.828   5.836   2.013  0.2490  0.0084 -0.3339
 4266ntf    nn325098   4.750   5.972   2.003  0.3659  0.0585 -0.5770
 4266ntf    sn225099   4.647   6.016   1.893 -0.0962  0.0978 -0.1306
 4266ntf    cn125100   4.492   5.970   1.977 -0.0825  0.5727  0.1634
 4266ntf    fn425101   5.074   5.794   1.932  0.1931 -0.2970 -0.3740
 4266ntf    fn425102   4.960   5.908   1.798 -0.2158  0.1507  0.2160
 4266ntf    fn425103   5.031   5.996   1.983  0.7002  0.0482 -0.1476
 4266ntf    on525104   4.797   5.722   1.931  0.0251  0.1355 -0.4260
 4266ntf    on525105   4.877   5.814   2.147  0.4001  0.0794 -0.3761
 4266ntf    on525106   4.650   5.933   1.775 -0.1207 -0.0034 -0.0599
 4266ntf    on525107   4.631   6.156   1.862  0.0259 -0.0261 -0.7584
 4266ntf    fn425108   4.481   5.843   2.014  0.3150  0.3629 -0.4117
 4266ntf    fn425109   4.481   6.044   2.086  0.4203  0.6289  0.1791
 4266ntf    fn425110   4.386   5.994   1.902 -0.2321  0.1515  0.2346
 4267ntf    cn125111   6.554   6.396   5.847  0.2066  0.0009  0.2626
 4267ntf    sn225112   6.492   6.417   5.677  0.2486 -0.1629  0.2259
 4267ntf    nn325113   6.465   6.266   5.644  0.1832 -0.0088 -0.4406
 4267ntf    sn225114   6.331   6.188   5.620  0.2368 -0.1823 -0.1842
 4267ntf    cn125115   6.329   6.182   5.438 -0.2271  0.4536 -0.2038
 4267ntf    fn425116   6.489   6.304   5.916 -0.1092  0.1422  0.1535
 4267ntf    fn425117   6.682   6.365   5.863  0.2717 -0.0066 -0.2497
 4267ntf    fn425118   6.529   6.506   5.916 -0.2141 -0.1364  0.3299
 4267ntf    on525119   6.375   6.497   5.702  0.2674 -0.0182 -0.1415
 4267ntf    on525120   6.605   6.462   5.600 -0.2359  0.4748 -0.1233
 4267ntf    on525121   6.207   6.252   5.657  0.1285 -0.2968 -0.3523
 4267ntf    on525122   6.342   6.048   5.653 -0.3486 -0.1673  0.0839
 4267ntf    fn425123   6.377   6.069   5.389 -0.5949  0.3123 -0.2436
 4267ntf    fn425124   6.204   6.190   5.397 -0.2543  0.4309 -0.1272
 4267ntf    fn425125   6.393   6.281   5.379 -0.2249  0.7353  0.2606
 4268ntf    cn125126   6.662   1.569   4.029  0.5064  0.0777 -0.2981
 4268ntf    sn225127   6.723   1.633   4.188 -0.0923  0.1350 -0.0902
 4268ntf    nn325128   6.632   1.551   4.287  0.5901  0.1140  0.5269
 4268ntf    sn225129   6.673   1.424   4.369 -0.1330  0.0252  0.7568
 4268ntf    cn125130   6.763   1.494   4.511 -0.1114  0.2380  0.6381
 4268ntf    fn425131   6.538   1.606   4.002  0.4368 -0.2945 -0.4988
 4268ntf    fn425132   6.741   1.600   3.927  0.5703 -0.2558 -0.3534
 4268ntf    fn425133   6.643   1.438   4.029 -0.3135  0.1928 -0.0434
 4268ntf    on525134   6.864   1.602   4.184 -0.1609 -0.3199  0.7149
 4268ntf    on525135   6.690   1.773   4.190  0.2789  0.2194  0.3361
 4268ntf    on525136   6.770   1.342   4.301  0.3465  0.7127  0.6069
 4268ntf    on525137   6.563   1.350   4.424 -0.5222  0.0021 -0.0422
 4268ntf    fn425138   6.840   1.596   4.475  0.1728 -0.2419 -0.1402
 4268ntf    fn425139   6.672   1.540   4.595  0.2350  0.7004  0.7637
 4268ntf    fn425140   6.836   1.408   4.580 -0.1034 -0.2937 -0.0196
 4269ntf    cn125141   1.732   3.339   5.039 -0.2262  0.4524  0.0868
 4269ntf    sn225142   1.879   3.399   4.950 -0.0515 -0.1496 -0.0330
 4269ntf    nn325143   1.872   3.550   4.993 -0.1767 -0.1596 -0.0171
 4269ntf    sn225144   1.983   3.660   5.006 -0.1444 -0.1452 -0.3839
 4269ntf    cn125145   2.015   3.659   5.185  0.2464 -0.8871 -0.4557
 4269ntf    fn425146   1.692   3.225   4.986  0.7538  0.2777 -0.2942
 4269ntf    fn425147   1.754   3.322   5.168  0.4272  0.5521 -0.0077
 4269ntf    fn425148   1.624   3.414   5.021  0.0274  0.6863 -0.5082
 4269ntf    on525149   1.980   3.312   5.004  0.3618  0.3480  0.0048
 4269ntf    on525150   1.835   3.379   4.814 -0.2725  0.6595 -0.0857
 4269ntf    on525151   1.922   3.788   4.976  0.1462  0.0499 -0.1500
 4269ntf    on525152   2.106   3.630   4.937  0.5140  0.1377  0.6405
 4269ntf    fn425153   2.100   3.756   5.217 -0.4736 -0.3441 -0.1458
 4269ntf    fn425154   1.907   3.681   5.259  0.5283 -0.2154 -0.2303
 4269ntf    fn425155   2.072   3.552   5.237  0.3760 -0.6572 -0.1229
 4270ntf    cn125156   1.877   0.580   2.351  0.0622  0.0972  0.4264
 4270ntf    sn225157   1.754   0.506   2.239  0.4662 -0.0721  0.0935
 4270ntf    nn325158   1.671   0.434   2.351 -0.2730  0.1447 -0.3103
 4270ntf    sn225159   1.523   0.471   2.386 -0.1367  0.2598  0.1471
 4270ntf    cn125160   1.445   0.397   2.240 -0.2769  0.2767  0.2133
 4270ntf    fn425161   1.824   0.679   2.422 -0.4076  0.2487 -0.1291
 4270ntf    fn425162   1.938   0.489   2.425 -0.0645  0.0454  0.4678
 4270ntf    fn425163   1.972   0.645   2.286  0.3235 -0.6424  0.0601
 4270ntf    on525164   1.693   0.620   2.175  0.2486 -0.0585  0.3248
 4270ntf    on525165   1.824   0.414   2.153  0.1746 -0.3063  0.1083
 4270ntf    on525166   1.481   0.609   2.382  0.2392  0.3533 -0.6185
 4270ntf    on525167   1.467   0.388   2.490 -0.1717  0.1262  0.0213
 4270ntf    fn425168   1.493   0.435   2.123 -0.3586  0.0316  0.0994
 4270ntf    fn425169   1.445   0.264   2.241 -0.1229  0.2731 -0.1497
 4270ntf    fn425170   1.316   0.429   2.236 -0.2760  0.2530  0.0100
 4271ntf    cn125171   5.272   6.622   0.331  0.5028 -0.2558 -0.4004
 4271ntf    sn225172   5.448   6.636   0.373  0.4553 -0.0827 -0.2582
 4271ntf    nn325173   5.469   6.791   0.359 -0.0677  0.0158  0.0345
 4271ntf    sn225174   5.453   6.915   0.454  0.1628 -0.0336  0.1359
 4271ntf    cn125175   5.373   7.036   0.346 -0.2387 -0.1279  0.3279
 4271ntf    fn425176   5.187   6.681   0.414  0.3518 -0.2769 -0.5395
 4271ntf    fn425177   5.246   6.673   0.211  0.7138  0.7354 -0.0355
 4271ntf    fn425178   5.240   6.494   0.326  0.0287 -0.1675  0.3320
 4271ntf    on525179   5.454   6.591   0.510  0.3049  0.6200 -0.0175
 4271ntf    on525180   5.506   6.553   0.271  0.9241  0.6689 -0.6139
 4271ntf    on525181   5.581   6.977   0.481  0.0379  0.3542 -0.1619
 4271ntf    on525182   5.357   6.912   0.561  0.2433  0.2092  0.2145
 4271ntf    fn425183   5.447   7.075   0.244  0.2762 -0.3103  0.6338
 4271ntf    fn425184   5.257   6.991   0.301 -0.0521  0.0829 -0.3816
 4271ntf    fn425185   5.342   7.148   0.410  0.1432  0.0972  0.1188
 4272ntf    cn125186   3.937   0.328   4.378 -0.0114  0.1505 -0.3809
 4272ntf    sn225187   4.068   0.400   4.482 -0.1308  0.1803 -0.2515
 4272ntf    nn325188   4.053   0.553   4.453 -0.2927  0.1490 -0.3372
 4272ntf    sn225189   4.167   0.654   4.414 -0.1828  0.2563  0.2489
 4272ntf    cn125190   4.194   0.617   4.238  0.1260  0.1244  0.3232
 4272ntf    fn425191   3.950   0.197   4.375 -0.5616  0.0926 -0.3463
 4272ntf    fn425192   3.819   0.363   4.427  0.0355 -0.2172 -0.0035
 4272ntf    fn425193   3.937   0.362   4.250  0.0578  0.3621 -0.3259
 4272ntf    on525194   4.031   0.369   4.618 -0.1244  0.1283 -0.2615
 4272ntf    on525195   4.185   0.332   4.432  0.2039  0.1188  0.5971
 4272ntf    on525196   4.289   0.655   4.490  0.0266 -0.2689 -0.0701
 4272ntf    on525197   4.096   0.778   4.400 -0.8972 -0.1884 -0.1541
 4272ntf    fn425198   4.085   0.630   4.165  0.4798 -0.2843 -0.2848
 4272ntf    fn425199   4.285   0.691   4.175 -0.3050  0.3755 -0.0099
 4272ntf    fn425200   4.227   0.491   4.216 -0.5389  0.0458 -0.2667
 4273ntf    cn125201   2.847   3.240   1.091  0.3767 -0.0395 -0.1052
 4273ntf    sn225202   2.793   3.358   1.219  0.1102 -0.2712 -0.0029
 4273ntf    nn325203   2.754   3.265   1.339  0.0609 -0.0485  0.1540
 4273ntf    sn225204   2.609   3.227   1.385 -0.0187 -0.0570 -0.0995
 4273ntf    cn125205   2.604   3.351   1.518 -0.2179 -0.1286 -0.0385
 4273ntf    fn425206   2.912   3.292   0.988  0.4008 -0.0261 -0.0834
 4273ntf    fn425207   2.930   3.148   1.136 -0.1520 -0.4369  0.0696
 4273ntf    fn425208   2.741   3.175   1.046  0.0356 -0.3554  1.1093
 4273ntf    on525209   2.918   3.421   1.256  0.2744 -0.2580 -0.5705
 4273ntf    on525210   2.695   3.437   1.150  0.4022  0.1465  0.0583
 4273ntf    on525211   2.589   3.101   1.453 -0.3675 -0.0924 -0.2664
 4273ntf    on525212   2.498   3.277   1.307  0.0100 -0.0431 -0.1312
 4273ntf    fn425213   2.633   3.468   1.463  0.2257 -0.3206 -0.2207
 4273ntf    fn425214   2.488   3.373   1.577  0.1216  0.3417  0.4672
 4273ntf    fn425215   2.691   3.331   1.615 -0.1379 -0.2796 -0.1407
 4274ntf    cn125216   4.841   2.327   3.811 -0.2584  0.4626 -0.1930
 4274ntf    sn225217   4.995   2.245   3.864 -0.3156  0.2496 -0.3524
 4274ntf    nn325218   5.063   2.364   3.940 -0.2376 -0.0698  0.0844
 4274ntf    sn225219   5.042   2.398   4.092 -0.1129  0.0931  0.0659
 4274ntf    cn125220   5.130   2.557   4.090 -0.0965  0.0819 -0.0626
 4274ntf    fn425221   4.787   2.386   3.916 -0.2858 -0.2129  0.1802
 4274ntf    fn425222   4.870   2.420   3.721  0.1078 -0.0504 -0.6152
 4274ntf    fn425223   4.756   2.241   3.758  0.0831  0.1925 -0.3108
 4274ntf    on525224   4.949   2.132   3.941  0.2908  0.0598 -0.2683
 4274ntf    on525225   5.070   2.224   3.743  0.4885 -0.5842  0.2712
 4274ntf    on525226   5.119   2.311   4.179 -0.5909  0.3333  0.7372
 4274ntf    on525227   4.909   2.437   4.131 -0.3824  0.0801 -0.8292
 4274ntf    fn425228   5.120   2.619   4.206  0.1897  0.1963 -0.0987
 4274ntf    fn425229   5.258   2.557   4.057 -0.1155 -0.0988 -0.1391
 4274ntf    fn425230   5.072   2.643   4.007 -0.3187  0.3152  0.3338
 4275ntf    cn125231   2.447   5.515   6.646  0.1561  0.1822  0.6332
 4275ntf    sn225232   2.553   5.516   6.794  0.3582 -0.2644  0.4931
 4275ntf    nn325233   2.587   5.363   6.808  0.0847 -0.5006 -1.2286
 4275ntf    sn225234   2.518   5.254   6.897  0.0215  0.2588 -0.3256
 4275ntf    cn125235   2.536   5.116   6.779 -0.1210 -0.0602  0.0248
 4275ntf    fn425236   2.347   5.430   6.653  0.1336  0.1083 -0.3931
 4275ntf    fn425237   2.390   5.631   6.617  1.2710  0.4689 -0.5193
 4275ntf    fn425238   2.506   5.471   6.536 -0.9397  0.0991  0.0629
 4275ntf    on525239   2.674   5.583   6.753  0.1483 -0.1902 -0.0089
 4275ntf    on525240   2.481   5.578   6.902 -0.1547  0.2485 -0.1342
 4275ntf    on525241   2.375   5.252   6.909  0.0765 -0.4718  0.2761
 4275ntf    on525242   2.598   5.210   7.008 -1.2422 -0.1523  0.4322
 4275ntf    fn425243   2.662   5.110   6.739 -0.0147 -0.7788  0.4616
 4275ntf    fn425244   2.517   4.993   6.823 -0.3427  0.0741  0.3091
 4275ntf    fn425245   2.455   5.137   6.677  0.1962 -0.3903 -0.2968
 4276ntf    cn125246   3.218   2.156   5.013  0.4137  0.3224  0.2864
 4276ntf    sn225247   3.135   2.295   5.096 -0.3240 -0.1371  0.3235
 4276ntf    nn325248   3.084   2.375   4.970  0.8315 -0.1929 -0.1936
 4276ntf    sn225249   3.082   2.528   4.937  0.1921 -0.1636 -0.0355
 4276ntf    cn125250   2.966   2.526   4.797  0.2565  0.0464 -0.0930
 4276ntf    fn425251   3.246   2.068   5.108 -0.7082 -0.0141  0.3270
 4276ntf    fn425252   3.140   2.091   4.929  0.5628 -0.4412  0.7275
 4276ntf    fn425253   3.323   2.201   4.947 -0.0251  0.2069 -0.4954
 4276ntf    on525254   3.033   2.229   5.174 -0.5975  0.1166  0.1813
 4276ntf    on525255   3.243   2.360   5.164 -0.2401 -0.1668  0.2191
 4276ntf    on525256   3.208   2.565   4.878 -0.0027  0.5352 -0.0306
 4276ntf    on525257   3.022   2.616   5.034 -0.4644 -0.6410  0.0015
 4276ntf    fn425258   2.960   2.649   4.750  0.2690  0.2427  0.4078
 4276ntf    fn425259   3.012   2.454   4.696  1.0728  0.1857  0.1764
 4276ntf    fn425260   2.840   2.494   4.826  0.3008 -0.2047 -0.1710
 4277ntf    cn125261   1.238   6.476   2.957  0.2795  0.3748  0.2658
 4277ntf    sn225262   1.406   6.419   2.998  0.1877 -0.1116 -0.0236
 4277ntf    nn325263   1.373   6.344   3.132  0.0871 -0.0592 -0.0190
 4277ntf    sn225264   1.313   6.200   3.150  0.0808 -0.0264  0.2371
 4277ntf    cn125265   1.458   6.093   3.171  0.0240 -0.1750 -0.1115
 4277ntf    fn425266   1.167   6.521   3.059  0.0204  0.5858 -0.0080
 4277ntf    fn425267   1.234   6.574   2.868  0.1949  0.3968  0.2934
 4277ntf    fn425268   1.167   6.378   2.904 -0.2095  0.4382  0.7969
 4277ntf    on525269   1.441   6.338   2.885  0.2912  0.0395 -0.0998
 4277ntf    on525270   1.482   6.540   3.017 -0.1175  0.0547  0.1516
 4277ntf    on525271   1.252   6.143   3.032 -0.3831  0.6763  0.1300
 4277ntf    on525272   1.245   6.186   3.276 -0.5831  0.3843 -0.0696
 4277ntf    fn425273   1.426   5.973   3.217 -0.5552  0.1020  0.2182
 4277ntf    fn425274   1.523   6.073   3.058  0.5224  0.3194  0.0830
 4277ntf    fn425275   1.543   6.142   3.260 -0.1803  0.2221 -0.1347
 4278ntf    cn125276   5.073   2.431   6.015 -0.0584  0.0478  0.0342
 4278ntf    sn225277   5.192   2.307   5.955 -0.1701 -0.2174  0.3566
 4278ntf    nn325278   5.329   2.384   5.960 -0.2359 -0.0883  0.1669
 4278ntf    sn225279   5.438   2.388   6.073  0.0444 -0.1134 -0.1007
 4278ntf    cn125280   5.429   2.567   6.101 -0.4123 -0.0953 -0.3363
 4278ntf    fn425281   5.095   2.468   6.140 -0.4650 -0.0009  0.1206
 4278ntf    fn425282   5.062   2.541   5.943  0.4830  0.1370  0.0831
 4278ntf    fn425283   4.958   2.367   6.001  0.1611 -0.2943 -0.2339
 4278ntf    on525284   5.183   2.197   6.049  0.3692 -0.0321  0.6306
 4278ntf    on525285   5.144   2.283   5.821  0.2871 -0.0697  0.1640
 4278ntf    on525286   5.569   2.355   6.023  0.0621 -0.3906  0.1249
 4278ntf    on525287   5.404   2.335   6.203 -0.6668 -0.0507 -0.2541
 4278ntf    fn425288   5.448   2.646   5.997 -0.1363  0.3336  0.0330
 4278ntf    fn425289   5.312   2.595   6.155 -0.5278 -0.6049 -0.3199
 4278ntf    fn425290   5.516   2.615   6.190 -0.6015 -0.0593 -0.1702
 4279ntf    cn125291   6.789   6.755   6.222 -0.3497  0.4403  0.1121
 4279ntf    sn225292   6.911   6.726   6.353 -0.2038 -0.2330 -0.1663
 4279ntf    nn325293   6.996   6.857   6.347 -0.1205 -0.2637  0.2904
 4279ntf    sn225294   6.967   6.991   6.424  0.3241 -0.0101  0.0249
 4279ntf    cn125295   7.034   6.955   6.589  0.1307  0.2312  0.1579
 4279ntf    fn425296   6.716   6.646   6.206 -0.2602  0.3909  0.0398
 4279ntf    fn425297   6.699   6.848   6.250 -0.5125  0.4025 -0.2750
 4279ntf    fn425298   6.846   6.784   6.106  0.0556 -0.0858  0.1759
 4279ntf    on525299   6.840   6.704   6.477  0.1946 -0.1240  0.0813
 4279ntf    on525300   6.993   6.615   6.312  0.0130 -0.0913 -0.1133
 4279ntf    on525301   6.829   7.022   6.452  0.4314  0.1328  0.4035
 4279ntf    on525302   7.048   7.099   6.374 -0.0303  0.2802  0.0780
 4279ntf    fn425303   7.048   7.062   6.665 -0.3456  0.7124 -0.4212
 4279ntf    fn425304   6.962   6.877   6.668 -0.4392  0.4731 -0.1223
 4279ntf    fn425305   7.150   6.891   6.589  0.0992  0.1716  0.3484
 4280ntf    cn125306   4.002   1.822   2.531  0.2252  0.0624  0.2558
 4280ntf    sn225307   4.169   1.888   2.562  0.2937 -0.1565  0.3529
 4280ntf    nn325308   4.244   1.756   2.604  0.2842 -0.3133 -0.1172
 4280ntf    sn225309   4.383   1.747   2.677  0.3354 -0.2383 -0.2045
 4280ntf    cn125310   4.326   1.706   2.845  0.2493  0.5404 -0.0354
 4280ntf    fn425311   4.006   1.716   2.452  0.4943  0.0454  0.2909
 4280ntf    fn425312   3.949   1.774   2.643  0.4634 -0.1886  0.2631
 4280ntf    fn425313   3.912   1.909   2.487  0.0900  0.0853  0.5745
 4280ntf    on525314   4.197   1.947   2.434 -0.4460 -0.3121  0.1154
 4280ntf    on525315   4.144   1.976   2.673 -0.7417 -0.2976  0.2409
 4280ntf    on525316   4.455   1.871   2.693 -0.0958  0.0474 -0.4392
 4280ntf    on525317   4.455   1.625   2.651 -0.2080 -0.7365  0.5883
 4280ntf    fn425318   4.225   1.622   2.854 -0.2002  1.1090  0.2436
 4280ntf    fn425319   4.425   1.666   2.923  0.2162  0.5917  0.0322
 4280ntf    fn425320   4.272   1.813   2.900  0.3346  0.4465  0.2287
 4281ntf    cn125321   4.846   3.941   3.519 -0.3033  0.2983 -0.4739
 4281ntf    sn225322   4.727   4.041   3.425 -0.7412  0.3579  0.1380
 4281ntf    nn325323   4.816   4.162   3.381 -0.0123 -0.0895  0.3678
 4281ntf    sn225324   4.867   4.206   3.240  0.0276 -0.0250  0.4018
 4281ntf    cn125325   5.027   4.280   3.282  0.2295 -0.3853  0.2777
 4281ntf    fn425326   4.904   4.007   3.618 -0.0381 -0.0915 -0.3665
 4281ntf    fn425327   4.803   3.824   3.565  0.1099  0.1934 -0.3503
 4281ntf    fn425328   4.945   3.909   3.437 -0.5539 -0.1757 -0.5972
 4281ntf    on525329   4.670   3.962   3.318  0.4496 -0.6426  0.2200
 4281ntf    on525330   4.633   4.087   3.525 -0.2801  0.9145  0.3191
 4281ntf    on525331   4.793   4.313   3.179  0.1615 -0.1681 -0.0244
 4281ntf    on525332   4.908   4.095   3.157  0.0851 -0.0784  0.5014
 4281ntf    fn425333   5.115   4.250   3.188 -0.0684  0.1229 -0.1727
 4281ntf    fn425334   5.019   4.412   3.284  0.2530 -0.3854  0.3809
 4281ntf    fn425335   5.075   4.244   3.400  0.1377 -0.1271  0.3950
 4282ntf    cn125336   4.348   4.794   6.625  0.1527  0.0893 -0.1772
 4282ntf    sn225337   4.313   4.675   6.757 -0.1680  0.0911 -0.2577
 4282ntf    nn325338   4.167   4.703   6.806 -0.1759 -0.2607 -0.0772
 4282ntf    sn225339   4.037   4.615   6.806 -0.1506 -0.3015  0.3090
 4282ntf    cn125340   4.085   4.494   6.933  0.1183 -0.4811  0.0365
 4282ntf    fn425341   4.361   4.919   6.667 -0.7692 -0.0304  0.5063
 4282ntf    fn425342   4.456   4.764   6.554  0.1356 -0.4240  0.0144
 4282ntf    fn425343   4.250   4.793   6.536 -0.2064 -0.2506  0.2235
 4282ntf    on525344   4.336   4.548   6.694 -0.0737 -0.0307  0.0200
 4282ntf    on525345   4.416   4.698   6.856  0.1886 -0.3297 -0.5277
 4282ntf    on525346   4.022   4.548   6.679  0.7338  0.3625 -0.1569
 4282ntf    on525347   3.924   4.679   6.870  0.0092 -0.2115  0.5027
 4282ntf    fn425348   3.974   4.430   6.966 -0.5627  0.2840 -0.7140
 4282ntf    fn425349   4.176   4.405   6.897 -0.5152 -0.9248 -0.4806
 4282ntf    fn425350   4.139   4.554   7.038 -0.3862  0.3398 -0.1600
 4283ntf    cn125351   0.896   3.887   6.700  0.1413 -0.1892  0.0700
 4283ntf    sn225352   0.864   3.824   6.533 -0.0002  0.1831 -0.0451
 4283ntf    nn325353   0.800   3.949   6.463 -0.6795 -0.1345  0.0053
 4283ntf    sn225354   0.856   4.044   6.352 -0.4548  0.0474  0.2726
 4283ntf    cn125355   0.855   3.940   6.202  0.0311  0.0634  0.2576
 4283ntf    fn425356   0.990   3.979   6.691 -0.4669  0.3443 -0.9857
 4283ntf    fn425357   0.788   3.930   6.764  0.4872  0.2030  0.3918
 4283ntf    fn425358   0.949   3.789   6.771 -0.2061 -0.2226  0.2900
 4283ntf    on525359   0.997   3.793   6.487 -0.1308  0.2882 -0.4992
 4283ntf    on525360   0.778   3.712   6.561  0.6510 -0.1909  0.4870
 4283ntf    on525361   0.993   4.079   6.378 -0.5148  0.5530 -0.0647
 4283ntf    on525362   0.768   4.156   6.326  0.8077  0.9897 -0.0032
 4283ntf    fn425363   0.966   3.870   6.187  0.0168  0.0222  0.3410
 4283ntf    fn425364   0.745   3.866   6.203 -0.0617  0.1775 -0.8295
 4283ntf    fn425365   0.847   4.019   6.097  0.6162  0.2106  0.3225
 4284ntf    cn125366   6.996   0.310   4.887 -0.2180  0.3524  0.0812
 4284ntf    sn225367   6.986   0.478   4.820  0.2735  0.2457 -0.2690
 4284ntf    nn325368   7.043   0.443   4.678  0.1610 -0.3261 -0.1743
 4284ntf    sn225369   6.967   0.434   4.541  0.0373  0.1907 -0.1426
 4284ntf    cn125370   7.105   0.435   4.422  0.1447  0.0709 -0.0180
 4284ntf    fn425371   7.103   0.241   4.848 -0.0468  0.5693  0.1701
 4284ntf    fn425372   6.990   0.306   5.019 -0.1336  0.1729  0.0813
 4284ntf    fn425373   6.890   0.243   4.843 -0.3887  0.6717  0.0090
 4284ntf    on525374   6.846   0.511   4.832  0.1178 -0.4981  0.0063
 4284ntf    on525375   7.074   0.554   4.906  0.0651 -0.2590  0.3961
 4284ntf    on525376   6.895   0.553   4.502 -0.2123 -0.0149 -0.3107
 4284ntf    on525377   6.905   0.306   4.518  0.2875  0.1070 -0.3532
 4284ntf    fn425378   7.189   0.338   4.454 -0.0217 -0.0124  0.1652
 4284ntf    fn425379   7.066   0.427   4.296 -0.7221 -0.1631  0.2627
 4284ntf    fn425380   7.168   0.552   4.423  0.1045  0.0939 -0.2268
 4285ntf    cn125381   0.757   1.294   3.541  0.1284  0.0573 -0.1781
 4285ntf    sn225382   0.594   1.343   3.478 -0.0109  0.1667  0.2698
 4285ntf    nn325383   0.529   1.204   3.444  0.0375  0.0949  0.4714
 4285ntf    sn225384   0.484   1.088   3.540 -0.1472 -0.2482 -0.0262
 4285ntf    cn125385   0.316   1.150   3.574 -0.0339  0.0684 -0.0390
 4285ntf    fn425386   0.818   1.213   3.455  0.1679 -0.0433 -0.0564
 4285ntf    fn425387   0.839   1.398   3.548  0.1262  0.0120  0.5914
 4285ntf    fn425388   0.754   1.233   3.658  0.1091  0.3485 -0.0278
 4285ntf    on525389   0.548   1.404   3.600  0.3075  0.2498  0.3491
 4285ntf    on525390   0.617   1.422   3.360  0.1818  0.3092  0.4019
 4285ntf    on525391   0.550   1.091   3.668  0.2284  0.4206 -0.2313
 4285ntf    on525392   0.454   0.965   3.472 -0.5047 -0.4450  0.4756
 4285ntf    fn425393   0.245   1.050   3.623  0.0750 -0.1484 -0.3241
 4285ntf    fn425394   0.311   1.244   3.667 -0.1033  0.4322 -0.4035
 4285ntf    fn425395   0.255   1.194   3.465 -0.2073 -0.3853 -0.1263
 4286ntf    cn125396   6.896   5.193   0.059 -0.1457 -0.1349  0.2490
 4286ntf    sn225397   6.753   5.255   0.153 -0.3001  0.0302 -0.0923
 4286ntf    nn325398   6.652   5.201   0.046  0.1229 -0.0747 -0.4436
 4286ntf    sn225399   6.496   5.210   0.064  0.1754  0.0995 -0.0530
 4286ntf    cn125400   6.463   5.068   0.174  0.1046  0.1311 -0.0340
 4286ntf    fn425401   6.906   5.253  -0.058  0.5855  0.0909  0.4259
 4286ntf    fn425402   7.012   5.216   0.118 -0.1479  0.5267  0.0018
 4286ntf    fn425403   6.896   5.062   0.039  0.2665 -0.0890 -0.0442
 4286ntf    on525404   6.765   5.184   0.278  0.0846  0.9407  0.4006
 4286ntf    on525405   6.765   5.399   0.154  0.0588  0.0003  0.0496
 4286ntf    on525406   6.422   5.185  -0.057  0.2438  0.3103 -0.1374
 4286ntf    on525407   6.444   5.316   0.147  0.1569 -0.0982  0.1907
 4286ntf    fn425408   6.513   4.954   0.129 -0.3088 -0.0387 -0.0670
 4286ntf    fn425409   6.514   5.087   0.295 -0.4924  0.3711  0.1807
 4286ntf    fn425410   6.336   5.040   0.197  0.0972  0.2251  0.0404
 4287ntf    cn125411   5.335   4.132   2.441 -0.2311  0.1723 -0.1189
 4287ntf    sn225412   5.155   4.140   2.468 -0.2416 -0.3261 -0.0149
 4287ntf    nn325413   5.131   4.292   2.435 -0.2342 -0.2827  0.1800
 4287ntf    sn225414   4.994   4.367   2.419 -0.0765 -0.0414 -0.0460
 4287ntf    cn125415   4.963   4.364   2.240 -0.3009  0.2475 -0.0127
 4287ntf    fn425416   5.399   4.221   2.515 -0.5592  0.4127 -0.1225
 4287ntf    fn425417   5.380   4.017   2.490  0.1775  0.3334 -0.1187
 4287ntf    fn425418   5.374   4.141   2.315 -0.5784 -0.0274 -0.2435
 4287ntf    on525419   5.103   4.049   2.369  0.3077 -0.6173 -0.0401
 4287ntf    on525420   5.142   4.107   2.608 -0.1160 -0.4334 -0.0288
 4287ntf    on525421   5.001   4.509   2.441 -0.0893 -0.1014  0.3520
 4287ntf    on525422   4.885   4.292   2.478  0.1295 -0.3186 -0.0157
 4287ntf    fn425423   5.058   4.416   2.165  0.0213  0.3686  0.4736
 4287ntf    fn425424   4.940   4.240   2.198 -0.3993  0.3793 -0.3487
 4287ntf    fn425425   4.855   4.434   2.210 -0.2529  0.3056 -0.0476
 4288ntf    cn125426   4.898   4.419   6.326 -0.2418  0.1105 -0.3715
 4288ntf    sn225427   4.724   4.372   6.305 -0.2769  0.1696 -0.2155
 4288ntf    nn325428   4.741   4.221   6.267  0.2765  0.1179  0.2251
 4288ntf    sn225429   4.744   4.161   6.121 -0.0644 -0.4577  0.4521
 4288ntf    cn125430   4.899   4.067   6.137  0.1464 -0.1781  0.0591
 4288ntf    fn425431   4.918   4.526   6.402 -0.0582 -0.3216  0.1959
 4288ntf    fn425432   4.974   4.319   6.368 -0.0795  0.3557 -0.0686
 4288ntf    fn425433   4.951   4.452   6.209 -0.3528  0.0829 -0.4299
 4288ntf    on525434   4.669   4.383   6.438  0.0127  0.1732 -0.0956
 4288ntf    on525435   4.664   4.462   6.209  0.0787  0.1713 -0.4380
 4288ntf    on525436   4.767   4.252   6.012 -0.0376 -0.2233  0.6509
 4288ntf    on525437   4.648   4.054   6.104 -0.1458 -0.2149 -0.6580
 4288ntf    fn425438   5.002   4.149   6.129  0.2082 -0.2580  0.0275
 4288ntf    fn425439   4.910   4.002   6.252 -0.1632  0.2319  0.3229
 4288ntf    fn425440   4.916   3.972   6.047  0.1924 -0.2662  0.1596
 4289ntf    cn125441   1.902   2.282   2.619  0.3020  0.1509 -0.2412
 4289ntf    sn225442   1.948   2.221   2.785 -0.2145 -0.0162 -0.1572
 4289ntf    nn325443   2.103   2.209   2.762 -0.1465  0.1458  0.2112
 4289ntf    sn225444   2.199   2.084   2.761 -0.0334  0.2326 -0.4706
 4289ntf    cn125445   2.275   2.116   2.923  0.2010  0.0878 -0.5523
 4289ntf    fn425446   1.945   2.196   2.528 -0.5343 -0.3698 -0.1559
 4289ntf    fn425447   1.775   2.308   2.596  0.1704 -0.3066 -0.0519
 4289ntf    fn425448   1.959   2.397   2.589  0.6367  0.2164  0.5919
 4289ntf    on525449   1.925   2.322   2.885  0.4564 -0.0424  0.0280
 4289ntf    on525450   1.879   2.095   2.797  0.3800 -0.3622 -0.3447
 4289ntf    on525451   2.312   2.097   2.673  0.4518  0.5089  0.1800
 4289ntf    on525452   2.140   1.954   2.779  0.5247  0.0941  0.4526
 4289ntf    fn425453   2.389   2.052   2.946  0.7276  1.0561 -0.4331
 4289ntf    fn425454   2.308   2.244   2.928 -0.1255  0.1454  0.4383
 4289ntf    fn425455   2.204   2.086   3.031 -0.0324 -0.2423 -0.7962
 4290ntf    cn125456   2.855   4.925   5.996  0.3527 -0.2892 -0.2910
 4290ntf    sn225457   2.704   4.899   5.898  0.0596  0.2763  0.0067
 4290ntf    nn325458   2.622   4.798   5.986  0.1598 -0.0359 -0.2569
 4290ntf    sn225459   2.477   4.794   6.046  0.1953 -0.1862 -0.1797
 4290ntf    cn125460   2.492   4.670   6.177  0.0610  0.0011  0.0137
 4290ntf    fn425461   2.910   4.810   6.033 -0.2167 -0.5551 -0.2683
 4290ntf    fn425462   2.952   4.991   5.934  0.3723 -0.1630 -0.1277
 4290ntf    fn425463   2.837   4.991   6.110 -0.4470 -0.6386 -0.2092
 4290ntf    on525464   2.650   5.032   5.889  0.3819  0.4816  0.9654
 4290ntf    on525465   2.746   4.828   5.780 -0.2101  0.1595 -0.0168
 4290ntf    on525466   2.371   4.733   5.970  0.3416  0.0002 -0.5409
 4290ntf    on525467   2.450   4.919   6.112  0.5954  0.1039 -0.5563
 4290ntf    fn425468   2.516   4.547   6.134  0.3653  0.0645 -0.0009
 4290ntf    fn425469   2.585   4.702   6.265 -0.0041  0.6878 -0.1657
 4290ntf    fn425470   2.376   4.660   6.241  0.1099  0.4040  0.1658
 4291ntf    cn125471   0.118   6.196   2.791 -0.2100  0.0957  0.3255
 4291ntf    sn225472  -0.017   6.074   2.784 -0.0050 -0.1380  0.4088
 4291ntf    nn325473  -0.016   6.018   2.930  0.0431  0.3097  0.5814
 4291ntf    sn225474  -0.136   6.003   3.031  0.1276  0.0771  0.6474
 4291ntf    cn125475  -0.131   6.156   3.128  0.1722  0.3004  0.2969
 4291ntf    fn425476   0.120   6.271   2.682 -0.3958  0.5159  0.6061
 4291ntf    fn425477   0.113   6.279   2.894  0.4848  0.4496  0.0779
 4291ntf    fn425478   0.237   6.138   2.789  0.0808  0.7077 -0.4742
 4291ntf    on525479  -0.126   6.163   2.752 -0.5445 -1.1073 -0.4993
 4291ntf    on525480   0.014   5.977   2.682 -0.9961 -0.1682  0.1278
 4291ntf    on525481  -0.123   5.892   3.123  0.1261 -0.9459 -0.5513
 4291ntf    on525482  -0.265   6.014   2.968  0.7600  0.2709 -0.6524
 4291ntf    fn425483  -0.103   6.272   3.072 -0.3296 -0.0871 -0.7760
 4291ntf    fn425484  -0.245   6.175   3.193 -0.1671 -0.4973 -0.0576
 4291ntf    fn425485  -0.037   6.132   3.218  0.1448  0.1647  0.2910
 4292ntf    cn125486   4.473   2.671   4.709  0.3433  0.2836 -0.2643
 4292ntf    sn225487   4.591   2.781   4.626  0.2421  0.3217 -0.3581
 4292ntf    nn325488   4.726   2.702   4.639  0.0331  0.0128 -0.0615
 4292ntf    sn225489   4.864   2.738   4.705  0.0629  0.2290 -0.2411
 4292ntf    cn125490   4.981   2.650   4.596  0.2083  0.3497 -0.1814
 4292ntf    fn425491   4.476   2.686   4.841 -0.2770 -0.1107 -0.2013
 4292ntf    fn425492   4.347   2.693   4.675  0.1934  0.1356  0.1826
 4292ntf    fn425493   4.496   2.542   4.693  0.5741  0.2516  0.2747
 4292ntf    on525494   4.527   2.793   4.497  0.0827  0.1377 -0.2969
 4292ntf    on525495   4.598   2.903   4.703 -0.0103  0.0042  0.1674
 4292ntf    on525496   4.883   2.677   4.834 -0.2394  0.8502  0.0989
 4292ntf    on525497   4.901   2.877   4.693 -0.1797  0.3175  0.0459
 4292ntf    fn425498   5.106   2.659   4.639  0.2946 -0.2340 -0.3069
 4292ntf    fn425499   4.958   2.520   4.595 -0.0966  0.3923  0.4818
 4292ntf    fn425500   4.971   2.688   4.470  0.1291  0.0117 -0.2765
 4293ntf    cn125501   3.040   4.063   3.179  0.2331 -0.3579 -0.4212
 4293ntf    sn225502   3.205   4.123   3.132  0.3424 -0.0214  0.3817
 4293ntf    nn325503   3.202   4.072   2.983 -0.4663  0.4128  0.2419
 4293ntf    sn225504   3.185   4.143   2.845  0.3149 -0.0677 -0.1060
 4293ntf    cn125505   3.041   4.053   2.782 -0.0749  0.3873  0.1253
 4293ntf    fn425506   3.014   4.081   3.307  0.1185 -0.0686 -0.4853
 4293ntf    fn425507   2.940   4.125   3.118 -0.1422  0.2233  0.7604
 4293ntf    fn425508   3.028   3.934   3.151  0.1619 -0.3083 -0.6256
 4293ntf    on525509   3.187   4.264   3.156  0.6194  0.0246  0.3192
 4293ntf    on525510   3.292   4.044   3.215  0.9499 -0.1536 -0.3689
 4293ntf    on525511   3.284   4.123   2.742  0.1747  0.7057 -0.4008
 4293ntf    on525512   3.119   4.271   2.852 -0.2862 -0.4085  0.5710
 4293ntf    fn425513   2.940   4.057   2.868 -0.3829 -0.1835 -0.1948
 4293ntf    fn425514   2.996   4.100   2.667  0.0514  0.4010  0.0817
 4293ntf    fn425515   3.073   3.925   2.768 -0.0251  0.4121  0.0120
 4294ntf    cn125516   4.167   2.852   6.775 -0.1190 -0.1754 -0.3325
 4294ntf    sn225517   4.030   2.773   6.865  0.2347 -0.1725  0.2174
 4294ntf    nn325518   4.032   2.843   7.005  0.5033 -0.6934  0.4761
 4294ntf    sn225519   3.925   2.826   7.119 -0.1850  0.1132 -0.0341
 4294ntf    cn125520   3.817   2.971   7.103  0.1315  0.3447 -0.0932
 4294ntf    fn425521   4.168   2.984   6.759 -0.2827 -0.2141 -0.6574
 4294ntf    fn425522   4.287   2.824   6.823 -0.2678  0.0567  0.1839
 4294ntf    fn425523   4.171   2.802   6.653  0.1493 -0.2803 -0.2807
 4294ntf    on525524   3.923   2.823   6.781  0.7172 -0.5202 -0.6234
 4294ntf    on525525   4.047   2.630   6.869 -0.0369 -0.2096  0.1112
 4294ntf    on525526   4.005   2.853   7.237 -0.0425 -0.3461 -0.0214
 4294ntf    on525527   3.836   2.713   7.117  0.1922 -0.1816 -0.3945
 4294ntf    fn425528   3.889   3.082   7.102  0.6606  0.0109  0.3631
 4294ntf    fn425529   3.741   2.972   6.994  0.8600  0.0714 -0.6119
 4294ntf    fn425530   3.738   2.989   7.208 -0.0242  0.6453 -0.2599
 4295ntf    cn125531   0.613   1.188   6.866  0.4481  0.0080 -0.3143
 4295ntf    sn225532   0.546   1.040   6.784  0.1383 -0.0819  0.0961
 4295ntf    nn325533   0.679   0.980   6.725  0.1655  0.0272  0.0452
 4295ntf    sn225534   0.757   1.030   6.598  0.0403  0.0807 -0.0109
 4295ntf    cn125535   0.682   0.927   6.468  0.2478  0.1764 -0.2066
 4295ntf    fn425536   0.517   1.245   6.937  0.2973 -0.0491 -0.4713
 4295ntf    fn425537   0.711   1.161   6.952 -0.0174 -0.3020  0.1235
 4295ntf    fn425538   0.661   1.279   6.783  0.7499 -0.0070 -0.1573
 4295ntf    on525539   0.483   0.968   6.891 -0.1101 -0.5348 -0.3508
 4295ntf    on525540   0.457   1.084   6.680 -0.1711 -0.8738  0.0207
 4295ntf    on525541   0.894   0.989   6.584  0.1295  0.4518 -0.2406
 4295ntf    on525542   0.728   1.163   6.551  0.3718  0.0971 -0.1683
 4295ntf    fn425543   0.554   0.954   6.447  0.1222 -0.1126  0.1872
 4295ntf    fn425544   0.747   0.938   6.353  0.0885  0.2940 -0.2862
 4295ntf    fn425545   0.686   0.798   6.496  0.4374 -0.0066 -1.0587
 4296ntf    cn125546   5.519   1.648   2.248 -0.1975  0.0747 -0.0299
 4296ntf    sn225547   5.648   1.642   2.376  0.1553  0.0753 -0.3835
 4296ntf    nn325548   5.630   1.793   2.416 -0.1957 -0.0508 -0.0679
 4296ntf    sn225549   5.726   1.915   2.434 -0.1423 -0.0756 -0.1898
 4296ntf    cn125550   5.800   1.930   2.269  0.0967  0.0957 -0.0684
 4296ntf    fn425551   5.497   1.527   2.198 -0.2202  0.0159  0.1231
 4296ntf    fn425552   5.407   1.682   2.309 -0.0502 -0.2302  0.4104
 4296ntf    fn425553   5.552   1.735   2.154  0.0100 -0.0250 -0.0489
 4296ntf    on525554   5.600   1.549   2.475  0.1825 -0.0436 -0.4820
 4296ntf    on525555   5.768   1.614   2.301  0.7445  0.3343  0.4551
 4296ntf    on525556   5.837   1.915   2.527 -0.3977  0.4859  0.1230
 4296ntf    on525557   5.644   2.033   2.447 -0.5840 -0.4394  0.3847
 4296ntf    fn425558   5.858   2.046   2.240  0.1767  0.0788  0.0247
 4296ntf    fn425559   5.893   1.837   2.259 -0.1383 -0.0845 -0.6280
 4296ntf    fn425560   5.716   1.912   2.169  0.8682 -0.1320 -0.6852
 4297ntf    cn125561   6.037   3.136   2.272 -0.2254  0.0822  0.8740
 4297ntf    sn225562   6.146   3.270   2.215 -0.4583 -0.1385 -0.1114
 4297ntf    nn325563   6.055   3.332   2.104 -0.3929 -0.4606 -0.3458
 4297ntf    sn225564   6.100   3.353   1.955  0.3358  0.0210 -0.0600
 4297ntf    cn125565   6.097   3.184   1.890 -0.2489  0.0996 -0.2426
 4297ntf    fn425566   6.011   3.051   2.174 -0.0502  0.8535  0.1460
 4297ntf    fn425567   6.092   3.070   2.373 -0.0588 -0.8667  0.1806
 4297ntf    fn425568   5.921   3.180   2.317 -0.6220 -0.2743  0.2056
 4297ntf    on525569   6.171   3.361   2.324 -0.0077 -0.3925 -0.0019
 4297ntf    on525570   6.261   3.198   2.168 -0.1861  0.4097 -0.2894
 4297ntf    on525571   6.238   3.388   1.930  0.6035 -1.0638 -0.1411
 4297ntf    on525572   5.992   3.414   1.882  0.2498 -0.1492 -0.0753
 4297ntf    fn425573   6.005   3.108   1.947 -0.0804  0.2064  0.1729
 4297ntf    fn425574   6.067   3.187   1.761  0.6375  0.4660 -0.4486
 4297ntf    fn425575   6.210   3.115   1.896 -0.2763  0.0707 -0.0556
 4298ntf    cn125576   4.609   2.856   5.256 -0.1745 -0.1098 -0.0214
 4298ntf    sn225577   4.601   3.020   5.333 -0.0385 -0.1903  0.1646
 4298ntf    nn325578   4.623   2.983   5.484 -0.3382  0.0780  0.2759
 4298ntf    sn225579   4.554   3.050   5.608 -0.3041  0.2014  0.2292
 4298ntf    cn125580   4.668   3.183   5.657 -0.0760 -0.0040  0.2533
 4298ntf    fn425581   4.572   2.852   5.128  0.1898  0.3967 -0.1445
 4298ntf    fn425582   4.732   2.808   5.261  0.1253  0.6282 -0.1219
 4298ntf    fn425583   4.543   2.769   5.330 -0.1584  0.1227  0.2682
 4298ntf    on525584   4.708   3.097   5.273 -0.2220  0.1214  0.2336
 4298ntf    on525585   4.469   3.062   5.292 -0.0619 -0.3656  0.0599
 4298ntf    on525586   4.544   2.957   5.717  0.0544 -0.2262 -0.0956
 4298ntf    on525587   4.433   3.125   5.582 -0.1250  0.1511 -0.8216
 4298ntf    fn425588   4.602   3.279   5.719 -0.6334 -0.2964  0.1242
 4298ntf    fn425589   4.757   3.143   5.747  0.5010  0.4756 -0.0940
 4298ntf    fn425590   4.738   3.250   5.567 -0.2562 -0.0636  0.0674
 4299ntf    cn125591   3.164   6.143   1.071  0.0205  0.2124  0.2566
 4299ntf    sn225592   3.271   6.175   0.927  0.1296 -0.1914  0.2484
 4299ntf    nn325593   3.409   6.189   1.000 -0.0588  0.5198  0.4764
 4299ntf    sn225594   3.553   6.166   0.940 -0.3047  0.0440  0.0640
 4299ntf    cn125595   3.612   6.337   0.918 -0.2889  0.0373  0.0534
 4299ntf    fn425596   3.210   6.042   1.142 -0.2029  0.1205  0.2704
 4299ntf    fn425597   3.156   6.256   1.139  0.1131  0.3394  0.0595
 4299ntf    fn425598   3.038   6.112   1.044  0.1260 -0.1587  0.1977
 4299ntf    on525599   3.250   6.063   0.839  0.4295 -0.1327  0.1023
 4299ntf    on525600   3.215   6.301   0.887 -0.3657 -0.5182 -0.0984
 4299ntf    on525601   3.566   6.115   0.806  0.2353 -0.0312  0.1460
 4299ntf    on525602   3.639   6.099   1.034 -0.0100  0.6335  0.2182
 4299ntf    fn425603   3.740   6.352   0.889 -0.2881  0.1442  0.1135
 4299ntf    fn425604   3.550   6.383   0.811 -0.3469  0.8826  0.4411
 4299ntf    fn425605   3.594   6.416   1.023  0.0916 -0.2941  0.3732
 4300ntf    cn125606   4.837   5.596   3.038  0.2124  0.1250 -0.2323
 4300ntf    sn225607   4.972   5.712   3.003  0.0641  0.2330 -0.4469
 4300ntf    nn325608   4.893   5.847   3.009  0.2294  0.3145 -0.0743
 4300ntf    sn225609   4.952   5.993   3.007  0.4336  0.2359  0.1872
 4300ntf    cn125610   4.963   6.043   3.181  0.2098  0.3687  0.1639
 4300ntf    fn425611   4.848   5.472   2.993 -0.7133 -0.0612  0.0161
 4300ntf    fn425612   4.823   5.579   3.169  0.3003  0.3962 -0.1883
 4300ntf    fn425613   4.726   5.641   2.981 -0.0955  0.3411  0.5228
 4300ntf    on525614   5.056   5.693   3.119 -0.1746 -0.1300 -0.3312
 4300ntf    on525615   5.012   5.669   2.871  0.0060  0.3863 -0.5141
 4300ntf    on525616   4.850   6.076   2.949  0.0281  0.2510  0.9069
 4300ntf    on525617   5.088   6.009   2.961  0.3510 -0.6413 -0.3918
 4300ntf    fn425618   4.840   6.064   3.226 -0.0819 -1.0557  0.0584
 4300ntf    fn425619   5.019   5.963   3.270 -0.0624 -0.1558 -0.1379
 4300ntf    fn425620   5.029   6.158   3.185 -0.1864  0.6044 -0.0353
 4301ntf    cn125621   5.981   6.182   6.712  0.0116  0.2905 -0.1055
 4301ntf    sn225622   5.812   6.240   6.682 -0.0334  0.3109  0.1806
 4301ntf    nn325623   5.809   6.371   6.768  1.1086  0.1998  0.4019
 4301ntf    sn225624   5.768   6.391   6.918 -0.0766  0.1253  0.0990
 4301ntf    cn125625   5.587   6.401   6.906 -0.0595 -0.0780 -0.3247
 4301ntf    fn425626   6.022   6.087   6.629  0.7363  0.4698  0.0403
 4301ntf    fn425627   6.076   6.273   6.698 -0.1475  0.5851  0.6633
 4301ntf    fn425628   6.001   6.131   6.833  0.1979  0.3699 -0.1023
 4301ntf    on525629   5.812   6.278   6.542 -0.3672  0.5655  0.2473
 4301ntf    on525630   5.724   6.133   6.721 -0.1544  0.2623 -0.2167
 4301ntf    on525631   5.818   6.518   6.963 -0.3531  0.2167  0.1512
 4301ntf    on525632   5.793   6.275   7.001  0.7591 -0.1565 -0.5366
 4301ntf    fn425633   5.534   6.280   6.906  0.9284 -0.5218  0.1946
 4301ntf    fn425634   5.545   6.478   7.005  0.2613 -0.0415 -0.2159
 4301ntf    fn425635   5.532   6.459   6.800 -0.5010  0.1105  0.0044
 4302ntf    cn125636   2.165   0.276   4.099  0.0645 -0.1181  0.3927
 4302ntf    sn225637   2.275   0.366   4.211 -0.0409  0.1015  0.3199
 4302ntf    nn325638   2.243   0.514   4.170 -0.2302 -0.0714 -0.1584
 4302ntf    sn225639   2.161   0.622   4.249 -0.0934 -0.0080 -0.1029
 4302ntf    cn125640   1.997   0.617   4.170 -0.3229  0.0864  0.3627
 4302ntf    fn425641   2.144   0.152   4.141  0.1064 -0.2534  0.0198
 4302ntf    fn425642   2.042   0.325   4.108  0.1338  0.0397  0.4858
 4302ntf    fn425643   2.198   0.268   3.971  0.3368  0.1304  0.4478
 4302ntf    on525644   2.235   0.335   4.346  0.0212 -0.1735  0.2752
 4302ntf    on525645   2.406   0.320   4.171 -0.0640  0.0438  0.3111
 4302ntf    on525646   2.212   0.750   4.206 -0.7038  0.3171  0.1276
 4302ntf    on525647   2.135   0.612   4.391  0.4847 -0.3905 -0.0211
 4302ntf    fn425648   1.917   0.720   4.191 -0.5115 -0.1408  0.7691
 4302ntf    fn425649   2.002   0.605   4.038  1.2683  0.1221  0.3974
 4302ntf    fn425650   1.927   0.514   4.216  0.1948 -0.4484 -0.0266
 4303ntf    cn125651   7.226   1.914   1.250 -0.0831 -0.0226  0.0431
 4303ntf    sn225652   7.191   1.837   1.411  0.0860  0.1614  0.1678
 4303ntf    nn325653   7.172   1.962   1.505  0.4272  0.2182  0.1638
 4303ntf    sn225654   7.043   2.038   1.552  0.2871 -0.0211  0.1709
 4303ntf    cn125655   7.053   2.003   1.730 -0.3338 -0.1968  0.1736
 4303ntf    fn425656   7.149   2.022   1.250 -0.3445 -0.2067  0.2292
 4303ntf    fn425657   7.353   1.946   1.229 -0.1608  0.5054  0.3731
 4303ntf    fn425658   7.195   1.837   1.147  0.2713 -0.1282  0.0149
 4303ntf    on525659   7.078   1.749   1.394 -0.1779  0.4850  0.2311
 4303ntf    on525660   7.314   1.769   1.444  0.2366  0.3758  0.0535
 4303ntf    on525661   6.917   1.982   1.510  0.1781  0.2557  0.1241
 4303ntf    on525662   7.047   2.182   1.556  0.2616 -0.0132 -0.0808
 4303ntf    fn425663   7.043   1.876   1.763 -0.5655 -0.1863  0.1445
 4303ntf    fn425664   7.171   2.051   1.769 -0.1990 -0.0194 -0.4424
 4303ntf    fn425665   6.964   2.068   1.803 -0.2902  0.2646 -0.1784
 4304ntf    cn125666   1.292   2.820   0.725 -0.1522 -0.1053  0.1492
 4304ntf    sn225667   1.136   2.909   0.701 -0.1642 -0.1321  0.1272
 4304ntf    nn325668   1.119   2.894   0.546  0.3848  0.1536  0.0363
 4304ntf    sn225669   1.046   2.777   0.470  0.5020  0.0857  0.0276
 4304ntf    cn125670   1.187   2.720   0.371  0.4117  0.0216 -0.0646
 4304ntf    fn425671   1.393   2.889   0.675 -0.0074 -0.0930  0.4546
 4304ntf    fn425672   1.330   2.798   0.851  0.2192 -0.0790  0.0449
 4304ntf    fn425673   1.291   2.697   0.675  0.2201  0.0986 -0.3670
 4304ntf    on525674   1.041   2.839   0.783 -0.6654 -0.4333 -0.6948
 4304ntf    on525675   1.168   3.047   0.730  0.1790 -0.2716  0.4134
 4304ntf    on525676   0.943   2.835   0.387  0.1554  0.1689  0.5071
 4304ntf    on525677   1.012   2.662   0.550  0.7308  0.1399  0.2047
 4304ntf    fn425678   1.181   2.591   0.342 -0.0021 -0.0579  0.3616
 4304ntf    fn425679   1.198   2.784   0.256  0.6912  0.3235  0.1248
 4304ntf    fn425680   1.302   2.732   0.437  0.2616  0.5737  0.1047
 4305ntf    cn125681   2.002   2.324   2.187  0.3812 -0.1246  0.0909
 4305ntf    sn225682   2.152   2.269   2.099  0.2107  0.0768 -0.3308
 4305ntf    nn325683   2.234   2.402   2.113  0.1657  0.0872 -0.1595
 4305ntf    sn225684   2.370   2.428   2.188 -0.1064  0.1541  0.3112
 4305ntf    cn125685   2.367   2.610   2.179  0.2364  0.1371 -0.1607
 4305ntf    fn425686   2.031   2.343   2.314 -0.5431  0.9397  0.1563
 4305ntf    fn425687   1.949   2.436   2.141  0.1740 -0.3228 -0.1617
 4305ntf    fn425688   1.900   2.239   2.198 -0.4357  0.8989  0.6096
 4305ntf    on525689   2.200   2.158   2.177 -0.1792 -0.0910 -0.3266
 4305ntf    on525690   2.113   2.240   1.964 -0.5686  0.6458 -0.2344
 4305ntf    on525691   2.489   2.390   2.117 -0.5374  0.0007 -0.3330
 4305ntf    on525692   2.368   2.399   2.330 -0.0821  0.1416  0.3091
 4305ntf    fn425693   2.419   2.654   2.066  0.1243 -0.0793 -0.2991
 4305ntf    fn425694   2.243   2.657   2.178 -0.1033 -0.7418 -0.5429
 4305ntf    fn425695   2.439   2.654   2.281 -0.1133  0.4081 -0.0292
 4306ntf    cn125696   6.873   3.747   1.273  0.2254 -0.4242  0.0188
 4306ntf    sn225697   6.820   3.921   1.269  0.3138 -0.4011 -0.1769
 4306ntf    nn325698   6.915   3.980   1.159  0.2788 -0.3355 -0.1725
 4306ntf    sn225699   6.891   4.011   1.007 -0.1748 -0.0551 -0.0449
 4306ntf    cn125700   6.851   4.188   1.026 -0.1742 -0.0326 -0.2462
 4306ntf    fn425701   6.991   3.726   1.327 -0.0362  0.2679  0.8922
 4306ntf    fn425702   6.787   3.669   1.337 -0.2841 -0.1428 -0.3135
 4306ntf    fn425703   6.876   3.690   1.153 -0.5895 -0.0142 -0.2077
 4306ntf    on525704   6.679   3.920   1.239  0.2883 -0.3274 -0.0608
 4306ntf    on525705   6.864   3.967   1.399 -0.3211 -0.2684 -0.0036
 4306ntf    on525706   6.773   3.950   0.951 -0.2677 -0.2056  0.3173
 4306ntf    on525707   7.011   4.014   0.927 -0.4931 -0.2025 -0.5342
 4306ntf    fn425708   6.809   4.246   0.914  0.1030  0.3128 -0.1705
 4306ntf    fn425709   6.757   4.208   1.117  0.2089 -0.0787  0.1568
 4306ntf    fn425710   6.954   4.263   1.060 -0.0203 -0.3384 -0.0350
 4307ntf    cn125711   5.704   1.218   5.936  0.1267 -0.3750  0.1976
 4307ntf    sn225712   5.683   1.038   5.941 -0.6756 -0.2913 -0.0664
 4307ntf    nn325713   5.611   1.008   5.804 -0.1845  0.3579 -0.4720
 4307ntf    sn225714   5.464   0.960   5.779 -0.1683  0.0873 -0.0589
 4307ntf    cn125715   5.483   0.912   5.605 -0.1887  0.1321 -0.0740
 4307ntf    fn425716   5.593   1.287   5.957  0.0330 -0.5598  0.3080
 4307ntf    fn425717   5.784   1.272   6.026  0.0348 -0.0509  0.0879
 4307ntf    fn425718   5.754   1.253   5.818 -0.1166 -0.3907  0.0885
 4307ntf    on525719   5.810   0.971   5.939 -0.2298  0.5139  0.6249
 4307ntf    on525720   5.606   1.022   6.062 -0.4200 -0.1156  0.1215
 4307ntf    on525721   5.370   1.069   5.781  0.1604  0.3636  0.6124
 4307ntf    on525722   5.430   0.835   5.842  0.6169  0.1367  0.4750
 4307ntf    fn425723   5.368   0.867   5.556  0.1681 -0.5016 -0.3434
 4307ntf    fn425724   5.512   1.016   5.529 -0.1156  0.1452 -0.0276
 4307ntf    fn425725   5.571   0.817   5.581 -0.1062  0.2189 -0.1148
 4308ntf    cn125726   7.083   2.358   4.843  0.0287 -0.2562  0.0900
 4308ntf    sn225727   7.072   2.284   5.009  0.1278  0.0669  0.2400
 4308ntf    nn325728   7.112   2.137   4.971  0.2590  0.0530  0.4290
 4308ntf    sn225729   7.046   1.997   5.000 -0.1218  0.1792  0.1764
 4308ntf    cn125730   7.161   1.945   5.130 -0.2343 -0.1810  0.1320
 4308ntf    fn425731   7.004   2.300   4.753 -0.5420  0.2560  0.2568
 4308ntf    fn425732   7.055   2.487   4.842  0.0783 -0.2449  0.1329
 4308ntf    fn425733   7.204   2.332   4.797 -0.0649 -0.4910 -0.0290
 4308ntf    on525734   7.179   2.360   5.069 -0.0767  0.7255 -0.2170
 4308ntf    on525735   6.940   2.314   5.058 -0.1352  0.0292 -0.4326
 4308ntf    on525736   7.072   1.925   4.878 -0.6356  0.0412  0.1459
 4308ntf    on525737   6.912   1.985   5.054  0.2415  0.0365  1.0551
 4308ntf    fn425738   7.151   2.021   5.237  0.1557  0.2794 -0.1504
 4308ntf    fn425739   7.137   1.817   5.152 -0.3771 -0.2446 -0.3749
 4308ntf    fn425740   7.288   1.957   5.094 -0.3637  0.3902 -0.1454
 4309ntf    cn125741   1.754   2.025   5.105  0.0273 -0.4852  0.0182
 4309ntf    sn225742   1.722   2.025   5.284 -0.2575  0.2041 -0.0275
 4309ntf    nn325743   1.842   2.102   5.348  0.0304 -0.2227 -0.0500
 4309ntf    sn225744   1.993   2.057   5.356  0.1260  0.0881 -0.0897
 4309ntf    cn125745   2.017   1.959   5.507 -0.2044  0.0809 -0.0406
 4309ntf    fn425746   1.817   1.916   5.066  0.0748 -0.2557 -0.5609
 4309ntf    fn425747   1.640   2.031   5.037 -0.2032 -0.3505  0.4121
 4309ntf    fn425748   1.826   2.134   5.081  0.1677 -0.6698 -0.4093
 4309ntf    on525749   1.600   2.096   5.310 -0.0961  0.2831  0.5119
 4309ntf    on525750   1.718   1.888   5.328  0.1212  0.0605 -0.4267
 4309ntf    on525751   2.077   2.172   5.377 -0.0428  0.0806  0.6491
 4309ntf    on525752   2.038   1.966   5.254 -0.0127 -0.0859  0.0018
 4309ntf    fn425753   2.143   1.921   5.523 -0.3026  0.0790  0.7701
 4309ntf    fn425754   1.982   2.026   5.616  0.3034 -0.0604  0.2125
 4309ntf    fn425755   1.942   1.850   5.502  0.1466 -0.2086  0.7817
 4310ntf    cn125756   0.549   0.588   4.068  0.0397 -0.5243  0.0740
 4310ntf    sn225757   0.399   0.505   4.008 -0.2766  0.3709 -0.4000
 4310ntf    nn325758   0.384   0.570   3.866 -0.0090  0.3996 -0.4168
 4310ntf    sn225759   0.261   0.620   3.781 -0.1688  0.2343 -0.2848
 4310ntf    cn125760   0.234   0.796   3.819 -0.1331  0.1731  0.0303
 4310ntf    fn425761   0.655   0.535   4.010  0.2869  0.3156 -0.2609
 4310ntf    fn425762   0.549   0.720   4.056 -0.2826 -0.5069  0.2459
 4310ntf    fn425763   0.557   0.569   4.199  0.1140  0.1929  0.1813
 4310ntf    on525764   0.433   0.365   3.999  0.3554  0.4836  0.1468
 4310ntf    on525765   0.302   0.538   4.110  0.3503  0.3799  0.1995
 4310ntf    on525766   0.148   0.545   3.830  0.1236 -0.3950 -0.5596
 4310ntf    on525767   0.285   0.619   3.639 -0.1282 -0.3688 -0.2749
 4310ntf    fn425768   0.207   0.816   3.947 -0.3850 -0.0060  0.0060
 4310ntf    fn425769   0.346   0.866   3.808  0.0844 -0.2468 -0.5082
 4310ntf    fn425770   0.149   0.859   3.740  0.0589  0.5445  0.1185
 4311ntf    cn125771   1.557   5.050   6.327  0.4143 -0.2874  0.2690
 4311ntf    sn225772   1.499   5.191   6.427  0.0774  0.0449 -0.3891
 4311ntf    nn325773   1.406   5.109   6.523 -0.4511  0.9213 -0.1423
 4311ntf    sn225774   1.250   5.094   6.535 -0.3446 -0.2054 -0.0045
 4311ntf    cn125775   1.237   5.058   6.712 -0.4722  0.1888  0.0680
 4311ntf    fn425776   1.654   5.078   6.241  0.2368  0.1820  0.2194
 4311ntf    fn425777   1.612   4.955   6.400 -0.2449 -0.6922  0.2443
 4311ntf    fn425778   1.461   4.985   6.264 -0.3966  0.8145  0.3366
 4311ntf    on525779   1.612   5.226   6.508  0.1131  0.0335 -0.4339
 4311ntf    on525780   1.441   5.290   6.341 -0.4478 -0.0064 -0.0981
 4311ntf    on525781   1.190   4.978   6.474 -0.3263 -0.5091  0.5564
 4311ntf    on525782   1.171   5.214   6.518 -0.0278  0.0974  0.6387
 4311ntf    fn425783   1.111   5.064   6.753 -0.4873  0.2257  0.0159
 4311ntf    fn425784   1.274   4.935   6.745 -0.1085  0.4339  0.5792
 4311ntf    fn425785   1.307   5.142   6.787 -0.4413  0.3260 -0.1140
 4312ntf    cn125786   0.409   5.019   6.304  0.2113 -0.0407  0.0130
 4312ntf    sn225787   0.252   5.011   6.395  0.2887  0.0605  0.1548
 4312ntf    nn325788   0.246   4.855   6.410 -0.3101  0.0547 -0.0757
 4312ntf    sn225789   0.173   4.746   6.325 -0.1739 -0.2360  0.1751
 4312ntf    cn125790   0.306   4.691   6.214 -0.2507  0.3506 -0.2127
 4312ntf    fn425791   0.442   5.145   6.282 -0.0997 -0.0116 -0.3056
 4312ntf    fn425792   0.507   4.953   6.363 -0.1625 -0.5073  0.1209
 4312ntf    fn425793   0.392   4.962   6.186  0.1419  0.2304 -0.1064
 4312ntf    on525794   0.283   5.073   6.522  0.2300 -0.1043  0.2495
 4312ntf    on525795   0.151   5.066   6.307  0.4601 -0.1043 -0.1427
 4312ntf    on525796   0.061   4.798   6.250 -0.2091 -0.5324  0.0220
 4312ntf    on525797   0.144   4.628   6.402  0.3920 -0.1167  0.5741
 4312ntf    fn425798   0.310   4.766   6.105  0.8402  0.0763 -0.3712
 4312ntf    fn425799   0.426   4.697   6.270 -0.1433 -0.1336 -0.3832
 4312ntf    fn425800   0.287   4.563   6.185 -0.0792  0.2694  0.0349
 4313ntf    cn125801   3.535   4.218   6.643 -0.0595 -0.0428  0.1210
 4313ntf    sn225802   3.511   4.250   6.466  0.0451  0.3068  0.1687
 4313ntf    nn325803   3.577   4.120   6.407  0.3484  0.2290  0.6801
 4313ntf    sn225804   3.517   3.975   6.405  0.2690  0.2699  0.1562
 4313ntf    cn125805   3.623   3.895   6.528  0.2579  0.1884  0.1127
 4313ntf    fn425806   3.661   4.198   6.678 -0.0631 -0.2303  0.0259
 4313ntf    fn425807   3.496   4.323   6.714  0.0371 -0.2438  0.4720
 4313ntf    fn425808   3.467   4.115   6.691  0.1736 -0.2286  0.0513
 4313ntf    on525809   3.369   4.258   6.440  0.1191  0.1139 -0.3029
 4313ntf    on525810   3.597   4.364   6.445 -0.4126  0.5679 -0.3289
 4313ntf    on525811   3.546   3.905   6.282  0.2917  1.2267 -0.4022
 4313ntf    on525812   3.385   3.955   6.457  0.4140  0.5213  0.6219
 4313ntf    fn425813   3.734   3.848   6.473  0.3732  0.1022  0.4141
 4313ntf    fn425814   3.657   3.972   6.630 -0.7922  0.3738  0.3313
 4313ntf    fn425815   3.567   3.785   6.578 -0.0236 -0.0524 -0.7274
 4314ntf    cn125816   1.210   6.122   3.798 -0.1491  0.3926 -0.3595
 4314ntf    sn225817   1.124   6.230   3.916 -0.2060 -0.0061 -0.0351
 4314ntf    nn325818   1.009   6.128   3.951 -0.3174  0.1535  0.0660
 4314ntf    sn225819   0.869   6.111   3.882 -0.2588  0.2068 -0.0677
 4314ntf    cn125820   0.757   6.129   4.025 -0.1278 -0.0155  0.0644
 4314ntf    fn425821   1.134   6.066   3.705  0.2459 -0.1356 -0.3740
 4314ntf    fn425822   1.310   6.174   3.729 -0.0361  0.0718 -0.4391
 4314ntf    fn425823   1.262   6.016   3.858 -0.1590 -0.0413 -1.1062
 4314ntf    on525824   1.225   6.233   4.019  0.0149 -0.0314 -0.2507
 4314ntf    on525825   1.095   6.347   3.839  0.3215 -0.0694 -0.3318
 4314ntf    on525826   0.849   5.976   3.834  0.6927 -0.0795  0.3008
 4314ntf    on525827   0.831   6.212   3.787  0.1151  0.3028 -0.1146
 4314ntf    fn425828   0.809   6.086   4.139 -0.6013 -0.4330  0.1251
 4314ntf    fn425829   0.736   6.256   4.054  0.5033  0.1398 -0.1285
 4314ntf    fn425830   0.638   6.078   4.000 -0.3328  0.5199 -0.0530
 4315ntf    cn125831   0.877   6.938   3.609 -0.0150 -0.1315 -0.0713
 4315ntf    sn225832   0.878   7.074   3.488 -0.0524  0.2652  0.3743
 4315ntf    nn325833   0.768   7.162   3.557 -0.1279  0.6204 -0.1967
 4315ntf    sn225834   0.775   7.276   3.664  0.1701  0.4151  0.0024
 4315ntf    cn125835   0.634   7.381   3.617  0.0688  0.1671 -0.2493
 4315ntf    fn425836   0.756   6.895   3.642  0.0515 -0.3132 -0.0633
 4315ntf    fn425837   0.956   6.835   3.580 -0.2838 -0.4442  0.2990
 4315ntf    fn425838   0.920   6.985   3.724 -0.4407  0.6711 -0.2341
 4315ntf    on525839   1.015   7.119   3.487 -0.0739  0.3275 -0.2359
 4315ntf    on525840   0.838   7.003   3.369  0.2290  0.5236  0.1217
 4315ntf    on525841   0.882   7.370   3.644  0.0561  0.5785  0.1523
 4315ntf    on525842   0.750   7.244   3.803  0.6291 -0.2668 -0.0664
 4315ntf    fn425843   0.530   7.303   3.593 -0.2240  0.3434  0.4198
 4315ntf    fn425844   0.596   7.462   3.714 -0.2928  0.3020 -0.5022
 4315ntf    fn425845   0.654   7.459   3.511 -0.2467 -0.3888 -0.7233
 4316ntf    cn125846   2.788   0.433   2.980  0.1192  0.2313 -0.2843
 4316ntf    sn225847   2.860   0.423   2.813 -0.0773  0.0342 -0.3582
 4316ntf    nn325848   2.748   0.348   2.733  0.5302 -0.5593 -0.6571
 4316ntf    sn225849   2.615   0.400   2.667  0.3981  0.1284  0.1382
 4316ntf    cn125850   2.649   0.343   2.498 -0.1483 -0.2450  0.1512
 4316ntf    fn425851   2.865   0.493   3.070 -0.0974  0.1158 -0.0197
 4316ntf    fn425852   2.671   0.495   2.980  0.4435  0.8486 -0.2824
 4316ntf    fn425853   2.758   0.311   3.022 -0.1700  0.4783  0.2430
 4316ntf    on525854   2.893   0.558   2.775  0.0784  0.1488  0.1790
 4316ntf    on525855   2.975   0.340   2.839 -0.1559  0.0662  0.1090
 4316ntf    on525856   2.600   0.542   2.647  0.3793  0.1375  0.2150
 4316ntf    on525857   2.497   0.321   2.693 -0.0072  0.4769 -0.6160
 4316ntf    fn425858   2.551   0.362   2.411 -0.0155  0.3979  0.1392
 4316ntf    fn425859   2.749   0.416   2.451 -0.1114 -0.0683  0.4997
 4316ntf    fn425860   2.673   0.213   2.492  0.2075 -0.1579 -0.3723
 4317ntf    cn125861   3.678   5.726   4.343  0.1881  0.0421 -0.1945
 4317ntf    sn225862   3.527   5.626   4.320  0.1389  0.0851 -0.0609
 4317ntf    nn325863   3.442   5.736   4.247  0.2451  0.5002  0.4348
 4317ntf    sn225864   3.349   5.850   4.300 -0.1768  0.2852  0.1619
 4317ntf    cn125865   3.449   5.991   4.242 -0.2784  0.3508  0.1433
 4317ntf    fn425866   3.766   5.658   4.414  0.2422  0.2867 -0.0284
 4317ntf    fn425867   3.746   5.754   4.233  0.2444  0.6779  0.0015
 4317ntf    fn425868   3.651   5.842   4.400  0.1026 -0.0509 -0.0455
 4317ntf    on525869   3.571   5.524   4.228  0.2185 -0.1808  0.2735
 4317ntf    on525870   3.482   5.582   4.449  1.3181  0.1458  0.3899
 4317ntf    on525871   3.356   5.872   4.442  0.2360 -0.6442  0.2878
 4317ntf    on525872   3.221   5.865   4.235  0.1416 -0.1376 -0.5813
 4317ntf    fn425873   3.456   5.981   4.111 -0.1956  0.1271  0.1635
 4317ntf    fn425874   3.389   6.105   4.273  0.1654  0.7241 -0.3632
 4317ntf    fn425875   3.573   6.008   4.287 -0.4712  0.7877  0.5157
 4318ntf    cn125876   0.255   6.855   2.479 -0.2139  0.4917  0.4531
 4318ntf    sn225877   0.339   6.803   2.631 -0.0072  0.0142  0.1769
 4318ntf    nn325878   0.224   6.791   2.737  0.2240  0.6841  0.5138
 4318ntf    sn225879   0.179   6.658   2.807  0.2594  0.2378 -0.2899
 4318ntf    cn125880   0.070   6.572   2.691 -0.0037 -0.2820  0.3346
 4318ntf    fn425881   0.223   6.983   2.490  0.8747  0.8501 -0.4317
 4318ntf    fn425882   0.333   6.855   2.372  0.0873  0.0028  0.6666
 4318ntf    fn425883   0.146   6.784   2.451 -0.0458  0.2709  0.3548
 4318ntf    on525884   0.401   6.680   2.587  0.1191 -0.0661  0.5722
 4318ntf    on525885   0.427   6.914   2.658 -0.4505  0.5298 -0.4809
 4318ntf    on525886   0.092   6.691   2.918  0.0752 -0.4856 -0.2133
 4318ntf    on525887   0.278   6.555   2.831  0.4474  0.3621 -0.5320
 4318ntf    fn425888   0.135   6.526   2.586 -0.5647 -0.1114 -0.0967
 4318ntf    fn425889   0.005   6.471   2.747  0.2251 -0.3661  0.4488
 4318ntf    fn425890  -0.028   6.648   2.645  0.2909 -0.5068 -0.6867
 4319ntf    cn125891   1.861   1.170   2.872 -0.0222 -0.0093 -0.0628
 4319ntf    sn225892   1.929   1.054   2.749 -0.3653 -0.2064 -0.0659
 4319ntf    nn325893   1.801   0.965   2.729 -0.3874 -0.0505 -0.6483
 4319ntf    sn225894   1.773   0.817   2.775  0.0594  0.1472  0.2856
 4319ntf    cn125895   1.904   0.747   2.669 -0.1421  0.1869  0.0079
 4319ntf    fn425896   1.958   1.250   2.913  0.0007  0.0744 -0.2804
 4319ntf    fn425897   1.769   1.242   2.810 -0.1946 -0.1366  0.0447
 4319ntf    fn425898   1.796   1.113   2.971  0.1142 -0.3108 -0.1443
 4319ntf    on525899   1.962   1.127   2.629  0.0287  0.0899  0.2224
 4319ntf    on525900   2.042   1.001   2.820 -0.0872  0.0484 -0.3177
 4319ntf    on525901   1.648   0.766   2.725  0.1414  0.5686 -0.3714
 4319ntf    on525902   1.811   0.778   2.908  0.1015 -0.4675  0.0959
 4319ntf    fn425903   2.020   0.772   2.729 -0.2110  0.1244  0.1694
 4319ntf    fn425904   1.895   0.617   2.647 -0.1773  0.2196 -0.1659
 4319ntf    fn425905   1.913   0.807   2.552 -0.0422  0.1396 -0.0086
 4320ntf    cn125906   0.110   2.792   4.584  0.2662  0.0431 -0.2944
 4320ntf    sn225907   0.239   2.714   4.686  0.1384  0.2319  0.0148
 4320ntf    nn325908   0.304   2.627   4.573 -0.1389 -0.0416  0.0649
 4320ntf    sn225909   0.401   2.659   4.454 -0.0614 -0.1458  0.0993
 4320ntf    cn125910   0.552   2.578   4.514  0.1086 -0.0157 -0.1461
 4320ntf    fn425911   0.041   2.715   4.502 -0.2461 -0.2708  0.4207
 4320ntf    fn425912   0.011   2.856   4.645  0.3798 -0.3854  0.3553
 4320ntf    fn425913   0.167   2.885   4.509  0.2932  0.1440 -0.1486
 4320ntf    on525914   0.317   2.825   4.736  0.1390  0.4534 -0.4651
 4320ntf    on525915   0.173   2.634   4.786  0.1133 -0.0301 -0.2096
 4320ntf    on525916   0.438   2.798   4.442  0.2151 -0.2225  0.0455
 4320ntf    on525917   0.363   2.591   4.333 -0.6385  0.5772 -0.1355
 4320ntf    fn425918   0.548   2.445   4.518  0.4296 -0.0103  0.6992
 4320ntf    fn425919   0.656   2.598   4.436 -0.1760  0.4191 -0.4152
 4320ntf    fn425920   0.588   2.609   4.638 -0.3526 -0.0890  0.0101
   7.25501   7.25501   7.25501
