Converted from moscito
25920
    1SOL     ow    1   2.016   4.294   5.035  0.2152 -0.7200  0.2533
    1SOL     hw    2   2.047   4.316   5.123  0.2054  0.7669 -0.0871
    1SOL     hw    3   1.948   4.359   5.017  0.4201 -0.8256 -0.9507
    1SOL     vw    4   2.011   4.306   5.044  0.2410 -0.5376  0.0494
    2SOL     ow    5   5.650   1.636   5.243  0.8206  0.4511 -0.6221
    2SOL     hw    6   5.710   1.617   5.315  3.0834 -1.3415 -2.7845
    2SOL     hw    7   5.610   1.552   5.223 -1.3267  1.3277 -0.2402
    2SOL     vw    8   5.653   1.622   5.250  0.8357  0.3303 -0.8571
    3SOL     ow    9   1.869   0.065   5.032  0.3388 -0.0081  0.6349
    3SOL     hw   10   1.803   0.102   4.974  0.3850 -1.2740 -0.2539
    3SOL     hw   11   1.877   0.129   5.103  0.1765  1.5042 -0.6592
    3SOL     vw   12   1.861   0.078   5.034  0.3235  0.0244  0.3467
    4SOL     ow   13   5.306   6.858   5.010 -0.5870  0.1114  0.2927
    4SOL     hw   14   5.311   6.925   4.941 -0.9997  0.4567  0.5870
    4SOL     hw   15   5.373   6.794   4.986  1.1159  1.5512  0.9738
    4SOL     vw   16   5.315   6.859   4.998 -0.4168  0.3469  0.4215
    5SOL     ow   17   2.842   2.772   5.845 -0.7598  0.0550 -0.0979
    5SOL     hw   18   2.753   2.793   5.875 -0.1008  2.8756  0.1636
    5SOL     hw   19   2.893   2.764   5.925 -0.5529 -0.4524 -0.2785
    5SOL     vw   20   2.837   2.774   5.859 -0.6456  0.3603 -0.0870
    6SOL     ow   21   5.429   2.713   6.330  0.2417 -0.0790  0.7347
    6SOL     hw   22   5.350   2.761   6.355  0.1172  0.0622  0.0758
    6SOL     hw   23   5.398   2.646   6.269  0.7406  0.5192 -0.1901
    6SOL     vw   24   5.414   2.710   6.325  0.2913  0.0185  0.5260
    7SOL     ow   25   5.851   2.653   4.647 -0.2042 -0.5570 -0.8295
    7SOL     hw   26   5.761   2.623   4.660 -0.0062 -0.5379  0.7987
    7SOL     hw   27   5.905   2.581   4.678  0.3296 -0.3405 -1.2466
    7SOL     vw   28   5.846   2.640   4.653 -0.1078 -0.5258 -0.6697
    8SOL     ow   29   0.674   2.944   6.707  0.0761 -0.0688  0.0845
    8SOL     hw   30   0.592   2.990   6.723 -0.2837 -0.7661  0.2806
    8SOL     hw   31   0.659   2.897   6.625  0.8553  1.0825 -0.7589
    8SOL     vw   32   0.662   2.944   6.698  0.1314 -0.0089 -0.0010
    9SOL     ow   33   3.702   2.028   4.505  0.1647 -0.3714 -0.1487
    9SOL     hw   34   3.651   1.974   4.445  1.5437  1.2951 -3.0464
    9SOL     hw   35   3.713   2.111   4.459  1.5441  0.9514  2.3643
    9SOL     vw   36   3.697   2.032   4.491  0.5286  0.0230 -0.1993
   10SOL     ow   37   5.424   4.510   0.404  0.3383  0.2202  0.3320
   10SOL     hw   38   5.499   4.488   0.349 -1.5098  0.6204 -2.5780
   10SOL     hw   39   5.366   4.434   0.394 -1.7179  1.9247 -1.5781
   10SOL     vw   40   5.426   4.497   0.395 -0.1767  0.4981 -0.3039
   11SOL     ow   41   3.694   1.490   6.405  1.4002 -0.4631  0.1264
   11SOL     hw   42   3.736   1.575   6.423  2.0777 -0.9522  0.9680
   11SOL     hw   43   3.636   1.476   6.480  0.2036 -0.0946 -0.7153
   11SOL     vw   44   3.692   1.499   6.417  1.3316 -0.4790  0.1261
   12SOL     ow   45   0.403   6.777   7.138 -0.8201  0.1831 -0.3989
   12SOL     hw   46   0.439   6.861   7.165 -0.0557 -0.1255 -0.4518
   12SOL     hw   47   0.365   6.740   7.218 -1.8450  0.9009 -0.5239
   12SOL     vw   48   0.403   6.783   7.152 -0.8545  0.2372 -0.4225
   13SOL     ow   49   5.257   2.033   3.549  0.0959 -0.8866  0.6274
   13SOL     hw   50   5.274   1.998   3.637  2.7686  0.0541  0.5693
   13SOL     hw   51   5.254   1.956   3.493  2.3618 -1.3207  1.0173
   13SOL     vw   52   5.259   2.018   3.553  0.7474 -0.8197  0.6710
   14SOL     ow   53   0.477   7.234   6.408 -0.4810  0.0669  0.5131
   14SOL     hw   54   0.516   7.156   6.447  0.6091 -0.2505 -1.1352
   14SOL     hw   55   0.551   7.291   6.386 -0.7483 -0.6579 -2.8970
   14SOL     vw   56   0.492   7.231   6.410 -0.3724 -0.0708 -0.1543
   15SOL     ow   57   0.270   4.222   5.866 -0.4389 -0.4101 -0.2853
   15SOL     hw   58   0.365   4.236   5.871 -0.3045 -1.6075  0.8924
   15SOL     hw   59   0.260   4.136   5.825 -1.0136 -0.3250 -0.3354
   15SOL     vw   60   0.281   4.213   5.861 -0.4970 -0.5572 -0.1364
   16SOL     ow   61   2.301   6.271   6.913  0.1239  0.7479 -0.2231
   16SOL     hw   62   2.271   6.302   6.828 -1.9535 -0.1953  0.1080
   16SOL     hw   63   2.393   6.298   6.917 -0.0635  1.8914 -2.2227
   16SOL     vw   64   2.310   6.278   6.902 -0.1749  0.7744 -0.4432
   17SOL     ow   65   4.858   5.113   0.172 -0.3086  0.2336 -0.6483
   17SOL     hw   66   4.898   5.060   0.102 -1.4942  2.0305 -2.8134
   17SOL     hw   67   4.768   5.082   0.176  0.2650 -1.3737  1.7459
   17SOL     vw   68   4.851   5.102   0.163 -0.3893  0.2584 -0.6181
   18SOL     ow   69   7.339   5.722   4.209 -0.1535  0.2027 -0.1676
   18SOL     hw   70   7.385   5.680   4.137 -1.4008 -0.0972 -0.8268
   18SOL     hw   71   7.332   5.814   4.184  0.2317  0.2828  0.0160
   18SOL     vw   72   7.344   5.728   4.196 -0.2670  0.1736 -0.2301
   19SOL     ow   73   6.478   1.960   2.775 -0.5705 -0.0213 -0.2841
   19SOL     hw   74   6.415   1.935   2.843 -0.8512  0.5908 -0.3170
   19SOL     hw   75   6.507   1.876   2.738  1.3045 -0.5231  2.0705
   19SOL     vw   76   6.473   1.946   2.779 -0.3600 -0.0068  0.0221
   20SOL     ow   77   6.732   6.281   3.446 -0.5465  0.2838 -0.5287
   20SOL     hw   78   6.744   6.296   3.540 -2.0369  2.1828 -0.5964
   20SOL     hw   79   6.730   6.186   3.438 -1.2525  0.0680  1.4949
   20SOL     vw   80   6.733   6.270   3.458 -0.8361  0.5059 -0.2707
   21SOL     ow   81   3.341   3.817   0.175  0.7850  0.2816 -0.0994
   21SOL     hw   82   3.370   3.858   0.256  3.4301 -0.9328 -0.3277
   21SOL     hw   83   3.342   3.887   0.110  0.1317  0.9315  0.5719
   21SOL     vw   84   3.345   3.831   0.177  1.0478  0.2072 -0.0410
   22SOL     ow   85   3.807   2.325   1.365 -0.1007 -0.1308  0.2189
   22SOL     hw   86   3.794   2.420   1.358 -2.6802 -0.4683 -1.2561
   22SOL     hw   87   3.899   2.311   1.345  0.6575  2.1308  1.7893
   22SOL     vw   88   3.817   2.336   1.361 -0.3411  0.1230  0.2314
   23SOL     ow   89   0.893   5.577   1.070 -0.6609  0.6076  0.0498
   23SOL     hw   90   0.987   5.595   1.058 -0.6961  1.6938  1.2067
   23SOL     hw   91   0.885   5.551   1.161 -1.5394  0.9709  0.0856
   23SOL     vw   92   0.904   5.576   1.080 -0.7814  0.7989  0.2071
   24SOL     ow   93   3.336   7.104   2.481  0.3773  0.3403 -0.4768
   24SOL     hw   94   3.257   7.092   2.534  1.4486  2.0508  1.7058
   24SOL     hw   95   3.306   7.152   2.403 -0.7833  0.7932  0.2260
   24SOL     vw   96   3.322   7.109   2.478  0.3655  0.6256 -0.0962
   25SOL     ow   97   1.283   3.245   3.835 -0.2400  0.6753 -0.5465
   25SOL     hw   98   1.280   3.340   3.827  0.2170  0.9783  2.0626
   25SOL     hw   99   1.192   3.217   3.826 -0.7616  1.6611  1.1727
   25SOL     vw  100   1.271   3.254   3.833 -0.2485  0.8453  0.0247
   26SOL     ow  101   4.059   4.610   0.689  0.2503  1.0659 -0.7612
   26SOL     hw  102   3.991   4.543   0.677  0.6515  0.3769  0.7172
   26SOL     hw  103   4.024   4.687   0.643 -0.7512  0.2189 -1.4697
   26SOL     vw  104   4.045   4.612   0.681  0.1712  0.8631 -0.6596
   27SOL     ow  105   5.805   4.750   3.166 -0.1227 -0.1291 -0.3237
   27SOL     hw  106   5.872   4.727   3.229  0.6998  1.9094 -0.3891
   27SOL     hw  107   5.724   4.757   3.217  0.4203  0.9167  0.4223
   27SOL     vw  108   5.803   4.748   3.181  0.0572  0.2778 -0.2338
   28SOL     ow  109   3.161   4.035   0.307  0.1050  0.5624  0.1811
   28SOL     hw  110   3.073   4.006   0.332 -0.1678  3.1439  2.7733
   28SOL     hw  111   3.220   3.974   0.350 -0.3785 -0.5433 -0.6762
   28SOL     vw  112   3.157   4.023   0.316  0.0052  0.7567  0.4100
   29SOL     ow  113   5.679   3.628   3.676 -0.1630  0.0743  0.5681
   29SOL     hw  114   5.663   3.676   3.595  3.4886  0.8494  0.1199
   29SOL     hw  115   5.627   3.548   3.668 -0.9747  0.7739 -1.8921
   29SOL     vw  116   5.670   3.624   3.664  0.2117  0.2689  0.1844
   30SOL     ow  117   1.747   3.406   2.677  0.2000  0.4636 -0.1933
   30SOL     hw  118   1.658   3.384   2.648 -0.1121 -3.5323  2.8196
   30SOL     hw  119   1.741   3.496   2.709 -1.5935  1.7433 -3.6650
   30SOL     vw  120   1.735   3.415   2.677 -0.0778  0.1053 -0.2539
   31SOL     ow  121   0.541   0.728   5.219 -0.0828  0.3895  0.4642
   31SOL     hw  122   0.544   0.720   5.123 -0.3454 -1.3128  0.5707
   31SOL     hw  123   0.457   0.691   5.244  0.4881 -0.2870  1.4503
   31SOL     vw  124   0.531   0.722   5.209 -0.0421  0.0757  0.6084
   32SOL     ow  125   0.934   6.343   6.356  0.2191 -0.3314 -0.2638
   32SOL     hw  126   0.902   6.253   6.368  0.3089 -0.4863 -1.0826
   32SOL     hw  127   0.880   6.396   6.413  0.2876 -0.9320  0.3810
   32SOL     vw  128   0.923   6.338   6.365  0.2399 -0.4313 -0.2866
   33SOL     ow  129   2.994   7.337   6.995 -0.8614  0.3009  0.1862
   33SOL     hw  130   3.037   7.276   6.936 -0.9335  1.2427 -0.8764
   33SOL     hw  131   3.017   7.306   7.083  1.7982  0.6195 -0.3178
   33SOL     vw  132   3.002   7.325   6.999 -0.5200  0.4675 -0.0207
   34SOL     ow  133   0.173   0.938   0.501 -0.6109  0.6632 -0.1928
   34SOL     hw  134   0.258   0.913   0.464 -1.0334  1.6008 -1.9076
   34SOL     hw  135   0.194   0.970   0.588  0.5122 -1.0576  0.2346
   34SOL     vw  136   0.187   0.939   0.507 -0.5185  0.5599 -0.3627
   35SOL     ow  137   3.938   0.516   3.953 -0.0676  0.3263 -0.5448
   35SOL     hw  138   3.976   0.467   4.026 -1.1255 -0.8150 -0.7271
   35SOL     hw  139   3.862   0.560   3.991  0.9042  1.9203 -0.3730
   35SOL     vw  140   3.933   0.515   3.968 -0.0788  0.3861 -0.5461
   36SOL     ow  141   0.598   1.298   5.226 -0.2853 -0.2706  0.2237
   36SOL     hw  142   0.520   1.326   5.178 -1.2075 -1.9164  0.6733
   36SOL     hw  143   0.622   1.374   5.280 -1.2609  0.4334 -0.3008
   36SOL     vw  144   0.591   1.312   5.227 -0.5357 -0.3948  0.2139
   37SOL     ow  145   3.066   0.222   0.288  0.6615 -0.3918 -0.2740
   37SOL     hw  146   3.121   0.263   0.355  0.1023 -1.2605  0.7599
   37SOL     hw  147   3.067   0.284   0.215  0.6489  0.9766  0.8366
   37SOL     vw  148   3.073   0.236   0.287  0.5862 -0.3259  0.0090
   38SOL     ow  149   6.124   1.013   4.699  0.2660  0.2978  0.1604
   38SOL     hw  150   6.131   0.964   4.616 -1.0811 -3.6032  2.0975
   38SOL     hw  151   6.212   1.006   4.737 -0.5292 -3.7684  1.7911
   38SOL     vw  152   6.137   1.006   4.693 -0.0167 -0.7533  0.6311
   39SOL     ow  153   7.064   2.389   0.177  0.0091  0.2123 -1.0444
   39SOL     hw  154   7.012   2.458   0.134 -2.9533 -1.6134 -0.6543
   39SOL     hw  155   7.033   2.388   0.267  0.1361 -1.4806 -0.9887
   39SOL     vw  156   7.053   2.398   0.183 -0.3653 -0.2519 -0.9856
   40SOL     ow  157   0.294   4.665   5.550 -0.5676 -0.0712  0.0109
   40SOL     hw  158   0.304   4.760   5.545 -1.7297  0.1213  0.8618
   40SOL     hw  159   0.250   4.641   5.469 -3.1657  0.5852  1.1285
   40SOL     vw  160   0.290   4.675   5.539 -1.0637  0.0408  0.2704
   41SOL     ow  161   6.142   0.662   6.018  0.7459 -0.7240 -0.0087
   41SOL     hw  162   6.172   0.571   6.011  1.7136 -0.3367 -1.1110
   41SOL     hw  163   6.099   0.679   5.934  0.5441 -0.1566  0.2051
   41SOL     vw  164   6.140   0.652   6.006  0.8469 -0.5980 -0.1259
   42SOL     ow  165   0.076   3.335   5.853 -0.3875 -0.8181 -0.0917
   42SOL     hw  166   0.134   3.399   5.895 -0.8227 -1.5516  1.7669
   42SOL     hw  167   0.135   3.264   5.826  0.0027  0.0116 -1.5225
   42SOL     vw  168   0.092   3.334   5.855 -0.3935 -0.8054 -0.0350
   43SOL     ow  169   5.113   5.100   0.276 -0.6336  0.3217  0.0143
   43SOL     hw  170   5.175   5.063   0.338 -1.6548 -0.7656  0.4309
   43SOL     hw  171   5.130   5.053   0.194  0.0159  1.0210 -0.2639
   43SOL     vw  172   5.123   5.089   0.273 -0.6826  0.2704  0.0325
   44SOL     ow  173   4.324   6.978   4.155  0.5982 -0.0144  0.3989
   44SOL     hw  174   4.363   7.050   4.106 -0.0647  0.2926  0.3143
   44SOL     hw  175   4.323   7.008   4.246  1.7231 -0.5388  0.6025
   44SOL     vw  176   4.329   6.992   4.160  0.6595 -0.0432  0.4141
   45SOL     ow  177   6.772   7.181   0.023 -0.0198 -1.0474  0.5499
   45SOL     hw  178   6.822   7.113  -0.023  1.7566  0.1315  0.6153
   45SOL     hw  179   6.835   7.252   0.036 -1.6310  0.3592  1.0610
   45SOL     vw  180   6.787   7.182   0.019  0.0021 -0.7062  0.6258
   46SOL     ow  181   6.485   0.012   0.615 -0.4041 -0.6150  0.4059
   46SOL     hw  182   6.467   0.038   0.706 -0.2327  0.0380  0.2531
   46SOL     hw  183   6.535  -0.069   0.624 -1.5555 -1.3085  0.8713
   46SOL     vw  184   6.489   0.005   0.628 -0.5336 -0.6204  0.4471
   47SOL     ow  185   4.551   7.077   6.535 -0.0572 -0.3877 -0.7194
   47SOL     hw  186   4.580   7.139   6.602 -0.6571 -0.3389 -0.5043
   47SOL     hw  187   4.503   7.130   6.472  0.6101 -0.4134 -1.2572
   47SOL     vw  188   4.549   7.092   6.535 -0.0482 -0.3846 -0.7620
   48SOL     ow  189   3.397   4.953   3.630 -0.0188  0.4237  0.0924
   48SOL     hw  190   3.378   5.033   3.581  1.9175  1.8763  1.5612
   48SOL     hw  191   3.487   4.930   3.605 -0.4377 -1.1839 -0.0952
   48SOL     vw  192   3.406   4.960   3.620  0.1813  0.4032  0.2614
   49SOL     ow  193   6.435   3.285   4.086  0.1957  0.5125  0.4963
   49SOL     hw  194   6.479   3.273   4.170  0.7869 -1.6211 -0.0639
   49SOL     hw  195   6.501   3.326   4.029 -0.6286  3.2869  1.3538
   49SOL     vw  196   6.449   3.289   4.089  0.1650  0.5972  0.5357
   50SOL     ow  197   3.378   1.224   5.876  0.3678 -0.4142  0.0543
   50SOL     hw  198   3.393   1.144   5.927 -0.1569 -0.1883  0.5869
   50SOL     hw  199   3.313   1.273   5.928 -0.2406 -0.2099 -0.8739
   50SOL     vw  200   3.371   1.220   5.890  0.2184 -0.3574  0.0019
   51SOL     ow  201   0.875   6.869   1.134 -0.7431  0.4955  0.0948
   51SOL     hw  202   0.881   6.841   1.225  0.9931  1.4754  0.3215
   51SOL     hw  203   0.814   6.942   1.135 -0.6756  0.5491  0.4894
   51SOL     vw  204   0.868   6.875   1.146 -0.5051  0.6316  0.1768
   52SOL     ow  205   2.551   2.890   6.840 -0.0784 -0.1630  0.2443
   52SOL     hw  206   2.461   2.917   6.822 -0.9173 -2.1246  1.2333
   52SOL     hw  207   2.598   2.973   6.851 -1.7696  0.9159 -0.1658
   52SOL     vw  208   2.545   2.905   6.839 -0.4123 -0.2795  0.3207
   53SOL     ow  209   3.102   4.862   3.542 -0.0647  0.0166 -0.1314
   53SOL     hw  210   3.088   4.941   3.490 -0.9126 -0.9216 -1.3838
   53SOL     hw  211   3.034   4.802   3.512 -0.2319 -0.7580  1.7011
   53SOL     vw  212   3.091   4.865   3.531 -0.1987 -0.2091 -0.0548
   54SOL     ow  213   3.527   6.714   3.492 -0.4899  0.4689  0.1948
   54SOL     hw  214   3.555   6.767   3.418  0.8332 -0.2875  0.1195
   54SOL     hw  215   3.605   6.663   3.516 -1.8359 -1.9335 -0.1787
   54SOL     vw  216   3.541   6.714   3.485 -0.4929  0.0522  0.1357
   55SOL     ow  217   5.493   2.418   6.749  0.5241 -0.1464 -0.1559
   55SOL     hw  218   5.482   2.338   6.800  1.3907 -0.2962 -0.1971
   55SOL     hw  219   5.413   2.469   6.767 -0.9720 -1.8299 -1.6600
   55SOL     vw  220   5.481   2.414   6.758  0.4413 -0.3884 -0.3598
   56SOL     ow  221   1.655   0.687   2.190 -0.0810  0.2922 -0.2263
   56SOL     hw  222   1.629   0.698   2.281  0.5603  3.8990 -0.3168
   56SOL     hw  223   1.735   0.633   2.194 -0.0685  0.3941  1.3312
   56SOL     vw  224   1.662   0.681   2.202  0.0052  0.7815 -0.0329
   57SOL     ow  225   2.600   1.474   4.241  0.1652  0.1137 -0.2017
   57SOL     hw  226   2.566   1.446   4.326  0.3773 -2.0543 -0.7735
   57SOL     hw  227   2.526   1.518   4.199 -0.0719  0.8067  0.9265
   57SOL     vw  228   2.586   1.476   4.246  0.1620 -0.0809 -0.1283
   58SOL     ow  229   0.606   7.288   2.126 -0.5904 -0.2938 -0.2129
   58SOL     hw  230   0.684   7.244   2.092 -0.5593 -1.5560  1.3550
   58SOL     hw  231   0.584   7.239   2.205 -0.3419  2.7032  1.8890
   58SOL     vw  232   0.613   7.275   2.132 -0.5535 -0.0651  0.2713
   59SOL     ow  233   6.768   1.636   3.603 -0.1783 -0.2066 -0.7371
   59SOL     hw  234   6.718   1.656   3.683  0.8443 -0.4650 -0.0051
   59SOL     hw  235   6.738   1.549   3.578 -0.2242 -0.2908 -0.4030
   59SOL     vw  236   6.757   1.627   3.610 -0.0496 -0.2518 -0.5965
   60SOL     ow  237   2.648   7.180   4.181 -0.3134  0.2542 -0.6635
   60SOL     hw  238   2.571   7.146   4.135 -1.0780  0.5988  0.3090
   60SOL     hw  239   2.654   7.126   4.260  0.1873  0.5027 -0.5262
   60SOL     vw  240   2.639   7.168   4.185 -0.3482  0.3326 -0.5171
   61SOL     ow  241   1.144   0.171   7.240 -0.3745  0.1592  0.3243
   61SOL     hw  242   1.216   0.133   7.189  0.1603  0.4651  0.8300
   61SOL     hw  243   1.188   0.229   7.303 -1.1878  2.2471 -0.9192
   61SOL     vw  244   1.159   0.174   7.242 -0.4112  0.4750  0.2270
   62SOL     ow  245   3.692   1.157   6.102 -0.0304  0.5881  0.9294
   62SOL     hw  246   3.777   1.147   6.143  1.3921 -0.1156 -1.9240
   62SOL     hw  247   3.650   1.229   6.149  2.4179  1.4261  1.9549
   62SOL     vw  248   3.698   1.165   6.114  0.4803  0.6058  0.6886
   63SOL     ow  249   2.981   0.904   5.874  0.2909  0.0257 -0.3094
   63SOL     hw  250   3.026   0.966   5.931  1.2543 -2.1137  1.4357
   63SOL     hw  251   2.903   0.877   5.924  0.0231 -0.3545 -0.9101
   63SOL     vw  252   2.976   0.908   5.888  0.3825 -0.3068 -0.1585
   64SOL     ow  253   6.728   3.732   1.049 -0.2406  0.0503  0.3361
   64SOL     hw  254   6.751   3.725   1.142 -1.3258 -0.7741  0.5604
   64SOL     hw  255   6.633   3.727   1.048 -0.2123 -0.4640 -0.8705
   64SOL     vw  256   6.719   3.731   1.061 -0.3798 -0.1264  0.2065
   65SOL     ow  257   2.977   6.844   3.678 -0.3636 -0.4737 -0.1990
   65SOL     hw  258   3.045   6.777   3.681 -0.0678 -0.1940 -0.6006
   65SOL     hw  259   2.898   6.795   3.653 -0.5842 -0.9968  1.4301
   65SOL     vw  260   2.975   6.829   3.675 -0.3537 -0.5062 -0.0370
   66SOL     ow  261   0.869   4.928   3.308  0.4721 -0.6451  0.2109
   66SOL     hw  262   0.903   5.017   3.305  0.9494 -0.8304 -0.0558
   66SOL     hw  263   0.916   4.886   3.380 -0.3740 -0.4445  0.9072
   66SOL     vw  264   0.879   4.934   3.317  0.4234 -0.6433  0.2675
   67SOL     ow  265   4.829   0.372   5.548  0.8162  0.8750  0.1531
   67SOL     hw  266   4.778   0.340   5.623 -0.6869 -1.5712 -1.7806
   67SOL     hw  267   4.772   0.438   5.507 -0.4273 -1.0321 -1.3423
   67SOL     vw  268   4.815   0.377   5.553  0.4539  0.3006 -0.2992
   68SOL     ow  269   2.812   3.000   2.029 -0.4281 -0.2905 -0.2966
   68SOL     hw  270   2.832   2.907   2.027  0.9472 -0.0233  0.0300
   68SOL     hw  271   2.766   3.012   2.113 -4.0194 -1.2472 -1.9314
   68SOL     vw  272   2.808   2.989   2.040 -0.7204 -0.3816 -0.4693
   69SOL     ow  273   1.050   1.329   2.800  0.0197 -0.2044 -0.3172
   69SOL     hw  274   0.997   1.249   2.797 -1.0888  0.5024 -0.2875
   69SOL     hw  275   1.106   1.317   2.876 -0.8165 -0.5592  0.2667
   69SOL     vw  276   1.050   1.317   2.810 -0.2368 -0.1581 -0.2362
   70SOL     ow  277   3.050   4.588   6.391 -0.2993 -0.1141 -0.1939
   70SOL     hw  278   2.988   4.638   6.338 -0.3884 -0.0611 -0.0375
   70SOL     hw  279   3.134   4.598   6.344  0.0869  1.6848  0.7811
   70SOL     vw  280   3.053   4.596   6.378 -0.2601  0.1307 -0.0448
   71SOL     ow  281   1.865   0.255   6.911  0.1177 -0.7414  0.1136
   71SOL     hw  282   1.823   0.298   6.986  1.2337 -0.5577  0.6469
   71SOL     hw  283   1.947   0.220   6.946  0.8722 -0.2797 -1.1242
   71SOL     vw  284   1.870   0.256   6.926  0.3645 -0.6562  0.0207
   72SOL     ow  285   5.301   6.552   7.064  0.0069 -0.2333  1.5559
   72SOL     hw  286   5.274   6.550   7.156  1.6368 -0.8560  2.0608
   72SOL     hw  287   5.388   6.512   7.064 -1.1955 -3.2251 -0.7044
   72SOL     vw  288   5.309   6.546   7.076  0.0632 -0.7105  1.3239
   73SOL     ow  289   1.295   6.497   2.686 -0.1285 -0.4567 -0.6059
   73SOL     hw  290   1.212   6.467   2.724 -0.1832 -0.9109 -1.0727
   73SOL     hw  291   1.305   6.586   2.719 -0.2557 -0.7821  0.3429
   73SOL     vw  292   1.285   6.505   2.695 -0.1526 -0.5596 -0.5423
   74SOL     ow  293   7.223   3.220   0.581  0.4560  0.2934 -0.5191
   74SOL     hw  294   7.309   3.256   0.558  2.0114 -1.3964  2.0554
   74SOL     hw  295   7.163   3.295   0.577  2.2324  1.7434 -1.4667
   74SOL     vw  296   7.227   3.235   0.578  0.8955  0.2618 -0.3045
   75SOL     ow  297   3.704   2.229   2.606  0.5139 -0.3739 -0.4003
   75SOL     hw  298   3.754   2.283   2.668  1.3925  0.6271 -1.9198
   75SOL     hw  299   3.712   2.275   2.523 -1.3830 -1.2109 -1.1005
   75SOL     vw  300   3.711   2.242   2.603  0.3796 -0.3521 -0.6932
   76SOL     ow  301   0.079   1.565   0.306  0.7186  0.2347 -0.0433
   76SOL     hw  302   0.045   1.655   0.301 -0.8355 -0.2899  0.6270
   76SOL     hw  303   0.047   1.532   0.389 -1.9254 -2.1765 -1.8481
   76SOL     vw  304   0.070   1.573   0.316  0.1647 -0.1527 -0.1930
   77SOL     ow  305   4.871   5.407   6.362 -0.7508 -0.0966 -0.1074
   77SOL     hw  306   4.819   5.398   6.282 -1.5174 -2.0199  0.5400
   77SOL     hw  307   4.810   5.384   6.433  0.2340  0.3910  0.9424
   77SOL     vw  308   4.856   5.403   6.361 -0.7219 -0.2859  0.1163
   78SOL     ow  309   6.119   6.978   5.137  0.3245 -0.2383  0.8404
   78SOL     hw  310   6.028   6.986   5.166 -0.0936 -1.3635 -0.0783
   78SOL     hw  311   6.130   7.050   5.075  0.0152 -0.1896  0.8377
   78SOL     vw  312   6.108   6.988   5.133  0.2284 -0.3805  0.7191
   79SOL     ow  313   0.336   1.655   4.178 -0.1567  0.1886 -0.1629
   79SOL     hw  314   0.357   1.637   4.087  1.1668  0.5754  0.0489
   79SOL     hw  315   0.309   1.570   4.214  1.8898 -0.5540 -0.2540
   79SOL     vw  316   0.335   1.641   4.171  0.2879  0.1417 -0.1471
   80SOL     ow  317   3.763   0.959   6.558 -0.2230  0.8247 -0.3062
   80SOL     hw  318   3.681   0.964   6.509  0.8204  0.0231 -2.2690
   80SOL     hw  319   3.813   1.036   6.530  1.1637 -0.6441 -2.1255
   80SOL     vw  320   3.759   0.970   6.548  0.0978  0.5251 -0.8049
   81SOL     ow  321   4.830   5.542   1.844 -0.5350 -0.0379 -0.3085
   81SOL     hw  322   4.771   5.617   1.835 -0.0454  0.3355 -0.4695
   81SOL     hw  323   4.885   5.546   1.766 -0.4826 -0.5484 -0.3003
   81SOL     vw  324   4.829   5.553   1.832 -0.4635 -0.0560 -0.3286
   82SOL     ow  325   0.654   5.724   1.146  0.0826  0.4067  0.3770
   82SOL     hw  326   0.716   5.658   1.114  0.8520  0.7380  1.1589
   82SOL     hw  327   0.597   5.677   1.206  0.9878  0.5606  1.3713
   82SOL     vw  328   0.655   5.709   1.150  0.3036  0.4706  0.6114
   83SOL     ow  329   2.255   1.495   6.609  0.2935  0.1241 -0.8155
   83SOL     hw  330   2.254   1.571   6.667  0.1980  0.2828 -1.0237
   83SOL     hw  331   2.345   1.492   6.575  0.6723 -0.6399  0.2136
   83SOL     vw  332   2.267   1.505   6.612  0.3308  0.0442 -0.7071
   84SOL     ow  333   5.649   0.508   5.605  0.2471 -0.0218  0.5050
   84SOL     hw  334   5.655   0.504   5.510  0.4728  0.8168  0.4756
   84SOL     hw  335   5.738   0.490   5.636 -0.2481 -2.5389  0.6692
   84SOL     vw  336   5.662   0.505   5.597  0.2115 -0.2432  0.5229
   85SOL     ow  337   6.416   2.216   1.340  0.3509  0.3731  0.1153
   85SOL     hw  338   6.427   2.154   1.267 -1.2842  1.0541 -0.7676
   85SOL     hw  339   6.326   2.247   1.331  0.6643  1.7580  1.4308
   85SOL     vw  340   6.405   2.212   1.329  0.1764  0.6456  0.1723
   86SOL     ow  341   5.479   1.950   6.946 -0.4212 -0.2677  0.5418
   86SOL     hw  342   5.473   1.950   7.041 -0.4842  1.0598  0.5548
   86SOL     hw  343   5.573   1.948   6.927 -0.2913  2.0722  0.6991
   86SOL     vw  344   5.491   1.949   6.956 -0.4120  0.2162  0.5641
   87SOL     ow  345   6.260   6.104   0.128 -0.4084 -0.3428  0.1315
   87SOL     hw  346   6.228   6.045   0.060  0.5452  0.2257 -0.8419
   87SOL     hw  347   6.195   6.174   0.132 -0.7179 -0.6320  0.1536
   87SOL     vw  348   6.247   6.106   0.120 -0.3233 -0.3061  0.0060
   88SOL     ow  349   5.348   2.956   7.298  0.2307 -0.2488  0.0704
   88SOL     hw  350   5.280   2.983   7.235  3.0118  1.0381 -2.6588
   88SOL     hw  351   5.322   2.996   7.380 -1.7476  1.1594 -1.1457
   88SOL     vw  352   5.336   2.965   7.300  0.3364  0.1067 -0.4501
   89SOL     ow  353   5.507   3.695   3.967  0.3911  0.1731  0.0476
   89SOL     hw  354   5.482   3.773   4.017  0.3808  1.6948 -2.2177
   89SOL     hw  355   5.426   3.666   3.925  0.9346  0.6504 -1.3621
   89SOL     vw  356   5.493   3.701   3.968  0.4616  0.4369 -0.4373
   90SOL     ow  357   1.030   7.089   4.509 -0.2400  0.6913  0.5158
   90SOL     hw  358   0.987   7.173   4.528  0.5305  1.5724 -1.3425
   90SOL     hw  359   1.067   7.101   4.421 -0.9235 -1.9388 -0.2084
   90SOL     vw  360   1.029   7.102   4.500 -0.2286  0.4606  0.1750
   91SOL     ow  361   5.095   3.928   7.184  0.0340  0.3154  0.3623
   91SOL     hw  362   5.093   3.845   7.136  0.5425  0.9054 -0.7177
   91SOL     hw  363   5.186   3.937   7.212 -0.3380 -0.2150  1.8302
   91SOL     vw  364   5.107   3.918   7.181  0.0520  0.3234  0.4137
   92SOL     ow  365   0.073   4.213   6.337  0.6761 -0.7388  0.3813
   92SOL     hw  366   0.012   4.285   6.321  1.3001 -0.3993 -0.5525
   92SOL     hw  367   0.019   4.143   6.373 -0.3345 -0.5793 -0.7950
   92SOL     vw  368   0.058   4.213   6.340  0.6251 -0.6731  0.1030
   93SOL     ow  369   3.529   4.914   1.225  0.0341  0.2789  0.1327
   93SOL     hw  370   3.517   4.999   1.183  0.4202  0.2016 -0.1400
   93SOL     hw  371   3.617   4.917   1.262  0.3753 -0.2959 -0.5976
   93SOL     vw  372   3.539   4.926   1.224  0.1302  0.1929  0.0003
   94SOL     ow  373   4.685   6.642   4.698 -0.1090 -0.5860  0.3550
   94SOL     hw  374   4.690   6.560   4.747 -0.4217 -0.7996  0.0335
   94SOL     hw  375   4.757   6.636   4.635 -2.0771 -2.1347 -1.9509
   94SOL     vw  376   4.695   6.630   4.696 -0.4101 -0.8187  0.0083
   95SOL     ow  377   4.990   2.521   0.283 -0.2663 -0.6391  0.6798
   95SOL     hw  378   5.069   2.473   0.259  1.2413  0.6631  2.7478
   95SOL     hw  379   4.927   2.453   0.308 -0.0068 -1.7141 -1.3461
   95SOL     vw  380   4.992   2.506   0.283 -0.0334 -0.6092  0.6854
   96SOL     ow  381   3.159   3.284   1.777  1.1350  0.2105  0.4079
   96SOL     hw  382   3.158   3.190   1.796 -1.3244 -0.0105 -0.5816
   96SOL     hw  383   3.217   3.292   1.701 -0.7056 -0.9105 -1.1797
   96SOL     vw  384   3.167   3.273   1.769  0.5678  0.0335  0.0679
   97SOL     ow  385   6.248   5.965   7.264  1.0032  0.5045 -0.1055
   97SOL     hw  386   6.339   5.935   7.265  0.0482 -2.8866 -1.6804
   97SOL     hw  387   6.221   5.960   7.173 -0.8892  1.1020  0.3640
   97SOL     vw  388   6.256   5.961   7.252  0.6273  0.1359 -0.2513
   98SOL     ow  389   4.290   4.462   1.680  0.1120 -0.0094 -0.5530
   98SOL     hw  390   4.223   4.530   1.672  0.4058  0.2710 -0.6261
   98SOL     hw  391   4.349   4.495   1.747 -0.0820 -0.4760 -0.1392
   98SOL     vw  392   4.289   4.475   1.688  0.1252 -0.0341 -0.5081
   99SOL     ow  393   0.153   4.419   5.589 -0.5496 -0.3490 -0.0033
   99SOL     hw  394   0.140   4.337   5.542 -0.8467 -0.3818  0.1350
   99SOL     hw  395   0.065   4.458   5.594 -0.2780  0.4500 -0.9426
   99SOL     vw  396   0.139   4.414   5.583 -0.5530 -0.2480 -0.1087
  100SOL     ow  397   2.091   3.223   0.533  0.4729 -0.2452 -0.4883
  100SOL     hw  398   2.147   3.296   0.507  1.1509 -0.7675 -0.5108
  100SOL     hw  399   2.145   3.172   0.593  0.4763 -1.4472 -1.4859
  100SOL     vw  400   2.106   3.226   0.538  0.5627 -0.4728 -0.6229
  101SOL     ow  401   0.356   1.703   3.398  0.2438  0.0196 -0.2331
  101SOL     hw  402   0.312   1.654   3.467  1.5270 -0.4869  0.2571
  101SOL     hw  403   0.314   1.674   3.317  0.3749 -1.2325  0.1301
  101SOL     vw  404   0.345   1.693   3.396  0.4304 -0.2124 -0.1204
  102SOL     ow  405   2.060   4.109   3.088  0.0202  0.0018  0.8615
  102SOL     hw  406   2.141   4.063   3.065  0.4988  0.8778  0.7302
  102SOL     hw  407   2.048   4.091   3.181 -0.0546 -0.7663  0.7038
  102SOL     vw  408   2.069   4.101   3.098  0.0734  0.0160  0.8234
  103SOL     ow  409   3.185   3.014   1.284  0.4509 -0.1335  0.4717
  103SOL     hw  410   3.210   2.922   1.271  0.1864 -0.0247 -0.9715
  103SOL     hw  411   3.095   3.019   1.254  1.0396  0.9584 -1.2994
  103SOL     vw  412   3.177   3.002   1.278  0.4938  0.0248  0.0476
  104SOL     ow  413   2.782   6.986   2.313 -0.0773  0.2457  0.1683
  104SOL     hw  414   2.817   7.053   2.372 -1.3222 -1.1029  2.5922
  104SOL     hw  415   2.815   7.011   2.226  0.7762  3.0791  1.1862
  104SOL     vw  416   2.791   6.998   2.309 -0.1289  0.4416  0.6225
  105SOL     ow  417   2.140   2.436   0.887  0.3779  0.2560  0.5965
  105SOL     hw  418   2.205   2.491   0.844 -1.8317  1.5399 -1.3172
  105SOL     hw  419   2.114   2.485   0.965  0.2142  0.7481  0.2343
  105SOL     vw  420   2.145   2.449   0.892  0.0647  0.4902  0.2962
  106SOL     ow  421   1.642   7.181   1.340  0.3464 -1.3409 -0.0739
  106SOL     hw  422   1.664   7.239   1.413  2.0190 -1.8369 -0.1434
  106SOL     hw  423   1.714   7.118   1.337 -1.9765 -4.2437  0.7744
  106SOL     vw  424   1.654   7.180   1.349  0.2607 -1.7893  0.0289
  107SOL     ow  425   7.234   5.051   2.354  0.7259  0.1476 -0.1458
  107SOL     hw  426   7.253   5.122   2.416 -2.1762  0.5057  0.4415
  107SOL     hw  427   7.219   5.094   2.271  0.1415  0.0960 -0.0660
  107SOL     vw  428   7.235   5.066   2.351  0.2658  0.1881 -0.0579
  108SOL     ow  429   2.786   0.832   6.844  0.0365 -0.6034 -0.1871
  108SOL     hw  430   2.875   0.838   6.880 -0.5645 -0.1438  1.2399
  108SOL     hw  431   2.728   0.837   6.919 -1.2737  0.5683 -1.2238
  108SOL     vw  432   2.790   0.833   6.858 -0.2156 -0.3882 -0.1354
  109SOL     ow  433   1.793   1.255   3.359 -0.2317  0.0433 -0.0027
  109SOL     hw  434   1.796   1.160   3.372  1.3655  0.0273 -0.2555
  109SOL     hw  435   1.793   1.291   3.448 -2.5730 -0.1589  0.1534
  109SOL     vw  436   1.793   1.247   3.373 -0.3299  0.0145 -0.0155
  110SOL     ow  437   7.058   1.882   0.674 -0.4075 -0.2371  0.2643
  110SOL     hw  438   7.103   1.803   0.703  2.0979  0.1090 -2.3348
  110SOL     hw  439   6.971   1.851   0.648  1.3193 -2.8252 -3.2304
  110SOL     vw  440   7.052   1.867   0.674  0.1507 -0.5329 -0.5397
  111SOL     ow  441   4.260   2.835   4.862  0.4549  0.1685 -0.0683
  111SOL     hw  442   4.299   2.852   4.776  0.8089  0.6528  0.1847
  111SOL     hw  443   4.183   2.780   4.843  0.5298  0.2728 -0.6902
  111SOL     vw  444   4.255   2.830   4.848  0.5116  0.2460 -0.1171
  112SOL     ow  445   3.586   2.550   3.771 -0.4667  0.3739  0.7118
  112SOL     hw  446   3.579   2.615   3.841  1.1789  0.5371  0.7753
  112SOL     hw  447   3.582   2.601   3.690 -1.0726  0.3263  0.7053
  112SOL     vw  448   3.585   2.565   3.770 -0.3295  0.3890  0.7194
  113SOL     ow  449   5.475   5.779   2.571  0.0164 -0.2922 -0.5930
  113SOL     hw  450   5.384   5.806   2.557  0.1235  0.6695  0.4247
  113SOL     hw  451   5.474   5.732   2.654  0.4535 -0.2441 -0.5551
  113SOL     vw  452   5.463   5.776   2.580  0.0880 -0.1590 -0.4536
  114SOL     ow  453   4.407   5.332   5.565  0.0833  0.2389  0.1104
  114SOL     hw  454   4.467   5.259   5.558 -1.5924 -1.3042  0.9430
  114SOL     hw  455   4.413   5.378   5.481  2.4682  0.2436  0.2327
  114SOL     vw  456   4.415   5.329   5.553  0.1767  0.0360  0.2365
  115SOL     ow  457   2.893   4.663   5.301  0.6616  0.5708 -0.2802
  115SOL     hw  458   2.874   4.618   5.219  1.9320  1.3080 -1.0151
  115SOL     hw  459   2.985   4.688   5.294  1.5615 -1.5651  2.4742
  115SOL     vw  460   2.903   4.661   5.289  0.9480  0.3865 -0.0138
  116SOL     ow  461   1.922   6.971   5.077  0.0346 -0.2270 -0.8849
  116SOL     hw  462   1.978   7.038   5.116 -0.9086 -1.4771  3.1166
  116SOL     hw  463   1.984   6.903   5.048  0.8251  1.1396 -2.5853
  116SOL     vw  464   1.938   6.971   5.079  0.0145 -0.2115 -0.5813
  117SOL     ow  465   0.870   3.448   4.974  0.0572  0.0616 -0.6902
  117SOL     hw  466   0.950   3.501   4.982 -0.7019  1.2148 -0.4512
  117SOL     hw  467   0.808   3.491   5.033 -0.8478 -0.6048 -1.1481
  117SOL     vw  468   0.873   3.461   4.983 -0.1624  0.1256 -0.7191
  118SOL     ow  469   6.935   3.858   2.731  0.3836 -0.2377  0.0309
  118SOL     hw  470   6.959   3.775   2.689  0.8801 -0.1826  0.1937
  118SOL     hw  471   7.007   3.875   2.791  0.1382  0.1663  0.2120
  118SOL     vw  472   6.948   3.849   2.734  0.4168 -0.1770  0.0762
  119SOL     ow  473   0.473   4.522   3.604  0.6329  1.1621 -0.6816
  119SOL     hw  474   0.565   4.502   3.621  0.2519  0.2658  0.4417
  119SOL     hw  475   0.424   4.457   3.654 -0.6380  0.0341 -3.2113
  119SOL     vw  476   0.478   4.511   3.613  0.4149  0.8950 -0.8671
  120SOL     ow  477   1.332   6.764   2.777  0.1445 -0.0324 -1.0477
  120SOL     hw  478   1.333   6.813   2.860 -0.4811 -3.3577  1.1262
  120SOL     hw  479   1.241   6.765   2.749 -0.0600 -0.7100 -0.4479
  120SOL     vw  480   1.320   6.770   2.784  0.0351 -0.5605 -0.6818
  121SOL     ow  481   7.010   5.348   6.333  0.0707 -0.0891 -0.4202
  121SOL     hw  482   6.982   5.341   6.241  0.1145  0.9427 -0.5220
  121SOL     hw  483   7.003   5.259   6.367  3.8395 -1.3942 -2.4767
  121SOL     vw  484   7.005   5.335   6.325  0.5736 -0.1254 -0.7050
  122SOL     ow  485   6.471   2.104   6.517 -0.0824 -0.0281 -0.0118
  122SOL     hw  486   6.535   2.052   6.566 -0.1358 -0.5268 -0.4729
  122SOL     hw  487   6.454   2.179   6.574 -0.3140 -0.7121  0.8467
  122SOL     vw  488   6.477   2.107   6.531 -0.1199 -0.1841  0.0408
  123SOL     ow  489   2.695   3.837   6.446 -0.3967  0.7388 -0.3113
  123SOL     hw  490   2.676   3.759   6.393 -0.0251 -0.5197  1.3062
  123SOL     hw  491   2.619   3.845   6.505  1.1873 -0.7723  2.1395
  123SOL     vw  492   2.683   3.828   6.447 -0.1386  0.3734  0.2255
  124SOL     ow  493   2.334   6.935   0.831 -0.5396 -0.9089 -0.3727
  124SOL     hw  494   2.329   6.853   0.781  0.8608 -0.5172 -1.2200
  124SOL     hw  495   2.419   6.972   0.807 -0.7036  0.2875  0.7988
  124SOL     vw  496   2.345   6.929   0.821 -0.3765 -0.6993 -0.3300
  125SOL     ow  497   1.500   3.260   2.616 -0.3521 -0.4627 -1.0994
  125SOL     hw  498   1.440   3.275   2.688  1.7393  2.2432  0.2469
  125SOL     hw  499   1.491   3.337   2.560  1.3511 -0.2611 -1.1686
  125SOL     vw  500   1.491   3.272   2.618  0.1485 -0.0792 -0.9308
  126SOL     ow  501   4.148   3.525   1.695 -0.7126 -0.8594 -0.1983
  126SOL     hw  502   4.098   3.598   1.659  0.2642  0.2727  0.6753
  126SOL     hw  503   4.122   3.449   1.642 -0.0754  0.5182 -2.5698
  126SOL     vw  504   4.138   3.524   1.683 -0.4997 -0.5282 -0.3960
  127SOL     ow  505   3.060   7.308   1.522  0.3357  0.3213  0.2941
  127SOL     hw  506   3.112   7.355   1.457 -0.2445 -0.8673 -1.0712
  127SOL     hw  507   3.106   7.225   1.535  0.7008  0.7164  1.7910
  127SOL     vw  508   3.073   7.303   1.515  0.3074  0.2167  0.3114
  128SOL     ow  509   0.039   3.263   3.992  0.3811 -0.7332  0.9345
  128SOL     hw  510   0.113   3.204   4.001  1.8208  0.9565  0.6579
  128SOL     hw  511   0.072   3.336   3.941 -2.4296 -1.4501 -2.2661
  128SOL     vw  512   0.053   3.265   3.987  0.2002 -0.6049  0.4756
  129SOL     ow  513   0.055   3.940   1.691 -0.6471  0.4612  0.0343
  129SOL     hw  514  -0.009   3.900   1.632 -3.2156  4.4514 -0.2311
  129SOL     hw  515   0.030   3.909   1.778 -1.1319 -0.1700 -0.3191
  129SOL     vw  516   0.044   3.930   1.695 -1.0499  0.9043 -0.0474
  130SOL     ow  517   6.480   7.341   2.864  0.7558 -0.2052 -0.2766
  130SOL     hw  518   6.543   7.334   2.936 -0.1335  0.1028  0.5394
  130SOL     hw  519   6.423   7.414   2.888  0.4813 -0.0498 -1.3308
  130SOL     vw  520   6.481   7.350   2.876  0.6022 -0.1440 -0.3080
  131SOL     ow  521   6.555   3.045   2.003 -0.7862  0.4264  0.4755
  131SOL     hw  522   6.516   3.126   2.035 -0.8625  0.0258  1.4299
  131SOL     hw  523   6.537   3.045   1.909 -0.8519  1.4706  0.4712
  131SOL     vw  524   6.548   3.056   1.995 -0.8051  0.5112  0.6008
  132SOL     ow  525   1.475   6.360   2.899  0.5370  0.3645  0.1846
  132SOL     hw  526   1.564   6.372   2.864 -0.6567  0.1352 -3.2254
  132SOL     hw  527   1.419   6.407   2.838 -1.7629  0.2850  2.1215
  132SOL     vw  528   1.480   6.368   2.887  0.0761  0.3235 -0.0097
  133SOL     ow  529   1.652   4.200   1.379 -0.4104 -0.1791 -0.3438
  133SOL     hw  530   1.698   4.155   1.308 -0.7200 -1.0008 -0.0370
  133SOL     hw  531   1.698   4.172   1.459 -1.2697 -0.8134 -0.0559
  133SOL     vw  532   1.664   4.191   1.380 -0.5647 -0.3712 -0.2652
  134SOL     ow  533   2.699   0.521   2.269 -0.2582 -0.9915 -0.0175
  134SOL     hw  534   2.621   0.532   2.323  1.4491 -0.0363  2.4312
  134SOL     hw  535   2.732   0.434   2.291 -0.9862 -1.7328 -1.6561
  134SOL     vw  536   2.693   0.511   2.279 -0.1292 -0.9633  0.0894
  135SOL     ow  537   4.576   1.094   6.733 -0.3447  0.2823  0.3372
  135SOL     hw  538   4.621   1.047   6.804 -1.3902  0.8864  1.4388
  135SOL     hw  539   4.605   1.185   6.742  1.0608  0.0490 -1.2975
  135SOL     vw  540   4.586   1.100   6.744 -0.2971  0.3312  0.2670
  136SOL     ow  541   6.433   7.021   2.366  0.7622 -0.0498  0.5225
  136SOL     hw  542   6.367   7.039   2.298 -0.1052  0.4711  1.4745
  136SOL     hw  543   6.445   6.927   2.363  0.9858 -0.0036 -0.5738
  136SOL     vw  544   6.426   7.011   2.357  0.6771  0.0250  0.5034
  137SOL     ow  545   4.510   2.998   6.583  0.7105 -0.3196  0.0010
  137SOL     hw  546   4.464   3.081   6.594  4.0116  1.4314  2.4347
  137SOL     hw  547   4.507   2.981   6.489  0.2646  2.8441 -0.6718
  137SOL     vw  548   4.504   3.007   6.572  1.0870  0.3289  0.2334
  138SOL     ow  549   4.837   0.433   4.095 -0.3572  0.2182 -0.2518
  138SOL     hw  550   4.904   0.495   4.066 -0.4572 -0.2416 -1.4944
  138SOL     hw  551   4.758   0.486   4.104  0.1558  0.7845  1.3117
  138SOL     vw  552   4.835   0.448   4.093 -0.3028  0.2322 -0.2096
  139SOL     ow  553   0.499   2.587   2.497 -0.4681  0.0208  0.4057
  139SOL     hw  554   0.451   2.505   2.491  0.1457 -0.3190 -0.0474
  139SOL     hw  555   0.559   2.585   2.422  1.7423 -0.5403  2.0714
  139SOL     vw  556   0.501   2.576   2.486 -0.0955 -0.0980  0.5656
  140SOL     ow  557   4.626   6.848   6.449  0.5843  0.1826 -0.7399
  140SOL     hw  558   4.587   6.924   6.492  0.7086 -0.8126  1.2720
  140SOL     hw  559   4.582   6.844   6.364 -3.1472 -0.2747  0.9718
  140SOL     vw  560   4.615   6.857   6.443  0.1085 -0.0091 -0.2487
  141SOL     ow  561   5.356   0.725   5.883 -0.4316 -0.8097  0.0100
  141SOL     hw  562   5.386   0.695   5.797  0.9112  0.2236  0.0970
  141SOL     hw  563   5.366   0.648   5.940 -0.8566 -1.3528 -0.6342
  141SOL     vw  564   5.361   0.711   5.879 -0.3107 -0.7450 -0.0637
  142SOL     ow  565   4.335   7.070   7.010  0.9989 -0.4037 -0.0550
  142SOL     hw  566   4.274   7.074   7.084 -0.0750  0.1849 -0.9295
  142SOL     hw  567   4.402   7.134   7.031 -0.3963  1.2835 -0.4805
  142SOL     vw  568   4.336   7.079   7.023  0.6731 -0.1035 -0.2265
  143SOL     ow  569   0.078   5.151   6.685  0.4908  0.3451  0.8827
  143SOL     hw  570   0.129   5.100   6.749 -0.5550  0.2357  1.6653
  143SOL     hw  571   0.020   5.086   6.645 -2.3298  1.1446  3.3561
  143SOL     vw  572   0.077   5.136   6.688 -0.0193  0.4363  1.3125
  144SOL     ow  573   3.270   4.228   4.132  0.4126  0.0268 -0.9849
  144SOL     hw  574   3.195   4.267   4.087 -1.4506 -2.1490 -0.0229
  144SOL     hw  575   3.301   4.160   4.073  0.0814 -0.6406 -0.4077
  144SOL     vw  576   3.264   4.224   4.118  0.1230 -0.3481 -0.7818
  145SOL     ow  577   1.371   6.017   2.533 -0.1205  0.0452  0.2081
  145SOL     hw  578   1.361   5.954   2.461  0.3463  1.7274 -1.4077
  145SOL     hw  579   1.291   6.070   2.530  0.8614  1.5706 -0.6099
  145SOL     vw  580   1.359   6.016   2.523  0.0706  0.4685 -0.1129
  146SOL     ow  581   0.927   2.341   6.016 -0.0783 -0.5193  0.0511
  146SOL     hw  582   1.004   2.388   6.048 -0.1766 -0.4696  0.2154
  146SOL     hw  583   0.919   2.266   6.076  0.5500 -1.1899 -0.6866
  146SOL     vw  584   0.936   2.337   6.028 -0.0084 -0.6012 -0.0243
  147SOL     ow  585   4.001   0.398   3.725  0.1575 -0.5942  0.7404
  147SOL     hw  586   3.926   0.408   3.665 -1.5100 -0.7672  2.7036
  147SOL     hw  587   3.973   0.440   3.806  3.3099  1.8912  0.7303
  147SOL     vw  588   3.987   0.405   3.728  0.3535 -0.2891  0.9981
  148SOL     ow  589   4.664   5.616   2.084 -0.0855 -0.3880 -0.7351
  148SOL     hw  590   4.583   5.565   2.082 -1.3381  1.4535 -3.6437
  148SOL     hw  591   4.636   5.706   2.102  1.4345  0.1404 -0.8151
  148SOL     vw  592   4.650   5.621   2.086 -0.0503 -0.0753 -1.1295
  149SOL     ow  593   7.171   4.343   4.168  0.8502 -0.2657  0.4763
  149SOL     hw  594   7.112   4.414   4.195  0.3261 -0.1523 -0.8667
  149SOL     hw  595   7.256   4.368   4.203  0.4248  0.4134  1.0586
  149SOL     vw  596   7.174   4.356   4.176  0.7250 -0.1609  0.3760
  150SOL     ow  597   6.250   6.895   1.455  1.0670  0.1681 -0.2114
  150SOL     hw  598   6.288   6.859   1.535  2.5710 -0.6641 -1.2575
  150SOL     hw  599   6.193   6.826   1.422 -0.3636  0.8994  0.6391
  150SOL     vw  600   6.247   6.881   1.461  1.0767  0.1547 -0.2372
  151SOL     ow  601   0.024   0.089   6.678  0.3093  0.3395  0.1157
  151SOL     hw  602  -0.038   0.032   6.724  0.8034 -0.6975 -0.4783
  151SOL     hw  603   0.047   0.156   6.743 -1.0489  0.4748  0.4984
  151SOL     vw  604   0.019   0.091   6.693  0.1953  0.2205  0.0880
  152SOL     ow  605   4.695   6.178   5.648  0.1661  0.0751 -0.8727
  152SOL     hw  606   4.728   6.088   5.655  2.0643  0.5984 -2.3537
  152SOL     hw  607   4.630   6.175   5.578 -1.3918 -0.5176  0.5352
  152SOL     vw  608   4.691   6.166   5.640  0.2110  0.0658 -0.8826
  153SOL     ow  609   4.787   5.956   3.842  0.1696 -0.1078 -0.4036
  153SOL     hw  610   4.805   6.000   3.759  0.9891  2.3671  0.9568
  153SOL     hw  611   4.777   5.864   3.819  0.9160  0.3938 -3.1402
  153SOL     vw  612   4.788   5.950   3.828  0.3765  0.2849 -0.5853
  154SOL     ow  613   6.644   1.680   0.151 -0.4765 -0.0832  0.4074
  154SOL     hw  614   6.737   1.676   0.129 -0.8125  0.9433 -1.4092
  154SOL     hw  615   6.599   1.664   0.067 -1.9919 -2.5938  1.5840
  154SOL     vw  616   6.650   1.677   0.137 -0.7205 -0.2790  0.3230
  155SOL     ow  617   6.133   6.528   1.653  0.2733  0.1511  0.7750
  155SOL     hw  618   6.146   6.496   1.742 -3.5130 -1.3631  0.9928
  155SOL     hw  619   6.081   6.608   1.664 -0.1967 -0.0276 -0.0526
  155SOL     vw  620   6.128   6.534   1.666 -0.2885 -0.0722  0.6945
  156SOL     ow  621   0.767   5.312   5.477  0.5184 -0.2293 -0.2140
  156SOL     hw  622   0.707   5.360   5.420  0.2628  0.2110  0.4184
  156SOL     hw  623   0.729   5.224   5.483 -1.2521  0.5571  1.8002
  156SOL     vw  624   0.754   5.307   5.471  0.2511 -0.0672  0.1354
  157SOL     ow  625   1.399   4.320   3.547 -0.2593  0.1000 -0.1656
  157SOL     hw  626   1.342   4.249   3.518 -2.2263  2.4387 -2.4833
  157SOL     hw  627   1.343   4.374   3.602  0.7757  0.6586  0.3694
  157SOL     vw  628   1.384   4.318   3.551 -0.3822  0.4823 -0.4008
  158SOL     ow  629   1.936   1.295   5.881  0.2166 -0.5422  0.3463
  158SOL     hw  630   2.008   1.234   5.899 -0.7327 -0.9741  3.2438
  158SOL     hw  631   1.928   1.347   5.961  1.5915  4.2583 -2.2383
  158SOL     vw  632   1.944   1.293   5.894  0.2728  0.0342  0.3872
  159SOL     ow  633   0.618   3.071   4.647 -0.4291  1.0749  0.0149
  159SOL     hw  634   0.684   3.138   4.662  1.0102 -0.4125  0.6232
  159SOL     hw  635   0.609   3.027   4.731  0.2107 -0.8138 -0.8405
  159SOL     vw  636   0.626   3.074   4.660 -0.1548  0.6295 -0.0174
  160SOL     ow  637   3.591   7.094   3.669 -0.2357  0.6314  0.0548
  160SOL     hw  638   3.685   7.081   3.686  0.7340  4.2657 -1.6354
  160SOL     hw  639   3.569   7.026   3.605  1.6644  0.6951 -0.7371
  160SOL     vw  640   3.601   7.083   3.663  0.1431  1.1191 -0.2726
  161SOL     ow  641   5.957   0.079   7.320 -0.6855 -0.4355 -0.2174
  161SOL     hw  642   5.932   0.109   7.408  0.4119  0.9913 -0.3503
  161SOL     hw  643   6.020   0.009   7.335 -0.7588 -0.4269  0.1308
  161SOL     vw  644   5.962   0.074   7.334 -0.5505 -0.2461 -0.1891
  162SOL     ow  645   5.603   6.891   0.620  0.9735 -0.2152  0.1956
  162SOL     hw  646   5.679   6.909   0.566  1.1079 -2.5202 -0.5203
  162SOL     hw  647   5.555   6.824   0.572 -1.1628  0.6769  0.9555
  162SOL     vw  648   5.607   6.884   0.607  0.7091 -0.4015  0.2014
  163SOL     ow  649   6.016   0.654   2.698 -0.1215  0.2197 -0.3235
  163SOL     hw  650   5.967   0.733   2.718  2.3261  1.7088  0.1797
  163SOL     hw  651   6.038   0.661   2.605  2.2485  1.5215  0.2512
  163SOL     vw  652   6.013   0.665   2.688  0.5138  0.5879 -0.1813
  164SOL     ow  653   3.965   3.643   4.342 -0.7318  0.1010  0.0398
  164SOL     hw  654   3.882   3.596   4.355 -0.5989 -0.0141  0.4876
  164SOL     hw  655   4.012   3.632   4.425  1.1461 -2.6696 -1.2210
  164SOL     vw  656   3.960   3.635   4.354 -0.4666 -0.2798 -0.0675
  165SOL     ow  657   3.141   1.038   1.311 -0.2007 -0.0156  0.3329
  165SOL     hw  658   3.122   1.024   1.219 -0.5460 -0.5221  0.4782
  165SOL     hw  659   3.236   1.030   1.318  0.0659  1.8974 -0.2922
  165SOL     vw  660   3.151   1.035   1.300 -0.2110  0.1699  0.2696
  166SOL     ow  661   0.704   1.630   0.875 -0.4362  0.4431 -0.3223
  166SOL     hw  662   0.690   1.665   0.788 -1.0228  0.2081 -0.3280
  166SOL     hw  663   0.636   1.670   0.929 -1.2809 -0.8269 -0.3825
  166SOL     vw  664   0.693   1.640   0.871 -0.6251  0.2445 -0.3310
  167SOL     ow  665   7.270   1.308   1.559 -0.4922  1.1329  0.9262
  167SOL     hw  666   7.204   1.330   1.492  0.2766  4.0087  0.9883
  167SOL     hw  667   7.346   1.279   1.509 -0.8177  0.6087  0.7216
  167SOL     vw  668   7.271   1.307   1.543 -0.4337  1.4432  0.9074
  168SOL     ow  669   5.733   1.531   1.619  0.3303 -0.5739  0.5662
  168SOL     hw  670   5.757   1.577   1.700 -2.6981 -1.5320  2.1772
  168SOL     hw  671   5.815   1.493   1.588  1.4200 -1.6276  4.2022
  168SOL     vw  672   5.747   1.532   1.626  0.0744 -0.8394  1.2585
  169SOL     ow  673   7.188   6.601   0.133 -0.2775 -0.1811  0.3055
  169SOL     hw  674   7.170   6.519   0.180  1.0916 -0.8644 -0.3197
  169SOL     hw  675   7.252   6.577   0.066 -1.5475  0.9565 -1.3851
  169SOL     vw  676   7.194   6.587   0.131 -0.2644 -0.1214 -0.0001
  170SOL     ow  677   4.590   2.401   0.131 -0.1202  0.0951  0.2907
  170SOL     hw  678   4.527   2.361   0.191 -1.3155 -0.3400 -1.2244
  170SOL     hw  679   4.626   2.327   0.082  0.1111  0.5450 -0.2219
  170SOL     vw  680   4.587   2.386   0.133 -0.2475  0.0969  0.0232
  171SOL     ow  681   4.318   6.743   2.648  0.3920 -1.1598 -0.2919
  171SOL     hw  682   4.344   6.829   2.616 -0.7256 -0.9965 -0.8413
  171SOL     hw  683   4.337   6.684   2.575 -0.7858 -1.0222 -0.7418
  171SOL     vw  684   4.324   6.746   2.634  0.0892 -1.1201 -0.4238
  172SOL     ow  685   7.286   3.763   2.599  0.4663 -0.4381 -0.4836
  172SOL     hw  686   7.205   3.713   2.615 -0.0076  0.4711  0.0133
  172SOL     hw  687   7.315   3.734   2.512  1.1306 -2.8225  0.4502
  172SOL     vw  688   7.279   3.752   2.590  0.4914 -0.6329 -0.2949
  173SOL     ow  689   5.938   6.067   6.505 -0.0255  0.0270 -0.2961
  173SOL     hw  690   5.902   6.048   6.592  0.0611  0.1421 -0.2362
  173SOL     hw  691   6.025   6.027   6.506 -0.8550 -1.9076 -1.0836
  173SOL     vw  692   5.945   6.059   6.517 -0.1235 -0.2129 -0.3922
  174SOL     ow  693   6.311   7.156   2.153  0.4436 -0.5137  0.0631
  174SOL     hw  694   6.293   7.234   2.099  1.5819 -0.8637 -0.8687
  174SOL     hw  695   6.227   7.110   2.157  0.4765 -0.8753 -2.1107
  174SOL     vw  696   6.298   7.161   2.146  0.5980 -0.6075 -0.3467
  175SOL     ow  697   5.655   1.566   4.426  0.3228 -0.1312  0.0122
  175SOL     hw  698   5.732   1.585   4.480  1.1337 -0.8876 -0.8292
  175SOL     hw  699   5.660   1.628   4.353  0.0662 -0.0998  0.0202
  175SOL     vw  700   5.666   1.576   4.423  0.3960 -0.2269 -0.0978
  176SOL     ow  701   5.106   7.047   6.079  0.1516  0.1009  0.0973
  176SOL     hw  702   5.169   7.035   6.008  0.6367  1.7164  0.2341
  176SOL     hw  703   5.035   6.986   6.057  1.5947 -1.5662 -0.1961
  176SOL     vw  704   5.105   7.037   6.067  0.4058  0.0939  0.0765
  177SOL     ow  705   4.974   5.705   5.533 -0.4547  0.0581  0.0347
  177SOL     hw  706   5.038   5.754   5.482 -0.8745  1.2977  0.6522
  177SOL     hw  707   5.013   5.697   5.620 -1.0766  0.7250  0.3852
  177SOL     vw  708   4.987   5.710   5.538 -0.5920  0.3097  0.1621
  178SOL     ow  709   5.935   2.828   3.703  0.4586 -0.2754 -0.9469
  178SOL     hw  710   5.989   2.766   3.752 -0.1303  1.3008  1.9470
  178SOL     hw  711   5.999   2.886   3.660  1.1489  0.2722  0.7011
  178SOL     vw  712   5.951   2.828   3.704  0.4718  0.0049 -0.3476
  179SOL     ow  713   5.161   4.208   6.620  0.1101 -0.6033 -0.0774
  179SOL     hw  714   5.096   4.169   6.679  0.6085  0.8442  1.4838
  179SOL     hw  715   5.165   4.146   6.547 -1.0770 -2.0916  1.0246
  179SOL     vw  716   5.153   4.194   6.618  0.0191 -0.6087  0.2742
  180SOL     ow  717   4.642   0.513   2.369  0.1033  0.4834  0.4863
  180SOL     hw  718   4.660   0.581   2.435  0.1022  0.4954  0.4741
  180SOL     hw  719   4.711   0.448   2.382  0.5842  0.8779 -0.0357
  180SOL     vw  720   4.654   0.514   2.379  0.1664  0.5370  0.4158
  181SOL     ow  721   6.563   6.240   4.543  0.7457 -0.0799 -1.1645
  181SOL     hw  722   6.629   6.225   4.476 -0.5263  0.9247 -2.6869
  181SOL     hw  723   6.507   6.308   4.508  0.5663  1.1964  1.3276
  181SOL     vw  724   6.565   6.247   4.530  0.5543  0.2208 -1.0366
  182SOL     ow  725   1.486   6.079   1.668  0.6330  0.7612 -0.4355
  182SOL     hw  726   1.478   6.001   1.611  0.2057 -1.2720  2.2214
  182SOL     hw  727   1.566   6.063   1.718 -0.0005  1.5424  0.8591
  182SOL     vw  728   1.495   6.066   1.667  0.4931  0.5960  0.0859
  183SOL     ow  729   1.892   1.553   6.734 -0.2371 -0.6224 -0.0950
  183SOL     hw  730   1.950   1.624   6.758 -0.7119 -1.1803  3.1222
  183SOL     hw  731   1.900   1.489   6.805 -5.7075 -0.1183  1.5069
  183SOL     vw  732   1.900   1.554   6.746 -1.0215 -0.6295  0.5407
  184SOL     ow  733   4.848   3.252   2.706 -0.2057 -0.0920  0.1536
  184SOL     hw  734   4.901   3.331   2.706 -0.3844  0.0311 -0.2238
  184SOL     hw  735   4.779   3.269   2.769  0.6777 -0.5832  1.2816
  184SOL     vw  736   4.846   3.265   2.714 -0.1128 -0.1404  0.2527
  185SOL     ow  737   3.627   1.747   2.983  0.0713  0.3715  0.0269
  185SOL     hw  738   3.645   1.780   2.895  0.6240 -0.7996 -0.3190
  185SOL     hw  739   3.540   1.709   2.976  0.5474 -0.7089 -0.3395
  185SOL     vw  740   3.618   1.746   2.970  0.2071  0.0744 -0.0671
  186SOL     ow  741   1.272   1.491   0.759  0.1385  0.1453 -0.0674
  186SOL     hw  742   1.292   1.398   0.765  0.8442  0.1713 -1.4775
  186SOL     hw  743   1.283   1.512   0.666  1.5091  1.9665  0.4398
  186SOL     vw  744   1.276   1.482   0.747  0.4125  0.3891 -0.1865
  187SOL     ow  745   1.359   3.013   2.542  0.0892  0.1271  0.1492
  187SOL     hw  746   1.407   3.096   2.544 -0.6541  0.6055  2.9673
  187SOL     hw  747   1.306   3.014   2.621  1.1067 -3.6647  1.1290
  187SOL     vw  748   1.359   3.024   2.553  0.1253 -0.3101  0.6502
  188SOL     ow  749   3.068   6.580   2.516 -0.4596 -0.5710  0.3686
  188SOL     hw  750   3.091   6.521   2.444  1.2564  1.7296 -1.1314
  188SOL     hw  751   3.145   6.580   2.572  0.9530  2.4016 -1.3051
  188SOL     vw  752   3.081   6.572   2.514 -0.0467  0.1247 -0.0501
  189SOL     ow  753   1.830   5.698   4.360  0.7444  1.0919 -0.1656
  189SOL     hw  754   1.810   5.763   4.293 -0.2955  0.4773 -0.4730
  189SOL     hw  755   1.744   5.665   4.387  1.2295  0.2834  0.4112
  189SOL     vw  756   1.816   5.702   4.355  0.6711  0.9043 -0.1299
  190SOL     ow  757   5.038   6.899   5.407 -0.1452  0.1628  0.1876
  190SOL     hw  758   5.117   6.953   5.404 -0.6639  1.1995  2.5614
  190SOL     hw  759   5.009   6.904   5.498 -0.9361 -3.1762  0.2615
  190SOL     vw  760   5.045   6.907   5.418 -0.3181 -0.1411  0.5105
  191SOL     ow  761   3.563   2.810   3.984  0.0941  0.4190 -0.3004
  191SOL     hw  762   3.488   2.837   4.036 -0.4917 -2.1860  0.3266
  191SOL     hw  763   3.631   2.875   4.004 -1.3388  1.6874  0.6440
  191SOL     vw  764   3.562   2.822   3.993 -0.1721  0.2427 -0.0931
  192SOL     ow  765   3.518   2.417   5.263  0.3687 -0.1521 -0.0645
  192SOL     hw  766   3.569   2.448   5.338 -1.8174 -1.0134  1.9177
  192SOL     hw  767   3.461   2.490   5.241 -0.4544 -0.5969  0.5328
  192SOL     vw  768   3.517   2.431   5.270 -0.0284 -0.3245  0.2761
  193SOL     ow  769   1.641   2.436   6.528  0.2459 -0.3650  0.2956
  193SOL     hw  770   1.718   2.440   6.585 -1.3842 -0.9855  2.7138
  193SOL     hw  771   1.633   2.343   6.505  0.8647 -0.1252 -0.9804
  193SOL     vw  772   1.650   2.424   6.532  0.1125 -0.4152  0.4461
  194SOL     ow  773   0.134   4.245   5.384 -0.0410  0.6305 -0.0086
  194SOL     hw  774   0.216   4.272   5.342  0.6168  2.1292  2.0725
  194SOL     hw  775   0.065   4.286   5.331  0.4435 -1.0927 -2.1057
  194SOL     vw  776   0.136   4.254   5.371  0.1097  0.6008 -0.0112
  195SOL     ow  777   0.277   2.109   0.607 -0.0951  0.1464 -0.0096
  195SOL     hw  778   0.319   2.191   0.581 -0.7616 -0.2579 -2.6615
  195SOL     hw  779   0.199   2.137   0.655 -1.0146  1.1839 -1.9807
  195SOL     vw  780   0.272   2.124   0.610 -0.3044  0.2298 -0.6195
  196SOL     ow  781   2.671   0.936   2.417  0.0995 -0.7985  0.0577
  196SOL     hw  782   2.592   0.982   2.389  0.7975 -0.2402 -1.0344
  196SOL     hw  783   2.727   1.004   2.454  0.5164 -1.0207 -0.1652
  196SOL     vw  784   2.668   0.951   2.418  0.2468 -0.7541 -0.1158
  197SOL     ow  785   4.437   2.027   5.096  0.1060  0.2497 -1.0516
  197SOL     hw  786   4.401   2.100   5.147 -0.2612 -1.3466  1.0882
  197SOL     hw  787   4.363   1.996   5.044 -0.8523 -0.9512  0.9031
  197SOL     vw  788   4.423   2.033   5.096 -0.0691 -0.1193 -0.5112
  198SOL     ow  789   0.613   5.127   7.040  0.1164 -0.9310  0.4170
  198SOL     hw  790   0.673   5.193   7.003 -1.1251  0.8654  1.4466
  198SOL     hw  791   0.651   5.107   7.126  1.3780 -2.8759 -0.5150
  198SOL     vw  792   0.626   5.133   7.047  0.1190 -0.9506  0.4301
  199SOL     ow  793   4.674   6.289   3.752  0.4152 -0.8440  0.2610
  199SOL     hw  794   4.621   6.244   3.686 -2.3931 -0.3565  2.0525
  199SOL     hw  795   4.659   6.382   3.736  2.2361 -0.6025 -0.3034
  199SOL     vw  796   4.665   6.295   3.741  0.2851 -0.7477  0.4230
  200SOL     ow  797   3.831   7.193   1.606  0.6499  0.2258 -0.1439
  200SOL     hw  798   3.862   7.276   1.643  0.1410 -0.5029  2.1166
  200SOL     hw  799   3.746   7.179   1.648  1.2887 -2.0245  0.5297
  200SOL     vw  800   3.824   7.202   1.617  0.6670 -0.1674  0.2432
  201SOL     ow  801   1.958   3.882   7.016 -0.6813  0.3979  0.4502
  201SOL     hw  802   1.893   3.911   6.953 -0.6207 -0.2834  0.0617
  201SOL     hw  803   1.997   3.963   7.050 -0.9002  0.7743 -0.1828
  201SOL     vw  804   1.954   3.896   7.012 -0.7021  0.3576  0.3154
  202SOL     ow  805   6.535   0.634   5.687 -0.1701  0.4972  0.2578
  202SOL     hw  806   6.583   0.551   5.677  0.1400  0.9051 -2.1892
  202SOL     hw  807   6.449   0.617   5.648  1.1901  2.2809 -4.1305
  202SOL     vw  808   6.530   0.621   5.681  0.0503  0.7863 -0.6442
  203SOL     ow  809   6.404   6.570   1.587 -0.7782  0.2780  0.0583
  203SOL     hw  810   6.409   6.655   1.631 -0.7985  1.1053 -1.4623
  203SOL     hw  811   6.312   6.545   1.594 -0.6252 -0.0357  1.2161
  203SOL     vw  812   6.393   6.578   1.594 -0.7606  0.3457  0.0104
  204SOL     ow  813   6.907   4.201   4.152 -0.1515 -0.3609 -0.9965
  204SOL     hw  814   6.832   4.179   4.097  1.1988 -1.3879 -2.5013
  204SOL     hw  815   6.871   4.201   4.241 -2.3935  1.3202 -1.7900
  204SOL     vw  816   6.892   4.198   4.157 -0.2692 -0.2744 -1.2996
  205SOL     ow  817   5.781   1.680   1.883 -0.0048 -0.2252  0.2820
  205SOL     hw  818   5.741   1.765   1.900 -0.9831 -0.9113  1.5707
  205SOL     hw  819   5.815   1.651   1.967 -0.9074 -1.6999  0.1906
  205SOL     vw  820   5.780   1.687   1.896 -0.2527 -0.5102  0.4399
  206SOL     ow  821   5.427   6.551   2.473  0.0956 -0.1016  0.2801
  206SOL     hw  822   5.403   6.631   2.426  1.3205  0.8070  1.1281
  206SOL     hw  823   5.454   6.490   2.405 -1.4230 -0.0294 -0.4298
  206SOL     vw  824   5.428   6.554   2.458  0.0572  0.0277  0.2984
  207SOL     ow  825   1.830   4.489   5.064 -0.1200  0.2694  0.5875
  207SOL     hw  826   1.844   4.583   5.056  1.1332  0.1097  0.6328
  207SOL     hw  827   1.761   4.469   5.001  2.2404  0.6578 -2.3274
  207SOL     vw  828   1.823   4.499   5.055  0.3568  0.2995  0.2091
  208SOL     ow  829   0.510   5.624   6.939 -0.1877  0.2556 -0.3111
  208SOL     hw  830   0.555   5.687   6.883 -0.8913  2.1976  1.2173
  208SOL     hw  831   0.529   5.652   7.028  1.1909 -2.9608  0.5329
  208SOL     vw  832   0.518   5.636   6.943 -0.0986  0.0875  0.0021
  209SOL     ow  833   2.807   4.748   1.446  0.6741 -0.9619  0.1174
  209SOL     hw  834   2.816   4.843   1.455  0.4545 -1.0143  0.9606
  209SOL     hw  835   2.834   4.730   1.356 -2.0199  0.2395 -1.0523
  209SOL     vw  836   2.812   4.758   1.435  0.2896 -0.8104  0.0743
  210SOL     ow  837   2.007   6.965   2.388  0.6443  0.3647  0.1623
  210SOL     hw  838   1.998   7.012   2.471 -2.5257  0.9296 -0.3673
  210SOL     hw  839   2.026   7.034   2.324 -1.0754  0.5951 -0.1551
  210SOL     vw  840   2.008   6.980   2.390 -0.0007  0.4697  0.0505
  211SOL     ow  841   0.954   4.995   5.034 -0.3248  0.6043  0.3773
  211SOL     hw  842   0.982   4.903   5.040 -1.2622  0.4048  3.6805
  211SOL     hw  843   1.035   5.044   5.020  1.1961 -0.3720  4.4007
  211SOL     vw  844   0.969   4.989   5.033 -0.2477  0.4494  1.3442
  212SOL     ow  845   4.812   3.985   5.133  0.1695  0.0939  0.4700
  212SOL     hw  846   4.797   3.899   5.172 -1.7732  0.6664  1.0934
  212SOL     hw  847   4.729   4.031   5.143  0.3954  1.2240 -1.9881
  212SOL     vw  848   4.799   3.980   5.139 -0.0570  0.3185  0.2279
  213SOL     ow  849   0.986   3.554   4.568  0.5329 -0.5513  0.0453
  213SOL     hw  850   1.068   3.592   4.536 -0.7191  2.0695 -0.3644
  213SOL     hw  851   0.918   3.607   4.526 -1.4704 -3.5794 -0.8381
  213SOL     vw  852   0.988   3.566   4.558  0.1034 -0.6050 -0.1254
  214SOL     ow  853   4.136   0.962   4.560 -0.4648 -0.2120 -0.6646
  214SOL     hw  854   4.205   0.901   4.537  1.1912  1.8019 -1.2885
  214SOL     hw  855   4.103   0.995   4.477 -0.9459  0.1735 -0.3331
  214SOL     vw  856   4.141   0.958   4.546 -0.3099  0.1046 -0.7033
  215SOL     ow  857   1.581   1.791   4.074  0.0678 -0.0818 -0.6470
  215SOL     hw  858   1.494   1.754   4.059  1.1245 -1.9877 -2.7723
  215SOL     hw  859   1.626   1.725   4.127  0.6802  0.1726 -0.8435
  215SOL     vw  860   1.575   1.777   4.079  0.2880 -0.2997 -0.9534
  216SOL     ow  861   6.395   3.310   6.970 -0.3315 -0.0206 -0.2748
  216SOL     hw  862   6.341   3.294   7.048  0.9714  0.5553  0.7710
  216SOL     hw  863   6.336   3.292   6.897 -2.1029  1.0804  0.8148
  216SOL     vw  864   6.380   3.305   6.971 -0.3932  0.2006  0.0072
  217SOL     ow  865   4.682   4.288   3.186  0.0020  0.0420  0.3586
  217SOL     hw  866   4.688   4.359   3.122 -2.4442  1.4489  1.5515
  217SOL     hw  867   4.619   4.227   3.148 -0.0277 -0.0823  0.6055
  217SOL     vw  868   4.675   4.289   3.172 -0.3247  0.2110  0.5484
  218SOL     ow  869   6.233   5.325   7.035  0.4625  0.0156 -0.3392
  218SOL     hw  870   6.244   5.230   7.040  1.6099  0.0952 -1.0384
  218SOL     hw  871   6.277   5.359   7.113  1.5199  0.0591 -0.9340
  218SOL     vw  872   6.240   5.317   7.046  0.7536  0.0319 -0.5100
  219SOL     ow  873   6.298   5.509   5.121 -0.2033  0.4545  0.2661
  219SOL     hw  874   6.379   5.559   5.109  0.3524 -0.6951 -1.1184
  219SOL     hw  875   6.327   5.426   5.159 -0.8571  0.4074  0.6598
  219SOL     vw  876   6.313   5.505   5.124 -0.2162  0.2966  0.1354
  220SOL     ow  877   1.230   4.303   2.286 -0.3893  0.2858  0.5947
  220SOL     hw  878   1.147   4.346   2.265  1.4571  4.1574  0.3133
  220SOL     hw  879   1.214   4.210   2.268 -4.5140  0.8494  0.3270
  220SOL     vw  880   1.217   4.296   2.281 -0.6899  0.8709  0.5223
  221SOL     ow  881   6.046   5.708   7.217  0.3197 -0.3114 -0.3044
  221SOL     hw  882   6.038   5.797   7.182  2.3800 -0.8849 -2.5370
  221SOL     hw  883   6.010   5.651   7.149 -2.6491 -1.2348  1.8310
  221SOL     vw  884   6.040   5.712   7.204  0.1998 -0.5090 -0.3173
  222SOL     ow  885   0.822   3.220   4.863  0.5357  0.5802  0.0056
  222SOL     hw  886   0.876   3.163   4.917  4.6911  3.4806 -0.6583
  222SOL     hw  887   0.844   3.308   4.892 -2.2718  2.0628 -1.9300
  222SOL     vw  888   0.832   3.224   4.874  0.7135  1.1585 -0.3376
  223SOL     ow  889   3.234   6.112   1.519  0.0984  0.4276  0.4817
  223SOL     hw  890   3.310   6.054   1.523  1.3168  1.8230 -0.7756
  223SOL     hw  891   3.224   6.145   1.608  0.4532 -0.4185  0.8391
  223SOL     vw  892   3.243   6.109   1.531  0.3059  0.5000  0.3630
  224SOL     ow  893   3.641   5.673   7.070 -0.2029 -0.1575 -0.0822
  224SOL     hw  894   3.660   5.612   7.141 -0.4824 -0.0428  0.0948
  224SOL     hw  895   3.641   5.760   7.112  0.6198  0.0138 -0.4115
  224SOL     vw  896   3.643   5.677   7.085 -0.1312 -0.1197 -0.1025
  225SOL     ow  897   1.349   6.385   6.611  0.0954 -0.1645 -0.5868
  225SOL     hw  898   1.441   6.399   6.588  0.5180 -1.7869 -0.0334
  225SOL     hw  899   1.352   6.322   6.684 -1.4585 -0.4553 -0.7455
  225SOL     vw  900   1.362   6.378   6.618 -0.0539 -0.4170 -0.5350
  226SOL     ow  901   0.942   3.788   4.797  0.6689 -0.9015  0.2679
  226SOL     hw  902   0.963   3.723   4.729 -1.5741 -0.0761 -1.3321
  226SOL     hw  903   0.847   3.782   4.807  0.4643  1.7481  0.4731
  226SOL     vw  904   0.933   3.779   4.789  0.3460 -0.4430  0.0837
  227SOL     ow  905   6.345   2.751   0.445 -0.0895  0.4327  0.4530
  227SOL     hw  906   6.373   2.781   0.358  0.4306  1.1337  0.8539
  227SOL     hw  907   6.251   2.768   0.446 -0.2056 -0.1339 -0.1912
  227SOL     vw  908   6.336   2.757   0.433 -0.0360  0.4505  0.4209
  228SOL     ow  909   4.634   3.551   0.503  0.5343 -0.2860  1.0039
  228SOL     hw  910   4.682   3.593   0.574  1.3708  0.7765 -0.1354
  228SOL     hw  911   4.570   3.616   0.475 -0.3538 -1.0112  1.3201
  228SOL     vw  912   4.632   3.565   0.509  0.5274 -0.2414  0.8953
  229SOL     ow  913   2.217   0.229   2.192  0.6219 -0.6428 -0.0268
  229SOL     hw  914   2.170   0.310   2.168 -1.4101 -1.9463 -0.6948
  229SOL     hw  915   2.307   0.246   2.165  0.1621  1.2407 -0.5750
  229SOL     vw  916   2.222   0.242   2.185  0.2933 -0.5663 -0.1873
  230SOL     ow  917   4.625   0.016   1.065 -0.0308  0.5283  0.1542
  230SOL     hw  918   4.589   0.067   0.993  0.1723 -2.3772 -2.2061
  230SOL     hw  919   4.718   0.008   1.044  0.4529  1.2001  1.8413
  230SOL     vw  920   4.633   0.022   1.052  0.0596  0.2334  0.0654
  231SOL     ow  921   5.769   3.572   3.979  0.2317  0.1504  0.0066
  231SOL     hw  922   5.854   3.539   3.953 -0.9451 -1.0276 -2.7536
  231SOL     hw  923   5.710   3.497   3.968 -1.6515  1.7217 -1.3437
  231SOL     vw  924   5.772   3.558   3.974 -0.1719  0.2023 -0.5356
  232SOL     ow  925   0.312   0.349   2.364 -0.1782 -1.0417 -0.3546
  232SOL     hw  926   0.220   0.363   2.341 -0.5989  4.3683  2.9018
  232SOL     hw  927   0.309   0.302   2.447 -0.5752  2.4665  1.8294
  232SOL     vw  928   0.300   0.345   2.371 -0.2861  0.1349  0.3635
  233SOL     ow  929   6.532   4.148   1.865 -0.2240  0.3279 -0.4241
  233SOL     hw  930   6.564   4.207   1.933  0.0873 -0.2508 -0.0624
  233SOL     hw  931   6.580   4.174   1.786 -0.9846  1.3637 -0.5731
  233SOL     vw  932   6.542   4.160   1.863 -0.2830  0.3881 -0.3961
  234SOL     ow  933   6.392   7.129   0.388 -0.4120 -0.5124  0.0739
  234SOL     hw  934   6.375   7.035   0.390  1.4570 -0.8655  0.3140
  234SOL     hw  935   6.337   7.165   0.458  0.7374 -1.7715  1.6929
  234SOL     vw  936   6.382   7.121   0.397 -0.0136 -0.7250  0.3191
  235SOL     ow  937   1.558   6.538   0.520 -0.6483  0.0413 -0.3138
  235SOL     hw  938   1.468   6.568   0.523 -1.4486 -1.8878 -2.1378
  235SOL     hw  939   1.559   6.458   0.572 -0.1307 -0.2248 -0.7208
  235SOL     vw  940   1.547   6.531   0.527 -0.6857 -0.2482 -0.6081
  236SOL     ow  941   0.957   4.334   0.005  0.7948  0.0522  0.5246
  236SOL     hw  942   0.942   4.288   0.087 -0.8466 -1.2007 -0.3939
  236SOL     hw  943   0.973   4.264  -0.059  2.4014  1.0106 -0.1863
  236SOL     vw  944   0.957   4.319   0.007  0.7902  0.0134  0.3096
  237SOL     ow  945   4.346   3.061   6.165 -0.2285  0.7393 -0.2181
  237SOL     hw  946   4.255   3.035   6.183  0.3342 -1.2532 -0.0242
  237SOL     hw  947   4.382   2.988   6.115  1.5385  1.0803  0.5099
  237SOL     vw  948   4.339   3.048   6.161  0.0789  0.5215 -0.0963
  238SOL     ow  949   4.356   4.687   3.935  0.0512 -0.0921 -0.4210
  238SOL     hw  950   4.393   4.627   4.000  1.9119 -0.2015 -1.5143
  238SOL     hw  951   4.410   4.766   3.943 -1.5015  0.9634  0.0573
  238SOL     vw  952   4.368   4.689   3.945  0.0923  0.0327 -0.5021
  239SOL     ow  953   0.922   0.951   6.387  0.2802  0.8020 -0.3467
  239SOL     hw  954   1.008   0.923   6.419 -0.3730 -0.0446  0.7114
  239SOL     hw  955   0.897   1.023   6.445 -0.1034  0.4770 -0.1069
  239SOL     vw  956   0.930   0.957   6.399  0.1434  0.6475 -0.1757
  240SOL     ow  957   2.399   1.636   4.164  0.3475  0.3481  0.1158
  240SOL     hw  958   2.317   1.622   4.211  0.6115  2.2817  1.2429
  240SOL     hw  959   2.412   1.731   4.165  2.2764  0.1388 -0.5869
  240SOL     vw  960   2.390   1.647   4.171  0.6367  0.5757  0.1719
  241SOL     ow  961   5.551   0.570   6.935 -0.2422  0.5306  1.1920
  241SOL     hw  962   5.478   0.574   6.872  1.7123 -2.4325 -1.5679
  241SOL     hw  963   5.525   0.501   6.997 -0.3244  0.3577  0.9682
  241SOL     vw  964   5.538   0.561   6.935  0.0045  0.1169  0.7982
  242SOL     ow  965   2.056   1.911   6.038  0.0598 -0.3446 -0.3087
  242SOL     hw  966   1.962   1.918   6.054  0.3064  0.6342  0.9175
  242SOL     hw  967   2.072   1.967   5.962 -0.0913  1.1562  0.7141
  242SOL     vw  968   2.045   1.919   6.030  0.0725 -0.0175 -0.0117
  243SOL     ow  969   6.220   5.647   0.253 -0.3248 -0.4032 -0.3975
  243SOL     hw  970   6.173   5.575   0.296 -0.6366 -0.1412 -0.3016
  243SOL     hw  971   6.298   5.605   0.216  1.3017 -0.2305  2.5454
  243SOL     vw  972   6.224   5.632   0.254 -0.1514 -0.3462  0.0035
  244SOL     ow  973   1.458   4.269   5.377 -0.4743  0.0350  0.3859
  244SOL     hw  974   1.434   4.179   5.397 -0.5509 -0.0112  0.0858
  244SOL     hw  975   1.435   4.281   5.285 -0.5253  0.3816  0.4411
  244SOL     vw  976   1.452   4.259   5.367 -0.4911  0.0749  0.3536
  245SOL     ow  977   3.321   0.251   2.573 -0.5894  0.3749 -0.4774
  245SOL     hw  978   3.400   0.306   2.576  0.4094 -0.9692 -1.0195
  245SOL     hw  979   3.286   0.266   2.485 -0.3250  0.1543 -0.6216
  245SOL     vw  980   3.327   0.261   2.562 -0.4227  0.1685 -0.5679
  246SOL     ow  981   2.856   7.062   3.858  0.2327 -0.1177 -0.0649
  246SOL     hw  982   2.764   7.036   3.855  0.1975 -0.3664  1.7558
  246SOL     hw  983   2.900   7.003   3.797 -0.9515  0.8340 -1.9408
  246SOL     vw  984   2.849   7.051   3.850  0.0719 -0.0248 -0.0722
  247SOL     ow  985   3.018   0.643   2.177  0.0050  0.2483  0.2288
  247SOL     hw  986   3.068   0.561   2.168  0.1251  0.3234  0.1993
  247SOL     hw  987   3.076   0.710   2.139  0.4772  0.5628  1.4603
  247SOL     vw  988   3.032   0.641   2.171  0.0831  0.2997  0.3874
  248SOL     ow  989   6.058   3.811   1.583  0.2866 -0.4176 -0.1882
  248SOL     hw  990   6.026   3.729   1.622  0.2539  0.9688  2.9460
  248SOL     hw  991   6.001   3.825   1.508  0.8158 -3.6222 -1.3669
  248SOL     vw  992   6.046   3.802   1.578  0.3521 -0.6573  0.0699
  249SOL     ow  993   5.592   5.458   1.280  0.2640  0.5463 -0.4441
  249SOL     hw  994   5.671   5.412   1.310  1.0418  0.8003 -1.9828
  249SOL     hw  995   5.566   5.410   1.201  0.5104  2.1061 -1.5183
  249SOL     vw  996   5.599   5.445   1.274  0.3991  0.7856 -0.7888
  250SOL     ow  997   2.137   1.033   6.178 -0.0213  0.6787 -0.0236
  250SOL     hw  998   2.042   1.030   6.184 -0.1117 -0.3241 -1.3908
  250SOL     hw  999   2.155   1.072   6.092  0.8123  1.1147  0.3293
  250SOL     vw 1000   2.127   1.037   6.167  0.0768  0.6039 -0.1578
  251SOL     ow 1001   6.850   2.959   3.501 -0.1842 -0.3663  0.5501
  251SOL     hw 1002   6.761   2.932   3.520 -0.8181  1.3875  0.2865
  251SOL     hw 1003   6.867   3.032   3.561 -0.8290  2.6878 -2.6696
  251SOL     vw 1004   6.841   2.965   3.511 -0.3531  0.2682  0.0906
  252SOL     ow 1005   3.239   0.615   0.590 -0.3135 -0.0086 -0.6017
  252SOL     hw 1006   3.198   0.655   0.667  1.3237  1.1660 -0.2747
  252SOL     hw 1007   3.209   0.668   0.517  0.4084  0.7047 -0.3931
  252SOL     vw 1008   3.230   0.627   0.591 -0.0021  0.2404 -0.5310
  253SOL     ow 1009   4.967   6.147   3.406 -0.5510  0.1596  0.5824
  253SOL     hw 1010   5.048   6.123   3.362  0.1864 -0.1513  2.0659
  253SOL     hw 1011   4.918   6.065   3.414  0.4754 -0.3076  2.6243
  253SOL     vw 1012   4.971   6.133   3.401 -0.3181  0.0570  1.0475
  254SOL     ow 1013   1.237   1.245   2.994  0.0571  0.2129  0.0469
  254SOL     hw 1014   1.332   1.229   2.995  0.0035 -0.1362  1.8955
  254SOL     hw 1015   1.198   1.162   3.019 -0.8113  0.1584 -1.3847
  254SOL     vw 1016   1.245   1.232   2.997 -0.0646  0.1596  0.1020
  255SOL     ow 1017   1.703   5.978   5.979  0.1785  0.9222 -0.2119
  255SOL     hw 1018   1.758   5.950   5.906  0.3952  0.8128 -0.0043
  255SOL     hw 1019   1.709   6.074   5.977  1.9493  0.8752  1.0138
  255SOL     vw 1020   1.711   5.987   5.969  0.4407  0.9017 -0.0226
  256SOL     ow 1021   5.867   0.190   0.178 -0.1306  0.2710 -0.0877
  256SOL     hw 1022   5.898   0.269   0.223 -1.0245 -0.0677  1.2031
  256SOL     hw 1023   5.799   0.221   0.119  0.3300  0.5969 -0.4581
  256SOL     vw 1024   5.862   0.204   0.176 -0.1879  0.2693  0.0338
  257SOL     ow 1025   0.974   5.441   1.333 -0.5423 -0.9821  0.6146
  257SOL     hw 1026   0.991   5.503   1.404 -0.5506 -1.6445  1.2054
  257SOL     hw 1027   0.882   5.418   1.344 -0.6849 -0.6866  0.0596
  257SOL     vw 1028   0.964   5.446   1.344 -0.5622 -1.0304  0.6194
  258SOL     ow 1029   6.359   6.836   1.712 -0.2476  0.5031  0.8850
  258SOL     hw 1030   6.322   6.831   1.800  1.2728  2.9695  1.7817
  258SOL     hw 1031   6.431   6.898   1.720 -0.4544  1.3251 -2.2630
  258SOL     vw 1032   6.364   6.843   1.725 -0.0741  0.9367  0.5880
  259SOL     ow 1033   5.756   0.143   1.149 -1.0407 -0.2508  0.1997
  259SOL     hw 1034   5.808   0.063   1.155  0.0827  0.5046  0.8699
  259SOL     hw 1035   5.724   0.143   1.059  1.1459 -0.1568 -0.6511
  259SOL     vw 1036   5.759   0.132   1.138 -0.6039 -0.1387  0.1758
  260SOL     ow 1037   3.745   5.129   6.608  0.6038  0.1247 -0.1381
  260SOL     hw 1038   3.764   5.151   6.700  1.6985  0.7252 -0.4943
  260SOL     hw 1039   3.826   5.090   6.576 -0.5271 -2.3259 -0.2088
  260SOL     vw 1040   3.758   5.127   6.616  0.5991 -0.1197 -0.1943
  261SOL     ow 1041   6.788   1.759   1.766 -0.1558 -0.2164 -0.8379
  261SOL     hw 1042   6.736   1.747   1.846  0.8225  0.8185 -0.0074
  261SOL     hw 1043   6.724   1.756   1.695 -0.9503 -2.0627 -0.1118
  261SOL     vw 1044   6.773   1.757   1.767 -0.1314 -0.3234 -0.6325
  262SOL     ow 1045   7.140   5.588   6.379 -0.1224  0.2611  0.5589
  262SOL     hw 1046   7.186   5.601   6.297 -3.4377  0.9712 -1.3868
  262SOL     hw 1047   7.105   5.499   6.373  1.6675 -0.6443  2.4320
  262SOL     vw 1048   7.141   5.578   6.368 -0.3235  0.2353  0.5493
  263SOL     ow 1049   6.620   6.756   4.960  0.7499  0.6820 -0.1526
  263SOL     hw 1050   6.593   6.847   4.951  1.7981  1.0157 -0.0830
  263SOL     hw 1051   6.625   6.741   5.054 -2.0723 -0.2979 -0.0768
  263SOL     vw 1052   6.617   6.766   4.971  0.5157  0.5965 -0.1333
  264SOL     ow 1053   5.501   5.036   3.668  0.5096  0.1806  0.5744
  264SOL     hw 1054   5.450   5.117   3.664 -1.0999 -0.8403 -1.3350
  264SOL     hw 1055   5.462   4.987   3.741 -0.7764 -0.2541 -0.3766
  264SOL     vw 1056   5.489   5.040   3.677  0.1276 -0.0114  0.1971
  265SOL     ow 1057   1.738   5.029   6.158  0.8549 -0.7208 -0.0433
  265SOL     hw 1058   1.728   5.124   6.146  1.2280 -0.2507  2.6579
  265SOL     hw 1059   1.655   4.992   6.130 -0.6601  0.8343  2.0660
  265SOL     vw 1060   1.726   5.037   6.153  0.7042 -0.4535  0.5913
  266SOL     ow 1061   4.893   6.306   7.134 -1.0884  0.5601  0.0688
  266SOL     hw 1062   4.851   6.389   7.157 -2.3810 -0.1296  0.2959
  266SOL     hw 1063   4.821   6.243   7.129  0.0140 -0.9013  1.4688
  266SOL     vw 1064   4.878   6.308   7.136 -1.1134  0.2761  0.2835
  267SOL     ow 1065   3.485   3.961   2.067 -0.2314 -1.0818 -0.0828
  267SOL     hw 1066   3.539   3.937   2.143 -0.8524 -0.8971  0.4325
  267SOL     hw 1067   3.414   4.013   2.104  0.3891  0.4849 -1.0269
  267SOL     vw 1068   3.483   3.965   2.082 -0.2316 -0.8507 -0.1395
  268SOL     ow 1069   3.290   5.994   2.841 -0.1132  0.1133 -0.3205
  268SOL     hw 1070   3.355   6.034   2.898 -0.3704  0.9143 -0.5802
  268SOL     hw 1071   3.206   6.028   2.871 -0.1118  2.4233 -2.5964
  268SOL     vw 1072   3.287   6.004   2.852 -0.1469  0.5236 -0.6549
  269SOL     ow 1073   5.384   2.088   1.871 -0.4971 -0.0478 -0.0886
  269SOL     hw 1074   5.420   2.097   1.783  0.0033  3.2714  0.3271
  269SOL     hw 1075   5.440   2.143   1.926 -0.4172 -2.4853  2.4909
  269SOL     vw 1076   5.396   2.097   1.866 -0.4206  0.0685  0.3065
  270SOL     ow 1077   6.057   5.201   6.280 -0.2238 -0.2327  0.0447
  270SOL     hw 1078   5.981   5.248   6.313 -0.5837  0.1907 -1.3309
  270SOL     hw 1079   6.124   5.214   6.347 -0.1299  2.7287 -0.4968
  270SOL     vw 1080   6.056   5.209   6.293 -0.2589  0.2136 -0.2081
  271SOL     ow 1081   4.935   3.093   3.741  0.6209 -0.4619 -0.7440
  271SOL     hw 1082   4.946   3.133   3.655  0.5108  0.3024 -0.4166
  271SOL     hw 1083   4.858   3.037   3.732  1.5764 -1.7037 -1.5874
  271SOL     vw 1084   4.926   3.091   3.729  0.7327 -0.5250 -0.8122
  272SOL     ow 1085   3.244   0.561   2.995 -0.1324 -0.1006  0.4843
  272SOL     hw 1086   3.283   0.646   2.973  0.3543 -0.6491 -0.8255
  272SOL     hw 1087   3.218   0.570   3.087  0.1707  1.3659  0.4470
  272SOL     vw 1088   3.246   0.574   3.004 -0.0281  0.0205  0.3066
  273SOL     ow 1089   0.137   7.144   7.185 -0.2848 -0.5109 -0.0164
  273SOL     hw 1090   0.217   7.092   7.199  0.2298  0.2327 -0.1398
  273SOL     hw 1091   0.167   7.235   7.183 -1.0449 -0.2621 -0.7390
  273SOL     vw 1092   0.152   7.149   7.186 -0.3172 -0.3800 -0.1278
  274SOL     ow 1093   5.489   5.945   1.413 -0.5140 -0.5671 -0.4639
  274SOL     hw 1094   5.403   5.973   1.382 -1.7807  1.7944  4.2888
  274SOL     hw 1095   5.551   6.006   1.373 -1.3707 -0.4585 -1.6775
  274SOL     vw 1096   5.486   5.957   1.404 -0.7939 -0.2410  0.0030
  275SOL     ow 1097   0.990   6.029   4.938  0.0468 -0.0878 -0.0322
  275SOL     hw 1098   1.028   6.114   4.917 -0.3102  0.2218  0.5617
  275SOL     hw 1099   1.065   5.975   4.965  0.1900  0.2210  0.1895
  275SOL     vw 1100   1.005   6.033   4.938  0.0187 -0.0060  0.0753
  276SOL     ow 1101   7.129   1.071   2.475  0.3438  0.1462  0.1039
  276SOL     hw 1102   7.056   1.008   2.475  1.7601 -1.5837  0.8767
  276SOL     hw 1103   7.194   1.033   2.416  0.7599  1.5241 -0.3611
  276SOL     vw 1104   7.128   1.057   2.467  0.5853  0.0998  0.1445
  277SOL     ow 1105   0.195   0.572   6.693 -0.7218  0.1811  0.1064
  277SOL     hw 1106   0.181   0.497   6.752 -0.8311 -0.3762 -0.6107
  277SOL     hw 1107   0.284   0.558   6.659 -0.5370  0.6762  0.3790
  277SOL     vw 1108   0.205   0.560   6.696 -0.7118  0.1729  0.0479
  278SOL     ow 1109   0.816   0.556   4.078  0.2414 -0.2592  0.1925
  278SOL     hw 1110   0.859   0.474   4.056  0.8697  0.4503 -1.4097
  278SOL     hw 1111   0.754   0.571   4.006  1.0213  1.2515 -0.2203
  278SOL     vw 1112   0.814   0.547   4.065  0.4272  0.0337 -0.0732
  279SOL     ow 1113   3.310   3.894   3.096  0.4022 -0.4184  0.2281
  279SOL     hw 1114   3.227   3.868   3.056 -0.5479  0.4841  1.5455
  279SOL     hw 1115   3.350   3.952   3.032  0.8311 -2.1488 -1.1460
  279SOL     vw 1116   3.304   3.898   3.082  0.3334 -0.5277  0.2205
  280SOL     ow 1117   1.671   0.157   4.883  0.2479 -0.2526  0.5608
  280SOL     hw 1118   1.693   0.236   4.834 -0.2941 -0.0541  0.6281
  280SOL     hw 1119   1.614   0.188   4.954 -2.6497 -1.0559 -1.2379
  280SOL     vw 1120   1.666   0.171   4.886 -0.2059 -0.3324  0.3324
  281SOL     ow 1121   4.810   0.784   3.241 -0.2470  0.5256 -0.0069
  281SOL     hw 1122   4.734   0.841   3.237 -1.4373 -1.0492 -1.0350
  281SOL     hw 1123   4.774   0.695   3.242  1.5609 -0.2788 -0.7587
  281SOL     vw 1124   4.796   0.780   3.241 -0.1652  0.2117 -0.2419
  282SOL     ow 1125   1.051   7.347   6.323  0.0805 -0.1120  0.1369
  282SOL     hw 1126   1.041   7.435   6.286  1.2655  0.4804  1.1700
  282SOL     hw 1127   1.052   7.289   6.247  2.7076  1.0954 -0.8628
  282SOL     vw 1128   1.050   7.351   6.308  0.5835  0.1255  0.1411
  283SOL     ow 1129   5.898   3.657   3.057 -0.7143 -0.6083  0.1743
  283SOL     hw 1130   5.906   3.666   3.152 -0.5498  0.0809  0.1035
  283SOL     hw 1131   5.806   3.638   3.043 -0.5604 -1.6710  0.5329
  283SOL     vw 1132   5.887   3.656   3.068 -0.6723 -0.6574  0.2123
  284SOL     ow 1133   1.091   5.619   5.894 -0.2636 -0.3499 -0.2453
  284SOL     hw 1134   1.186   5.624   5.885 -0.2865 -0.9366 -0.9604
  284SOL     hw 1135   1.077   5.568   5.974  0.0419 -0.8560 -0.5035
  284SOL     vw 1136   1.101   5.613   5.903 -0.2263 -0.4940 -0.3741
  285SOL     ow 1137   4.544   1.864   1.542 -0.1659  0.0316 -0.1423
  285SOL     hw 1138   4.628   1.839   1.502 -0.6708 -0.6271 -0.8241
  285SOL     hw 1139   4.480   1.807   1.499 -0.8318 -0.1540  1.0758
  285SOL     vw 1140   4.547   1.853   1.531 -0.3204 -0.0797 -0.0715
  286SOL     ow 1141   6.453   3.472   5.367 -0.4505  0.6047 -0.7948
  286SOL     hw 1142   6.532   3.486   5.419 -1.2224  0.3896  0.4791
  286SOL     hw 1143   6.387   3.446   5.431 -0.2475 -4.7568 -2.3387
  286SOL     vw 1144   6.455   3.471   5.382 -0.5257 -0.1310 -0.8307
  287SOL     ow 1145   0.807   1.410   5.076 -0.6601 -0.8572 -0.5306
  287SOL     hw 1146   0.753   1.332   5.088  0.4013 -1.3238  1.7241
  287SOL     hw 1147   0.785   1.466   5.150 -0.1974  0.2628 -1.2231
  287SOL     vw 1148   0.797   1.407   5.087 -0.4590 -0.7710 -0.3245
  288SOL     ow 1149   3.429   7.265   3.544 -0.2356 -0.0906 -0.0645
  288SOL     hw 1150   3.407   7.223   3.461 -1.3122 -1.6631  0.9570
  288SOL     hw 1151   3.495   7.209   3.583  0.8248  1.0562 -0.1624
  288SOL     vw 1152   3.435   7.252   3.538 -0.2378 -0.1466  0.0573
  289SOL     ow 1153   4.313   1.631   1.604 -0.0465 -0.0221  0.8323
  289SOL     hw 1154   4.370   1.577   1.659 -0.1677  0.1509  1.1270
  289SOL     hw 1155   4.279   1.698   1.663  3.3824  3.0541 -0.2359
  289SOL     vw 1156   4.316   1.633   1.619  0.3901  0.4066  0.7303
  290SOL     ow 1157   1.591   4.743   5.649  0.2593 -0.6780 -0.0992
  290SOL     hw 1158   1.559   4.779   5.567 -0.2748 -2.5679 -0.7671
  290SOL     hw 1159   1.685   4.759   5.647 -0.0564  1.4216  0.0650
  290SOL     vw 1160   1.599   4.750   5.638  0.1472 -0.6502 -0.1655
  291SOL     ow 1161   6.142   4.015   3.020  0.3624 -0.0896  0.0303
  291SOL     hw 1162   6.159   3.935   3.070  2.3234  2.4223  3.8782
  291SOL     hw 1163   6.047   4.024   3.022  0.0888 -2.2301 -0.4717
  291SOL     vw 1164   6.132   4.005   3.027  0.5851 -0.0408  0.4718
  292SOL     ow 1165   6.273   1.768   3.015  0.2999 -0.0720  0.2388
  292SOL     hw 1166   6.245   1.796   2.928 -0.2583 -0.7409  0.2008
  292SOL     hw 1167   6.344   1.706   2.998  1.5195  1.2422  0.3229
  292SOL     vw 1168   6.279   1.764   3.001  0.3872  0.0131  0.2450
  293SOL     ow 1169   0.014   6.287   3.050  0.1120 -0.2050 -0.8056
  293SOL     hw 1170   0.041   6.294   2.958  0.2158 -1.0020 -0.8433
  293SOL     hw 1171  -0.078   6.260   3.046 -0.0584  0.3507 -0.6743
  293SOL     vw 1172   0.005   6.284   3.037  0.1032 -0.2367 -0.7933
  294SOL     ow 1173   5.492   2.467   6.416  0.0257  0.3762  0.7028
  294SOL     hw 1174   5.491   2.560   6.392  0.4838  0.3291  0.4846
  294SOL     hw 1175   5.428   2.426   6.358  0.0791  0.4997  0.5576
  294SOL     vw 1176   5.483   2.474   6.405  0.0935  0.3864  0.6549
  295SOL     ow 1177   6.040   2.974   6.325  1.0561 -0.0881  0.8154
  295SOL     hw 1178   6.130   2.985   6.294  0.2429  1.1297 -1.3391
  295SOL     hw 1179   6.027   3.047   6.385  1.3541  0.0456  0.7219
  295SOL     vw 1180   6.050   2.985   6.329  0.9882  0.0902  0.5186
  296SOL     ow 1181   3.155   3.295   4.375  0.0999 -0.2362 -0.6576
  296SOL     hw 1182   3.216   3.252   4.315  0.3918 -0.4613 -0.2062
  296SOL     hw 1183   3.078   3.313   4.321 -0.3058 -1.9478 -0.7201
  296SOL     vw 1184   3.153   3.292   4.360  0.0849 -0.4917 -0.6065
  297SOL     ow 1185   3.521   6.693   0.233  0.8043 -0.0172 -0.9484
  297SOL     hw 1186   3.611   6.681   0.205  0.4949 -0.2784 -1.8617
  297SOL     hw 1187   3.479   6.608   0.215 -0.1316  0.7447 -2.5527
  297SOL     vw 1188   3.527   6.680   0.227  0.6402  0.0489 -1.2806
  298SOL     ow 1189   5.024   1.744   2.106 -1.0926  0.2063 -0.0656
  298SOL     hw 1190   5.027   1.680   2.177 -0.7728  0.9631  0.6208
  298SOL     hw 1191   4.932   1.745   2.079 -1.1228 -0.4573 -0.0049
  298SOL     vw 1192   5.012   1.736   2.112 -1.0543  0.2186  0.0329
  299SOL     ow 1193   2.160   3.461   2.358 -0.0664 -0.1858 -0.0071
  299SOL     hw 1194   2.101   3.414   2.299 -1.4270  1.9224 -0.4213
  299SOL     hw 1195   2.245   3.457   2.314 -0.6634 -0.2171 -1.1931
  299SOL     vw 1196   2.164   3.454   2.345 -0.3246  0.0883 -0.2183
  300SOL     ow 1197   2.071   7.241   2.501 -0.0487  0.1419 -0.6876
  300SOL     hw 1198   1.976   7.238   2.486  0.0628 -3.5376 -1.5201
  300SOL     hw 1199   2.079   7.254   2.595 -1.3695  0.6389 -0.6131
  300SOL     vw 1200   2.059   7.243   2.511 -0.2084 -0.2780 -0.7875
  301SOL     ow 1201   1.016   3.989   4.565  0.7858  0.7367  0.2449
  301SOL     hw 1202   0.939   4.041   4.544 -0.3907 -0.2878  1.8061
  301SOL     hw 1203   1.032   3.937   4.487 -4.4722 -4.2261  1.7843
  301SOL     vw 1204   1.008   3.989   4.552 -0.0631 -0.0533  0.6540
  302SOL     ow 1205   3.907   4.312   4.310 -0.8678 -0.0020  0.0286
  302SOL     hw 1206   3.964   4.265   4.249 -1.0345 -0.7131  0.4122
  302SOL     hw 1207   3.966   4.362   4.366 -0.6950  0.3476 -0.4603
  302SOL     vw 1208   3.922   4.312   4.309 -0.8670 -0.0501  0.0145
  303SOL     ow 1209   2.555   2.139   3.527 -0.3037 -0.5256 -0.6593
  303SOL     hw 1210   2.564   2.118   3.620  0.4763  0.8766 -0.3912
  303SOL     hw 1211   2.468   2.177   3.520  0.0909  0.4771 -0.2609
  303SOL     vw 1212   2.545   2.141   3.538 -0.1488 -0.2084 -0.5713
  304SOL     ow 1213   0.030   4.935   1.485  0.3158  0.0818 -0.1140
  304SOL     hw 1214   0.070   4.943   1.572 -0.3728 -1.7275  0.4167
  304SOL     hw 1215   0.092   4.880   1.436  0.2070  0.2474 -0.4360
  304SOL     vw 1216   0.044   4.929   1.490  0.2106 -0.1349 -0.0865
  305SOL     ow 1217   4.584   1.571   7.326  0.2132 -0.6265  0.5671
  305SOL     hw 1218   4.500   1.536   7.358  0.3930  1.3305  3.5721
  305SOL     hw 1219   4.564   1.660   7.299  1.2133 -0.3290  0.7683
  305SOL     vw 1220   4.570   1.578   7.327  0.3688 -0.3290  0.9901
  306SOL     ow 1221   4.780   1.592   0.218  0.1498 -0.2663 -0.6194
  306SOL     hw 1222   4.791   1.547   0.301  0.7739 -1.2231 -1.2049
  306SOL     hw 1223   4.796   1.684   0.238 -0.3293 -0.3970  0.4333
  306SOL     vw 1224   4.783   1.598   0.231  0.1688 -0.4098 -0.5578
  307SOL     ow 1225   2.016   0.663   1.428  0.2720 -0.2256 -0.4751
  307SOL     hw 1226   1.975   0.658   1.341 -0.7584 -1.7245  0.0544
  307SOL     hw 1227   2.102   0.622   1.415  0.0806 -0.5432 -0.7704
  307SOL     vw 1228   2.022   0.657   1.415  0.1106 -0.4652 -0.4442
  308SOL     ow 1229   4.889   7.261   1.462  0.1171  0.3574  0.0373
  308SOL     hw 1230   4.967   7.213   1.434  0.2128 -0.2747  1.3006
  308SOL     hw 1231   4.817   7.198   1.451  0.0084  0.4465  0.2256
  308SOL     vw 1232   4.890   7.246   1.457  0.1152  0.2859  0.2288
  309SOL     ow 1233   3.702   0.595   4.590  0.0163  0.7595  0.2185
  309SOL     hw 1234   3.670   0.591   4.680  0.1212  1.4745  0.2962
  309SOL     hw 1235   3.641   0.540   4.540 -0.0468  0.3675  0.7235
  309SOL     vw 1236   3.690   0.587   4.595  0.0217  0.8021  0.2952
  310SOL     ow 1237   7.194   3.439   5.540 -0.1030 -0.4438 -0.0595
  310SOL     hw 1238   7.196   3.534   5.535 -0.9763 -0.4885 -1.7884
  310SOL     hw 1239   7.105   3.418   5.568  0.8720 -0.7277  3.2772
  310SOL     vw 1240   7.183   3.448   5.543 -0.0894 -0.4872  0.1526
  311SOL     ow 1241   1.251   2.526   4.172 -0.9663  0.2871  0.1689
  311SOL     hw 1242   1.164   2.489   4.185 -0.4754 -1.5034 -1.2427
  311SOL     hw 1243   1.249   2.560   4.083  0.0989 -0.7947 -0.2921
  311SOL     vw 1244   1.239   2.526   4.162 -0.7610 -0.0920 -0.0780
  312SOL     ow 1245   2.933   4.829   4.464  0.5309  0.0839  0.4282
  312SOL     hw 1246   2.856   4.772   4.473 -0.8933  1.7995 -0.1347
  312SOL     hw 1247   2.904   4.897   4.402  2.5282  0.7764  0.2002
  312SOL     vw 1248   2.919   4.830   4.457  0.6064  0.4015  0.3240
  313SOL     ow 1249   7.318   4.600   3.883 -0.7577 -0.2879 -0.1616
  313SOL     hw 1250   7.241   4.651   3.858  0.5006  1.8404  0.0779
  313SOL     hw 1251   7.285   4.539   3.949 -2.1789  0.7930  0.1891
  313SOL     vw 1252   7.303   4.599   3.888 -0.7792  0.1354 -0.0834
  314SOL     ow 1253   3.855   6.562   0.791 -0.4149 -0.1915 -0.1824
  314SOL     hw 1254   3.934   6.544   0.740 -0.6184  1.3191 -1.0968
  314SOL     hw 1255   3.861   6.503   0.866  1.5601 -0.1297 -0.2382
  314SOL     vw 1256   3.866   6.552   0.794 -0.1812  0.0160 -0.3104
  315SOL     ow 1257   2.816   3.180   1.786  0.2127 -0.3962 -0.3450
  315SOL     hw 1258   2.880   3.232   1.835 -1.6994 -0.8365  2.8564
  315SOL     hw 1259   2.866   3.145   1.712  2.9174  1.5493  0.3978
  315SOL     vw 1260   2.831   3.182   1.782  0.3173 -0.1976  0.1754
  316SOL     ow 1261   3.781   0.524   5.309 -0.5687 -0.3368 -0.1009
  316SOL     hw 1262   3.754   0.614   5.292  1.4781  0.4941  0.8144
  316SOL     hw 1263   3.866   0.515   5.267  0.6645 -0.8614  2.3340
  316SOL     vw 1264   3.789   0.534   5.301 -0.1360 -0.2964  0.3412
  317SOL     ow 1265   7.357   4.310   3.458  0.6498  0.1376  0.4725
  317SOL     hw 1266   7.325   4.388   3.412  1.9024  0.9041  0.8375
  317SOL     hw 1267   7.280   4.273   3.500 -0.0711  0.8448 -0.1967
  317SOL     vw 1268   7.343   4.315   3.457  0.7203  0.3319  0.4324
  318SOL     ow 1269   5.509   0.044   1.284  0.3302 -0.7705 -1.1490
  318SOL     hw 1270   5.534  -0.040   1.247 -0.1703 -0.7294 -1.5882
  318SOL     hw 1271   5.576   0.105   1.255  0.5370 -0.9600 -1.0678
  318SOL     vw 1272   5.521   0.041   1.275  0.2913 -0.7901 -1.1962
  319SOL     ow 1273   4.015   5.032   6.518  0.1338 -0.1085  0.9599
  319SOL     hw 1274   4.047   5.056   6.605 -3.6088  0.7648  2.3095
  319SOL     hw 1275   4.033   5.107   6.463  3.5606 -1.1000  0.5332
  319SOL     vw 1276   4.021   5.045   6.522  0.0923 -0.1240  1.0817
  320SOL     ow 1277   6.332   2.093   0.107  0.1936  0.3161 -0.4683
  320SOL     hw 1278   6.258   2.086   0.167  0.6684  0.1110  0.1036
  320SOL     hw 1279   6.327   2.182   0.072 -0.2893  0.3186 -0.4060
  320SOL     vw 1280   6.321   2.104   0.110  0.1926  0.2894 -0.3846
  321SOL     ow 1281   3.193   4.306   4.373  0.4985 -0.2541  0.1225
  321SOL     hw 1282   3.243   4.300   4.291 -2.2528  1.5942 -1.8875
  321SOL     hw 1283   3.242   4.253   4.435  1.7593 -3.4611 -3.2080
  321SOL     vw 1284   3.206   4.298   4.370  0.3018 -0.4332 -0.5822
  322SOL     ow 1285   0.020   1.828   0.319 -0.1952 -0.1906  0.0261
  322SOL     hw 1286   0.006   1.884   0.395  1.9774 -2.1234  2.0276
  322SOL     hw 1287  -0.063   1.831   0.271 -0.9738  2.6765  1.3481
  322SOL     vw 1288   0.007   1.836   0.322 -0.0113 -0.0673  0.4646
  323SOL     ow 1289   4.736   3.825   0.063 -0.6376  0.2175 -0.1047
  323SOL     hw 1290   4.701   3.754   0.009  0.2248 -0.0693 -0.3003
  323SOL     hw 1291   4.667   3.844   0.125  0.1470 -2.8241  1.9179
  323SOL     vw 1292   4.722   3.818   0.064 -0.4203 -0.2216  0.1363
  324SOL     ow 1293   6.865   5.524   4.141  0.1276  0.2188 -1.5938
  324SOL     hw 1294   6.930   5.494   4.077  1.8036 -1.9490  0.9630
  324SOL     hw 1295   6.810   5.448   4.157 -0.0331  0.6140 -0.1740
  324SOL     vw 1296   6.866   5.510   4.134  0.3276 -0.0148 -1.0688
  325SOL     ow 1297   5.229   5.623   1.712  0.7348  0.5694 -0.7639
  325SOL     hw 1298   5.163   5.692   1.713 -0.0365 -0.0810  1.3658
  325SOL     hw 1299   5.178   5.542   1.703  1.3875  0.1552 -0.8033
  325SOL     vw 1300   5.214   5.621   1.711  0.7188  0.4289 -0.4882
  326SOL     ow 1301   4.763   0.166   5.724  0.3658 -0.0638  0.0397
  326SOL     hw 1302   4.750   0.134   5.813  1.3900 -0.8446 -0.0687
  326SOL     hw 1303   4.858   0.159   5.710  0.0337 -1.7672 -1.7554
  326SOL     vw 1304   4.774   0.161   5.734  0.4570 -0.3915 -0.2115
  327SOL     ow 1305   5.931   6.369   6.755 -0.1707 -0.0583 -0.1266
  327SOL     hw 1306   6.021   6.398   6.749  0.2404 -0.8877  1.3422
  327SOL     hw 1307   5.934   6.294   6.816 -2.0675  1.0558  1.4720
  327SOL     vw 1308   5.943   6.363   6.762 -0.3669 -0.0205  0.2780
  328SOL     ow 1309   5.043   0.948   3.243 -0.3949  0.2606 -0.5701
  328SOL     hw 1310   5.060   0.884   3.312 -0.0502 -1.6516 -2.3103
  328SOL     hw 1311   5.127   0.990   3.228 -0.2060 -0.1123 -0.5666
  328SOL     vw 1312   5.056   0.945   3.250 -0.3247 -0.0409 -0.7993
  329SOL     ow 1313   0.011   4.128   3.146  0.2165 -0.0623  0.0516
  329SOL     hw 1314   0.026   4.044   3.101 -0.3422  0.6193 -1.4853
  329SOL     hw 1315  -0.061   4.168   3.097  1.7790  2.1941 -0.5447
  329SOL     vw 1316   0.003   4.122   3.133  0.3490  0.3252 -0.2300
  330SOL     ow 1317   0.254   2.386   7.326  0.2640  0.3340  0.3153
  330SOL     hw 1318   0.257   2.425   7.240 -2.8547  0.0186 -0.0656
  330SOL     hw 1319   0.332   2.330   7.331  1.1658  1.3461 -1.7499
  330SOL     vw 1320   0.265   2.383   7.316 -0.0285  0.4259 -0.0074
  331SOL     ow 1321   5.350   1.602   0.691 -0.6058  0.3240  0.2577
  331SOL     hw 1322   5.409   1.532   0.721  0.0770  1.0429  0.6309
  331SOL     hw 1323   5.274   1.595   0.749 -0.5855 -0.1677  0.2317
  331SOL     vw 1324   5.348   1.592   0.703 -0.5131  0.3540  0.3035
  332SOL     ow 1325   0.087   2.669   5.010  0.1470  0.3001  0.4136
  332SOL     hw 1326   0.150   2.600   5.032  1.8147  0.9768 -1.8159
  332SOL     hw 1327   0.114   2.744   5.063  0.7334  0.3324  0.0819
  332SOL     vw 1328   0.099   2.670   5.020  0.4444  0.3937  0.0756
  333SOL     ow 1329   1.989   3.498   0.534 -0.3527 -0.0190  0.2618
  333SOL     hw 1330   1.978   3.566   0.600  1.3811 -0.1569  0.7474
  333SOL     hw 1331   1.976   3.543   0.450  1.2894  1.0559  0.5541
  333SOL     vw 1332   1.986   3.513   0.531  0.0926  0.1047  0.3644
  334SOL     ow 1333   6.541   5.364   3.693  0.6017  0.4420  0.1039
  334SOL     hw 1334   6.506   5.282   3.659 -0.0488  0.9889 -0.5720
  334SOL     hw 1335   6.499   5.374   3.779 -0.1353  0.5902 -0.2691
  334SOL     vw 1336   6.531   5.355   3.700  0.4184  0.5336 -0.0346
  335SOL     ow 1337   6.622   4.610   3.370 -0.9116 -0.7600  0.0220
  335SOL     hw 1338   6.716   4.599   3.377 -0.5939  1.5364  0.2186
  335SOL     hw 1339   6.611   4.687   3.314 -2.4335  1.7166  3.3213
  335SOL     vw 1340   6.633   4.619   3.364 -1.0703 -0.1302  0.4834
  336SOL     ow 1341   4.325   1.390   2.823 -0.1091 -0.0573 -0.0022
  336SOL     hw 1342   4.389   1.459   2.840 -1.9266  1.5229  0.8842
  336SOL     hw 1343   4.243   1.437   2.808 -1.6309 -2.0315  1.5518
  336SOL     vw 1344   4.323   1.405   2.823 -0.5496 -0.1093  0.3197
  337SOL     ow 1345   0.485   1.336   6.855 -0.0941 -0.4238 -0.5336
  337SOL     hw 1346   0.567   1.288   6.851 -0.8201 -1.7606 -0.0014
  337SOL     hw 1347   0.471   1.351   6.949  0.4053  1.3857 -0.7089
  337SOL     vw 1348   0.494   1.332   6.867 -0.1240 -0.3614 -0.4864
  338SOL     ow 1349   1.649   1.536   1.756 -0.3254  0.3570 -0.6010
  338SOL     hw 1350   1.630   1.586   1.835  1.3419  0.8629 -0.4763
  338SOL     hw 1351   1.563   1.524   1.714 -1.8915 -2.9912  2.9304
  338SOL     vw 1352   1.635   1.541   1.761 -0.3120 -0.0180 -0.1186
  339SOL     ow 1353   5.927   7.315   1.234  0.2047 -0.2703  0.6585
  339SOL     hw 1354   5.935   7.290   1.142 -0.9231  0.3068  0.3905
  339SOL     hw 1355   5.876   7.245   1.274 -0.0987 -0.0630  0.6372
  339SOL     vw 1356   5.922   7.302   1.227  0.0157 -0.1668  0.6203
  340SOL     ow 1357   1.111   2.541   6.089 -0.3465  0.0801  0.2813
  340SOL     hw 1358   1.169   2.550   6.164 -1.9851  2.1139  1.4114
  340SOL     hw 1359   1.160   2.577   6.016  0.0917  1.1478  1.0756
  340SOL     vw 1360   1.125   2.547   6.089 -0.5049  0.4892  0.5355
  341SOL     ow 1361   1.920   5.426   4.298  0.2043  0.6985  0.5137
  341SOL     hw 1362   1.881   5.513   4.309 -2.8472 -0.2683 -1.2936
  341SOL     hw 1363   1.915   5.410   4.203  3.4419 -0.3568  0.4009
  341SOL     vw 1364   1.914   5.435   4.287  0.2289  0.4315  0.2606
  342SOL     ow 1365   2.457   1.632   1.312 -0.5803 -0.0743  0.2151
  342SOL     hw 1366   2.463   1.564   1.379 -0.8500 -1.3105 -0.9721
  342SOL     hw 1367   2.425   1.586   1.234  1.3932  0.9488 -1.2747
  342SOL     vw 1368   2.454   1.617   1.310 -0.3556 -0.1023 -0.1380
  343SOL     ow 1369   6.581   1.979   0.123 -0.5451  0.1814 -0.5865
  343SOL     hw 1370   6.490   2.008   0.113  0.1227  2.1436 -1.5048
  343SOL     hw 1371   6.633   2.057   0.104  1.3350 -0.7729  0.4154
  343SOL     vw 1372   6.576   1.993   0.119 -0.2086  0.3145 -0.5755
  344SOL     ow 1373   6.236   6.700   0.468 -0.2630  0.0064 -0.2254
  344SOL     hw 1374   6.330   6.716   0.472 -0.3048  0.1094  0.6988
  344SOL     hw 1375   6.220   6.671   0.378  0.6125  0.1950 -0.4538
  344SOL     vw 1376   6.246   6.698   0.457 -0.1528  0.0448 -0.1336
  345SOL     ow 1377   1.444   3.073   1.024 -0.8179 -0.3854  0.4477
  345SOL     hw 1378   1.392   3.013   1.078  0.3988 -2.2119 -0.3158
  345SOL     hw 1379   1.386   3.096   0.951 -2.8442  2.8696  2.7724
  345SOL     vw 1380   1.429   3.068   1.022 -0.9246 -0.1967  0.6537
  346SOL     ow 1381   4.872   4.286   3.436  0.2681  0.5935 -0.8339
  346SOL     hw 1382   4.874   4.382   3.432 -4.9744  0.9870 -0.6437
  346SOL     hw 1383   4.899   4.265   3.525  1.6275  1.8298 -0.9167
  346SOL     vw 1384   4.876   4.296   3.447 -0.2441  0.8085 -0.8198
  347SOL     ow 1385   1.562   6.109   4.965 -0.0007  0.1989 -0.2135
  347SOL     hw 1386   1.544   6.128   5.057 -0.8524 -0.6576 -0.1820
  347SOL     hw 1387   1.657   6.115   4.957 -0.0595  2.3581  0.2200
  347SOL     vw 1388   1.572   6.112   4.976 -0.1209  0.3710 -0.1521
  348SOL     ow 1389   4.206   7.057   4.419  0.2226  0.6011 -0.3203
  348SOL     hw 1390   4.283   7.107   4.443 -0.9070  1.2299  2.4391
  348SOL     hw 1391   4.221   6.970   4.457  0.2004  0.2543 -1.0868
  348SOL     vw 1392   4.218   7.052   4.427  0.0706  0.6382 -0.0575
  349SOL     ow 1393   5.464   0.091   2.054  0.1168  0.2339  0.6086
  349SOL     hw 1394   5.404   0.119   2.123 -0.1437 -1.0744  0.9480
  349SOL     hw 1395   5.431   0.133   1.974 -2.4604 -1.9034  0.4065
  349SOL     vw 1396   5.451   0.100   2.052 -0.2575 -0.2207  0.6267
  350SOL     ow 1397   1.421   2.069   3.015 -0.0608  0.6026 -0.0588
  350SOL     hw 1398   1.465   2.145   2.977 -0.4501  0.7728 -0.1782
  350SOL     hw 1399   1.491   2.016   3.053  0.2938  0.6279 -0.6710
  350SOL     vw 1400   1.436   2.072   3.015 -0.0654  0.6284 -0.1554
  351SOL     ow 1401   0.618   6.530   7.217  0.8720  0.0612 -0.2415
  351SOL     hw 1402   0.629   6.583   7.138 -0.0068 -0.1505 -0.5103
  351SOL     hw 1403   0.604   6.593   7.286  0.9056  0.2179 -0.3770
  351SOL     vw 1404   0.618   6.545   7.215  0.7604  0.0541 -0.2949
  352SOL     ow 1405   1.323   6.128   7.344  0.0702  0.0061 -0.3332
  352SOL     hw 1406   1.395   6.175   7.386 -0.1364  0.0977 -0.0766
  352SOL     hw 1407   1.354   6.112   7.255  1.3464 -1.9413  0.3806
  352SOL     vw 1408   1.337   6.132   7.338  0.2114 -0.2389 -0.2050
  353SOL     ow 1409   0.773   3.788   2.553 -0.1013 -0.6687 -0.2813
  353SOL     hw 1410   0.812   3.864   2.509  0.5124 -1.4082 -1.0215
  353SOL     hw 1411   0.822   3.780   2.635  1.9469 -2.0892 -1.5583
  353SOL     vw 1412   0.785   3.797   2.558  0.2499 -0.9538 -0.5475
  354SOL     ow 1413   0.973   4.086   4.878 -0.0863 -0.5614  0.2501
  354SOL     hw 1414   0.995   4.176   4.901 -0.6433  0.3931 -2.5786
  354SOL     hw 1415   0.887   4.071   4.918  0.0148  0.1331  0.7459
  354SOL     vw 1416   0.964   4.096   4.886 -0.1464 -0.3436 -0.0577
  355SOL     ow 1417   2.227   1.160   6.574 -0.2328  0.4335 -0.2224
  355SOL     hw 1418   2.286   1.090   6.547 -1.0470 -1.3323  2.1778
  355SOL     hw 1419   2.140   1.122   6.564 -0.9460  2.2942 -1.8217
  355SOL     vw 1420   2.223   1.145   6.569 -0.4343  0.4460 -0.1166
  356SOL     ow 1421   0.854   5.904   5.197 -0.6880 -0.1133  0.0889
  356SOL     hw 1422   0.897   5.820   5.181 -1.8430 -0.4229 -1.6374
  356SOL     hw 1423   0.771   5.880   5.239 -0.8635  0.1938 -0.0833
  356SOL     vw 1424   0.848   5.890   5.201 -0.8636 -0.1135 -0.1614
  357SOL     ow 1425   0.621   6.924   5.156 -0.0668  0.3818  0.8309
  357SOL     hw 1426   0.687   6.993   5.164 -2.9220  3.4361  0.2677
  357SOL     hw 1427   0.625   6.897   5.064 -0.6590  1.8436  0.3381
  357SOL     vw 1428   0.630   6.930   5.145 -0.5217  0.9775  0.6914
  358SOL     ow 1429   6.145   0.398   2.821 -0.4733 -0.4249 -0.3959
  358SOL     hw 1430   6.193   0.336   2.875 -2.4864 -1.4466  0.2937
  358SOL     hw 1431   6.168   0.374   2.731  2.3139  0.8250 -0.1306
  358SOL     vw 1432   6.155   0.387   2.816 -0.3712 -0.3948 -0.2700
  359SOL     ow 1433   1.235   1.532   6.116 -0.1752 -0.2793 -0.2301
  359SOL     hw 1434   1.153   1.573   6.141 -0.3665 -0.2230 -0.9311
  359SOL     hw 1435   1.285   1.526   6.197  0.1149  1.8825 -0.1996
  359SOL     vw 1436   1.231   1.536   6.130 -0.1622  0.0134 -0.3185
  360SOL     ow 1437   6.237   1.069   3.320  0.1193 -0.3285  0.5707
  360SOL     hw 1438   6.316   1.119   3.301 -0.3189  0.8065  1.6953
  360SOL     hw 1439   6.219   1.085   3.412 -0.5344 -1.8692  0.7440
  360SOL     vw 1440   6.245   1.077   3.329 -0.0250 -0.3820  0.7420
  361SOL     ow 1441   5.287   0.707   5.035  0.3257  0.1507 -0.0367
  361SOL     hw 1442   5.260   0.637   4.977 -0.8283 -0.0246  0.6846
  361SOL     hw 1443   5.364   0.673   5.080  1.1608  0.2490 -1.3486
  361SOL     vw 1444   5.294   0.693   5.033  0.2837  0.1405 -0.1149
  362SOL     ow 1445   0.783   7.149   5.159  0.3535 -0.3682  0.4846
  362SOL     hw 1446   0.780   7.209   5.085  0.8244 -1.7810 -0.7435
  362SOL     hw 1447   0.808   7.203   5.233  3.9898  0.5253 -1.1506
  362SOL     vw 1448   0.786   7.164   5.159  0.8954 -0.4365  0.1068
  363SOL     ow 1449   1.033   3.129   7.051  0.5808  0.1139  0.5042
  363SOL     hw 1450   1.015   3.039   7.077  0.7002 -0.3316 -0.8526
  363SOL     hw 1451   1.067   3.171   7.130  2.0703 -1.4763  0.7700
  363SOL     vw 1452   1.035   3.123   7.064  0.7931 -0.1547  0.3605
  364SOL     ow 1453   5.406   2.216   6.540 -0.1536  0.5104 -0.3020
  364SOL     hw 1454   5.424   2.122   6.535  0.0533  0.5727 -0.8577
  364SOL     hw 1455   5.319   2.226   6.502 -0.4211  0.4745  0.3007
  364SOL     vw 1456   5.397   2.205   6.534 -0.1619  0.5138 -0.2954
  365SOL     ow 1457   0.790   4.437   6.065  0.3422  0.2951  0.1357
  365SOL     hw 1458   0.782   4.405   5.976  0.9100 -2.6770  1.0577
  365SOL     hw 1459   0.730   4.512   6.069 -1.6389 -1.0451 -2.0283
  365SOL     vw 1460   0.781   4.443   6.054  0.1557 -0.2735 -0.0284
  366SOL     ow 1461   7.287   4.911   1.895 -0.3647 -0.3269  0.0819
  366SOL     hw 1462   7.339   4.861   1.832  0.5855 -0.9601  1.3298
  366SOL     hw 1463   7.197   4.879   1.883 -0.4000  0.3035 -1.6370
  366SOL     vw 1464   7.282   4.900   1.885 -0.2441 -0.3271  0.0198
  367SOL     ow 1465   7.046   2.017   6.858 -0.5443  0.2875  0.8531
  367SOL     hw 1466   7.134   1.991   6.834 -1.0727 -1.9444  1.1695
  367SOL     hw 1467   6.995   1.936   6.859 -2.2268  1.2686  2.3095
  367SOL     vw 1468   7.051   2.003   6.855 -0.8359  0.1225  1.0870
  368SOL     ow 1469   6.812   4.177   1.169  0.2416 -0.2244  1.0896
  368SOL     hw 1470   6.870   4.228   1.112  0.1921 -2.2859 -0.9876
  368SOL     hw 1471   6.872   4.125   1.223  0.3346 -0.7546  0.4860
  368SOL     vw 1472   6.828   4.177   1.169  0.2477 -0.5665  0.7359
  369SOL     ow 1473   1.808   3.016   0.857  0.4716 -0.4938 -0.4422
  369SOL     hw 1474   1.742   2.972   0.804 -0.0598 -0.1831 -0.0472
  369SOL     hw 1475   1.892   2.984   0.823  0.1068 -1.6919 -0.2759
  369SOL     vw 1476   1.811   3.006   0.846  0.3534 -0.6109 -0.3681
  370SOL     ow 1477   4.389   6.295   5.721  0.0278  0.1268 -0.2522
  370SOL     hw 1478   4.365   6.225   5.782 -0.3944  1.3688  1.0874
  370SOL     hw 1479   4.393   6.253   5.636 -1.8028 -1.2051  0.2605
  370SOL     vw 1480   4.386   6.281   5.718 -0.2692  0.1149 -0.0076
  371SOL     ow 1481   4.860   6.753   3.132 -0.2761  0.1719  0.0452
  371SOL     hw 1482   4.844   6.744   3.226  1.2271 -1.0663  0.2172
  371SOL     hw 1483   4.785   6.709   3.090 -1.7873  2.1011  0.5736
  371SOL     vw 1484   4.848   6.746   3.139 -0.2773  0.2627  0.1376
  372SOL     ow 1485   3.717   5.113   4.657 -0.4524  0.4253 -0.1308
  372SOL     hw 1486   3.727   5.025   4.621 -0.6613 -0.8558  2.6977
  372SOL     hw 1487   3.709   5.169   4.580 -1.6280 -2.1516 -2.0460
  372SOL     vw 1488   3.718   5.109   4.642 -0.6350 -0.0837 -0.0105
  373SOL     ow 1489   4.590   2.497   3.435  0.0635  0.4216 -0.5509
  373SOL     hw 1490   4.512   2.466   3.389 -0.6238 -2.2438  2.0666
  373SOL     hw 1491   4.557   2.560   3.499  0.2221  0.1863 -0.2333
  373SOL     vw 1492   4.576   2.501   3.438 -0.0062  0.0389 -0.1638
  374SOL     ow 1493   0.449   0.523   2.206 -0.9204  0.7218  0.3675
  374SOL     hw 1494   0.417   0.478   2.284  0.4608 -0.8645  0.1052
  374SOL     hw 1495   0.390   0.494   2.136 -0.3460 -0.3534  0.2970
  374SOL     vw 1496   0.437   0.513   2.207 -0.6624  0.3706  0.3237
  375SOL     ow 1497   5.493   0.610   5.170 -0.6948 -0.1742 -0.6758
  375SOL     hw 1498   5.533   0.523   5.159 -0.0180  0.2725 -1.9807
  375SOL     hw 1499   5.564   0.665   5.204 -0.9998 -0.0308 -0.2700
  375SOL     vw 1500   5.508   0.605   5.173 -0.6456 -0.0964 -0.7946
  376SOL     ow 1501   4.637   7.141   4.981  0.0309  0.3894  0.2993
  376SOL     hw 1502   4.643   7.233   5.007  1.4435 -0.0900  1.8364
  376SOL     hw 1503   4.583   7.142   4.902  1.9648  2.8091 -1.1403
  376SOL     vw 1504   4.631   7.153   4.974  0.4723  0.6454  0.3121
  377SOL     ow 1505   6.315   4.114   6.377  0.0598  0.6289 -0.2718
  377SOL     hw 1506   6.256   4.039   6.377  1.0256 -0.1561  0.5507
  377SOL     hw 1507   6.403   4.076   6.380  0.5947  1.7831 -0.6389
  377SOL     vw 1508   6.319   4.099   6.377  0.2575  0.6776 -0.2115
  378SOL     ow 1509   3.598   5.613   1.317 -0.3387 -0.3701  0.4992
  378SOL     hw 1510   3.537   5.614   1.244  1.4700  0.0265 -1.0969
  378SOL     hw 1511   3.677   5.656   1.283  0.0783  1.2336  3.1618
  378SOL     vw 1512   3.601   5.619   1.303 -0.0449 -0.1061  0.6400
  379SOL     ow 1513   4.514   1.242   6.097  0.0035 -0.2666 -0.0758
  379SOL     hw 1514   4.492   1.298   6.023  1.3436 -1.2378 -1.2765
  379SOL     hw 1515   4.563   1.297   6.156 -0.3437  0.3061 -0.3152
  379SOL     vw 1516   4.517   1.256   6.095  0.1345 -0.3193 -0.2658
  380SOL     ow 1517   0.491   3.108   6.153  0.1261  0.6986  0.2160
  380SOL     hw 1518   0.410   3.140   6.193  1.4958  2.6001  1.6563
  380SOL     hw 1519   0.509   3.026   6.198 -0.6049  0.6359  0.4055
  380SOL     vw 1520   0.483   3.102   6.164  0.2104  0.9413  0.4308
  381SOL     ow 1521   7.209   7.230   7.226 -0.4781 -0.1423  0.9747
  381SOL     hw 1522   7.255   7.278   7.157  0.1885 -0.9657  0.8439
  381SOL     hw 1523   7.120   7.219   7.191  0.2352 -1.8433 -0.4179
  381SOL     vw 1524   7.203   7.235   7.212 -0.2961 -0.4759  0.7737
  382SOL     ow 1525   5.923   3.139   2.880 -0.2197 -0.7751 -0.0419
  382SOL     hw 1526   5.947   3.051   2.908  0.3761 -0.1914  1.3429
  382SOL     hw 1527   5.858   3.125   2.811  1.6915 -2.3585 -1.6457
  382SOL     vw 1528   5.918   3.126   2.874  0.1109 -0.9069 -0.0708
  383SOL     ow 1529   4.055   4.474   6.578 -0.2648 -0.5098  0.1590
  383SOL     hw 1530   4.049   4.565   6.548  1.2057 -0.9146 -1.5399
  383SOL     hw 1531   4.124   4.475   6.644 -2.1661  0.0403  2.2426
  383SOL     vw 1532   4.063   4.487   6.582 -0.3219 -0.4904  0.2098
  384SOL     ow 1533   1.841   1.504   1.544  0.1142  0.0497  0.2384
  384SOL     hw 1534   1.784   1.520   1.619 -0.0877  0.0847  0.0806
  384SOL     hw 1535   1.905   1.575   1.547  0.0392  0.1152  0.3128
  384SOL     vw 1536   1.842   1.515   1.554  0.0777  0.0630  0.2275
  385SOL     ow 1537   6.137   4.341   6.430 -0.1810  0.3172  0.3640
  385SOL     hw 1538   6.092   4.416   6.470 -1.5246 -1.2128  1.8983
  385SOL     hw 1539   6.075   4.308   6.365 -0.2490 -0.3334  0.7503
  385SOL     vw 1540   6.123   4.347   6.427 -0.3674  0.0293  0.6173
  386SOL     ow 1541   5.355   5.065   0.421 -0.1665  0.4393 -0.5910
  386SOL     hw 1542   5.381   5.088   0.510  0.6445 -3.5871  0.4220
  386SOL     hw 1543   5.426   5.096   0.366  0.9557  0.1384  0.6383
  386SOL     vw 1544   5.368   5.072   0.426  0.0887 -0.1316 -0.2951
  387SOL     ow 1545   2.627   5.133   3.211 -0.1563  0.0905  0.2514
  387SOL     hw 1546   2.554   5.139   3.273 -0.1097 -0.2289  0.3416
  387SOL     hw 1547   2.648   5.039   3.208 -1.1636 -0.1265 -1.4010
  387SOL     vw 1548   2.620   5.121   3.218 -0.2831  0.0198  0.0454
  388SOL     ow 1549   7.063   0.544   1.116  0.2373 -0.2877 -0.0942
  388SOL     hw 1550   7.053   0.467   1.172 -0.7018  0.2334  0.4762
  388SOL     hw 1551   7.060   0.618   1.176 -0.7516  0.2806 -0.8124
  388SOL     vw 1552   7.061   0.543   1.132 -0.0172 -0.1439 -0.1137
  389SOL     ow 1553   5.712   6.531   6.587 -0.0269  0.2683 -0.2249
  389SOL     hw 1554   5.768   6.511   6.512  0.6111  1.9653 -0.2413
  389SOL     hw 1555   5.665   6.611   6.562 -2.4718 -1.0612 -0.1870
  389SOL     vw 1556   5.713   6.539   6.574 -0.2651  0.3166 -0.2220
  390SOL     ow 1557   0.675   6.020   4.965  0.7771 -0.1112 -0.4159
  390SOL     hw 1558   0.593   6.067   4.950  0.1311 -0.9321  0.3785
  390SOL     hw 1559   0.679   5.954   4.896  0.8747  0.0665 -0.5798
  390SOL     vw 1560   0.665   6.017   4.954  0.7047 -0.1960 -0.3328
  391SOL     ow 1561   1.278   6.887   3.040  0.1236 -0.3664  0.7672
  391SOL     hw 1562   1.257   6.921   3.127 -1.0118 -1.6864  1.0436
  391SOL     hw 1563   1.193   6.880   2.996  0.7424  0.9497 -0.7345
  391SOL     vw 1564   1.264   6.890   3.046  0.0554 -0.3664  0.6055
  392SOL     ow 1565   2.409   1.887   2.554  0.0830 -0.1584 -0.1690
  392SOL     hw 1566   2.383   1.834   2.629 -1.0338 -1.4785 -1.4245
  392SOL     hw 1567   2.364   1.970   2.566 -2.4353 -1.3379 -0.7544
  392SOL     vw 1568   2.400   1.891   2.565 -0.3966 -0.4882 -0.4117
  393SOL     ow 1569   5.666   6.430   3.193  0.0761 -0.3679 -0.2581
  393SOL     hw 1570   5.648   6.524   3.193  2.0706  0.0908  1.4515
  393SOL     hw 1571   5.607   6.394   3.260 -2.6592 -0.8980 -2.7424
  393SOL     vw 1572   5.656   6.437   3.202 -0.0215 -0.3772 -0.3603
  394SOL     ow 1573   0.323   5.188   7.288 -0.2996 -0.3248  0.3383
  394SOL     hw 1574   0.412   5.191   7.323 -1.0335 -0.7909  2.4220
  394SOL     hw 1575   0.312   5.271   7.241  1.1647 -0.2053  0.1658
  394SOL     vw 1576   0.333   5.199   7.286 -0.2032 -0.3705  0.5903
  395SOL     ow 1577   1.560   0.488   1.750  0.0838 -0.1910 -0.6215
  395SOL     hw 1578   1.591   0.459   1.664 -1.6191  1.4570 -1.8810
  395SOL     hw 1579   1.472   0.451   1.757 -0.8157  1.7990 -0.8086
  395SOL     vw 1580   1.553   0.479   1.740 -0.2596  0.2890 -0.8124
  396SOL     ow 1581   1.898   6.330   5.719 -0.5016  0.2443  0.1585
  396SOL     hw 1582   1.967   6.290   5.666  0.5727  0.6493  1.1930
  396SOL     hw 1583   1.898   6.422   5.692 -1.8236 -0.0739 -1.0333
  396SOL     vw 1584   1.907   6.337   5.709 -0.5344  0.2561  0.1378
  397SOL     ow 1585   6.306   5.916   0.289  0.2013  0.0017 -0.1028
  397SOL     hw 1586   6.296   5.996   0.237 -2.7251  0.0309  0.3206
  397SOL     hw 1587   6.320   5.947   0.378  0.0697  0.0272 -0.0909
  397SOL     vw 1588   6.306   5.931   0.294 -0.2024  0.0091 -0.0453
  398SOL     ow 1589   3.651   7.039   4.343 -0.0572 -1.3343 -0.0876
  398SOL     hw 1590   3.597   6.963   4.320 -1.0452 -0.8022  0.4113
  398SOL     hw 1591   3.611   7.074   4.422  1.2334 -1.1117  0.4893
  398SOL     vw 1592   3.639   7.034   4.350 -0.0173 -1.2348  0.0544
  399SOL     ow 1593   7.092   1.683   3.558 -0.1105 -0.0371 -0.1729
  399SOL     hw 1594   7.165   1.743   3.571 -0.4261  0.5221 -0.9165
  399SOL     hw 1595   7.133   1.596   3.553  0.6910  0.4122 -2.1329
  399SOL     vw 1596   7.107   1.679   3.559 -0.0465  0.0960 -0.5295
  400SOL     ow 1597   4.463   5.205   3.815 -0.4231 -0.0621 -0.3299
  400SOL     hw 1598   4.403   5.278   3.800 -2.4134 -0.8390  2.8578
  400SOL     hw 1599   4.546   5.246   3.840 -1.3795  1.1247  0.9713
  400SOL     vw 1600   4.466   5.220   3.816 -0.8118 -0.0079  0.2624
  401SOL     ow 1601   7.109   6.349   0.240 -0.1426  0.0057 -0.7930
  401SOL     hw 1602   7.172   6.279   0.257 -1.4513 -0.7452  1.2708
  401SOL     hw 1603   7.057   6.355   0.320 -3.1390  0.1355 -2.5962
  401SOL     vw 1604   7.110   6.340   0.252 -0.7105 -0.0763 -0.7586
  402SOL     ow 1605   0.288   6.676   0.012  0.4226  0.3950 -0.3716
  402SOL     hw 1606   0.256   6.730   0.085  0.1515  1.4944 -1.2801
  402SOL     hw 1607   0.371   6.640   0.044  0.2215  0.7013  0.5393
  402SOL     vw 1608   0.294   6.678   0.026  0.3603  0.5803 -0.3713
  403SOL     ow 1609   6.206   0.068   5.494  0.6217 -0.7082  0.3446
  403SOL     hw 1610   6.167   0.155   5.503 -0.2445 -0.8097 -1.7174
  403SOL     hw 1611   6.300   0.084   5.484  0.3410  0.1542 -1.3243
  403SOL     vw 1612   6.213   0.082   5.494  0.4706 -0.6078 -0.1478
  404SOL     ow 1613   2.854   1.747   5.017  0.4705  0.1677 -0.1388
  404SOL     hw 1614   2.808   1.724   5.098  0.5608  1.4636  0.2997
  404SOL     hw 1615   2.946   1.752   5.043  0.4284  1.1985 -0.1717
  404SOL     vw 1616   2.860   1.744   5.031  0.4770  0.4747 -0.0851
  405SOL     ow 1617   6.445   2.958   6.245  0.4272 -0.2322  0.2888
  405SOL     hw 1618   6.373   2.932   6.188 -0.8827  1.6935  0.9770
  405SOL     hw 1619   6.437   2.900   6.321 -1.3685  0.9155  1.0302
  405SOL     vw 1620   6.435   2.947   6.248  0.0176  0.1732  0.4773
  406SOL     ow 1621   4.558   6.738   6.676 -0.0971  0.3407 -0.0956
  406SOL     hw 1622   4.472   6.774   6.699  0.3019  0.6188  1.0607
  406SOL     hw 1623   4.589   6.792   6.604 -0.4061  0.9780  0.2438
  406SOL     vw 1624   4.551   6.750   6.670 -0.0854  0.4616  0.1018
  407SOL     ow 1625   3.711   1.546   5.560  0.7836  0.4254  0.2968
  407SOL     hw 1626   3.705   1.511   5.471  2.0973 -0.0658  0.3871
  407SOL     hw 1627   3.717   1.641   5.548 -2.2544  0.7017  0.0261
  407SOL     vw 1628   3.711   1.554   5.546  0.5561  0.3971  0.2730
  408SOL     ow 1629   6.563   2.195   2.517  0.3108  0.4591  0.0563
  408SOL     hw 1630   6.602   2.252   2.451  0.0946  1.3078  0.6413
  408SOL     hw 1631   6.578   2.241   2.600 -0.9092  0.2379  0.4149
  408SOL     vw 1632   6.570   2.209   2.519  0.1216  0.5420  0.1807
  409SOL     ow 1633   0.278   4.692   3.816 -0.7052 -0.0054 -0.2097
  409SOL     hw 1634   0.307   4.640   3.741  1.3325  0.5093  0.1675
  409SOL     hw 1635   0.334   4.663   3.888 -1.1634  1.0361  0.5830
  409SOL     vw 1636   0.289   4.681   3.815 -0.4968  0.1998 -0.0552
  410SOL     ow 1637   2.897   4.369   4.251  0.0051  0.2811  0.9738
  410SOL     hw 1638   2.808   4.336   4.266 -0.2241 -0.1494 -1.0184
  410SOL     hw 1639   2.884   4.448   4.198  0.8558 -1.3979 -1.9272
  410SOL     vw 1640   2.883   4.375   4.246  0.0871  0.0029  0.3285
  411SOL     ow 1641   6.450   0.229   2.084 -0.3830 -0.3961 -0.2018
  411SOL     hw 1642   6.472   0.223   1.991  0.4974  0.2194 -0.0458
  411SOL     hw 1643   6.387   0.301   2.089  0.9421  0.7961 -0.1155
  411SOL     vw 1644   6.445   0.238   2.072 -0.0923 -0.1576 -0.1698
  412SOL     ow 1645   4.612   2.984   7.315  0.0711  0.2529  0.4894
  412SOL     hw 1646   4.543   2.985   7.381  0.3307 -0.6022  0.7927
  412SOL     hw 1647   4.629   3.076   7.296 -1.0298  0.4754  0.5324
  412SOL     vw 1648   4.605   2.996   7.321 -0.0398  0.1694  0.5352
  413SOL     ow 1649   5.856   2.791   0.207 -0.1707 -0.3485  0.0725
  413SOL     hw 1650   5.810   2.871   0.234  0.0450  0.3426 -1.4766
  413SOL     hw 1651   5.929   2.784   0.269  0.4137  1.2711 -0.3567
  413SOL     vw 1652   5.859   2.801   0.219 -0.0651 -0.0437 -0.1885
  414SOL     ow 1653   5.000   3.117   2.419  0.6675 -0.3337 -0.0933
  414SOL     hw 1654   4.985   3.212   2.416  0.6966 -0.1422  2.9040
  414SOL     hw 1655   5.081   3.107   2.469  1.3302 -1.9327 -1.4158
  414SOL     vw 1656   5.009   3.129   2.425  0.7589 -0.5194  0.1277
  415SOL     ow 1657   6.469   4.409   6.349 -0.3995 -0.5414  0.7236
  415SOL     hw 1658   6.542   4.378   6.403  0.7763  2.0696  0.8053
  415SOL     hw 1659   6.490   4.501   6.332 -2.6043 -0.3010 -1.1189
  415SOL     vw 1660   6.481   4.417   6.354 -0.5352 -0.1652  0.4914
  416SOL     ow 1661   2.805   0.894   5.398  0.5435  0.2721  0.0425
  416SOL     hw 1662   2.802   0.799   5.408  0.5143  0.2632 -0.0467
  416SOL     hw 1663   2.879   0.922   5.451 -0.4782  0.3897  1.4717
  416SOL     vw 1664   2.814   0.885   5.406  0.4050  0.2865  0.2193
  417SOL     ow 1665   6.844   5.694   0.678  0.5827 -0.5254  0.3884
  417SOL     hw 1666   6.877   5.662   0.762 -0.4159 -0.6272  0.7506
  417SOL     hw 1667   6.922   5.702   0.624  1.1258 -1.4268  1.0038
  417SOL     vw 1668   6.859   5.691   0.682  0.5226 -0.6580  0.5174
  418SOL     ow 1669   1.276   3.242   5.512 -0.3807 -0.1837 -0.5287
  418SOL     hw 1670   1.234   3.292   5.441 -0.1107 -1.2910 -1.5018
  418SOL     hw 1671   1.202   3.207   5.562 -0.5723  1.1165  0.1284
  418SOL     vw 1672   1.260   3.244   5.509 -0.3703 -0.1582 -0.5708
  419SOL     ow 1673   2.848   4.756   2.416 -0.3966 -0.1032  0.4545
  419SOL     hw 1674   2.891   4.840   2.431 -0.6800 -0.2173  2.1242
  419SOL     hw 1675   2.866   4.706   2.496 -1.1888 -1.2117 -0.0363
  419SOL     vw 1676   2.856   4.760   2.428 -0.5386 -0.2646  0.6101
  420SOL     ow 1677   5.533   3.277   3.252  0.5299 -0.3979 -0.0354
  420SOL     hw 1678   5.539   3.251   3.343  3.1753  1.2137  0.3677
  420SOL     hw 1679   5.497   3.366   3.255 -1.4518 -1.1198 -0.7952
  420SOL     vw 1680   5.529   3.285   3.264  0.6175 -0.2804 -0.0825
  421SOL     ow 1681   7.060   1.618   4.991  0.6701 -0.2802  0.9621
  421SOL     hw 1682   7.041   1.706   4.956  0.7922  0.1677  1.9865
  421SOL     hw 1683   7.146   1.626   5.031  1.4612 -1.3556 -0.4818
  421SOL     vw 1684   7.069   1.631   4.992  0.7906 -0.3630  0.9067
  422SOL     ow 1685   0.763   5.630   5.604  0.0767  0.1274 -0.6035
  422SOL     hw 1686   0.817   5.709   5.617 -2.5056  2.3577 -2.3358
  422SOL     hw 1687   0.690   5.660   5.550 -2.6262 -2.8172  1.0890
  422SOL     vw 1688   0.761   5.644   5.599 -0.6206  0.0329 -0.6089
  423SOL     ow 1689   4.281   5.794   0.320  0.1419  0.0140  0.1688
  423SOL     hw 1690   4.231   5.713   0.309 -0.5986  0.3690  0.8249
  423SOL     hw 1691   4.215   5.864   0.318  0.8898  0.7087 -1.5517
  423SOL     vw 1692   4.266   5.792   0.319  0.1428  0.1521  0.0284
  424SOL     ow 1693   5.948   1.774   3.724  0.4489  1.2075  0.3430
  424SOL     hw 1694   5.860   1.797   3.755 -0.1296  2.4004 -1.9451
  424SOL     hw 1695   5.970   1.843   3.662  1.8469 -0.5497 -1.2251
  424SOL     vw 1696   5.939   1.786   3.720  0.5572  1.1331 -0.1658
  425SOL     ow 1697   3.728   4.400   6.636  0.9912 -0.4675 -1.3269
  425SOL     hw 1698   3.660   4.412   6.703  2.7103  2.1685  0.1327
  425SOL     hw 1699   3.807   4.380   6.686  2.3715  1.7819 -2.4535
  425SOL     vw 1700   3.730   4.399   6.652  1.4001  0.1774 -1.2829
  426SOL     ow 1701   5.186   4.370   0.878  0.4140  1.0202  0.6542
  426SOL     hw 1702   5.204   4.375   0.972  1.7406 -0.9080  0.5445
  426SOL     hw 1703   5.270   4.351   0.838 -0.6086 -1.2745 -0.6123
  426SOL     vw 1704   5.199   4.369   0.886  0.4542  0.4630  0.4726
  427SOL     ow 1705   0.880   7.165   3.417 -0.3146 -0.2902 -0.3596
  427SOL     hw 1706   0.900   7.129   3.503  0.6716 -0.9324 -0.8332
  427SOL     hw 1707   0.845   7.091   3.367  1.2619 -0.5195 -1.1869
  427SOL     vw 1708   0.878   7.151   3.422  0.0235 -0.4053 -0.5312
  428SOL     ow 1709   0.090   5.018   7.319  0.0560  0.1051 -0.4020
  428SOL     hw 1710   0.085   4.944   7.258  0.8749 -2.6260  2.5798
  428SOL     hw 1711   0.018   5.002   7.381  0.7805  1.3455  0.8008
  428SOL     vw 1712   0.080   5.006   7.319  0.2596 -0.0920  0.1502
  429SOL     ow 1713   1.884   4.535   3.327 -0.1461  0.4144 -0.3552
  429SOL     hw 1714   1.934   4.616   3.331  1.0407 -0.2557 -1.0619
  429SOL     hw 1715   1.918   4.488   3.250  0.2352 -1.4040  0.8509
  429SOL     vw 1716   1.895   4.539   3.317  0.0608  0.0861 -0.2892
  430SOL     ow 1717   6.940   3.436   1.876 -0.4655  0.6369 -0.1211
  430SOL     hw 1718   7.021   3.391   1.903 -0.8223  0.1822  0.2121
  430SOL     hw 1719   6.970   3.507   1.820  0.3957  2.1889  2.1508
  430SOL     vw 1720   6.955   3.439   1.873 -0.3991  0.7817  0.2226
  431SOL     ow 1721   1.210   0.862   3.340  0.4489 -0.6506  0.3062
  431SOL     hw 1722   1.267   0.849   3.264  0.3069 -1.9500  0.4043
  431SOL     hw 1723   1.129   0.897   3.303  1.4053  1.6449  0.2079
  431SOL     vw 1724   1.207   0.865   3.325  0.5563 -0.5191  0.3061
  432SOL     ow 1725   3.603   0.803   5.842  0.1201 -0.7125 -0.0195
  432SOL     hw 1726   3.547   0.748   5.788  1.9109 -1.6456 -1.0108
  432SOL     hw 1727   3.627   0.747   5.916  0.7851 -0.7991 -0.2900
  432SOL     vw 1728   3.599   0.788   5.845  0.4442 -0.8471 -0.1862
  433SOL     ow 1729   5.299   4.602   0.682 -0.3031 -0.1475 -0.5704
  433SOL     hw 1730   5.291   4.655   0.762  1.2230 -0.3057 -0.2786
  433SOL     hw 1731   5.210   4.573   0.664 -0.4878 -1.6825  2.1724
  433SOL     vw 1732   5.286   4.605   0.690 -0.1261 -0.3707 -0.1701
  434SOL     ow 1733   4.653   5.801   1.253 -0.2059 -0.3685 -0.2625
  434SOL     hw 1734   4.649   5.727   1.314  1.4060  1.7010  2.5693
  434SOL     hw 1735   4.675   5.761   1.169 -1.8594 -3.3063  0.5524
  434SOL     vw 1736   4.655   5.786   1.250 -0.2115 -0.4826  0.2186
  435SOL     ow 1737   3.446   5.127   6.499 -0.7465 -0.1056  1.0150
  435SOL     hw 1738   3.456   5.101   6.591  2.4217 -2.5380  0.1900
  435SOL     hw 1739   3.399   5.054   6.459 -0.5136  0.0835  0.3862
  435SOL     vw 1740   3.441   5.114   6.506 -0.2978 -0.4015  0.8230
  436SOL     ow 1741   5.821   2.848   4.845  0.1588 -0.4191  0.2340
  436SOL     hw 1742   5.799   2.794   4.921  0.7315 -0.9679  0.0164
  436SOL     hw 1743   5.812   2.790   4.770 -4.4018  1.0721 -0.6688
  436SOL     vw 1744   5.817   2.834   4.845 -0.3674 -0.2946  0.0861
  437SOL     ow 1745   1.768   1.878   2.922  0.2984 -0.3486 -0.5550
  437SOL     hw 1746   1.745   1.950   2.864 -1.7415  0.6789  1.3832
  437SOL     hw 1747   1.700   1.812   2.908  0.7740 -0.8569 -0.5509
  437SOL     vw 1748   1.756   1.879   2.913  0.0920 -0.2801 -0.2987
  438SOL     ow 1749   0.011   2.690   1.840 -0.7591  0.0320  0.0067
  438SOL     hw 1750  -0.038   2.648   1.769 -1.1477  0.5049 -0.0106
  438SOL     hw 1751  -0.027   2.778   1.846  1.0199  0.9361 -0.9787
  438SOL     vw 1752  -0.000   2.696   1.831 -0.5757  0.2137 -0.1256
  439SOL     ow 1753   3.679   1.453   2.112  0.1333  0.0410  0.0191
  439SOL     hw 1754   3.588   1.454   2.082  0.3161  1.6632 -0.5905
  439SOL     hw 1755   3.681   1.385   2.179 -1.1776 -1.0444 -0.9770
  439SOL     vw 1756   3.667   1.444   2.117 -0.0157  0.1118 -0.1929
  440SOL     ow 1757   4.880   2.808   4.895  0.2393  0.3017 -0.2032
  440SOL     hw 1758   4.834   2.880   4.852  1.7927  0.3031 -1.9935
  440SOL     hw 1759   4.950   2.851   4.945  1.2371  0.0711 -1.3631
  440SOL     vw 1760   4.883   2.823   4.896  0.5760  0.2714 -0.5925
  441SOL     ow 1761   7.362   6.317   5.193 -0.4822  0.3251  0.8070
  441SOL     hw 1762   7.290   6.255   5.189  0.8483 -1.2491 -0.1949
  441SOL     hw 1763   7.356   6.355   5.281 -0.9341 -1.7674  1.7393
  441SOL     vw 1764   7.352   6.314   5.204 -0.3662 -0.1585  0.7977
  442SOL     ow 1765   2.068   6.280   5.954  0.3385 -0.0263 -0.0080
  442SOL     hw 1766   2.117   6.201   5.974 -0.0180 -0.3179 -0.2855
  442SOL     hw 1767   2.135   6.348   5.943  0.5772  0.0251  1.6062
  442SOL     vw 1768   2.083   6.279   5.955  0.3229 -0.0582  0.1683
  443SOL     ow 1769   2.239   5.772   4.798  0.3546  0.7866  0.4598
  443SOL     hw 1770   2.304   5.725   4.849  0.0804  2.2872  2.3008
  443SOL     hw 1771   2.206   5.840   4.857 -0.4722  2.2035 -1.5151
  443SOL     vw 1772   2.243   5.775   4.813  0.2093  1.1716  0.4423
  444SOL     ow 1773   7.057   4.533   0.450 -0.1075 -0.0022 -0.2358
  444SOL     hw 1774   6.964   4.530   0.472  0.2226 -1.6700  1.2039
  444SOL     hw 1775   7.098   4.571   0.528  0.4885  0.0708 -0.5814
  444SOL     vw 1776   7.050   4.538   0.463  0.0145 -0.2124 -0.0914
  445SOL     ow 1777   7.187   6.835   1.746 -0.0013 -0.1109  0.2755
  445SOL     hw 1778   7.253   6.779   1.706 -0.6524  0.7932 -2.2993
  445SOL     hw 1779   7.119   6.843   1.678 -2.5713 -0.6253  2.5972
  445SOL     vw 1780   7.187   6.828   1.731 -0.4263 -0.0596  0.2421
  446SOL     ow 1781   4.592   5.336   5.178  0.6162 -0.0315  0.6385
  446SOL     hw 1782   4.587   5.394   5.103  2.3445 -1.0289 -0.2948
  446SOL     hw 1783   4.505   5.295   5.183  0.6645 -0.4368 -1.2258
  446SOL     vw 1784   4.580   5.338   5.169  0.8504 -0.2165  0.2694
  447SOL     ow 1785   6.716   6.481   1.476  0.2707 -0.2354 -0.0451
  447SOL     hw 1786   6.656   6.529   1.533 -1.5466  0.7259 -2.5749
  447SOL     hw 1787   6.792   6.463   1.531 -1.1719  0.9287  2.5290
  447SOL     vw 1788   6.718   6.485   1.491 -0.1597  0.0448 -0.0393
  448SOL     ow 1789   4.626   5.351   3.173  0.3904 -0.0934  0.3781
  448SOL     hw 1790   4.604   5.431   3.220  3.8464  0.4325  1.3195
  448SOL     hw 1791   4.560   5.287   3.203 -1.4973  1.9298  0.7757
  448SOL     vw 1792   4.614   5.353   3.183  0.5975  0.2429  0.5547
  449SOL     ow 1793   1.663   3.188   1.577 -0.4989 -0.5475  0.3816
  449SOL     hw 1794   1.569   3.206   1.585 -0.4347 -0.3568  0.7179
  449SOL     hw 1795   1.701   3.224   1.657 -0.1084 -0.4148  0.1365
  449SOL     vw 1796   1.655   3.195   1.589 -0.4389 -0.5050  0.3937
  450SOL     ow 1797   2.468   1.949   2.272  0.2956  0.1394 -0.1168
  450SOL     hw 1798   2.418   1.896   2.211  0.6234  0.3195 -0.5553
  450SOL     hw 1799   2.403   1.997   2.322  0.0279  0.4432 -0.7456
  450SOL     vw 1800   2.453   1.949   2.271  0.3036  0.2033 -0.2576
  451SOL     ow 1801   5.460   5.590   0.145 -0.0948  0.4405  0.0059
  451SOL     hw 1802   5.514   5.621   0.218  0.5329  0.2122 -0.3571
  451SOL     hw 1803   5.371   5.615   0.170  0.0592  0.0271  1.0286
  451SOL     vw 1804   5.455   5.597   0.158  0.0081  0.3560  0.0930
  452SOL     ow 1805   4.834   5.118   3.692 -1.2057 -0.1084 -0.7990
  452SOL     hw 1806   4.864   5.029   3.710 -1.0051 -0.3183 -2.0572
  452SOL     hw 1807   4.899   5.153   3.632 -2.1335  0.3137 -1.5823
  452SOL     vw 1808   4.846   5.111   3.686 -1.3015 -0.0803 -1.0682
  453SOL     ow 1809   2.065   4.184   4.743 -0.6974  0.0954  0.1358
  453SOL     hw 1810   1.991   4.124   4.739  0.2552 -1.1090  0.0607
  453SOL     hw 1811   2.111   4.171   4.660  0.0150  0.2564  0.4950
  453SOL     vw 1812   2.061   4.174   4.732 -0.4779 -0.0422  0.1733
  454SOL     ow 1813   1.874   2.239   3.009 -0.7026 -0.2011 -0.9050
  454SOL     hw 1814   1.908   2.149   3.002 -2.8640 -1.1386 -0.1070
  454SOL     hw 1815   1.799   2.241   2.951 -1.4977  0.6638  0.1126
  454SOL     vw 1816   1.869   2.227   3.000 -1.0927 -0.2109 -0.6654
  455SOL     ow 1817   7.014   6.762   3.171  0.3489  0.2452 -0.2528
  455SOL     hw 1818   6.954   6.688   3.159  1.9456 -1.1361 -0.1387
  455SOL     hw 1819   6.964   6.827   3.219 -0.8011 -1.2020  0.5722
  455SOL     vw 1820   7.000   6.760   3.176  0.4077 -0.1278 -0.1290
  456SOL     ow 1821   4.764   3.583   2.017 -0.6521 -0.1182  0.7774
  456SOL     hw 1822   4.798   3.626   1.939  0.5716 -0.9199  0.8505
  456SOL     hw 1823   4.722   3.503   1.984 -1.0149  0.0436  0.8453
  456SOL     vw 1824   4.763   3.578   2.003 -0.5383 -0.2027  0.7961
  457SOL     ow 1825   2.413   5.943   1.690  0.2982  0.5728  0.8809
  457SOL     hw 1826   2.325   5.925   1.722  0.5778  0.3457  1.5565
  457SOL     hw 1827   2.407   6.031   1.651 -0.4814  0.0928 -0.1328
  457SOL     vw 1828   2.401   5.952   1.689  0.2322  0.4797  0.8363
  458SOL     ow 1829   4.041   6.799   5.267 -0.4553 -0.0576 -0.2470
  458SOL     hw 1830   3.982   6.742   5.317  2.2978 -1.1457  2.0280
  458SOL     hw 1831   4.048   6.878   5.319 -0.1906  0.2089 -0.6827
  458SOL     vw 1832   4.034   6.802   5.280 -0.0570 -0.1659 -0.0043
  459SOL     ow 1833   1.764   3.310   0.509 -0.1760 -0.0703  0.0940
  459SOL     hw 1834   1.716   3.359   0.442  1.4653 -0.7757 -1.6835
  459SOL     hw 1835   1.721   3.224   0.512 -0.0919 -0.1251 -0.2478
  459SOL     vw 1836   1.752   3.305   0.501  0.0517 -0.1707 -0.1857
  460SOL     ow 1837   4.099   2.433   0.143 -0.0704  0.0807  0.2388
  460SOL     hw 1838   4.112   2.525   0.117  0.6209 -0.0574  0.0689
  460SOL     hw 1839   4.056   2.438   0.228  0.8482  0.5799  0.6917
  460SOL     vw 1840   4.095   2.446   0.151  0.1419  0.1284  0.2761
  461SOL     ow 1841   2.412   3.896   3.676 -0.6754  0.7326 -0.2201
  461SOL     hw 1842   2.328   3.851   3.679 -1.3392  1.9766  0.7140
  461SOL     hw 1843   2.393   3.979   3.633 -0.1668  1.4911  0.9712
  461SOL     vw 1844   2.399   3.901   3.671 -0.6959  0.9968  0.0603
  462SOL     ow 1845   6.051   1.517   4.873  0.1860 -0.3053 -0.3679
  462SOL     hw 1846   6.099   1.598   4.890 -0.4064 -0.3581  1.7973
  462SOL     hw 1847   6.119   1.451   4.860  0.6716  0.3912 -1.5816
  462SOL     vw 1848   6.066   1.519   4.873  0.1719 -0.2204 -0.2425
  463SOL     ow 1849   0.555   4.646   6.146  0.6029 -0.4310  0.8047
  463SOL     hw 1850   0.551   4.742   6.146 -0.6190 -0.4547  0.2502
  463SOL     hw 1851   0.516   4.620   6.229 -2.3775 -0.4630 -0.4659
  463SOL     vw 1852   0.549   4.655   6.157  0.0485 -0.4382  0.5636
  464SOL     ow 1853   3.251   3.422   6.050 -0.1530 -0.0883 -0.2577
  464SOL     hw 1854   3.162   3.414   6.017 -0.1800  1.7149 -0.7377
  464SOL     hw 1855   3.302   3.450   5.974  0.9402 -1.5681 -0.1081
  464SOL     vw 1856   3.246   3.425   6.036 -0.0124 -0.0455 -0.3016
  465SOL     ow 1857   3.953   4.678   3.735  0.5235 -0.2956 -0.2904
  465SOL     hw 1858   3.946   4.774   3.732 -1.2511 -0.4163 -1.9222
  465SOL     hw 1859   3.941   4.657   3.827 -2.1802  0.9316 -0.2658
  465SOL     vw 1860   3.950   4.688   3.747 -0.0675 -0.1495 -0.5026
  466SOL     ow 1861   6.989   4.881   1.410  0.2966  0.2720 -0.1158
  466SOL     hw 1862   6.949   4.968   1.414 -1.5792 -0.4247 -1.9023
  466SOL     hw 1863   6.977   4.845   1.498 -0.0806  1.3190  0.2791
  466SOL     vw 1864   6.982   4.888   1.422 -0.0007  0.3183 -0.2994
  467SOL     ow 1865   5.869   2.622   4.129  0.5222  0.4360  0.1964
  467SOL     hw 1866   5.851   2.616   4.223  3.0721  1.3295  0.8295
  467SOL     hw 1867   5.790   2.662   4.093 -0.8018 -0.5520  1.8134
  467SOL     vw 1868   5.856   2.627   4.137  0.6840  0.4234  0.4935
  468SOL     ow 1869   0.098   3.672   5.364 -0.0702  0.4129 -0.3876
  468SOL     hw 1870   0.192   3.685   5.362 -0.2898  2.0724 -1.4013
  468SOL     hw 1871   0.076   3.643   5.275 -0.5020 -0.1196 -0.1127
  468SOL     vw 1872   0.107   3.670   5.352 -0.1561  0.5617 -0.4849
  469SOL     ow 1873   5.701   2.651   3.541  0.2651 -0.3467 -0.5887
  469SOL     hw 1874   5.715   2.580   3.479 -0.8376  0.5574 -1.9169
  469SOL     hw 1875   5.638   2.615   3.604 -0.1815 -0.5929 -1.1694
  469SOL     vw 1876   5.695   2.637   3.541  0.0608 -0.2598 -0.8404
  470SOL     ow 1877   5.097   4.708   6.137  0.1307 -0.1329 -0.3168
  470SOL     hw 1878   5.018   4.734   6.090 -0.5977 -0.0648  0.9210
  470SOL     hw 1879   5.134   4.637   6.084 -1.7774 -1.4599  0.0321
  470SOL     vw 1880   5.092   4.702   6.124 -0.2174 -0.2990 -0.1075
  471SOL     ow 1881   4.989   4.519   0.696 -0.4318 -0.0482 -0.1967
  471SOL     hw 1882   4.902   4.554   0.718 -0.0627  0.1434  1.0148
  471SOL     hw 1883   5.001   4.543   0.604 -1.2758  0.7458 -0.1207
  471SOL     vw 1884   4.979   4.527   0.687 -0.4945  0.0818 -0.0269
  472SOL     ow 1885   3.807   4.399   6.372 -0.3815 -0.5038 -0.7136
  472SOL     hw 1886   3.729   4.435   6.331  0.6884  0.9133 -1.5704
  472SOL     hw 1887   3.792   4.409   6.466 -1.8354 -1.6285 -0.7859
  472SOL     vw 1888   3.795   4.405   6.379 -0.4323 -0.4652 -0.8361
  473SOL     ow 1889   1.840   4.776   5.594  0.2922  0.7523 -0.4855
  473SOL     hw 1890   1.877   4.805   5.676  1.5983 -3.0729  0.5081
  473SOL     hw 1891   1.914   4.768   5.534  0.3036 -1.4896 -0.2794
  473SOL     vw 1892   1.854   4.779   5.597  0.4660 -0.0484 -0.3273
  474SOL     ow 1893   6.996   4.572   1.391 -0.3609  0.9297 -0.0439
  474SOL     hw 1894   6.962   4.521   1.464 -0.8001  0.7535 -0.3650
  474SOL     hw 1895   7.082   4.603   1.420  1.4883 -2.7532 -1.0442
  474SOL     vw 1896   7.003   4.570   1.404 -0.1750  0.4206 -0.2183
  475SOL     ow 1897   0.048   4.385   6.057  0.1977 -0.1450 -0.5577
  475SOL     hw 1898  -0.045   4.400   6.042 -0.4753 -1.0128  2.1686
  475SOL     hw 1899   0.074   4.455   6.116  1.0681 -0.3753 -0.6546
  475SOL     vw 1900   0.039   4.396   6.063  0.2237 -0.2897 -0.2110
  476SOL     ow 1901   4.865   6.867   5.175  0.2313  1.1043 -0.1250
  476SOL     hw 1902   4.935   6.853   5.239  0.8842 -1.1276 -1.2466
  476SOL     hw 1903   4.910   6.879   5.092 -0.6051  3.9793 -0.2818
  476SOL     vw 1904   4.880   6.867   5.172  0.2067  1.1892 -0.2935
  477SOL     ow 1905   5.067   0.752   3.039  0.1246  0.0679  0.5067
  477SOL     hw 1906   5.139   0.807   3.009 -0.8101  1.2869  0.4290
  477SOL     hw 1907   5.029   0.717   2.958  1.1242 -1.2765  0.5812
  477SOL     vw 1908   5.072   0.754   3.024  0.1330  0.0513  0.5063
  478SOL     ow 1909   0.509   3.434   0.767 -0.3776 -0.3105 -0.0391
  478SOL     hw 1910   0.450   3.410   0.696  1.6192 -1.2751 -1.4477
  478SOL     hw 1911   0.587   3.381   0.753  1.4684  2.0115  0.8256
  478SOL     vw 1912   0.511   3.424   0.756  0.1294 -0.1312 -0.1109
  479SOL     ow 1913   0.452   6.330   5.714  0.5788 -0.2844  0.4269
  479SOL     hw 1914   0.429   6.358   5.803 -2.2334 -0.5237 -0.1326
  479SOL     hw 1915   0.483   6.409   5.671 -1.6935  0.7321  0.5610
  479SOL     vw 1916   0.453   6.344   5.720 -0.0921 -0.1817  0.3710
  480SOL     ow 1917   0.030   3.206   5.609  0.0936  0.1838  0.8802
  480SOL     hw 1918  -0.022   3.211   5.529 -0.3948  0.5805  1.2134
  480SOL     hw 1919   0.118   3.183   5.580  0.1155  1.1461  0.1508
  480SOL     vw 1920   0.035   3.203   5.595  0.0321  0.3631  0.8278
  481SOL     ow 1921   0.635   1.753   0.598 -0.2998  0.0565  0.3918
  481SOL     hw 1922   0.580   1.809   0.544  0.2565 -0.6903 -1.0200
  481SOL     hw 1923   0.590   1.669   0.599 -0.0391 -0.0819  0.6655
  481SOL     vw 1924   0.622   1.749   0.591 -0.1920 -0.0603  0.2416
  482SOL     ow 1925   7.126   4.207   2.959  0.4552  0.3035  0.4561
  482SOL     hw 1926   7.159   4.282   2.910  1.7243  1.1667  2.4951
  482SOL     hw 1927   7.054   4.242   3.012  1.2117  0.1954  1.6045
  482SOL     vw 1928   7.121   4.221   2.960  0.7222  0.4029  0.8767
  483SOL     ow 1929   6.526   0.940   6.230 -0.0936 -0.4949  0.1884
  483SOL     hw 1930   6.587   0.975   6.294  0.3090 -0.8659  0.0179
  483SOL     hw 1931   6.524   1.005   6.160  1.4152 -1.2151 -0.5981
  483SOL     vw 1932   6.534   0.953   6.229  0.1585 -0.6389  0.0620
  484SOL     ow 1933   6.426   4.675   2.560  0.8267 -0.6942 -0.0903
  484SOL     hw 1934   6.464   4.698   2.645  1.7442 -1.8482 -0.1542
  484SOL     hw 1935   6.458   4.586   2.544 -1.3978 -1.4868 -0.4812
  484SOL     vw 1936   6.436   4.666   2.569  0.6542 -0.9508 -0.1504
  485SOL     ow 1937   1.917   4.789   3.599  1.1685  0.3954 -0.2702
  485SOL     hw 1938   1.946   4.849   3.667 -1.6937  3.1201 -1.2003
  485SOL     hw 1939   1.988   4.788   3.535  1.8778  1.6400  0.4783
  485SOL     vw 1940   1.930   4.796   3.599  0.8845  0.9191 -0.2942
  486SOL     ow 1941   0.184   1.261   5.914 -0.3237 -0.3717  0.3540
  486SOL     hw 1942   0.277   1.259   5.934  0.1315  2.0259 -1.1805
  486SOL     hw 1943   0.162   1.169   5.897  2.0265 -0.8593 -0.4236
  486SOL     vw 1944   0.193   1.249   5.914  0.0464 -0.1197  0.0489
  487SOL     ow 1945   5.858   2.929   1.981  0.6124 -0.0037 -0.0509
  487SOL     hw 1946   5.890   2.922   2.071 -2.6719  2.4272  1.5270
  487SOL     hw 1947   5.900   3.009   1.947 -0.0234  0.4785  0.2728
  487SOL     vw 1948   5.868   2.939   1.988  0.0954  0.3806  0.2000
  488SOL     ow 1949   1.822   0.375   3.482 -0.4357  0.4085  0.2931
  488SOL     hw 1950   1.830   0.397   3.389  1.1403  2.6104  0.8844
  488SOL     hw 1951   1.889   0.308   3.497  0.0169  0.8044  0.0561
  488SOL     vw 1952   1.832   0.369   3.472 -0.1680  0.7512  0.3399
  489SOL     ow 1953   4.969   3.486   2.700  0.5677  0.3786 -0.0715
  489SOL     hw 1954   5.053   3.522   2.671  0.2113  0.6213 -0.8468
  489SOL     hw 1955   4.917   3.563   2.725  0.8604  0.1723  1.2358
  489SOL     vw 1956   4.973   3.501   2.699  0.5593  0.3835 -0.0012
  490SOL     ow 1957   6.192   7.165   5.320  0.4450  0.1831  0.1079
  490SOL     hw 1958   6.197   7.237   5.258 -2.5769  0.6057  0.1894
  490SOL     hw 1959   6.167   7.089   5.267 -0.6227  0.2065  0.5470
  490SOL     vw 1960   6.189   7.164   5.305 -0.0947  0.2420  0.1764
  491SOL     ow 1961   1.679   4.292   3.505 -0.1270  0.0032  0.1484
  491SOL     hw 1962   1.695   4.207   3.463  1.1015  0.4599 -0.3332
  491SOL     hw 1963   1.583   4.299   3.508 -0.2847 -0.2257 -2.2290
  491SOL     vw 1964   1.668   4.282   3.500  0.0142  0.0331 -0.2288
  492SOL     ow 1965   5.796   2.963   3.498  0.3921  0.0570 -0.2164
  492SOL     hw 1966   5.831   2.991   3.414  0.9101 -0.0763 -0.0456
  492SOL     hw 1967   5.775   3.044   3.544  0.5270  0.1350 -0.2940
  492SOL     vw 1968   5.798   2.977   3.493  0.4783  0.0499 -0.2041
  493SOL     ow 1969   6.493   6.356   3.228 -0.5463 -0.1385 -0.1843
  493SOL     hw 1970   6.485   6.261   3.228  0.5062 -0.2505 -0.8865
  493SOL     hw 1971   6.507   6.379   3.136 -0.5640  0.6698  0.0079
  493SOL     vw 1972   6.494   6.347   3.216 -0.4098 -0.0465 -0.2517
  494SOL     ow 1973   3.502   5.400   3.114 -0.0844  0.1315  0.2058
  494SOL     hw 1974   3.497   5.445   3.029  0.2318 -0.0205  0.1048
  494SOL     hw 1975   3.596   5.395   3.133 -0.1497  0.0806  0.5225
  494SOL     vw 1976   3.514   5.405   3.105 -0.0513  0.1049  0.2342
  495SOL     ow 1977   4.149   6.941   6.857  0.1432  0.3354  1.0830
  495SOL     hw 1978   4.153   6.865   6.799  0.1810  1.5398 -0.5573
  495SOL     hw 1979   4.137   6.903   6.944  0.2712 -1.5477  0.3425
  495SOL     vw 1980   4.148   6.926   6.861  0.1650  0.2458  0.7689
  496SOL     ow 1981   5.631   5.978   6.309  0.5528  0.0138 -0.2287
  496SOL     hw 1982   5.569   5.936   6.369 -0.8254  3.6398  1.1843
  496SOL     hw 1983   5.677   5.905   6.267 -0.7182 -2.7992  2.7946
  496SOL     vw 1984   5.629   5.963   6.312  0.2031  0.1214  0.3564
  497SOL     ow 1985   6.215   0.423   4.897 -0.7568 -0.4148  0.2018
  497SOL     hw 1986   6.150   0.492   4.884  0.3912  0.9286  1.1682
  497SOL     hw 1987   6.205   0.365   4.822 -2.7488 -0.0176  0.1231
  497SOL     vw 1988   6.205   0.425   4.885 -0.8683 -0.1851  0.3190
  498SOL     ow 1989   2.798   3.626   2.479  0.2741 -0.5031  0.0059
  498SOL     hw 1990   2.762   3.715   2.485  1.3813  0.2166 -2.5996
  498SOL     hw 1991   2.727   3.569   2.508 -0.0921  1.1984  2.9054
  498SOL     vw 1992   2.784   3.630   2.484  0.3718 -0.1836  0.0447
  499SOL     ow 1993   4.897   0.080   0.979 -0.2093 -0.1875  0.2288
  499SOL     hw 1994   4.930   0.018   0.914 -1.9980 -0.4043 -0.5421
  499SOL     hw 1995   4.910   0.166   0.939 -0.5200 -0.2673 -0.0464
  499SOL     vw 1996   4.903   0.083   0.965 -0.4861 -0.2266  0.0907
  500SOL     ow 1997   1.350   0.188   1.249  0.3275 -0.1294 -0.0175
  500SOL     hw 1998   1.431   0.235   1.269  0.6386 -0.3428 -0.7211
  500SOL     hw 1999   1.282   0.237   1.295  0.8433  0.0943  0.5264
  500SOL     vw 2000   1.352   0.201   1.257  0.4367 -0.1281 -0.0386
  501SOL     ow 2001   7.339   5.452   6.560  0.4419  0.3123  0.3730
  501SOL     hw 2002   7.263   5.496   6.523 -0.7551 -1.8237  0.0807
  501SOL     hw 2003   7.378   5.405   6.486 -0.0148 -1.3211  1.1062
  501SOL     vw 2004   7.334   5.451   6.546  0.2234 -0.1850  0.4311
  502SOL     ow 2005   6.643   6.691   4.660 -0.2974  0.3572 -0.2988
  502SOL     hw 2006   6.555   6.661   4.637  0.3742 -0.1279 -2.4173
  502SOL     hw 2007   6.674   6.738   4.583  2.3034 -1.7419 -0.6823
  502SOL     vw 2008   6.635   6.693   4.647  0.1345  0.0165 -0.6289
  503SOL     ow 2009   6.882   6.195   2.703  0.4499 -0.6919  0.1003
  503SOL     hw 2010   6.843   6.145   2.631 -1.2176  1.5122 -0.6566
  503SOL     hw 2011   6.810   6.245   2.740  1.5583 -0.6625  2.4176
  503SOL     vw 2012   6.868   6.195   2.698  0.3762 -0.3972  0.3062
  504SOL     ow 2013   6.247   3.653   5.211 -0.1272  0.2992 -0.5157
  504SOL     hw 2014   6.285   3.723   5.264 -1.9463  1.0738 -0.1818
  504SOL     hw 2015   6.254   3.684   5.121  1.0857 -0.1126 -0.5886
  504SOL     vw 2016   6.253   3.666   5.206 -0.2074  0.3471 -0.4811
  505SOL     ow 2017   0.611   6.135   2.060 -0.3773  0.1946  0.1919
  505SOL     hw 2018   0.624   6.224   2.092 -2.2245  1.0866 -1.2651
  505SOL     hw 2019   0.526   6.109   2.095  0.9279 -1.7844  2.1086
  505SOL     vw 2020   0.601   6.144   2.069 -0.4488  0.0515  0.2524
  506SOL     ow 2021   5.664   6.353   6.837 -0.0781 -0.2247  0.1086
  506SOL     hw 2022   5.602   6.296   6.792 -0.9767  0.7448  0.0808
  506SOL     hw 2023   5.636   6.352   6.929  0.0752 -0.0594  0.1580
  506SOL     vw 2024   5.652   6.346   6.843 -0.1762 -0.0749  0.1116
  507SOL     ow 2025   1.200   0.223   0.942 -0.0530  0.1764  0.2449
  507SOL     hw 2026   1.212   0.156   1.010 -1.5559 -0.5514 -0.1511
  507SOL     hw 2027   1.275   0.280   0.952  0.3028 -0.4869  1.8620
  507SOL     vw 2028   1.211   0.221   0.953 -0.2043 -0.0071  0.4060
  508SOL     ow 2029   0.451   6.775   5.720  0.1144 -0.0814  0.2392
  508SOL     hw 2030   0.442   6.864   5.685  2.0343  0.1559  0.2072
  508SOL     hw 2031   0.535   6.777   5.767 -0.4325 -1.5266  1.3509
  508SOL     vw 2032   0.461   6.787   5.722  0.2955 -0.2408  0.3817
  509SOL     ow 2033   1.464   2.554   2.298  0.2580 -0.0182 -0.0630
  509SOL     hw 2034   1.450   2.469   2.256  1.1886 -0.4183  0.4179
  509SOL     hw 2035   1.397   2.558   2.366 -1.4487  0.7534 -1.7126
  509SOL     vw 2036   1.453   2.543   2.301  0.1556  0.0308 -0.2171
  510SOL     ow 2037   0.524   6.556   5.280  0.4994  0.3260  0.2811
  510SOL     hw 2038   0.495   6.577   5.191  1.3538 -1.2841 -0.4081
  510SOL     hw 2039   0.617   6.579   5.281  0.6917 -0.4298  0.4846
  510SOL     vw 2040   0.532   6.562   5.268  0.6375  0.0138  0.2172
  511SOL     ow 2041   4.742   6.817   5.457  0.5013  0.2116 -0.7508
  511SOL     hw 2042   4.770   6.727   5.472 -0.4153 -0.1780 -1.3228
  511SOL     hw 2043   4.688   6.813   5.379  0.0259  1.1812 -0.4910
  511SOL     vw 2044   4.738   6.805   5.449  0.3173  0.2880 -0.7920
  512SOL     ow 2045   0.543   6.436   2.156  0.5495  0.3748  0.0423
  512SOL     hw 2046   0.450   6.416   2.152  0.9826 -2.2715  1.0866
  512SOL     hw 2047   0.558   6.465   2.246  1.1428 -2.2211  0.8772
  512SOL     vw 2048   0.533   6.437   2.167  0.6849 -0.3169  0.2904
  513SOL     ow 2049   5.050   6.703   2.903  0.3824 -0.2016  0.2532
  513SOL     hw 2050   5.056   6.737   2.814 -1.1864 -0.4093  0.0395
  513SOL     hw 2051   5.127   6.646   2.912  1.0153  0.4812 -0.6594
  513SOL     vw 2052   5.061   6.700   2.892  0.2587 -0.1390  0.1045
  514SOL     ow 2053   0.695   2.855   5.697 -0.6342  0.1118 -0.1910
  514SOL     hw 2054   0.627   2.905   5.741 -0.4732 -0.8420  1.2088
  514SOL     hw 2055   0.763   2.919   5.676  0.1095  0.3510  2.6328
  514SOL     vw 2056   0.695   2.870   5.700 -0.5149  0.0175  0.3662
  515SOL     ow 2057   0.172   0.393   6.927  1.0065  0.0792 -0.0164
  515SOL     hw 2058   0.080   0.368   6.935  0.9896 -0.7622 -2.1729
  515SOL     hw 2059   0.213   0.358   7.005 -0.5152  0.6681  1.1140
  515SOL     vw 2060   0.165   0.385   6.939  0.8035  0.0459 -0.1516
  516SOL     ow 2061   2.004   2.443   3.232  0.0588 -0.6935  0.2969
  516SOL     hw 2062   1.995   2.371   3.294 -0.7702  0.3076  1.3771
  516SOL     hw 2063   2.015   2.521   3.286  1.6196 -0.0652 -0.8616
  516SOL     vw 2064   2.004   2.444   3.247  0.1553 -0.4786  0.2866
  517SOL     ow 2065   0.714   0.739   6.502  0.1639 -0.3086  0.1422
  517SOL     hw 2066   0.685   0.649   6.494 -1.5916  0.3529 -1.7971
  517SOL     hw 2067   0.682   0.767   6.588 -0.5568 -1.1223  0.1506
  517SOL     vw 2068   0.706   0.731   6.512 -0.1628 -0.3287 -0.1123
  518SOL     ow 2069   4.314   5.638   1.243 -0.3587  0.5533 -0.0128
  518SOL     hw 2070   4.325   5.733   1.240  0.7211  0.5252  1.7542
  518SOL     hw 2071   4.401   5.605   1.263 -0.7452 -0.8309 -0.5309
  518SOL     vw 2072   4.327   5.646   1.245 -0.2670  0.3672  0.1519
  519SOL     ow 2073   2.474   7.291   1.090 -0.3079  0.7499 -0.3782
  519SOL     hw 2074   2.454   7.374   1.132 -1.3869  0.6075 -0.5850
  519SOL     hw 2075   2.521   7.315   1.010 -1.2827  1.2216 -0.8256
  519SOL     vw 2076   2.478   7.305   1.085 -0.5789  0.7932 -0.4644
  520SOL     ow 2077   3.486   3.236   7.312  0.5163 -0.0761  0.7368
  520SOL     hw 2078   3.390   3.235   7.312  0.5113 -0.8114 -0.1044
  520SOL     hw 2079   3.509   3.319   7.270  0.2481  0.1142  0.9599
  520SOL     vw 2080   3.476   3.246   7.306  0.4803 -0.1479  0.6552
  521SOL     ow 2081   6.030   5.227   1.685  0.2368  0.1565  0.9523
  521SOL     hw 2082   6.066   5.315   1.674  0.7818 -0.2236 -0.5918
  521SOL     hw 2083   6.086   5.171   1.632 -2.9505 -0.3659 -2.3030
  521SOL     vw 2084   6.042   5.231   1.677 -0.1118  0.0374  0.3191
  522SOL     ow 2085   4.224   1.997   4.555 -0.3315  0.2490  0.8280
  522SOL     hw 2086   4.244   2.073   4.501 -1.5840  0.1994  0.2502
  522SOL     hw 2087   4.128   1.992   4.554 -0.2666 -1.4590  0.6664
  522SOL     vw 2088   4.214   2.007   4.547 -0.4880  0.0169  0.7305
  523SOL     ow 2089   1.688   2.335   4.119  0.0031 -0.5623 -0.3251
  523SOL     hw 2090   1.778   2.354   4.093 -0.7105  0.7773 -2.0245
  523SOL     hw 2091   1.634   2.388   4.059 -1.8756  0.2807  1.9461
  523SOL     vw 2092   1.693   2.345   4.107 -0.3390 -0.2743 -0.2496
  524SOL     ow 2093   5.717   1.783   4.255 -0.6719  0.1080 -0.2552
  524SOL     hw 2094   5.790   1.749   4.203 -0.9456  0.5762 -0.9626
  524SOL     hw 2095   5.759   1.827   4.328 -0.2844 -0.7918  0.0813
  524SOL     vw 2096   5.732   1.784   4.257 -0.6568  0.0510 -0.3042
  525SOL     ow 2097   5.544   1.684   0.446  0.8630  0.1802 -0.5599
  525SOL     hw 2098   5.587   1.604   0.475  0.2691 -0.4172 -1.2858
  525SOL     hw 2099   5.595   1.713   0.370  2.4542  1.7763  1.0283
  525SOL     vw 2100   5.556   1.677   0.440  0.9947  0.3120 -0.4461
  526SOL     ow 2101   0.706   5.308   1.395  0.0829 -0.2007 -0.3668
  526SOL     hw 2102   0.691   5.243   1.326 -0.1449 -0.2258 -0.2968
  526SOL     hw 2103   0.661   5.271   1.472  1.3163 -0.7463  0.1268
  526SOL     vw 2104   0.698   5.294   1.396  0.2156 -0.2761 -0.2924
  527SOL     ow 2105   7.248   2.221   0.728 -0.1501 -1.0439  0.2960
  527SOL     hw 2106   7.189   2.166   0.779  0.5488 -1.8095  0.3085
  527SOL     hw 2107   7.191   2.279   0.678 -1.1420 -3.8271 -2.0953
  527SOL     vw 2108   7.233   2.221   0.728 -0.1891 -1.5121 -0.0179
  528SOL     ow 2109   6.304   3.135   4.704  0.0243  1.1435 -0.1622
  528SOL     hw 2110   6.382   3.125   4.759 -1.2210  0.4408  1.5403
  528SOL     hw 2111   6.336   3.181   4.626  1.9721  1.5915  0.8399
  528SOL     vw 2112   6.319   3.139   4.701  0.1168  1.1097  0.1948
  529SOL     ow 2113   5.229   4.147   2.367 -0.8194  0.4617 -1.1002
  529SOL     hw 2114   5.319   4.174   2.347 -1.4157  2.0940 -1.7949
  529SOL     hw 2115   5.237   4.056   2.394  1.9388  1.9836  5.1539
  529SOL     vw 2116   5.242   4.139   2.368 -0.5343  0.8779 -0.3667
  530SOL     ow 2117   3.850   4.248   2.887 -0.1027 -0.3310  0.3426
  530SOL     hw 2118   3.880   4.297   2.964 -1.2091 -1.0433  1.2778
  530SOL     hw 2119   3.842   4.157   2.918  0.5216 -0.8542 -0.9484
  530SOL     vw 2120   3.853   4.242   2.901 -0.1664 -0.4942  0.2959
  531SOL     ow 2121   5.530   6.696   2.713 -0.3043 -0.7539 -0.1888
  531SOL     hw 2122   5.472   6.763   2.749  2.1067  0.2130  2.2818
  531SOL     hw 2123   5.587   6.743   2.653 -2.5251 -1.8917 -3.5145
  531SOL     vw 2124   5.530   6.711   2.710 -0.2794 -0.7765 -0.3017
  532SOL     ow 2125   1.064   6.734   0.953  0.5097 -0.4537  0.0931
  532SOL     hw 2126   1.119   6.697   0.884 -0.2082 -0.7909 -0.3120
  532SOL     hw 2127   1.099   6.697   1.034 -0.8826 -2.9977 -0.3764
  532SOL     vw 2128   1.076   6.724   0.954  0.2313 -0.8337 -0.0223
  533SOL     ow 2129   4.409   2.316   7.111  0.1731  0.5272  0.1028
  533SOL     hw 2130   4.468   2.333   7.037 -1.1401 -0.0447 -1.1157
  533SOL     hw 2131   4.408   2.221   7.119 -1.1112  0.4855 -0.3568
  533SOL     vw 2132   4.417   2.306   7.102 -0.1698  0.4463 -0.1183
  534SOL     ow 2133   2.433   6.383   2.732 -0.3308 -0.2409 -0.5911
  534SOL     hw 2134   2.454   6.291   2.714 -1.3514 -0.4139 -0.9744
  534SOL     hw 2135   2.339   6.389   2.716 -0.4630  0.6382  0.4409
  534SOL     vw 2136   2.423   6.372   2.728 -0.4828 -0.1478 -0.5054
  535SOL     ow 2137   1.275   6.246   1.555  0.3261  0.3360  0.2705
  535SOL     hw 2138   1.285   6.286   1.469  1.5294 -2.0224 -0.7853
  535SOL     hw 2139   1.180   6.248   1.570  0.0251  0.3261 -1.3652
  535SOL     vw 2140   1.263   6.251   1.545  0.4452  0.0238 -0.0846
  536SOL     ow 2141   2.997   3.170   2.080 -0.1042  0.4834  0.2538
  536SOL     hw 2142   3.087   3.157   2.048  0.1298 -1.7676  1.6087
  536SOL     hw 2143   2.947   3.098   2.042 -1.0369  0.9647  0.5429
  536SOL     vw 2144   3.003   3.159   2.071 -0.1963  0.2500  0.4706
  537SOL     ow 2145   0.050   6.004   4.150  0.5662 -0.1798  0.6898
  537SOL     hw 2146   0.137   6.038   4.170  0.9116 -0.9941  0.5839
  537SOL     hw 2147   0.061   5.958   4.067 -0.5386  2.0006 -0.7837
  537SOL     vw 2148   0.063   6.003   4.141  0.4661  0.0005  0.4816
  538SOL     ow 2149   4.476   2.762   5.215  0.2204  0.8758 -0.3025
  538SOL     hw 2150   4.396   2.807   5.189  0.2753  1.0362 -0.1981
  538SOL     hw 2151   4.503   2.713   5.137 -0.6592 -0.1881  0.0330
  538SOL     vw 2152   4.469   2.761   5.201  0.1116  0.7567 -0.2444
  539SOL     ow 2153   1.861   0.437   4.952 -0.0667  0.8968  0.0816
  539SOL     hw 2154   1.932   0.501   4.938  0.8456 -0.1941 -0.4328
  539SOL     hw 2155   1.800   0.482   5.011  0.4522  2.3114 -0.4023
  539SOL     vw 2156   1.862   0.452   4.958  0.1221  0.9395 -0.0498
  540SOL     ow 2157   0.187   3.078   5.810  0.1281 -0.8191  0.5003
  540SOL     hw 2158   0.136   3.044   5.736 -1.3413 -1.2410  1.6854
  540SOL     hw 2159   0.138   3.053   5.888  1.8366 -0.7049  1.6757
  540SOL     vw 2160   0.174   3.070   5.810  0.1596 -0.8597  0.8116
  541SOL     ow 2161   3.562   3.165   6.943  0.4749 -0.2547  0.0947
  541SOL     hw 2162   3.471   3.163   6.972  1.2748  1.7614  3.2968
  541SOL     hw 2163   3.571   3.249   6.896  0.9150  0.0884  0.7794
  541SOL     vw 2164   3.551   3.176   6.940  0.6385  0.0567  0.6077
  542SOL     ow 2165   2.502   1.006   6.767 -0.4631 -0.5887 -0.4881
  542SOL     hw 2166   2.465   1.042   6.848  0.6540  0.2432 -0.3187
  542SOL     hw 2167   2.557   1.077   6.732 -2.4299 -0.1852 -3.0528
  542SOL     vw 2168   2.504   1.020   6.773 -0.5753 -0.4257 -0.8039
  543SOL     ow 2169   4.592   4.106   5.209  0.2608  0.5463 -0.0085
  543SOL     hw 2170   4.525   4.122   5.143  2.1112 -1.2340 -2.5259
  543SOL     hw 2171   4.544   4.083   5.288 -2.0562  2.3967 -0.7748
  543SOL     vw 2172   4.577   4.105   5.211  0.1993  0.5555 -0.4418
  544SOL     ow 2173   1.349   3.722   6.684 -0.3054 -0.4188 -0.0754
  544SOL     hw 2174   1.275   3.694   6.739 -0.3559 -0.2169 -0.0405
  544SOL     hw 2175   1.357   3.652   6.618  0.3797 -1.1552  0.7619
  544SOL     vw 2176   1.340   3.709   6.683 -0.2217 -0.4894  0.0398
  545SOL     ow 2177   5.051   0.338   4.655 -0.5873  0.1752 -0.2668
  545SOL     hw 2178   5.042   0.269   4.721 -1.6685  0.7028  0.1687
  545SOL     hw 2179   4.963   0.345   4.616 -0.4607  1.2177 -0.3885
  545SOL     vw 2180   5.038   0.330   4.659 -0.7133  0.3823 -0.2255
  546SOL     ow 2181   2.864   0.129   3.177 -0.1155  0.9469  0.1156
  546SOL     hw 2182   2.822   0.204   3.218 -0.4419  1.1145 -0.5170
  546SOL     hw 2183   2.796   0.089   3.123  0.2527  0.6153 -0.1135
  546SOL     vw 2184   2.850   0.134   3.175 -0.1100  0.9252  0.0018
  547SOL     ow 2185   0.273   0.117   6.275 -0.2802  0.0503 -0.0846
  547SOL     hw 2186   0.331   0.112   6.200  1.2637 -0.6715  1.1062
  547SOL     hw 2187   0.268   0.210   6.296 -4.3473  0.9628 -3.6795
  547SOL     vw 2188   0.280   0.128   6.268 -0.6131  0.0755 -0.4015
  548SOL     ow 2189   3.796   3.264   1.746 -0.4881  0.0487  0.2501
  548SOL     hw 2190   3.886   3.266   1.714 -0.7379  1.0635 -0.4326
  548SOL     hw 2191   3.805   3.270   1.842  0.1477  3.9297  0.1054
  548SOL     vw 2192   3.809   3.265   1.755 -0.4370  0.6946  0.1410
  549SOL     ow 2193   0.634   2.551   0.818 -0.5710  0.0688 -0.0252
  549SOL     hw 2194   0.596   2.535   0.905 -0.9686 -0.0436 -0.2199
  549SOL     hw 2195   0.655   2.464   0.785 -0.3003  0.1206  0.0115
  549SOL     vw 2196   0.632   2.538   0.825 -0.5878  0.0608 -0.0460
  550SOL     ow 2197   5.099   5.393   0.587  0.4106  0.4719 -0.2058
  550SOL     hw 2198   5.192   5.393   0.608  0.6643  1.2560 -1.2709
  550SOL     hw 2199   5.065   5.473   0.626  0.5429  1.0688 -1.2911
  550SOL     vw 2200   5.107   5.403   0.595  0.4616  0.6542 -0.4895
  551SOL     ow 2201   1.003   5.428   5.656  0.1418  0.3814  0.1708
  551SOL     hw 2202   1.052   5.471   5.726  1.6629  0.7555 -1.0692
  551SOL     hw 2203   1.012   5.334   5.675  0.3895  0.4866  0.5805
  551SOL     vw 2204   1.011   5.421   5.668  0.3752  0.4447  0.0613
  552SOL     ow 2205   3.071   1.688   1.577  0.2113 -0.2456  0.2783
  552SOL     hw 2206   3.137   1.710   1.511  2.7400 -3.5646  1.4052
  552SOL     hw 2207   2.988   1.690   1.531  1.7502 -1.5475 -2.8322
  552SOL     vw 2208   3.069   1.691   1.562  0.7480 -0.8553  0.0167
  553SOL     ow 2209   3.032   0.219   6.885  0.2861 -0.0114 -0.0334
  553SOL     hw 2210   3.128   0.225   6.889  0.2326  1.3327 -0.3382
  553SOL     hw 2211   3.011   0.140   6.934  1.3136  1.6746  3.4511
  553SOL     vw 2212   3.042   0.209   6.892  0.4146  0.3884  0.3860
  554SOL     ow 2213   4.495   3.276   5.430 -0.1439 -0.5538  0.2637
  554SOL     hw 2214   4.424   3.320   5.477  0.5880  1.7406 -0.6414
  554SOL     hw 2215   4.567   3.339   5.432  0.0906 -0.5032 -3.4979
  554SOL     vw 2216   4.495   3.290   5.437 -0.0165 -0.2444 -0.3521
  555SOL     ow 2217   1.815   3.549   3.420  0.8658 -0.3191  0.4064
  555SOL     hw 2218   1.761   3.594   3.356  0.5903 -0.8520  0.2608
  555SOL     hw 2219   1.776   3.462   3.428  0.9690 -0.2962  1.2072
  555SOL     vw 2220   1.803   3.543   3.413  0.8430 -0.3864  0.4929
  556SOL     ow 2221   5.302   6.580   4.918 -1.4993 -0.2362  0.0217
  556SOL     hw 2222   5.325   6.543   5.004  1.7216 -0.4576 -0.8061
  556SOL     hw 2223   5.206   6.582   4.918 -1.6776 -2.2421  2.7588
  556SOL     vw 2224   5.292   6.575   4.930 -1.0977 -0.5300  0.2737
  557SOL     ow 2225   0.491   3.749   0.600 -0.0966 -0.2365 -0.0498
  557SOL     hw 2226   0.537   3.819   0.553  0.3113  0.1486  0.8960
  557SOL     hw 2227   0.458   3.792   0.680 -0.5753 -0.9274  0.1353
  557SOL     vw 2228   0.493   3.764   0.605 -0.1060 -0.2769  0.0995
  558SOL     ow 2229   0.183   6.854   0.192  0.1316 -0.2219 -0.4063
  558SOL     hw 2230   0.256   6.916   0.187  0.2080 -0.1500  1.0107
  558SOL     hw 2231   0.140   6.875   0.275 -0.4236 -1.4303 -0.3661
  558SOL     vw 2232   0.187   6.865   0.202  0.0684 -0.3719 -0.2140
  559SOL     ow 2233   5.813   5.049   3.712  0.7269  0.2210 -0.1275
  559SOL     hw 2234   5.819   4.992   3.635  1.6212 -1.1686  0.9107
  559SOL     hw 2235   5.719   5.058   3.728  0.5470  0.0696 -1.0435
  559SOL     vw 2236   5.802   5.043   3.704  0.8211  0.0179 -0.1112
  560SOL     ow 2237   1.626   1.568   6.484  0.4233 -0.9997  0.1938
  560SOL     hw 2238   1.649   1.601   6.397 -0.4446 -1.6812 -0.2999
  560SOL     hw 2239   1.702   1.590   6.538  0.5908  0.2808 -0.5040
  560SOL     vw 2240   1.639   1.575   6.480  0.3310 -0.9207  0.0365
  561SOL     ow 2241   2.591   0.264   5.974  0.0225  0.5993  0.2305
  561SOL     hw 2242   2.581   0.192   6.036 -0.3521  0.8711  0.4905
  561SOL     hw 2243   2.590   0.222   5.888  1.1049  0.1600  0.4204
  561SOL     vw 2244   2.589   0.249   5.971  0.1158  0.5772  0.2897
  562SOL     ow 2245   1.630   0.922   2.685 -1.1921  0.6932 -0.1859
  562SOL     hw 2246   1.608   0.908   2.777  1.8544 -0.8344  0.4634
  562SOL     hw 2247   1.725   0.932   2.685 -1.3925  4.3555 -2.8348
  562SOL     vw 2248   1.640   0.921   2.697 -0.8166  0.9748 -0.4498
  563SOL     ow 2249   1.898   0.212   5.932  1.0296  0.6353  0.3097
  563SOL     hw 2250   1.929   0.261   6.008  2.1162  0.5578 -0.0666
  563SOL     hw 2251   1.965   0.145   5.917  0.5190  0.2493 -0.3329
  563SOL     vw 2252   1.911   0.210   5.940  1.1057  0.5741  0.1752
  564SOL     ow 2253   6.568   2.667   0.590  0.2681 -0.0645  0.2806
  564SOL     hw 2254   6.655   2.627   0.581 -0.2533 -1.5691  1.6103
  564SOL     hw 2255   6.575   2.722   0.668 -0.0295 -0.3675  0.5218
  564SOL     vw 2256   6.581   2.669   0.599  0.1605 -0.3030  0.4878
  565SOL     ow 2257   6.716   3.586   6.279  0.0935 -0.3915 -0.9405
  565SOL     hw 2258   6.623   3.564   6.281 -0.7022  2.5058  0.8361
  565SOL     hw 2259   6.720   3.671   6.235  1.4640  0.8906  1.4441
  565SOL     vw 2260   6.705   3.594   6.273  0.1693  0.1601 -0.3917
  566SOL     ow 2261   3.097   3.968   6.539  0.2454 -0.0642  0.0922
  566SOL     hw 2262   3.192   3.982   6.542  0.3470 -0.4349 -1.1520
  566SOL     hw 2263   3.080   3.910   6.614  1.2396 -1.2884 -0.5843
  566SOL     vw 2264   3.107   3.962   6.550  0.3898 -0.2747 -0.1609
  567SOL     ow 2265   5.881   1.406   3.198 -0.2329  0.6399 -0.0942
  567SOL     hw 2266   5.801   1.381   3.150 -1.3814  1.1141  1.4804
  567SOL     hw 2267   5.853   1.411   3.289  2.4459 -2.5499  1.0471
  567SOL     vw 2268   5.867   1.404   3.204 -0.0308  0.2816  0.2640
  568SOL     ow 2269   0.361   3.734   7.218  0.1642 -0.5915 -0.9309
  568SOL     hw 2270   0.379   3.770   7.305  0.5140 -0.5082 -1.0345
  568SOL     hw 2271   0.396   3.800   7.158  1.8328 -1.5847 -1.1266
  568SOL     vw 2272   0.368   3.748   7.222  0.4305 -0.7116 -0.9706
  569SOL     ow 2273   3.133   6.905   5.952 -0.1544 -0.2587  0.1644
  569SOL     hw 2274   3.070   6.838   5.926 -2.4523  2.1724 -1.1353
  569SOL     hw 2275   3.213   6.884   5.905 -1.1969 -1.3972 -1.1729
  569SOL     vw 2276   3.135   6.894   5.943 -0.5951 -0.0885 -0.1836
  570SOL     ow 2277   6.215   4.444   2.713  0.5252  0.0006 -0.5829
  570SOL     hw 2278   6.257   4.521   2.751  0.6889 -0.7597  0.8193
  570SOL     hw 2279   6.218   4.378   2.782 -0.7331 -0.8762 -1.3299
  570SOL     vw 2280   6.221   4.446   2.727  0.3812 -0.2155 -0.4964
  571SOL     ow 2281   1.893   0.931   1.519 -0.1232  0.0034 -0.3094
  571SOL     hw 2282   1.917   0.973   1.437 -0.7899  0.3614 -0.3289
  571SOL     hw 2283   1.802   0.957   1.533 -0.4273 -1.0958 -0.1147
  571SOL     vw 2284   1.884   0.940   1.510 -0.2512 -0.0944 -0.2863
  572SOL     ow 2285   3.020   1.319   6.318 -0.7803  0.1358 -0.1451
  572SOL     hw 2286   3.001   1.300   6.410 -0.7309 -0.5095 -0.2627
  572SOL     hw 2287   3.026   1.233   6.277 -3.7402  0.4270 -1.3732
  572SOL     vw 2288   3.019   1.305   6.325 -1.1643  0.0891 -0.3226
  573SOL     ow 2289   5.771   0.139   3.379  0.3924  0.7860 -0.3874
  573SOL     hw 2290   5.798   0.227   3.405  2.0651  0.0937  0.3218
  573SOL     hw 2291   5.813   0.081   3.443 -3.1155 -0.4010  1.0942
  573SOL     vw 2292   5.780   0.143   3.391  0.1500  0.5380 -0.0983
  574SOL     ow 2293   1.173   4.338   1.064 -0.3327 -0.2463 -0.1482
  574SOL     hw 2294   1.123   4.260   1.043  0.8624 -0.8469 -0.8370
  574SOL     hw 2295   1.182   4.385   0.981 -1.6497  1.0245  0.3761
  574SOL     vw 2296   1.168   4.334   1.050 -0.3487 -0.1581 -0.1699
  575SOL     ow 2297   6.490   2.034   0.610 -0.0036 -0.1059  0.4770
  575SOL     hw 2298   6.576   2.073   0.601  0.6273 -1.6852 -0.7464
  575SOL     hw 2299   6.499   1.973   0.684  0.4056 -1.3572 -0.5580
  575SOL     vw 2300   6.502   2.031   0.619  0.1338 -0.4793  0.1790
  576SOL     ow 2301   2.387   5.983   4.283 -0.3980 -0.1331 -0.1702
  576SOL     hw 2302   2.397   6.078   4.290  1.3392 -0.3860  1.2796
  576SOL     hw 2303   2.294   5.968   4.302 -0.2675  1.1191  1.7010
  576SOL     vw 2304   2.376   5.993   4.287 -0.1515 -0.0014  0.2680
  577SOL     ow 2305   3.061   7.132   3.180 -0.5313  0.0085 -0.1821
  577SOL     hw 2306   3.042   7.145   3.087 -0.7146  1.3550  0.0287
  577SOL     hw 2307   2.981   7.095   3.217 -1.2895  1.6295 -0.1319
  577SOL     vw 2308   3.048   7.129   3.173 -0.6555  0.4003 -0.1476
  578SOL     ow 2309   6.601   4.781   6.935  0.3145 -0.7154 -0.4615
  578SOL     hw 2310   6.652   4.745   6.862 -1.2647 -1.6051 -1.1648
  578SOL     hw 2311   6.512   4.786   6.902  0.0840  1.8308  0.3905
  578SOL     vw 2312   6.596   4.777   6.921  0.0758 -0.4971 -0.4420
  579SOL     ow 2313   3.339   3.203   4.217 -0.1750  0.8561  0.1419
  579SOL     hw 2314   3.315   3.123   4.169 -0.6110  0.6121  0.7655
  579SOL     hw 2315   3.416   3.236   4.170 -0.7785  0.8022 -0.9317
  579SOL     vw 2316   3.346   3.197   4.204 -0.3121  0.8168  0.0825
  580SOL     ow 2317   1.175   4.455   0.817  0.3826 -0.8370 -0.0748
  580SOL     hw 2318   1.237   4.519   0.783 -0.0041  1.8699  3.6555
  580SOL     hw 2319   1.089   4.493   0.802  0.0272 -1.3030  0.7074
  580SOL     vw 2320   1.172   4.468   0.811  0.2847 -0.5414  0.5206
  581SOL     ow 2321   0.894   6.206   1.921 -0.0974 -0.8729  0.0887
  581SOL     hw 2322   0.942   6.286   1.901  0.7271 -1.0808  1.1075
  581SOL     hw 2323   0.962   6.139   1.933 -0.4699 -0.9138  2.7284
  581SOL     vw 2324   0.910   6.207   1.920 -0.0378 -0.9058  0.5714
  582SOL     ow 2325   4.226   4.736   7.325 -0.2178 -0.6409 -0.2809
  582SOL     hw 2326   4.290   4.802   7.298 -1.6234  0.7419 -0.4323
  582SOL     hw 2327   4.242   4.661   7.268  0.3743  0.1990 -1.2401
  582SOL     vw 2328   4.237   4.735   7.314 -0.3250 -0.3479 -0.4274
  583SOL     ow 2329   5.395   2.624   3.002  0.5559 -0.4335 -0.2239
  583SOL     hw 2330   5.327   2.653   3.063 -1.3245 -0.8324 -1.9968
  583SOL     hw 2331   5.461   2.693   3.006 -0.7898  0.9067  0.3027
  583SOL     vw 2332   5.395   2.637   3.010  0.1302 -0.3092 -0.3884
  584SOL     ow 2333   5.737   6.867   2.542  0.1101 -0.0089  0.7285
  584SOL     hw 2334   5.805   6.866   2.475 -0.0783  3.2689  0.2970
  584SOL     hw 2335   5.655   6.879   2.493 -0.6848 -2.2923  1.3452
  584SOL     vw 2336   5.735   6.868   2.527 -0.0196  0.1223  0.7528
  585SOL     ow 2337   4.465   4.260   1.370 -0.3508  0.3706  0.0100
  585SOL     hw 2338   4.507   4.283   1.453  0.2354  1.9475 -0.6885
  585SOL     hw 2339   4.501   4.173   1.348 -0.5948 -0.1086  1.4321
  585SOL     vw 2340   4.475   4.251   1.378 -0.3059  0.5155  0.1054
  586SOL     ow 2341   1.072   5.953   2.191 -0.1453  0.7402 -0.1081
  586SOL     hw 2342   1.133   5.904   2.246 -0.0389  0.4633 -0.4669
  586SOL     hw 2343   1.070   6.040   2.229 -1.7217 -0.0036  1.6452
  586SOL     vw 2344   1.080   5.958   2.203 -0.3393  0.6053  0.0758
  587SOL     ow 2345   6.362   4.001   1.693 -0.2075  0.2111  0.0264
  587SOL     hw 2346   6.404   3.998   1.779 -0.1982 -1.9455  0.0017
  587SOL     hw 2347   6.302   4.075   1.698  0.9193  1.1036  1.3228
  587SOL     vw 2348   6.360   4.011   1.705 -0.0577  0.0443  0.1942
  588SOL     ow 2349   1.910   3.544   6.983  0.3989  0.2628 -0.5053
  588SOL     hw 2350   1.835   3.558   6.925  0.8169 -2.4924 -1.9125
  588SOL     hw 2351   1.891   3.460   7.025  1.8340  0.4485  0.5729
  588SOL     vw 2352   1.898   3.535   6.981  0.6434 -0.0763 -0.5488
  589SOL     ow 2353   2.722   6.369   4.943  0.7784  0.0462  0.3426
  589SOL     hw 2354   2.654   6.316   4.903 -1.0744  1.9078  0.8157
  589SOL     hw 2355   2.709   6.358   5.038 -0.3108  1.9631  0.4886
  589SOL     vw 2356   2.711   6.361   4.951  0.3902  0.5448  0.4244
  590SOL     ow 2357   3.715   2.344   2.356  0.1396 -0.4409 -0.6239
  590SOL     hw 2358   3.649   2.406   2.324  0.7982 -0.4647 -2.0998
  590SOL     hw 2359   3.696   2.263   2.310 -0.2442 -1.1514  0.7359
  590SOL     vw 2360   3.703   2.342   2.346  0.1758 -0.5376 -0.6392
  591SOL     ow 2361   3.678   4.954   4.888 -0.0285  0.2361  0.4492
  591SOL     hw 2362   3.648   4.867   4.864 -1.0290  1.1659 -1.8958
  591SOL     hw 2363   3.754   4.938   4.945 -1.4384 -2.1219  1.8402
  591SOL     vw 2364   3.684   4.941   4.893 -0.3467  0.0477  0.3233
  592SOL     ow 2365   5.996   3.496   4.367  0.6298 -0.7741  0.8686
  592SOL     hw 2366   5.962   3.525   4.452 -0.0601 -1.8578  0.9739
  592SOL     hw 2367   5.930   3.437   4.333  0.2261  0.7028 -1.1013
  592SOL     vw 2368   5.983   3.492   4.374  0.4857 -0.7223  0.6225
  593SOL     ow 2369   3.801   4.088   2.645 -0.3490 -0.1879  0.4530
  593SOL     hw 2370   3.853   4.009   2.630 -1.5439 -0.9055 -0.0396
  593SOL     hw 2371   3.710   4.060   2.633 -0.8015  1.2703  0.2420
  593SOL     vw 2372   3.796   4.074   2.642 -0.5664 -0.0901  0.3601
  594SOL     ow 2373   1.093   2.844   4.082  0.6685  0.3839  0.3439
  594SOL     hw 2374   1.013   2.857   4.134 -1.7134  1.9142 -3.3164
  594SOL     hw 2375   1.151   2.915   4.111 -0.1130  0.5299  1.6490
  594SOL     vw 2376   1.090   2.855   4.093  0.2511  0.6050  0.0331
  595SOL     ow 2377   2.681   0.065   4.226 -0.0692 -0.2810  0.3817
  595SOL     hw 2378   2.692   0.079   4.320 -1.5286 -3.1362  1.1071
  595SOL     hw 2379   2.662  -0.029   4.218 -0.8533  0.0292 -2.6807
  595SOL     vw 2380   2.680   0.054   4.238 -0.3650 -0.6168  0.0734
  596SOL     ow 2381   2.557   4.819   2.598  0.1696  0.0814  0.4716
  596SOL     hw 2382   2.630   4.851   2.653 -0.1811 -1.1151  1.6908
  596SOL     hw 2383   2.512   4.756   2.654  0.2949 -1.8478 -1.5069
  596SOL     vw 2384   2.561   4.815   2.613  0.1397 -0.3309  0.3713
  597SOL     ow 2385   4.757   4.646   5.201  0.6488 -0.2672 -0.1398
  597SOL     hw 2386   4.739   4.614   5.290  0.8465  0.9550  0.3615
  597SOL     hw 2387   4.828   4.709   5.213 -0.2040  0.8852 -0.9742
  597SOL     vw 2388   4.764   4.650   5.215  0.5622  0.0465 -0.1838
  598SOL     ow 2389   5.249   2.007   1.567 -0.2668 -0.2796 -0.2640
  598SOL     hw 2390   5.270   2.084   1.513  0.9440  0.5559  1.2930
  598SOL     hw 2391   5.328   1.953   1.564 -0.2632 -0.3276  0.4755
  598SOL     vw 2392   5.262   2.010   1.560 -0.1066 -0.1756  0.0390
  599SOL     ow 2393   3.585   2.205   1.530  0.2513 -0.0381 -0.1918
  599SOL     hw 2394   3.497   2.221   1.562  0.5271  0.7282  0.2219
  599SOL     hw 2395   3.642   2.249   1.593  1.0529 -2.0472  0.5669
  599SOL     vw 2396   3.581   2.213   1.543  0.3934 -0.2022 -0.0372
  600SOL     ow 2397   1.992   0.769   0.456  0.1662 -0.3191 -0.2058
  600SOL     hw 2398   1.953   0.693   0.499  2.7332 -1.3052  0.5594
  600SOL     hw 2399   1.947   0.844   0.496  1.4674 -1.2303  3.3964
  600SOL     vw 2400   1.981   0.769   0.467  0.6766 -0.5694  0.3704
  601SOL     ow 2401   7.166   0.724   4.604  0.1440 -0.2075  0.2529
  601SOL     hw 2402   7.085   0.772   4.585  1.1057  1.4550  0.1341
  601SOL     hw 2403   7.210   0.777   4.671  1.5422 -0.5925 -0.3221
  601SOL     vw 2404   7.161   0.737   4.610  0.4551 -0.0390  0.1616
  602SOL     ow 2405   0.103   6.188   2.785  0.7552 -0.0765 -0.1830
  602SOL     hw 2406   0.152   6.200   2.704 -0.5748 -2.5662 -1.4939
  602SOL     hw 2407   0.152   6.121   2.833 -0.6904 -1.8016 -1.0131
  602SOL     vw 2408   0.116   6.181   2.781  0.3890 -0.6323 -0.4655
  603SOL     ow 2409   2.356   4.000   3.043 -0.1527 -0.2745  0.5160
  603SOL     hw 2410   2.416   4.004   3.117  1.1187  2.6735 -0.5105
  603SOL     hw 2411   2.387   3.927   2.989 -0.4014 -1.7058  2.2397
  603SOL     vw 2412   2.368   3.991   3.045 -0.0176 -0.0741  0.6080
  604SOL     ow 2413   2.664   1.951   2.515 -0.1668  0.2739  0.2221
  604SOL     hw 2414   2.645   2.012   2.586  0.2795  2.4992 -1.4274
  604SOL     hw 2415   2.760   1.948   2.512 -0.1820  0.3236 -0.3639
  604SOL     vw 2416   2.675   1.959   2.524 -0.1099  0.5741 -0.0728
  605SOL     ow 2417   4.580   4.474   5.017  0.4290  0.1903 -0.7387
  605SOL     hw 2418   4.555   4.484   4.925  0.2926 -3.1812 -1.1934
  605SOL     hw 2419   4.509   4.423   5.055  1.6599 -0.5838  0.5898
  605SOL     vw 2420   4.567   4.469   5.010  0.5736 -0.3567 -0.6232
  606SOL     ow 2421   6.524   1.642   2.993 -0.0781 -0.6147  0.0331
  606SOL     hw 2422   6.530   1.573   3.058  1.8915  0.9856  1.7128
  606SOL     hw 2423   6.614   1.652   2.961 -0.1595  1.5529  0.3297
  606SOL     vw 2424   6.537   1.634   2.997  0.1709 -0.1175  0.2939
  607SOL     ow 2425   5.811   1.613   0.003  0.5234 -0.4498 -0.4034
  607SOL     hw 2426   5.719   1.608  -0.023 -0.5513 -0.4341  2.9675
  607SOL     hw 2427   5.842   1.695  -0.036 -1.3650  0.3696 -0.2819
  607SOL     vw 2428   5.803   1.623  -0.006  0.1326 -0.3396  0.0577
  608SOL     ow 2429   0.265   1.191   7.187 -0.1093 -0.2117 -0.5877
  608SOL     hw 2430   0.281   1.121   7.251 -1.0745  1.6285  1.8185
  608SOL     hw 2431   0.330   1.257   7.207 -1.9719  1.4735  0.2449
  608SOL     vw 2432   0.275   1.190   7.198 -0.4824  0.2535 -0.1605
  609SOL     ow 2433   3.626   7.024   0.555 -0.1195  0.1836  0.0159
  609SOL     hw 2434   3.687   7.078   0.504 -1.3738  0.1269 -1.5913
  609SOL     hw 2435   3.585   7.086   0.615 -0.5841  0.7887 -0.9086
  609SOL     vw 2436   3.629   7.040   0.556 -0.3464  0.2561 -0.3182
  610SOL     ow 2437   2.952   4.244   4.501  0.0499  0.2633 -0.1093
  610SOL     hw 2438   2.865   4.223   4.534 -0.0275 -1.3449 -1.2006
  610SOL     hw 2439   3.012   4.200   4.562  0.0101 -0.3494 -0.5057
  610SOL     vw 2440   2.949   4.235   4.513  0.0343 -0.0298 -0.3057
  611SOL     ow 2441   2.669   5.980   4.341 -0.3965  0.1381  0.3158
  611SOL     hw 2442   2.738   6.034   4.302  0.5212 -1.2544 -0.0565
  611SOL     hw 2443   2.590   6.032   4.331 -0.2364 -0.0303 -3.4006
  611SOL     vw 2444   2.668   5.994   4.334 -0.2544 -0.0679 -0.2236
  612SOL     ow 2445   3.106   1.561   6.216 -0.8338  0.2746  0.3732
  612SOL     hw 2446   3.116   1.619   6.292 -1.4762  0.1655  0.5418
  612SOL     hw 2447   3.074   1.479   6.252 -1.0629  0.1948 -0.0068
  612SOL     vw 2448   3.103   1.558   6.231 -0.9488  0.2497  0.3452
  613SOL     ow 2449   5.569   3.663   5.864 -0.6304  0.3616  0.1854
  613SOL     hw 2450   5.475   3.645   5.860 -1.2652  3.2328 -3.2616
  613SOL     hw 2451   5.575   3.759   5.858  2.5479  0.2751  0.2905
  613SOL     vw 2452   5.557   3.673   5.863 -0.2949  0.7290 -0.2553
  614SOL     ow 2453   5.081   2.575   5.742 -0.0757  0.4506  0.1974
  614SOL     hw 2454   5.111   2.565   5.832 -0.7249  1.0835  0.4998
  614SOL     hw 2455   5.134   2.646   5.706  2.0659 -1.5452 -0.8128
  614SOL     vw 2456   5.092   2.583   5.749  0.1211  0.2710  0.1042
  615SOL     ow 2457   4.047   6.595   2.493 -0.3315 -0.9902  0.0710
  615SOL     hw 2458   4.036   6.500   2.483 -0.7558 -0.7746 -2.2159
  615SOL     hw 2459   4.008   6.631   2.413 -0.8882  1.1780  1.2521
  615SOL     vw 2460   4.040   6.587   2.481 -0.4609 -0.6754 -0.0750
  616SOL     ow 2461   3.463   6.269   3.906 -0.6909  0.8971  0.2908
  616SOL     hw 2462   3.545   6.278   3.956  0.1607  0.6184 -1.0133
  616SOL     hw 2463   3.488   6.286   3.816 -1.4310 -2.1480 -0.6121
  616SOL     vw 2464   3.477   6.272   3.901 -0.6762  0.4585 -0.0004
  617SOL     ow 2465   2.749   1.783   5.268 -0.4924 -0.0876  0.1923
  617SOL     hw 2466   2.666   1.801   5.313 -1.7024 -0.8804 -1.6016
  617SOL     hw 2467   2.802   1.738   5.333 -2.5499 -2.1009  0.5999
  617SOL     vw 2468   2.745   1.779   5.282 -0.9234 -0.4578  0.0093
  618SOL     ow 2469   1.001   4.970   5.336 -0.8156 -0.5599  0.4949
  618SOL     hw 2470   1.006   4.886   5.383  1.3156 -0.8145 -0.0829
  618SOL     hw 2471   1.086   4.978   5.293 -0.6366  2.2953  1.1989
  618SOL     vw 2472   1.013   4.960   5.337 -0.5107 -0.2167  0.5116
  619SOL     ow 2473   0.615   5.988   5.698  0.0807 -1.4022 -0.3384
  619SOL     hw 2474   0.649   5.905   5.732 -1.8137 -2.2465 -0.3560
  619SOL     hw 2475   0.668   6.005   5.620 -0.7441 -3.6827 -1.4970
  619SOL     vw 2476   0.626   5.979   5.692 -0.2781 -1.8144 -0.4935
  620SOL     ow 2477   2.389   2.442   0.057 -0.0897  0.3015  0.2529
  620SOL     hw 2478   2.309   2.398   0.087  1.2023 -0.9109  2.2025
  620SOL     hw 2479   2.414   2.499   0.130  0.0741  1.7754 -0.9195
  620SOL     vw 2480   2.382   2.443   0.071  0.1024  0.3361  0.3552
  621SOL     ow 2481   2.325   3.117   0.052 -0.7081 -0.0017 -0.3735
  621SOL     hw 2482   2.288   3.156   0.132 -1.0665 -0.6254 -0.2256
  621SOL     hw 2483   2.262   3.140  -0.017 -0.3244  0.6606 -0.5097
  621SOL     vw 2484   2.312   3.125   0.054 -0.7048  0.0035 -0.3719
  622SOL     ow 2485   4.217   1.838   1.732 -0.3010 -0.3482 -0.2645
  622SOL     hw 2486   4.295   1.893   1.732  0.0950 -0.9040 -0.2595
  622SOL     hw 2487   4.147   1.896   1.700 -0.4255  0.8825  2.0034
  622SOL     vw 2488   4.218   1.853   1.728 -0.2651 -0.2592  0.0354
  623SOL     ow 2489   1.984   5.719   4.596  0.3496 -0.4161 -0.3539
  623SOL     hw 2490   1.978   5.799   4.648  1.0590  0.9534 -2.2690
  623SOL     hw 2491   1.925   5.733   4.522  1.2061 -1.2356 -1.2312
  623SOL     vw 2492   1.976   5.731   4.593  0.5562 -0.3436 -0.7224
  624SOL     ow 2493   5.621   4.434   0.246  1.0035  0.1106  0.8472
  624SOL     hw 2494   5.618   4.339   0.256  1.2960  0.0762  0.6113
  624SOL     hw 2495   5.711   4.453   0.220  0.9064  0.4378  0.7422
  624SOL     vw 2496   5.633   4.424   0.244  1.0293  0.1493  0.8022
  625SOL     ow 2497   4.310   1.920   4.831  0.7056  0.2767  0.3011
  625SOL     hw 2498   4.318   1.825   4.839  1.6555  0.3713  0.5989
  625SOL     hw 2499   4.218   1.938   4.850  0.5347 -0.5755  0.3048
  625SOL     vw 2500   4.299   1.910   4.835  0.8082  0.1767  0.3409
  626SOL     ow 2501   3.796   0.869   3.808 -0.1570 -0.0938 -0.0461
  626SOL     hw 2502   3.786   0.822   3.891  1.5757 -0.4838 -0.0227
  626SOL     hw 2503   3.881   0.912   3.814 -1.0356  1.8503 -0.6905
  626SOL     vw 2504   3.806   0.868   3.819 -0.0442  0.1112 -0.1280
  627SOL     ow 2505   0.606   2.212   6.213  0.2206  0.4182 -0.3898
  627SOL     hw 2506   0.667   2.141   6.195  1.3261  1.3898 -0.6527
  627SOL     hw 2507   0.592   2.254   6.128 -0.4373  0.5049 -0.2437
  627SOL     vw 2508   0.612   2.209   6.199  0.2797  0.5580 -0.4051
  628SOL     ow 2509   1.964   2.348   4.744 -0.1028 -0.4095  0.0452
  628SOL     hw 2510   1.953   2.281   4.812 -0.1323  1.8112  2.3732
  628SOL     hw 2511   2.059   2.362   4.740 -0.1006 -0.5391 -0.3871
  628SOL     vw 2512   1.975   2.341   4.753 -0.1065 -0.1338  0.2954
  629SOL     ow 2513   4.460   4.723   5.189  0.3890 -0.1609  0.3430
  629SOL     hw 2514   4.452   4.681   5.275  0.8874 -0.0600  0.4464
  629SOL     hw 2515   4.370   4.744   5.164  0.2467 -0.0573  0.9129
  629SOL     vw 2516   4.447   4.720   5.197  0.4361 -0.1340  0.4318
  630SOL     ow 2517   2.602   0.570   6.510  0.7369 -0.8240 -0.0452
  630SOL     hw 2518   2.543   0.500   6.480  1.9293 -2.6058  1.5192
  630SOL     hw 2519   2.608   0.630   6.436 -3.1287 -0.4439 -0.2193
  630SOL     vw 2520   2.595   0.568   6.496  0.3841 -1.0089  0.1383
  631SOL     ow 2521   5.414   1.432   1.572 -0.3049  0.0378 -0.0877
  631SOL     hw 2522   5.386   1.358   1.518 -0.6059  0.4422 -0.4900
  631SOL     hw 2523   5.342   1.495   1.567 -1.4604 -0.8829  2.7100
  631SOL     vw 2524   5.401   1.431   1.564 -0.4969 -0.0303  0.2283
  632SOL     ow 2525   5.825   7.338   3.133  0.3223  0.3302 -0.3818
  632SOL     hw 2526   5.788   7.257   3.168  1.2058 -0.1264 -0.4638
  632SOL     hw 2527   5.838   7.320   3.039  2.4923 -0.2348 -0.0306
  632SOL     vw 2528   5.822   7.325   3.125  0.7253  0.1953 -0.3463
  633SOL     ow 2529   1.038   7.030   5.117  0.6190  0.2238 -0.6189
  633SOL     hw 2530   1.027   6.936   5.128 -3.1825  0.3042 -2.3740
  633SOL     hw 2531   0.950   7.064   5.102  2.1409  3.5755 -3.5482
  633SOL     vw 2532   1.025   7.022   5.116  0.3182  0.6769 -1.2369
  634SOL     ow 2533   6.235   1.783   2.749 -0.0479 -0.3571 -0.3510
  634SOL     hw 2534   6.257   1.691   2.739  2.1629  0.0457  0.2579
  634SOL     hw 2535   6.157   1.795   2.696 -0.7667 -2.7026  0.0747
  634SOL     vw 2536   6.228   1.773   2.741  0.1490 -0.6135 -0.2145
  635SOL     ow 2537   0.852   2.857   4.801  0.4261  0.0134  0.7213
  635SOL     hw 2538   0.893   2.928   4.851 -0.4546 -0.1903  1.7788
  635SOL     hw 2539   0.768   2.843   4.845  0.2683 -1.1865  0.0729
  635SOL     vw 2540   0.846   2.865   4.814  0.2891 -0.1718  0.7753
  636SOL     ow 2541   4.034   7.043   5.433 -0.4837 -0.7173 -0.4151
  636SOL     hw 2542   3.951   7.089   5.426  1.3962  3.1186  0.0034
  636SOL     hw 2543   4.042   7.023   5.527  0.2063  1.4590  0.0405
  636SOL     vw 2544   4.024   7.046   5.445 -0.1450  0.0758 -0.2999
  637SOL     ow 2545   0.350   6.993   1.440 -0.0289  0.0978 -0.4378
  637SOL     hw 2546   0.346   7.080   1.480 -0.7149 -0.8453  1.6858
  637SOL     hw 2547   0.261   6.958   1.448  0.5194 -1.2884 -0.0416
  637SOL     vw 2548   0.338   7.000   1.447 -0.0471 -0.2093 -0.1054
  638SOL     ow 2549   2.503   5.335   3.028  0.0327  0.3169 -0.2731
  638SOL     hw 2550   2.497   5.408   2.966  0.6582  2.0418  1.5678
  638SOL     hw 2551   2.424   5.284   3.013 -0.2769  1.1797 -1.8469
  638SOL     vw 2552   2.492   5.338   3.018  0.0745  0.6580 -0.2378
  639SOL     ow 2553   5.758   6.405   2.931  0.2109  0.8096 -0.5137
  639SOL     hw 2554   5.742   6.310   2.934 -0.1328  0.8168 -1.5092
  639SOL     hw 2555   5.687   6.443   2.983  0.1071  0.5378 -0.4525
  639SOL     vw 2556   5.746   6.397   2.938  0.1516  0.7746 -0.6371
  640SOL     ow 2557   5.977   5.482   0.086  0.2335 -0.0913 -0.2961
  640SOL     hw 2558   6.005   5.524   0.167 -2.0163  3.4083 -1.1034
  640SOL     hw 2559   6.030   5.524   0.018 -1.6066  1.0608 -1.0815
  640SOL     vw 2560   5.988   5.493   0.088 -0.3061  0.5221 -0.5062
  641SOL     ow 2561   3.553   1.836   7.013  0.0396 -0.2080  0.0815
  641SOL     hw 2562   3.527   1.790   7.093 -0.5236  0.4098  0.2596
  641SOL     hw 2563   3.552   1.768   6.946 -0.6179 -0.5062  0.3760
  641SOL     vw 2564   3.549   1.821   7.015 -0.1214 -0.1658  0.1438
  642SOL     ow 2565   0.532   3.691   2.336  0.2065 -0.1885 -0.0664
  642SOL     hw 2566   0.585   3.744   2.277 -0.4766  1.9944  1.1783
  642SOL     hw 2567   0.475   3.641   2.279  0.9738  0.3057 -1.2984
  642SOL     vw 2568   0.532   3.691   2.321  0.2176  0.1647 -0.0646
  643SOL     ow 2569   6.328   6.602   5.446  0.2286  0.2042  0.6186
  643SOL     hw 2570   6.274   6.527   5.470 -0.0241  0.4442  0.8156
  643SOL     hw 2571   6.416   6.580   5.479 -0.4160  1.2048  3.3005
  643SOL     vw 2572   6.333   6.589   5.454  0.1101  0.3679  0.9985
  644SOL     ow 2573   3.072   6.273   4.250  0.1033  0.1063  0.3848
  644SOL     hw 2574   3.142   6.282   4.185  1.0275 -0.0200  1.3384
  644SOL     hw 2575   3.075   6.355   4.299  0.4500 -0.4224  1.2601
  644SOL     vw 2576   3.082   6.285   4.248  0.2710  0.0198  0.6261
  645SOL     ow 2577   2.197   5.016   4.286 -0.8764 -0.6489 -0.3056
  645SOL     hw 2578   2.189   5.055   4.199 -1.2363  0.6586  0.2809
  645SOL     hw 2579   2.278   5.053   4.321 -0.1096 -2.0837 -0.5078
  645SOL     vw 2580   2.207   5.026   4.279 -0.8227 -0.6657 -0.2549
  646SOL     ow 2581   3.664   5.876   4.340 -0.4816 -0.7089 -0.2822
  646SOL     hw 2582   3.602   5.856   4.269 -0.7787  0.5465 -0.4014
  646SOL     hw 2583   3.639   5.963   4.369  2.0834  0.4431 -1.2659
  646SOL     vw 2584   3.652   5.884   4.334 -0.1824 -0.3912 -0.4277
  647SOL     ow 2585   0.413   6.170   6.155  0.5084  0.9822  0.0559
  647SOL     hw 2586   0.475   6.102   6.130  0.5730 -0.5311  3.6257
  647SOL     hw 2587   0.334   6.122   6.181 -0.0032  2.3572  1.1817
  647SOL     vw 2588   0.411   6.155   6.155  0.4495  0.9639  0.6752
  648SOL     ow 2589   5.297   4.873   1.552  0.5510  0.4515 -0.1690
  648SOL     hw 2590   5.238   4.802   1.529  1.5944 -0.3424 -0.4276
  648SOL     hw 2591   5.373   4.863   1.495  2.4957 -0.6253  2.3841
  648SOL     vw 2592   5.299   4.862   1.542  0.9451  0.2048  0.1337
  649SOL     ow 2593   2.695   7.266   3.366 -0.0163  0.2702  0.3910
  649SOL     hw 2594   2.652   7.184   3.339 -0.0897  0.4549 -0.0683
  649SOL     hw 2595   2.628   7.333   3.354  0.5995  0.6701 -1.0200
  649SOL     vw 2596   2.680   7.264   3.361  0.0552  0.3471  0.1442
  650SOL     ow 2597   2.889   3.796   0.898  0.1784  0.0486 -0.0657
  650SOL     hw 2598   2.950   3.740   0.849 -1.1775 -0.4353 -1.2768
  650SOL     hw 2599   2.828   3.829   0.832 -1.6342 -0.4772  1.2596
  650SOL     vw 2600   2.889   3.793   0.883 -0.2396 -0.0845 -0.0507
  651SOL     ow 2601   5.246   2.349   2.958 -0.0244 -1.3313 -0.3468
  651SOL     hw 2602   5.271   2.273   2.906  4.4472 -0.8811  0.7019
  651SOL     hw 2603   5.185   2.314   3.023  2.0287 -4.2088  0.2584
  651SOL     vw 2604   5.241   2.334   2.960  0.8364 -1.6516 -0.1284
  652SOL     ow 2605   4.043   3.166   3.191 -0.1448  0.4651 -0.0222
  652SOL     hw 2606   4.118   3.161   3.250  0.3952  3.2942 -0.3226
  652SOL     hw 2607   4.071   3.121   3.112 -0.1686 -1.6793  1.1344
  652SOL     vw 2608   4.057   3.160   3.189 -0.0768  0.5554  0.0908
  653SOL     ow 2609   4.453   2.783   6.782  0.0078 -0.7835  0.7484
  653SOL     hw 2610   4.361   2.786   6.809 -0.3585 -0.5507 -0.4753
  653SOL     hw 2611   4.477   2.691   6.787 -0.7396 -1.0512 -0.3261
  653SOL     vw 2612   4.444   2.771   6.786 -0.1390 -0.7882  0.4451
  654SOL     ow 2613   4.451   5.088   3.544  0.2981  0.0511  0.1055
  654SOL     hw 2614   4.448   5.144   3.622 -0.0517 -1.3001  1.0978
  654SOL     hw 2615   4.422   5.144   3.473  0.3177  1.2353  1.0002
  654SOL     vw 2616   4.447   5.103   3.545  0.2546  0.0293  0.3544
  655SOL     ow 2617   0.348   3.024   1.946  0.2660 -0.1254 -0.2627
  655SOL     hw 2618   0.390   3.110   1.936 -1.8920  1.0246  0.0943
  655SOL     hw 2619   0.335   3.015   2.040 -0.5120 -0.3262 -0.3838
  655SOL     vw 2620   0.352   3.035   1.957 -0.1213 -0.0001 -0.2316
  656SOL     ow 2621   7.151   4.015   2.602  0.5037 -0.2857  0.1608
  656SOL     hw 2622   7.212   4.086   2.622  0.5350 -0.2990  0.1129
  656SOL     hw 2623   7.207   3.938   2.589  0.4748 -0.3027  0.1365
  656SOL     vw 2624   7.167   4.014   2.603  0.5038 -0.2897  0.1513
  657SOL     ow 2625   3.195   7.199   6.044  0.3428  0.0265 -0.6591
  657SOL     hw 2626   3.185   7.294   6.050  2.8814  0.2830  0.5147
  657SOL     hw 2627   3.253   7.176   6.116  0.5621 -2.3068 -1.4908
  657SOL     vw 2628   3.201   7.208   6.054  0.7068 -0.2475 -0.6139
  658SOL     ow 2629   2.425   2.559   0.282  0.1758  0.2705  0.0913
  658SOL     hw 2630   2.512   2.598   0.271  1.5012 -2.5965 -0.8612
  658SOL     hw 2631   2.443   2.476   0.327 -2.2962  0.2679  1.1924
  658SOL     vw 2632   2.439   2.553   0.286  0.0246 -0.1081  0.1109
  659SOL     ow 2633   6.696   3.678   0.502  0.3750 -0.0942 -0.3800
  659SOL     hw 2634   6.685   3.593   0.459 -4.4172  0.3689 -0.6160
  659SOL     hw 2635   6.663   3.742   0.439 -1.6949  1.2130  1.8354
  659SOL     vw 2636   6.691   3.675   0.488 -0.5305  0.1392 -0.1189
  660SOL     ow 2637   3.428   3.604   0.012 -0.5605 -0.1221  0.0608
  660SOL     hw 2638   3.470   3.590  -0.073  2.0991 -0.1503  1.2930
  660SOL     hw 2639   3.416   3.699   0.017 -1.5380 -0.1892 -0.6637
  660SOL     vw 2640   3.432   3.615   0.001 -0.3386 -0.1346  0.1278
  661SOL     ow 2641   7.318   4.874   5.343 -0.3769 -0.5740 -0.3768
  661SOL     hw 2642   7.347   4.938   5.278  1.2666 -0.9045 -0.0195
  661SOL     hw 2643   7.328   4.920   5.427 -0.3841 -0.8667 -0.2155
  661SOL     vw 2644   7.323   4.889   5.345 -0.1612 -0.6561 -0.3083
  662SOL     ow 2645   2.083   4.741   3.356 -0.2138 -0.2776 -0.1151
  662SOL     hw 2646   2.134   4.810   3.314 -0.1209  0.3190  0.9388
  662SOL     hw 2647   2.150   4.682   3.392 -0.2660  0.1180  0.6416
  662SOL     vw 2648   2.099   4.742   3.355 -0.2085 -0.1469  0.1240
  663SOL     ow 2649   0.249   3.565   0.607  0.8650 -0.0972  0.1071
  663SOL     hw 2650   0.212   3.484   0.572  2.3318 -1.0307  0.5923
  663SOL     hw 2651   0.211   3.572   0.695  0.0893  0.2092 -0.2455
  663SOL     vw 2652   0.239   3.555   0.614  0.9562 -0.1800  0.1246
  664SOL     ow 2653   0.399   4.261   7.024 -0.3268  0.2855 -0.6512
  664SOL     hw 2654   0.465   4.290   6.960  0.3317  2.3775  0.8540
  664SOL     hw 2655   0.449   4.215   7.091 -0.4950  1.0743  0.0342
  664SOL     vw 2656   0.415   4.259   7.024 -0.2621  0.6657 -0.3624
  665SOL     ow 2657   7.274   2.683   3.493  0.9128 -0.3271 -0.0567
  665SOL     hw 2658   7.186   2.652   3.473  1.0894 -1.8673  1.3003
  665SOL     hw 2659   7.261   2.758   3.551  0.4091 -1.7548  1.8193
  665SOL     vw 2660   7.261   2.689   3.498  0.8695 -0.7187  0.3699
  666SOL     ow 2661   5.898   6.121   6.163 -0.0198  0.4671  0.2443
  666SOL     hw 2662   5.918   6.041   6.115  0.2185  0.7606 -0.1603
  666SOL     hw 2663   5.973   6.178   6.145 -0.4043  0.9458  0.1484
  666SOL     vw 2664   5.911   6.118   6.154 -0.0393  0.5689  0.1781
  667SOL     ow 2665   5.999   1.305   0.947 -0.0506  0.2656  0.2587
  667SOL     hw 2666   6.087   1.310   0.909 -0.8689  1.4835 -1.6241
  667SOL     hw 2667   5.952   1.379   0.908 -1.4770  0.5956  2.4494
  667SOL     vw 2668   6.005   1.315   0.936 -0.3467  0.4698  0.2993
  668SOL     ow 2669   7.016   2.287   1.218 -0.1698 -0.6226  0.9554
  668SOL     hw 2670   6.955   2.226   1.178 -2.3143  1.1829  1.2139
  668SOL     hw 2671   6.965   2.329   1.288  0.8315  2.0508  0.2303
  668SOL     vw 2672   7.001   2.285   1.222 -0.3209 -0.0318  0.8938
  669SOL     ow 2673   7.118   2.019   5.526 -0.6767  0.0574  0.0526
  669SOL     hw 2674   7.182   2.018   5.598 -2.1705  0.0173  1.4280
  669SOL     hw 2675   7.167   1.985   5.451  0.7180 -0.6667  1.2255
  669SOL     vw 2676   7.133   2.014   5.526 -0.6897 -0.0433  0.3889
  670SOL     ow 2677   2.489   1.261   2.486 -0.0976 -0.5160 -0.1235
  670SOL     hw 2678   2.501   1.207   2.563  1.1943  2.2990  1.8272
  670SOL     hw 2679   2.555   1.330   2.494  0.3185 -0.2496 -3.9665
  670SOL     vw 2680   2.499   1.263   2.497  0.1278 -0.1094 -0.3731
  671SOL     ow 2681   6.611   2.841   6.839 -0.1334  0.0312 -0.5089
  671SOL     hw 2682   6.694   2.856   6.795  0.2956 -0.5681  0.0693
  671SOL     hw 2683   6.626   2.763   6.893 -0.7900  0.4386  0.2931
  671SOL     vw 2684   6.624   2.833   6.841 -0.1636  0.0060 -0.3269
  672SOL     ow 2685   5.413   0.265   5.417 -0.1137 -0.7352 -0.3002
  672SOL     hw 2686   5.500   0.256   5.457 -1.5353 -1.6424  2.8422
  672SOL     hw 2687   5.399   0.359   5.410  1.0754 -0.5748 -0.8682
  672SOL     vw 2688   5.423   0.276   5.421 -0.1445 -0.8337  0.0396
  673SOL     ow 2689   0.214   3.734   1.125  0.2493  0.2649  0.3304
  673SOL     hw 2690   0.247   3.816   1.163 -0.2657  0.1226  1.0969
  673SOL     hw 2691   0.139   3.761   1.073 -0.1046  0.2444  0.8278
  673SOL     vw 2692   0.209   3.748   1.123  0.1347  0.2434  0.4972
  674SOL     ow 2693   2.038   6.340   2.147 -0.0640  0.0964  0.5876
  674SOL     hw 2694   1.970   6.313   2.208 -0.6751  0.3068  0.0094
  674SOL     hw 2695   2.005   6.315   2.061 -0.4601  2.2253  0.0553
  674SOL     vw 2696   2.025   6.333   2.143 -0.1968  0.4051  0.4411
  675SOL     ow 2697   4.764   6.715   4.985 -0.4211 -0.7016  0.2924
  675SOL     hw 2698   4.797   6.750   5.067 -3.2849  1.5263  0.6764
  675SOL     hw 2699   4.756   6.791   4.927 -0.1060 -1.9362 -1.4607
  675SOL     vw 2700   4.767   6.729   4.988 -0.7575 -0.5705  0.1118
  676SOL     ow 2701   3.425   4.996   6.745 -0.0846  0.2440  0.5790
  676SOL     hw 2702   3.449   4.906   6.765  0.3039  0.2567  0.1886
  676SOL     hw 2703   3.405   5.036   6.830 -0.1046 -0.1637  0.7648
  676SOL     vw 2704   3.425   4.990   6.759 -0.0360  0.1919  0.5519
  677SOL     ow 2705   3.810   1.330   0.718  0.3017 -0.9927 -0.5588
  677SOL     hw 2706   3.898   1.358   0.694 -0.2483  0.0911 -1.3693
  677SOL     hw 2707   3.761   1.328   0.636 -1.2496  1.4722  0.1985
  677SOL     vw 2708   3.815   1.334   0.704  0.0246 -0.5245 -0.5658
  678SOL     ow 2709   5.966   6.352   6.304 -0.8755 -0.3364  0.4116
  678SOL     hw 2710   5.938   6.442   6.322  1.3189  0.3390  0.7093
  678SOL     hw 2711   6.060   6.358   6.292 -0.4526 -2.8084  1.8323
  678SOL     vw 2712   5.974   6.365   6.305 -0.5302 -0.5736  0.6385
  679SOL     ow 2713   1.885   3.622   0.274  0.9371  0.4523 -0.1336
  679SOL     hw 2714   1.890   3.600   0.181 -1.2043  1.6428 -0.5799
  679SOL     hw 2715   1.792   3.638   0.291  1.4696  1.9207  1.8093
  679SOL     vw 2716   1.874   3.622   0.264  0.7249  0.8032  0.0638
  680SOL     ow 2717   5.787   7.138   4.299 -0.7909 -0.3773  0.1084
  680SOL     hw 2718   5.777   7.059   4.245  0.7368 -1.4056  1.2398
  680SOL     hw 2719   5.841   7.197   4.247  2.0345 -1.9915  1.0076
  680SOL     vw 2720   5.793   7.135   4.285 -0.2165 -0.7260  0.3760
  681SOL     ow 2721   2.737   0.303   3.328  0.4598  0.0403  0.3433
  681SOL     hw 2722   2.648   0.313   3.362 -0.4670  1.1317 -2.2287
  681SOL     hw 2723   2.787   0.371   3.373 -0.2393  0.1555  0.9752
  681SOL     vw 2724   2.732   0.313   3.339  0.2453  0.1995  0.0873
  682SOL     ow 2725   2.144   1.107   0.660 -0.5283  0.7879 -0.0279
  682SOL     hw 2726   2.220   1.078   0.608 -0.2492  0.0304  0.7822
  682SOL     hw 2727   2.141   1.046   0.733  0.9281  3.5962  2.5780
  682SOL     vw 2728   2.154   1.095   0.663 -0.2993  1.0585  0.4228
  683SOL     ow 2729   1.500   0.887   2.364 -0.3877  0.1113 -0.1705
  683SOL     hw 2730   1.506   0.919   2.274 -0.5561 -0.0135 -0.2259
  683SOL     hw 2731   1.408   0.897   2.388 -0.1586  1.1082  0.3448
  683SOL     vw 2732   1.488   0.893   2.355 -0.3797  0.2263 -0.1098
  684SOL     ow 2733   1.660   3.780   6.704  0.4409 -0.4563 -0.0848
  684SOL     hw 2734   1.731   3.844   6.706 -1.5756  2.0904 -2.3127
  684SOL     hw 2735   1.686   3.717   6.637  0.3434  0.8813 -1.4245
  684SOL     vw 2736   1.673   3.780   6.695  0.1620  0.0561 -0.5558
  685SOL     ow 2737   5.368   4.417   2.796  0.1808 -0.4024  0.2639
  685SOL     hw 2738   5.408   4.496   2.759  4.3727 -1.8473  1.0932
  685SOL     hw 2739   5.307   4.387   2.729  0.0496  2.3626 -0.9853
  685SOL     vw 2740   5.365   4.424   2.782  0.7169 -0.2282  0.2084
  686SOL     ow 2741   4.829   3.625   0.248  0.8176  1.0308  0.0638
  686SOL     hw 2742   4.916   3.585   0.240 -0.2673 -1.3352 -1.0861
  686SOL     hw 2743   4.824   3.689   0.177  0.5574 -1.1469 -2.0136
  686SOL     vw 2744   4.840   3.628   0.238  0.6402  0.4313 -0.3620
  687SOL     ow 2745   0.645   0.734   0.320  0.1586  0.4313  0.4559
  687SOL     hw 2746   0.558   0.775   0.328  0.1707  0.9857 -1.6676
  687SOL     hw 2747   0.627   0.645   0.291  0.2250 -0.5896  3.2242
  687SOL     vw 2748   0.631   0.728   0.318  0.1690  0.3697  0.5410
  688SOL     ow 2749   7.199   0.562   2.431  0.1388  0.1351  0.5030
  688SOL     hw 2750   7.138   0.631   2.458 -0.2995 -0.7878  2.0008
  688SOL     hw 2751   7.275   0.609   2.396 -0.9128  1.3246 -0.2997
  688SOL     vw 2752   7.201   0.577   2.430 -0.0577  0.1703  0.5950
  689SOL     ow 2753   4.730   4.992   3.454 -0.5373  0.5160 -0.6455
  689SOL     hw 2754   4.641   4.961   3.440 -0.7344 -0.4790  2.1841
  689SOL     hw 2755   4.722   5.059   3.522  0.9827 -0.8515  0.9785
  689SOL     vw 2756   4.717   4.997   3.461 -0.3629  0.2043 -0.0581
  690SOL     ow 2757   3.721   1.178   5.818  0.1914 -0.0211 -0.0397
  690SOL     hw 2758   3.663   1.150   5.890  0.6449  1.4914  0.9564
  690SOL     hw 2759   3.808   1.178   5.857  0.3323  1.7031 -0.3058
  690SOL     vw 2760   3.725   1.174   5.833  0.2698  0.4060  0.0565
  691SOL     ow 2761   0.714   6.916   6.912 -0.1960  0.1490  0.4004
  691SOL     hw 2762   0.782   6.978   6.887  1.6388 -1.7915  0.3411
  691SOL     hw 2763   0.655   6.966   6.969 -0.5403  2.7442 -2.0058
  691SOL     vw 2764   0.715   6.931   6.916  0.0007  0.2353  0.0749
  692SOL     ow 2765   6.224   4.254   0.608 -0.4965  1.0477 -0.0123
  692SOL     hw 2766   6.173   4.282   0.685  1.1204 -0.6987  1.7887
  692SOL     hw 2767   6.167   4.190   0.565 -1.1451  1.5261  0.1093
  692SOL     vw 2768   6.209   4.249   0.613 -0.3686  0.8807  0.2414
  693SOL     ow 2769   7.184   6.642   2.306 -0.2535 -0.4013  0.4683
  693SOL     hw 2770   7.220   6.712   2.360  0.0093  1.2256 -1.6584
  693SOL     hw 2771   7.095   6.630   2.337  0.1627 -0.1567  1.8120
  693SOL     vw 2772   7.177   6.649   2.317 -0.1640 -0.1543  0.3649
  694SOL     ow 2773   5.154   2.072   5.359  0.0044 -0.1611  0.5479
  694SOL     hw 2774   5.105   2.117   5.428 -0.9308  1.1026 -0.8646
  694SOL     hw 2775   5.210   2.139   5.321  0.1909 -0.7196 -0.1935
  694SOL     vw 2776   5.155   2.087   5.363 -0.0944 -0.0679  0.2635
  695SOL     ow 2777   3.714   1.802   2.749 -0.1529 -0.0890  0.6216
  695SOL     hw 2778   3.666   1.769   2.673 -0.6878  1.3187  0.3291
  695SOL     hw 2779   3.783   1.856   2.712 -1.9797  2.7717  1.0901
  695SOL     vw 2780   3.717   1.805   2.734 -0.4646  0.4741  0.6449
  696SOL     ow 2781   5.383   3.226   5.871 -0.4631 -0.2207 -0.5174
  696SOL     hw 2782   5.289   3.236   5.857 -1.2231  0.4960  3.8000
  696SOL     hw 2783   5.395   3.133   5.889 -1.0461  0.1729  2.2625
  696SOL     vw 2784   5.372   3.215   5.871 -0.6402 -0.0744  0.4189
  697SOL     ow 2785   4.702   5.284   3.898 -0.6128 -0.0177 -0.5574
  697SOL     hw 2786   4.756   5.259   3.823  0.4951  0.3300  0.1054
  697SOL     hw 2787   4.760   5.277   3.974 -0.9136  2.2121 -0.0408
  697SOL     vw 2788   4.717   5.280   3.898 -0.5064  0.3223 -0.4017
  698SOL     ow 2789   6.066   2.074   2.829 -0.1643  0.5850 -0.3747
  698SOL     hw 2790   6.030   2.093   2.916 -0.8773 -0.2567 -0.4590
  698SOL     hw 2791   5.996   2.025   2.786  1.5292 -2.3276 -0.0836
  698SOL     vw 2792   6.052   2.070   2.835 -0.0348  0.0898 -0.3473
  699SOL     ow 2793   0.424   2.150   1.372 -0.1350  0.6343  0.6270
  699SOL     hw 2794   0.350   2.093   1.353  1.9599 -1.5341 -1.6824
  699SOL     hw 2795   0.423   2.214   1.301  0.2765  0.5116  0.5093
  699SOL     vw 2796   0.414   2.151   1.360  0.1957  0.3320  0.3067
  700SOL     ow 2797   0.906   2.753   6.775 -0.5843  0.1993 -0.7535
  700SOL     hw 2798   0.975   2.819   6.767 -1.2905  1.2461  1.0629
  700SOL     hw 2799   0.953   2.670   6.772  1.1069  0.8735  2.2248
  700SOL     vw 2800   0.922   2.751   6.774 -0.4543  0.4264 -0.1209
  701SOL     ow 2801   4.014   6.863   2.627 -0.4001  0.0821  0.1036
  701SOL     hw 2802   4.046   6.949   2.655 -0.8955  0.4956 -0.5687
  701SOL     hw 2803   3.937   6.882   2.573 -0.4676 -0.7828 -0.1244
  701SOL     vw 2804   4.008   6.877   2.623 -0.4742  0.0224 -0.0153
  702SOL     ow 2805   4.023   1.085   2.360 -0.1209  0.3673 -0.4706
  702SOL     hw 2806   3.973   1.015   2.400 -0.3002  1.0382  0.5254
  702SOL     hw 2807   4.074   1.043   2.291  0.8190 -1.0102  0.9849
  702SOL     vw 2808   4.023   1.070   2.356 -0.0205  0.2741 -0.1472
  703SOL     ow 2809   4.397   1.452   0.153 -0.3610  0.5839 -0.4461
  703SOL     hw 2810   4.409   1.372   0.204 -0.6465  1.3822  0.9247
  703SOL     hw 2811   4.325   1.498   0.197  2.0751  3.2786  1.0591
  703SOL     vw 2812   4.389   1.447   0.166 -0.0772  1.0448 -0.0666
  704SOL     ow 2813   5.155   3.056   2.168  0.4565  0.5243 -0.3676
  704SOL     hw 2814   5.248   3.054   2.189  0.5007 -0.3560 -0.6263
  704SOL     hw 2815   5.112   3.070   2.253  0.7615 -0.4343 -0.0429
  704SOL     vw 2816   5.161   3.058   2.182  0.5028  0.2817 -0.3588
  705SOL     ow 2817   1.677   2.104   2.839 -0.1859  0.7536 -0.0792
  705SOL     hw 2818   1.676   2.182   2.784  0.4621  1.4489  0.8570
  705SOL     hw 2819   1.613   2.045   2.799  0.8646  0.8847 -2.0249
  705SOL     vw 2820   1.668   2.106   2.827  0.0381  0.8627 -0.2123
  706SOL     ow 2821   2.800   1.953   4.843 -0.2636  0.4123 -0.4670
  706SOL     hw 2822   2.837   1.932   4.757 -0.2263  2.1374 -0.9122
  706SOL     hw 2823   2.815   1.875   4.896 -1.4637 -1.1984 -2.3789
  706SOL     vw 2824   2.807   1.940   4.839 -0.4171  0.4274 -0.7780
  707SOL     ow 2825   5.909   7.164   4.577 -0.4282  0.0190 -0.2460
  707SOL     hw 2826   5.950   7.242   4.614 -0.4278 -0.0628 -0.0700
  707SOL     hw 2827   5.854   7.197   4.506 -1.6246  0.3665  0.8004
  707SOL     vw 2828   5.907   7.179   4.573 -0.5860  0.0539 -0.0846
  708SOL     ow 2829   1.810   1.806   1.839 -0.1202  0.2175 -0.4185
  708SOL     hw 2830   1.858   1.838   1.763 -0.8187  0.3626 -0.8080
  708SOL     hw 2831   1.817   1.711   1.833 -0.8875  0.1886 -1.1589
  708SOL     vw 2832   1.817   1.798   1.828 -0.3136  0.2328 -0.5676
  709SOL     ow 2833   7.079   2.056   0.858 -0.3028  0.0466 -0.3596
  709SOL     hw 2834   7.062   1.984   0.796 -4.4098 -0.4016  1.0194
  709SOL     hw 2835   6.993   2.091   0.879  1.2647  3.0264  1.8800
  709SOL     vw 2836   7.066   2.051   0.852 -0.6378  0.3806  0.1178
  710SOL     ow 2837   4.840   3.218   5.704 -0.2451 -1.3385 -0.3470
  710SOL     hw 2838   4.782   3.254   5.771  0.2717  0.0706 -0.6010
  710SOL     hw 2839   4.788   3.151   5.659 -2.4594  1.1812 -1.8793
  710SOL     vw 2840   4.826   3.214   5.707 -0.4692 -0.8202 -0.5829
  711SOL     ow 2841   5.226   1.524   4.089 -0.1688  0.3991  0.0107
  711SOL     hw 2842   5.132   1.533   4.106 -0.1969  1.7011 -0.7056
  711SOL     hw 2843   5.261   1.613   4.094  1.0470 -0.0688  0.2957
  711SOL     vw 2844   5.218   1.537   4.092 -0.0122  0.5091 -0.0460
  712SOL     ow 2845   6.975   4.782   1.159  0.0831 -0.3618  0.5921
  712SOL     hw 2846   6.969   4.837   1.081 -1.0924 -1.2330  0.0434
  712SOL     hw 2847   7.066   4.793   1.189 -0.3056  2.5043  1.0127
  712SOL     vw 2848   6.987   4.790   1.153 -0.1233 -0.0985  0.5752
  713SOL     ow 2849   1.442   4.262   5.762 -0.0267 -0.3804 -0.9603
  713SOL     hw 2850   1.441   4.284   5.855  2.0988  0.6427 -1.1336
  713SOL     hw 2851   1.355   4.287   5.730  0.8384  4.1972 -0.2915
  713SOL     vw 2852   1.430   4.268   5.770  0.3679  0.3586 -0.8950
  714SOL     ow 2853   7.237   4.828   1.235  0.1498 -0.0972  0.0012
  714SOL     hw 2854   7.208   4.841   1.325 -1.4318  2.9031 -0.7683
  714SOL     hw 2855   7.254   4.917   1.203  1.1690 -1.1023 -2.5002
  714SOL     vw 2856   7.235   4.842   1.243  0.0758  0.1662 -0.4304
  715SOL     ow 2857   6.821   5.613   4.448  0.3664 -0.7595  0.6457
  715SOL     hw 2858   6.795   5.529   4.488 -2.2664  0.9702  2.9172
  715SOL     hw 2859   6.856   5.664   4.521  0.5859  0.6231 -0.3954
  715SOL     vw 2860   6.822   5.608   4.463  0.0479 -0.3488  0.8080
  716SOL     ow 2861   4.077   6.623   2.817  0.3561  0.0204 -0.2308
  716SOL     hw 2862   4.146   6.561   2.843 -1.7808 -1.6005  2.0680
  716SOL     hw 2863   4.067   6.680   2.893 -0.4334  0.6084 -0.7694
  716SOL     vw 2864   4.085   6.622   2.830 -0.0298 -0.1159  0.0015
  717SOL     ow 2865   7.089   0.439   3.103  0.4044  0.3218  0.0539
  717SOL     hw 2866   6.997   0.419   3.083  0.0697 -0.5455  2.2298
  717SOL     hw 2867   7.085   0.518   3.156  1.0624  1.0943 -1.0087
  717SOL     vw 2868   7.076   0.447   3.107  0.4470  0.3093  0.2007
  718SOL     ow 2869   3.677   4.930   6.434 -0.2917  0.2331  0.2878
  718SOL     hw 2870   3.753   4.878   6.408 -0.3007  0.1863  0.3553
  718SOL     hw 2871   3.664   4.909   6.526 -0.6583 -0.0985  0.1627
  718SOL     vw 2872   3.686   4.920   6.443 -0.3413  0.1831  0.2801
  719SOL     ow 2873   1.928   1.283   0.532 -0.0998 -0.1114 -0.7519
  719SOL     hw 2874   1.922   1.279   0.436  0.8558  1.3171 -0.9059
  719SOL     hw 2875   1.844   1.248   0.563 -0.6882  0.0282 -2.1209
  719SOL     vw 2876   1.916   1.278   0.523 -0.0514  0.0955 -0.9529
  720SOL     ow 2877   7.305   7.040   0.093 -0.2053 -0.1153 -0.6192
  720SOL     hw 2878   7.250   7.064   0.168  0.3522  1.1508 -0.5854
  720SOL     hw 2879   7.348   6.960   0.121  0.0440  0.3656  0.4607
  720SOL     vw 2880   7.303   7.033   0.107 -0.0989  0.1149 -0.4723
  721SOL     ow 2881   3.958   1.433   2.036 -0.5666 -0.0878 -0.1646
  721SOL     hw 2882   3.891   1.475   2.091  0.6915  0.1227  1.2846
  721SOL     hw 2883   3.991   1.504   1.980 -1.0335 -0.0172 -0.3504
  721SOL     vw 2884   3.954   1.448   2.036 -0.4621 -0.0507  0.0020
  722SOL     ow 2885   6.176   7.110   4.213  0.4144  0.0849 -0.5325
  722SOL     hw 2886   6.111   7.150   4.156  0.6339  1.1590 -0.0450
  722SOL     hw 2887   6.141   7.122   4.302  1.6499  1.4591 -0.1926
  722SOL     vw 2888   6.163   7.117   4.218  0.6063  0.4077 -0.4232
  723SOL     ow 2889   0.247   7.344   6.548  0.1704 -0.3871 -0.2732
  723SOL     hw 2890   0.169   7.387   6.584  0.3189 -0.4945  0.1937
  723SOL     hw 2891   0.299   7.321   6.626  0.0720 -1.4510 -0.5122
  723SOL     vw 2892   0.244   7.347   6.563  0.1770 -0.5419 -0.2429
  724SOL     ow 2893   6.068   2.428   4.066 -0.2582 -0.2566  0.2638
  724SOL     hw 2894   6.146   2.388   4.106  0.0257  0.0586  0.0239
  724SOL     hw 2895   6.006   2.355   4.059  0.6779 -0.9534 -1.2812
  724SOL     vw 2896   6.070   2.413   4.071 -0.0973 -0.3070  0.0286
  725SOL     ow 2897   4.010   1.421   3.116 -0.4226 -0.4022  0.2882
  725SOL     hw 2898   3.973   1.384   3.036 -1.7031 -0.2477  0.7964
  725SOL     hw 2899   3.988   1.358   3.184 -1.5137  0.6441  0.9447
  725SOL     vw 2900   4.002   1.408   3.114 -0.7355 -0.2438  0.4417
  726SOL     ow 2901   0.289   4.271   6.166  0.2424 -0.1566  0.4017
  726SOL     hw 2902   0.352   4.339   6.188  1.1001 -1.4216  2.0799
  726SOL     hw 2903   0.238   4.258   6.246  0.1174 -1.4942  0.1250
  726SOL     vw 2904   0.291   4.278   6.179  0.3390 -0.5000  0.5867
  727SOL     ow 2905   6.920   2.340   2.487  0.7777  0.2856  0.4673
  727SOL     hw 2906   6.846   2.370   2.433  1.3106  1.4829  0.3829
  727SOL     hw 2907   6.878   2.298   2.562  0.0207 -0.3271 -0.2644
  727SOL     vw 2908   6.905   2.338   2.489  0.7479  0.3628  0.3597
  728SOL     ow 2909   2.195   2.259   0.503  0.5520 -0.9168 -0.4412
  728SOL     hw 2910   2.241   2.216   0.575 -0.3898  0.4202  1.0058
  728SOL     hw 2911   2.186   2.350   0.530  1.1878 -0.0740 -2.7823
  728SOL     vw 2912   2.200   2.265   0.516  0.5116 -0.6292 -0.5592
  729SOL     ow 2913   2.034   5.280   3.336  0.4011  0.0852 -0.2818
  729SOL     hw 2914   2.027   5.192   3.373  1.8074  1.0783  2.6444
  729SOL     hw 2915   2.124   5.307   3.355 -0.1910  2.3844 -0.4540
  729SOL     vw 2916   2.045   5.272   3.344  0.5085  0.5193  0.0815
  730SOL     ow 2917   5.640   4.279   6.870  0.3074 -0.0467 -0.1275
  730SOL     hw 2918   5.708   4.282   6.802  1.5788  0.3537  1.0976
  730SOL     hw 2919   5.689   4.278   6.952 -1.1380  3.3972  0.9601
  730SOL     vw 2920   5.656   4.279   6.872  0.2847  0.4604  0.1776
  731SOL     ow 2921   2.936   4.123   4.069 -0.6163 -0.4369 -0.2681
  731SOL     hw 2922   2.907   4.139   3.979 -0.6139  0.4524 -0.1242
  731SOL     hw 2923   2.902   4.198   4.118  1.8536  0.6656 -0.0949
  731SOL     vw 2924   2.928   4.135   4.064 -0.2900 -0.1740 -0.2263
  732SOL     ow 2925   0.906   3.643   2.773  0.1711  0.4275 -0.4097
  732SOL     hw 2926   0.980   3.615   2.827  0.9698 -0.4006 -1.8751
  732SOL     hw 2927   0.890   3.569   2.714 -0.7717  1.2436 -1.2205
  732SOL     vw 2928   0.913   3.629   2.772  0.1521  0.4258 -0.7100
  733SOL     ow 2929   2.917   2.895   5.564 -0.3650 -0.4935 -0.5719
  733SOL     hw 2930   2.837   2.932   5.527  0.5859  2.4962  0.0282
  733SOL     hw 2931   2.951   2.964   5.621  0.6739 -3.0892  2.2433
  733SOL     vw 2932   2.911   2.909   5.567 -0.1025 -0.4417 -0.1214
  734SOL     ow 2933   3.357   1.068   1.054 -0.3010 -0.7132 -0.5869
  734SOL     hw 2934   3.264   1.049   1.062  0.1898 -2.8068  0.9245
  734SOL     hw 2935   3.364   1.162   1.073 -1.8399 -1.0186  1.9052
  734SOL     vw 2936   3.346   1.078   1.058 -0.4392 -1.0297 -0.0587
  735SOL     ow 2937   5.974   5.255   7.299 -0.5130 -0.5515 -0.5572
  735SOL     hw 2938   6.048   5.203   7.331  0.8201  0.3197 -2.0220
  735SOL     hw 2939   5.983   5.338   7.346  0.0478 -0.1071 -1.4159
  735SOL     vw 2940   5.985   5.259   7.310 -0.2630 -0.3779 -0.8638
  736SOL     ow 2941   0.112   4.061   6.051  0.7336  0.0830 -0.0906
  736SOL     hw 2942   0.022   4.065   6.082  0.7742 -1.6174  0.3248
  736SOL     hw 2943   0.143   3.974   6.077  2.1655  0.2522 -1.1097
  736SOL     vw 2944   0.104   4.050   6.058  0.9279 -0.1192 -0.1705
  737SOL     ow 2945   0.119   5.695   4.448  0.2011  0.3356  0.1050
  737SOL     hw 2946   0.075   5.719   4.367  1.4453  0.9318 -0.4322
  737SOL     hw 2947   0.190   5.759   4.456  0.3287  0.0532  1.4713
  737SOL     vw 2948   0.123   5.707   4.438  0.3821  0.3772  0.2143
  738SOL     ow 2949   4.488   2.831   6.011 -0.0089 -0.5148 -0.1457
  738SOL     hw 2950   4.556   2.763   6.007 -0.0712 -0.6595  0.9460
  738SOL     hw 2951   4.409   2.784   6.039  0.5013  0.3373  3.0973
  738SOL     vw 2952   4.486   2.816   6.014  0.0503 -0.4214  0.4263
  739SOL     ow 2953   5.383   1.224   4.646 -0.1433  0.2089  0.2556
  739SOL     hw 2954   5.383   1.180   4.561 -1.1229  0.4809  0.0980
  739SOL     hw 2955   5.403   1.315   4.627 -2.9031  0.8446 -0.0611
  739SOL     vw 2956   5.386   1.230   4.633 -0.6366  0.3287  0.1929
  740SOL     ow 2957   1.801   6.768   6.683  0.9392 -0.2527 -0.3504
  740SOL     hw 2958   1.788   6.821   6.605  1.0551  1.8755  1.0097
  740SOL     hw 2959   1.887   6.793   6.716  1.6339 -2.3431 -0.4067
  740SOL     vw 2960   1.811   6.778   6.677  1.0462 -0.2477 -0.1781
  741SOL     ow 2961   3.184   7.211   3.738 -0.9341 -0.0808 -0.1977
  741SOL     hw 2962   3.153   7.177   3.822 -2.3459  0.7707 -0.3475
  741SOL     hw 2963   3.144   7.153   3.672 -3.3511  1.7172 -0.4540
  741SOL     vw 2964   3.174   7.199   3.740 -1.4393  0.2687 -0.2513
  742SOL     ow 2965   0.725   4.329   6.342  0.2408  0.5810 -0.0606
  742SOL     hw 2966   0.707   4.351   6.251  5.2052 -0.8577 -1.7150
  742SOL     hw 2967   0.719   4.234   6.346  2.6551  0.3786  0.2568
  742SOL     vw 2968   0.722   4.319   6.330  1.2143  0.3645 -0.2370
  743SOL     ow 2969   1.818   7.265   2.414 -0.2744  0.0004  0.1983
  743SOL     hw 2970   1.802   7.313   2.332  4.0217  0.9866 -0.3032
  743SOL     hw 2971   1.742   7.285   2.469 -2.2695  1.1038 -2.7044
  743SOL     vw 2972   1.806   7.274   2.410  0.0292  0.2763 -0.2507
  744SOL     ow 2973   7.095   2.607   2.485  0.2878  0.0884  0.4525
  744SOL     hw 2974   7.076   2.658   2.407  0.6289 -1.5819 -0.7912
  744SOL     hw 2975   7.174   2.646   2.521 -0.4419  1.5096  0.5769
  744SOL     vw 2976   7.103   2.619   2.479  0.2367  0.0554  0.3047
  745SOL     ow 2977   1.036   7.135   6.484 -0.5947  0.2898 -0.2134
  745SOL     hw 2978   0.988   7.064   6.442  2.8090 -1.9311 -0.7676
  745SOL     hw 2979   1.036   7.206   6.420 -2.3608  0.0937 -0.4819
  745SOL     vw 2980   1.030   7.135   6.470 -0.3785 -0.0293 -0.3216
  746SOL     ow 2981   3.158   6.184   0.994 -0.2352  0.2357  0.2506
  746SOL     hw 2982   3.179   6.276   1.011  0.0377  0.4193 -0.9553
  746SOL     hw 2983   3.186   6.170   0.903 -0.5387 -0.9609  0.3295
  746SOL     vw 2984   3.164   6.195   0.984 -0.2391  0.1020  0.1019
  747SOL     ow 2985   6.952   4.335   2.338 -0.2068 -1.0271 -0.1874
  747SOL     hw 2986   7.026   4.364   2.285  0.5012 -2.3172  0.0594
  747SOL     hw 2987   6.916   4.261   2.291 -2.0893  0.2673 -0.8869
  747SOL     vw 2988   6.957   4.329   2.325 -0.3619 -1.0264 -0.2472
  748SOL     ow 2989   6.509   6.278   1.525  0.0549 -0.9303 -0.2757
  748SOL     hw 2990   6.537   6.199   1.571 -1.3239 -0.9320  0.6419
  748SOL     hw 2991   6.474   6.334   1.594 -0.9099 -0.3977 -1.1723
  748SOL     vw 2992   6.508   6.275   1.540 -0.2544 -0.8600 -0.2729
  749SOL     ow 2993   3.428   6.110   3.058 -0.2113  0.2239  0.2954
  749SOL     hw 2994   3.384   6.100   3.142 -1.3615 -0.3130 -0.3540
  749SOL     hw 2995   3.514   6.070   3.071 -1.0360 -1.5077  0.7120
  749SOL     vw 2996   3.434   6.104   3.071 -0.4719 -0.0756  0.2645
  750SOL     ow 2997   5.951   6.143   0.099  0.1014  0.3305 -0.7822
  750SOL     hw 2998   5.875   6.144   0.156  1.3236 -1.8681  1.0499
  750SOL     hw 2999   5.915   6.133   0.010 -1.7451  0.8115 -0.1266
  750SOL     vw 3000   5.936   6.142   0.095  0.0186  0.1035 -0.4540
  751SOL     ow 3001   2.144   4.122   6.141 -0.0356 -0.0961  0.2899
  751SOL     hw 3002   2.120   4.142   6.232  0.4421  0.5476  0.2836
  751SOL     hw 3003   2.138   4.027   6.136  0.6068 -0.2044  1.2056
  751SOL     vw 3004   2.140   4.112   6.153  0.1122 -0.0257  0.4098
  752SOL     ow 3005   1.438   1.712   6.583 -0.9699 -0.1361 -0.5690
  752SOL     hw 3006   1.518   1.673   6.548  0.3728  1.6599  0.3759
  752SOL     hw 3007   1.422   1.664   6.664 -0.0689  0.3936 -0.0713
  752SOL     vw 3008   1.446   1.700   6.589 -0.6738  0.1708 -0.3784
  753SOL     ow 3009   1.692   6.711   0.331  0.1329  0.2142  0.2659
  753SOL     hw 3010   1.654   6.756   0.255  0.8419  1.1783  0.4636
  753SOL     hw 3011   1.630   6.640   0.350 -0.5384  0.5395 -0.6274
  753SOL     vw 3012   1.679   6.707   0.324  0.1378  0.3841  0.1741
  754SOL     ow 3013   6.062   5.491   0.384 -0.2069  1.3988  0.8209
  754SOL     hw 3014   6.025   5.506   0.471 -0.3555 -0.8543  1.2285
  754SOL     hw 3015   6.101   5.403   0.390  0.9857  1.7492 -0.9973
  754SOL     vw 3016   6.063   5.481   0.396 -0.0691  1.1477  0.6348
  755SOL     ow 3017   3.536   0.285   5.681 -0.4001 -0.3393 -0.0455
  755SOL     hw 3018   3.501   0.223   5.618  1.1427 -2.1428  0.7579
  755SOL     hw 3019   3.511   0.248   5.767  0.7196  0.0191  0.4498
  755SOL     vw 3020   3.528   0.272   5.684 -0.0489 -0.5300  0.1261
  756SOL     ow 3021   4.842   2.103   6.647  0.7119  0.6171 -0.2575
  756SOL     hw 3022   4.856   2.168   6.578  1.1902  0.6450 -0.1363
  756SOL     hw 3023   4.809   2.153   6.722  2.7717  1.0252  0.4424
  756SOL     vw 3024   4.840   2.118   6.648  1.0467  0.6746 -0.1490
  757SOL     ow 3025   3.882   4.322   7.203  0.1123 -0.5185 -0.6162
  757SOL     hw 3026   3.792   4.296   7.182  0.3271 -1.3886 -0.5196
  757SOL     hw 3027   3.904   4.269   7.280  1.0350 -1.0394 -1.2150
  757SOL     vw 3028   3.873   4.311   7.211  0.2625 -0.7017 -0.6824
  758SOL     ow 3029   5.493   0.142   0.287  0.1088  0.3837 -0.0794
  758SOL     hw 3030   5.578   0.181   0.267 -0.4140  0.5701 -2.1214
  758SOL     hw 3031   5.443   0.213   0.327 -0.1123  1.2536 -1.7980
  758SOL     vw 3032   5.498   0.157   0.290  0.0105  0.5231 -0.5756
  759SOL     ow 3033   0.291   3.541   2.685 -0.0987  0.3432  0.1146
  759SOL     hw 3034   0.252   3.598   2.751 -0.9999 -2.3503  2.1244
  759SOL     hw 3035   0.216   3.497   2.645  0.5944 -0.0983 -0.7288
  759SOL     vw 3036   0.276   3.543   2.688 -0.1261 -0.0702  0.2686
  760SOL     ow 3037   5.004   5.575   5.811  0.0836 -0.8781  0.0375
  760SOL     hw 3038   4.918   5.548   5.780  0.4646 -1.4992 -0.5076
  760SOL     hw 3039   4.986   5.638   5.881 -0.7967 -0.4591 -0.5548
  760SOL     vw 3040   4.991   5.579   5.816  0.0176 -0.9048 -0.1125
  761SOL     ow 3041   7.313   6.902   3.076 -0.3480 -0.4273 -0.4035
  761SOL     hw 3042   7.255   6.934   3.006 -0.4120 -0.9070 -0.5769
  761SOL     hw 3043   7.400   6.902   3.037 -0.1845  0.5054 -0.0718
  761SOL     vw 3044   7.316   6.906   3.062 -0.3350 -0.3674 -0.3825
  762SOL     ow 3045   7.031   2.157   4.221  0.4799 -0.2922 -0.1750
  762SOL     hw 3046   7.052   2.210   4.144 -1.3811 -1.7877 -1.8101
  762SOL     hw 3047   7.070   2.072   4.203  0.0627 -0.6491  0.5513
  762SOL     vw 3048   7.039   2.153   4.208  0.1793 -0.5366 -0.2952
  763SOL     ow 3049   6.850   4.008   0.824  0.2941  0.2104  0.2569
  763SOL     hw 3050   6.792   3.995   0.899  0.0026  0.7342  0.1241
  763SOL     hw 3051   6.938   3.989   0.858  0.1481  0.3053  0.6904
  763SOL     vw 3052   6.854   4.003   0.839  0.2365  0.2918  0.2966
  764SOL     ow 3053   7.044   5.337   1.537  0.0519 -0.5904 -0.5900
  764SOL     hw 3054   7.037   5.243   1.552  0.7313 -0.9376 -2.2480
  764SOL     hw 3055   7.014   5.377   1.619 -2.0780 -2.1857 -0.5180
  764SOL     vw 3056   7.039   5.330   1.550 -0.1395 -0.8466 -0.7992
  765SOL     ow 3057   2.179   5.482   4.665 -0.1587 -0.2090  0.0379
  765SOL     hw 3058   2.249   5.440   4.715  0.6643  1.1366  0.0928
  765SOL     hw 3059   2.153   5.418   4.600  2.4809 -0.1222 -1.2390
  765SOL     vw 3060   2.185   5.468   4.663  0.2983 -0.0200 -0.1233
  766SOL     ow 3061   3.635   5.086   2.309 -0.7645  0.0452  0.0134
  766SOL     hw 3062   3.648   5.156   2.244  1.9914  0.4203  0.8855
  766SOL     hw 3063   3.666   5.007   2.265  0.0602  0.1112  0.4630
  766SOL     vw 3064   3.640   5.085   2.294 -0.2919  0.1035  0.1880
  767SOL     ow 3065   3.390   0.155   0.046  0.2536  0.1371 -0.3832
  767SOL     hw 3066   3.297   0.168   0.030 -0.0013 -2.3413 -1.3400
  767SOL     hw 3067   3.432   0.228  -0.000 -1.1300  0.0744 -1.8290
  767SOL     vw 3068   3.384   0.166   0.038  0.0374 -0.1982 -0.7002
  768SOL     ow 3069   0.466   3.614   1.225 -0.1392 -0.6141 -0.1427
  768SOL     hw 3070   0.514   3.687   1.186 -0.7323 -0.3864 -0.4523
  768SOL     hw 3071   0.414   3.653   1.295  0.1229 -0.8647  0.1994
  768SOL     vw 3072   0.466   3.628   1.229 -0.1829 -0.6169 -0.1385
  769SOL     ow 3073   3.330   5.127   6.955  0.0722  0.0136 -0.2918
  769SOL     hw 3074   3.296   5.096   7.039  1.0708 -0.0962  0.0924
  769SOL     hw 3075   3.253   5.150   6.904 -0.6980 -2.1164 -0.2049
  769SOL     vw 3076   3.316   5.126   6.959  0.1023 -0.2816 -0.2298
  770SOL     ow 3077   3.219   0.328   5.831  0.2269 -0.1204 -0.5430
  770SOL     hw 3078   3.280   0.347   5.903  1.4601  2.7067 -2.1531
  770SOL     hw 3079   3.270   0.345   5.752 -1.2174 -2.6729 -2.1652
  770SOL     vw 3080   3.234   0.333   5.830  0.1991 -0.0842 -0.9696
  771SOL     ow 3081   0.923   5.697   2.160  0.0597 -0.0442  0.3495
  771SOL     hw 3082   1.007   5.671   2.124  0.3100 -0.9602  1.5250
  771SOL     hw 3083   0.927   5.793   2.165  0.8063 -0.0454 -0.0933
  771SOL     vw 3084   0.934   5.706   2.156  0.1912 -0.1652  0.4462
  772SOL     ow 3085   2.325   3.403   4.685  0.6045  0.0970 -0.0389
  772SOL     hw 3086   2.349   3.315   4.656  2.3794 -0.1752  2.0168
  772SOL     hw 3087   2.393   3.428   4.747 -0.2791  2.6245  0.0515
  772SOL     vw 3088   2.337   3.395   4.689  0.7221  0.3946  0.2444
  773SOL     ow 3089   6.229   1.845   3.407  0.2763 -0.1894  0.0395
  773SOL     hw 3090   6.179   1.926   3.395  0.9372  0.0477 -1.4753
  773SOL     hw 3091   6.178   1.778   3.361 -0.5255 -0.7671  1.7222
  773SOL     vw 3092   6.216   1.847   3.399  0.2577 -0.2343  0.0615
  774SOL     ow 3093   3.277   5.151   5.820  0.2789  0.2345  0.3658
  774SOL     hw 3094   3.324   5.114   5.745 -2.2063  1.8091 -2.1843
  774SOL     hw 3095   3.261   5.076   5.877  0.8205 -1.4068 -1.5252
  774SOL     vw 3096   3.281   5.136   5.818  0.0226  0.2255 -0.2203
  775SOL     ow 3097   6.234   2.868   6.122  0.1923 -0.3071  0.6234
  775SOL     hw 3098   6.276   2.783   6.132  0.0295 -0.5788 -0.7270
  775SOL     hw 3099   6.200   2.867   6.032 -1.1089  0.6015  1.0750
  775SOL     vw 3100   6.235   2.856   6.111 -0.0010 -0.2230  0.5047
  776SOL     ow 3101   6.832   5.355   3.752 -0.0119 -0.1717 -0.6692
  776SOL     hw 3102   6.901   5.400   3.800 -2.0806  1.4774  0.9868
  776SOL     hw 3103   6.811   5.279   3.807 -1.3980  0.9279  0.4137
  776SOL     vw 3104   6.838   5.351   3.766 -0.4675  0.1907 -0.3078
  777SOL     ow 3105   7.237   0.422   4.617  0.1636  0.2055  0.2811
  777SOL     hw 3106   7.194   0.508   4.613  1.0237  0.6165 -0.6379
  777SOL     hw 3107   7.197   0.379   4.693 -2.7438  0.0834 -1.1721
  777SOL     vw 3108   7.226   0.428   4.627 -0.1066  0.2436 -0.0319
  778SOL     ow 3109   6.896   6.373   5.056  0.3037 -0.5524  0.1623
  778SOL     hw 3110   6.960   6.396   5.124  1.4533 -3.2733  0.0991
  778SOL     hw 3111   6.811   6.383   5.099  0.9547 -0.9954  1.6191
  778SOL     vw 3112   6.893   6.378   5.070  0.5412 -0.9699  0.3464
  779SOL     ow 3113   4.576   2.774   7.159 -0.4227 -0.0668  0.2281
  779SOL     hw 3114   4.588   2.828   7.237 -2.6728 -0.8828  1.2277
  779SOL     hw 3115   4.489   2.797   7.127 -0.7428 -1.8659 -0.3109
  779SOL     vw 3116   4.566   2.784   7.165 -0.7620 -0.4119  0.2890
  780SOL     ow 3117   5.853   1.399   4.419  0.0372  0.3065  0.3325
  780SOL     hw 3118   5.901   1.391   4.337 -0.9537 -0.2105 -0.2196
  780SOL     hw 3119   5.789   1.469   4.403 -0.6932 -0.3386  0.3765
  780SOL     vw 3120   5.851   1.407   4.406 -0.1898  0.1531  0.2656
  781SOL     ow 3121   7.297   4.555   5.509  0.4142  0.6944  0.1001
  781SOL     hw 3122   7.350   4.618   5.460  2.3778 -1.2699 -0.4754
  781SOL     hw 3123   7.252   4.504   5.442  0.3125  0.2898  0.4691
  781SOL     vw 3124   7.298   4.556   5.494  0.6597  0.3817  0.0730
  782SOL     ow 3125   3.632   5.166   6.263  0.5819 -0.0604  0.7917
  782SOL     hw 3126   3.686   5.216   6.202 -0.8858  0.6532  0.0479
  782SOL     hw 3127   3.593   5.097   6.210 -1.5099  1.1690  0.6232
  782SOL     vw 3128   3.634   5.163   6.248  0.1122  0.1960  0.6714
  783SOL     ow 3129   7.339   1.891   6.720 -1.0612  0.6569  0.3506
  783SOL     hw 3130   7.421   1.932   6.749 -1.1446  0.7419  0.4669
  783SOL     hw 3131   7.365   1.835   6.647 -0.7470 -0.1027  1.0433
  783SOL     vw 3132   7.353   1.889   6.714 -1.0308  0.5679  0.4570
  784SOL     ow 3133   3.670   0.566   5.586  0.0814 -0.2711  0.2605
  784SOL     hw 3134   3.578   0.593   5.580  0.3788  0.9395  0.8652
  784SOL     hw 3135   3.700   0.562   5.495 -0.1927  0.6923  0.1219
  784SOL     vw 3136   3.661   0.569   5.573  0.0845  0.0157  0.3221
  785SOL     ow 3137   4.477   2.532   7.293  0.3412 -0.5014  0.0972
  785SOL     hw 3138   4.534   2.494   7.360  2.2806 -1.5700 -1.9875
  785SOL     hw 3139   4.537   2.576   7.233 -1.0015 -1.4711 -2.0912
  785SOL     vw 3140   4.493   2.533   7.294  0.4201 -0.7703 -0.4666
  786SOL     ow 3141   0.587   1.895   3.295  0.4900 -1.0492  0.2328
  786SOL     hw 3142   0.523   1.887   3.224 -2.6497  1.2474  2.5037
  786SOL     hw 3143   0.645   1.966   3.266 -1.8657  1.1672  0.4983
  786SOL     vw 3144   0.586   1.903   3.282 -0.2350 -0.4538  0.5674
  787SOL     ow 3145   0.259   6.335   5.462  0.8100 -0.1183 -0.1006
  787SOL     hw 3146   0.243   6.429   5.473  3.6788  0.3144  1.2482
  787SOL     hw 3147   0.260   6.322   5.367  1.2195  1.4089 -0.3333
  787SOL     vw 3148   0.257   6.345   5.451  1.2425  0.1400  0.0465
  788SOL     ow 3149   4.256   1.379   4.107 -0.1166  1.1618 -0.6605
  788SOL     hw 3150   4.294   1.338   4.029  0.9692  1.3627 -0.2414
  788SOL     hw 3151   4.174   1.331   4.122  0.3812  0.1703 -1.0744
  788SOL     vw 3152   4.250   1.367   4.098  0.0923  1.0576 -0.6597
  789SOL     ow 3153   1.518   2.042   1.445 -0.8777 -0.0273 -0.2802
  789SOL     hw 3154   1.473   2.116   1.405 -0.0626  2.0147  2.2457
  789SOL     hw 3155   1.596   2.029   1.390 -0.8094  1.3197 -0.5462
  789SOL     vw 3156   1.522   2.050   1.432 -0.7612  0.4199  0.0179
  790SOL     ow 3157   5.603   3.181   2.943  1.1057 -0.1998 -0.3350
  790SOL     hw 3158   5.560   3.247   2.889  3.8444  0.6660 -1.6465
  790SOL     hw 3159   5.629   3.113   2.881  1.0941 -0.9950  0.5105
  790SOL     vw 3160   5.601   3.181   2.928  1.4653 -0.1904 -0.3964
  791SOL     ow 3161   4.392   4.953   4.705  0.2277 -0.3643 -0.3606
  791SOL     hw 3162   4.363   5.043   4.687 -0.2220 -0.4056  0.1269
  791SOL     hw 3163   4.378   4.907   4.622 -3.1036 -0.8815  0.3548
  791SOL     vw 3164   4.386   4.959   4.692 -0.2708 -0.4382 -0.2019
  792SOL     ow 3165   6.180   1.900   1.210  0.3043 -0.2988 -0.0825
  792SOL     hw 3166   6.149   1.875   1.297  0.2495 -1.4329 -0.4097
  792SOL     hw 3167   6.258   1.846   1.197 -1.1755 -2.1615 -1.7868
  792SOL     vw 3168   6.186   1.889   1.220  0.1018 -0.6942 -0.3506
  793SOL     ow 3169   4.484   1.938   1.788  0.3026 -0.4050 -0.3304
  793SOL     hw 3170   4.474   1.850   1.824 -3.2823 -1.2771 -2.9934
  793SOL     hw 3171   4.530   1.925   1.705  3.5530  0.9234  1.0742
  793SOL     vw 3172   4.489   1.924   1.782  0.2584 -0.3448 -0.4964
  794SOL     ow 3173   6.725   5.167   1.788  0.0391 -0.2425  0.2194
  794SOL     hw 3174   6.668   5.191   1.714  1.6163 -0.4481 -1.1339
  794SOL     hw 3175   6.665   5.137   1.856 -1.5640  1.1379 -0.5088
  794SOL     vw 3176   6.710   5.166   1.787  0.0358 -0.0873 -0.0552
  795SOL     ow 3177   2.021   2.815   6.231 -0.6960 -0.1375 -0.8291
  795SOL     hw 3178   2.009   2.758   6.307  1.8039 -1.1166 -1.0577
  795SOL     hw 3179   2.056   2.896   6.267 -3.1441  0.9102 -0.6259
  795SOL     vw 3180   2.024   2.818   6.246 -0.6893 -0.1285 -0.8326
  796SOL     ow 3181   3.042   1.037   1.604  0.3249 -0.1520 -0.6729
  796SOL     hw 3182   3.012   0.953   1.638  0.7194  0.2261  0.6479
  796SOL     hw 3183   3.056   1.091   1.681  2.6296  0.2802 -1.3138
  796SOL     vw 3184   3.040   1.033   1.619  0.6810 -0.0451 -0.5832
  797SOL     ow 3185   6.234   0.944   6.157 -0.2829 -0.4332  0.0887
  797SOL     hw 3186   6.201   1.032   6.144  0.2850 -0.3538 -0.8562
  797SOL     hw 3187   6.189   0.891   6.091 -0.1173 -0.7261  0.2064
  797SOL     vw 3188   6.224   0.948   6.147 -0.1862 -0.4614 -0.0205
  798SOL     ow 3189   6.524   2.409   1.497  0.1904 -0.8821 -0.0701
  798SOL     hw 3190   6.619   2.395   1.497 -0.0131 -2.5523 -0.4399
  798SOL     hw 3191   6.491   2.342   1.436 -1.4329 -2.0056  1.9406
  798SOL     vw 3192   6.532   2.398   1.489 -0.0508 -1.2506  0.1464
  799SOL     ow 3193   0.108   4.516   1.576  0.5480  0.0332 -0.5678
  799SOL     hw 3194   0.039   4.582   1.591  0.0358  0.1073 -2.9345
  799SOL     hw 3195   0.156   4.513   1.659 -1.9251  0.4127  0.9912
  799SOL     vw 3196   0.105   4.525   1.589  0.1541  0.0930 -0.6744
  800SOL     ow 3197   3.565   6.635   1.834  0.3725  0.2498  0.2912
  800SOL     hw 3198   3.479   6.668   1.809  1.2037  0.3104 -2.8484
  800SOL     hw 3199   3.581   6.674   1.920 -3.3098 -0.9840  1.7627
  800SOL     vw 3200   3.556   6.644   1.842 -0.0036  0.0949  0.0711
  801SOL     ow 3201   2.493   5.819   1.416  0.1908 -0.2790 -0.2988
  801SOL     hw 3202   2.476   5.854   1.503 -0.5072 -2.5026  0.5271
  801SOL     hw 3203   2.420   5.851   1.363 -1.3889 -1.8463  0.8575
  801SOL     vw 3204   2.481   5.828   1.420 -0.1097 -0.7794 -0.0373
  802SOL     ow 3205   7.195   1.395   6.806  0.0852 -0.4238  0.2226
  802SOL     hw 3206   7.122   1.457   6.800  1.1355  0.8619  0.2181
  802SOL     hw 3207   7.266   1.436   6.756  1.0755 -1.2364  0.9126
  802SOL     vw 3208   7.195   1.409   6.799  0.3543 -0.3614  0.3130
  803SOL     ow 3209   5.325   5.132   1.361  0.6856  0.0505 -0.1598
  803SOL     hw 3210   5.412   5.102   1.336 -0.2192 -2.3510 -0.8136
  803SOL     hw 3211   5.277   5.139   1.278  0.7007  3.2359 -0.0146
  803SOL     vw 3212   5.330   5.129   1.347  0.5684  0.1543 -0.2269
  804SOL     ow 3213   5.364   3.887   1.883  0.6655  0.3957 -0.2881
  804SOL     hw 3214   5.276   3.859   1.910  1.0265  1.1761  1.9262
  804SOL     hw 3215   5.392   3.947   1.953  2.1825  1.7181 -1.9339
  804SOL     vw 3216   5.356   3.891   1.896  0.9131  0.6733 -0.2131
  805SOL     ow 3217   6.508   1.145   6.863  0.3067  0.5637  0.1090
  805SOL     hw 3218   6.592   1.099   6.853 -0.7783 -1.1592 -1.9580
  805SOL     hw 3219   6.455   1.113   6.791 -2.2018  1.5149  1.4197
  805SOL     vw 3220   6.512   1.134   6.852 -0.1671  0.4619  0.0093
  806SOL     ow 3221   1.044   6.769   5.111 -0.2991  0.2887 -0.5789
  806SOL     hw 3222   1.040   6.686   5.063 -0.1401  0.3981 -0.7821
  806SOL     hw 3223   1.127   6.765   5.158  0.2503  0.8188 -1.4821
  806SOL     vw 3224   1.055   6.757   5.111 -0.2057  0.3731 -0.7250
  807SOL     ow 3225   0.230   2.857   1.722 -0.3481 -0.3334  0.1120
  807SOL     hw 3226   0.233   2.952   1.737  0.3650 -0.4526  0.7660
  807SOL     hw 3227   0.179   2.848   1.642 -1.6557  0.5085  0.8134
  807SOL     vw 3228   0.224   2.869   1.713 -0.4266 -0.2379  0.2908
  808SOL     ow 3229   1.994   4.285   3.484  0.4841 -0.2252  0.4115
  808SOL     hw 3230   2.042   4.326   3.411 -1.1613  0.2634 -0.4517
  808SOL     hw 3231   2.041   4.312   3.562  0.9037  1.2753 -0.3210
  808SOL     vw 3232   2.006   4.294   3.484  0.3225  0.0372  0.2010
  809SOL     ow 3233   7.300   5.399   6.869 -0.6549  0.1358  0.0864
  809SOL     hw 3234   7.238   5.464   6.904 -1.8469 -2.3368  3.0570
  809SOL     hw 3235   7.373   5.399   6.931 -0.1164 -0.5611 -0.5242
  809SOL     vw 3236   7.301   5.408   6.882 -0.7411 -0.2823  0.3977
  810SOL     ow 3237   5.441   6.791   4.418 -0.4883  0.0184  0.1872
  810SOL     hw 3238   5.514   6.832   4.463  0.6130 -1.3890 -0.2504
  810SOL     hw 3239   5.446   6.825   4.328  1.2617 -1.9907 -0.5517
  810SOL     vw 3240   5.451   6.801   4.412 -0.1118 -0.4325  0.0319
  811SOL     ow 3241   4.004   1.797   4.355  0.1603 -0.1667  0.4933
  811SOL     hw 3242   3.992   1.875   4.408 -3.7571  0.6699 -1.2967
  811SOL     hw 3243   4.077   1.751   4.397  1.3811  3.4012  2.7706
  811SOL     vw 3244   4.012   1.801   4.367 -0.1955  0.4144  0.5574
  812SOL     ow 3245   2.304   4.180   4.955  0.7454  0.2771 -0.1229
  812SOL     hw 3246   2.378   4.240   4.947  1.6179 -0.5612  1.2126
  812SOL     hw 3247   2.336   4.097   4.920  0.9238 -0.4333  1.5994
  812SOL     vw 3248   2.318   4.177   4.949  0.8839  0.0727  0.2806
  813SOL     ow 3249   1.510   0.046   1.542  0.4750  0.3862 -0.2329
  813SOL     hw 3250   1.502   0.008   1.629  1.4159 -0.9490 -0.6963
  813SOL     hw 3251   1.605   0.056   1.529  0.2917  1.9841 -0.5349
  813SOL     vw 3252   1.522   0.042   1.552  0.5750  0.4208 -0.3338
  814SOL     ow 3253   2.095   5.666   6.123  0.0206  0.0435  0.5316
  814SOL     hw 3254   2.152   5.678   6.198  0.4032 -1.5248  0.5326
  814SOL     hw 3255   2.148   5.618   6.060 -0.4378  0.9485 -0.5737
  814SOL     vw 3256   2.109   5.661   6.124  0.0106 -0.0439  0.3860
  815SOL     ow 3257   0.563   3.224   5.849  0.0420  0.4180 -0.0070
  815SOL     hw 3258   0.642   3.254   5.804  0.8563 -1.0568  0.3756
  815SOL     hw 3259   0.556   3.131   5.827 -0.0007 -0.1687  2.1601
  815SOL     vw 3260   0.573   3.216   5.840  0.1438  0.1460  0.3293
  816SOL     ow 3261   3.060   3.645   1.107 -0.3952  0.2146  0.1251
  816SOL     hw 3262   3.150   3.665   1.134 -0.8382  1.0340  1.0582
  816SOL     hw 3263   3.070   3.581   1.037  1.0026  2.0209 -1.4208
  816SOL     vw 3264   3.074   3.639   1.102 -0.2692  0.5610  0.0443
  817SOL     ow 3265   1.613   6.496   6.506 -0.2863 -0.6116 -0.1651
  817SOL     hw 3266   1.680   6.486   6.574 -1.4962 -0.4287  1.1016
  817SOL     hw 3267   1.658   6.541   6.435  1.3824 -2.0274 -0.0725
  817SOL     vw 3268   1.628   6.501   6.506 -0.2258 -0.7746  0.0141
  818SOL     ow 3269   6.692   2.381   2.318 -0.1713  0.3285 -0.6130
  818SOL     hw 3270   6.744   2.443   2.267  0.4320  0.9314  0.6923
  818SOL     hw 3271   6.653   2.433   2.388 -2.5145 -0.1217 -1.4795
  818SOL     vw 3272   6.694   2.396   2.321 -0.4008  0.3487 -0.5552
  819SOL     ow 3273   3.016   1.285   5.532 -0.1109 -0.4534 -0.2288
  819SOL     hw 3274   2.922   1.300   5.522 -0.1969 -0.7743  0.0854
  819SOL     hw 3275   3.023   1.192   5.555  0.0139  0.2873  3.2590
  819SOL     vw 3276   3.005   1.275   5.534 -0.1059 -0.3980  0.2730
  820SOL     ow 3277   0.785   6.592   1.049  0.3037 -0.0922 -0.0476
  820SOL     hw 3278   0.835   6.511   1.036 -0.3393 -0.2367 -1.8300
  820SOL     hw 3279   0.695   6.563   1.064  0.2262  0.2754  0.2291
  820SOL     vw 3280   0.780   6.577   1.050  0.2086 -0.0625 -0.2462
  821SOL     ow 3281   0.125   3.473   5.576  0.1355 -0.7406 -0.5930
  821SOL     hw 3282   0.205   3.423   5.557  0.5556 -0.6862  0.8639
  821SOL     hw 3283   0.117   3.535   5.503  2.2567  0.2388 -0.0767
  821SOL     vw 3284   0.135   3.475   5.564  0.4708 -0.6043 -0.3324
  822SOL     ow 3285   2.052   0.115   3.204 -0.5729  0.4389  0.7077
  822SOL     hw 3286   2.116   0.129   3.274 -2.4672  2.0421  2.2299
  822SOL     hw 3287   2.043   0.020   3.200  0.7963  0.2431  1.4842
  822SOL     vw 3288   2.059   0.104   3.213 -0.6422  0.6246  1.0110
  823SOL     ow 3289   5.434   2.542   0.155  0.8346 -0.8255  0.5732
  823SOL     hw 3290   5.348   2.521   0.190 -0.8663 -1.8290 -3.6723
  823SOL     hw 3291   5.495   2.519   0.225 -2.1944 -1.3143  3.2597
  823SOL     vw 3292   5.431   2.536   0.169  0.2103 -1.0225  0.3675
  824SOL     ow 3293   3.735   4.932   2.530  0.0298  0.0600 -0.2005
  824SOL     hw 3294   3.656   4.880   2.538  0.0183 -0.0307 -0.7967
  824SOL     hw 3295   3.782   4.919   2.612  1.7196 -3.7180 -1.5323
  824SOL     vw 3296   3.731   4.923   2.542  0.2511 -0.4504 -0.4549
  825SOL     ow 3297   0.339   1.585   1.848  0.0867  0.3638 -0.3593
  825SOL     hw 3298   0.287   1.648   1.897 -1.0390 -0.2575 -0.7018
  825SOL     hw 3299   0.396   1.545   1.913 -1.2161 -0.2877  0.4380
  825SOL     vw 3300   0.339   1.588   1.863 -0.2337  0.1959 -0.2993
  826SOL     ow 3301   3.247   0.854   5.556 -0.4369  0.0212 -0.5214
  826SOL     hw 3302   3.312   0.924   5.567  0.5526 -1.1622  1.6634
  826SOL     hw 3303   3.281   0.800   5.485  0.0186  0.4311 -0.6182
  826SOL     vw 3304   3.260   0.856   5.548 -0.2463 -0.0809 -0.2460
  827SOL     ow 3305   2.476   3.785   5.698  0.0535  0.1418  0.9132
  827SOL     hw 3306   2.510   3.858   5.647 -1.5701  0.5282  0.3389
  827SOL     hw 3307   2.451   3.719   5.633 -1.3404  0.3330  1.2216
  827SOL     vw 3308   2.477   3.786   5.683 -0.3445  0.2179  0.8783
  828SOL     ow 3309   5.740   2.465   3.342 -0.2192  0.0328 -0.1965
  828SOL     hw 3310   5.747   2.369   3.339  0.5392  0.0976 -0.9168
  828SOL     hw 3311   5.762   2.493   3.253 -0.5920  0.8681 -0.0248
  828SOL     vw 3312   5.744   2.456   3.330 -0.1683  0.1515 -0.2688
  829SOL     ow 3313   0.509   6.258   6.456 -0.6665 -0.2688  0.2953
  829SOL     hw 3314   0.575   6.297   6.513  0.4321  0.6176 -1.4662
  829SOL     hw 3315   0.484   6.176   6.499  1.7769 -0.7439  0.9327
  829SOL     vw 3316   0.514   6.252   6.469 -0.1992 -0.2148  0.1469
  830SOL     ow 3317   5.231   7.030   5.248 -0.3147 -1.0304 -0.0495
  830SOL     hw 3318   5.259   6.972   5.176 -2.8983 -1.3053 -0.9253
  830SOL     hw 3319   5.282   7.110   5.235  1.0196 -1.9500 -0.7270
  830SOL     vw 3320   5.242   7.033   5.236 -0.4795 -1.1878 -0.2544
  831SOL     ow 3321   5.886   2.593   4.414 -0.6559  0.2056  0.0920
  831SOL     hw 3322   5.809   2.538   4.399 -0.8211  0.4676 -0.0212
  831SOL     hw 3323   5.873   2.629   4.501 -0.9106  0.6490 -0.1255
  831SOL     vw 3324   5.874   2.590   4.423 -0.7114  0.2987  0.0484
  832SOL     ow 3325   1.976   1.644   3.756 -0.4463  0.4270 -0.2747
  832SOL     hw 3326   2.028   1.702   3.701 -1.6546 -0.0851 -2.0524
  832SOL     hw 3327   2.005   1.556   3.733 -0.7682  0.2071  0.1287
  832SOL     vw 3328   1.987   1.640   3.746 -0.6481  0.3304 -0.4561
  833SOL     ow 3329   6.081   0.211   7.123  0.0246 -0.1707  0.5213
  833SOL     hw 3330   6.171   0.200   7.152  0.5110  0.2324 -0.7826
  833SOL     hw 3331   6.029   0.162   7.188  1.4528 -3.6482 -0.7147
  833SOL     vw 3332   6.086   0.203   7.136  0.2773 -0.5763  0.1862
  834SOL     ow 3333   6.454   4.421   0.720 -0.2738 -0.1297 -0.5291
  834SOL     hw 3334   6.431   4.491   0.660  0.1960 -0.6280 -1.3057
  834SOL     hw 3335   6.411   4.445   0.803 -0.8163  0.6265 -1.0199
  834SOL     vw 3336   6.445   4.433   0.723 -0.2832 -0.0954 -0.6963
  835SOL     ow 3337   0.043   1.323   7.124  0.1399  0.6110 -0.4195
  835SOL     hw 3338  -0.033   1.280   7.162 -0.1114  2.5458  1.4928
  835SOL     hw 3339   0.118   1.268   7.148 -0.3832  0.0827  0.0090
  835SOL     vw 3340   0.043   1.310   7.132  0.0377  0.7967 -0.1109
  836SOL     ow 3341   5.579   5.060   1.310 -0.3308  0.7423 -0.5403
  836SOL     hw 3342   5.616   5.059   1.222 -3.5222  1.8108 -2.0441
  836SOL     hw 3343   5.577   4.967   1.336  0.2787  0.3730 -1.7529
  836SOL     vw 3344   5.583   5.047   1.302 -0.6711  0.8345 -0.8987
  837SOL     ow 3345   6.120   5.360   3.837 -0.3716  0.3062 -0.3673
  837SOL     hw 3346   6.213   5.349   3.819 -0.6302  1.6041 -2.9330
  837SOL     hw 3347   6.101   5.298   3.907  2.0694 -1.1548 -0.9116
  837SOL     vw 3348   6.130   5.351   3.844 -0.0834  0.2847 -0.7775
  838SOL     ow 3349   4.359   3.601   4.175 -0.1024 -0.0864 -0.6436
  838SOL     hw 3350   4.359   3.577   4.268  1.1059  0.0345 -0.6018
  838SOL     hw 3351   4.394   3.523   4.131 -0.1868  0.0466 -0.9447
  838SOL     vw 3352   4.364   3.587   4.181  0.0458 -0.0528 -0.6776
  839SOL     ow 3353   0.791   5.481   0.830  0.0174 -0.3530  0.1480
  839SOL     hw 3354   0.813   5.525   0.913  0.6267  0.3191 -0.3564
  839SOL     hw 3355   0.704   5.515   0.808 -0.7944 -1.6279  1.2229
  839SOL     vw 3356   0.782   5.491   0.838 -0.0093 -0.4325  0.2232
  840SOL     ow 3357   0.517   6.454   3.441 -0.6610 -0.6625  0.3414
  840SOL     hw 3358   0.573   6.525   3.473 -0.1851 -0.3188 -1.1347
  840SOL     hw 3359   0.448   6.498   3.392 -0.2028 -1.1869 -0.8313
  840SOL     vw 3360   0.515   6.469   3.439 -0.5378 -0.6864 -0.0081
  841SOL     ow 3361   5.623   3.517   4.469  1.0903 -0.5816  0.5742
  841SOL     hw 3362   5.601   3.439   4.417  0.8957 -0.0608 -0.1355
  841SOL     hw 3363   5.551   3.525   4.532  0.4051 -0.2003 -0.2461
  841SOL     vw 3364   5.611   3.507   4.471  0.9742 -0.4625  0.3724
  842SOL     ow 3365   2.659   1.541   5.924  0.3286 -0.5808  0.1600
  842SOL     hw 3366   2.745   1.581   5.911  0.1840  0.4125  1.8803
  842SOL     hw 3367   2.597   1.611   5.902 -0.0215 -0.9513 -0.0440
  842SOL     vw 3368   2.663   1.555   5.919  0.2633 -0.4986  0.3600
  843SOL     ow 3369   5.186   0.766   6.066  0.4887  0.7443  0.3164
  843SOL     hw 3370   5.248   0.795   6.133  1.2765 -0.9028  0.3689
  843SOL     hw 3371   5.236   0.768   5.985 -0.1661  1.7785 -0.0807
  843SOL     vw 3372   5.201   0.770   6.064  0.5062  0.6634  0.2711
  844SOL     ow 3373   6.779   5.491   0.498 -0.3285  0.3763  0.3486
  844SOL     hw 3374   6.732   5.524   0.422  2.6250  1.9008 -0.9663
  844SOL     hw 3375   6.773   5.562   0.562 -0.5496  0.1964  0.5294
  844SOL     vw 3376   6.772   5.505   0.497  0.0322  0.5536  0.1990
  845SOL     ow 3377   6.507   4.688   5.635  0.4809  0.1474 -0.3921
  845SOL     hw 3378   6.542   4.599   5.626 -1.6163 -0.8091  0.3718
  845SOL     hw 3379   6.454   4.701   5.556 -1.1783 -0.2536  0.6249
  845SOL     vw 3380   6.505   4.678   5.623 -0.0148 -0.0317 -0.1571
  846SOL     ow 3381   6.813   6.945   7.279 -0.7756  0.2522 -0.0536
  846SOL     hw 3382   6.764   6.908   7.352 -0.7977  0.0637 -0.1647
  846SOL     hw 3383   6.777   6.903   7.201 -2.1721  1.9427 -0.3716
  846SOL     vw 3384   6.802   6.935   7.279 -0.9627  0.4506 -0.1101
  847SOL     ow 3385   6.756   6.231   6.956 -0.6883 -0.0463 -0.0810
  847SOL     hw 3386   6.784   6.143   6.931  2.1145 -0.3347  3.3328
  847SOL     hw 3387   6.804   6.289   6.897  0.2236 -0.7734 -0.0766
  847SOL     vw 3388   6.766   6.227   6.945 -0.1984 -0.1802  0.3700
  848SOL     ow 3389   0.097   4.842   7.114 -0.0534 -0.0075 -0.2748
  848SOL     hw 3390   0.140   4.844   7.029 -1.0512  0.3666 -0.7850
  848SOL     hw 3391   0.071   4.751   7.126  0.6283 -0.1853 -0.0774
  848SOL     vw 3392   0.099   4.831   7.105 -0.0951  0.0184 -0.3164
  849SOL     ow 3393   1.092   2.104   6.614  0.6338  0.7703  0.6947
  849SOL     hw 3394   1.041   2.133   6.539  1.3933 -0.5193 -0.3722
  849SOL     hw 3395   1.131   2.184   6.649  2.5537  1.1539 -2.0346
  849SOL     vw 3396   1.090   2.119   6.609  0.9874  0.6506  0.1941
  850SOL     ow 3397   0.965   1.986   6.842 -0.1458 -0.7454 -0.5386
  850SOL     hw 3398   1.023   1.999   6.767  1.8782  2.6134  1.3399
  850SOL     hw 3399   1.006   1.914   6.891  0.5264 -0.6525 -0.9475
  850SOL     vw 3400   0.978   1.978   6.839  0.2099 -0.2900 -0.3448
  851SOL     ow 3401   6.644   1.746   7.249  0.1040 -0.0772 -0.4452
  851SOL     hw 3402   6.597   1.826   7.224  1.9210  0.5567 -1.9845
  851SOL     hw 3403   6.736   1.767   7.236  0.7158 -1.9944  0.4780
  851SOL     vw 3404   6.650   1.760   7.244  0.4241 -0.2465 -0.5267
  852SOL     ow 3405   0.331   1.580   0.062  0.2493 -0.2667 -0.0919
  852SOL     hw 3406   0.410   1.531   0.089  1.4172  1.8091  0.4511
  852SOL     hw 3407   0.338   1.584  -0.034  1.6235  1.0902  0.0165
  852SOL     vw 3408   0.343   1.574   0.053  0.5847  0.1863 -0.0060
  853SOL     ow 3409   2.507   4.703   0.355 -0.4422  0.3319  0.4458
  853SOL     hw 3410   2.518   4.609   0.365  1.4672  0.4094 -0.4399
  853SOL     hw 3411   2.498   4.736   0.444 -0.4972 -0.6237  0.8052
  853SOL     vw 3412   2.508   4.695   0.368 -0.1976  0.2158  0.3764
  854SOL     ow 3413   3.615   6.793   3.720  0.1741  0.3837 -0.2110
  854SOL     hw 3414   3.561   6.771   3.644  0.4194 -2.9329  0.4094
  854SOL     hw 3415   3.700   6.755   3.700  0.6172  0.6044  1.1539
  854SOL     vw 3416   3.619   6.785   3.707  0.2650 -0.0248  0.0510
  855SOL     ow 3417   0.802   4.772   5.888  0.5030  0.8892  0.1956
  855SOL     hw 3418   0.793   4.739   5.799  0.8305  0.8058  0.1931
  855SOL     hw 3419   0.717   4.813   5.907 -0.1171 -0.4539  0.4160
  855SOL     vw 3420   0.789   4.773   5.879  0.4644  0.7010  0.2244
  856SOL     ow 3421   6.343   0.655   4.919 -0.4845 -0.5699  0.1953
  856SOL     hw 3422   6.320   0.562   4.913  3.6384 -1.7713 -0.1150
  856SOL     hw 3423   6.313   0.693   4.837 -0.9537 -1.9582 -0.2950
  856SOL     vw 3424   6.336   0.648   4.908 -0.0021 -0.9116  0.0896
  857SOL     ow 3425   1.724   3.814   0.045 -0.1724 -0.6842 -0.4686
  857SOL     hw 3426   1.689   3.778  -0.036  0.7191  2.5013 -2.4527
  857SOL     hw 3427   1.741   3.906   0.026  2.1348 -0.2497  2.6766
  857SOL     vw 3428   1.722   3.822   0.032  0.2496 -0.2066 -0.3154
  858SOL     ow 3429   0.507   0.176   2.306 -0.3968 -0.5374 -0.4977
  858SOL     hw 3430   0.524   0.158   2.399  0.3076  0.3079 -0.4549
  858SOL     hw 3431   0.435   0.239   2.307  1.3119  1.5357 -0.3831
  858SOL     vw 3432   0.500   0.182   2.319 -0.0784 -0.1524 -0.4770
  859SOL     ow 3433   6.297   6.093   4.527 -0.3726 -0.6633 -0.3746
  859SOL     hw 3434   6.219   6.058   4.571  0.0143  0.0231  0.9121
  859SOL     hw 3435   6.298   6.050   4.441 -0.5804 -2.8960  0.6771
  859SOL     vw 3436   6.287   6.082   4.521 -0.3488 -0.8674 -0.0660
  860SOL     ow 3437   5.711   0.481   1.189  0.0425  0.0926 -0.9023
  860SOL     hw 3438   5.643   0.527   1.239  1.5139  1.2948  0.0663
  860SOL     hw 3439   5.739   0.545   1.124  1.6127  0.3569 -0.0113
  860SOL     vw 3440   5.705   0.496   1.187  0.4437  0.2861 -0.6569
  861SOL     ow 3441   6.327   0.589   4.238  0.4193 -0.3061  0.4429
  861SOL     hw 3442   6.314   0.513   4.181  2.6622 -2.2803  2.3164
  861SOL     hw 3443   6.395   0.561   4.300 -1.3223  1.9155  3.6441
  861SOL     vw 3444   6.334   0.575   4.239  0.4854 -0.2734  1.1125
  862SOL     ow 3445   0.149   3.595   7.053 -0.0404 -0.1090 -0.4867
  862SOL     hw 3446   0.148   3.512   7.006  0.6242  0.1001 -0.8910
  862SOL     hw 3447   0.081   3.647   7.010 -1.3990 -0.8785  0.6326
  862SOL     vw 3448   0.139   3.591   7.041 -0.1320 -0.1830 -0.3922
  863SOL     ow 3449   1.755   5.386   0.500  0.2156  0.0734  1.0483
  863SOL     hw 3450   1.721   5.470   0.468  2.4650  1.3650  1.8794
  863SOL     hw 3451   1.677   5.338   0.528 -1.0543  2.3883  1.7397
  863SOL     vw 3452   1.740   5.391   0.499  0.3448  0.5491  1.2492
  864SOL     ow 3453   2.652   0.853   2.891 -0.1258  0.4323 -0.2428
  864SOL     hw 3454   2.573   0.816   2.851  0.2869 -0.0901 -0.5842
  864SOL     hw 3455   2.670   0.932   2.841 -1.2446  1.3565  0.7440
  864SOL     vw 3456   2.644   0.858   2.879 -0.2190  0.4853 -0.1576
  865SOL     ow 3457   0.023   1.441   1.767  0.5562 -0.0241  0.3554
  865SOL     hw 3458   0.018   1.400   1.854 -0.4830  0.6880  0.6493
  865SOL     hw 3459  -0.035   1.387   1.712 -0.3533  0.6761  0.6021
  865SOL     vw 3460   0.014   1.428   1.771  0.2991  0.1623  0.4267
  866SOL     ow 3461   6.505   2.676   1.684  0.1950 -0.6800  0.2303
  866SOL     hw 3462   6.558   2.686   1.763  0.8556 -1.5150 -0.0979
  866SOL     hw 3463   6.435   2.741   1.694  2.3528  1.8704 -0.2678
  866SOL     vw 3464   6.503   2.686   1.696  0.5670 -0.4537  0.1213
  867SOL     ow 3465   5.763   3.167   0.976 -0.6920 -0.5636 -0.0952
  867SOL     hw 3466   5.763   3.087   0.923 -0.9335  1.2114 -2.9755
  867SOL     hw 3467   5.854   3.195   0.977 -0.6660 -0.6699  0.5820
  867SOL     vw 3468   5.775   3.160   0.969 -0.7203 -0.3433 -0.3859
  868SOL     ow 3469   1.401   6.077   3.805  0.2445  0.3644 -0.0784
  868SOL     hw 3470   1.317   6.070   3.760 -1.6487 -0.6821  3.2697
  868SOL     hw 3471   1.403   6.167   3.839 -0.4886 -0.1302  1.3818
  868SOL     vw 3472   1.391   6.088   3.804 -0.1020  0.1609  0.5561
  869SOL     ow 3473   0.898   6.813   4.266 -0.5567 -0.3611 -0.8583
  869SOL     hw 3474   0.885   6.777   4.178 -3.5431  1.2027 -1.1840
  869SOL     hw 3475   0.886   6.908   4.255  1.3774  0.1595  0.9006
  869SOL     vw 3476   0.895   6.821   4.253 -0.6955 -0.0863 -0.6692
  870SOL     ow 3477   5.805   3.236   3.127 -0.1630  0.3256  0.4871
  870SOL     hw 3478   5.853   3.213   3.048 -0.8203 -2.4721  0.7965
  870SOL     hw 3479   5.767   3.322   3.109  1.2519  0.5963 -1.4556
  870SOL     vw 3480   5.807   3.244   3.114 -0.0632 -0.0077  0.2717
  871SOL     ow 3481   7.130   7.177   4.957  0.2164  0.2194 -0.2884
  871SOL     hw 3482   7.185   7.169   5.035  0.1010  0.9999 -0.1152
  871SOL     hw 3483   7.044   7.203   4.990  0.1230  0.3871 -0.6570
  871SOL     vw 3484   7.126   7.180   4.972  0.1886  0.3445 -0.3142
  872SOL     ow 3485   3.319   6.891   2.322 -0.0811 -0.4324 -0.9349
  872SOL     hw 3486   3.409   6.870   2.348  0.2156 -1.4365 -2.6361
  872SOL     hw 3487   3.294   6.965   2.378  2.4440  1.0852 -1.6638
  872SOL     vw 3488   3.327   6.898   2.333  0.2911 -0.3648 -1.2556
  873SOL     ow 3489   4.488   4.571   4.775  0.5503 -0.0628  0.3687
  873SOL     hw 3490   4.491   4.524   4.692  1.4833  2.6244 -1.2373
  873SOL     hw 3491   4.408   4.622   4.771  0.8305  0.4279  0.9297
  873SOL     vw 3492   4.478   4.571   4.764  0.7102  0.3567  0.2313
  874SOL     ow 3493   1.439   7.234   1.743 -0.0186  0.7496 -0.5710
  874SOL     hw 3494   1.373   7.172   1.712  0.5721 -0.3771  0.3571
  874SOL     hw 3495   1.522   7.187   1.734  0.4459  1.4144  0.1215
  874SOL     vw 3496   1.442   7.220   1.738  0.1206  0.6888 -0.3572
  875SOL     ow 3497   4.549   4.964   4.933  0.0288  0.5756  0.9836
  875SOL     hw 3498   4.486   4.980   4.863  0.1236 -2.4691  0.0534
  875SOL     hw 3499   4.634   4.990   4.896  0.4076 -2.9109 -1.0449
  875SOL     vw 3500   4.552   4.970   4.919  0.0916 -0.2861  0.5934
  876SOL     ow 3501   0.416   0.218   2.008 -0.0694  0.1445  0.0379
  876SOL     hw 3502   0.445   0.251   1.923  1.3966  0.9725  0.8167
  876SOL     hw 3503   0.320   0.213   2.000  0.1180 -1.9661 -2.3937
  876SOL     vw 3504   0.407   0.222   1.995  0.1487 -0.0247 -0.1802
  877SOL     ow 3505   5.166   1.766   5.326 -0.6428 -0.1954  0.5258
  877SOL     hw 3506   5.118   1.744   5.406 -1.0270 -0.6303  0.1733
  877SOL     hw 3507   5.258   1.759   5.351 -0.5228  4.2218  2.3047
  877SOL     vw 3508   5.172   1.763   5.340 -0.6776  0.3300  0.7141
  878SOL     ow 3509   3.145   0.145   1.696  0.7438  0.0619 -0.1307
  878SOL     hw 3510   3.228   0.115   1.658  0.8285 -3.2899  2.2075
  878SOL     hw 3511   3.169   0.179   1.782 -0.1533  0.5241 -0.0554
  878SOL     vw 3512   3.159   0.145   1.702  0.6367 -0.3194  0.1878
  879SOL     ow 3513   2.936   2.775   4.088  0.2626 -0.4224 -0.4301
  879SOL     hw 3514   2.867   2.823   4.042  0.5784  0.0608 -0.4041
  879SOL     hw 3515   3.015   2.792   4.037  0.6884  0.4133  0.4846
  879SOL     vw 3516   2.938   2.783   4.075  0.3605 -0.2483 -0.3064
  880SOL     ow 3517   6.827   3.315   6.403 -0.0572  0.5303  0.7209
  880SOL     hw 3518   6.884   3.238   6.398 -1.9604 -0.9143 -0.4512
  880SOL     hw 3519   6.742   3.280   6.430 -0.8786  2.2822  0.5439
  880SOL     vw 3520   6.823   3.300   6.406 -0.4168  0.5709  0.5431
  881SOL     ow 3521   4.821   3.547   3.106  0.9011  0.9775  0.2074
  881SOL     hw 3522   4.797   3.570   3.016 -1.3373  2.2305  1.0467
  881SOL     hw 3523   4.861   3.627   3.141  3.3165 -0.0175 -0.1060
  881SOL     vw 3524   4.823   3.561   3.099  0.9243  1.0116  0.2767
  882SOL     ow 3525   6.741   6.511   3.268  0.0918  0.2659 -0.2050
  882SOL     hw 3526   6.822   6.543   3.308  0.9560 -2.0205  0.0195
  882SOL     hw 3527   6.717   6.578   3.204  2.3434  0.8412 -0.5106
  882SOL     vw 3528   6.748   6.524   3.265  0.5031  0.0401 -0.2158
  883SOL     ow 3529   1.102   1.521   5.871  0.1244  0.5792  0.0910
  883SOL     hw 3530   1.104   1.534   5.776 -1.2281 -0.1413 -0.0583
  883SOL     hw 3531   1.038   1.585   5.902 -1.0252 -0.6012  0.2413
  883SOL     vw 3532   1.094   1.531   5.863 -0.2058  0.3283  0.0911
  884SOL     ow 3533   3.379   3.866   5.220 -0.6619 -0.0709  0.2261
  884SOL     hw 3534   3.434   3.924   5.167 -0.4703  0.8610  1.4069
  884SOL     hw 3535   3.294   3.868   5.177 -0.5054  0.6667 -0.0592
  884SOL     vw 3536   3.375   3.874   5.207 -0.6160  0.1495  0.3443
  885SOL     ow 3537   6.398   0.041   0.341  0.5600  0.0395 -0.5535
  885SOL     hw 3538   6.429   0.101   0.273  0.5755  0.9278  0.2086
  885SOL     hw 3539   6.423   0.084   0.423 -1.3847  0.1005  0.0609
  885SOL     vw 3540   6.405   0.055   0.343  0.3054  0.1648 -0.3719
  886SOL     ow 3541   4.517   4.103   1.013  0.3010 -0.6455 -0.5152
  886SOL     hw 3542   4.471   4.059   1.085 -0.1745 -0.8283 -0.9254
  886SOL     hw 3543   4.559   4.032   0.965  0.6089 -0.5246 -0.4272
  886SOL     vw 3544   4.516   4.088   1.017  0.2789 -0.6537 -0.5577
  887SOL     ow 3545   5.557   6.203   5.698  0.6931 -0.7856 -0.9005
  887SOL     hw 3546   5.650   6.182   5.708  0.5530 -1.0410 -0.0469
  887SOL     hw 3547   5.514   6.160   5.772 -0.0905 -0.5490 -1.2006
  887SOL     vw 3548   5.563   6.195   5.709  0.5715 -0.7882 -0.8273
  888SOL     ow 3549   1.861   0.639   1.672  1.0685  0.0364 -1.1499
  888SOL     hw 3550   1.809   0.597   1.603  0.6942 -0.4956 -0.5472
  888SOL     hw 3551   1.919   0.570   1.704 -0.3367 -0.3846  0.6346
  888SOL     vw 3552   1.862   0.624   1.667  0.8337 -0.0893 -0.8349
  889SOL     ow 3553   3.171   3.699   5.391 -0.8203  0.6283 -0.0410
  889SOL     hw 3554   3.144   3.611   5.363  0.3417  0.3369 -0.2695
  889SOL     hw 3555   3.089   3.747   5.397 -1.5237 -0.5814  0.4812
  889SOL     vw 3556   3.156   3.693   5.388 -0.7596  0.4301 -0.0024
  890SOL     ow 3557   4.078   4.210   5.788  0.2736  0.2770 -0.2330
  890SOL     hw 3558   4.160   4.178   5.752  0.2458 -2.5880  1.8454
  890SOL     hw 3559   4.092   4.211   5.883 -1.9331  0.1349  0.1538
  890SOL     vw 3560   4.091   4.206   5.796 -0.0212 -0.1194  0.0920
  891SOL     ow 3561   7.011   3.550   6.264  0.5574  0.4181  0.0922
  891SOL     hw 3562   7.008   3.637   6.305  1.3754  0.8839 -0.7948
  891SOL     hw 3563   7.084   3.555   6.203 -0.1685 -0.4883 -0.8891
  891SOL     vw 3564   7.020   3.562   6.261  0.5693  0.3600 -0.1543
  892SOL     ow 3565   4.054   6.778   4.529  0.5161  0.5720 -0.2582
  892SOL     hw 3566   3.990   6.710   4.550  1.1211 -0.3274 -1.2110
  892SOL     hw 3567   4.000   6.854   4.503 -0.2994  1.7924  4.1406
  892SOL     vw 3568   4.038   6.779   4.528  0.4880  0.6144  0.1967
  893SOL     ow 3569   2.876   7.278   0.339  0.3851  0.1757 -0.8066
  893SOL     hw 3570   2.831   7.258   0.256  1.9075  0.9527 -1.8621
  893SOL     hw 3571   2.823   7.234   0.405  0.3780 -2.4151 -2.4020
  893SOL     vw 3572   2.863   7.270   0.337  0.5851 -0.0637 -1.1563
  894SOL     ow 3573   3.551   4.072   2.570 -0.4897  0.0749  0.4239
  894SOL     hw 3574   3.459   4.097   2.571 -0.1592  1.3779  0.3386
  894SOL     hw 3575   3.563   4.028   2.486 -0.9796  0.0919  0.3428
  894SOL     vw 3576   3.541   4.069   2.559 -0.5107  0.2489  0.4021
  895SOL     ow 3577   1.566   3.145   1.295  0.0508  0.2411 -0.2318
  895SOL     hw 3578   1.588   3.063   1.337 -0.6483 -0.7907 -1.7832
  895SOL     hw 3579   1.488   3.175   1.341 -0.1715 -0.3880 -0.1914
  895SOL     vw 3580   1.559   3.138   1.307 -0.0708  0.0219 -0.4311
  896SOL     ow 3581   5.421   3.661   1.730  0.0343  1.1063  0.0830
  896SOL     hw 3582   5.329   3.683   1.747  0.4992  1.9207  1.8150
  896SOL     hw 3583   5.436   3.686   1.639 -0.9023  3.0829  0.4163
  896SOL     vw 3584   5.411   3.667   1.720 -0.0281  1.4745  0.3554
  897SOL     ow 3585   5.657   6.735   4.981 -0.2205 -0.2160  0.8179
  897SOL     hw 3586   5.623   6.725   5.069  0.5359 -0.9041  1.0419
  897SOL     hw 3587   5.676   6.646   4.952  1.4359  0.1286  0.7382
  897SOL     vw 3588   5.655   6.722   4.988  0.0978 -0.2613  0.8368
  898SOL     ow 3589   5.791   1.927   5.772 -0.3847 -0.3511  0.5967
  898SOL     hw 3590   5.873   1.964   5.741 -0.9678  0.5896  0.1582
  898SOL     hw 3591   5.810   1.899   5.862  0.0488  1.0885  0.9771
  898SOL     vw 3592   5.805   1.928   5.780 -0.4044 -0.0371  0.5887
  899SOL     ow 3593   6.327   1.062   4.863 -0.6688 -1.1858  0.2555
  899SOL     hw 3594   6.274   1.140   4.847  1.0176 -0.1458 -0.6261
  899SOL     hw 3595   6.343   1.061   4.957  2.1156  1.5894 -0.0377
  899SOL     vw 3596   6.322   1.072   4.873 -0.0787 -0.6824  0.1004
  900SOL     ow 3597   5.736   1.932   6.871 -0.9788 -0.5111 -0.3853
  900SOL     hw 3598   5.772   1.905   6.787  1.0561  0.6341  0.0350
  900SOL     hw 3599   5.802   1.903   6.935  0.1132  2.9570  0.2978
  900SOL     vw 3600   5.750   1.925   6.869 -0.5660  0.0976 -0.2398
  901SOL     ow 3601   5.300   5.301   4.640 -0.4398 -0.2902 -0.1426
  901SOL     hw 3602   5.342   5.319   4.556 -0.7960 -1.3809 -0.5680
  901SOL     hw 3603   5.221   5.251   4.618 -0.4748 -0.6990  0.8462
  901SOL     vw 3604   5.295   5.297   4.626 -0.4914 -0.4880 -0.0684
  902SOL     ow 3605   2.592   3.193   2.038 -0.1915  0.3954 -0.0390
  902SOL     hw 3606   2.561   3.280   2.014 -0.5096  0.8659  1.9432
  902SOL     hw 3607   2.528   3.161   2.101  1.5379  0.0210  1.6131
  902SOL     vw 3608   2.579   3.200   2.043 -0.0054  0.4081  0.4405
  903SOL     ow 3609   1.102   1.621   2.845  0.1970  0.3310 -0.5463
  903SOL     hw 3610   1.168   1.687   2.821 -0.5703  1.9442  1.5379
  903SOL     hw 3611   1.121   1.600   2.936 -2.0358  0.7180  0.0587
  903SOL     vw 3612   1.113   1.627   2.854 -0.1988  0.5949 -0.1913
  904SOL     ow 3613   0.281   1.398   1.608 -0.4656 -0.5487  0.1865
  904SOL     hw 3614   0.348   1.339   1.642  2.0849  1.1077 -1.6173
  904SOL     hw 3615   0.241   1.349   1.536 -0.3249 -1.0816  0.4604
  904SOL     vw 3616   0.284   1.383   1.603 -0.1106 -0.4004 -0.0154
  905SOL     ow 3617   4.290   4.500   1.399 -0.0988 -0.4243 -0.0842
  905SOL     hw 3618   4.243   4.580   1.423  1.1546  0.3316 -0.0492
  905SOL     hw 3619   4.295   4.449   1.480 -1.5976 -0.9402 -0.2815
  905SOL     vw 3620   4.284   4.504   1.413 -0.1311 -0.3927 -0.1056
  906SOL     ow 3621   4.505   1.202   2.994 -0.0060  0.2924 -0.2813
  906SOL     hw 3622   4.531   1.126   2.941 -0.7942 -1.0326  1.1274
  906SOL     hw 3623   4.588   1.236   3.028  0.4525  0.7706 -1.7915
  906SOL     vw 3624   4.520   1.196   2.992 -0.0494  0.1807 -0.2947
  907SOL     ow 3625   3.873   0.534   0.167 -0.4749 -0.2981  0.3892
  907SOL     hw 3626   3.937   0.463   0.165 -0.7614 -0.6075  1.7108
  907SOL     hw 3627   3.829   0.529   0.082  0.8568 -0.4308 -0.3114
  907SOL     vw 3628   3.876   0.524   0.155 -0.3370 -0.3565  0.4711
  908SOL     ow 3629   6.377   0.850   0.263  0.0904  0.3854  0.8702
  908SOL     hw 3630   6.412   0.796   0.191  1.1458  0.8500  1.0238
  908SOL     hw 3631   6.287   0.869   0.236  0.5284  0.7215 -0.4402
  908SOL     vw 3632   6.370   0.845   0.250  0.2873  0.4911  0.7176
  909SOL     ow 3633   6.592   5.520   1.022  0.1371  0.5293 -0.0849
  909SOL     hw 3634   6.666   5.462   1.042  0.8128  2.0648  2.2785
  909SOL     hw 3635   6.545   5.529   1.105 -1.1598  1.7280 -0.9003
  909SOL     vw 3636   6.596   5.513   1.035  0.0553  0.8900  0.1194
  910SOL     ow 3637   6.527   6.323   6.796  0.4818 -0.0279  0.1629
  910SOL     hw 3638   6.464   6.272   6.745  3.3630 -2.6428 -1.1406
  910SOL     hw 3639   6.522   6.411   6.760 -1.8594 -0.3088 -0.3456
  910SOL     vw 3640   6.518   6.328   6.784  0.5529 -0.4101 -0.0761
  911SOL     ow 3641   5.811   6.984   4.990  0.2997  0.7254 -0.1630
  911SOL     hw 3642   5.749   7.057   4.987  0.6354  0.9857 -1.4703
  911SOL     hw 3643   5.767   6.912   4.945  0.3536  0.4242  0.2587
  911SOL     vw 3644   5.797   6.984   4.984  0.3510  0.7203 -0.2797
  912SOL     ow 3645   3.438   0.332   2.929 -0.4518 -0.0208 -0.2768
  912SOL     hw 3646   3.531   0.351   2.918  0.4455 -1.5680  3.2573
  912SOL     hw 3647   3.433   0.236   2.933 -2.6215 -0.1202 -2.5965
  912SOL     vw 3648   3.450   0.322   2.928 -0.6196 -0.2381 -0.1167
  913SOL     ow 3649   5.368   4.549   3.224 -0.1324 -0.4348  0.3416
  913SOL     hw 3650   5.455   4.573   3.193 -0.9495  0.4680 -1.3866
  913SOL     hw 3651   5.358   4.597   3.306  0.9776 -0.5267  0.5474
  913SOL     vw 3652   5.378   4.558   3.231 -0.0939 -0.3281  0.1408
  914SOL     ow 3653   1.617   3.793   7.165  0.8337 -1.0542  0.4041
  914SOL     hw 3654   1.594   3.706   7.132  2.4778 -1.7660  1.0505
  914SOL     hw 3655   1.542   3.819   7.219 -0.8210 -0.9107 -1.8014
  914SOL     vw 3656   1.604   3.785   7.167  0.8323 -1.1292  0.1986
  915SOL     ow 3657   0.467   5.665   4.219  0.6501 -0.5373  0.1689
  915SOL     hw 3658   0.429   5.585   4.182  1.5431 -0.2793 -1.4228
  915SOL     hw 3659   0.400   5.697   4.280 -0.3494 -1.7223 -0.2539
  915SOL     vw 3660   0.453   5.659   4.222  0.6361 -0.6599 -0.0966
  916SOL     ow 3661   4.792   4.553   6.182 -0.5837  0.1862  0.9435
  916SOL     hw 3662   4.778   4.464   6.152  1.3291  0.0817  0.2195
  916SOL     hw 3663   4.720   4.604   6.143 -0.6084 -0.7036 -0.2103
  916SOL     vw 3664   4.781   4.548   6.173 -0.3347  0.0553  0.6957
  917SOL     ow 3665   1.052   6.339   6.062  0.2996  0.0107 -0.3274
  917SOL     hw 3666   1.065   6.293   5.979 -2.0120  0.3727 -0.9596
  917SOL     hw 3667   1.037   6.430   6.038 -0.7560  0.0596  0.4177
  917SOL     vw 3668   1.052   6.345   6.048 -0.1446  0.0648 -0.3126
  918SOL     ow 3669   2.686   3.753   5.933 -0.1992 -0.0773 -0.7002
  918SOL     hw 3670   2.651   3.841   5.951 -2.5124 -1.1222  0.3058
  918SOL     hw 3671   2.723   3.724   6.016 -1.8678 -1.0397 -0.2466
  918SOL     vw 3672   2.686   3.761   5.946 -0.7246 -0.3420 -0.5076
  919SOL     ow 3673   1.412   3.964   5.434  0.0206 -0.5418 -0.8345
  919SOL     hw 3674   1.356   3.911   5.377  2.1471  0.5276 -4.1668
  919SOL     hw 3675   1.356   3.986   5.508 -2.5688 -2.9987 -1.8796
  919SOL     vw 3676   1.397   3.960   5.437 -0.0405 -0.7249 -1.4122
  920SOL     ow 3677   4.731   6.686   0.559 -0.0474 -0.6063  0.1163
  920SOL     hw 3678   4.823   6.685   0.583 -0.4404 -1.4582  1.7675
  920SOL     hw 3679   4.722   6.620   0.491  0.8060  0.6073 -1.2213
  920SOL     vw 3680   4.742   6.677   0.553  0.0138 -0.5584  0.1577
  921SOL     ow 3681   4.337   6.512   2.959 -0.3834  0.3821 -0.2658
  921SOL     hw 3682   4.356   6.466   3.040 -2.4002  0.2540  0.1904
  921SOL     hw 3683   4.340   6.444   2.892 -0.9271  0.0576  0.0385
  921SOL     vw 3684   4.340   6.497   2.961 -0.7212  0.3226 -0.1655
  922SOL     ow 3685   4.568   5.568   1.364  0.1697 -0.2120 -0.6780
  922SOL     hw 3686   4.651   5.520   1.361  0.8057  0.6024  1.6085
  922SOL     hw 3687   4.541   5.562   1.456 -3.5714 -2.4484 -1.6744
  922SOL     vw 3688   4.575   5.561   1.376 -0.2398 -0.3996 -0.5078
  923SOL     ow 3689   7.249   4.559   0.236  0.0592  0.2850  0.0432
  923SOL     hw 3690   7.320   4.513   0.280 -0.9238 -2.0027 -0.6166
  923SOL     hw 3691   7.291   4.605   0.164  0.8687 -1.3475 -0.5703
  923SOL     vw 3692   7.264   4.559   0.232  0.0365 -0.2325 -0.1248
  924SOL     ow 3693   0.279   3.460   7.307  0.0994  1.0044  0.2758
  924SOL     hw 3694   0.338   3.386   7.299 -0.9210  0.3545 -2.5100
  924SOL     hw 3695   0.194   3.421   7.328 -0.1050  1.5475  0.4704
  924SOL     vw 3696   0.275   3.445   7.309 -0.0622  0.9902 -0.0663
  925SOL     ow 3697   0.994   2.505   6.779 -0.1968  0.7186 -0.1177
  925SOL     hw 3698   0.923   2.471   6.726  0.3166  0.2971 -0.5533
  925SOL     hw 3699   0.981   2.466   6.865  0.2797 -0.4695 -0.5618
  925SOL     vw 3700   0.983   2.496   6.783 -0.0662  0.5062 -0.2334
  926SOL     ow 3701   4.694   5.858   0.981  0.1071 -0.0260  0.0403
  926SOL     hw 3702   4.772   5.843   0.928 -1.1818  0.2520 -2.0868
  926SOL     hw 3703   4.623   5.817   0.931 -1.1578 -0.1574  1.8257
  926SOL     vw 3704   4.695   5.851   0.967 -0.2296 -0.0067 -0.0048
  927SOL     ow 3705   4.606   0.039   5.264 -0.3483 -0.2883 -0.1554
  927SOL     hw 3706   4.683   0.084   5.299 -0.2819 -1.4707  1.3192
  927SOL     hw 3707   4.561   0.106   5.212 -0.2640  1.5236  1.9311
  927SOL     vw 3708   4.610   0.054   5.262 -0.3285 -0.2053  0.3145
  928SOL     ow 3709   6.989   5.237   1.843  0.1173  0.1990  0.9741
  928SOL     hw 3710   7.018   5.273   1.927 -1.0497  0.4457  1.2812
  928SOL     hw 3711   6.894   5.233   1.849  0.1096 -1.5227  0.3548
  928SOL     vw 3712   6.981   5.241   1.855 -0.0379  0.0043  0.9329
  929SOL     ow 3713   5.830   1.589   3.430 -0.5214 -0.2671 -0.3855
  929SOL     hw 3714   5.842   1.678   3.463 -0.3726 -0.4820  0.1511
  929SOL     hw 3715   5.741   1.566   3.456 -0.0049 -0.8748  0.9606
  929SOL     vw 3716   5.820   1.598   3.438 -0.4337 -0.3757 -0.1371
  930SOL     ow 3717   0.223   4.106   4.911 -0.3086 -0.2940 -0.4622
  930SOL     hw 3718   0.253   4.015   4.905 -1.3015 -0.6831  0.2211
  930SOL     hw 3719   0.303   4.157   4.921  0.2278 -1.1544 -0.2320
  930SOL     vw 3720   0.237   4.101   4.912 -0.3689 -0.4590 -0.3417
  931SOL     ow 3721   3.295   3.261   1.174 -0.5501  0.2311 -0.1346
  931SOL     hw 3722   3.279   3.180   1.222  0.2679 -1.5946 -2.7125
  931SOL     hw 3723   3.242   3.327   1.218 -0.3700 -1.4139  2.7595
  931SOL     vw 3724   3.286   3.259   1.186 -0.4183 -0.2267 -0.0929
  932SOL     ow 3725   5.443   6.409   4.762  0.5652  0.6915 -0.0118
  932SOL     hw 3726   5.383   6.434   4.832  0.3784  1.2080 -0.3494
  932SOL     hw 3727   5.518   6.370   4.807 -0.8072 -1.7293  0.3382
  932SOL     vw 3728   5.445   6.407   4.777  0.3593  0.4404 -0.0100
  933SOL     ow 3729   2.222   1.100   2.317 -0.1145  0.6532 -0.1525
  933SOL     hw 3730   2.277   1.048   2.258 -0.2668  1.5009 -1.0650
  933SOL     hw 3731   2.190   1.037   2.381  0.8412 -0.1104 -0.3983
  933SOL     vw 3732   2.225   1.085   2.317 -0.0086  0.6643 -0.3054
  934SOL     ow 3733   5.096   0.637   4.736  0.3218 -0.0666  0.4235
  934SOL     hw 3734   5.018   0.621   4.789  0.0565  0.4049  0.1858
  934SOL     hw 3735   5.085   0.726   4.703  0.9162 -0.0293  0.3076
  934SOL     vw 3736   5.084   0.646   4.738  0.3653  0.0005  0.3767
  935SOL     ow 3737   6.710   5.118   1.498  0.0549  0.5015  1.2554
  935SOL     hw 3738   6.620   5.088   1.510 -0.5793  2.7479  2.8840
  935SOL     hw 3739   6.701   5.210   1.472  1.8441 -0.3860 -3.4215
  935SOL     vw 3740   6.697   5.126   1.496  0.2072  0.6809  0.8532
  936SOL     ow 3741   7.287   5.458   1.291 -0.0178  0.1360  0.0137
  936SOL     hw 3742   7.220   5.506   1.243 -1.3932  1.3530  2.8914
  936SOL     hw 3743   7.369   5.498   1.265 -1.1047  4.9409  2.8081
  936SOL     vw 3744   7.289   5.469   1.282 -0.3428  0.9305  0.7621
  937SOL     ow 3745   5.948   5.084   5.995  0.6905 -0.4530 -0.4900
  937SOL     hw 3746   5.900   5.008   6.028  2.4609 -0.9799  1.0265
  937SOL     hw 3747   5.908   5.102   5.910 -2.3956 -0.5947  0.8022
  937SOL     vw 3748   5.936   5.076   5.988  0.5171 -0.5414 -0.1192
  938SOL     ow 3749   4.498   1.865   4.571  0.3057  0.2310  0.4207
  938SOL     hw 3750   4.458   1.802   4.512 -1.5772  2.3419 -0.6756
  938SOL     hw 3751   4.583   1.885   4.531  0.4246 -0.7053  0.1805
  938SOL     vw 3752   4.504   1.859   4.558  0.0730  0.3861  0.2441
  939SOL     ow 3753   6.479   1.613   3.368  0.5365  0.1187 -0.4324
  939SOL     hw 3754   6.443   1.555   3.435 -0.4584  1.2129  0.0154
  939SOL     hw 3755   6.536   1.557   3.315 -0.3924 -1.2562 -0.0139
  939SOL     vw 3756   6.482   1.598   3.370  0.2825  0.0817 -0.3182
  940SOL     ow 3757   0.229   5.480   1.195 -0.2571 -0.2367 -0.2848
  940SOL     hw 3758   0.225   5.400   1.248  0.5394  0.7808  1.4097
  940SOL     hw 3759   0.245   5.450   1.106 -0.2501 -1.9636  0.2709
  940SOL     vw 3760   0.230   5.466   1.190 -0.1511 -0.3304  0.0121
  941SOL     ow 3761   0.509   6.528   0.133  0.3281  0.1755 -0.1673
  941SOL     hw 3762   0.483   6.440   0.158 -0.0442  0.2147 -0.4103
  941SOL     hw 3763   0.601   6.534   0.158  0.7998 -0.8215 -1.5401
  941SOL     vw 3764   0.518   6.517   0.139  0.3412  0.0489 -0.3805
  942SOL     ow 3765   6.681   6.152   4.923  0.3035  0.0393  0.3222
  942SOL     hw 3766   6.751   6.192   4.873 -0.4826  0.9606 -0.0698
  942SOL     hw 3767   6.704   6.059   4.926  0.4795 -0.0193 -1.5939
  942SOL     vw 3768   6.693   6.145   4.917  0.2229  0.1531  0.0176
  943SOL     ow 3769   2.713   0.832   1.476  0.2101  0.2107 -1.0405
  943SOL     hw 3770   2.637   0.809   1.422 -1.2492  1.7738  0.2393
  943SOL     hw 3771   2.678   0.841   1.564  2.3773 -1.3949  0.0754
  943SOL     vw 3772   2.698   0.830   1.480  0.3035  0.2051 -0.7244
  944SOL     ow 3773   0.124   6.828   7.089 -0.1634 -0.4464  0.0525
  944SOL     hw 3774   0.098   6.842   6.998 -0.1604 -1.5002 -0.1221
  944SOL     hw 3775   0.219   6.835   7.088 -0.0880 -1.3907 -0.2112
  944SOL     vw 3776   0.133   6.831   7.077 -0.1530 -0.7102 -0.0050
  945SOL     ow 3777   4.494   6.626   4.951 -0.0225  0.4665  0.4406
  945SOL     hw 3778   4.519   6.547   4.903 -0.8599  0.9349 -0.8269
  945SOL     hw 3779   4.577   6.666   4.978  0.4019 -1.0553  1.4965
  945SOL     vw 3780   4.508   6.621   4.948 -0.0770  0.3273  0.4127
  946SOL     ow 3781   7.283   2.423   1.266 -0.0016  0.0518  0.2908
  946SOL     hw 3782   7.218   2.420   1.337 -1.3743 -0.0590 -0.9161
  946SOL     hw 3783   7.364   2.452   1.309 -0.8218  0.1590  1.8601
  946SOL     vw 3784   7.285   2.427   1.281 -0.2909  0.0513  0.3387
  947SOL     ow 3785   3.130   1.411   1.620  0.1144 -0.0303 -0.5241
  947SOL     hw 3786   3.205   1.421   1.561 -0.7308  0.0127 -1.6240
  947SOL     hw 3787   3.087   1.496   1.620 -0.4215 -0.2964 -0.5864
  947SOL     vw 3788   3.134   1.423   1.613 -0.0678 -0.0598 -0.6774
  948SOL     ow 3789   1.114   7.174   5.321  0.0333  0.5061 -0.7648
  948SOL     hw 3790   1.102   7.118   5.244  1.4435  0.8040 -1.2253
  948SOL     hw 3791   1.064   7.253   5.300 -0.8511 -0.0200 -0.6952
  948SOL     vw 3792   1.106   7.177   5.308  0.1026  0.4761 -0.8166
  949SOL     ow 3793   4.320   0.898   2.804  0.4596 -0.2963  0.2669
  949SOL     hw 3794   4.349   0.888   2.713  3.3410 -1.4690  1.1930
  949SOL     hw 3795   4.298   0.809   2.832 -2.2402  0.2874  0.2662
  949SOL     vw 3796   4.321   0.885   2.796  0.4835 -0.3740  0.3891
  950SOL     ow 3797   6.921   4.857   5.015 -0.1878 -0.2147 -0.3388
  950SOL     hw 3798   6.998   4.909   4.995 -0.5776 -0.0288 -1.4411
  950SOL     hw 3799   6.885   4.895   5.095 -0.0074  0.6879 -0.6791
  950SOL     vw 3800   6.926   4.869   5.023 -0.2153 -0.0710 -0.5293
  951SOL     ow 3801   1.874   5.811   6.200 -0.1965  0.3961 -0.1360
  951SOL     hw 3802   1.922   5.888   6.230 -0.4411  0.1363  0.9346
  951SOL     hw 3803   1.940   5.743   6.191 -0.0843  0.5439 -0.4585
  951SOL     vw 3804   1.889   5.812   6.202 -0.2140  0.3815 -0.0372
  952SOL     ow 3805   0.562   4.967   4.326  0.0521 -0.5685 -0.1607
  952SOL     hw 3806   0.507   4.892   4.304  3.4336 -2.9677 -1.2632
  952SOL     hw 3807   0.553   5.027   4.252 -0.1571 -1.5039 -0.9133
  952SOL     vw 3808   0.554   4.965   4.314  0.4707 -1.0085 -0.4058
  953SOL     ow 3809   2.998   3.754   6.680 -0.3634  0.1236 -0.0738
  953SOL     hw 3810   2.987   3.787   6.769 -0.0621 -0.2028  0.0904
  953SOL     hw 3811   2.923   3.696   6.666 -0.3033  0.0157  0.0445
  953SOL     vw 3812   2.987   3.750   6.690 -0.3155  0.0664 -0.0367
  954SOL     ow 3813   4.023   4.233   6.452  0.0702  0.1846  0.2241
  954SOL     hw 3814   4.001   4.321   6.481 -0.2146  0.1310  0.1694
  954SOL     hw 3815   4.051   4.188   6.532 -1.1791 -0.1066  0.5063
  954SOL     vw 3816   4.024   4.238   6.467 -0.1321  0.1392  0.2542
  955SOL     ow 3817   1.153   0.005   1.138  0.5486  0.9382  0.2626
  955SOL     hw 3818   1.073   0.008   1.191 -1.5068  1.8533 -2.6353
  955SOL     hw 3819   1.155  -0.084   1.102  1.3780  0.6278  1.0536
  955SOL     vw 3820   1.143  -0.006   1.140  0.3869  1.0183 -0.0153
  956SOL     ow 3821   5.672   0.781   7.161  0.0818 -0.1571  0.3132
  956SOL     hw 3822   5.622   0.863   7.167  0.4824  0.8917 -5.2878
  956SOL     hw 3823   5.763   0.808   7.171  0.0863 -0.6019  1.7503
  956SOL     vw 3824   5.678   0.796   7.163  0.1354 -0.0774 -0.2360
  957SOL     ow 3825   5.913   2.795   6.159  0.3790  0.5074  0.4962
  957SOL     hw 3826   5.917   2.700   6.148 -0.8335  0.6549 -2.0086
  957SOL     hw 3827   5.977   2.829   6.096 -2.9478  1.3690 -2.7803
  957SOL     vw 3828   5.922   2.787   6.149 -0.2198  0.6406 -0.2668
  958SOL     ow 3829   1.726   4.995   2.855 -0.2028 -0.1234 -0.4074
  958SOL     hw 3830   1.800   5.053   2.836 -0.1860 -0.0389 -0.0847
  958SOL     hw 3831   1.715   4.943   2.775  0.3749 -0.3228 -0.3635
  958SOL     vw 3832   1.734   4.996   2.842 -0.1244 -0.1388 -0.3592
  959SOL     ow 3833   1.301   1.908   1.579 -0.4167  0.5027 -0.3339
  959SOL     hw 3834   1.268   1.987   1.536  1.0597  1.3783  0.0637
  959SOL     hw 3835   1.225   1.873   1.626 -1.2104  1.4239 -0.8906
  959SOL     vw 3836   1.286   1.914   1.580 -0.3266  0.7398 -0.3549
  960SOL     ow 3837   6.704   4.982   1.272 -0.2743  0.4375 -0.4923
  960SOL     hw 3838   6.702   5.043   1.346  4.2759 -0.4157  0.6755
  960SOL     hw 3839   6.760   5.025   1.207  1.8166 -1.6778 -0.2478
  960SOL     vw 3840   6.711   4.995   1.274  0.6018  0.0458 -0.3060
  961SOL     ow 3841   6.656   4.004   1.009 -0.7197  0.1189  0.3078
  961SOL     hw 3842   6.700   4.071   1.062 -2.1454  0.2300  1.3958
  961SOL     hw 3843   6.696   3.922   1.037 -1.4515  0.1734  1.6073
  961SOL     vw 3844   6.667   4.002   1.020 -1.0047  0.1407  0.6227
  962SOL     ow 3845   7.302   0.288   4.316 -0.0492  0.0257 -0.3572
  962SOL     hw 3846   7.344   0.372   4.294  2.0852 -0.4092  1.6711
  962SOL     hw 3847   7.367   0.222   4.292  0.3024 -0.7262  2.3465
  962SOL     vw 3848   7.316   0.291   4.310  0.2785 -0.1309  0.2673
  963SOL     ow 3849   1.515   4.863   5.406 -0.4507  0.0159 -0.4196
  963SOL     hw 3850   1.476   4.923   5.471  0.4305  1.2367 -0.9874
  963SOL     hw 3851   1.456   4.869   5.330  0.4210  1.3492 -1.0296
  963SOL     vw 3852   1.502   4.872   5.405 -0.2194  0.3531 -0.5751
  964SOL     ow 3853   6.076   2.849   5.898 -0.1485  0.3885  0.4194
  964SOL     hw 3854   6.039   2.930   5.862  0.7107  0.0110 -1.4283
  964SOL     hw 3855   6.057   2.783   5.831 -1.9611 -1.2822  2.4372
  964SOL     vw 3856   6.069   2.851   5.884 -0.2742  0.1183  0.4420
  965SOL     ow 3857   5.078   4.439   6.518 -0.1089 -1.1963  0.0056
  965SOL     hw 3858   5.125   4.402   6.443  2.1468 -0.6665  1.0780
  965SOL     hw 3859   5.088   4.375   6.587  0.7027 -0.2466  0.8020
  965SOL     vw 3860   5.086   4.426   6.517  0.2961 -1.0011  0.2525
  966SOL     ow 3861   1.792   0.604   5.122 -0.0054 -0.4951  0.0618
  966SOL     hw 3862   1.861   0.563   5.175  0.2446 -1.7023 -1.1550
  966SOL     hw 3863   1.711   0.584   5.169  0.2373 -1.3431  0.1438
  966SOL     vw 3864   1.791   0.596   5.135  0.0595 -0.7663 -0.0880
  967SOL     ow 3865   0.927   7.031   6.746 -0.0407 -0.0881 -0.4148
  967SOL     hw 3866   0.959   7.079   6.669 -0.3356 -1.1910 -1.2617
  967SOL     hw 3867   0.874   6.960   6.709 -0.3801 -0.5016  0.8293
  967SOL     vw 3868   0.925   7.028   6.731 -0.1243 -0.2885 -0.3624
  968SOL     ow 3869   6.474   1.851   0.357 -0.1001 -0.0769 -0.4908
  968SOL     hw 3870   6.392   1.855   0.308  0.4748  1.3987 -1.3973
  968SOL     hw 3871   6.454   1.894   0.440  0.1411  1.7583 -1.3458
  968SOL     vw 3872   6.460   1.857   0.362  0.0079  0.3600 -0.7232
  969SOL     ow 3873   6.377   5.823   6.440  0.1336  0.3939 -0.2498
  969SOL     hw 3874   6.433   5.876   6.497  1.3240 -0.0118 -1.0131
  969SOL     hw 3875   6.395   5.856   6.352 -0.6648  0.0949 -0.5316
  969SOL     vw 3876   6.387   5.835   6.436  0.1853  0.3009 -0.3879
  970SOL     ow 3877   7.091   6.213   5.131  0.0231 -0.5191  0.4523
  970SOL     hw 3878   7.006   6.233   5.093  0.3134  0.3420  0.2516
  970SOL     hw 3879   7.073   6.202   5.225 -0.3879 -0.8533  0.3392
  970SOL     vw 3880   7.077   6.214   5.139  0.0069 -0.4497  0.4110
  971SOL     ow 3881   5.325   0.529   6.791 -0.1679  0.3678 -0.2652
  971SOL     hw 3882   5.239   0.571   6.799 -1.7717 -2.4468 -1.3898
  971SOL     hw 3883   5.306   0.436   6.789  3.1487 -0.5130  1.6274
  971SOL     vw 3884   5.311   0.522   6.792  0.0582 -0.1197 -0.1643
  972SOL     ow 3885   6.965   3.962   1.273 -0.1228  0.0683 -0.5147
  972SOL     hw 3886   7.000   3.915   1.197  2.2748  2.2384 -0.8875
  972SOL     hw 3887   6.962   3.896   1.342  2.2344 -0.9084 -1.2562
  972SOL     vw 3888   6.969   3.947   1.272  0.5045  0.2258 -0.6617
  973SOL     ow 3889   1.357   3.681   6.979 -0.1224  0.2121  0.1878
  973SOL     hw 3890   1.285   3.732   7.018 -0.0006  0.4554  0.0959
  973SOL     hw 3891   1.354   3.597   7.025  1.0104  1.0272  1.8853
  973SOL     vw 3892   1.347   3.676   6.991  0.0432  0.3518  0.3998
  974SOL     ow 3893   5.793   2.860   2.821  0.3686  0.4818  0.5075
  974SOL     hw 3894   5.882   2.854   2.787  0.1099 -1.8939  0.1067
  974SOL     hw 3895   5.760   2.943   2.785  1.2378 -0.3042 -2.3658
  974SOL     vw 3896   5.800   2.870   2.812  0.4492  0.0645  0.0757
  975SOL     ow 3897   0.464   3.733   2.619  1.0876 -0.0633 -0.7455
  975SOL     hw 3898   0.413   3.805   2.656  1.9094 -2.1416  5.7350
  975SOL     hw 3899   0.407   3.657   2.626  2.3161 -1.0932 -1.4163
  975SOL     vw 3900   0.450   3.732   2.625  1.3581 -0.4734  0.0209
  976SOL     ow 3901   0.501   4.967   2.923  0.2092  0.2022  0.0135
  976SOL     hw 3902   0.452   4.983   3.004  1.1972 -2.5070  1.2700
  976SOL     hw 3903   0.434   4.960   2.856 -0.7742  0.7856  0.8920
  976SOL     vw 3904   0.486   4.969   2.925  0.2098 -0.0782  0.2952
  977SOL     ow 3905   0.289   4.300   1.449  0.0664  0.2117  0.1577
  977SOL     hw 3906   0.273   4.249   1.528 -1.2884  1.9171  1.0564
  977SOL     hw 3907   0.370   4.348   1.469  2.0305 -2.2932 -1.1515
  977SOL     vw 3908   0.298   4.300   1.462  0.1468  0.1063  0.1036
  978SOL     ow 3909   2.311   2.989   6.772  0.0475  0.7702 -0.9584
  978SOL     hw 3910   2.223   2.954   6.757  0.1535 -0.2947  0.7233
  978SOL     hw 3911   2.296   3.078   6.804 -0.3919  0.7706 -1.1508
  978SOL     vw 3912   2.297   2.996   6.774  0.0035  0.6297 -0.7620
  979SOL     ow 3913   1.461   2.344   6.806 -0.1661 -0.1079  0.3018
  979SOL     hw 3914   1.542   2.393   6.822 -0.0655  0.1610 -0.8833
  979SOL     hw 3915   1.426   2.326   6.893  1.3832 -0.6097  0.8570
  979SOL     vw 3916   1.467   2.348   6.819  0.0516 -0.1386  0.2186
  980SOL     ow 3917   3.729   6.318   5.005 -0.4206 -0.1160  0.0955
  980SOL     hw 3918   3.768   6.403   4.982 -0.9980 -0.1959 -1.2853
  980SOL     hw 3919   3.655   6.340   5.061  0.3427  0.1753  1.0106
  980SOL     vw 3920   3.724   6.332   5.009 -0.3960 -0.0880  0.0341
  981SOL     ow 3921   4.716   3.331   7.303 -0.3402 -0.2521 -0.0595
  981SOL     hw 3922   4.704   3.390   7.229 -2.2660 -0.6125 -0.0813
  981SOL     hw 3923   4.804   3.294   7.290 -0.3494  0.2283 -1.7472
  981SOL     vw 3924   4.726   3.334   7.292 -0.5956 -0.2362 -0.2851
  982SOL     ow 3925   5.149   2.816   2.019  0.3259 -0.4436 -0.0150
  982SOL     hw 3926   5.154   2.799   2.113 -0.6450  0.2852  0.1863
  982SOL     hw 3927   5.170   2.732   1.979 -0.4412 -1.0947  0.8807
  982SOL     vw 3928   5.152   2.803   2.026  0.0966 -0.4333  0.1297
  983SOL     ow 3929   3.340   3.319   1.995 -0.0266 -0.5380 -0.3463
  983SOL     hw 3930   3.392   3.241   2.013  1.1718 -0.0101 -1.3597
  983SOL     hw 3931   3.343   3.369   2.077 -0.4107 -1.3326  0.1551
  983SOL     vw 3932   3.347   3.316   2.009  0.0808 -0.5732 -0.4139
  984SOL     ow 3933   2.468   5.780   4.087 -0.6936 -0.2834 -0.0046
  984SOL     hw 3934   2.471   5.696   4.133 -1.8588 -0.1422  0.3591
  984SOL     hw 3935   2.453   5.845   4.156 -2.0250 -0.0229 -0.5019
  984SOL     vw 3936   2.466   5.778   4.102 -1.0229 -0.2303 -0.0224
  985SOL     ow 3937   0.551   1.651   7.100  0.4982  0.7871  0.9080
  985SOL     hw 3938   0.618   1.703   7.144 -0.7372  1.1475  2.4463
  985SOL     hw 3939   0.491   1.716   7.062  0.4844  0.4749  0.3876
  985SOL     vw 3940   0.552   1.666   7.101  0.3333  0.7934  1.0421
  986SOL     ow 3941   1.081   6.965   5.537 -0.0536  0.0630 -0.2177
  986SOL     hw 3942   1.099   6.888   5.483  1.0238  0.0820  0.0707
  986SOL     hw 3943   0.987   6.962   5.553 -0.5365  0.4960 -2.7057
  986SOL     vw 3944   1.071   6.954   5.532  0.0249  0.1223 -0.5081
  987SOL     ow 3945   3.362   1.375   6.256  0.3213  0.0444  0.2753
  987SOL     hw 3946   3.316   1.430   6.320  2.4164  0.5229  1.4981
  987SOL     hw 3947   3.361   1.288   6.295 -0.6335 -0.2193 -0.3248
  987SOL     vw 3948   3.356   1.371   6.270  0.4717  0.0728  0.3574
  988SOL     ow 3949   2.858   3.793   2.153  0.2027  0.3163  0.5825
  988SOL     hw 3950   2.812   3.745   2.084 -0.0641 -2.4083  2.4942
  988SOL     hw 3951   2.789   3.823   2.212  0.4591  2.2484 -0.0258
  988SOL     vw 3952   2.843   3.791   2.152  0.2013  0.2117  0.7545
  989SOL     ow 3953   2.020   2.487   2.133 -0.1681 -0.3343 -0.0616
  989SOL     hw 3954   2.017   2.395   2.110 -2.3064 -0.6701  1.2827
  989SOL     hw 3955   1.936   2.523   2.103 -0.0793  0.7680  0.8923
  989SOL     vw 3956   2.008   2.480   2.126 -0.4387 -0.2332  0.2416
  990SOL     ow 3957   3.995   1.595   7.339 -0.6092  0.2284 -0.3540
  990SOL     hw 3958   3.979   1.622   7.248  0.0731  0.2124 -0.4803
  990SOL     hw 3959   3.911   1.611   7.383 -1.7723 -2.1606 -1.5298
  990SOL     vw 3960   3.982   1.601   7.333 -0.6726 -0.0890 -0.5258
  991SOL     ow 3961   5.200   0.936   4.979 -0.2294  0.6886 -0.2274
  991SOL     hw 3962   5.109   0.911   4.960 -0.3415 -0.6448  1.7330
  991SOL     hw 3963   5.240   0.855   5.011  1.8547  1.1094 -1.6053
  991SOL     vw 3964   5.193   0.922   4.980  0.0308  0.5682 -0.1507
  992SOL     ow 3965   2.855   5.708   4.700  0.2476  0.6056 -0.3236
  992SOL     hw 3966   2.950   5.715   4.708  0.2940  0.2403 -0.5190
  992SOL     hw 3967   2.828   5.659   4.778  0.0522  1.9468  0.4681
  992SOL     vw 3968   2.864   5.702   4.712  0.2280  0.7348 -0.2446
  993SOL     ow 3969   0.754   3.132   6.089 -0.7266  0.0768 -0.5782
  993SOL     hw 3970   0.845   3.148   6.062 -0.1873  0.0583  1.1118
  993SOL     hw 3971   0.755   3.042   6.123 -1.0547  0.5198  0.6421
  993SOL     vw 3972   0.766   3.122   6.090 -0.6987  0.1328 -0.1941
  994SOL     ow 3973   5.535   3.073   7.152  0.0385 -0.3495  0.2481
  994SOL     hw 3974   5.463   3.049   7.209  0.2616  0.7956  1.0379
  994SOL     hw 3975   5.513   3.161   7.120  1.5559  0.4849  1.3526
  994SOL     vw 3976   5.522   3.082   7.155  0.2685 -0.0882  0.4983
  995SOL     ow 3977   4.816   5.967   4.144  0.3433  0.1588 -0.4891
  995SOL     hw 3978   4.787   5.897   4.204  1.2571 -0.2723 -0.5294
  995SOL     hw 3979   4.912   5.958   4.141  0.3629  0.5514 -1.5575
  995SOL     vw 3980   4.825   5.956   4.152  0.4663  0.1538 -0.6351
  996SOL     ow 3981   5.928   4.176   5.727 -0.6296 -0.3979 -0.0777
  996SOL     hw 3982   5.834   4.161   5.713 -0.6620  1.1092 -1.8264
  996SOL     hw 3983   5.968   4.157   5.642  0.5988 -0.4681  0.4954
  996SOL     vw 3984   5.921   4.171   5.714 -0.4718 -0.2081 -0.2329
  997SOL     ow 3985   6.309   2.883   5.743 -0.1390 -0.6348  0.2608
  997SOL     hw 3986   6.224   2.870   5.785  0.2139  0.3784  1.3620
  997SOL     hw 3987   6.301   2.967   5.697  0.7318  0.3070  1.7333
  997SOL     vw 3988   6.297   2.893   5.743  0.0226 -0.3768  0.6003
  998SOL     ow 3989   4.349   7.128   5.186 -0.1772  0.6440  0.3047
  998SOL     hw 3990   4.401   7.208   5.187 -0.2497  0.7374  2.5646
  998SOL     hw 3991   4.307   7.125   5.272  0.5272 -2.2615  0.6636
  998SOL     vw 3992   4.350   7.138   5.197 -0.0937  0.2728  0.6504
  999SOL     ow 3993   6.912   5.220   5.273  0.1209  0.4462  0.3887
  999SOL     hw 3994   6.845   5.157   5.248 -1.2117  2.3130 -1.0538
  999SOL     hw 3995   6.870   5.276   5.337  1.3054 -0.1000  1.6916
  999SOL     vw 3996   6.898   5.219   5.278  0.1016  0.6206  0.3703
 1000SOL     ow 3997   5.655   2.842   1.793 -0.4841  0.1362 -0.2719
 1000SOL     hw 3998   5.650   2.908   1.723  0.5636 -1.1321 -1.6219
 1000SOL     hw 3999   5.623   2.761   1.752 -0.1798 -0.5693  0.8297
 1000SOL     vw 4000   5.650   2.840   1.778 -0.3057 -0.1242 -0.3046
 1001SOL     ow 4001   0.522   6.559   5.569 -0.0151 -0.2826 -0.3292
 1001SOL     hw 4002   0.487   6.638   5.610 -2.1654 -0.9972 -0.6289
 1001SOL     hw 4003   0.490   6.563   5.478  3.3434  0.4978 -1.6070
 1001SOL     vw 4004   0.513   6.570   5.562  0.1443 -0.2739 -0.5372
 1002SOL     ow 4005   5.021   1.912   1.470  0.2246  0.3925  0.1900
 1002SOL     hw 4006   5.103   1.918   1.519 -0.0026  0.0261  0.6214
 1002SOL     hw 4007   5.022   1.825   1.431 -0.2132  0.1597  0.6714
 1002SOL     vw 4008   5.032   1.901   1.472  0.1369  0.3134  0.3104
 1003SOL     ow 4009   0.817   5.813   4.803  0.1646  0.2822 -0.0739
 1003SOL     hw 4010   0.857   5.851   4.725 -0.9593  1.1907 -0.2407
 1003SOL     hw 4011   0.819   5.719   4.787  2.6214  0.2253  0.1617
 1003SOL     vw 4012   0.822   5.806   4.790  0.3404  0.3946 -0.0648
 1004SOL     ow 4013   2.236   1.392   1.386 -0.7734  0.2117 -0.4684
 1004SOL     hw 4014   2.184   1.466   1.355  0.8594  1.2967 -0.7384
 1004SOL     hw 4015   2.235   1.330   1.312 -0.3729  0.9235 -1.0862
 1004SOL     vw 4016   2.229   1.394   1.372 -0.5051  0.4488 -0.5855
 1005SOL     ow 4017   2.613   5.813   4.590 -0.2748  0.4010 -0.0120
 1005SOL     hw 4018   2.543   5.864   4.630 -1.8895 -2.2061  0.7213
 1005SOL     hw 4019   2.668   5.785   4.664  0.2623  0.5685 -0.3401
 1005SOL     vw 4020   2.611   5.816   4.605 -0.4171  0.0794  0.0412
 1006SOL     ow 4021   4.638   3.367   0.202 -0.6676 -0.0290  0.0205
 1006SOL     hw 4022   4.621   3.343   0.111  0.1260 -0.8416  0.0769
 1006SOL     hw 4023   4.565   3.328   0.251  0.0159 -1.3933 -0.0271
 1006SOL     vw 4024   4.626   3.359   0.197 -0.4728 -0.3161  0.0217
 1007SOL     ow 4025   2.948   3.094   1.569  0.6736 -0.0359  0.3182
 1007SOL     hw 4026   2.903   3.109   1.486  0.1310 -1.7179  0.2689
 1007SOL     hw 4027   3.040   3.110   1.550  0.4059  0.8313 -0.2766
 1007SOL     vw 4028   2.954   3.098   1.556  0.5667 -0.1434  0.2332
 1008SOL     ow 4029   2.546   0.720   6.298 -0.3174  0.1686 -0.3625
 1008SOL     hw 4030   2.565   0.798   6.245 -0.5051  0.7051  0.3561
 1008SOL     hw 4031   2.456   0.731   6.327 -0.2103 -0.1156  0.0908
 1008SOL     vw 4032   2.537   0.732   6.295 -0.3281  0.2019 -0.2081
 1009SOL     ow 4033   2.593   6.602   2.372  0.3197 -0.3856  0.4963
 1009SOL     hw 4034   2.552   6.538   2.314  1.6874 -0.7529 -0.1047
 1009SOL     hw 4035   2.641   6.661   2.313  1.5479 -0.6268  1.2050
 1009SOL     vw 4036   2.594   6.602   2.356  0.6623 -0.4656  0.5103
 1010SOL     ow 4037   2.007   2.698   3.342 -0.1684  0.1898 -0.1416
 1010SOL     hw 4038   1.917   2.714   3.369  0.3042  0.2072  1.5469
 1010SOL     hw 4039   2.056   2.772   3.377  0.4325  0.4770 -1.5293
 1010SOL     vw 4040   2.002   2.710   3.350 -0.0267  0.2300 -0.1019
 1011SOL     ow 4041   5.798   5.077   7.191  0.5205  0.4220  0.7832
 1011SOL     hw 4042   5.857   5.141   7.232  0.0509  0.8711  0.7696
 1011SOL     hw 4043   5.826   4.993   7.227  1.7914  0.5073  0.0471
 1011SOL     vw 4044   5.810   5.074   7.201  0.6263  0.4926  0.6843
 1012SOL     ow 4045   7.039   2.603   3.415  0.0885 -0.0653  0.0498
 1012SOL     hw 4046   7.050   2.538   3.346 -1.9221 -1.0458  0.5750
 1012SOL     hw 4047   6.973   2.565   3.473  2.5134  0.1367  3.2222
 1012SOL     vw 4048   7.032   2.589   3.414  0.1431 -0.1681  0.5375
 1013SOL     ow 4049   3.429   0.378   5.006  0.0527 -0.0172 -0.0603
 1013SOL     hw 4050   3.468   0.352   5.089  1.9095 -0.9585 -1.1618
 1013SOL     hw 4051   3.364   0.444   5.030 -0.2027 -0.9926  2.2118
 1013SOL     vw 4052   3.426   0.383   5.020  0.2640 -0.2701  0.0944
 1014SOL     ow 4053   2.747   1.585   2.137 -0.0436  0.5037  0.0330
 1014SOL     hw 4054   2.829   1.552   2.173 -0.9233 -3.2653 -0.9817
 1014SOL     hw 4055   2.774   1.642   2.065  1.6696  0.1663  0.3514
 1014SOL     vw 4056   2.761   1.588   2.132  0.0663 -0.0381 -0.0588
 1015SOL     ow 4057   2.368   6.709   2.445  0.0822 -0.9852  0.3554
 1015SOL     hw 4058   2.359   6.746   2.533 -0.8944  1.4370 -0.6809
 1015SOL     hw 4059   2.461   6.692   2.435 -0.0244 -3.9046  2.7447
 1015SOL     vw 4060   2.379   6.711   2.455 -0.0608 -1.0509  0.5338
 1016SOL     ow 4061   3.225   5.320   2.995  0.0279 -0.0882 -0.0105
 1016SOL     hw 4062   3.264   5.359   2.917 -2.8439  1.9174 -0.6256
 1016SOL     hw 4063   3.164   5.254   2.962  1.5168 -1.9929  0.8313
 1016SOL     vw 4064   3.222   5.317   2.981 -0.1546 -0.0749  0.0193
 1017SOL     ow 4065   6.944   2.785   1.893  0.9188  0.0910  0.0227
 1017SOL     hw 4066   6.905   2.873   1.894 -1.9206 -1.0566  1.9043
 1017SOL     hw 4067   7.025   2.796   1.843 -0.0644  3.4390 -1.1297
 1017SOL     vw 4068   6.950   2.798   1.887  0.4146  0.3812  0.1189
 1018SOL     ow 4069   3.809   6.961   5.189 -0.2966  0.0430  0.7460
 1018SOL     hw 4070   3.795   7.053   5.169  0.6622  0.2640  1.0200
 1018SOL     hw 4071   3.734   6.916   5.151 -2.7611  1.2779  3.7180
 1018SOL     vw 4072   3.797   6.967   5.181 -0.4952  0.2348  1.1742
 1019SOL     ow 4073   5.277   7.320   0.044  0.0423 -0.2364 -0.1670
 1019SOL     hw 4074   5.196   7.275   0.067 -0.7274  0.9399 -0.4679
 1019SOL     hw 4075   5.264   7.347  -0.047  1.1762 -0.8598 -0.5377
 1019SOL     vw 4076   5.265   7.318   0.035  0.0906 -0.1635 -0.2556
 1020SOL     ow 4077   1.354   7.272   0.447  0.1574  0.1453 -0.1850
 1020SOL     hw 4078   1.283   7.336   0.452  0.4526  0.4096  0.9614
 1020SOL     hw 4079   1.409   7.292   0.523  1.8695  0.4232 -1.4328
 1020SOL     vw 4080   1.352   7.283   0.458  0.4223  0.2167 -0.1984
 1021SOL     ow 4081   0.917   5.039   1.511  0.5967 -0.1038  0.6020
 1021SOL     hw 4082   0.823   5.028   1.526  0.5349 -1.1391 -0.4401
 1021SOL     hw 4083   0.958   5.008   1.592  0.1215 -2.0271  0.1579
 1021SOL     vw 4084   0.910   5.034   1.523  0.5258 -0.4942  0.4060
 1022SOL     ow 4085   4.217   4.308   1.178  0.0062  0.0763  0.5454
 1022SOL     hw 4086   4.152   4.313   1.247 -2.4285  1.3898 -1.6787
 1022SOL     hw 4087   4.200   4.224   1.134  1.4813 -0.7129  1.3889
 1022SOL     vw 4088   4.206   4.297   1.181 -0.1204  0.1454  0.3633
 1023SOL     ow 4089   6.918   5.812   1.135 -0.3880 -0.2830 -0.1564
 1023SOL     hw 4090   6.967   5.747   1.084 -1.0404 -0.8889 -0.0339
 1023SOL     hw 4091   6.938   5.791   1.226 -0.0716  0.1167 -0.1331
 1023SOL     vw 4092   6.927   5.800   1.140 -0.4323 -0.3102 -0.1372
 1024SOL     ow 4093   6.017   3.406   2.891 -0.3252 -0.5990  0.3704
 1024SOL     hw 4094   6.108   3.386   2.911 -0.2553 -0.6470  0.0093
 1024SOL     hw 4095   5.981   3.323   2.858  0.1473  0.0044 -1.7935
 1024SOL     vw 4096   6.024   3.392   2.889 -0.2537 -0.5256  0.0372
 1025SOL     ow 4097   6.348   2.040   3.008 -0.1076 -0.4585 -0.2305
 1025SOL     hw 4098   6.346   2.115   3.069  2.5066 -1.4540  1.2179
 1025SOL     hw 4099   6.360   1.964   3.065  2.0254 -1.4832 -1.9143
 1025SOL     vw 4100   6.349   2.040   3.024  0.5188 -0.7253 -0.2615
 1026SOL     ow 4101   1.009   1.340   4.314 -0.2844 -0.3013  0.3221
 1026SOL     hw 4102   0.989   1.373   4.226 -1.3660 -1.1696  0.2194
 1026SOL     hw 4103   0.926   1.304   4.345  0.5464 -1.7583  0.9421
 1026SOL     vw 4104   0.995   1.340   4.306 -0.3175 -0.6081  0.3903
 1027SOL     ow 4105   5.625   5.023   0.325  0.2666  0.0087  0.3501
 1027SOL     hw 4106   5.654   4.950   0.270 -1.3744 -0.9680  0.6997
 1027SOL     hw 4107   5.614   4.984   0.412 -0.3796  0.7218  0.6027
 1027SOL     vw 4108   5.627   5.008   0.330 -0.0353 -0.0257  0.4296
 1028SOL     ow 4109   7.173   3.324   5.812  0.0234  0.0655 -0.1993
 1028SOL     hw 4110   7.114   3.249   5.805 -2.4768  1.8930 -0.1076
 1028SOL     hw 4111   7.225   3.308   5.891  0.4741 -2.0988 -0.8646
 1028SOL     vw 4112   7.172   3.312   5.821 -0.2470  0.0212 -0.2749
 1029SOL     ow 4113   1.768   4.502   0.507  0.6905  0.0996  0.2226
 1029SOL     hw 4114   1.838   4.521   0.445 -0.8596  1.8717 -1.1223
 1029SOL     hw 4115   1.722   4.427   0.468  1.0105 -0.1951  0.4023
 1029SOL     vw 4116   1.771   4.495   0.494  0.5281  0.2944  0.0688
 1030SOL     ow 4117   0.310   3.249   6.300  0.4215  0.2217 -0.3533
 1030SOL     hw 4118   0.349   3.274   6.384  0.2327  2.6858 -0.9033
 1030SOL     hw 4119   0.230   3.202   6.324  2.3289 -2.7084  0.7740
 1030SOL     vw 4120   0.304   3.246   6.315  0.6482  0.1605 -0.2773
 1031SOL     ow 4121   3.338   6.813   5.780  0.1174  0.4970 -0.0101
 1031SOL     hw 4122   3.396   6.791   5.853  1.4453 -0.7262 -1.3618
 1031SOL     hw 4123   3.393   6.862   5.719 -0.0339 -1.1305 -1.5602
 1031SOL     vw 4124   3.353   6.817   5.782  0.2725  0.1206 -0.3929
 1032SOL     ow 4125   1.959   6.862   4.798 -0.3066 -0.2127 -0.0608
 1032SOL     hw 4126   1.922   6.948   4.817 -0.9978 -0.1224 -1.6825
 1032SOL     hw 4127   2.035   6.880   4.742  1.6457 -0.4774  2.3168
 1032SOL     vw 4128   1.964   6.876   4.793 -0.1402 -0.2356  0.0391
 1033SOL     ow 4129   2.104   7.195   3.224 -0.3417 -0.4548 -0.0577
 1033SOL     hw 4130   2.198   7.178   3.217 -0.1288  0.3170  0.6980
 1033SOL     hw 4131   2.066   7.111   3.251  0.2096 -0.6193  0.2192
 1033SOL     vw 4132   2.111   7.182   3.226 -0.2409 -0.3743  0.0786
 1034SOL     ow 4133   4.293   6.992   5.425 -0.3065 -0.2579  0.3161
 1034SOL     hw 4134   4.204   7.026   5.415  0.4229  1.7789  0.1852
 1034SOL     hw 4135   4.285   6.921   5.488 -2.0707 -0.4027 -0.0157
 1034SOL     vw 4136   4.280   6.987   5.432 -0.4430 -0.0083  0.2553
 1035SOL     ow 4137   2.449   1.069   7.022  0.1356  0.3707  0.3134
 1035SOL     hw 4138   2.373   1.046   7.075  0.0461 -1.9511 -0.7139
 1035SOL     hw 4139   2.511   0.998   7.038  0.7982  0.5468 -1.3439
 1035SOL     vw 4140   2.447   1.057   7.031  0.2112  0.0877 -0.0408
 1036SOL     ow 4141   3.491   0.265   5.255  0.2134  0.8007 -0.1583
 1036SOL     hw 4142   3.399   0.266   5.281 -0.2719 -2.4525 -1.2961
 1036SOL     hw 4143   3.539   0.286   5.335 -1.4513  1.2295  0.7826
 1036SOL     vw 4144   3.485   0.268   5.269 -0.0703  0.4281 -0.1843
 1037SOL     ow 4145   1.779   2.573   2.146 -0.1472 -0.3511  0.1799
 1037SOL     hw 4146   1.813   2.614   2.225  1.6188 -2.3122  0.5264
 1037SOL     hw 4147   1.767   2.481   2.170  1.0635 -1.1351 -1.9897
 1037SOL     vw 4148   1.782   2.566   2.160  0.2456 -0.7132 -0.0606
 1038SOL     ow 4149   2.254   7.175   0.974  0.6119  0.1417  0.1186
 1038SOL     hw 4150   2.205   7.256   0.986  0.9956  0.6067 -1.2165
 1038SOL     hw 4151   2.344   7.199   0.995  1.1355  0.7333 -2.4586
 1038SOL     vw 4152   2.260   7.189   0.978  0.7315  0.2813 -0.3976
 1039SOL     ow 4153   4.804   3.997   7.215  0.7035 -0.2889  0.3102
 1039SOL     hw 4154   4.744   3.984   7.142  1.6141  0.5146 -0.6126
 1039SOL     hw 4155   4.792   3.920   7.270  1.4717 -1.9722 -1.7543
 1039SOL     vw 4156   4.794   3.985   7.212  0.9251 -0.4050 -0.0839
 1040SOL     ow 4157   6.077   5.353   6.013 -0.2506  0.0492  0.3906
 1040SOL     hw 4158   6.014   5.425   6.012 -0.0035  0.4094 -2.8442
 1040SOL     hw 4159   6.160   5.393   5.989  0.9574 -0.6931  2.9784
 1040SOL     vw 4160   6.079   5.368   6.009 -0.0584 -0.0014  0.3054
 1041SOL     ow 4161   5.908   3.417   7.205  0.0433  0.0153  0.2404
 1041SOL     hw 4162   5.928   3.385   7.117 -0.9930  0.3338 -0.1249
 1041SOL     hw 4163   5.987   3.398   7.256  0.0655 -1.6025 -0.3622
 1041SOL     vw 4164   5.921   3.410   7.200 -0.0906 -0.1563  0.1125
 1042SOL     ow 4165   4.955   3.423   5.480 -0.7528 -0.5737 -0.1100
 1042SOL     hw 4166   4.892   3.495   5.483 -1.6670 -1.2771 -1.1241
 1042SOL     hw 4167   4.960   3.401   5.387 -0.4150 -1.7333  0.1714
 1042SOL     vw 4168   4.947   3.429   5.468 -0.8287 -0.8194 -0.2067
 1043SOL     ow 4169   5.582   7.292   0.579  0.3987  0.0148  0.1791
 1043SOL     hw 4170   5.663   7.306   0.531 -1.1746  1.5724 -2.2320
 1043SOL     hw 4171   5.555   7.379   0.607 -0.6887 -0.3973  0.4542
 1043SOL     vw 4172   5.589   7.305   0.576  0.0479  0.1659 -0.1027
 1044SOL     ow 4173   5.061   6.420   1.187  0.0113 -0.2279  1.0403
 1044SOL     hw 4174   5.040   6.457   1.273 -2.2505 -1.0112  0.9004
 1044SOL     hw 4175   5.001   6.346   1.178  0.9778 -0.8439 -0.7561
 1044SOL     vw 4176   5.050   6.415   1.197 -0.1597 -0.4127  0.7848
 1045SOL     ow 4177   1.798   0.229   5.635  0.5194  0.2257  0.3897
 1045SOL     hw 4178   1.856   0.179   5.577  0.3965 -0.2355  0.6582
 1045SOL     hw 4179   1.720   0.245   5.582  0.1126 -0.8122  0.6430
 1045SOL     vw 4180   1.796   0.224   5.620  0.4495  0.0279  0.4582
 1046SOL     ow 4181   6.724   5.326   2.194  0.0261 -0.2086  0.0706
 1046SOL     hw 4182   6.769   5.374   2.125  0.2380  1.4990  1.3228
 1046SOL     hw 4183   6.768   5.240   2.197 -0.8279 -0.8306 -2.6944
 1046SOL     vw 4184   6.736   5.321   2.185 -0.0584 -0.0656 -0.1290
 1047SOL     ow 4185   6.221   3.888   0.667 -0.1154  0.2488 -0.1193
 1047SOL     hw 4186   6.248   3.797   0.655  0.3637  0.5007 -1.1378
 1047SOL     hw 4187   6.131   3.883   0.696  1.1080 -0.6605  4.1252
 1047SOL     vw 4188   6.213   3.876   0.669  0.1092  0.1622  0.3063
 1048SOL     ow 4189   5.553   4.134   6.638  0.5868  0.3199 -0.1369
 1048SOL     hw 4190   5.513   4.136   6.551  1.4201  2.1480 -0.5330
 1048SOL     hw 4191   5.647   4.148   6.621  0.8597  0.0126  1.0203
 1048SOL     vw 4192   5.560   4.136   6.624  0.7327  0.5205 -0.0370
 1049SOL     ow 4193   0.246   1.199   6.880 -0.6246 -0.2314  0.8005
 1049SOL     hw 4194   0.261   1.185   6.974 -2.3030 -1.5681  0.9167
 1049SOL     hw 4195   0.157   1.168   6.865 -1.1899  1.9281 -0.8629
 1049SOL     vw 4196   0.236   1.193   6.891 -0.9206 -0.1228  0.5963
 1050SOL     ow 4197   3.224   1.569   5.861 -0.1360 -0.0008  0.3642
 1050SOL     hw 4198   3.204   1.658   5.831 -1.1725 -0.0075  0.9762
 1050SOL     hw 4199   3.315   1.573   5.889 -0.3511  1.0481  0.9888
 1050SOL     vw 4200   3.233   1.582   5.860 -0.3011  0.1367  0.5276
 1051SOL     ow 4201   0.445   0.886   0.420  0.0686 -0.3200  0.1407
 1051SOL     hw 4202   0.522   0.896   0.475 -0.3687 -0.9891  0.8987
 1051SOL     hw 4203   0.445   0.964   0.364  0.4655  0.4435  1.1703
 1051SOL     vw 4204   0.455   0.898   0.420  0.0633 -0.3076  0.3766
 1052SOL     ow 4205   6.858   2.394   4.232 -0.9205 -0.1326 -0.3539
 1052SOL     hw 4206   6.934   2.448   4.210 -0.4515 -1.0243 -1.0112
 1052SOL     hw 4207   6.784   2.453   4.226 -0.3262  0.6470 -0.1669
 1052SOL     vw 4208   6.859   2.409   4.228 -0.7799 -0.1473 -0.4160
 1053SOL     ow 4209   4.348   6.494   1.889  0.4548  0.4004  0.1661
 1053SOL     hw 4210   4.340   6.439   1.966  2.6816  1.2023  1.0585
 1053SOL     hw 4211   4.421   6.456   1.839  0.7605  1.3841 -0.1756
 1053SOL     vw 4212   4.357   6.482   1.892  0.7889  0.6359  0.2387
 1054SOL     ow 4213   2.066   0.990   2.530 -0.1587 -0.2600  0.0327
 1054SOL     hw 4214   1.983   1.038   2.537  0.1700  0.1069  2.0906
 1054SOL     hw 4215   2.041   0.903   2.497 -1.0299  0.5554 -1.6261
 1054SOL     vw 4216   2.052   0.985   2.526 -0.2302 -0.1040  0.0855
 1055SOL     ow 4217   4.700   6.956   0.501  0.2304 -0.4466  0.3284
 1055SOL     hw 4218   4.788   6.981   0.473  0.4877 -1.4263  0.2184
 1055SOL     hw 4219   4.641   7.002   0.442  0.6362  0.7396  0.8214
 1055SOL     vw 4220   4.704   6.965   0.490  0.3181 -0.4194  0.3790
 1056SOL     ow 4221   1.511   3.913   6.921 -0.5766 -0.4197  0.5648
 1056SOL     hw 4222   1.564   3.897   6.999 -0.3193 -1.6726  0.1555
 1056SOL     hw 4223   1.425   3.939   6.955 -0.5016 -1.0647  1.2830
 1056SOL     vw 4224   1.507   3.914   6.936 -0.5327 -0.6701  0.6053
 1057SOL     ow 4225   6.763   0.605   1.126  0.1892  0.1986  0.3512
 1057SOL     hw 4226   6.855   0.579   1.130 -0.6349 -2.9132  1.8644
 1057SOL     hw 4227   6.733   0.604   1.217 -1.5975  0.2071 -0.1879
 1057SOL     vw 4228   6.771   0.602   1.139 -0.1554 -0.2109  0.4798
 1058SOL     ow 4229   4.422   2.128   1.998  0.3578 -0.1389  0.1365
 1058SOL     hw 4230   4.417   2.214   1.956 -0.2843 -0.2332  0.0105
 1058SOL     hw 4231   4.353   2.130   2.064 -0.2150 -0.8481 -0.4208
 1058SOL     vw 4232   4.412   2.140   2.001  0.1976 -0.2450  0.0464
 1059SOL     ow 4233   1.884   7.135   4.848 -0.0385 -0.1078  0.4944
 1059SOL     hw 4234   1.900   7.129   4.942 -0.1070 -0.7407  0.4709
 1059SOL     hw 4235   1.799   7.179   4.842 -0.9669 -1.7630  0.8115
 1059SOL     vw 4236   1.875   7.140   4.860 -0.1700 -0.4096  0.5331
 1060SOL     ow 4237   1.306   4.247   2.573  0.4394 -0.3959 -0.2355
 1060SOL     hw 4238   1.232   4.248   2.633 -0.5275 -0.5854 -1.4072
 1060SOL     hw 4239   1.380   4.219   2.627  0.1662  1.9550  1.4988
 1060SOL     vw 4240   1.306   4.243   2.588  0.2758 -0.1106 -0.1614
 1061SOL     ow 4241   2.066   3.913   0.381 -0.3873 -0.5034  0.5449
 1061SOL     hw 4242   1.978   3.913   0.419  0.5232  0.8493  2.8444
 1061SOL     hw 4243   2.061   3.850   0.309 -3.9416  1.4631 -1.1947
 1061SOL     vw 4244   2.054   3.905   0.376 -0.7361 -0.0657  0.6187
 1062SOL     ow 4245   1.077   6.719   6.751  0.1428  1.1063  0.0066
 1062SOL     hw 4246   1.096   6.705   6.844  0.6397  0.6296 -0.1581
 1062SOL     hw 4247   0.986   6.693   6.741  0.4689 -0.1418  0.1112
 1062SOL     vw 4248   1.068   6.714   6.762  0.2514  0.8786 -0.0014
 1063SOL     ow 4249   5.098   3.034   1.826  0.1786  0.1025  0.7321
 1063SOL     hw 4250   5.090   3.123   1.792 -0.8079  0.2074  1.1737
 1063SOL     hw 4251   5.026   2.987   1.784 -0.3715 -0.0383  1.8090
 1063SOL     vw 4252   5.087   3.040   1.816 -0.0241  0.0978  0.9325
 1064SOL     ow 4253   6.504   0.585   3.910 -0.0538  0.4391  0.2581
 1064SOL     hw 4254   6.508   0.628   3.825 -0.6677  0.0572  0.0305
 1064SOL     hw 4255   6.432   0.522   3.902  0.6417 -0.4229  0.6841
 1064SOL     vw 4256   6.495   0.582   3.898 -0.0429  0.2750  0.2843
 1065SOL     ow 4257   4.031   1.711   5.945 -0.7355 -0.2874 -0.0250
 1065SOL     hw 4258   4.038   1.757   6.029  2.3232 -1.3595  0.4313
 1065SOL     hw 4259   4.085   1.761   5.885 -0.0886 -1.3962 -0.4037
 1065SOL     vw 4260   4.039   1.724   5.948 -0.2465 -0.5751 -0.0148
 1066SOL     ow 4261   1.390   1.216   0.117 -0.0275  0.8508 -0.9677
 1066SOL     hw 4262   1.302   1.188   0.090  1.3355 -2.8942 -2.1356
 1066SOL     hw 4263   1.390   1.205   0.212  0.4158 -4.2309 -1.2656
 1066SOL     vw 4264   1.378   1.211   0.126  0.2109 -0.3138 -1.1611
 1067SOL     ow 4265   5.269   5.343   4.935  0.1319  0.4605 -0.4086
 1067SOL     hw 4266   5.189   5.293   4.919  1.7248 -3.0333  1.4155
 1067SOL     hw 4267   5.303   5.309   5.018  3.7638  1.3408 -1.3230
 1067SOL     vw 4268   5.263   5.332   4.944  0.8214  0.1156 -0.2887
 1068SOL     ow 4269   3.725   0.945   1.222 -0.2098 -0.0878 -0.1657
 1068SOL     hw 4270   3.798   0.910   1.272 -0.5694 -1.8628 -0.8230
 1068SOL     hw 4271   3.705   0.877   1.158 -2.4999  0.3085  0.0557
 1068SOL     vw 4272   3.732   0.932   1.220 -0.5594 -0.2697 -0.2232
 1069SOL     ow 4273   0.790   4.536   6.465 -0.3935 -0.2115  0.0423
 1069SOL     hw 4274   0.761   4.614   6.418  1.8149  2.0320  2.1155
 1069SOL     hw 4275   0.761   4.463   6.411 -0.8116  2.0806 -3.0787
 1069SOL     vw 4276   0.782   4.536   6.452 -0.1573  0.3867 -0.0958
 1070SOL     ow 4277   7.088   0.385   4.867  0.0135 -0.3426  0.6867
 1070SOL     hw 4278   7.020   0.411   4.804 -1.2451 -1.8805  1.3377
 1070SOL     hw 4279   7.115   0.467   4.908  0.5151  0.6527 -1.4740
 1070SOL     vw 4280   7.082   0.399   4.864 -0.0863 -0.4142  0.4876
 1071SOL     ow 4281   4.318   7.104   6.665 -0.1943  0.2771  0.0384
 1071SOL     hw 4282   4.248   7.100   6.600  1.4981 -1.9723 -1.8220
 1071SOL     hw 4283   4.396   7.076   6.617  1.2533 -1.0511  2.9354
 1071SOL     vw 4284   4.319   7.100   6.650  0.2203 -0.1950  0.1752
 1072SOL     ow 4285   7.271   5.124   2.084  1.1217  0.2364  0.4525
 1072SOL     hw 4286   7.277   5.087   1.995  1.6324 -0.0805  0.6140
 1072SOL     hw 4287   7.334   5.196   2.084  0.7469  0.5670  0.4031
 1072SOL     vw 4288   7.280   5.128   2.072  1.1394  0.2382  0.4672
 1073SOL     ow 4289   0.492   2.954   5.828  0.7062 -0.3002  0.2193
 1073SOL     hw 4290   0.402   2.965   5.797 -0.0041  0.4706  2.3619
 1073SOL     hw 4291   0.483   2.902   5.908  2.0507  0.4511  0.8928
 1073SOL     vw 4292   0.479   2.949   5.835  0.7899 -0.0994  0.5906
 1074SOL     ow 4293   2.092   6.248   1.408 -0.2568 -0.1995  0.1856
 1074SOL     hw 4294   2.175   6.295   1.415 -1.5494  2.3383 -0.0142
 1074SOL     hw 4295   2.089   6.192   1.485  0.9350  0.8772  1.0594
 1074SOL     vw 4296   2.102   6.247   1.419 -0.2700  0.2775  0.2744
 1075SOL     ow 4297   5.986   2.697   3.466  0.4847  0.5383  0.6256
 1075SOL     hw 4298   6.029   2.736   3.390 -0.9325  3.4192  1.1388
 1075SOL     hw 4299   6.057   2.678   3.527  1.4035  0.9215 -0.2909
 1075SOL     vw 4300   6.001   2.700   3.464  0.4187  0.9688  0.5722
 1076SOL     ow 4301   2.704   0.987   3.200 -0.1711  0.2471 -0.1202
 1076SOL     hw 4302   2.769   1.041   3.155  1.8065  1.5298  3.7969
 1076SOL     hw 4303   2.633   1.048   3.221 -0.8623 -0.2335 -0.9628
 1076SOL     vw 4304   2.703   1.002   3.197 -0.0014  0.3530  0.2853
 1077SOL     ow 4305   1.578   0.114   6.752  0.0741  0.2638 -0.0586
 1077SOL     hw 4306   1.601   0.023   6.735  0.5442  0.5499 -1.0156
 1077SOL     hw 4307   1.509   0.133   6.689 -2.0716 -0.2375  1.9926
 1077SOL     vw 4308   1.572   0.104   6.742 -0.1469  0.2354  0.0856
 1078SOL     ow 4309   1.139   1.535   3.093 -0.0504 -0.1078 -0.2790
 1078SOL     hw 4310   1.204   1.466   3.078  0.8112  1.0533 -2.3043
 1078SOL     hw 4311   1.058   1.488   3.113  0.4584 -1.7466 -1.8066
 1078SOL     vw 4312   1.137   1.520   3.094  0.1304 -0.1708 -0.7478
 1079SOL     ow 4313   1.148   2.021   3.118  0.6887  0.2730 -0.3122
 1079SOL     hw 4314   1.114   1.977   3.196  2.6168  1.5259  1.3604
 1079SOL     hw 4315   1.078   2.015   3.054 -0.2520 -2.5263  0.8353
 1079SOL     vw 4316   1.134   2.014   3.120  0.8190  0.0689  0.0598
 1080SOL     ow 4317   0.424   7.215   5.718 -0.4439  0.4907  0.2404
 1080SOL     hw 4318   0.452   7.282   5.656 -0.6937  0.7897  0.4497
 1080SOL     hw 4319   0.433   7.133   5.670  0.1384  0.6474  0.0808
 1080SOL     vw 4320   0.429   7.213   5.704 -0.4000  0.5510  0.2468
 1081SOL     ow 4321   3.505   6.788   4.037 -0.0953  0.2519  0.2523
 1081SOL     hw 4322   3.492   6.746   4.121  1.6698 -2.1845 -0.5721
 1081SOL     hw 4323   3.425   6.838   4.022 -1.8668 -1.8695  1.9175
 1081SOL     vw 4324   3.493   6.789   4.046 -0.0961 -0.3490  0.3631
 1082SOL     ow 4325   6.992   1.966   1.842  0.3801 -0.6400  0.0415
 1082SOL     hw 4326   6.958   1.984   1.930 -1.5214  2.4734 -1.1495
 1082SOL     hw 4327   7.080   2.004   1.843  0.5914 -1.1314  0.7509
 1082SOL     vw 4328   6.999   1.974   1.854  0.1569 -0.2940 -0.0221
 1083SOL     ow 4329   3.345   4.949   5.083 -0.1095 -0.8693  0.7688
 1083SOL     hw 4330   3.327   4.984   5.170 -0.0535  0.8881  0.1172
 1083SOL     hw 4331   3.266   4.899   5.060 -0.6927 -0.1891  1.2743
 1083SOL     vw 4332   3.332   4.947   5.091 -0.1792 -0.5474  0.7498
 1084SOL     ow 4333   7.325   2.315   0.042 -0.6029 -0.3474  0.6251
 1084SOL     hw 4334   7.235   2.304   0.074 -1.3413 -0.6914 -1.4115
 1084SOL     hw 4335   7.320   2.291  -0.050  1.6940 -0.7391  0.5621
 1084SOL     vw 4336   7.312   2.311   0.034 -0.3974 -0.4444  0.3481
 1085SOL     ow 4337   5.078   2.098   6.787  0.0601 -0.0880  0.6618
 1085SOL     hw 4338   5.050   2.068   6.874  2.0072 -1.8754  0.7622
 1085SOL     hw 4339   4.997   2.106   6.738 -1.0527  0.4698  2.4791
 1085SOL     vw 4340   5.064   2.095   6.792  0.1700 -0.2502  0.9148
 1086SOL     ow 4341   1.383   2.660   4.405  0.1972  0.0483 -0.5462
 1086SOL     hw 4342   1.340   2.743   4.383 -0.5828 -0.1032  0.3709
 1086SOL     hw 4343   1.345   2.634   4.489 -1.5404 -2.5556 -1.9989
 1086SOL     vw 4344   1.372   2.668   4.413 -0.1350 -0.3153 -0.6168
 1087SOL     ow 4345   4.272   1.398   3.106 -0.2230 -0.1165 -0.0790
 1087SOL     hw 4346   4.321   1.454   3.166 -0.1468 -1.1581  0.8407
 1087SOL     hw 4347   4.181   1.409   3.131 -0.2246 -0.2642 -0.0190
 1087SOL     vw 4348   4.267   1.407   3.117 -0.2134 -0.2734  0.0504
 1088SOL     ow 4349   6.286   2.735   0.069  0.2520  0.7536 -0.1887
 1088SOL     hw 4350   6.333   2.785   0.003  0.6576  2.4336  1.3145
 1088SOL     hw 4351   6.225   2.798   0.108  0.0758 -0.1619  1.0825
 1088SOL     vw 4352   6.284   2.750   0.066  0.2823  0.8544  0.1773
 1089SOL     ow 4353   5.344   7.094   6.248  0.5009 -0.1197  0.1822
 1089SOL     hw 4354   5.398   7.133   6.316  0.3426 -0.0127  0.2472
 1089SOL     hw 4355   5.372   7.136   6.167 -0.3701  0.8731  0.3838
 1089SOL     vw 4356   5.355   7.105   6.246  0.3650  0.0253  0.2172
 1090SOL     ow 4357   1.730   2.392   6.851  0.8614  0.1223  0.0212
 1090SOL     hw 4358   1.813   2.439   6.859  1.2674 -0.8671  2.5435
 1090SOL     hw 4359   1.751   2.301   6.872 -0.7968 -0.2057  0.4578
 1090SOL     vw 4360   1.743   2.387   6.855  0.6962 -0.0515  0.4115
 1091SOL     ow 4361   5.194   6.336   6.980 -0.5785 -0.5753  0.5850
 1091SOL     hw 4362   5.255   6.319   6.909  0.9489 -2.5807  2.2468
 1091SOL     hw 4363   5.225   6.417   7.020  1.3338 -1.7205  1.5998
 1091SOL     vw 4364   5.206   6.344   6.976 -0.1247 -0.9909  0.9379
 1092SOL     ow 4365   4.284   2.505   5.943 -0.8772 -0.3367 -0.5074
 1092SOL     hw 4366   4.233   2.571   5.896 -1.4673 -0.1157  0.4298
 1092SOL     hw 4367   4.276   2.528   6.035 -2.0180 -2.3272 -0.0429
 1092SOL     vw 4368   4.276   2.516   5.949 -1.1058 -0.5701 -0.3226
 1093SOL     ow 4369   2.026   1.801   4.008 -0.5372  0.0558  0.8530
 1093SOL     hw 4370   2.113   1.808   4.047 -0.2731  1.9074  0.0164
 1093SOL     hw 4371   2.012   1.885   3.964 -2.3139 -0.6001  0.0650
 1093SOL     vw 4372   2.035   1.813   4.007 -0.7368  0.2135  0.6390
 1094SOL     ow 4373   0.903   2.667   5.826 -0.0860 -0.4254  0.6330
 1094SOL     hw 4374   0.990   2.706   5.826 -1.2379  2.5126  2.4258
 1094SOL     hw 4375   0.892   2.630   5.914 -0.4519 -1.3321  0.2221
 1094SOL     vw 4376   0.913   2.667   5.837 -0.2863 -0.1575  0.8152
 1095SOL     ow 4377   5.083   5.153   4.885 -0.1745 -0.4194 -0.2948
 1095SOL     hw 4378   4.999   5.198   4.871 -0.0539  0.5201  1.6618
 1095SOL     hw 4379   5.064   5.061   4.873 -2.0285 -0.4400  2.0771
 1095SOL     vw 4380   5.069   5.147   4.881 -0.4034 -0.2983  0.2761
 1096SOL     ow 4381   1.170   4.637   1.287  0.0210 -0.2416 -0.2607
 1096SOL     hw 4382   1.140   4.631   1.377  0.0558 -1.9904 -0.3331
 1096SOL     hw 4383   1.167   4.731   1.267 -1.4687  0.0389  1.0444
 1096SOL     vw 4384   1.165   4.648   1.296 -0.1709 -0.4354 -0.0981
 1097SOL     ow 4385   2.548   6.380   6.961  0.1537  0.1962  0.2990
 1097SOL     hw 4386   2.559   6.452   6.898 -0.8176  1.9465  1.9964
 1097SOL     hw 4387   2.631   6.377   7.008  0.5233 -0.4364 -0.3817
 1097SOL     vw 4388   2.560   6.389   6.959  0.0743  0.3436  0.4332
 1098SOL     ow 4389   0.045   3.637   5.107 -0.2954  0.0896 -0.7266
 1098SOL     hw 4390   0.130   3.602   5.083  0.4722  1.0742  0.3962
 1098SOL     hw 4391  -0.014   3.609   5.038  0.7990 -1.1839 -1.1741
 1098SOL     vw 4392   0.048   3.629   5.095 -0.0497  0.0516 -0.6375
 1099SOL     ow 4393   3.077   4.592   4.400  0.3236 -0.0104  0.1814
 1099SOL     hw 4394   3.025   4.672   4.402  1.8878  1.0578 -0.3187
 1099SOL     hw 4395   3.140   4.605   4.330  1.6166 -1.0209  1.0986
 1099SOL     vw 4396   3.078   4.604   4.391  0.7006 -0.0029  0.2363
 1100SOL     ow 4397   3.533   1.853   4.743 -0.2370  0.6109 -0.5878
 1100SOL     hw 4398   3.548   1.841   4.837 -2.1953  1.3100 -0.1449
 1100SOL     hw 4399   3.574   1.776   4.702  3.3011  1.7151  0.4870
 1100SOL     vw 4400   3.540   1.841   4.750 -0.0286  0.8488 -0.3877
 1101SOL     ow 4401   1.912   1.296   5.570 -0.2406  0.7695  0.0560
 1101SOL     hw 4402   2.005   1.272   5.581 -0.6567 -1.1607 -0.1606
 1101SOL     hw 4403   1.906   1.328   5.480  0.1117  0.2465 -0.1630
 1101SOL     vw 4404   1.924   1.297   5.560 -0.2491  0.4458 -0.0014
 1102SOL     ow 4405   6.761   0.427   6.523  0.4365 -0.2966  0.3475
 1102SOL     hw 4406   6.787   0.430   6.431 -0.4538  0.2194  0.1097
 1102SOL     hw 4407   6.753   0.518   6.549 -0.8349 -0.4388  0.4942
 1102SOL     vw 4408   6.764   0.439   6.514  0.1512 -0.2473  0.3352
 1103SOL     ow 4409   6.758   2.371   2.692  0.2501  0.1347  0.3163
 1103SOL     hw 4410   6.813   2.436   2.736 -0.3559  1.5569 -0.9524
 1103SOL     hw 4411   6.737   2.307   2.761 -0.7707  2.3191  2.1694
 1103SOL     vw 4412   6.762   2.371   2.707  0.0353  0.6106  0.3935
 1104SOL     ow 4413   1.641   3.924   5.638  0.0659 -0.7440  0.1129
 1104SOL     hw 4414   1.641   3.872   5.718  0.4970 -1.1710 -0.1607
 1104SOL     hw 4415   1.559   3.900   5.595  0.1313 -0.9896  0.1224
 1104SOL     vw 4416   1.630   3.914   5.643  0.1314 -0.8328  0.0782
 1105SOL     ow 4417   3.972   1.139   0.560 -0.7786  0.2474 -0.0818
 1105SOL     hw 4418   3.906   1.161   0.625 -1.8711 -0.0329 -1.0704
 1105SOL     hw 4419   4.005   1.224   0.529  0.1169  0.3812  1.1646
 1105SOL     vw 4420   3.968   1.153   0.564 -0.8047  0.2280 -0.0478
 1106SOL     ow 4421   0.124   4.667   5.344 -0.2767 -0.4762 -0.0244
 1106SOL     hw 4422   0.070   4.740   5.314  1.0391  0.3277 -0.5307
 1106SOL     hw 4423   0.114   4.600   5.277 -1.3268 -0.6868  0.3364
 1106SOL     vw 4424   0.116   4.668   5.331 -0.2416 -0.3982 -0.0434
 1107SOL     ow 4425   5.556   2.387   3.043 -0.0712  0.1694  0.1719
 1107SOL     hw 4426   5.518   2.413   3.127  2.3289 -0.2053  1.4725
 1107SOL     hw 4427   5.649   2.410   3.051  0.7858 -2.4258 -1.2923
 1107SOL     vw 4428   5.563   2.394   3.055  0.3586 -0.2223  0.1504
 1108SOL     ow 4429   7.274   2.369   0.951 -0.1264 -0.0212 -0.5831
 1108SOL     hw 4430   7.278   2.315   0.872  1.8183  0.0499 -0.5784
 1108SOL     hw 4431   7.243   2.454   0.919 -1.0407 -0.4787 -0.9573
 1108SOL     vw 4432   7.270   2.373   0.936  0.0096 -0.0724 -0.6318
 1109SOL     ow 4433   4.470   4.212   3.047 -1.0593 -0.4999  0.7878
 1109SOL     hw 4434   4.432   4.288   3.091 -0.8925  0.9959 -1.5380
 1109SOL     hw 4435   4.394   4.162   3.017 -1.2576  0.6381 -0.7428
 1109SOL     vw 4436   4.455   4.215   3.049 -1.0636 -0.1526  0.2789
 1110SOL     ow 4437   7.085   4.630   5.692  0.9392 -0.4828  0.5559
 1110SOL     hw 4438   7.139   4.606   5.616  0.3434  0.6269 -0.2352
 1110SOL     hw 4439   7.137   4.697   5.737 -0.5352  2.1112 -1.3209
 1110SOL     vw 4440   7.099   4.635   5.688  0.6659  0.0057  0.2041
 1111SOL     ow 4441   0.604   2.677   6.802 -0.2073 -0.8988 -0.0739
 1111SOL     hw 4442   0.574   2.693   6.712  0.3345  1.7480  0.1096
 1111SOL     hw 4443   0.540   2.617   6.839 -1.5152 -0.5686 -1.6756
 1111SOL     vw 4444   0.592   2.671   6.795 -0.3084 -0.5060 -0.2608
 1112SOL     ow 4445   3.761   4.331   4.568 -0.4927 -1.1113  0.2730
 1112SOL     hw 4446   3.750   4.423   4.543  0.3675 -1.4648 -1.6056
 1112SOL     hw 4447   3.701   4.319   4.641 -2.3420  0.3567 -0.9156
 1112SOL     vw 4448   3.752   4.342   4.574 -0.6232 -0.9644 -0.1316
 1113SOL     ow 4449   6.919   0.224   1.820 -0.4396 -0.4801  0.5253
 1113SOL     hw 4450   6.943   0.264   1.904 -1.5573  1.8328 -0.1546
 1113SOL     hw 4451   6.974   0.147   1.814  2.8442  1.5749  1.4763
 1113SOL     vw 4452   6.929   0.219   1.831 -0.1535  0.0962  0.5611
 1114SOL     ow 4453   6.447   7.127   2.685  0.3144  0.2042  0.0566
 1114SOL     hw 4454   6.355   7.107   2.704  0.6856 -2.4504 -0.5369
 1114SOL     hw 4455   6.471   7.192   2.750 -1.9845  1.0355  0.1851
 1114SOL     vw 4456   6.438   7.133   2.696  0.0601 -0.0362 -0.0046
 1115SOL     ow 4457   4.104   6.646   1.937 -0.5052 -0.2631 -0.1505
 1115SOL     hw 4458   4.157   6.645   2.016  1.7621 -0.5615 -1.5878
 1115SOL     hw 4459   4.022   6.688   1.963  1.2203  2.2227  1.6987
 1115SOL     vw 4460   4.100   6.651   1.951  0.0215  0.0255 -0.0962
 1116SOL     ow 4461   5.910   0.998   4.355 -0.2617 -0.2348 -0.2390
 1116SOL     hw 4462   5.958   1.064   4.306 -1.2660  1.5263  1.0049
 1116SOL     hw 4463   5.834   0.978   4.301  0.7230 -1.4697 -1.2463
 1116SOL     vw 4464   5.906   1.004   4.342 -0.2642 -0.1653 -0.2079
 1117SOL     ow 4465   0.699   6.279   6.190 -0.2857 -0.4118  0.0012
 1117SOL     hw 4466   0.703   6.317   6.102 -0.6313 -1.4537 -0.4877
 1117SOL     hw 4467   0.785   6.293   6.227 -0.1243  0.0105 -0.5284
 1117SOL     vw 4468   0.711   6.286   6.183 -0.3100 -0.4935 -0.1333
 1118SOL     ow 4469   1.071   3.185   6.742 -0.2891  0.2622  0.1709
 1118SOL     hw 4470   1.163   3.209   6.725 -0.7142  2.2820  0.4879
 1118SOL     hw 4471   1.026   3.205   6.660 -0.6845  0.6967  0.4870
 1118SOL     vw 4472   1.078   3.191   6.729 -0.3974  0.5859  0.2544
 1119SOL     ow 4473   3.638   0.758   1.030 -0.1132 -0.2184 -1.5699
 1119SOL     hw 4474   3.701   0.688   1.014 -0.6292 -1.6920  1.8361
 1119SOL     hw 4475   3.565   0.739   0.972 -0.4767 -2.9772 -0.3827
 1119SOL     vw 4476   3.637   0.746   1.020 -0.2292 -0.7768 -0.9639
 1120SOL     ow 4477   4.662   4.294   1.086 -0.5238 -1.4897  0.0430
 1120SOL     hw 4478   4.687   4.282   1.178  0.6509 -1.7727 -0.2954
 1120SOL     hw 4479   4.602   4.222   1.068 -2.7044 -0.1017  1.2183
 1120SOL     vw 4480   4.657   4.283   1.096 -0.6566 -1.3440  0.1534
 1121SOL     ow 4481   3.368   3.307   1.632  0.0240  0.0694 -0.4094
 1121SOL     hw 4482   3.452   3.264   1.611 -0.1564  0.3075 -1.7273
 1121SOL     hw 4483   3.393   3.388   1.677  0.5324  0.2927 -1.0697
 1121SOL     vw 4484   3.383   3.312   1.635  0.0672  0.1303 -0.6704
 1122SOL     ow 4485   7.273   1.160   2.733 -0.0622 -0.1282 -0.1808
 1122SOL     hw 4486   7.342   1.099   2.704  0.7104  0.6167  0.0519
 1122SOL     hw 4487   7.320   1.241   2.753 -0.4843 -0.5857  3.2201
 1122SOL     vw 4488   7.289   1.162   2.732 -0.0160 -0.0903  0.2987
 1123SOL     ow 4489   5.431   0.403   0.921 -0.2814 -0.3191 -0.1328
 1123SOL     hw 4490   5.522   0.372   0.926 -0.6742 -1.6018 -0.7543
 1123SOL     hw 4491   5.432   0.466   0.849  0.2053  0.0280  0.1668
 1123SOL     vw 4492   5.443   0.407   0.912 -0.2687 -0.4425 -0.1753
 1124SOL     ow 4493   6.825   4.941   5.249  0.1377  0.5130  0.1710
 1124SOL     hw 4494   6.845   4.868   5.308 -1.5677 -1.5534 -1.6436
 1124SOL     hw 4495   6.730   4.946   5.248  0.1911  2.0632 -0.6184
 1124SOL     vw 4496   6.815   4.932   5.257 -0.0803  0.4447 -0.1726
 1125SOL     ow 4497   1.011   5.724   2.414  0.0535 -0.0249 -0.5708
 1125SOL     hw 4498   0.967   5.665   2.475 -0.8285  0.1931 -0.9769
 1125SOL     hw 4499   0.983   5.694   2.328  0.3458  0.4044 -0.8208
 1125SOL     vw 4500   1.001   5.712   2.411 -0.0243  0.0608 -0.6573
 1126SOL     ow 4501   6.059   5.406   5.283 -0.0600  0.5249 -0.3189
 1126SOL     hw 4502   6.104   5.354   5.350  3.2740 -1.3415 -3.6267
 1126SOL     hw 4503   6.016   5.341   5.228 -0.8120  1.7891 -1.2526
 1126SOL     vw 4504   6.060   5.390   5.285  0.2806  0.4451 -0.8781
 1127SOL     ow 4505   1.273   6.192   1.852 -0.4240 -0.6911 -0.4999
 1127SOL     hw 4506   1.234   6.111   1.887  0.1759 -0.3688  1.0004
 1127SOL     hw 4507   1.213   6.261   1.881  0.8845 -0.2498  1.3405
 1127SOL     vw 4508   1.260   6.191   1.860 -0.1723 -0.5901 -0.0592
 1128SOL     ow 4509   2.992   3.738   2.667  0.2694 -0.2933  0.4159
 1128SOL     hw 4510   2.917   3.743   2.726  1.6156 -0.1545  2.2052
 1128SOL     hw 4511   3.068   3.744   2.725  1.6796  0.9009 -1.4398
 1128SOL     vw 4512   2.992   3.740   2.683  0.6331 -0.1174  0.4072
 1129SOL     ow 4513   1.647   2.274   4.680  0.2288 -0.5057 -0.0555
 1129SOL     hw 4514   1.567   2.273   4.628 -2.5545  1.9073  3.6112
 1129SOL     hw 4515   1.639   2.198   4.737 -0.9141  1.0004  1.9560
 1129SOL     vw 4516   1.635   2.264   4.681 -0.2892  0.0113  0.6938
 1130SOL     ow 4517   2.387   5.387   2.359  0.2061 -0.1006 -0.0985
 1130SOL     hw 4518   2.461   5.401   2.299 -0.6557 -4.0577 -2.4515
 1130SOL     hw 4519   2.422   5.327   2.425 -0.0425  0.7447  0.8157
 1130SOL     vw 4520   2.402   5.381   2.360  0.0597 -0.5112 -0.2884
 1131SOL     ow 4521   0.894   0.807   5.612  1.0188  0.0082  0.1238
 1131SOL     hw 4522   0.897   0.836   5.704 -2.4703 -1.7208  0.9645
 1131SOL     hw 4523   0.832   0.867   5.570  0.3834 -0.9252 -0.3125
 1131SOL     vw 4524   0.886   0.819   5.619  0.4747 -0.3430  0.1774
 1132SOL     ow 4525   1.787   2.074   4.042  0.0218 -0.4065  0.1978
 1132SOL     hw 4526   1.852   2.084   3.972 -0.6627 -0.1956 -0.4253
 1132SOL     hw 4527   1.768   2.163   4.070 -1.7217 -0.2712 -1.2633
 1132SOL     vw 4528   1.793   2.087   4.036 -0.2985 -0.3608 -0.0772
 1133SOL     ow 4529   3.411   1.143   5.588 -0.0892  0.7811  0.4882
 1133SOL     hw 4530   3.493   1.149   5.539 -0.8737 -1.6011 -1.3427
 1133SOL     hw 4531   3.346   1.117   5.523 -1.5406 -0.9637  2.4755
 1133SOL     vw 4532   3.414   1.140   5.573 -0.3842  0.2366  0.5090
 1134SOL     ow 4533   3.414   5.075   4.849  0.9544  0.8254 -0.7056
 1134SOL     hw 4534   3.374   5.044   4.931  1.9910  0.3736 -0.3589
 1134SOL     hw 4535   3.340   5.088   4.790  0.3485 -0.7444 -0.3324
 1134SOL     vw 4536   3.399   5.073   4.852  1.0111  0.5586 -0.6104
 1135SOL     ow 4537   0.948   4.206   0.237 -0.1853 -0.1906  0.4086
 1135SOL     hw 4538   1.002   4.237   0.309 -2.9266  0.8786  2.1404
 1135SOL     hw 4539   0.866   4.178   0.278 -0.6814 -2.6233 -1.9724
 1135SOL     vw 4540   0.944   4.207   0.252 -0.6125 -0.3705  0.3229
 1136SOL     ow 4541   2.301   2.253   0.744 -0.1193  0.1469 -0.6606
 1136SOL     hw 4542   2.347   2.169   0.748 -2.7768 -1.4635  3.8869
 1136SOL     hw 4543   2.370   2.318   0.753  1.7530 -1.9544  2.1657
 1136SOL     vw 4544   2.316   2.250   0.746 -0.2229 -0.3430  0.3122
 1137SOL     ow 4545   1.500   2.190   6.596 -0.4792  0.3822  0.4437
 1137SOL     hw 4546   1.478   2.248   6.669 -1.2260  0.1824  0.3908
 1137SOL     hw 4547   1.579   2.144   6.624 -0.8376  0.2059  1.1972
 1137SOL     vw 4548   1.508   2.191   6.610 -0.6250  0.3325  0.5362
 1138SOL     ow 4549   1.583   7.291   2.587 -0.2909  0.7875  0.2027
 1138SOL     hw 4550   1.638   7.284   2.665 -2.1744  0.0131  1.5334
 1138SOL     hw 4551   1.575   7.385   2.572  1.0198  0.9269  0.2211
 1138SOL     vw 4552   1.590   7.303   2.596 -0.3664  0.7036  0.3806
 1139SOL     ow 4553   6.403   4.276   6.574 -0.3202  0.0898 -0.5466
 1139SOL     hw 4554   6.397   4.345   6.640  1.8937 -0.9983  0.9177
 1139SOL     hw 4555   6.351   4.204   6.610 -2.6031  0.8798 -2.0564
 1139SOL     vw 4556   6.395   4.276   6.587 -0.3293  0.0505 -0.5524
 1140SOL     ow 4557   5.351   1.166   1.789 -0.2697  0.2902  0.2091
 1140SOL     hw 4558   5.321   1.100   1.726 -1.7377 -0.9276  2.0516
 1140SOL     hw 4559   5.409   1.118   1.848  0.9083  1.3566 -0.0266
 1140SOL     vw 4560   5.355   1.151   1.789 -0.3083  0.2701  0.4212
 1141SOL     ow 4561   0.223   4.565   5.863  0.6862 -0.1178  0.0108
 1141SOL     hw 4562   0.291   4.560   5.930 -1.2963 -2.3929  2.0312
 1141SOL     hw 4563   0.169   4.641   5.889 -0.9300 -1.8308  2.0399
 1141SOL     vw 4564   0.225   4.575   5.875  0.2114 -0.6440  0.5453
 1142SOL     ow 4565   2.602   1.181   1.632 -0.4494  0.5926  0.3326
 1142SOL     hw 4566   2.579   1.089   1.650  0.5820 -0.0200 -1.3252
 1142SOL     hw 4567   2.670   1.201   1.696 -1.1506  0.4533  1.1532
 1142SOL     vw 4568   2.608   1.171   1.643 -0.4059  0.4933  0.2221
 1143SOL     ow 4569   1.859   2.353   4.445  0.4685 -0.1332  0.4376
 1143SOL     hw 4570   1.891   2.421   4.386  0.0102  0.0684  0.4189
 1143SOL     hw 4571   1.837   2.280   4.387  0.7901 -0.2372  0.4410
 1143SOL     vw 4572   1.861   2.352   4.430  0.4505 -0.1205  0.4356
 1144SOL     ow 4573   6.646   5.715   4.230 -0.0772  0.2199 -0.6796
 1144SOL     hw 4574   6.605   5.772   4.165 -0.1570 -0.4489 -1.2319
 1144SOL     hw 4575   6.594   5.635   4.227  0.5602 -0.2032 -0.5394
 1144SOL     vw 4576   6.634   5.712   4.221 -0.0036  0.0758 -0.7339
 1145SOL     ow 4577   6.836   2.619   2.226  0.2562 -0.4174 -0.7832
 1145SOL     hw 4578   6.772   2.670   2.176 -0.0199  0.0645  0.0518
 1145SOL     hw 4579   6.913   2.675   2.230  0.3857 -0.5833 -0.9212
 1145SOL     vw 4580   6.838   2.633   2.220  0.2370 -0.3757 -0.6912
 1146SOL     ow 4581   0.582   4.461   3.240 -0.6470 -0.4616  0.6855
 1146SOL     hw 4582   0.569   4.456   3.145 -1.0355 -0.4498  0.7338
 1146SOL     hw 4583   0.515   4.522   3.269 -0.3004 -0.1935  0.9262
 1146SOL     vw 4584   0.571   4.468   3.231 -0.6525 -0.4246  0.7236
 1147SOL     ow 4585   6.540   2.774   2.341  0.1035 -0.8657  0.2623
 1147SOL     hw 4586   6.450   2.802   2.357 -0.4323 -1.8023 -0.9836
 1147SOL     hw 4587   6.553   2.785   2.247  0.3285 -3.3316 -0.0644
 1147SOL     vw 4588   6.530   2.779   2.331  0.0629 -1.3148  0.0547
 1148SOL     ow 4589   4.560   6.088   1.020  0.1956 -0.5825 -0.0056
 1148SOL     hw 4590   4.628   6.021   1.030  1.0293  0.0760 -1.1000
 1148SOL     hw 4591   4.592   6.145   0.950 -1.3673 -0.0927 -0.3577
 1148SOL     vw 4592   4.573   6.087   1.012  0.0992 -0.4308 -0.1965
 1149SOL     ow 4593   4.221   2.208   2.380 -0.5175 -0.1396  0.3395
 1149SOL     hw 4594   4.313   2.224   2.402 -0.6225 -0.3337  0.9560
 1149SOL     hw 4595   4.223   2.130   2.326 -0.2573  0.2836 -0.2749
 1149SOL     vw 4596   4.234   2.200   2.376 -0.4971 -0.1094  0.3397
 1150SOL     ow 4597   3.877   4.301   1.899 -0.1942  0.1254  0.1108
 1150SOL     hw 4598   3.899   4.229   1.841 -1.1339 -0.9542  1.0564
 1150SOL     hw 4599   3.945   4.299   1.967 -0.8843 -0.6359  0.7908
 1150SOL     vw 4600   3.889   4.291   1.901 -0.4091 -0.1173  0.3253
 1151SOL     ow 4601   6.247   3.828   3.196 -0.2729 -0.6707  0.6377
 1151SOL     hw 4602   6.333   3.860   3.224 -0.2455 -0.5034  0.3629
 1151SOL     hw 4603   6.219   3.770   3.267  1.3268 -3.0131 -0.5150
 1151SOL     vw 4604   6.254   3.824   3.209 -0.0582 -0.9576  0.4494
 1152SOL     ow 4605   5.729   4.882   3.496 -0.2154 -0.0130 -0.2017
 1152SOL     hw 4606   5.651   4.937   3.509  0.6040  0.9881  0.6963
 1152SOL     hw 4607   5.718   4.811   3.560 -0.0721  0.5030  0.4062
 1152SOL     vw 4608   5.717   4.880   3.506 -0.0887  0.1872 -0.0031
 1153SOL     ow 4609   5.442   4.675   7.125  0.3278  0.0678  0.2057
 1153SOL     hw 4610   5.450   4.619   7.203 -1.3524 -0.3444  0.1335
 1153SOL     hw 4611   5.348   4.676   7.107  0.4348  2.0580 -0.4552
 1153SOL     vw 4612   5.431   4.668   7.133  0.1199  0.2763  0.1090
 1154SOL     ow 4613   0.461   3.359   3.571 -0.3015  0.5333 -0.2180
 1154SOL     hw 4614   0.372   3.324   3.577 -0.4033  0.9323  1.0120
 1154SOL     hw 4615   0.515   3.284   3.549 -0.7735 -0.0100  0.4169
 1154SOL     vw 4616   0.456   3.345   3.569 -0.3773  0.5143  0.0281
 1155SOL     ow 4617   3.841   0.428   5.770  0.4126  0.1353  0.0493
 1155SOL     hw 4618   3.915   0.407   5.828 -0.2643  0.9049  1.2322
 1155SOL     hw 4619   3.834   0.523   5.774  0.2448  0.1877 -1.1989
 1155SOL     vw 4620   3.850   0.437   5.778  0.3011  0.2438  0.0408
 1156SOL     ow 4621   5.549   0.962   5.023  0.7739 -0.7057 -0.3813
 1156SOL     hw 4622   5.552   0.876   4.981 -0.6821 -1.3837  0.7903
 1156SOL     hw 4623   5.598   0.950   5.104  2.9308  0.3852 -1.4476
 1156SOL     vw 4624   5.555   0.949   5.028  0.8664 -0.6512 -0.3674
 1157SOL     ow 4625   0.859   0.961   3.509 -0.4401 -0.3712 -0.1253
 1157SOL     hw 4626   0.865   0.935   3.417  0.3628 -0.1930 -0.1270
 1157SOL     hw 4627   0.863   1.056   3.507  1.3364 -0.4146  0.2068
 1157SOL     vw 4628   0.860   0.970   3.496 -0.0998 -0.3534 -0.0817
 1158SOL     ow 4629   6.126   4.240   0.877 -0.6864 -0.1245  0.2245
 1158SOL     hw 4630   6.154   4.234   0.968 -1.5004 -1.2983  0.4188
 1158SOL     hw 4631   6.030   4.233   0.881 -0.6751 -1.0516 -0.7826
 1158SOL     vw 4632   6.117   4.238   0.890 -0.7925 -0.4020  0.1172
 1159SOL     ow 4633   1.349   5.777   6.351 -0.4209  0.2682  0.5461
 1159SOL     hw 4634   1.308   5.856   6.386  1.9422  0.7300  2.5337
 1159SOL     hw 4635   1.365   5.722   6.428  1.0429 -0.6427 -0.3557
 1159SOL     vw 4636   1.346   5.780   6.366  0.0840  0.2089  0.6893
 1160SOL     ow 4637   1.734   2.010   0.940 -0.0939 -0.5125  0.0916
 1160SOL     hw 4638   1.727   2.105   0.942  1.0585 -0.4073  0.3780
 1160SOL     hw 4639   1.782   1.988   1.020 -2.1649 -1.5457  1.1233
 1160SOL     vw 4640   1.740   2.019   0.951 -0.2151 -0.6349  0.2655
 1161SOL     ow 4641   2.847   0.108   3.590 -0.1612 -0.0983 -0.2521
 1161SOL     hw 4642   2.832   0.202   3.602  0.3308  0.2619 -2.2602
 1161SOL     hw 4643   2.871   0.077   3.678 -1.8449  1.3250  0.7796
 1161SOL     vw 4644   2.848   0.116   3.603 -0.3185  0.1370 -0.3811
 1162SOL     ow 4645   4.067   3.666   1.435  0.1451 -0.3581  0.3707
 1162SOL     hw 4646   4.068   3.741   1.495  0.1751  0.0093 -0.0834
 1162SOL     hw 4647   3.975   3.660   1.406  0.1468 -0.4866  0.3920
 1162SOL     vw 4648   4.055   3.675   1.439  0.1493 -0.3265  0.3136
 1163SOL     ow 4649   3.548   2.470   2.653 -0.1596 -0.8529  0.4304
 1163SOL     hw 4650   3.639   2.476   2.683  0.0020 -0.9125 -0.0348
 1163SOL     hw 4651   3.535   2.548   2.599 -1.3937  0.9050  3.0672
 1163SOL     vw 4652   3.558   2.481   2.650 -0.3010 -0.6287  0.7168
 1164SOL     ow 4653   6.929   6.616   3.426 -0.1223  0.1647 -0.4084
 1164SOL     hw 4654   6.992   6.627   3.497 -0.4494  3.7868 -0.4826
 1164SOL     hw 4655   6.850   6.661   3.456 -1.4645 -1.2184 -1.7158
 1164SOL     vw 4656   6.927   6.624   3.439 -0.3426  0.4601 -0.5908
 1165SOL     ow 4657   4.323   4.740   0.721 -0.1178  0.5378  0.1766
 1165SOL     hw 4658   4.386   4.777   0.783 -0.7059  0.6373  0.7196
 1165SOL     hw 4659   4.283   4.817   0.679  0.2265  0.4724 -0.2805
 1165SOL     vw 4660   4.326   4.755   0.724 -0.1500  0.5424  0.1880
 1166SOL     ow 4661   4.858   1.928   1.687 -0.2028  0.3445 -0.3334
 1166SOL     hw 4662   4.827   2.018   1.683 -0.1431  0.4677  1.5112
 1166SOL     hw 4663   4.917   1.920   1.611  1.0828  2.3471  0.3775
 1166SOL     vw 4664   4.862   1.939   1.676 -0.0250  0.6249  0.0038
 1167SOL     ow 4665   5.734   1.736   4.952 -0.4786 -0.3510 -0.1462
 1167SOL     hw 4666   5.810   1.778   4.912  0.4464 -2.8564 -1.2217
 1167SOL     hw 4667   5.659   1.790   4.924  0.4547 -0.2899 -2.8519
 1167SOL     vw 4668   5.734   1.748   4.943 -0.2337 -0.6736 -0.6449
 1168SOL     ow 4669   1.172   6.057   3.673  0.0736  0.0962  0.5409
 1168SOL     hw 4670   1.099   6.001   3.700 -0.4325  0.3292 -0.3113
 1168SOL     hw 4671   1.177   6.045   3.578  0.3325  1.0636  0.4272
 1168SOL     vw 4672   1.163   6.048   3.664  0.0410  0.2544  0.4134
 1169SOL     ow 4673   5.745   5.617   0.010 -0.2216  0.3806  0.0618
 1169SOL     hw 4674   5.769   5.705  -0.018  0.0466  0.4901  0.6281
 1169SOL     hw 4675   5.822   5.584   0.056 -1.1726  0.7994  2.0494
 1169SOL     vw 4676   5.758   5.624   0.012 -0.3116  0.4501  0.3988
 1170SOL     ow 4677   3.550   5.174   5.884  0.0836 -0.3557 -0.2986
 1170SOL     hw 4678   3.617   5.125   5.931 -0.6644 -1.5230 -0.3923
 1170SOL     hw 4679   3.586   5.186   5.796  0.1567 -1.0122 -0.3626
 1170SOL     vw 4680   3.563   5.169   5.879 -0.0054 -0.5963 -0.3195
 1171SOL     ow 4681   1.269   2.944   4.389  0.9590  0.1098  0.1375
 1171SOL     hw 4682   1.229   3.002   4.325 -2.5631  1.4282  3.1357
 1171SOL     hw 4683   1.350   2.988   4.414  0.3929  1.6201 -0.5778
 1171SOL     vw 4684   1.274   2.957   4.384  0.4196  0.4830  0.4387
 1172SOL     ow 4685   3.312   4.172   2.113  0.3049  0.3285  0.0925
 1172SOL     hw 4686   3.251   4.108   2.076  0.7509  1.2534 -2.3817
 1172SOL     hw 4687   3.279   4.187   2.202 -1.7454 -0.8314 -0.3986
 1172SOL     vw 4688   3.300   4.165   2.120  0.0933  0.2975 -0.2987
 1173SOL     ow 4689   3.302   5.396   3.329  0.1923  0.1775  0.3352
 1173SOL     hw 4690   3.314   5.487   3.357  0.5388 -0.1596  1.3737
 1173SOL     hw 4691   3.333   5.345   3.404  0.0763 -0.7962 -0.2651
 1173SOL     vw 4692   3.308   5.402   3.343  0.2229  0.0045  0.3932
 1174SOL     ow 4693   0.360   1.387   5.121  0.3722  0.5959 -0.0451
 1174SOL     hw 4694   0.306   1.314   5.151  1.0684  0.0358 -0.1294
 1174SOL     hw 4695   0.316   1.465   5.155 -0.8419  0.1990 -0.6750
 1174SOL     vw 4696   0.347   1.388   5.130  0.3039  0.4697 -0.1390
 1175SOL     ow 4697   6.963   3.248   4.604  0.1999  0.1366  0.2853
 1175SOL     hw 4698   6.875   3.283   4.620  1.0041  1.3635  2.5376
 1175SOL     hw 4699   6.957   3.155   4.626 -0.4263  0.3217  0.9314
 1175SOL     vw 4700   6.951   3.241   4.609  0.2234  0.3231  0.6676
 1176SOL     ow 4701   0.806   2.605   5.535  0.3293 -0.1005  0.5973
 1176SOL     hw 4702   0.867   2.552   5.483 -0.0745  1.8439 -2.0804
 1176SOL     hw 4703   0.721   2.589   5.494 -0.2175  0.6148  1.4393
 1176SOL     vw 4704   0.803   2.596   5.523  0.2039  0.2505  0.3555
 1177SOL     ow 4705   5.041   4.152   7.345 -0.1197  0.1939  0.4670
 1177SOL     hw 4706   5.073   4.242   7.355  1.9546 -0.6873  2.9265
 1177SOL     hw 4707   5.106   4.098   7.390 -0.7987 -2.6959 -1.7260
 1177SOL     vw 4708   5.053   4.157   7.352  0.0646 -0.3037  0.5023
 1178SOL     ow 4709   6.363   1.728   1.128  0.2625  0.3350 -0.1450
 1178SOL     hw 4710   6.396   1.663   1.191 -0.5372 -0.1341 -0.1887
 1178SOL     hw 4711   6.442   1.765   1.088  0.7911  0.8225  1.3090
 1178SOL     vw 4712   6.378   1.724   1.131  0.2267  0.3374  0.0411
 1179SOL     ow 4713   7.267   2.884   2.745  1.1938 -0.0185  0.2777
 1179SOL     hw 4714   7.296   2.963   2.791 -1.9207  2.1940 -1.2412
 1179SOL     hw 4715   7.213   2.838   2.809  0.8583  0.4746  0.3542
 1179SOL     vw 4716   7.264   2.889   2.760  0.7389  0.3384  0.0874
 1180SOL     ow 4717   5.831   1.172   4.555  0.1150 -0.7447 -0.1407
 1180SOL     hw 4718   5.842   1.109   4.483  2.4331 -1.1765  0.5236
 1180SOL     hw 4719   5.845   1.257   4.514 -1.3090 -0.7479 -0.6983
 1180SOL     vw 4720   5.834   1.175   4.540  0.2329 -0.8022 -0.1266
 1181SOL     ow 4721   6.905   6.105   1.218 -0.2850 -0.1418  0.4831
 1181SOL     hw 4722   6.938   6.181   1.170 -0.8433 -0.5664 -0.6273
 1181SOL     hw 4723   6.983   6.058   1.247  0.1490 -0.8771 -1.6847
 1181SOL     vw 4724   6.919   6.109   1.215 -0.3014 -0.2949  0.0505
 1182SOL     ow 4725   3.191   4.998   3.827  1.1350  0.6813  0.2667
 1182SOL     hw 4726   3.180   4.988   3.922 -0.3053  1.3264  0.1952
 1182SOL     hw 4727   3.203   5.092   3.815  0.6665  0.6771 -0.2437
 1182SOL     vw 4728   3.191   5.009   3.838  0.8831  0.7658  0.1900
 1183SOL     ow 4729   3.720   3.222   0.098 -0.5574 -0.3696  0.1328
 1183SOL     hw 4730   3.637   3.212   0.051 -2.5862 -0.7907  3.5226
 1183SOL     hw 4731   3.738   3.135   0.134  0.6642  0.0294  0.5424
 1183SOL     vw 4732   3.711   3.209   0.096 -0.6641 -0.3725  0.6341
 1184SOL     ow 4733   5.701   2.640   0.050 -0.0743 -0.3750 -0.1756
 1184SOL     hw 4734   5.761   2.567   0.062 -0.8350 -0.7184  1.9938
 1184SOL     hw 4735   5.748   2.716   0.085 -1.1141 -0.7980  2.3612
 1184SOL     vw 4736   5.715   2.640   0.056 -0.3121 -0.4761  0.4453
 1185SOL     ow 4737   0.347   6.088   0.087  0.1512  0.2487  0.4608
 1185SOL     hw 4738   0.416   6.079   0.153  2.9309  0.5912 -2.2071
 1185SOL     hw 4739   0.299   6.006   0.091  2.5419 -1.2302  0.5399
 1185SOL     vw 4740   0.350   6.076   0.097  0.8334  0.0989  0.1193
 1186SOL     ow 4741   2.818   0.834   2.199 -0.3570  0.0443  0.2615
 1186SOL     hw 4742   2.790   0.894   2.268  1.4424  0.5712  0.5892
 1186SOL     hw 4743   2.863   0.890   2.135 -1.3798 -0.5311 -1.0224
 1186SOL     vw 4744   2.820   0.850   2.199 -0.2546  0.0379  0.1354
 1187SOL     ow 4745   1.451   6.714   3.644  0.7288 -0.8151 -0.4287
 1187SOL     hw 4746   1.406   6.798   3.649  0.9140 -0.7671  0.7679
 1187SOL     hw 4747   1.382   6.649   3.660  0.3981 -0.9717 -2.3072
 1187SOL     vw 4748   1.436   6.716   3.647  0.7096 -0.8292 -0.5187
 1188SOL     ow 4749   4.644   4.040   3.324  0.4974  0.1478 -0.3882
 1188SOL     hw 4750   4.561   3.999   3.347  0.2104  0.1746 -1.3283
 1188SOL     hw 4751   4.668   4.001   3.241  1.7000 -0.2373  0.1223
 1188SOL     vw 4752   4.636   4.030   3.316  0.6180  0.1006 -0.4448
 1189SOL     ow 4753   2.642   1.854   1.427  0.0965  0.1346  0.6196
 1189SOL     hw 4754   2.691   1.816   1.501  0.3717 -1.0241 -0.1356
 1189SOL     hw 4755   2.594   1.928   1.466 -1.2211 -1.5250  2.3838
 1189SOL     vw 4756   2.642   1.859   1.442 -0.0411 -0.2373  0.7527
 1190SOL     ow 4757   1.725   5.685   5.975  0.1402  0.3383  0.0409
 1190SOL     hw 4758   1.736   5.724   5.888 -0.7338 -1.0655 -0.7499
 1190SOL     hw 4759   1.675   5.605   5.958 -0.0740  0.0578  1.8562
 1190SOL     vw 4760   1.720   5.680   5.961 -0.0035  0.1161  0.1764
 1191SOL     ow 4761   7.194   6.453   5.001  0.0327 -0.0612 -0.3600
 1191SOL     hw 4762   7.170   6.364   4.973 -1.1373 -0.4472  1.6427
 1191SOL     hw 4763   7.255   6.439   5.073 -1.3261  0.6626  0.9943
 1191SOL     vw 4764   7.199   6.439   5.007 -0.3009 -0.0167  0.0827
 1192SOL     ow 4765   5.204   5.639   0.210 -0.7458 -0.7659 -0.0652
 1192SOL     hw 4766   5.143   5.699   0.167 -2.1154 -1.1961  1.2028
 1192SOL     hw 4767   5.187   5.651   0.303  2.3371  0.3432  0.4727
 1192SOL     vw 4768   5.194   5.649   0.217 -0.5198 -0.6764  0.1731
 1193SOL     ow 4769   6.296   2.047   2.625  0.0461 -0.5303 -0.5104
 1193SOL     hw 4770   6.364   2.014   2.683 -0.6025 -1.1672 -0.0855
 1193SOL     hw 4771   6.217   2.050   2.680 -0.2546  0.2436 -0.9709
 1193SOL     vw 4772   6.294   2.043   2.640 -0.0792 -0.5121 -0.5151
 1194SOL     ow 4773   1.976   0.825   4.679 -0.0438  0.5286 -0.3587
 1194SOL     hw 4774   1.961   0.735   4.650  1.2506 -0.1953  1.0689
 1194SOL     hw 4775   1.996   0.873   4.599  0.3789 -0.7114 -1.0164
 1194SOL     vw 4776   1.977   0.819   4.665  0.1828  0.2695 -0.2570
 1195SOL     ow 4777   6.171   6.973   1.194 -0.1365 -0.1439 -0.6972
 1195SOL     hw 4778   6.168   6.997   1.102  3.3286 -1.4880 -1.3190
 1195SOL     hw 4779   6.111   6.899   1.202 -1.1552  0.5627 -1.6409
 1195SOL     vw 4780   6.163   6.966   1.183  0.1864 -0.2282 -0.9038
 1196SOL     ow 4781   0.362   6.436   6.286 -0.6202  0.2230  0.0979
 1196SOL     hw 4782   0.338   6.470   6.200 -0.2383  0.0153 -0.0900
 1196SOL     hw 4783   0.278   6.415   6.328 -0.8064  0.3427 -0.2136
 1196SOL     vw 4784   0.348   6.438   6.280 -0.5944  0.2112  0.0322
 1197SOL     ow 4785   1.025   3.904   0.272 -0.0085 -0.0461 -0.3477
 1197SOL     hw 4786   0.974   3.960   0.214  0.3429 -1.5728 -2.2440
 1197SOL     hw 4787   1.111   3.896   0.229  0.6155 -0.4207  0.9154
 1197SOL     vw 4788   1.030   3.910   0.259  0.1201 -0.2971 -0.4312
 1198SOL     ow 4789   0.573   5.966   6.003  0.6500  0.1196 -0.3307
 1198SOL     hw 4790   0.582   6.004   5.915  1.0736 -0.7197 -0.6535
 1198SOL     hw 4791   0.565   5.872   5.988 -0.9354  0.1091  0.4379
 1198SOL     vw 4792   0.574   5.959   5.989  0.4967  0.0074 -0.2718
 1199SOL     ow 4793   0.137   1.331   0.107  0.0331  0.0758  0.1479
 1199SOL     hw 4794   0.223   1.290   0.112 -0.0184 -0.0069  0.3922
 1199SOL     hw 4795   0.096   1.295   0.028  0.4096  0.4791 -0.2335
 1199SOL     vw 4796   0.143   1.321   0.098  0.0760  0.1181  0.1298
 1200SOL     ow 4797   1.099   5.226   1.430  0.4631 -0.2078  0.5265
 1200SOL     hw 4798   1.047   5.302   1.403  1.8186 -0.0052 -1.6770
 1200SOL     hw 4799   1.033   5.159   1.450 -0.7172  1.1318  1.4066
 1200SOL     vw 4800   1.083   5.228   1.429  0.4862 -0.0043  0.3518
 1201SOL     ow 4801   1.318   7.211   4.514 -0.0847  0.0897  0.0399
 1201SOL     hw 4802   1.245   7.164   4.554 -0.2107  0.8834  0.7774
 1201SOL     hw 4803   1.291   7.303   4.514 -0.0108  0.1414 -1.7414
 1201SOL     vw 4804   1.305   7.217   4.519 -0.0916  0.2012 -0.0980
 1202SOL     ow 4805   2.996   6.427   5.119  0.0661 -0.2784 -0.4405
 1202SOL     hw 4806   2.982   6.404   5.211  2.6047 -0.9178 -0.1651
 1202SOL     hw 4807   3.043   6.510   5.122  1.2737 -0.9219 -1.1178
 1202SOL     vw 4808   3.000   6.435   5.132  0.5603 -0.4475 -0.4938
 1203SOL     ow 4809   0.375   6.935   5.288  0.2273  0.3692  0.3673
 1203SOL     hw 4810   0.321   7.003   5.246 -1.2784 -0.3630  1.0435
 1203SOL     hw 4811   0.451   6.927   5.230 -0.5707  1.1621 -0.8571
 1203SOL     vw 4812   0.378   6.943   5.275 -0.0766  0.3772  0.2949
 1204SOL     ow 4813   2.004   4.090   2.467  0.1576 -0.2087  0.4307
 1204SOL     hw 4814   2.046   4.073   2.551 -0.0776  1.0461  0.8213
 1204SOL     hw 4815   1.936   4.154   2.486 -0.3179 -0.3737 -0.6182
 1204SOL     vw 4816   2.001   4.096   2.481  0.0638 -0.0651  0.3438
 1205SOL     ow 4817   0.999   0.532   4.326  0.2906  0.0276 -0.4422
 1205SOL     hw 4818   1.095   0.532   4.323  0.3546 -2.5613 -1.1098
 1205SOL     hw 4819   0.978   0.484   4.406 -0.4242  0.1372 -0.5578
 1205SOL     vw 4820   1.009   0.525   4.336  0.2048 -0.2995 -0.5455
 1206SOL     ow 4821   4.159   2.098   2.113  0.2081 -0.3718 -0.4119
 1206SOL     hw 4822   4.143   2.004   2.117 -1.4985 -0.1375 -0.8412
 1206SOL     hw 4823   4.149   2.121   2.020 -1.0489  0.4693 -0.0946
 1206SOL     vw 4824   4.156   2.089   2.101 -0.1829 -0.2298 -0.4267
 1207SOL     ow 4825   6.395   0.755   5.903  0.2330 -0.4373  1.0257
 1207SOL     hw 4826   6.341   0.819   5.857 -0.4189 -0.0872  2.2382
 1207SOL     hw 4827   6.332   0.690   5.934  0.7600 -1.0805  0.7743
 1207SOL     vw 4828   6.379   0.755   5.901  0.2165 -0.4760  1.1523
 1208SOL     ow 4829   6.094   1.683   3.182 -0.3970  1.4602 -0.0566
 1208SOL     hw 4830   6.150   1.714   3.111  1.3841 -2.0364 -0.3678
 1208SOL     hw 4831   6.009   1.723   3.163  0.6400  2.7279 -2.6410
 1208SOL     vw 4832   6.090   1.692   3.170 -0.0250  1.1661 -0.4387
 1209SOL     ow 4833   3.567   1.341   0.846 -0.0545 -0.2359 -0.3932
 1209SOL     hw 4834   3.515   1.303   0.917  0.1082  0.4941  0.1317
 1209SOL     hw 4835   3.503   1.374   0.784 -0.2144 -0.0593 -0.1370
 1209SOL     vw 4836   3.552   1.340   0.848 -0.0542 -0.1163 -0.2901
 1210SOL     ow 4837   1.773   6.677   3.522 -0.3174 -0.1560 -0.5909
 1210SOL     hw 4838   1.831   6.630   3.582 -0.8294 -2.2211 -1.6305
 1210SOL     hw 4839   1.831   6.715   3.456  0.1108  0.8164  0.3191
 1210SOL     vw 4840   1.788   6.676   3.521 -0.3284 -0.3002 -0.6078
 1211SOL     ow 4841   3.371   3.744   1.970 -0.1211  0.0375  0.4967
 1211SOL     hw 4842   3.284   3.784   1.971  0.1886  0.7437  1.3529
 1211SOL     hw 4843   3.430   3.816   1.992  0.5200 -0.7650  1.5172
 1211SOL     vw 4844   3.368   3.759   1.973  0.0043  0.0249  0.7443
 1212SOL     ow 4845   2.906   5.746   6.872  0.1404 -0.0750  0.1933
 1212SOL     hw 4846   2.925   5.780   6.960 -0.1418 -0.6543  0.4812
 1212SOL     hw 4847   2.928   5.653   6.877  0.3569 -0.0617 -0.4243
 1212SOL     vw 4848   2.912   5.738   6.884  0.1318 -0.1500  0.1497
 1213SOL     ow 4849   7.258   1.895   3.598 -0.3348  0.3773  0.3588
 1213SOL     hw 4850   7.272   1.936   3.512  0.0732  2.0273  1.1742
 1213SOL     hw 4851   7.251   1.969   3.659 -3.3210 -0.6458  1.3891
 1213SOL     vw 4852   7.259   1.910   3.594 -0.6752  0.4600  0.6022
 1214SOL     ow 4853   1.431   6.489   2.451 -0.0322 -0.3068 -0.8264
 1214SOL     hw 4854   1.483   6.409   2.459  1.3454  0.4816 -1.5462
 1214SOL     hw 4855   1.387   6.498   2.536  3.8415  0.8869  1.2640
 1214SOL     vw 4856   1.432   6.479   2.463  0.6607 -0.0455 -0.6455
 1215SOL     ow 4857   3.615   4.384   1.703 -0.2927  0.3523 -0.1825
 1215SOL     hw 4858   3.636   4.322   1.633 -2.1172 -0.1132 -0.3736
 1215SOL     hw 4859   3.523   4.407   1.688 -0.9465 -0.2317  2.3535
 1215SOL     vw 4860   3.605   4.379   1.692 -0.6198  0.2139  0.1270
 1216SOL     ow 4861   6.817   6.547   4.855  0.1710  0.2798 -0.4618
 1216SOL     hw 4862   6.846   6.494   4.781  0.5226 -1.0250  0.5760
 1216SOL     hw 4863   6.852   6.502   4.932 -1.1186  0.9882  0.5780
 1216SOL     vw 4864   6.826   6.534   4.856  0.0472  0.2010 -0.1879
 1217SOL     ow 4865   7.143   2.269   6.588  0.2100 -0.1774  0.0231
 1217SOL     hw 4866   7.205   2.250   6.659 -0.3450  3.2816  1.6548
 1217SOL     hw 4867   7.120   2.183   6.552  3.5979 -1.8001  1.3243
 1217SOL     vw 4868   7.148   2.255   6.593  0.5834  0.0650  0.4101
 1218SOL     ow 4869   1.937   1.700   3.063 -0.4701 -0.3735  0.0247
 1218SOL     hw 4870   1.883   1.775   3.036  0.2822  1.0511  2.2077
 1218SOL     hw 4871   2.000   1.737   3.125  0.1544 -2.7743  0.9306
 1218SOL     vw 4872   1.938   1.715   3.068 -0.2884 -0.5023  0.4321
 1219SOL     ow 4873   4.019   1.593   1.858  1.2003 -0.3323  0.3153
 1219SOL     hw 4874   4.091   1.656   1.867  0.5076  0.7982 -1.4201
 1219SOL     hw 4875   4.035   1.550   1.774  0.3892 -0.7698  0.3748
 1219SOL     vw 4876   4.030   1.596   1.848  1.0021 -0.2410  0.0942
 1220SOL     ow 4877   1.957   3.562   0.031 -0.1301  0.4630 -0.6926
 1220SOL     hw 4878   1.888   3.505  -0.001  2.2770 -2.6534 -0.8367
 1220SOL     hw 4879   1.987   3.609  -0.047 -1.8628  1.6985 -0.6589
 1220SOL     vw 4880   1.952   3.561   0.016 -0.0412  0.2147 -0.7071
 1221SOL     ow 4881   6.491   2.613   5.714  0.8219  0.0926  0.2148
 1221SOL     hw 4882   6.563   2.550   5.715  1.0229  0.1482 -2.5516
 1221SOL     hw 4883   6.414   2.560   5.693  0.4102  0.3519  1.0304
 1221SOL     vw 4884   6.490   2.597   5.712  0.7942  0.1342 -0.0427
 1222SOL     ow 4885   1.170   6.149   6.274  0.3216  0.2846 -0.0047
 1222SOL     hw 4886   1.173   6.088   6.201  2.2335  1.3969 -0.9290
 1222SOL     hw 4887   1.206   6.100   6.348 -0.8140 -0.5611  0.0209
 1222SOL     vw 4888   1.175   6.135   6.274  0.4240  0.3195 -0.1233
 1223SOL     ow 4889   3.075   2.185   0.525 -0.3705  0.2992 -0.0025
 1223SOL     hw 4890   3.063   2.277   0.547 -0.8425  0.2632 -0.0788
 1223SOL     hw 4891   3.129   2.149   0.596  1.7046  1.1175 -1.1043
 1223SOL     vw 4892   3.080   2.192   0.537 -0.1590  0.4023 -0.1580
 1224SOL     ow 4893   0.592   3.463   3.294  0.2494  0.1109 -0.3189
 1224SOL     hw 4894   0.547   3.394   3.246  0.2327  0.0684 -0.2429
 1224SOL     hw 4895   0.553   3.544   3.261 -0.0555  0.0636 -0.0827
 1224SOL     vw 4896   0.581   3.465   3.284  0.2070  0.0991 -0.2778
 1225SOL     ow 4897   1.918   1.056   4.834  0.5431 -0.3502  0.6722
 1225SOL     hw 4898   1.955   1.141   4.857 -0.0541  0.4809 -1.1916
 1225SOL     hw 4899   1.883   1.069   4.745  1.6036 -2.9135 -0.1975
 1225SOL     vw 4900   1.918   1.069   4.825  0.6043 -0.5788  0.3116
 1226SOL     ow 4901   3.697   6.997   3.957 -0.1713 -0.5202  0.6208
 1226SOL     hw 4902   3.626   7.049   3.994 -0.5025  0.3323 -1.1338
 1226SOL     hw 4903   3.752   6.975   4.032 -0.7820  1.1699  1.6215
 1226SOL     vw 4904   3.695   7.001   3.972 -0.2955 -0.1848  0.5214
 1227SOL     ow 4905   1.848   2.132   4.308  0.7255 -0.8691 -0.9457
 1227SOL     hw 4906   1.822   2.040   4.308  0.9824 -0.9473 -0.5977
 1227SOL     hw 4907   1.924   2.136   4.251  1.2902 -1.0532 -0.2244
 1227SOL     vw 4908   1.855   2.120   4.301  0.8339 -0.9037 -0.8044
 1228SOL     ow 4909   4.807   1.685   3.574 -0.1376 -0.4051 -0.5903
 1228SOL     hw 4910   4.782   1.752   3.638 -1.7773 -1.3930 -0.1199
 1228SOL     hw 4911   4.725   1.662   3.530  0.5914 -1.2784 -1.5465
 1228SOL     vw 4912   4.793   1.691   3.577 -0.2580 -0.6506 -0.6545
 1229SOL     ow 4913   1.912   3.309   0.760 -0.2502 -0.5052  0.5200
 1229SOL     hw 4914   1.876   3.225   0.791 -3.0739  0.2532 -0.3785
 1229SOL     hw 4915   1.992   3.321   0.811 -0.3516 -3.2052  1.4841
 1229SOL     vw 4916   1.918   3.299   0.771 -0.6362 -0.7614  0.5286
 1230SOL     ow 4917   6.087   0.612   6.421  0.1073 -0.2216  0.6095
 1230SOL     hw 4918   6.004   0.658   6.412  1.1097  2.2350  2.6927
 1230SOL     hw 4919   6.105   0.613   6.515  2.7085 -0.2533  0.1830
 1230SOL     vw 4920   6.078   0.618   6.433  0.5827  0.0984  0.8280
 1231SOL     ow 4921   3.831   3.396   0.368  0.3411 -0.4104  0.3049
 1231SOL     hw 4922   3.915   3.440   0.355 -0.5351  1.0797 -0.5443
 1231SOL     hw 4923   3.821   3.391   0.463 -0.1273  2.5016  0.4897
 1231SOL     vw 4924   3.841   3.401   0.379  0.1637  0.1704  0.2172
 1232SOL     ow 4925   7.140   5.220   6.667 -0.0018 -0.0466 -0.5086
 1232SOL     hw 4926   7.099   5.152   6.614  0.2798 -0.4951 -0.1588
 1232SOL     hw 4927   7.069   5.253   6.722 -0.1206 -0.1138 -0.6208
 1232SOL     vw 4928   7.125   5.215   6.667  0.0196 -0.1147 -0.4771
 1233SOL     ow 4929   1.436   4.504   3.352  0.0447 -0.4091 -0.8891
 1233SOL     hw 4930   1.497   4.466   3.289  1.4964  0.6622 -0.1893
 1233SOL     hw 4931   1.416   4.433   3.412 -0.4420 -1.1263 -1.8767
 1233SOL     vw 4932   1.442   4.490   3.352  0.1720 -0.3624 -0.9272
 1234SOL     ow 4933   4.280   3.131   5.331  0.2866  0.0408 -0.8369
 1234SOL     hw 4934   4.242   3.132   5.419  1.7193  0.3951 -0.1853
 1234SOL     hw 4935   4.366   3.173   5.342 -0.3611  2.0817 -2.8205
 1234SOL     vw 4936   4.286   3.137   5.344  0.3901  0.3568 -1.0128
 1235SOL     ow 4937   2.179   6.519   2.342  0.0814  0.2338 -0.1625
 1235SOL     hw 4938   2.236   6.586   2.379 -0.7386  1.6697 -1.4076
 1235SOL     hw 4939   2.215   6.436   2.375  1.6173  1.2147  0.7395
 1235SOL     vw 4940   2.191   6.517   2.351  0.1758  0.5527 -0.2077
 1236SOL     ow 4941   6.829   4.663   4.857 -0.2444 -0.7120  0.0552
 1236SOL     hw 4942   6.873   4.740   4.893 -0.5256 -0.0794 -0.9330
 1236SOL     hw 4943   6.885   4.589   4.882  2.0871  0.1778 -2.2291
 1236SOL     vw 4944   6.842   4.663   4.865  0.0260 -0.5112 -0.3767
 1237SOL     ow 4945   6.409   4.103   0.801 -0.4927  0.6835  0.7456
 1237SOL     hw 4946   6.350   4.036   0.768 -0.8619  0.9981  0.7679
 1237SOL     hw 4947   6.480   4.054   0.844  0.6468  0.2206 -1.5207
 1237SOL     vw 4948   6.411   4.088   0.803 -0.3910  0.6638  0.4495
 1238SOL     ow 4949   6.723   4.673   5.126 -0.2055  1.1737  0.5218
 1238SOL     hw 4950   6.703   4.585   5.158 -0.8286 -0.7555 -4.3589
 1238SOL     hw 4951   6.819   4.679   5.132 -0.2211  0.5857  1.7041
 1238SOL     vw 4952   6.733   4.662   5.131 -0.2899  0.8414  0.0339
 1239SOL     ow 4953   4.815   2.419   2.788 -0.6779  0.3930  0.0479
 1239SOL     hw 4954   4.809   2.450   2.698  3.3964 -1.7904 -1.2762
 1239SOL     hw 4955   4.798   2.325   2.781  4.9512 -1.0273  0.1373
 1239SOL     vw 4956   4.812   2.410   2.775  0.6025 -0.0824 -0.1150
 1240SOL     ow 4957   3.101   6.965   2.135 -0.7365 -0.6954 -0.0873
 1240SOL     hw 4958   3.170   7.018   2.095  0.6138 -1.0561  1.6308
 1240SOL     hw 4959   3.032   6.960   2.068  0.9186 -0.3795 -1.9091
 1240SOL     vw 4960   3.101   6.971   2.121 -0.3401 -0.7012 -0.1010
 1241SOL     ow 4961   3.577   1.349   5.690 -0.6154 -0.0755 -0.1361
 1241SOL     hw 4962   3.637   1.412   5.650  1.0878  0.2454  2.7055
 1241SOL     hw 4963   3.633   1.280   5.724 -2.1987 -1.5864 -0.4476
 1241SOL     vw 4964   3.592   1.349   5.689 -0.5996 -0.2325  0.1976
 1242SOL     ow 4965   5.174   4.774   4.333 -0.1112  0.1891 -0.0495
 1242SOL     hw 4966   5.232   4.741   4.401 -1.6345  0.1306  1.2965
 1242SOL     hw 4967   5.162   4.867   4.353 -0.1140  0.3093 -0.5826
 1242SOL     vw 4968   5.180   4.782   4.344 -0.3123  0.1969  0.0579
 1243SOL     ow 4969   3.074   1.206   1.813  0.2989  0.2226 -0.9185
 1243SOL     hw 4970   3.095   1.294   1.781  0.3611  0.2902 -0.6965
 1243SOL     hw 4971   3.135   1.193   1.886  0.7304 -0.2609 -1.3658
 1243SOL     vw 4972   3.085   1.216   1.818  0.3641  0.1677 -0.9483
 1244SOL     ow 4973   5.242   0.355   1.118  0.2218 -0.0297  0.4204
 1244SOL     hw 4974   5.288   0.377   1.037  0.5907  1.2490  0.9444
 1244SOL     hw 4975   5.159   0.403   1.112 -0.5242 -1.3020  0.0584
 1244SOL     vw 4976   5.237   0.364   1.106  0.1721 -0.0288  0.4417
 1245SOL     ow 4977   3.595   3.167   1.595 -0.0537 -0.4672  0.0791
 1245SOL     hw 4978   3.637   3.099   1.543  1.4837 -0.1422  0.8302
 1245SOL     hw 4979   3.661   3.192   1.660  0.3579  3.3379 -1.5602
 1245SOL     vw 4980   3.609   3.161   1.597  0.2035  0.0777 -0.0381
 1246SOL     ow 4981   1.363   2.342   0.206 -0.1936 -0.0377 -0.0932
 1246SOL     hw 4982   1.434   2.312   0.150 -1.2464 -0.6973 -1.1430
 1246SOL     hw 4983   1.318   2.262   0.232  1.8454 -0.0566  4.0547
 1246SOL     vw 4984   1.366   2.327   0.202 -0.0635 -0.1272  0.3156
 1247SOL     ow 4985   6.774   6.451   6.443  0.3282  0.0760  0.3940
 1247SOL     hw 4986   6.689   6.437   6.399  0.9180 -1.2349 -0.4071
 1247SOL     hw 4987   6.787   6.371   6.495  0.5409  0.7831  1.4481
 1247SOL     vw 4988   6.764   6.438   6.444  0.4337 -0.0041  0.4275
 1248SOL     ow 4989   5.907   1.247   3.432 -0.4521  0.4135 -0.4203
 1248SOL     hw 4990   5.819   1.211   3.440 -1.4408  2.3285 -1.7673
 1248SOL     hw 4991   5.928   1.281   3.519 -1.6557  1.2035 -0.4192
 1248SOL     vw 4992   5.898   1.247   3.444 -0.7415  0.7704 -0.5980
 1249SOL     ow 4993   5.519   0.626   1.290  0.2097 -0.7542 -0.1585
 1249SOL     hw 4994   5.480   0.646   1.205 -0.7274 -0.0831  0.3992
 1249SOL     hw 4995   5.451   0.578   1.337  0.2439 -0.0388  0.6466
 1249SOL     vw 4996   5.505   0.623   1.285  0.0904 -0.5713  0.0213
 1250SOL     ow 4997   5.795   6.343   1.888  0.1117  0.0801 -0.0345
 1250SOL     hw 4998   5.855   6.416   1.869  1.1965 -0.4516  1.1963
 1250SOL     hw 4999   5.797   6.290   1.808 -0.0806  0.9732 -0.6551
 1250SOL     vw 5000   5.803   6.346   1.875  0.2294  0.1278  0.0460
 1251SOL     ow 5001   1.146   2.612   2.394 -0.4797 -0.1325  0.4660
 1251SOL     hw 5002   1.129   2.589   2.485 -0.9075 -1.1799  0.1328
 1251SOL     hw 5003   1.087   2.557   2.343 -1.7199  1.8402 -0.3926
 1251SOL     vw 5004   1.136   2.602   2.399 -0.6998 -0.0104  0.3088
 1252SOL     ow 5005   2.518   5.505   2.805  0.7640  0.3961 -0.5619
 1252SOL     hw 5006   2.484   5.587   2.771 -0.0710 -0.7972 -2.8616
 1252SOL     hw 5007   2.609   5.502   2.774  1.2660  1.0641  0.7748
 1252SOL     vw 5008   2.526   5.515   2.796  0.7200  0.3271 -0.6890
 1253SOL     ow 5009   5.334   1.231   1.389  0.0332  0.0729 -0.6190
 1253SOL     hw 5010   5.305   1.147   1.424 -0.3837  0.8343  0.9480
 1253SOL     hw 5011   5.296   1.235   1.301  1.9458 -2.3461 -1.6709
 1253SOL     vw 5012   5.325   1.221   1.382  0.2308 -0.1458 -0.5510
 1254SOL     ow 5013   4.150   5.450   5.742 -0.8816 -0.4246 -0.0503
 1254SOL     hw 5014   4.078   5.389   5.754 -1.5996  0.6537  1.5008
 1254SOL     hw 5015   4.110   5.537   5.754  0.2750  0.3095 -1.2588
 1254SOL     vw 5016   4.135   5.453   5.746 -0.8240 -0.1855 -0.0055
 1255SOL     ow 5017   3.035   0.104   0.552  0.6178 -0.3147 -0.1283
 1255SOL     hw 5018   3.066   0.031   0.605 -0.8610 -0.9511 -0.0764
 1255SOL     hw 5019   3.010   0.171   0.616  1.7011  0.1364 -0.1644
 1255SOL     vw 5020   3.036   0.103   0.568  0.5658 -0.3391 -0.1262
 1256SOL     ow 5021   1.484   4.656   2.746 -0.5449  0.5517  0.8937
 1256SOL     hw 5022   1.571   4.686   2.720 -0.4890 -1.1637 -1.2432
 1256SOL     hw 5023   1.499   4.597   2.819 -0.0210  0.9166  1.0846
 1256SOL     vw 5024   1.497   4.652   2.752 -0.4685  0.3736  0.6369
 1257SOL     ow 5025   7.108   3.942   2.904 -1.0635 -0.9095 -0.4455
 1257SOL     hw 5026   7.101   4.034   2.930  0.2647 -0.5065 -1.3554
 1257SOL     hw 5027   7.110   3.893   2.986  0.9384  0.1220  0.1873
 1257SOL     vw 5028   7.107   3.948   2.918 -0.6242 -0.7201 -0.4821
 1258SOL     ow 5029   2.590   3.464   1.574 -0.1002  0.4232  0.0282
 1258SOL     hw 5030   2.606   3.440   1.483  1.1889 -0.7630  0.5164
 1258SOL     hw 5031   2.574   3.558   1.572  0.0826  0.4467 -1.3970
 1258SOL     vw 5032   2.590   3.473   1.562  0.0939  0.2699 -0.0955
 1259SOL     ow 5033   2.504   3.302   3.391 -0.1758  0.4953  0.5291
 1259SOL     hw 5034   2.582   3.303   3.446 -0.5072 -2.3245  1.2391
 1259SOL     hw 5035   2.528   3.247   3.316 -1.6334 -1.1900  1.2082
 1259SOL     vw 5036   2.517   3.295   3.389 -0.4119 -0.0991  0.7124
 1260SOL     ow 5037   4.989   4.342   3.887 -0.1372  0.8636 -0.7460
 1260SOL     hw 5038   4.897   4.336   3.912  0.0457  0.0098 -0.2218
 1260SOL     hw 5039   5.002   4.271   3.824  0.7687 -0.8449  1.2372
 1260SOL     vw 5040   4.979   4.332   3.882  0.0062  0.5260 -0.4151
 1261SOL     ow 5041   0.743   5.942   1.876 -0.1590  0.2371 -0.2028
 1261SOL     hw 5042   0.653   5.912   1.870 -0.4974  0.3802  2.9094
 1261SOL     hw 5043   0.795   5.862   1.884 -0.2333  0.2335  0.2242
 1261SOL     vw 5044   0.738   5.928   1.876 -0.2134  0.2556  0.2642
 1262SOL     ow 5045   1.716   5.029   0.458  0.1430 -0.5362 -0.2380
 1262SOL     hw 5046   1.647   5.094   0.443 -0.0992 -0.7448 -0.0269
 1262SOL     hw 5047   1.704   4.965   0.388 -0.8231 -1.3700  0.6648
 1262SOL     vw 5048   1.706   5.029   0.447 -0.0165 -0.6738 -0.0910
 1263SOL     ow 5049   0.363   4.893   7.232 -0.3952  0.1071 -0.2325
 1263SOL     hw 5050   0.318   4.824   7.183  1.5048 -1.1116 -0.3553
 1263SOL     hw 5051   0.453   4.862   7.239  1.0804  3.4537 -1.9999
 1263SOL     vw 5052   0.369   4.879   7.226  0.0502  0.3881 -0.4818
 1264SOL     ow 5053   5.676   6.514   5.622  0.0638 -0.4643  0.0552
 1264SOL     hw 5054   5.670   6.599   5.579  0.5009 -0.1864  0.5355
 1264SOL     hw 5055   5.735   6.463   5.566 -3.1117 -1.8012 -2.3828
 1264SOL     vw 5056   5.683   6.518   5.609 -0.2975 -0.6042 -0.2034
 1265SOL     ow 5057   5.782   3.148   7.230  1.0652  0.4129 -0.7825
 1265SOL     hw 5058   5.851   3.085   7.252 -0.4695 -2.1560 -2.7974
 1265SOL     hw 5059   5.703   3.095   7.219 -0.4576  2.7586 -2.0644
 1265SOL     vw 5060   5.781   3.133   7.231  0.6618  0.3835 -1.2174
 1266SOL     ow 5061   6.699   2.649   1.873 -0.3425 -0.1564 -0.0553
 1266SOL     hw 5062   6.776   2.677   1.823 -1.8147 -0.8835 -2.9171
 1266SOL     hw 5063   6.696   2.554   1.860 -2.1119 -0.0449 -0.6095
 1266SOL     vw 5064   6.709   2.640   1.865 -0.7701 -0.2376 -0.5060
 1267SOL     ow 5065   0.937   3.468   2.535  0.6609  0.7522 -0.1159
 1267SOL     hw 5066   0.983   3.520   2.468  1.4926 -0.3988 -0.4833
 1267SOL     hw 5067   0.986   3.385   2.538  0.5316  0.6973  1.7975
 1267SOL     vw 5068   0.950   3.464   2.526  0.7535  0.5929  0.0881
 1268SOL     ow 5069   4.958   4.089   6.767 -0.0198 -0.3598 -0.7432
 1268SOL     hw 5070   5.011   4.010   6.771 -0.0752 -0.5131 -2.3521
 1268SOL     hw 5071   4.881   4.064   6.716 -2.0424 -0.3248  2.0201
 1268SOL     vw 5072   4.955   4.076   6.761 -0.2940 -0.3755 -0.5910
 1269SOL     ow 5073   4.790   5.218   4.858 -0.0853 -0.4373 -0.2565
 1269SOL     hw 5074   4.814   5.230   4.766 -1.6691 -0.2345 -0.6843
 1269SOL     hw 5075   4.748   5.301   4.882  1.3850 -0.0351  1.0351
 1269SOL     vw 5076   4.787   5.231   4.849 -0.1006 -0.3574 -0.1426
 1270SOL     ow 5077   1.592   0.946   2.057  0.2466  0.1384 -0.1469
 1270SOL     hw 5078   1.660   1.006   2.086  1.5687 -1.4763  0.2716
 1270SOL     hw 5079   1.535   0.999   2.002  1.1487  1.8354  0.4744
 1270SOL     vw 5080   1.593   0.961   2.054  0.5401  0.1492 -0.0098
 1271SOL     ow 5081   4.122   7.083   1.586 -0.6409 -0.5529  0.8110
 1271SOL     hw 5082   4.150   7.169   1.557 -1.9774 -0.3238  0.1182
 1271SOL     hw 5083   4.143   7.025   1.513 -0.6304 -0.6337  0.8782
 1271SOL     vw 5084   4.128   7.086   1.573 -0.8159 -0.5333  0.7284
 1272SOL     ow 5085   5.892   4.605   3.406  0.4748 -0.1716 -0.0359
 1272SOL     hw 5086   5.816   4.584   3.461  0.0714 -0.5710 -0.7426
 1272SOL     hw 5087   5.967   4.592   3.465  0.1175 -1.6209  0.1489
 1272SOL     vw 5088   5.892   4.600   3.421  0.3746 -0.4156 -0.1048
 1273SOL     ow 5089   4.206   1.122   2.934  0.0088  0.1706  0.2522
 1273SOL     hw 5090   4.112   1.135   2.939 -0.2058 -0.9936 -0.2888
 1273SOL     hw 5091   4.217   1.049   2.873  1.2171 -0.1654  0.8271
 1273SOL     vw 5092   4.195   1.114   2.926  0.1397 -0.0273  0.2567
 1274SOL     ow 5093   3.377   6.970   3.860  0.9007  0.3997 -0.3298
 1274SOL     hw 5094   3.430   7.006   3.789  0.4334  2.7111  0.4412
 1274SOL     hw 5095   3.363   7.043   3.920 -1.2949 -0.7127  0.6103
 1274SOL     vw 5096   3.382   6.984   3.859  0.5493  0.5579 -0.1042
 1275SOL     ow 5097   2.793   4.833   5.495 -0.4260  0.2429 -0.4958
 1275SOL     hw 5098   2.768   4.875   5.577 -1.5569 -0.9721 -0.1872
 1275SOL     hw 5099   2.795   4.904   5.431 -1.1800  0.9525  0.2452
 1275SOL     vw 5100   2.790   4.848   5.497 -0.6746  0.1764 -0.3572
 1276SOL     ow 5101   7.271   2.006   0.535 -0.3650  0.2497  0.0692
 1276SOL     hw 5102   7.196   1.959   0.570 -0.1788  0.5705  0.9456
 1276SOL     hw 5103   7.277   2.085   0.590  0.6481  0.1903  0.0703
 1276SOL     vw 5104   7.262   2.010   0.547 -0.2067  0.2842  0.1850
 1277SOL     ow 5105   3.555   3.224   0.950  0.0134 -1.0644 -1.0086
 1277SOL     hw 5106   3.597   3.264   0.874 -1.2754  1.2399 -0.6176
 1277SOL     hw 5107   3.624   3.172   0.992  2.0189  1.1773 -1.3195
 1277SOL     vw 5108   3.570   3.223   0.946  0.1079 -0.4646 -0.9980
 1278SOL     ow 5109   5.120   5.105   6.473  0.5734  0.0890  0.1154
 1278SOL     hw 5110   5.144   5.044   6.404 -1.7259  0.0918 -0.7565
 1278SOL     hw 5111   5.104   5.188   6.427  0.3566  0.4472  0.8245
 1278SOL     vw 5112   5.121   5.108   6.458  0.2418  0.1366  0.0939
 1279SOL     ow 5113   5.835   6.868   0.764 -0.1156 -0.0289  0.1137
 1279SOL     hw 5114   5.750   6.865   0.719  0.5855 -0.5282 -1.2236
 1279SOL     hw 5115   5.821   6.817   0.844 -1.5275  1.3040  0.7527
 1279SOL     vw 5116   5.822   6.861   0.769 -0.2093  0.0811  0.0216
 1280SOL     ow 5117   2.249   1.390   6.346 -0.0099  0.8887 -0.9380
 1280SOL     hw 5118   2.295   1.316   6.306  2.1805  2.1429 -0.8951
 1280SOL     hw 5119   2.227   1.448   6.272  3.0776  2.6874 -0.6085
 1280SOL     vw 5120   2.252   1.388   6.331  0.6865  1.2915 -0.8888
 1281SOL     ow 5121   2.148   4.086   0.656  0.0687 -1.1060  0.3809
 1281SOL     hw 5122   2.076   4.068   0.716  0.1851 -0.4885  0.7169
 1281SOL     hw 5123   2.226   4.082   0.710  0.0025  1.8909  0.8653
 1281SOL     vw 5124   2.149   4.083   0.671  0.0753 -0.6289  0.4891
 1282SOL     ow 5125   2.831   6.139   4.211  0.8793  0.2921 -0.0941
 1282SOL     hw 5126   2.790   6.225   4.219 -0.8993 -0.3325 -1.7290
 1282SOL     hw 5127   2.923   6.154   4.232  0.5204  2.4741  0.1691
 1282SOL     vw 5128   2.837   6.152   4.215  0.5972  0.4971 -0.2751
 1283SOL     ow 5129   6.029   4.159   6.025  0.1204  0.0318 -0.4381
 1283SOL     hw 5130   6.024   4.066   6.002 -0.2657  0.4571 -2.2209
 1283SOL     hw 5131   6.025   4.160   6.121  0.0921 -1.7751 -0.3797
 1283SOL     vw 5132   6.028   4.147   6.035  0.0656 -0.1502 -0.6652
 1284SOL     ow 5133   3.233   1.388   5.674 -0.0981 -0.5091  0.1093
 1284SOL     hw 5134   3.151   1.369   5.629  1.0322 -1.2034 -1.7339
 1284SOL     hw 5135   3.212   1.462   5.731 -1.8446 -0.3114 -0.7326
 1284SOL     vw 5136   3.220   1.395   5.676 -0.1794 -0.5746 -0.2449
 1285SOL     ow 5137   1.954   4.803   4.280 -0.2750 -0.2007  0.2145
 1285SOL     hw 5138   1.899   4.727   4.300 -0.1145 -0.6685 -1.0748
 1285SOL     hw 5139   1.963   4.802   4.185 -0.2311  1.4157  0.1811
 1285SOL     vw 5140   1.948   4.793   4.270 -0.2481 -0.0494  0.0403
 1286SOL     ow 5141   5.155   5.398   5.646 -0.1973 -0.0619 -0.0069
 1286SOL     hw 5142   5.113   5.472   5.690 -0.4708  0.2369 -0.7497
 1286SOL     hw 5143   5.083   5.336   5.630 -0.6663  1.0279 -2.4772
 1286SOL     vw 5144   5.140   5.399   5.650 -0.2952  0.1211 -0.4311
 1287SOL     ow 5145   7.147   6.686   4.756 -0.4966 -0.2791 -0.0543
 1287SOL     hw 5146   7.130   6.675   4.663  0.7366 -1.6258 -0.1530
 1287SOL     hw 5147   7.140   6.781   4.771 -1.6051 -0.1451 -1.3053
 1287SOL     vw 5148   7.144   6.697   4.746 -0.4804 -0.4392 -0.2322
 1288SOL     ow 5149   5.963   0.257   3.183 -0.5948  0.1974  0.0064
 1288SOL     hw 5150   6.048   0.255   3.228 -0.1668  0.1542 -0.7903
 1288SOL     hw 5151   5.955   0.348   3.153 -1.3360  0.4859  0.9943
 1288SOL     vw 5152   5.974   0.269   3.185 -0.6361  0.2298  0.0316
 1289SOL     ow 5153   2.868   1.334   4.175  0.3092  0.1507 -0.9465
 1289SOL     hw 5154   2.918   1.274   4.230 -2.0891 -0.4573  0.7158
 1289SOL     hw 5155   2.795   1.282   4.143 -1.3417  1.9059 -0.2205
 1289SOL     vw 5156   2.865   1.319   4.178 -0.2249  0.3021 -0.6313
 1290SOL     ow 5157   1.431   6.984   2.108 -0.3521 -0.1863 -0.7292
 1290SOL     hw 5158   1.341   7.018   2.119 -1.0211 -2.3670  1.5773
 1290SOL     hw 5159   1.444   6.982   2.014 -2.1514  1.5603 -1.1084
 1290SOL     vw 5160   1.421   6.988   2.097 -0.6778 -0.2432 -0.4749
 1291SOL     ow 5161   6.159   0.727   3.302  0.0535 -0.7514  0.5640
 1291SOL     hw 5162   6.239   0.677   3.320 -0.0119 -0.9115  0.4066
 1291SOL     hw 5163   6.088   0.669   3.328 -0.0789 -1.3300 -0.9871
 1291SOL     vw 5164   6.160   0.713   3.308  0.0274 -0.8488  0.3384
 1292SOL     ow 5165   2.800   1.541   7.322 -0.3331  0.4577  0.4079
 1292SOL     hw 5166   2.771   1.515   7.410 -0.9055  1.1026  0.4276
 1292SOL     hw 5167   2.857   1.616   7.337  0.0796  0.1710  0.2665
 1292SOL     vw 5168   2.803   1.548   7.336 -0.3541  0.5049  0.3917
 1293SOL     ow 5169   3.451   6.406   0.217 -0.0381  0.1811 -0.6909
 1293SOL     hw 5170   3.521   6.341   0.207  0.6587  0.8188 -0.1045
 1293SOL     hw 5171   3.375   6.366   0.177  0.6850 -0.5097 -1.4053
 1293SOL     vw 5172   3.451   6.392   0.211  0.1493  0.1738 -0.7078
 1294SOL     ow 5173   4.051   0.967   3.910 -0.2943 -0.7340  0.2301
 1294SOL     hw 5174   4.022   1.014   3.988 -0.9829 -0.0003 -0.4460
 1294SOL     hw 5175   4.143   0.945   3.927  0.0322  0.8129  0.5915
 1294SOL     vw 5176   4.059   0.971   3.923 -0.3421 -0.4331  0.1886
 1295SOL     ow 5177   3.691   2.857   6.913 -0.8927 -0.2217 -0.0002
 1295SOL     hw 5178   3.640   2.782   6.944  0.4432  0.1970  3.7325
 1295SOL     hw 5179   3.740   2.823   6.838 -2.6197 -2.1026 -0.3869
 1295SOL     vw 5180   3.691   2.842   6.907 -0.9444 -0.4147  0.4411
 1296SOL     ow 5181   6.225   5.771   1.178 -0.6172  0.3639 -0.2235
 1296SOL     hw 5182   6.171   5.756   1.256  0.7014  1.5474  0.9956
 1296SOL     hw 5183   6.189   5.851   1.139 -1.4337 -0.3677 -0.9881
 1296SOL     vw 5184   6.213   5.780   1.183 -0.5510  0.4234 -0.1636
 1297SOL     ow 5185   1.716   6.989   2.380 -0.4783 -0.2603  0.2290
 1297SOL     hw 5186   1.742   7.081   2.385 -0.3967 -0.1972 -1.0177
 1297SOL     hw 5187   1.799   6.942   2.370 -0.6599 -0.2205 -1.8305
 1297SOL     vw 5188   1.731   6.995   2.380 -0.4916 -0.2465 -0.2072
 1298SOL     ow 5189   1.419   6.741   2.240  0.3325  0.7597 -0.3979
 1298SOL     hw 5190   1.331   6.720   2.210  0.1186  0.0767  0.6376
 1298SOL     hw 5191   1.437   6.828   2.206 -0.2166  0.3702 -1.7404
 1298SOL     vw 5192   1.410   6.749   2.232  0.2319  0.6182 -0.4385
 1299SOL     ow 5193   4.556   2.036   6.575 -0.6570  0.2306 -0.2168
 1299SOL     hw 5194   4.647   2.049   6.602  0.0398 -0.7292 -1.8856
 1299SOL     hw 5195   4.516   2.123   6.580 -0.3639  0.2946  2.7887
 1299SOL     vw 5196   4.563   2.049   6.579 -0.5262  0.1124 -0.0405
 1300SOL     ow 5197   1.245   2.632   0.238  0.3462 -0.0010 -0.4461
 1300SOL     hw 5198   1.239   2.715   0.191 -0.5637  0.8949  1.1794
 1300SOL     hw 5199   1.172   2.580   0.204  0.8651 -0.1287 -1.4010
 1300SOL     vw 5200   1.235   2.636   0.227  0.2946  0.1004 -0.3576
 1301SOL     ow 5201   1.587   2.082   4.224  0.9221 -0.3117 -0.1709
 1301SOL     hw 5202   1.657   2.137   4.259  0.6312 -0.9960  1.6116
 1301SOL     hw 5203   1.506   2.129   4.245  0.7911  0.1073 -1.5391
 1301SOL     vw 5204   1.585   2.095   4.231  0.8664 -0.3467 -0.1161
 1302SOL     ow 5205   6.693   5.222   4.801 -0.2748 -0.6708 -0.1950
 1302SOL     hw 5206   6.657   5.176   4.725 -1.9309 -2.9230  1.8107
 1302SOL     hw 5207   6.616   5.254   4.849  0.6521 -0.3546  1.1402
 1302SOL     vw 5208   6.678   5.220   4.797 -0.3712 -0.9265  0.2456
 1303SOL     ow 5209   6.660   7.282   0.319  0.4799 -0.1802  0.4725
 1303SOL     hw 5210   6.682   7.270   0.412  1.3828  1.0587  0.4514
 1303SOL     hw 5211   6.737   7.325   0.282  0.9285 -2.3110 -1.2943
 1303SOL     vw 5212   6.673   7.286   0.327  0.6583 -0.2975  0.2366
 1304SOL     ow 5213   1.080   6.011   1.939  0.4635 -0.5711  0.5573
 1304SOL     hw 5214   1.072   5.988   2.031 -4.0918  0.9839  0.8298
 1304SOL     hw 5215   1.064   5.929   1.892  0.1294 -0.8910  1.2163
 1304SOL     vw 5216   1.077   5.997   1.945 -0.1816 -0.4082  0.6801
 1305SOL     ow 5217   1.399   4.408   1.398  1.0089  0.0720 -0.2226
 1305SOL     hw 5218   1.361   4.370   1.477 -0.4520 -0.4657 -1.1512
 1305SOL     hw 5219   1.431   4.494   1.427 -1.5293  0.8763  0.5257
 1305SOL     vw 5220   1.398   4.415   1.413  0.4813  0.1070 -0.2464
 1306SOL     ow 5221   1.681   2.687   4.477  0.2268  0.3880 -0.2373
 1306SOL     hw 5222   1.759   2.636   4.500 -0.6636 -0.5697  0.8072
 1306SOL     hw 5223   1.692   2.769   4.525  1.0779  0.7029 -0.9371
 1306SOL     vw 5224   1.693   2.691   4.487  0.2216  0.3030 -0.1917
 1307SOL     ow 5225   0.043   3.902   5.578 -0.1996 -0.6834 -0.4001
 1307SOL     hw 5226  -0.031   3.923   5.635 -0.3655  0.7037 -1.0780
 1307SOL     hw 5227   0.120   3.936   5.623 -0.0129 -1.6951  0.0767
 1307SOL     vw 5228   0.043   3.909   5.591 -0.1969 -0.6338 -0.4268
 1308SOL     ow 5229   4.419   4.771   4.498  0.3491 -0.1956 -0.2540
 1308SOL     hw 5230   4.408   4.802   4.408  1.3128 -0.2733 -0.4026
 1308SOL     hw 5231   4.458   4.684   4.489 -0.1948 -0.4949  0.2246
 1308SOL     vw 5232   4.423   4.764   4.485  0.4044 -0.2453 -0.2108
 1309SOL     ow 5233   6.493   2.061   5.146  0.3008 -0.6540 -0.4278
 1309SOL     hw 5234   6.575   2.062   5.097  0.3132 -0.0457 -0.4064
 1309SOL     hw 5235   6.439   1.997   5.101  0.4528 -0.3740 -1.0196
 1309SOL     vw 5236   6.496   2.053   5.134  0.3226 -0.5367 -0.5031
 1310SOL     ow 5237   6.158   5.074   7.327  0.4028 -0.3503 -0.2065
 1310SOL     hw 5238   6.139   5.021   7.404 -1.1563  2.0570  1.2050
 1310SOL     hw 5239   6.244   5.113   7.344 -0.7394  1.6959  1.3735
 1310SOL     vw 5240   6.167   5.072   7.339  0.0467  0.2375  0.1882
 1311SOL     ow 5241   7.041   1.330   2.139  0.2428 -0.3280 -0.5533
 1311SOL     hw 5242   6.961   1.298   2.181 -1.0645  0.2072 -2.4891
 1311SOL     hw 5243   7.015   1.346   2.048  1.3137  4.1259 -0.2838
 1311SOL     vw 5244   7.027   1.328   2.132  0.2117  0.3303 -0.7733
 1312SOL     ow 5245   4.635   0.978   6.468 -0.0234 -0.0203  0.8108
 1312SOL     hw 5246   4.596   1.003   6.551 -0.3824  0.1276  0.6019
 1312SOL     hw 5247   4.638   0.882   6.470 -1.7459 -0.1203  0.2493
 1312SOL     vw 5248   4.630   0.969   6.479 -0.2980 -0.0140  0.7093
 1313SOL     ow 5249   2.889   0.830   5.061 -0.1179  0.5443  0.3471
 1313SOL     hw 5250   2.964   0.825   5.002  0.2109 -2.0143  0.8780
 1313SOL     hw 5251   2.916   0.782   5.139 -1.6110  1.3155  1.3970
 1313SOL     vw 5252   2.902   0.823   5.063 -0.2716  0.3085  0.5558
 1314SOL     ow 5253   1.512   5.817   6.162 -0.1103 -0.4925 -0.0534
 1314SOL     hw 5254   1.466   5.749   6.112 -0.3806 -1.5376  1.5595
 1314SOL     hw 5255   1.467   5.819   6.246  0.9820  0.5101  0.5334
 1314SOL     vw 5256   1.500   5.808   6.167 -0.0019 -0.4983  0.2372
 1315SOL     ow 5257   1.010   4.068   3.345 -0.8052 -0.6469  0.2956
 1315SOL     hw 5258   1.062   4.108   3.415 -2.2799  0.0456  1.0386
 1315SOL     hw 5259   1.051   3.983   3.331 -0.4435 -0.7839  1.9807
 1315SOL     vw 5260   1.022   4.062   3.353 -0.9521 -0.5736  0.6160
 1316SOL     ow 5261   3.267   6.228   2.652 -0.3581  0.3667 -0.6487
 1316SOL     hw 5262   3.186   6.279   2.652  0.1570  1.2384  0.7145
 1316SOL     hw 5263   3.328   6.281   2.601 -0.5822 -0.2428 -1.5890
 1316SOL     vw 5264   3.264   6.242   2.645 -0.3197  0.4013 -0.5929
 1317SOL     ow 5265   5.395   5.202   1.908 -0.3050 -0.2261  0.1789
 1317SOL     hw 5266   5.413   5.295   1.918 -2.2061  0.3327 -1.1621
 1317SOL     hw 5267   5.373   5.173   1.997  1.1263  0.3570  0.7641
 1317SOL     vw 5268   5.395   5.210   1.921 -0.3669 -0.0753  0.0791
 1318SOL     ow 5269   0.989   3.424   6.919  0.4470  0.1710 -0.4860
 1318SOL     hw 5270   0.932   3.475   6.977 -0.9928 -0.3891 -1.3575
 1318SOL     hw 5271   1.000   3.479   6.841  0.8780  0.1624 -0.4321
 1318SOL     vw 5272   0.983   3.438   6.916  0.3139  0.0958 -0.5941
 1319SOL     ow 5273   3.487   6.320   6.054  0.0074  0.1091  0.0294
 1319SOL     hw 5274   3.525   6.404   6.079  0.6755 -0.0668 -0.3616
 1319SOL     hw 5275   3.532   6.297   5.973 -0.3361 -0.5173  0.0098
 1319SOL     vw 5276   3.498   6.328   6.046  0.0502  0.0031 -0.0248
 1320SOL     ow 5277   5.341   6.191   3.688  0.1172 -0.8366 -0.2446
 1320SOL     hw 5278   5.324   6.217   3.779 -1.6029 -0.8456 -0.5295
 1320SOL     hw 5279   5.358   6.097   3.693  1.1712 -0.6397  0.1789
 1320SOL     vw 5280   5.341   6.182   3.701  0.0296 -0.8118 -0.2263
 1321SOL     ow 5281   1.861   0.869   3.778 -0.4158  0.0360 -0.7676
 1321SOL     hw 5282   1.837   0.838   3.866  0.2151  1.2178 -0.1469
 1321SOL     hw 5283   1.952   0.900   3.788 -1.0051  2.0973 -1.2913
 1321SOL     vw 5284   1.870   0.869   3.791 -0.4104  0.4639 -0.7548
 1322SOL     ow 5285   6.179   7.295   0.001  1.0296  0.4192 -0.0437
 1322SOL     hw 5286   6.250   7.252   0.050  1.8486  1.7022 -0.0649
 1322SOL     hw 5287   6.218   7.376  -0.032 -0.4011  1.0587 -0.2321
 1322SOL     vw 5288   6.194   7.300   0.003  0.9489  0.6731 -0.0710
 1323SOL     ow 5289   1.822   4.748   0.679 -1.0879  0.5457 -0.5760
 1323SOL     hw 5290   1.904   4.791   0.654  0.1845  0.2111  2.4884
 1323SOL     hw 5291   1.778   4.811   0.736 -1.4850 -0.3876  0.1880
 1323SOL     vw 5292   1.827   4.762   0.683 -0.9724  0.3784 -0.0709
 1324SOL     ow 5293   4.848   0.962   2.969  0.7305 -0.4641  0.5387
 1324SOL     hw 5294   4.902   1.033   2.934  1.8193 -2.1477 -1.4139
 1324SOL     hw 5295   4.761   0.978   2.932  0.4144  0.9479  1.7920
 1324SOL     vw 5296   4.844   0.974   2.960  0.8323 -0.4999  0.4464
 1325SOL     ow 5297   4.752   5.368   5.486 -0.2062 -0.9422 -0.5478
 1325SOL     hw 5298   4.721   5.431   5.550 -2.9724 -2.9380  0.2616
 1325SOL     hw 5299   4.818   5.316   5.533  1.9297  1.0570 -1.1588
 1325SOL     vw 5300   4.757   5.369   5.500 -0.2892 -0.9415 -0.5217
 1326SOL     ow 5301   4.939   1.427   3.973 -0.5536 -0.4599 -0.0150
 1326SOL     hw 5302   4.915   1.476   4.052 -2.1763 -0.0219 -0.7341
 1326SOL     hw 5303   4.913   1.337   3.993 -3.1441  0.0115 -0.7988
 1326SOL     vw 5304   4.932   1.421   3.986 -1.1094 -0.3400 -0.2131
 1327SOL     ow 5305   5.212   3.393   4.340 -0.4667 -0.3269  0.6608
 1327SOL     hw 5306   5.277   3.347   4.393 -0.7527  0.6569  1.9308
 1327SOL     hw 5307   5.212   3.347   4.256  1.6306 -0.5390  0.7276
 1327SOL     vw 5308   5.221   3.381   4.336 -0.2277 -0.2249  0.8373
 1328SOL     ow 5309   2.184   3.122   5.268  0.0200 -0.2131 -0.3133
 1328SOL     hw 5310   2.171   3.217   5.269 -0.7090 -0.2603 -1.9192
 1328SOL     hw 5311   2.188   3.098   5.360  2.3461  1.6321  0.1621
 1328SOL     vw 5312   2.183   3.132   5.280  0.2308  0.0242 -0.4623
 1329SOL     ow 5313   1.367   4.563   1.119  0.2516  0.2018  0.1237
 1329SOL     hw 5314   1.317   4.608   1.188 -0.1754 -0.2206  0.0931
 1329SOL     hw 5315   1.387   4.632   1.055 -0.4041  0.3464  0.0722
 1329SOL     vw 5316   1.363   4.578   1.120  0.1088  0.1650  0.1128
 1330SOL     ow 5317   0.496   0.977   5.212  0.0254  0.0183 -0.1650
 1330SOL     hw 5318   0.514   0.884   5.219  0.4658  0.1990  1.6312
 1330SOL     hw 5319   0.430   0.984   5.143 -1.5942 -1.8579  1.0900
 1330SOL     vw 5320   0.490   0.966   5.204 -0.1302 -0.2054  0.2375
 1331SOL     ow 5321   2.067   2.832   1.413  0.2368 -0.3866  0.4540
 1331SOL     hw 5322   2.000   2.790   1.359 -0.7026 -0.0862  1.3425
 1331SOL     hw 5323   2.097   2.764   1.473  0.2496 -0.3501  0.4895
 1331SOL     vw 5324   2.062   2.818   1.414  0.1147 -0.3421  0.5759
 1332SOL     ow 5325   0.106   3.258   4.490  0.3903 -0.0269 -0.6322
 1332SOL     hw 5326   0.030   3.200   4.497  2.5153 -2.8606  0.7144
 1332SOL     hw 5327   0.154   3.226   4.414  1.6496 -0.1446  0.1847
 1332SOL     vw 5328   0.102   3.246   4.481  0.8368 -0.4162 -0.3469
 1333SOL     ow 5329   6.759   5.370   4.540 -0.3783 -0.0022 -0.7688
 1333SOL     hw 5330   6.837   5.331   4.501  0.5812  1.7504 -0.6988
 1333SOL     hw 5331   6.764   5.346   4.633 -0.7041 -1.0961 -1.0268
 1333SOL     vw 5332   6.770   5.362   4.547 -0.2947  0.0844 -0.7935
 1334SOL     ow 5333   3.818   6.826   0.464  0.1554 -0.0926  0.2782
 1334SOL     hw 5334   3.905   6.865   0.459 -0.0195  0.1629 -1.0970
 1334SOL     hw 5335   3.827   6.743   0.417 -0.4525  0.1555 -0.2872
 1334SOL     vw 5336   3.831   6.820   0.457  0.0521 -0.0262  0.0221
 1335SOL     ow 5337   4.785   0.783   1.014 -0.6020 -0.2219  0.9646
 1335SOL     hw 5338   4.742   0.721   1.072 -1.1616  0.0498  0.8461
 1335SOL     hw 5339   4.877   0.781   1.041 -1.0261  0.7184  2.6277
 1335SOL     vw 5340   4.792   0.775   1.025 -0.7317 -0.0620  1.1684
 1336SOL     ow 5341   5.371   5.185   1.646 -0.7199 -0.2726 -0.4838
 1336SOL     hw 5342   5.357   5.195   1.740 -1.1153 -0.5911 -0.5035
 1336SOL     hw 5343   5.400   5.271   1.616 -1.2078 -0.0023 -0.1789
 1336SOL     vw 5344   5.373   5.197   1.655 -0.8366 -0.2789 -0.4461
 1337SOL     ow 5345   4.672   6.193   4.012  0.0901  0.2598  0.2771
 1337SOL     hw 5346   4.670   6.214   3.918 -1.5612 -0.7232  0.0440
 1337SOL     hw 5347   4.584   6.216   4.043  1.4709  3.5084  2.3484
 1337SOL     vw 5348   4.660   6.199   4.003  0.0544  0.5584  0.5200
 1338SOL     ow 5349   1.765   1.503   3.196 -0.9533 -0.4601  0.0382
 1338SOL     hw 5350   1.765   1.588   3.151  1.0473  0.2880  1.3399
 1338SOL     hw 5351   1.678   1.497   3.236 -1.0037  1.1544  0.2342
 1338SOL     vw 5352   1.754   1.513   3.195 -0.6960 -0.1484  0.2359
 1339SOL     ow 5353   3.622   3.034   7.188  0.1388 -0.5367 -0.2801
 1339SOL     hw 5354   3.556   3.097   7.216  0.9607  0.8677 -1.3883
 1339SOL     hw 5355   3.633   2.976   7.264 -1.3097  0.0709  0.4327
 1339SOL     vw 5356   3.615   3.035   7.202  0.0561 -0.2712 -0.3321
 1340SOL     ow 5357   2.791   5.050   1.446 -0.0287  0.2294 -0.3414
 1340SOL     hw 5358   2.780   5.042   1.541  0.3140  1.6395 -0.1542
 1340SOL     hw 5359   2.867   5.107   1.436  0.2759 -0.3618 -1.4777
 1340SOL     vw 5360   2.799   5.057   1.457  0.0566  0.3376 -0.4666
 1341SOL     ow 5361   1.714   1.344   4.035  0.1900 -0.4275  0.0867
 1341SOL     hw 5362   1.706   1.251   4.014  1.6576 -0.8036  1.0522
 1341SOL     hw 5363   1.807   1.356   4.056  0.2572  1.4831 -1.0577
 1341SOL     vw 5364   1.725   1.333   4.035  0.3926 -0.2250  0.0629
 1342SOL     ow 5365   7.255   5.162   1.393 -0.0727  0.5338 -0.0544
 1342SOL     hw 5366   7.238   5.136   1.303 -0.1961  2.2176 -0.5450
 1342SOL     hw 5367   7.314   5.094   1.426 -0.6518 -0.5424 -1.1211
 1342SOL     vw 5368   7.261   5.149   1.386 -0.1655  0.6139 -0.2599
 1343SOL     ow 5369   3.950   5.897   0.646  0.3916 -0.2614 -0.1265
 1343SOL     hw 5370   3.863   5.910   0.608  0.2951  1.6332  0.6451
 1343SOL     hw 5371   4.011   5.928   0.579  0.2962  1.3337  0.4685
 1343SOL     vw 5372   3.947   5.903   0.632  0.3661  0.1988  0.0538
 1344SOL     ow 5373   1.511   6.375   1.715  0.3173  0.0541  0.3448
 1344SOL     hw 5374   1.496   6.455   1.766 -0.9329 -0.6493  1.1197
 1344SOL     hw 5375   1.606   6.363   1.718  0.4784  1.2440  0.6243
 1344SOL     vw 5376   1.522   6.384   1.723  0.1736  0.1185  0.4839
 1345SOL     ow 5377   5.231   0.591   0.215  0.5512  0.1540  0.0771
 1345SOL     hw 5378   5.248   0.513   0.162  4.9136 -0.5307  2.0131
 1345SOL     hw 5379   5.271   0.662   0.165 -1.5444  0.8445 -0.6886
 1345SOL     vw 5380   5.239   0.590   0.201  0.8504  0.1548  0.2315
 1346SOL     ow 5381   6.470   6.094   6.948  0.5244 -0.2415  0.1031
 1346SOL     hw 5382   6.439   6.014   6.989  1.7349 -1.4345 -1.1995
 1346SOL     hw 5383   6.422   6.100   6.866 -2.1962  2.3556  1.6975
 1346SOL     vw 5384   6.460   6.085   6.943  0.3252 -0.0563  0.1416
 1347SOL     ow 5385   3.614   5.936   7.163 -0.0330 -0.2805  0.4495
 1347SOL     hw 5386   3.620   5.996   7.090  0.2956 -0.5900  0.2165
 1347SOL     hw 5387   3.678   5.968   7.227 -0.2275 -0.0852  0.5466
 1347SOL     vw 5388   3.623   5.948   7.162 -0.0154 -0.2954  0.4313
 1348SOL     ow 5389   5.886   2.563   0.418 -0.1033 -0.1197  0.7159
 1348SOL     hw 5390   5.895   2.514   0.500 -0.1676 -0.2335  0.6559
 1348SOL     hw 5391   5.791   2.572   0.406 -0.0907  0.1246  0.7876
 1348SOL     vw 5392   5.874   2.558   0.427 -0.1101 -0.1025  0.7174
 1349SOL     ow 5393   5.107   1.948   1.786 -0.0487  0.8611  0.2012
 1349SOL     hw 5394   5.164   1.968   1.712 -0.6126  1.4928 -0.0721
 1349SOL     hw 5395   5.021   1.935   1.746  0.3195 -2.7440  0.2455
 1349SOL     vw 5396   5.103   1.949   1.771 -0.0746  0.4689  0.1710
 1350SOL     ow 5397   5.630   3.700   4.234 -0.1830 -0.4141  0.1505
 1350SOL     hw 5398   5.576   3.769   4.196 -2.0760 -1.4823  0.7464
 1350SOL     hw 5399   5.683   3.668   4.161  1.5514  2.2851  0.0690
 1350SOL     vw 5400   5.630   3.705   4.220 -0.2038 -0.1990  0.2184
 1351SOL     ow 5401   4.004   1.418   7.125  0.0011 -0.7458 -0.3401
 1351SOL     hw 5402   3.927   1.442   7.073 -0.2077  2.9079  1.3828
 1351SOL     hw 5403   4.073   1.404   7.059 -1.0549  0.4315 -1.7804
 1351SOL     vw 5404   4.003   1.419   7.109 -0.1657 -0.1084 -0.3030
 1352SOL     ow 5405   3.974   3.434   3.304 -0.1011  0.6942 -0.8697
 1352SOL     hw 5406   3.994   3.497   3.235  1.0092  0.6763 -0.5880
 1352SOL     hw 5407   4.039   3.452   3.373 -1.0047  0.5235  0.0506
 1352SOL     vw 5408   3.985   3.444   3.304 -0.0739  0.6694 -0.7111
 1353SOL     ow 5409   6.527   1.382   5.897  0.2677 -0.4170 -0.0586
 1353SOL     hw 5410   6.615   1.393   5.932  0.2433 -0.1504 -0.0765
 1353SOL     hw 5411   6.533   1.305   5.841  0.4596 -0.4712  0.0335
 1353SOL     vw 5412   6.539   1.374   5.895  0.2899 -0.3890 -0.0489
 1354SOL     ow 5413   4.575   4.300   1.634  0.1809  0.2715 -0.1438
 1354SOL     hw 5414   4.625   4.363   1.685  0.2745  0.3736 -0.3605
 1354SOL     hw 5415   4.484   4.314   1.659  0.3297 -0.5319  0.9471
 1354SOL     vw 5416   4.570   4.310   1.644  0.2129  0.1791 -0.0284
 1355SOL     ow 5417   2.101   5.221   1.504  0.1351  0.3812 -0.1388
 1355SOL     hw 5418   2.123   5.312   1.484  0.4812  0.4299  0.4494
 1355SOL     hw 5419   2.069   5.223   1.594  2.4276 -0.4110  0.7707
 1355SOL     vw 5420   2.099   5.233   1.513  0.4832  0.2832  0.0588
 1356SOL     ow 5421   4.527   1.693   1.898  0.5728 -0.0502  0.4560
 1356SOL     hw 5422   4.504   1.660   1.985  2.2154 -0.0349  0.9436
 1356SOL     hw 5423   4.496   1.627   1.837 -1.0197  0.1583  1.0068
 1356SOL     vw 5424   4.520   1.680   1.902  0.5796 -0.0207  0.5931
 1357SOL     ow 5425   7.097   3.228   4.371  0.2215  0.0507  0.4578
 1357SOL     hw 5426   7.024   3.263   4.421  0.6018  0.3197  0.8303
 1357SOL     hw 5427   7.157   3.193   4.437  1.4846  1.8308  0.3275
 1357SOL     vw 5428   7.096   3.228   4.386  0.4385  0.3210  0.4897
 1358SOL     ow 5429   0.524   0.130   5.645  0.5547  0.2059  0.0019
 1358SOL     hw 5430   0.550   0.135   5.553  1.7077 -1.7687  0.1758
 1358SOL     hw 5431   0.606   0.125   5.694 -0.0644 -0.4892  1.0115
 1358SOL     vw 5432   0.538   0.130   5.640  0.6252 -0.1463  0.1581
 1359SOL     ow 5433   6.554   4.199   0.554 -0.7242  0.6108  1.0922
 1359SOL     hw 5434   6.636   4.206   0.603 -0.9324  0.3343  1.4846
 1359SOL     hw 5435   6.576   4.144   0.479 -0.4253  0.9562  0.9225
 1359SOL     vw 5436   6.568   4.193   0.551 -0.7122  0.6196  1.1216
 1360SOL     ow 5437   7.349   6.441   1.823  0.2922 -0.2023  0.1016
 1360SOL     hw 5438   7.353   6.493   1.742 -2.4798  0.9177  0.5765
 1360SOL     hw 5439   7.354   6.350   1.793  2.3911  0.2098 -0.9970
 1360SOL     vw 5440   7.350   6.436   1.808  0.2034 -0.0002  0.0194
 1361SOL     ow 5441   5.289   1.930   6.719  0.1368  0.0538  0.3157
 1361SOL     hw 5442   5.224   1.988   6.759  0.2134  1.0215 -0.8985
 1361SOL     hw 5443   5.246   1.896   6.641  0.7837  0.0442 -0.0428
 1361SOL     vw 5444   5.275   1.934   6.714  0.2322  0.1802  0.1082
 1362SOL     ow 5445   0.633   6.250   1.773  0.0033  0.1256  0.1239
 1362SOL     hw 5446   0.634   6.335   1.816 -1.0101  0.0267  0.3710
 1362SOL     hw 5447   0.541   6.223   1.775  0.0357 -0.2294 -1.4345
 1362SOL     vw 5448   0.621   6.257   1.779 -0.1261  0.0656 -0.0491
 1363SOL     ow 5449   4.183   2.393   2.080 -0.1390  0.2916  0.3725
 1363SOL     hw 5450   4.242   2.468   2.084 -0.1907  0.3500  0.0886
 1363SOL     hw 5451   4.151   2.393   1.990 -1.4751  0.9596  0.8190
 1363SOL     vw 5452   4.187   2.403   2.069 -0.3223  0.3874  0.3940
 1364SOL     ow 5453   3.489   6.746   5.998  0.4552  0.5312  1.2341
 1364SOL     hw 5454   3.583   6.731   6.003  0.8609  2.1701 -0.2121
 1364SOL     hw 5455   3.458   6.741   6.088  2.3951  2.4094  2.0961
 1364SOL     vw 5456   3.497   6.744   6.010  0.7647  0.9949  1.1570
 1365SOL     ow 5457   3.095   3.472   2.016  0.3087 -0.3408 -0.5507
 1365SOL     hw 5458   3.003   3.497   2.013  0.9663  2.2787 -0.9578
 1365SOL     hw 5459   3.110   3.445   2.106 -0.3798  1.3814  0.1232
 1365SOL     vw 5460   3.085   3.472   2.027  0.3046  0.2321 -0.5155
 1366SOL     ow 5461   4.895   1.931   4.786 -1.2761  0.2818 -0.0963
 1366SOL     hw 5462   4.846   1.859   4.745  1.6153 -1.0386 -1.4917
 1366SOL     hw 5463   4.944   1.970   4.713  0.1058  1.2101  1.2832
 1366SOL     vw 5464   4.895   1.926   4.771 -0.7122  0.2300 -0.0985
 1367SOL     ow 5465   1.974   4.502   0.783  0.8414  0.1651  0.5994
 1367SOL     hw 5466   2.007   4.428   0.732  0.1788  0.3241 -0.0732
 1367SOL     hw 5467   2.040   4.570   0.774  0.0255  0.7696 -1.3971
 1367SOL     vw 5468   1.987   4.501   0.775  0.6464  0.2658  0.2472
 1368SOL     ow 5469   4.616   6.449   1.518  0.6895 -0.4594  0.5363
 1368SOL     hw 5470   4.577   6.528   1.482  0.7165  0.0944  1.6827
 1368SOL     hw 5471   4.701   6.443   1.475 -0.3306 -1.3293 -1.5037
 1368SOL     vw 5472   4.622   6.458   1.507  0.5586 -0.5012  0.4184
 1369SOL     ow 5473   6.368   0.675   6.290  0.3491  0.6726 -0.2465
 1369SOL     hw 5474   6.286   0.627   6.292  0.4934  0.4448  1.6813
 1369SOL     hw 5475   6.436   0.607   6.287  0.5174  0.7617  1.0453
 1369SOL     vw 5476   6.366   0.660   6.290  0.3903  0.6543  0.1783
 1370SOL     ow 5477   4.277   1.928   6.662 -0.3278  0.0337 -0.1079
 1370SOL     hw 5478   4.250   1.925   6.570  1.1779 -0.2493 -0.5708
 1370SOL     hw 5479   4.224   1.861   6.705  1.4028 -2.3436 -1.4974
 1370SOL     vw 5480   4.266   1.919   6.655  0.0989 -0.3173 -0.3521
 1371SOL     ow 5481   5.027   0.647   4.058 -0.2449 -0.0605  0.4939
 1371SOL     hw 5482   4.967   0.718   4.034 -0.4108 -0.9317 -1.9065
 1371SOL     hw 5483   5.105   0.692   4.090 -0.4427  1.2362 -0.7209
 1371SOL     vw 5484   5.029   0.662   4.059 -0.2930 -0.0043  0.0167
 1372SOL     ow 5485   3.909   4.797   6.430  0.1595 -0.5283  0.4271
 1372SOL     hw 5486   3.957   4.878   6.449  0.8626 -1.1030  1.1869
 1372SOL     hw 5487   3.972   4.744   6.380 -0.7932 -0.0520 -1.3453
 1372SOL     vw 5488   3.924   4.800   6.426  0.1266 -0.5414  0.2937
 1373SOL     ow 5489   6.395   5.330   3.925 -0.2973  0.1755  0.5047
 1373SOL     hw 5490   6.363   5.254   3.974 -0.8833 -0.3679 -0.6942
 1373SOL     hw 5491   6.406   5.398   3.992 -1.5814 -0.3785  1.3185
 1373SOL     vw 5492   6.393   5.329   3.940 -0.5441  0.0308  0.4538
 1374SOL     ow 5493   4.847   4.997   3.123 -0.0244  0.3639  0.4230
 1374SOL     hw 5494   4.759   4.999   3.086 -0.7079 -1.0446  1.8375
 1374SOL     hw 5495   4.903   4.968   3.050 -0.8752  0.3909 -0.2584
 1374SOL     vw 5496   4.843   4.993   3.108 -0.2270  0.1814  0.5198
 1375SOL     ow 5497   0.557   1.819   3.602  0.4083 -0.0708 -0.3366
 1375SOL     hw 5498   0.635   1.781   3.642  0.1851 -0.9200 -0.6833
 1375SOL     hw 5499   0.562   1.912   3.624  2.9927  0.4848 -2.6575
 1375SOL     vw 5500   0.568   1.826   3.610  0.7198 -0.1095 -0.6883
 1376SOL     ow 5501   7.204   0.140   3.149 -0.1379  0.1174 -0.0964
 1376SOL     hw 5502   7.254   0.068   3.187  1.0163 -0.1948 -2.1200
 1376SOL     hw 5503   7.114   0.108   3.147  0.2542 -1.0210 -0.3718
 1376SOL     vw 5504   7.199   0.127   3.154  0.0663 -0.0740 -0.3997
 1377SOL     ow 5505   0.581   1.079   5.481  0.1415 -0.3789  0.2309
 1377SOL     hw 5506   0.615   1.156   5.527  2.5832 -1.4602  0.3738
 1377SOL     hw 5507   0.557   1.018   5.551  0.3053 -0.5881  0.1067
 1377SOL     vw 5508   0.583   1.081   5.496  0.4853 -0.5492  0.2337
 1378SOL     ow 5509   4.334   3.194   6.661 -0.2729  0.1438 -0.3803
 1378SOL     hw 5510   4.345   3.262   6.728  1.5210  1.2227 -1.6949
 1378SOL     hw 5511   4.343   3.112   6.709  2.3539  0.8818  0.5749
 1378SOL     vw 5512   4.336   3.192   6.676  0.3104  0.3835 -0.4275
 1379SOL     ow 5513   4.762   2.184   4.994 -0.3244  0.2973  0.0773
 1379SOL     hw 5514   4.755   2.157   4.902 -0.4441  0.9055 -0.0934
 1379SOL     hw 5515   4.744   2.104   5.043 -0.2022 -0.0465 -0.4292
 1379SOL     vw 5516   4.759   2.170   4.988 -0.3240  0.3321 -0.0119
 1380SOL     ow 5517   2.087   3.709   7.167  0.2646  0.4553  0.1277
 1380SOL     hw 5518   2.125   3.797   7.156 -1.3047  1.2401  0.7059
 1380SOL     hw 5519   2.163   3.652   7.182  1.2980  1.7517  0.0279
 1380SOL     vw 5520   2.102   3.713   7.168  0.1940  0.7299  0.1907
 1381SOL     ow 5521   1.923   2.602   4.583  0.3246  0.4953  0.5283
 1381SOL     hw 5522   1.986   2.596   4.511 -1.9844 -0.5274 -1.5395
 1381SOL     hw 5523   1.956   2.541   4.648  1.4262 -0.1026 -0.5325
 1381SOL     vw 5524   1.936   2.593   4.582  0.1653  0.2816  0.1156
 1382SOL     ow 5525   0.017   1.669   6.870 -0.1635 -0.0674 -0.0426
 1382SOL     hw 5526   0.011   1.743   6.809 -0.5138  0.4470  0.6008
 1382SOL     hw 5527  -0.062   1.676   6.923  0.2545 -0.3667  0.6178
 1382SOL     vw 5528   0.006   1.680   6.869 -0.1547 -0.0391  0.1297
 1383SOL     ow 5529   0.683   3.508   2.481  0.8379  0.5472  0.5072
 1383SOL     hw 5530   0.670   3.489   2.389  0.5157 -0.5226  0.7676
 1383SOL     hw 5531   0.775   3.488   2.497  1.1220  1.5571  0.2392
 1383SOL     vw 5532   0.694   3.503   2.471  0.8328  0.5393  0.5063
 1384SOL     ow 5533   5.671   5.525   1.754 -0.1982  0.6135  0.2170
 1384SOL     hw 5534   5.742   5.551   1.695 -1.2501  0.7526 -1.0312
 1384SOL     hw 5535   5.710   5.460   1.812 -0.1943 -3.3214 -3.6976
 1384SOL     vw 5536   5.686   5.520   1.754 -0.3364  0.1128 -0.4641
 1385SOL     ow 5537   0.373   3.208   5.615  0.3093 -0.0218 -0.1628
 1385SOL     hw 5538   0.444   3.165   5.566  0.8553  0.3415  0.2927
 1385SOL     hw 5539   0.413   3.230   5.699  0.3082  2.2114 -0.7085
 1385SOL     vw 5540   0.388   3.205   5.620  0.3812  0.3208 -0.1748
 1386SOL     ow 5541   1.236   1.525   4.487 -0.3696 -1.1101  0.4388
 1386SOL     hw 5542   1.278   1.577   4.418  0.9602 -1.7428  0.7332
 1386SOL     hw 5543   1.225   1.587   4.560 -3.0011 -0.0749 -0.7098
 1386SOL     vw 5544   1.240   1.540   4.487 -0.5413 -1.0570  0.3264
 1387SOL     ow 5545   1.532   5.690   4.444 -0.2373  0.6106  0.0104
 1387SOL     hw 5546   1.452   5.640   4.461  0.4600  0.5177  3.8990
 1387SOL     hw 5547   1.540   5.749   4.519  2.3266  2.0337 -1.2370
 1387SOL     vw 5548   1.523   5.691   4.456  0.1929  0.7863  0.3586
 1388SOL     ow 5549   1.130   1.542   2.563 -0.3330  0.3444 -0.2248
 1388SOL     hw 5550   1.106   1.523   2.472 -0.2340  1.0444 -0.4026
 1388SOL     hw 5551   1.174   1.627   2.559 -0.4282  0.4337  0.4940
 1388SOL     vw 5552   1.132   1.551   2.550 -0.3324  0.4485 -0.1534
 1389SOL     ow 5553   4.955   4.641   6.410 -0.5192 -0.2603  0.2350
 1389SOL     hw 5554   5.001   4.657   6.327 -0.4193  1.0825  0.5290
 1389SOL     hw 5555   4.998   4.564   6.447  0.2457 -0.1470 -0.3911
 1389SOL     vw 5556   4.967   4.633   6.404 -0.4051 -0.0679  0.1915
 1390SOL     ow 5557   3.365   4.930   6.325 -0.4669  0.3872  0.1039
 1390SOL     hw 5558   3.305   4.857   6.340 -0.2943  0.2198 -0.0019
 1390SOL     hw 5559   3.349   4.956   6.235 -1.9250  1.7853  0.7349
 1390SOL     vw 5560   3.355   4.923   6.315 -0.6365  0.5498  0.1736
 1391SOL     ow 5561   1.829   0.058   6.654 -0.1107 -0.2498  0.6696
 1391SOL     hw 5562   1.786   0.023   6.576 -0.2887 -0.8800  1.0385
 1391SOL     hw 5563   1.900  -0.004   6.672  0.7414  0.5791  0.2789
 1391SOL     vw 5564   1.833   0.045   6.646 -0.0219 -0.2236  0.6669
 1392SOL     ow 5565   1.684   3.824   5.915  0.0642  0.0442 -0.3325
 1392SOL     hw 5566   1.636   3.741   5.923 -1.4632  0.9295 -0.0166
 1392SOL     hw 5567   1.776   3.799   5.927 -0.3609 -1.5917 -0.1944
 1392SOL     vw 5568   1.690   3.810   5.917 -0.1934 -0.0550 -0.2728
 1393SOL     ow 5569   6.175   6.566   0.255 -0.0713 -0.0453 -0.0314
 1393SOL     hw 5570   6.224   6.592   0.177  0.2389  0.3392  0.2859
 1393SOL     hw 5571   6.084   6.564   0.227  0.2215 -2.0291 -0.9793
 1393SOL     vw 5572   6.170   6.569   0.241  0.0086 -0.2563 -0.1146
 1394SOL     ow 5573   0.767   1.009   5.235  0.2998 -0.1970 -0.5424
 1394SOL     hw 5574   0.740   0.951   5.164  0.2393  0.0529 -0.7241
 1394SOL     hw 5575   0.857   1.035   5.213  0.3534 -0.2815 -0.4231
 1394SOL     vw 5576   0.775   1.005   5.223  0.2989 -0.1752 -0.5507
 1395SOL     ow 5577   2.160   3.035   1.604  0.5019  0.3856 -0.5116
 1395SOL     hw 5578   2.239   2.981   1.602  1.3268  1.4896  0.6689
 1395SOL     hw 5579   2.184   3.111   1.658 -0.9965  1.3329 -1.1116
 1395SOL     vw 5580   2.174   3.038   1.611  0.4131  0.6561 -0.4350
 1396SOL     ow 5581   3.135   0.100   6.016  0.4063 -0.0535 -0.5092
 1396SOL     hw 5582   3.179   0.166   5.964  1.5213 -1.2185 -1.1018
 1396SOL     hw 5583   3.044   0.103   5.987  0.2588  1.7441  0.0575
 1396SOL     vw 5584   3.129   0.109   6.005  0.5341  0.0299 -0.5128
 1397SOL     ow 5585   6.148   2.566   3.674 -0.0652  0.5245  0.7050
 1397SOL     hw 5586   6.136   2.473   3.655  0.8234  0.5277  0.0386
 1397SOL     hw 5587   6.243   2.579   3.670 -0.0845  1.2256  1.9592
 1397SOL     vw 5588   6.159   2.555   3.671  0.0496  0.6176  0.7826
 1398SOL     ow 5589   5.587   4.680   0.612 -0.4834  0.4618 -0.4356
 1398SOL     hw 5590   5.674   4.639   0.605 -0.8943 -0.3023 -1.2944
 1398SOL     hw 5591   5.584   4.715   0.701  0.8400  0.8208 -0.5150
 1398SOL     vw 5592   5.598   4.679   0.623 -0.3631  0.4084 -0.5594
 1399SOL     ow 5593   1.513   4.418   2.465  0.4020 -0.8606  0.5995
 1399SOL     hw 5594   1.519   4.483   2.535  1.9128  0.4083 -0.6347
 1399SOL     hw 5595   1.601   4.414   2.428 -0.8195  0.5016 -2.9208
 1399SOL     vw 5596   1.525   4.426   2.469  0.4401 -0.5133 -0.0277
 1400SOL     ow 5597   3.653   5.980   5.070 -0.0095  0.4135  0.9248
 1400SOL     hw 5598   3.594   5.969   5.144 -0.4925 -1.2160  0.3274
 1400SOL     hw 5599   3.610   5.936   4.997  0.5015  1.8828 -0.3263
 1400SOL     vw 5600   3.640   5.973   5.070 -0.0057  0.3924  0.6809
 1401SOL     ow 5601   0.919   5.974   4.598  0.4513  0.4934  0.1717
 1401SOL     hw 5602   0.880   6.033   4.534  1.2871 -0.3876 -1.1890
 1401SOL     hw 5603   0.999   6.020   4.626  0.1770  0.7987  0.4679
 1401SOL     vw 5604   0.925   5.988   4.594  0.5254  0.4175  0.0312
 1402SOL     ow 5605   6.020   4.901   4.457 -0.4358  0.2203  0.7853
 1402SOL     hw 5606   6.105   4.882   4.498 -0.6285 -1.5218  0.4818
 1402SOL     hw 5607   6.038   4.970   4.394  0.7146  0.0617  0.9146
 1402SOL     vw 5608   6.034   4.907   4.454 -0.3095 -0.0303  0.7625
 1403SOL     ow 5609   3.658   2.281   4.994 -0.2524 -0.2763 -0.3765
 1403SOL     hw 5610   3.745   2.315   4.975 -0.4489 -0.5143 -1.8415
 1403SOL     hw 5611   3.598   2.343   4.951 -0.8292  0.0464  0.8584
 1403SOL     vw 5612   3.661   2.294   4.986 -0.3545 -0.2652 -0.4070
 1404SOL     ow 5613   1.396   5.853   0.052  0.7137  0.6481 -0.0206
 1404SOL     hw 5614   1.483   5.869   0.016  0.7950  0.6473  0.1730
 1404SOL     hw 5615   1.347   5.812  -0.019  0.7082  1.1401 -0.3022
 1404SOL     vw 5616   1.401   5.850   0.038  0.7237  0.7129 -0.0322
 1405SOL     ow 5617   6.459   0.201   5.449 -1.3963  0.0475  0.2328
 1405SOL     hw 5618   6.496   0.172   5.366 -0.8155 -2.0409  1.1430
 1405SOL     hw 5619   6.536   0.225   5.501 -1.8544  3.6560 -0.5340
 1405SOL     vw 5620   6.474   0.200   5.445 -1.3802  0.2481  0.2518
 1406SOL     ow 5621   5.308   4.790   0.468  0.4677 -0.9033 -0.3262
 1406SOL     hw 5622   5.345   4.876   0.449 -1.8703  0.2606  0.1168
 1406SOL     hw 5623   5.213   4.803   0.469  0.0768 -3.0681  1.6128
 1406SOL     vw 5624   5.300   4.803   0.466  0.1075 -1.0355 -0.0119
 1407SOL     ow 5625   0.478   3.636   0.941 -0.3692 -0.3319 -0.2064
 1407SOL     hw 5626   0.528   3.589   0.874  0.7793 -0.2375  0.5546
 1407SOL     hw 5627   0.530   3.714   0.958  0.8298 -1.6403  2.7365
 1407SOL     vw 5628   0.491   3.640   0.934 -0.0594 -0.4922  0.2823
 1408SOL     ow 5629   3.885   1.130   2.135 -0.0209  0.5359  0.3049
 1408SOL     hw 5630   3.797   1.154   2.165  0.3924  2.0025  0.4065
 1408SOL     hw 5631   3.936   1.120   2.215  0.1547  0.6830  0.2108
 1408SOL     vw 5632   3.880   1.132   2.150  0.0566  0.7488  0.3059
 1409SOL     ow 5633   3.718   0.497   3.638  0.5117 -0.3089  0.4401
 1409SOL     hw 5634   3.772   0.519   3.562 -1.1325  3.1321  0.0763
 1409SOL     hw 5635   3.658   0.429   3.606  0.1762  0.7191 -1.2351
 1409SOL     vw 5636   3.717   0.491   3.624  0.2503  0.2807  0.1711
 1410SOL     ow 5637   4.116   5.418   1.250  1.0597 -0.1233  0.2456
 1410SOL     hw 5638   4.082   5.419   1.161 -0.8120  0.3281  0.9276
 1410SOL     hw 5639   4.163   5.501   1.259 -1.0996  1.1438  0.4938
 1410SOL     vw 5640   4.118   5.429   1.239  0.5279  0.1035  0.3683
 1411SOL     ow 5641   6.175   4.644   2.496  0.0906  0.1927  0.5403
 1411SOL     hw 5642   6.257   4.676   2.535  1.4314 -1.0997 -1.0516
 1411SOL     hw 5643   6.201   4.610   2.411 -2.1849 -0.0312 -0.1303
 1411SOL     vw 5644   6.189   4.643   2.490 -0.0327 -0.0074  0.2418
 1412SOL     ow 5645   6.043   7.280   6.638 -0.6884  0.4415 -0.7349
 1412SOL     hw 5646   6.017   7.192   6.614  1.2238 -0.4405  0.1397
 1412SOL     hw 5647   6.007   7.336   6.570  0.7364 -1.3907 -3.1740
 1412SOL     vw 5648   6.035   7.276   6.626 -0.2484  0.0834 -0.9410
 1413SOL     ow 5649   4.396   1.238   4.364  0.3067 -0.5878 -0.6700
 1413SOL     hw 5650   4.491   1.228   4.370  0.8379  3.0539 -0.5166
 1413SOL     hw 5651   4.384   1.312   4.304 -2.4763 -1.1951 -0.9945
 1413SOL     vw 5652   4.407   1.247   4.357  0.0095 -0.1874 -0.6926
 1414SOL     ow 5653   1.140   0.152   1.430  0.6027  0.2003 -0.2605
 1414SOL     hw 5654   1.186   0.116   1.506  0.5199  1.6267  0.5066
 1414SOL     hw 5655   1.047   0.146   1.453  0.6099  1.8370  0.3890
 1414SOL     vw 5656   1.134   0.147   1.443  0.5926  0.6044 -0.0736
 1415SOL     ow 5657   1.022   4.709   6.384 -0.4908  0.1693 -0.1882
 1415SOL     hw 5658   1.024   4.800   6.415  0.8057  0.1608 -0.2078
 1415SOL     hw 5659   1.019   4.717   6.289  0.5919  0.1979 -0.2245
 1415SOL     vw 5660   1.022   4.722   6.375 -0.1769  0.1717 -0.1955
 1416SOL     ow 5661   1.898   2.526   2.948  0.8758 -1.1194 -0.6505
 1416SOL     hw 5662   1.806   2.520   2.924  1.2852 -1.7598 -2.1737
 1416SOL     hw 5663   1.906   2.611   2.992 -0.0252  0.0686 -2.6204
 1416SOL     vw 5664   1.887   2.537   2.950  0.8110 -1.0471 -1.1114
 1417SOL     ow 5665   2.165   7.090   0.668 -0.0595 -0.8632  0.2426
 1417SOL     hw 5666   2.142   7.021   0.607  1.1600 -0.7730 -0.3618
 1417SOL     hw 5667   2.236   7.138   0.624 -0.3226  0.2647  0.9957
 1417SOL     vw 5668   2.171   7.087   0.654  0.0668 -0.7026  0.2622
 1418SOL     ow 5669   3.451   5.488   2.848  0.0053  0.2588 -1.0861
 1418SOL     hw 5670   3.528   5.541   2.826  0.8688 -0.4616  0.0794
 1418SOL     hw 5671   3.382   5.553   2.865  0.8765  1.0070 -0.2823
 1418SOL     vw 5672   3.452   5.504   2.848  0.2342  0.2623 -0.8264
 1419SOL     ow 5673   3.289   4.762   1.079 -0.0401 -0.1308  0.3954
 1419SOL     hw 5674   3.331   4.764   0.993  1.4975  0.0699  1.1198
 1419SOL     hw 5675   3.223   4.831   1.075  1.3957  1.2954  0.0266
 1419SOL     vw 5676   3.286   4.771   1.067  0.3523  0.0839  0.4423
 1420SOL     ow 5677   2.274   0.832   6.850  0.4323  0.8181  0.3388
 1420SOL     hw 5678   2.210   0.895   6.881  1.0863  1.8770 -0.4220
 1420SOL     hw 5679   2.249   0.750   6.892 -1.7706  1.0589 -0.4010
 1420SOL     vw 5680   2.263   0.829   6.860  0.2278  0.9896  0.1407
 1421SOL     ow 5681   6.423   6.125   4.824 -0.5266 -0.0591  0.5018
 1421SOL     hw 5682   6.506   6.145   4.867  0.8005  1.2580 -2.4073
 1421SOL     hw 5683   6.360   6.183   4.867  0.6522  1.0027  0.8629
 1421SOL     vw 5684   6.425   6.135   4.836 -0.1962  0.2546  0.1655
 1422SOL     ow 5685   2.797   5.795   0.667  0.0285  0.7988  0.0059
 1422SOL     hw 5686   2.737   5.761   0.602 -0.3687 -0.5505  1.0330
 1422SOL     hw 5687   2.876   5.741   0.659  0.0573  0.7579  0.4830
 1422SOL     vw 5688   2.800   5.783   0.658 -0.0201  0.6154  0.2043
 1423SOL     ow 5689   4.376   6.889   5.075  0.2501  0.2679 -0.5481
 1423SOL     hw 5690   4.404   6.842   5.154  0.8654  1.3446 -0.1090
 1423SOL     hw 5691   4.362   6.979   5.105 -3.6151 -0.0917 -0.7308
 1423SOL     vw 5692   4.378   6.894   5.090 -0.1786  0.3626 -0.5143
 1424SOL     ow 5693   2.251   5.409   4.343  0.2671  0.2588  0.6287
 1424SOL     hw 5694   2.175   5.390   4.288 -1.4975  2.1705  2.2264
 1424SOL     hw 5695   2.297   5.325   4.351 -3.0476 -1.6308  1.6062
 1424SOL     vw 5696   2.247   5.395   4.337 -0.4030  0.2618  0.9687
 1425SOL     ow 5697   4.708   0.715   0.047 -0.7544  0.1089  0.1572
 1425SOL     hw 5698   4.628   0.680   0.087 -0.6554 -1.5373 -0.9888
 1425SOL     hw 5699   4.680   0.749  -0.038 -0.4214  0.6770  0.2651
 1425SOL     vw 5700   4.694   0.715   0.041 -0.6974 -0.0333  0.0205
 1426SOL     ow 5701   3.352   0.949   5.871  0.3671  0.1188 -0.0761
 1426SOL     hw 5702   3.442   0.915   5.873  0.3232 -0.2171  3.2685
 1426SOL     hw 5703   3.320   0.934   5.960 -2.2599  2.2288 -0.5572
 1426SOL     vw 5704   3.360   0.943   5.883  0.0147  0.3529  0.3016
 1427SOL     ow 5705   6.281   1.582   0.785  0.1757  0.2684 -0.2934
 1427SOL     hw 5706   6.291   1.505   0.841 -0.4097  0.2897 -0.1447
 1427SOL     hw 5707   6.200   1.564   0.736 -0.4166  1.1391  0.3341
 1427SOL     vw 5708   6.271   1.569   0.786  0.0203  0.3861 -0.1910
 1428SOL     ow 5709   3.834   0.975   6.890  0.0826 -0.0863  0.5742
 1428SOL     hw 5710   3.899   0.993   6.957  0.6666 -1.3348  0.3594
 1428SOL     hw 5711   3.751   0.973   6.937  0.4453 -0.5735  1.2041
 1428SOL     vw 5712   3.831   0.977   6.905  0.2075 -0.3152  0.6287
 1429SOL     ow 5713   5.418   4.128   3.346  0.0141 -0.0016 -0.4840
 1429SOL     hw 5714   5.468   4.064   3.296 -0.9142 -1.8895  0.8621
 1429SOL     hw 5715   5.483   4.171   3.402  0.8453  1.1904 -2.2813
 1429SOL     vw 5716   5.433   4.125   3.347  0.0014 -0.0932 -0.5435
 1430SOL     ow 5717   4.976   5.198   5.584 -0.0726 -0.0999 -0.2728
 1430SOL     hw 5718   4.910   5.173   5.648  0.4144  0.2474  0.3746
 1430SOL     hw 5719   5.014   5.115   5.554  1.1764 -0.2104  1.4751
 1430SOL     vw 5720   4.972   5.184   5.588  0.1564 -0.0687  0.0434
 1431SOL     ow 5721   5.961   5.621   3.657 -0.7881  0.0920 -0.5684
 1431SOL     hw 5722   5.995   5.675   3.586  0.4054  0.3758  0.1948
 1431SOL     hw 5723   5.906   5.680   3.709 -0.1055  0.3891 -0.1727
 1431SOL     vw 5724   5.958   5.636   3.655 -0.5405  0.1686 -0.4154
 1432SOL     ow 5725   3.187   6.035   1.919  0.3036  0.4842  0.2851
 1432SOL     hw 5726   3.119   6.086   1.963 -0.6736  0.6586 -1.3677
 1432SOL     hw 5727   3.240   6.100   1.873  1.2881  0.2975  1.1109
 1432SOL     vw 5728   3.185   6.050   1.919  0.3047  0.4826  0.1761
 1433SOL     ow 5729   2.111   6.464   3.422  0.4673 -0.3753 -0.6684
 1433SOL     hw 5730   2.071   6.537   3.374  1.3940 -0.6082 -1.8377
 1433SOL     hw 5731   2.200   6.494   3.442 -0.2905  0.2999  2.2696
 1433SOL     vw 5732   2.117   6.478   3.419  0.4894 -0.3166 -0.4350
 1434SOL     ow 5733   5.768   2.634   2.017 -0.0487  0.3890  0.0365
 1434SOL     hw 5734   5.776   2.563   1.953  2.3208  0.3047  0.3300
 1434SOL     hw 5735   5.808   2.599   2.096  0.8194  1.8964  0.3009
 1434SOL     vw 5736   5.774   2.620   2.019  0.3786  0.5767  0.1100
 1435SOL     ow 5737   5.178   4.910   6.284 -0.0446 -0.3593  0.3233
 1435SOL     hw 5738   5.271   4.914   6.304  0.2455 -1.3179 -0.7701
 1435SOL     hw 5739   5.169   4.840   6.219 -1.6984 -1.1773  1.3638
 1435SOL     vw 5740   5.189   4.902   6.278 -0.2246 -0.5937  0.3164
 1436SOL     ow 5741   0.625   5.562   3.816 -0.2942 -0.2773 -0.3069
 1436SOL     hw 5742   0.666   5.483   3.782 -1.7575 -0.0556 -2.9166
 1436SOL     hw 5743   0.536   5.535   3.838 -0.5866  0.4731 -0.5353
 1436SOL     vw 5744   0.618   5.548   3.814 -0.5258 -0.1490 -0.6814
 1437SOL     ow 5745   1.616   1.580   1.372  0.1092 -0.6033 -0.0473
 1437SOL     hw 5746   1.697   1.559   1.418  0.2940 -2.3174 -1.0773
 1437SOL     hw 5747   1.633   1.556   1.281 -1.3728 -0.4957 -0.3865
 1437SOL     vw 5748   1.629   1.574   1.366 -0.0619 -0.8152 -0.2280
 1438SOL     ow 5749   3.469   4.713   6.751  0.0442  0.0472 -0.3060
 1438SOL     hw 5750   3.476   4.618   6.756 -0.4725 -0.1014 -1.9469
 1438SOL     hw 5751   3.555   4.742   6.721 -0.6774 -0.2333 -2.9283
 1438SOL     vw 5752   3.481   4.705   6.748 -0.1192 -0.0093 -0.8683
 1439SOL     ow 5753   6.914   3.916   2.425 -0.1297  0.8015  0.9326
 1439SOL     hw 5754   6.927   3.950   2.337 -0.4670  4.5578  2.1600
 1439SOL     hw 5755   6.820   3.895   2.429 -0.9034  3.8203  1.2259
 1439SOL     vw 5756   6.903   3.917   2.414 -0.2763  1.6954  1.1331
 1440SOL     ow 5757   3.927   6.069   2.960 -0.6810 -0.1117 -0.7890
 1440SOL     hw 5758   3.938   5.976   2.945 -0.0689  0.2005 -2.5069
 1440SOL     hw 5759   3.940   6.109   2.874 -0.1925  1.6135  0.0350
 1440SOL     vw 5760   3.930   6.062   2.947 -0.5357  0.1569 -0.9069
 1441SOL     ow 5761   4.270   6.757   4.785  0.4390 -0.3630 -0.0703
 1441SOL     hw 5762   4.275   6.663   4.766  3.2979 -0.4872  0.8127
 1441SOL     hw 5763   4.256   6.798   4.699 -1.2826 -1.5689 -0.4175
 1441SOL     vw 5764   4.269   6.750   4.771  0.5889 -0.5386  0.0005
 1442SOL     ow 5765   1.577   1.760   1.544 -0.4103  0.7260 -0.2030
 1442SOL     hw 5766   1.590   1.703   1.468 -1.0217  1.3911 -0.8269
 1442SOL     hw 5767   1.663   1.765   1.585 -0.0869  0.2827 -0.8119
 1442SOL     vw 5768   1.590   1.753   1.539 -0.4483  0.7553 -0.3657
 1443SOL     ow 5769   1.816   4.634   3.924  0.4859 -0.7009 -0.3056
 1443SOL     hw 5770   1.895   4.686   3.941  0.2025 -0.9981  2.4154
 1443SOL     hw 5771   1.753   4.697   3.890  0.2838  0.7802  2.5328
 1443SOL     vw 5772   1.818   4.649   3.922  0.4219 -0.5445  0.4278
 1444SOL     ow 5773   2.445   3.717   1.402 -0.0929 -0.3325  0.1933
 1444SOL     hw 5774   2.429   3.748   1.491 -0.7457 -3.7394  1.4075
 1444SOL     hw 5775   2.376   3.757   1.349 -1.5469 -0.5469  1.8500
 1444SOL     vw 5776   2.434   3.726   1.407 -0.3709 -0.8104  0.5720
 1445SOL     ow 5777   0.228   4.942   6.812  0.5871  0.1412 -1.0528
 1445SOL     hw 5778   0.251   4.901   6.729  1.9069 -2.4970  0.4910
 1445SOL     hw 5779   0.309   4.986   6.840  0.4101  0.2879 -0.7636
 1445SOL     vw 5780   0.242   4.943   6.805  0.7379 -0.1876 -0.8109
 1446SOL     ow 5781   0.077   3.292   4.784 -0.0861 -0.7587  0.2322
 1446SOL     hw 5782   0.131   3.220   4.818  1.8859  0.8690  0.7122
 1446SOL     hw 5783  -0.006   3.283   4.832 -0.3865 -3.3752 -0.5828
 1446SOL     vw 5784   0.073   3.281   4.795  0.1345 -0.8892  0.1879
 1447SOL     ow 5785   6.735   6.546   6.691 -0.2636  0.2403  0.5449
 1447SOL     hw 5786   6.781   6.551   6.608 -0.0544  0.6333  0.6801
 1447SOL     hw 5787   6.730   6.637   6.722 -2.5171  0.4386 -0.2091
 1447SOL     vw 5788   6.740   6.559   6.684 -0.5333  0.3183  0.4635
 1448SOL     ow 5789   5.021   4.131   2.631 -0.4170 -0.0362 -0.4706
 1448SOL     hw 5790   5.107   4.091   2.622 -0.3437  0.2691 -1.2151
 1448SOL     hw 5791   4.961   4.057   2.644 -0.1110 -0.2893 -0.4893
 1448SOL     vw 5792   5.024   4.116   2.631 -0.3669 -0.0293 -0.5714
 1449SOL     ow 5793   5.732   0.842   6.890  0.7200  0.0926  0.2899
 1449SOL     hw 5794   5.696   0.909   6.948 -0.1447 -0.2478  0.1599
 1449SOL     hw 5795   5.769   0.891   6.816  0.2712  0.4368  0.2911
 1449SOL     vw 5796   5.732   0.857   6.888  0.5467  0.0931  0.2730
 1450SOL     ow 5797   3.214   5.934   2.554 -0.5003  0.1391  0.6137
 1450SOL     hw 5798   3.206   5.983   2.473 -0.1714  1.8866  1.5956
 1450SOL     hw 5799   3.151   5.863   2.545 -1.1641  0.8693 -0.7668
 1450SOL     vw 5800   3.205   5.931   2.542 -0.5443  0.4661  0.5610
 1451SOL     ow 5801   2.531   0.501   6.140  0.4937  0.1928 -0.0881
 1451SOL     hw 5802   2.608   0.453   6.170 -0.0655 -0.0910  0.9371
 1451SOL     hw 5803   2.514   0.564   6.210  0.1623  0.6742 -0.5982
 1451SOL     vw 5804   2.539   0.503   6.154  0.3762  0.2189 -0.0203
 1452SOL     ow 5805   4.665   6.478   5.385 -0.7656 -0.1683  0.3496
 1452SOL     hw 5806   4.606   6.439   5.320 -2.4343  0.4299  1.4307
 1452SOL     hw 5807   4.630   6.566   5.399  1.9633  1.2482 -0.8625
 1452SOL     vw 5808   4.653   6.485   5.378 -0.6258  0.0975  0.3321
 1453SOL     ow 5809   1.261   2.641   3.932 -0.0189  0.6223  0.0480
 1453SOL     hw 5810   1.344   2.686   3.946  1.3413 -1.5311 -0.5633
 1453SOL     hw 5811   1.276   2.587   3.854 -1.9895  0.1606 -0.0571
 1453SOL     vw 5812   1.274   2.640   3.924 -0.0994  0.2774 -0.0464
 1454SOL     ow 5813   7.193   4.984   0.068  0.3404  0.3990  0.2249
 1454SOL     hw 5814   7.168   4.919   0.002 -0.0997 -1.0032  1.6902
 1454SOL     hw 5815   7.121   4.981   0.132  1.2455  0.9356  1.2978
 1454SOL     vw 5816   7.180   4.975   0.068  0.4020  0.2847  0.5598
 1455SOL     ow 5817   6.724   6.195   6.613  0.3443 -0.3622 -0.6408
 1455SOL     hw 5818   6.807   6.166   6.650  0.6625 -0.1292 -1.1673
 1455SOL     hw 5819   6.694   6.264   6.673 -0.3086 -1.5751  0.4922
 1455SOL     vw 5820   6.731   6.200   6.626  0.3004 -0.4916 -0.5608
 1456SOL     ow 5821   4.035   4.555   0.151  0.0814 -0.0649  0.4740
 1456SOL     hw 5822   3.960   4.510   0.191  1.2350 -1.5058  1.1375
 1456SOL     hw 5823   4.109   4.531   0.207  1.3979 -0.4032 -1.3380
 1456SOL     vw 5824   4.035   4.546   0.164  0.4075 -0.2995  0.3225
 1457SOL     ow 5825   5.318   6.233   1.129 -0.1650 -0.0475 -0.0037
 1457SOL     hw 5826   5.407   6.217   1.098 -0.2212  0.4533 -0.4338
 1457SOL     hw 5827   5.284   6.146   1.151  0.0056 -0.3774 -1.0050
 1457SOL     vw 5828   5.325   6.219   1.128 -0.1500 -0.0248 -0.1925
 1458SOL     ow 5829   1.654   5.980   4.742  0.1190 -0.1023  0.5002
 1458SOL     hw 5830   1.729   5.954   4.795  1.4303 -0.0862 -1.2412
 1458SOL     hw 5831   1.589   6.010   4.805  0.7524 -2.0769  2.2098
 1458SOL     vw 5832   1.655   5.981   4.757  0.3756 -0.3607  0.4959
 1459SOL     ow 5833   5.383   5.399   6.513  0.0519 -0.1442  0.3780
 1459SOL     hw 5834   5.442   5.333   6.476 -0.4257  0.3147 -1.3282
 1459SOL     hw 5835   5.439   5.473   6.535  0.2617 -0.0999 -0.2786
 1459SOL     vw 5836   5.398   5.400   6.511  0.0165 -0.0777  0.0660
 1460SOL     ow 5837   1.395   0.102   6.553 -0.2260  0.1909  0.3378
 1460SOL     hw 5838   1.469   0.089   6.493 -0.1145 -0.0936  0.5405
 1460SOL     hw 5839   1.354   0.183   6.522 -0.0480  0.1530 -0.0004
 1460SOL     vw 5840   1.400   0.111   6.541 -0.1878  0.1484  0.3202
 1461SOL     ow 5841   0.291   1.057   1.429 -0.0401 -0.0843  0.1585
 1461SOL     hw 5842   0.332   1.073   1.344  0.0759 -0.6071  0.1133
 1461SOL     hw 5843   0.364   1.038   1.488 -0.0318  1.2388  0.6132
 1461SOL     vw 5844   0.306   1.057   1.426 -0.0237  0.0213  0.2124
 1462SOL     ow 5845   4.996   4.260   2.883 -0.1337  0.3675 -0.3932
 1462SOL     hw 5846   5.001   4.264   2.788  0.4638  1.5224 -0.3263
 1462SOL     hw 5847   4.903   4.245   2.902 -0.0063 -1.6054 -1.1839
 1462SOL     vw 5848   4.984   4.259   2.873 -0.0381  0.2596 -0.4886
 1463SOL     ow 5849   7.091   1.470   4.640  0.6335  0.6410 -0.5060
 1463SOL     hw 5850   7.185   1.448   4.640  0.2331 -2.3655 -4.8917
 1463SOL     hw 5851   7.083   1.538   4.574 -0.2144  1.6111  0.5790
 1463SOL     vw 5852   7.103   1.476   4.631  0.4687  0.3723 -0.9418
 1464SOL     ow 5853   6.720   2.060   4.205  0.4838 -0.1913  0.5797
 1464SOL     hw 5854   6.649   2.083   4.145  0.4514  0.1449  0.7457
 1464SOL     hw 5855   6.677   2.018   4.279  0.4636 -0.0597  0.6434
 1464SOL     vw 5856   6.705   2.058   4.207  0.4766 -0.1295  0.6099
 1465SOL     ow 5857   3.379   7.346   2.691  0.0031  0.8241  0.0896
 1465SOL     hw 5858   3.359   7.434   2.660 -0.8793  1.1194  1.4201
 1465SOL     hw 5859   3.366   7.351   2.786  1.1613 -0.4145  0.3367
 1465SOL     vw 5860   3.375   7.358   2.699  0.0396  0.6997  0.2978
 1466SOL     ow 5861   2.728   6.819   6.885  0.5005 -0.8620 -0.4078
 1466SOL     hw 5862   2.748   6.822   6.978  0.5460 -0.1693 -0.4316
 1466SOL     hw 5863   2.661   6.752   6.876 -1.8785  1.2380  0.5867
 1466SOL     vw 5864   2.722   6.810   6.896  0.1926 -0.4938 -0.2799
 1467SOL     ow 5865   6.585   3.841   6.966  0.0668 -1.2145  0.4392
 1467SOL     hw 5866   6.680   3.853   6.971  0.1799 -2.2542  1.2643
 1467SOL     hw 5867   6.549   3.909   7.023  0.1066  0.9902 -1.9991
 1467SOL     vw 5868   6.593   3.852   6.974  0.0870 -1.0608  0.2263
 1468SOL     ow 5869   2.168   5.510   3.773  0.0310 -0.9059 -0.0831
 1468SOL     hw 5870   2.262   5.493   3.765 -0.4985 -4.3565 -0.6639
 1468SOL     hw 5871   2.138   5.448   3.840 -2.0110 -0.7664 -0.7961
 1468SOL     vw 5872   2.177   5.500   3.781 -0.3083 -1.3428 -0.2537
 1469SOL     ow 5873   2.829   2.005   1.143 -0.4943  0.7873  0.0287
 1469SOL     hw 5874   2.861   2.094   1.157  0.0053  0.9090 -1.7148
 1469SOL     hw 5875   2.898   1.961   1.094 -0.6784 -0.6271  0.9656
 1469SOL     vw 5876   2.842   2.011   1.138 -0.4528  0.6168 -0.0777
 1470SOL     ow 5877   4.584   0.921   3.148  0.6516 -0.5413 -0.2011
 1470SOL     hw 5878   4.559   0.964   3.230 -1.2141  0.5094 -1.2390
 1470SOL     hw 5879   4.525   0.845   3.143  1.0635 -0.8515 -0.3649
 1470SOL     vw 5880   4.573   0.917   3.158  0.4597 -0.4436 -0.3597
 1471SOL     ow 5881   0.256   2.732   2.028 -0.0240 -0.1165 -0.3109
 1471SOL     hw 5882   0.246   2.804   2.090  0.7318  1.0839 -1.5305
 1471SOL     hw 5883   0.345   2.699   2.043  0.6658  1.0613 -1.6194
 1471SOL     vw 5884   0.267   2.737   2.038  0.1668  0.1972 -0.6446
 1472SOL     ow 5885   3.371   7.197   6.271  0.3624  0.0294  0.1034
 1472SOL     hw 5886   3.441   7.221   6.331  1.8875  0.2320 -1.6740
 1472SOL     hw 5887   3.364   7.102   6.277  1.1511 -0.0412 -0.0864
 1472SOL     vw 5888   3.379   7.188   6.280  0.6676  0.0467 -0.1562
 1473SOL     ow 5889   4.800   0.251   5.291 -0.6622 -0.1286  0.6476
 1473SOL     hw 5890   4.805   0.293   5.205  1.7628 -1.3226  0.1050
 1473SOL     hw 5891   4.736   0.302   5.339  0.1089  2.4778 -0.8765
 1473SOL     vw 5892   4.792   0.263   5.286 -0.2406  0.0577  0.3748
 1474SOL     ow 5893   5.514   6.414   7.145  0.0755  0.2504 -0.6512
 1474SOL     hw 5894   5.584   6.454   7.197  2.5626 -0.8792 -2.8923
 1474SOL     hw 5895   5.521   6.320   7.162 -0.3364  0.0409 -1.5808
 1474SOL     vw 5896   5.524   6.407   7.154  0.3493  0.0739 -1.0695
 1475SOL     ow 5897   6.492   1.568   0.401 -0.2151 -0.0480 -0.0286
 1475SOL     hw 5898   6.459   1.658   0.393 -0.4581 -0.1864 -0.6221
 1475SOL     hw 5899   6.587   1.577   0.398 -0.2338  0.2060  0.1108
 1475SOL     vw 5900   6.500   1.581   0.400 -0.2496 -0.0327 -0.0885
 1476SOL     ow 5901   4.789   5.398   4.637 -0.1465  0.2493 -0.1267
 1476SOL     hw 5902   4.819   5.434   4.553  0.6217 -2.4145 -1.1063
 1476SOL     hw 5903   4.699   5.369   4.619 -0.5553  1.1250  0.4715
 1476SOL     vw 5904   4.781   5.399   4.623 -0.0989  0.0136 -0.1769
 1477SOL     ow 5905   5.146   0.035   1.112  0.5514  0.3659  0.6782
 1477SOL     hw 5906   5.193   0.025   1.030  0.2557 -0.8728  0.6450
 1477SOL     hw 5907   5.056   0.053   1.086  0.6373  0.9199  0.7432
 1477SOL     vw 5908   5.140   0.036   1.098  0.5236  0.2759  0.6825
 1478SOL     ow 5909   1.326   4.775   6.571 -0.3639  0.0409  0.2674
 1478SOL     hw 5910   1.305   4.800   6.481 -2.5856 -2.7472 -0.1039
 1478SOL     hw 5911   1.345   4.681   6.566  5.5793  0.7223  1.8537
 1478SOL     vw 5912   1.326   4.766   6.558  0.1271 -0.2370  0.4280
 1479SOL     ow 5913   5.270   6.545   2.759 -0.3374 -0.0101  0.0014
 1479SOL     hw 5914   5.182   6.524   2.726 -0.8467  0.7269  0.8126
 1479SOL     hw 5915   5.279   6.493   2.838  0.2635 -0.6394 -0.4782
 1479SOL     vw 5916   5.259   6.536   2.765 -0.3254  0.0041  0.0452
 1480SOL     ow 5917   6.890   7.087   6.010 -0.0903 -0.0333 -0.1019
 1480SOL     hw 5918   6.932   7.036   6.080 -2.9405 -0.4483  1.4729
 1480SOL     hw 5919   6.878   7.174   6.048 -1.6148 -0.2445 -0.0290
 1480SOL     vw 5920   6.894   7.092   6.025 -0.6676 -0.1161  0.1156
 1481SOL     ow 5921   7.123   5.396   5.359 -0.1278  0.7248 -0.1393
 1481SOL     hw 5922   7.055   5.421   5.422 -0.4939 -0.9522  0.2000
 1481SOL     hw 5923   7.199   5.448   5.384 -0.0254 -0.3884  2.2249
 1481SOL     vw 5924   7.124   5.406   5.371 -0.1624  0.3567  0.2174
 1482SOL     ow 5925   1.268   2.292   3.049 -0.4081 -0.2084  0.4235
 1482SOL     hw 5926   1.328   2.361   3.078  1.4202 -1.7128  0.4159
 1482SOL     hw 5927   1.209   2.336   2.987  0.0983  1.5313  1.1211
 1482SOL     vw 5928   1.268   2.307   3.044 -0.1000 -0.1773  0.5146
 1483SOL     ow 5929   2.070   3.988   4.952  0.3542 -0.0767  0.2920
 1483SOL     hw 5930   1.997   3.947   4.907 -0.6625  0.6535  1.2457
 1483SOL     hw 5931   2.071   3.948   5.039 -0.1758  1.3285  0.9735
 1483SOL     vw 5932   2.061   3.978   4.958  0.1502  0.2050  0.5078
 1484SOL     ow 5933   4.681   2.360   3.087  0.6460 -0.4638  0.0270
 1484SOL     hw 5934   4.613   2.345   3.152  0.5947  1.4186  0.4729
 1484SOL     hw 5935   4.709   2.272   3.060 -1.1286 -1.2748  0.6759
 1484SOL     vw 5936   4.676   2.346   3.092  0.4051 -0.3225  0.1713
 1485SOL     ow 5937   2.733   4.631   4.450  0.1363 -1.2818 -0.0854
 1485SOL     hw 5938   2.713   4.628   4.356  0.7873 -2.1904 -0.2155
 1485SOL     hw 5939   2.743   4.539   4.475 -0.9539 -1.1213  1.0997
 1485SOL     vw 5940   2.731   4.618   4.441  0.0784 -1.3804  0.0539
 1486SOL     ow 5941   5.701   4.957   2.949  0.0376  0.1675  0.7422
 1486SOL     hw 5942   5.718   5.039   2.904  0.1389  0.5056  1.3915
 1486SOL     hw 5943   5.623   4.974   3.002  0.8964  0.3059  2.0026
 1486SOL     vw 5944   5.693   4.970   2.950  0.1643  0.2306  0.9940
 1487SOL     ow 5945   0.162   6.421   7.071 -0.0632 -0.3100 -0.0468
 1487SOL     hw 5946   0.170   6.403   6.977 -1.6982 -0.8456 -0.1179
 1487SOL     hw 5947   0.197   6.344   7.114 -0.1346 -0.4480 -0.2351
 1487SOL     vw 5948   0.168   6.409   7.064 -0.2883 -0.3991 -0.0811
 1488SOL     ow 5949   6.800   4.738   1.683  0.1368  0.3078  0.1735
 1488SOL     hw 5950   6.732   4.792   1.643  1.6011  1.4289 -0.9755
 1488SOL     hw 5951   6.777   4.734   1.775 -1.6634  0.3283 -0.2480
 1488SOL     vw 5952   6.788   4.745   1.690  0.0925  0.4582 -0.0337
 1489SOL     ow 5953   1.934   5.396   3.720 -0.0363 -0.3084  0.7186
 1489SOL     hw 5954   1.943   5.380   3.814 -2.7386  2.2376  1.5598
 1489SOL     hw 5955   2.014   5.444   3.696 -1.0475  2.6664  2.7802
 1489SOL     vw 5956   1.946   5.400   3.729 -0.5262  0.4201  1.1015
 1490SOL     ow 5957   0.973   5.079   2.904 -0.9452 -0.0605 -0.1741
 1490SOL     hw 5958   1.068   5.074   2.893 -0.7239  3.0965 -0.5962
 1490SOL     hw 5959   0.938   5.049   2.820 -0.1761  1.2009 -0.9766
 1490SOL     vw 5960   0.981   5.074   2.891 -0.8145  0.5224 -0.3357
 1491SOL     ow 5961   2.466   5.669   2.516  0.1412  0.4836 -0.2155
 1491SOL     hw 5962   2.560   5.666   2.498 -0.2502 -0.9594 -2.3891
 1491SOL     hw 5963   2.460   5.707   2.604  2.6810  1.5913 -0.4146
 1491SOL     vw 5964   2.478   5.674   2.525  0.4246  0.4394 -0.5287
 1492SOL     ow 5965   1.079   2.605   5.006  0.5714  0.2579  0.5582
 1492SOL     hw 5966   1.163   2.574   5.040  1.2913 -0.3751 -1.6104
 1492SOL     hw 5967   1.016   2.584   5.075  1.9989 -0.4328  1.7106
 1492SOL     vw 5968   1.082   2.598   5.020  0.8547  0.0833  0.4239
 1493SOL     ow 5969   6.897   5.486   5.503  0.4744  0.1570 -0.6215
 1493SOL     hw 5970   6.921   5.437   5.582  2.6842 -0.0610 -1.3467
 1493SOL     hw 5971   6.951   5.565   5.507 -0.7055  1.0165 -1.0619
 1493SOL     vw 5972   6.907   5.490   5.514  0.6104  0.2418 -0.7751
 1494SOL     ow 5973   4.939   4.208   2.390  0.2791 -0.3386 -0.0010
 1494SOL     hw 5974   4.974   4.159   2.465  0.8325  1.6495  1.1410
 1494SOL     hw 5975   4.874   4.150   2.351  1.5756 -2.3226  0.6576
 1494SOL     vw 5976   4.935   4.194   2.395  0.5233 -0.3383  0.2366
 1495SOL     ow 5977   3.741   4.324   2.446 -0.4739 -0.1281  0.2832
 1495SOL     hw 5978   3.793   4.283   2.377  0.5605  0.4346  0.7144
 1495SOL     hw 5979   3.655   4.338   2.406 -0.4148 -1.3719 -0.3340
 1495SOL     vw 5980   3.737   4.320   2.432 -0.3297 -0.2177  0.2587
 1496SOL     ow 5981   3.671   4.522   1.987  0.6166  0.0016 -0.3440
 1496SOL     hw 5982   3.757   4.560   1.998  1.2390 -1.1274 -1.0852
 1496SOL     hw 5983   3.612   4.597   1.978  1.2793  0.8131  1.6320
 1496SOL     vw 5984   3.674   4.537   1.987  0.7861 -0.0403 -0.1811
 1497SOL     ow 5985   5.971   4.397   2.536 -0.2013  0.5629 -0.2418
 1497SOL     hw 5986   5.887   4.364   2.503 -0.5075 -0.9150  1.8572
 1497SOL     hw 5987   6.037   4.345   2.491 -0.5426 -0.2830  0.2252
 1497SOL     vw 5988   5.969   4.386   2.526 -0.2866  0.2561  0.0968
 1498SOL     ow 5989   7.164   4.159   3.620 -0.1297 -0.0438 -0.4733
 1498SOL     hw 5990   7.090   4.099   3.624 -2.8853  3.1350  1.3138
 1498SOL     hw 5991   7.195   4.166   3.710  0.5869  0.7125 -0.7631
 1498SOL     vw 5992   7.159   4.152   3.632 -0.3989  0.4752 -0.2757
 1499SOL     ow 5993   6.480   1.784   0.759 -0.2986  0.1813  0.3925
 1499SOL     hw 5994   6.430   1.704   0.775 -0.8542  0.7429  1.6124
 1499SOL     hw 5995   6.566   1.767   0.796 -0.6694  0.4217  1.3902
 1499SOL     vw 5996   6.485   1.772   0.766 -0.4210  0.2871  0.6851
 1500SOL     ow 5997   3.072   5.021   6.767 -0.1974  0.8954  0.5406
 1500SOL     hw 5998   3.058   5.020   6.862 -0.4625 -0.1821  0.5046
 1500SOL     hw 5999   3.032   5.102   6.737 -3.2520 -0.3535  0.9039
 1500SOL     vw 6000   3.065   5.031   6.776 -0.6354  0.5884  0.5839
 1501SOL     ow 6001   6.278   1.112   7.063  0.0030 -0.6688  0.2394
 1501SOL     hw 6002   6.241   1.044   7.006  1.0609 -1.0654 -0.0072
 1501SOL     hw 6003   6.202   1.157   7.099 -0.7248 -0.2750 -1.6295
 1501SOL     vw 6004   6.264   1.109   7.060  0.0470 -0.6691 -0.0396
 1502SOL     ow 6005   1.617   2.632   4.128 -0.1327  0.2971 -0.4792
 1502SOL     hw 6006   1.579   2.707   4.082 -0.4271  2.0728  2.3987
 1502SOL     hw 6007   1.712   2.648   4.126 -0.0659 -0.1506 -1.2507
 1502SOL     vw 6008   1.625   2.644   4.121 -0.1627  0.4723 -0.2012
 1503SOL     ow 6009   2.286   4.148   0.371  0.6193  0.4009  0.1203
 1503SOL     hw 6010   2.357   4.212   0.376  0.1016  1.0201 -0.3297
 1503SOL     hw 6011   2.308   4.093   0.296  1.1253 -0.0314  0.5780
 1503SOL     vw 6012   2.298   4.149   0.362  0.6177  0.4253  0.1214
 1504SOL     ow 6013   5.056   5.468   4.746  0.0928  0.5761 -0.1645
 1504SOL     hw 6014   4.987   5.458   4.681  0.8000  1.4366 -1.0637
 1504SOL     hw 6015   5.135   5.434   4.704  0.4619  0.6677  0.4289
 1504SOL     vw 6016   5.058   5.462   4.732  0.2346  0.7014 -0.2048
 1505SOL     ow 6017   1.041   1.396   2.086  0.5527  0.2466 -0.0017
 1505SOL     hw 6018   0.977   1.350   2.141  0.8215 -0.9724 -0.6767
 1505SOL     hw 6019   0.997   1.478   2.063 -0.5201 -0.2884  0.0637
 1505SOL     vw 6020   1.026   1.400   2.090  0.4466  0.0152 -0.0820
 1506SOL     ow 6021   2.803   2.713   6.759  0.1120 -1.1100  0.0704
 1506SOL     hw 6022   2.836   2.742   6.674 -0.0078 -2.3051 -0.4143
 1506SOL     hw 6023   2.871   2.739   6.822 -0.3713  0.8859 -0.1849
 1506SOL     vw 6024   2.816   2.720   6.756  0.0323 -1.0043 -0.0274
 1507SOL     ow 6025   2.929   5.901   7.191 -0.0914 -0.8866  0.1191
 1507SOL     hw 6026   2.848   5.894   7.241  0.3160 -0.8060  0.8134
 1507SOL     hw 6027   2.981   5.965   7.239  0.7612 -1.6349  0.2373
 1507SOL     vw 6028   2.925   5.908   7.204  0.0747 -0.9747  0.2263
 1508SOL     ow 6029   1.136   2.922   6.746 -0.5321  0.0008  0.4797
 1508SOL     hw 6030   1.116   3.012   6.720 -0.2594 -0.0048  0.2477
 1508SOL     hw 6031   1.226   2.926   6.780 -0.7073 -0.0857  0.9561
 1508SOL     vw 6032   1.146   2.935   6.747 -0.5192 -0.0114  0.5119
 1509SOL     ow 6033   1.111   3.066   1.100 -0.8591  0.0396  0.3445
 1509SOL     hw 6034   1.111   3.055   1.005 -1.3461 -1.4226  0.4785
 1509SOL     hw 6035   1.045   3.134   1.116 -0.8414  0.2320 -0.3577
 1509SOL     vw 6036   1.102   3.074   1.090 -0.9210 -0.1279  0.2695
 1510SOL     ow 6037   5.331   4.152   6.865 -0.0378 -1.0011  0.5297
 1510SOL     hw 6038   5.315   4.245   6.880  2.4312 -0.2527 -1.0287
 1510SOL     hw 6039   5.286   4.132   6.783 -2.0142 -1.7116  1.6892
 1510SOL     vw 6040   5.323   4.161   6.856  0.0272 -0.9961  0.4768
 1511SOL     ow 6041   4.172   6.699   4.253  0.5157  0.7513  0.6690
 1511SOL     hw 6042   4.145   6.672   4.340 -0.1414 -0.3174  0.1519
 1511SOL     hw 6043   4.091   6.720   4.208  0.8531  1.3584  0.3283
 1511SOL     vw 6044   4.158   6.698   4.258  0.4737  0.6905  0.5558
 1512SOL     ow 6045   7.268   6.723   3.359 -0.0713 -0.0066  0.5422
 1512SOL     hw 6046   7.361   6.706   3.342 -0.4480 -0.5804 -1.2016
 1512SOL     hw 6047   7.252   6.687   3.446  0.5278 -3.4274 -0.6249
 1512SOL     vw 6048   7.278   6.716   3.368 -0.0420 -0.5333  0.1581
 1513SOL     ow 6049   1.806   5.421   3.313  0.1475  0.2304  0.4930
 1513SOL     hw 6050   1.757   5.388   3.238 -2.4469 -0.4683  2.3251
 1513SOL     hw 6051   1.888   5.371   3.313 -0.2013 -0.3995 -1.3126
 1513SOL     vw 6052   1.810   5.410   3.303 -0.2407  0.0551  0.4966
 1514SOL     ow 6053   2.884   2.802   4.404  0.5430 -0.3809  0.1184
 1514SOL     hw 6054   2.896   2.895   4.387 -1.6832 -0.1688 -0.6061
 1514SOL     hw 6055   2.883   2.794   4.500  2.9450 -0.0617  0.2449
 1514SOL     vw 6056   2.886   2.813   4.414  0.5662 -0.3109  0.0396
 1515SOL     ow 6057   2.236   7.110   2.161 -0.5403 -0.3485 -0.3030
 1515SOL     hw 6058   2.164   7.122   2.099  0.5363  0.4036 -1.4744
 1515SOL     hw 6059   2.235   7.016   2.181 -0.5758 -0.7290 -1.9222
 1515SOL     vw 6060   2.226   7.099   2.156 -0.4030 -0.2995 -0.6711
 1516SOL     ow 6061   5.004   3.178   1.276  0.0584  0.0227 -0.8222
 1516SOL     hw 6062   4.931   3.222   1.319  0.0956 -0.4118 -0.2914
 1516SOL     hw 6063   5.007   3.092   1.318  1.2262  0.2372 -0.4341
 1516SOL     vw 6064   4.995   3.172   1.287  0.2177 -0.0063 -0.7010
 1517SOL     ow 6065   5.678   4.538   6.892  0.0539  0.4886 -0.1927
 1517SOL     hw 6066   5.646   4.448   6.887  0.5127  0.3374 -0.4110
 1517SOL     hw 6067   5.741   4.546   6.820  1.3216  0.4673  0.8811
 1517SOL     vw 6068   5.682   4.527   6.882  0.2818  0.4659 -0.0799
 1518SOL     ow 6069   4.049   3.221   1.955  0.1397  0.0587  0.1745
 1518SOL     hw 6070   4.068   3.242   1.864  2.5354 -0.8885  0.3791
 1518SOL     hw 6071   4.108   3.278   2.005  0.3327 -0.8698  1.0353
 1518SOL     vw 6072   4.060   3.232   1.950  0.4809 -0.1887  0.3151
 1519SOL     ow 6073   3.415   4.371   1.982  0.1778 -0.1192 -0.3602
 1519SOL     hw 6074   3.388   4.451   2.028 -1.3027  1.2608 -3.3777
 1519SOL     hw 6075   3.371   4.300   2.030  2.0259  0.6416  2.7768
 1519SOL     vw 6076   3.406   4.372   1.995  0.2264  0.1633 -0.3445
 1520SOL     ow 6077   4.913   4.356   0.987  0.8637 -0.0296 -0.4529
 1520SOL     hw 6078   4.965   4.285   1.025  1.2727 -1.2110 -3.0363
 1520SOL     hw 6079   4.825   4.343   1.023  1.4014 -0.4989  0.7689
 1520SOL     vw 6080   4.909   4.345   0.997  0.9890 -0.2472 -0.6326
 1521SOL     ow 6081   2.639   1.054   0.974  0.1751  0.3689 -0.0185
 1521SOL     hw 6082   2.726   1.079   0.941  0.0691  1.9301  0.8012
 1521SOL     hw 6083   2.579   1.117   0.936 -0.3088  0.5787  1.0595
 1521SOL     vw 6084   2.643   1.065   0.965  0.0973  0.6027  0.2319
 1522SOL     ow 6085   2.599   1.899   0.562 -0.0024 -0.1027  0.4833
 1522SOL     hw 6086   2.551   1.970   0.605  0.5613  0.8827 -0.4733
 1522SOL     hw 6087   2.563   1.819   0.601 -0.4673  0.7014  1.7747
 1522SOL     vw 6088   2.588   1.898   0.573  0.0106  0.1334  0.5275
 1523SOL     ow 6089   5.033   1.677   5.552  0.3716 -0.4809  0.9194
 1523SOL     hw 6090   4.955   1.702   5.602  0.4762 -0.0097  0.8568
 1523SOL     hw 6091   5.004   1.605   5.497 -1.3796  2.6143 -2.6266
 1523SOL     vw 6092   5.019   1.671   5.552  0.1543 -0.0104  0.4430
 1524SOL     ow 6093   1.372   2.605   6.595  0.3500  0.6109 -1.0961
 1524SOL     hw 6094   1.319   2.532   6.626 -0.5261  1.5897 -0.1775
 1524SOL     hw 6095   1.309   2.674   6.575  1.1526  1.1369 -1.8933
 1524SOL     vw 6096   1.357   2.605   6.597  0.3403  0.8093 -1.0800
 1525SOL     ow 6097   2.198   4.357   5.926 -0.6490  0.4857  0.2907
 1525SOL     hw 6098   2.196   4.451   5.908 -3.9799  0.0808 -2.8083
 1525SOL     hw 6099   2.235   4.318   5.846  1.1742 -0.8847  1.7264
 1525SOL     vw 6100   2.203   4.364   5.913 -0.8481  0.2513  0.0713
 1526SOL     ow 6101   7.328   0.379   3.282  0.4519  0.2039  0.0198
 1526SOL     hw 6102   7.337   0.446   3.350 -1.3063 -0.1178  0.6029
 1526SOL     hw 6103   7.341   0.296   3.328  1.4196  0.0662 -0.4757
 1526SOL     vw 6104   7.331   0.377   3.297  0.3476  0.1433  0.0314
 1527SOL     ow 6105   2.680   3.490   1.818 -0.2385 -0.9794 -0.1585
 1527SOL     hw 6106   2.625   3.567   1.805 -1.8421 -2.0699 -0.1475
 1527SOL     hw 6107   2.688   3.451   1.731 -0.1209 -1.2322 -0.0369
 1527SOL     vw 6108   2.674   3.495   1.805 -0.4346 -1.1567 -0.1410
 1528SOL     ow 6109   1.821   5.211   3.525  0.2747  0.0248 -0.0338
 1528SOL     hw 6110   1.783   5.279   3.470  2.0993  0.6414 -0.6136
 1528SOL     hw 6111   1.843   5.256   3.606  2.3899  0.4469 -0.7732
 1528SOL     vw 6112   1.819   5.226   3.528  0.7945  0.1619 -0.2080
 1529SOL     ow 6113   1.040   7.242   7.216 -0.3524  0.7496  0.7293
 1529SOL     hw 6114   0.986   7.166   7.236  0.1071 -0.3439 -1.8905
 1529SOL     hw 6115   1.118   7.231   7.272 -0.8200 -0.0338  1.2511
 1529SOL     vw 6116   1.043   7.231   7.226 -0.3535  0.5016  0.4525
 1530SOL     ow 6117   7.102   7.014   2.918 -0.8839  0.2544 -0.5405
 1530SOL     hw 6118   7.090   7.099   2.876 -0.5270  0.0661 -1.0321
 1530SOL     hw 6119   7.014   6.975   2.918 -1.0224  0.5618 -0.4406
 1530SOL     vw 6120   7.088   7.020   2.913 -0.8552  0.2701 -0.5922
 1531SOL     ow 6121   5.645   1.350   3.046  0.0759 -0.1771  0.2576
 1531SOL     hw 6122   5.624   1.261   3.074 -0.8254  0.5479  1.9734
 1531SOL     hw 6123   5.571   1.403   3.075  0.4078  1.0888 -1.1034
 1531SOL     vw 6124   5.633   1.345   3.053  0.0005  0.0856  0.3045
 1532SOL     ow 6125   1.662   3.441   0.264  0.3023 -0.0347 -0.1323
 1532SOL     hw 6126   1.637   3.532   0.282 -3.0222 -0.9950  0.7854
 1532SOL     hw 6127   1.678   3.438   0.170 -0.3964  1.3278 -0.3135
 1532SOL     vw 6128   1.661   3.453   0.254 -0.2286  0.0184 -0.0351
 1533SOL     ow 6129   6.668   2.141   2.829 -0.1447  0.2398  0.3851
 1533SOL     hw 6130   6.579   2.113   2.849 -0.4062  0.6670 -0.1758
 1533SOL     hw 6131   6.709   2.063   2.790 -1.0410  0.7461 -1.7015
 1533SOL     vw 6132   6.662   2.127   2.827 -0.2978  0.3630  0.0359
 1534SOL     ow 6133   0.677   5.185   0.851 -0.0670 -0.0733 -0.0307
 1534SOL     hw 6134   0.692   5.091   0.860  0.5238 -0.3539 -2.9083
 1534SOL     hw 6135   0.583   5.195   0.863 -0.1616 -1.0617  0.1887
 1534SOL     vw 6136   0.666   5.174   0.854 -0.0015 -0.2408 -0.3814
 1535SOL     ow 6137   7.091   6.803   0.358 -0.6026  0.2770 -0.2146
 1535SOL     hw 6138   7.021   6.770   0.414  0.0371 -0.0013  0.4483
 1535SOL     hw 6139   7.161   6.827   0.419  1.1363 -2.4437 -0.9593
 1535SOL     vw 6140   7.091   6.802   0.374 -0.2887 -0.1185 -0.2254
 1536SOL     ow 6141   4.879   2.617   1.438  0.3952 -0.3657 -0.4618
 1536SOL     hw 6142   4.812   2.650   1.498  1.0676 -0.8469  0.5790
 1536SOL     hw 6143   4.848   2.644   1.351 -0.7550  0.0751  0.0571
 1536SOL     vw 6144   4.866   2.625   1.435  0.3321 -0.3711 -0.2560
 1537SOL     ow 6145   1.456   4.757   3.453 -0.1202 -0.2582 -0.1395
 1537SOL     hw 6146   1.458   4.662   3.450  0.0916 -0.2496 -0.3091
 1537SOL     hw 6147   1.373   4.778   3.497 -0.0365 -0.5201  0.1462
 1537SOL     vw 6148   1.445   4.748   3.458 -0.0812 -0.2916 -0.1242
 1538SOL     ow 6149   2.923   1.044   2.038 -0.2696  0.6522  0.2963
 1538SOL     hw 6150   2.887   1.131   2.018 -0.5012  0.1127 -1.9379
 1538SOL     hw 6151   3.018   1.056   2.039 -0.2124  0.7070 -1.5965
 1538SOL     vw 6152   2.931   1.057   2.035 -0.2927  0.5883 -0.2482
 1539SOL     ow 6153   3.862   7.001   4.179 -0.3439 -0.6709 -0.4404
 1539SOL     hw 6154   3.797   7.044   4.234 -1.7044  0.4003 -2.7306
 1539SOL     hw 6155   3.934   7.064   4.173 -0.6646 -0.3222 -0.7140
 1539SOL     vw 6156   3.863   7.015   4.185 -0.5658 -0.4835 -0.7784
 1540SOL     ow 6157   0.815   4.083   3.553 -0.1124  0.2389  0.2462
 1540SOL     hw 6158   0.744   4.063   3.615  0.0932  1.0644  0.7630
 1540SOL     hw 6159   0.866   4.151   3.597  2.0599 -1.5676  0.6633
 1540SOL     vw 6160   0.812   4.089   3.567  0.2013  0.1094  0.3693
 1541SOL     ow 6161   3.954   1.300   0.071  0.1388  0.6166  0.0126
 1541SOL     hw 6162   3.983   1.298   0.162  1.2529 -1.6261 -0.3066
 1541SOL     hw 6163   3.890   1.229   0.065 -1.4753  2.0524 -0.5435
 1541SOL     vw 6164   3.949   1.290   0.082  0.0728  0.5102 -0.1029
 1542SOL     ow 6165   1.783   1.037   2.458 -0.0792 -0.4224 -0.0853
 1542SOL     hw 6166   1.787   1.132   2.464 -2.2132 -0.0342 -2.8754
 1542SOL     hw 6167   1.814   1.016   2.369 -1.9731 -2.0486 -0.4390
 1542SOL     vw 6168   1.788   1.047   2.447 -0.6107 -0.5857 -0.5001
 1543SOL     ow 6169   3.554   2.135   7.083 -0.2533  0.1436 -0.5116
 1543SOL     hw 6170   3.590   2.121   7.170 -3.5621  0.5458  1.0803
 1543SOL     hw 6171   3.573   2.226   7.063 -0.5867  0.4214  0.3915
 1543SOL     vw 6172   3.561   2.145   7.092 -0.7339  0.2334 -0.1824
 1544SOL     ow 6173   5.666   4.823   6.985 -0.7070 -0.3399 -0.3151
 1544SOL     hw 6174   5.713   4.799   6.905 -0.9783  1.1395 -0.9515
 1544SOL     hw 6175   5.677   4.918   6.992  0.7423 -0.6308  2.3493
 1544SOL     vw 6176   5.673   4.833   6.975 -0.5515 -0.1829 -0.0474
 1545SOL     ow 6177   1.410   5.294   1.512  0.2771 -0.0937  0.3588
 1545SOL     hw 6178   1.421   5.334   1.598  1.1714  0.0799  0.1735
 1545SOL     hw 6179   1.487   5.321   1.463  1.8006 -3.3230  0.7154
 1545SOL     vw 6180   1.422   5.303   1.517  0.5961 -0.4971  0.3815
 1546SOL     ow 6181   5.231   4.270   3.271  0.0499 -0.0820  0.0427
 1546SOL     hw 6182   5.298   4.226   3.322 -0.5446 -0.8338  0.1946
 1546SOL     hw 6183   5.150   4.225   3.294 -0.4855  0.7023 -0.2610
 1546SOL     vw 6184   5.229   4.259   3.281 -0.0994 -0.0780  0.0226
 1547SOL     ow 6185   3.950   4.794   7.341  0.7561 -0.1128 -0.3545
 1547SOL     hw 6186   3.979   4.836   7.260 -0.3930  2.1813  0.3200
 1547SOL     hw 6187   3.872   4.745   7.316 -0.5127  1.8370 -0.4488
 1547SOL     vw 6188   3.944   4.793   7.327  0.4371  0.4470 -0.2782
 1548SOL     ow 6189   0.413   7.031   5.539 -0.6266 -0.6852  0.2557
 1548SOL     hw 6190   0.372   7.093   5.479 -0.7500 -0.4041  0.6199
 1548SOL     hw 6191   0.424   6.951   5.488  0.3591 -0.1004 -0.4958
 1548SOL     vw 6192   0.409   7.028   5.525 -0.5128 -0.5708  0.2046
 1549SOL     ow 6193   7.230   2.359   2.550 -0.4006  0.6454 -0.4683
 1549SOL     hw 6194   7.195   2.270   2.551  0.8394  0.1341  0.2436
 1549SOL     hw 6195   7.248   2.379   2.641 -1.8059  2.1366 -0.4837
 1549SOL     vw 6196   7.228   2.350   2.562 -0.4225  0.7747 -0.3763
 1550SOL     ow 6197   6.577   6.932   4.059 -0.2281 -0.6691  0.8326
 1550SOL     hw 6198   6.561   7.024   4.037  1.0703 -0.8878 -1.3009
 1550SOL     hw 6199   6.669   6.928   4.084 -0.1702 -1.4391  0.5319
 1550SOL     vw 6200   6.587   6.943   4.060 -0.0494 -0.7994  0.5114
 1551SOL     ow 6201   0.864   2.956   4.233  0.4289 -0.0297  0.6602
 1551SOL     hw 6202   0.810   2.935   4.157 -1.4496  1.2543  1.5495
 1551SOL     hw 6203   0.895   3.045   4.217 -0.6535  0.5725  1.6928
 1551SOL     vw 6204   0.861   2.965   4.221  0.0382  0.2193  0.9139
 1552SOL     ow 6205   3.007   3.354   2.251  0.2671  1.1214  0.0081
 1552SOL     hw 6206   3.019   3.283   2.188  3.1363 -0.7135  2.3299
 1552SOL     hw 6207   2.936   3.324   2.308  0.8151  0.5305  0.3952
 1552SOL     vw 6208   2.999   3.341   2.250  0.7180  0.8012  0.3655
 1553SOL     ow 6209   2.419   7.311   2.057 -0.2408  0.5588 -0.2682
 1553SOL     hw 6210   2.478   7.245   2.021 -0.4344  0.3981 -0.2918
 1553SOL     hw 6211   2.373   7.346   1.981 -1.3529 -0.4607 -0.0954
 1553SOL     vw 6212   2.421   7.307   2.042 -0.4132  0.4031 -0.2484
 1554SOL     ow 6213   3.105   7.101   3.965  0.0636  0.6510  0.6172
 1554SOL     hw 6214   3.108   7.058   4.050 -0.2444  0.1607  0.3828
 1554SOL     hw 6215   3.012   7.097   3.939  0.5583 -1.9295 -1.1151
 1554SOL     vw 6216   3.093   7.095   3.973  0.0882  0.2458  0.3577
 1555SOL     ow 6217   0.247   5.393   4.892 -0.8358 -0.5159  0.4810
 1555SOL     hw 6218   0.210   5.307   4.909 -1.2524  0.0846  3.0275
 1555SOL     hw 6219   0.317   5.403   4.955 -0.0320  0.5946 -0.5300
 1555SOL     vw 6220   0.251   5.383   4.902 -0.7847 -0.2902  0.6835
 1556SOL     ow 6221   3.023   7.328   3.395 -0.4772  0.1095 -0.1613
 1556SOL     hw 6222   3.073   7.254   3.429 -1.1822  0.2342  1.2252
 1556SOL     hw 6223   3.018   7.313   3.300  1.5175 -0.2866 -0.2490
 1556SOL     vw 6224   3.029   7.316   3.387 -0.3070  0.0737  0.0099
 1557SOL     ow 6225   2.052   4.886   1.446  0.1117 -0.7687 -0.4330
 1557SOL     hw 6226   2.002   4.847   1.374  1.4404 -2.4297 -0.5085
 1557SOL     hw 6227   2.026   4.836   1.523  0.7040 -0.7915 -0.2478
 1557SOL     vw 6228   2.042   4.875   1.446  0.3651 -0.9911 -0.4185
 1558SOL     ow 6229   4.265   4.668   3.667  0.1426 -0.0603 -0.3058
 1558SOL     hw 6230   4.329   4.727   3.626  0.5846  0.0371  0.5103
 1558SOL     hw 6231   4.295   4.659   3.757 -1.2031  0.2806  0.2015
 1558SOL     vw 6232   4.277   4.675   3.673  0.0234 -0.0024 -0.1311
 1559SOL     ow 6233   0.471   5.574   1.284  0.0088 -0.4079  0.3598
 1559SOL     hw 6234   0.505   5.508   1.345  0.5467 -0.0142  0.4923
 1559SOL     hw 6235   0.376   5.559   1.285 -0.0160 -0.3045  1.4281
 1559SOL     vw 6236   0.463   5.563   1.292  0.0765 -0.3424  0.5181
 1560SOL     ow 6237   0.490   5.572   2.555 -0.4590  0.0666  0.0339
 1560SOL     hw 6238   0.509   5.537   2.643  0.4381  2.3484  0.8296
 1560SOL     hw 6239   0.394   5.566   2.547 -0.3908 -2.0676  0.2716
 1560SOL     vw 6240   0.480   5.566   2.566 -0.3316  0.0861  0.1702
 1561SOL     ow 6241   2.485   5.575   5.548  0.1549 -0.4599 -0.8382
 1561SOL     hw 6242   2.576   5.599   5.526  0.0680 -0.5886 -1.3565
 1561SOL     hw 6243   2.437   5.657   5.540  0.3678 -0.2133  0.2712
 1561SOL     vw 6244   2.491   5.589   5.544  0.1715 -0.4444 -0.7606
 1562SOL     ow 6245   0.781   1.214   4.386 -0.3806  0.2287 -0.5299
 1562SOL     hw 6246   0.748   1.129   4.355 -0.8411  0.9237 -2.0640
 1562SOL     hw 6247   0.705   1.257   4.424  0.5862 -1.4968  4.0104
 1562SOL     vw 6248   0.767   1.208   4.387 -0.3138  0.0928 -0.1335
 1563SOL     ow 6249   6.585   3.090   6.968 -0.0804 -0.0026 -0.5354
 1563SOL     hw 6250   6.537   3.171   6.986 -1.2066 -0.9549  0.9782
 1563SOL     hw 6251   6.666   3.099   7.018 -0.4292  0.0036  0.0432
 1563SOL     vw 6252   6.590   3.102   6.977 -0.2751 -0.1274 -0.2594
 1564SOL     ow 6253   1.116   5.910   7.351 -0.2707  0.2697 -0.0668
 1564SOL     hw 6254   1.142   5.888   7.262  3.4397 -1.1233  1.1438
 1564SOL     hw 6255   1.088   5.827   7.389 -0.9286  0.6687  0.3363
 1564SOL     vw 6256   1.116   5.896   7.345  0.1321  0.1385  0.1459
 1565SOL     ow 6257   0.774   6.091   5.492  0.7339  0.2902 -0.4399
 1565SOL     hw 6258   0.865   6.074   5.465  0.0550 -1.4012 -1.8847
 1565SOL     hw 6259   0.742   6.154   5.427  0.9247  1.1217  0.2481
 1565SOL     vw 6260   0.782   6.097   5.480  0.6695  0.1769 -0.5395
 1566SOL     ow 6261   5.246   7.346   3.875 -0.1919  0.8290  0.5946
 1566SOL     hw 6262   5.294   7.265   3.889  0.9344  1.2132 -0.7952
 1566SOL     hw 6263   5.304   7.399   3.821 -1.8607  1.6582 -0.4579
 1566SOL     vw 6264   5.260   7.343   3.870 -0.2637  0.9887  0.2725
 1567SOL     ow 6265   6.209   3.734   6.265 -0.7768  0.5071  0.2017
 1567SOL     hw 6266   6.172   3.781   6.339 -2.0997  1.9095 -1.2913
 1567SOL     hw 6267   6.223   3.801   6.198  0.7637 -0.6530 -0.7063
 1567SOL     vw 6268   6.206   3.749   6.266 -0.7479  0.5391 -0.1152
 1568SOL     ow 6269   7.014   5.738   4.296 -0.2399 -0.5001 -0.1401
 1568SOL     hw 6270   7.047   5.801   4.232 -1.0141 -0.7401 -0.7964
 1568SOL     hw 6271   7.092   5.692   4.328  0.7832  2.7827  2.6320
 1568SOL     vw 6272   7.029   5.740   4.292 -0.2072 -0.0987  0.1390
 1569SOL     ow 6273   0.601   6.667   6.989  0.3275 -0.2601  0.2419
 1569SOL     hw 6274   0.528   6.707   7.037  1.5367  0.4595  1.5553
 1569SOL     hw 6275   0.623   6.731   6.922  1.4811  0.8268  1.5837
 1569SOL     vw 6276   0.594   6.681   6.987  0.6393 -0.0215  0.5920
 1570SOL     ow 6277   7.200   5.111   5.241 -0.2241  0.2894  0.2378
 1570SOL     hw 6278   7.198   5.039   5.303  0.5634 -0.0918 -0.1716
 1570SOL     hw 6279   7.237   5.074   5.161  1.8915  1.5351  0.5498
 1570SOL     vw 6280   7.204   5.097   5.239  0.1590  0.4036  0.2248
 1571SOL     ow 6281   2.695   6.314   5.192 -0.1096 -0.2362  0.4518
 1571SOL     hw 6282   2.759   6.245   5.180 -0.9381 -0.9411 -0.0141
 1571SOL     hw 6283   2.688   6.325   5.287 -0.8609 -1.6542  0.5812
 1571SOL     vw 6284   2.702   6.307   5.203 -0.3182 -0.5167  0.4075
 1572SOL     ow 6285   4.558   6.856   4.791 -0.2270  0.6366 -0.1675
 1572SOL     hw 6286   4.617   6.784   4.770  0.6891  0.9760  1.1323
 1572SOL     hw 6287   4.510   6.872   4.710 -0.3632 -1.3323 -0.5102
 1572SOL     vw 6288   4.559   6.849   4.777 -0.1237  0.4213 -0.0410
 1573SOL     ow 6289   5.787   0.507   6.205  0.3319 -0.1669  0.4211
 1573SOL     hw 6290   5.862   0.565   6.220  1.2270 -1.2568  0.3580
 1573SOL     hw 6291   5.804   0.468   6.120 -0.5202 -0.1385  0.2304
 1573SOL     vw 6292   5.799   0.509   6.196  0.3378 -0.3069  0.3874
 1574SOL     ow 6293   5.020   3.127   5.470  0.5525 -0.7809 -0.1802
 1574SOL     hw 6294   4.971   3.050   5.440  1.8007 -1.2941 -1.0231
 1574SOL     hw 6295   5.100   3.127   5.416  0.2450  1.5576 -0.7446
 1574SOL     vw 6296   5.024   3.117   5.459  0.6766 -0.5401 -0.3660
 1575SOL     ow 6297   0.521   5.503   3.574  0.4210 -0.7750 -0.2404
 1575SOL     hw 6298   0.576   5.429   3.548  1.6469  0.5832 -1.6992
 1575SOL     hw 6299   0.470   5.524   3.496 -0.3310 -0.4363  0.3367
 1575SOL     vw 6300   0.522   5.496   3.560  0.4835 -0.5510 -0.3567
 1576SOL     ow 6301   0.512   2.862   2.654 -0.2304  0.7337 -0.0226
 1576SOL     hw 6302   0.547   2.887   2.568 -2.2247  1.8327 -0.5600
 1576SOL     hw 6303   0.489   2.944   2.696 -1.8824  0.0901  0.4030
 1576SOL     vw 6304   0.514   2.876   2.648 -0.7114  0.7937 -0.0374
 1577SOL     ow 6305   7.118   2.556   6.755  0.0271  0.0927 -0.2102
 1577SOL     hw 6306   7.178   2.626   6.729 -0.0562 -0.1823 -1.1956
 1577SOL     hw 6307   7.048   2.602   6.802  0.2695  0.6022 -0.3342
 1577SOL     vw 6308   7.117   2.571   6.758  0.0479  0.1236 -0.3569
 1578SOL     ow 6309   5.618   1.241   1.671  0.5559 -0.2910  0.4900
 1578SOL     hw 6310   5.546   1.189   1.706  0.3434  0.6786  1.5613
 1578SOL     hw 6311   5.695   1.212   1.720  0.6423 -0.3834  0.2995
 1578SOL     vw 6312   5.619   1.231   1.682  0.5393 -0.1752  0.6062
 1579SOL     ow 6313   0.921   0.810   3.747 -0.2178 -0.0105  0.4899
 1579SOL     hw 6314   0.843   0.856   3.777 -0.5508  0.2340 -0.7096
 1579SOL     hw 6315   0.888   0.736   3.696  0.3247  0.3029 -0.3339
 1579SOL     vw 6316   0.906   0.806   3.745 -0.1902  0.0631  0.2229
 1580SOL     ow 6317   7.272   0.507   0.972  0.0278  0.0236  0.4090
 1580SOL     hw 6318   7.190   0.507   1.022  0.0248 -3.3394  0.6395
 1580SOL     hw 6319   7.250   0.552   0.890 -1.1732  1.7746  1.6289
 1580SOL     vw 6320   7.258   0.513   0.968 -0.1311 -0.1891  0.6004
 1581SOL     ow 6321   4.124   1.005   5.292 -0.5252 -0.6320 -0.3188
 1581SOL     hw 6322   4.037   1.023   5.256 -1.3090 -0.6956  1.4202
 1581SOL     hw 6323   4.172   1.087   5.280 -1.5904  0.1828  0.7495
 1581SOL     vw 6324   4.119   1.018   5.286 -0.7691 -0.5329  0.0515
 1582SOL     ow 6325   2.570   7.170   2.282  0.0446 -0.1645  0.3190
 1582SOL     hw 6326   2.606   7.097   2.331  0.7432  0.4349  0.7237
 1582SOL     hw 6327   2.641   7.234   2.279  0.5569 -0.7366 -2.7388
 1582SOL     vw 6328   2.584   7.169   2.288  0.2043 -0.1607 -0.0310
 1583SOL     ow 6329   2.756   4.454   1.528  0.3257  0.1569  0.4266
 1583SOL     hw 6330   2.777   4.374   1.577  1.3772 -0.1936 -0.5300
 1583SOL     hw 6331   2.664   4.444   1.503 -0.1917  0.2960  2.1914
 1583SOL     vw 6332   2.747   4.442   1.531  0.3961  0.1292  0.5333
 1584SOL     ow 6333   5.236   3.065   3.818 -0.9931 -0.2378  0.4130
 1584SOL     hw 6334   5.273   3.121   3.750 -0.3728  0.1269  1.0276
 1584SOL     hw 6335   5.311   3.043   3.873 -1.5390 -0.2542  1.1633
 1584SOL     vw 6336   5.251   3.069   3.816 -0.9835 -0.1918  0.5931
 1585SOL     ow 6337   0.817   6.929   4.534  0.2741  0.3283  0.1263
 1585SOL     hw 6338   0.766   6.967   4.606  0.3480  1.6247 -0.4719
 1585SOL     hw 6339   0.892   6.988   4.525  1.4302 -1.0345  0.3849
 1585SOL     vw 6340   0.820   6.942   4.543  0.4364  0.3195  0.0815
 1586SOL     ow 6341   2.956   6.058   0.819  0.1848 -0.1111 -0.1575
 1586SOL     hw 6342   2.979   6.063   0.912  0.3682  0.1072 -0.2130
 1586SOL     hw 6343   3.038   6.032   0.776  0.1973  0.1588 -0.2997
 1586SOL     vw 6344   2.970   6.055   0.826  0.2105 -0.0470 -0.1836
 1587SOL     ow 6345   2.145   4.803   4.521  0.3477 -0.0553 -0.4154
 1587SOL     hw 6346   2.226   4.765   4.485  1.0144  0.3741  0.5979
 1587SOL     hw 6347   2.143   4.774   4.612 -0.5267  0.1243 -0.3755
 1587SOL     vw 6348   2.156   4.794   4.528  0.3204  0.0250 -0.2763
 1588SOL     ow 6349   6.087   6.676   5.115 -0.2510  0.0121 -0.9762
 1588SOL     hw 6350   6.001   6.703   5.148 -0.6299 -2.9635  0.8814
 1588SOL     hw 6351   6.106   6.595   5.162  3.3333  0.2082 -1.7811
 1588SOL     vw 6352   6.078   6.669   5.126  0.1724 -0.3545 -0.8373
 1589SOL     ow 6353   5.744   3.311   0.693  0.0848 -0.1689 -0.2891
 1589SOL     hw 6354   5.758   3.258   0.772  0.5780 -0.0022 -0.2616
 1589SOL     hw 6355   5.685   3.259   0.640  0.6826 -0.8231 -0.3300
 1589SOL     vw 6356   5.738   3.297   0.697  0.2284 -0.2333 -0.2909
 1590SOL     ow 6357   0.037   3.930   2.920  0.7035 -0.4506 -0.4488
 1590SOL     hw 6358  -0.058   3.934   2.904 -0.6092 -2.3949  4.7105
 1590SOL     hw 6359   0.057   3.837   2.921  1.7837 -0.2586  1.9586
 1590SOL     vw 6360   0.027   3.918   2.918  0.6728 -0.6818  0.5496
 1591SOL     ow 6361   5.777   0.606   0.958  0.1499 -0.5937 -0.1897
 1591SOL     hw 6362   5.848   0.655   0.918 -0.0180 -0.1816  0.0030
 1591SOL     hw 6363   5.698   0.636   0.912  0.1199 -1.1847 -0.5287
 1591SOL     vw 6364   5.776   0.617   0.947  0.1242 -0.6173 -0.2090
 1592SOL     ow 6365   2.792   1.678   4.145  0.4807  0.5203  0.3516
 1592SOL     hw 6366   2.730   1.731   4.094  0.9342 -0.5607 -1.4241
 1592SOL     hw 6367   2.845   1.742   4.192 -1.5482  1.5016  1.4531
 1592SOL     vw 6368   2.791   1.694   4.145  0.2728  0.5072  0.2623
 1593SOL     ow 6369   6.857   2.836   3.236  0.1229  0.6718  0.1012
 1593SOL     hw 6370   6.772   2.856   3.197 -0.5080 -0.6607  0.7475
 1593SOL     hw 6371   6.889   2.761   3.186  0.3147  0.3541  0.6995
 1593SOL     vw 6372   6.850   2.829   3.224  0.0651  0.4542  0.2654
 1594SOL     ow 6373   1.214   2.338   6.681  0.0596 -0.2493  0.2312
 1594SOL     hw 6374   1.145   2.398   6.710 -0.3296 -0.8807  0.6436
 1594SOL     hw 6375   1.289   2.360   6.737 -0.5102 -1.0657  1.3554
 1594SOL     vw 6376   1.215   2.349   6.692 -0.0669 -0.4404  0.4339
 1595SOL     ow 6377   4.067   3.012   1.226  0.2343  0.0774 -0.5622
 1595SOL     hw 6378   4.025   2.932   1.258 -4.0769  2.6651  1.1224
 1595SOL     hw 6379   4.037   3.021   1.136 -0.2359  0.3422 -0.3818
 1595SOL     vw 6380   4.058   3.003   1.219 -0.3965  0.4538 -0.3162
 1596SOL     ow 6381   4.178   3.405   1.417  0.3070 -0.4976  0.1510
 1596SOL     hw 6382   4.144   3.494   1.409  2.0480  0.0684 -1.7607
 1596SOL     hw 6383   4.137   3.356   1.346  1.1022 -0.5832 -0.2665
 1596SOL     vw 6384   4.168   3.411   1.407  0.6416 -0.4342 -0.1563
 1597SOL     ow 6385   1.437   7.275   1.142 -0.2023  0.2379 -0.6293
 1597SOL     hw 6386   1.514   7.248   1.192 -0.4054  1.0330  0.1334
 1597SOL     hw 6387   1.447   7.230   1.058  0.4182 -0.6951 -0.0794
 1597SOL     vw 6388   1.449   7.266   1.137 -0.1473  0.2193 -0.4561
 1598SOL     ow 6389   7.041   7.002   6.212  0.4464  0.0473 -0.0413
 1598SOL     hw 6390   7.091   6.925   6.186 -0.0786 -0.1433 -0.5015
 1598SOL     hw 6391   6.992   6.975   6.289  0.6962  0.0906  0.1317
 1598SOL     vw 6392   7.041   6.988   6.219  0.4103  0.0281 -0.0792
 1599SOL     ow 6393   4.582   0.979   2.895  0.1106 -0.2162  0.6163
 1599SOL     hw 6394   4.501   0.950   2.853  0.2790  0.2501 -0.0318
 1599SOL     hw 6395   4.571   0.953   2.987 -1.1119  0.5213  0.7117
 1599SOL     vw 6396   4.570   0.972   2.902 -0.0286 -0.0574  0.5436
 1600SOL     ow 6397   1.000   4.377   1.317  0.0628 -0.0694 -0.2333
 1600SOL     hw 6398   0.992   4.282   1.324  0.7601 -0.1181 -0.0167
 1600SOL     hw 6399   0.919   4.411   1.355 -0.3436 -0.5809 -0.6230
 1600SOL     vw 6400   0.989   4.369   1.323  0.1012 -0.1433 -0.2561
 1601SOL     ow 6401   4.422   4.260   0.806  0.5660  0.4656 -1.2027
 1601SOL     hw 6402   4.437   4.186   0.746  1.5552  0.7193 -1.2830
 1601SOL     hw 6403   4.440   4.224   0.893  0.5209  0.4720 -1.1908
 1601SOL     vw 6404   4.427   4.245   0.809  0.6907  0.5002 -1.2117
 1602SOL     ow 6405   2.320   7.338   2.374  0.0970 -0.7262 -0.2454
 1602SOL     hw 6406   2.291   7.424   2.345  3.9004  0.8884  0.2449
 1602SOL     hw 6407   2.259   7.315   2.444 -0.6727  1.8297  0.0235
 1602SOL     vw 6408   2.308   7.346   2.379  0.4972 -0.1760 -0.1453
 1603SOL     ow 6409   0.041   4.753   5.936  0.1555 -0.0224 -0.1814
 1603SOL     hw 6410  -0.046   4.751   5.976  1.4622 -1.1735  2.9037
 1603SOL     hw 6411   0.055   4.845   5.914 -1.3554  0.3753  0.3924
 1603SOL     vw 6412   0.031   4.765   5.939  0.1285 -0.1218  0.3016
 1604SOL     ow 6413   0.133   0.730   1.007 -0.1932  0.1384  0.5903
 1604SOL     hw 6414   0.081   0.776   1.073  2.1935  0.4467  2.3529
 1604SOL     hw 6415   0.129   0.787   0.930 -2.0996  0.3175  0.7640
 1604SOL     vw 6416   0.125   0.744   1.005 -0.1298  0.2027  0.8457
 1605SOL     ow 6417   6.138   1.748   0.953  0.2556  0.1207  0.4614
 1605SOL     hw 6418   6.218   1.704   0.980  2.9016  1.9956 -3.4163
 1605SOL     hw 6419   6.113   1.705   0.871 -1.0947  1.3793  0.1619
 1605SOL     vw 6420   6.145   1.736   0.946  0.4265  0.5341 -0.0897
 1606SOL     ow 6421   0.862   6.168   5.198 -0.3670 -0.3076 -0.7181
 1606SOL     hw 6422   0.899   6.099   5.253 -0.7138 -0.5701 -0.8144
 1606SOL     hw 6423   0.877   6.248   5.248  2.0322 -0.1346 -1.5725
 1606SOL     vw 6424   0.869   6.170   5.212 -0.0962 -0.3190 -0.8435
 1607SOL     ow 6425   6.529   6.489   3.512 -0.2062 -0.3782 -0.4322
 1607SOL     hw 6426   6.459   6.447   3.562 -0.6112 -1.0495 -1.5287
 1607SOL     hw 6427   6.581   6.535   3.578 -1.6664  0.1269  0.4255
 1607SOL     vw 6428   6.527   6.490   3.527 -0.4520 -0.3998 -0.4637
 1608SOL     ow 6429   5.093   3.342   6.006  0.3682  0.0410 -0.2470
 1608SOL     hw 6430   5.033   3.416   6.013  0.8131  0.3391  0.6946
 1608SOL     hw 6431   5.117   3.322   6.097  1.1554 -0.5088 -0.5595
 1608SOL     vw 6432   5.089   3.349   6.019  0.5305  0.0077 -0.1640
 1609SOL     ow 6433   0.127   6.560   2.200  0.0382  0.2282  0.2984
 1609SOL     hw 6434   0.169   6.484   2.160  1.7146  2.4255 -2.5513
 1609SOL     hw 6435   0.193   6.597   2.258 -0.0680  0.5265  0.2333
 1609SOL     vw 6436   0.141   6.555   2.202  0.2454  0.5574 -0.0861
 1610SOL     ow 6437   5.017   6.260   3.702  0.5201 -0.2593  0.5578
 1610SOL     hw 6438   5.094   6.258   3.758  0.6612  1.2493  0.4616
 1610SOL     hw 6439   4.943   6.258   3.763  0.6689  2.3668  0.9355
 1610SOL     vw 6440   5.017   6.259   3.718  0.5586  0.2861  0.5951
 1611SOL     ow 6441   5.796   0.027   0.407 -0.2422  0.0458 -0.1152
 1611SOL     hw 6442   5.824   0.071   0.487  1.5562 -0.2044 -0.5618
 1611SOL     hw 6443   5.817   0.089   0.337  1.2993 -1.0212 -0.6527
 1611SOL     vw 6444   5.803   0.041   0.409  0.1986 -0.1280 -0.2450
 1612SOL     ow 6445   7.228   6.108   2.880  0.0534 -0.0490 -0.1696
 1612SOL     hw 6446   7.234   6.020   2.916 -0.2009  1.2320  3.3645
 1612SOL     hw 6447   7.314   6.125   2.842  1.0156 -0.8771  1.5515
 1612SOL     vw 6448   7.240   6.098   2.880  0.1466  0.0107  0.5237
 1613SOL     ow 6449   5.957   0.371   1.056  0.0198 -0.0062  0.3357
 1613SOL     hw 6450   5.998   0.449   1.017 -0.2897 -0.4056 -0.8252
 1613SOL     hw 6451   5.983   0.299   0.998  0.1446 -0.7468  1.2931
 1613SOL     vw 6452   5.966   0.372   1.043 -0.0043 -0.1566  0.3088
 1614SOL     ow 6453   1.199   7.270   5.601 -0.5018 -0.2602  0.1893
 1614SOL     hw 6454   1.170   7.299   5.688 -0.4739 -0.1401  0.1585
 1614SOL     hw 6455   1.195   7.349   5.547  1.3768  0.1155  0.5521
 1614SOL     vw 6456   1.195   7.284   5.606 -0.2503 -0.1948  0.2332
 1615SOL     ow 6457   6.177   3.601   3.033 -0.1649 -0.1495  0.4761
 1615SOL     hw 6458   6.227   3.676   3.064 -1.5700  0.8789  0.3492
 1615SOL     hw 6459   6.242   3.531   3.023  1.0417  0.8071  1.3493
 1615SOL     vw 6460   6.192   3.601   3.036 -0.1910  0.1125  0.5745
 1616SOL     ow 6461   0.169   6.583   5.523  0.5180  0.9191 -0.0388
 1616SOL     hw 6462   0.206   6.637   5.453 -0.3609  0.5036 -0.8554
 1616SOL     hw 6463   0.077   6.571   5.497  0.7223 -1.0774  0.0324
 1616SOL     vw 6464   0.162   6.588   5.510  0.4290  0.6006 -0.1373
 1617SOL     ow 6465   1.177   7.016   6.754  0.7113  0.1531  0.3553
 1617SOL     hw 6466   1.211   7.105   6.739  0.6352  0.2467  0.7234
 1617SOL     hw 6467   1.082   7.028   6.758  0.3899 -0.4287 -2.9913
 1617SOL     vw 6468   1.169   7.029   6.753  0.6589  0.0887 -0.0377
 1618SOL     ow 6469   6.065   0.903   3.095 -0.3370 -0.4043 -0.5414
 1618SOL     hw 6470   6.150   0.920   3.055 -0.5142  0.1079 -0.7080
 1618SOL     hw 6471   6.002   0.917   3.025 -0.8859  3.1095  0.4478
 1618SOL     vw 6472   6.068   0.907   3.081 -0.4330  0.1269 -0.4328
 1619SOL     ow 6473   7.060   6.285   6.610 -0.0751 -0.7274 -0.4812
 1619SOL     hw 6474   7.082   6.354   6.548  0.6766 -0.4623  0.0598
 1619SOL     hw 6475   7.114   6.210   6.583  1.1914 -0.2251  0.5658
 1619SOL     vw 6476   7.070   6.284   6.598  0.1910 -0.6266 -0.2716
 1620SOL     ow 6477   3.707   4.823   6.708  0.9280 -0.1622  0.0197
 1620SOL     hw 6478   3.771   4.790   6.646  1.3074  0.9162 -0.1911
 1620SOL     hw 6479   3.758   4.853   6.783  0.5293 -0.8310  0.5663
 1620SOL     vw 6480   3.722   4.823   6.710  0.9254 -0.1082  0.0641
 1621SOL     ow 6481   4.443   4.804   3.525 -0.6795 -0.5273 -0.3635
 1621SOL     hw 6482   4.435   4.807   3.429  0.3520 -1.1003 -0.4712
 1621SOL     hw 6483   4.445   4.896   3.551 -1.6958 -0.3573 -0.8179
 1621SOL     vw 6484   4.442   4.817   3.516 -0.6771 -0.5805 -0.4376
 1622SOL     ow 6485   4.443   6.738   2.873  0.3912  0.0440 -0.2696
 1622SOL     hw 6486   4.413   6.651   2.900 -3.6209  1.4840  0.6176
 1622SOL     hw 6487   4.408   6.749   2.785  0.7640  0.7926 -0.3280
 1622SOL     vw 6488   4.435   6.728   2.865 -0.0889  0.3328 -0.1602
 1623SOL     ow 6489   5.458   1.520   4.616  1.0642 -0.2041  0.4871
 1623SOL     hw 6490   5.512   1.534   4.538  0.8266  0.6979  0.4778
 1623SOL     hw 6491   5.401   1.597   4.621 -1.3661 -1.8455 -0.3831
 1623SOL     vw 6492   5.458   1.532   4.606  0.7124 -0.3017  0.3712
 1624SOL     ow 6493   3.036   3.728   2.341 -0.0942 -0.5937 -0.4857
 1624SOL     hw 6494   3.088   3.807   2.329 -1.7189  0.8740  1.5270
 1624SOL     hw 6495   2.976   3.726   2.267 -2.4410  2.1341  1.1414
 1624SOL     vw 6496   3.035   3.738   2.330 -0.6181 -0.0402 -0.0056
 1625SOL     ow 6497   1.572   0.207   2.599 -0.9011  0.1735  0.0639
 1625SOL     hw 6498   1.518   0.246   2.530  0.1977 -0.8835 -1.4568
 1625SOL     hw 6499   1.629   0.278   2.629  0.1898  0.1343 -1.7653
 1625SOL     vw 6500   1.572   0.221   2.594 -0.6123  0.0289 -0.3781
 1626SOL     ow 6501   2.535   5.638   5.904 -0.4115  0.0298  0.2862
 1626SOL     hw 6502   2.578   5.673   5.982 -1.7182  1.0579  0.5855
 1626SOL     hw 6503   2.561   5.698   5.834 -0.5826  0.0917  0.2750
 1626SOL     vw 6504   2.544   5.651   5.905 -0.6065  0.1738  0.3240
 1627SOL     ow 6505   4.420   5.892   1.191  1.0321  0.6800 -0.0073
 1627SOL     hw 6506   4.400   5.940   1.272 -0.2346 -0.5084  0.4339
 1627SOL     hw 6507   4.510   5.863   1.202 -0.0292 -2.3190  2.6190
 1627SOL     vw 6508   4.429   5.894   1.203  0.7250  0.1273  0.3975
 1628SOL     ow 6509   5.434   2.256   3.601  0.0597 -0.5179  0.2856
 1628SOL     hw 6510   5.392   2.324   3.654  1.9617  0.9690 -0.0233
 1628SOL     hw 6511   5.526   2.259   3.626  0.6672 -1.1324 -1.6966
 1628SOL     vw 6512   5.441   2.265   3.611  0.3910 -0.4028 -0.0168
 1629SOL     ow 6513   3.647   2.335   6.212  0.2768 -0.1846 -0.7055
 1629SOL     hw 6514   3.689   2.291   6.286  2.0674 -0.3983 -1.7910
 1629SOL     hw 6515   3.655   2.428   6.232 -0.0795 -0.2533 -0.2125
 1629SOL     vw 6516   3.653   2.341   6.225  0.4660 -0.2218 -0.7834
 1630SOL     ow 6517   4.593   2.950   1.095 -0.5649  0.1765 -1.2191
 1630SOL     hw 6518   4.684   2.918   1.095 -0.1628  1.2482 -2.0331
 1630SOL     hw 6519   4.598   3.034   1.050 -1.4093  1.8867  1.6185
 1630SOL     vw 6520   4.606   2.957   1.089 -0.6232  0.5436 -0.9521
 1631SOL     ow 6521   4.950   2.894   1.659  0.3230 -0.5459  0.7855
 1631SOL     hw 6522   4.972   2.926   1.572 -1.7555  2.0638  1.0623
 1631SOL     hw 6523   4.928   2.802   1.647 -1.5321  0.1212 -1.8585
 1631SOL     vw 6524   4.950   2.886   1.646 -0.1960 -0.1136  0.4731
 1632SOL     ow 6525   3.045   3.935   3.006  0.1693  0.6612  0.0973
 1632SOL     hw 6526   2.988   3.872   3.051  1.7221 -0.1029  1.0806
 1632SOL     hw 6527   3.037   4.015   3.058  0.2546  0.4436  0.4548
 1632SOL     vw 6528   3.036   3.937   3.019  0.3854  0.5316  0.2741
 1633SOL     ow 6529   4.757   5.051   6.347  0.1264  0.5242 -0.4724
 1633SOL     hw 6530   4.808   5.086   6.274  1.0468  3.9647  1.5740
 1633SOL     hw 6531   4.673   5.097   6.342 -0.7332 -0.9975 -0.6645
 1633SOL     vw 6532   4.753   5.061   6.337  0.1342  0.7775 -0.2277
 1634SOL     ow 6533   2.263   0.777   6.331  0.0903 -0.0179 -0.0128
 1634SOL     hw 6534   2.241   0.857   6.283  0.7661  1.2173  1.6556
 1634SOL     hw 6535   2.179   0.732   6.341 -0.9267  2.0570  1.7300
 1634SOL     vw 6536   2.249   0.782   6.326  0.0452  0.4188  0.4373
 1635SOL     ow 6537   1.386   2.128   5.398  0.5734 -0.9679 -0.6682
 1635SOL     hw 6538   1.430   2.056   5.352  1.2181 -0.7048 -0.4624
 1635SOL     hw 6539   1.450   2.159   5.462  0.1991 -0.3830 -0.5735
 1635SOL     vw 6540   1.400   2.123   5.400  0.6092 -0.8560 -0.6285
 1636SOL     ow 6541   1.789   0.774   4.899 -0.1050 -0.6768 -0.3544
 1636SOL     hw 6542   1.705   0.773   4.853 -0.2024 -2.1176 -0.1794
 1636SOL     hw 6543   1.773   0.721   4.978  0.5770  0.2163  0.4010
 1636SOL     vw 6544   1.776   0.767   4.903 -0.0278 -0.7491 -0.2320
 1637SOL     ow 6545   4.255   6.658   2.195  0.2374 -0.3405  0.4536
 1637SOL     hw 6546   4.313   6.582   2.190 -0.3936 -0.8133  0.2498
 1637SOL     hw 6547   4.313   6.731   2.219  0.5950 -1.1962  2.3835
 1637SOL     vw 6548   4.271   6.658   2.197  0.2015 -0.5157  0.6813
 1638SOL     ow 6549   7.149   2.784   4.999 -0.2796  0.0901 -0.2833
 1638SOL     hw 6550   7.064   2.808   4.962 -1.0322  1.0386  1.9251
 1638SOL     hw 6551   7.168   2.852   5.064  1.6350 -0.7215  0.0829
 1638SOL     vw 6552   7.141   2.796   5.003 -0.1261  0.1082  0.0565
 1639SOL     ow 6553   5.794   2.481   1.807 -0.0800  0.4193  0.0188
 1639SOL     hw 6554   5.837   2.396   1.809 -0.4348  0.1784 -1.2850
 1639SOL     hw 6555   5.717   2.467   1.751 -1.0186  1.2064  1.0754
 1639SOL     vw 6556   5.789   2.468   1.800 -0.2508  0.4914 -0.0138
 1640SOL     ow 6557   4.856   0.710   6.061 -0.2790  0.2535  0.0460
 1640SOL     hw 6558   4.786   0.657   6.099 -0.1102 -0.4474 -0.6083
 1640SOL     hw 6559   4.879   0.665   5.980  2.2203 -0.5920  1.1274
 1640SOL     vw 6560   4.850   0.697   6.056  0.0730  0.0495  0.1023
 1641SOL     ow 6561   6.898   4.175   2.599 -0.6570 -0.2188  0.1724
 1641SOL     hw 6562   6.891   4.216   2.513 -0.0697 -0.8960 -0.2131
 1641SOL     hw 6563   6.896   4.248   2.661  1.5815  0.5441 -0.5477
 1641SOL     vw 6564   6.897   4.190   2.596 -0.2840 -0.2077  0.0265
 1642SOL     ow 6565   2.265   1.308   1.693 -0.1204  0.0228 -0.5256
 1642SOL     hw 6566   2.208   1.332   1.766  0.4354 -0.5115  0.0976
 1642SOL     hw 6567   2.331   1.250   1.732  1.0451  0.8772 -1.1517
 1642SOL     vw 6568   2.266   1.304   1.708  0.1068  0.0650 -0.5260
 1643SOL     ow 6569   7.156   0.269   3.662 -0.0469  0.9559  0.2261
 1643SOL     hw 6570   7.223   0.216   3.707  2.1473  2.8843 -0.5693
 1643SOL     hw 6571   7.185   0.359   3.675 -1.2063  1.7481 -2.1700
 1643SOL     vw 6572   7.169   0.274   3.670  0.0896  1.3148 -0.1949
 1644SOL     ow 6573   3.447   7.128   4.130  0.8603 -0.0895 -0.5008
 1644SOL     hw 6574   3.393   7.207   4.138 -1.6681 -1.7938  0.4033
 1644SOL     hw 6575   3.505   7.131   4.207  0.2987  0.5302 -0.0932
 1644SOL     vw 6576   3.448   7.139   4.141  0.4526 -0.2329 -0.3276
 1645SOL     ow 6577   3.969   6.793   4.965  0.4472 -0.1887 -0.3616
 1645SOL     hw 6578   3.929   6.707   4.977  0.8650 -0.1332  1.7063
 1645SOL     hw 6579   4.026   6.782   4.889  0.6364 -1.7862 -0.0158
 1645SOL     vw 6580   3.971   6.780   4.956  0.5273 -0.3920 -0.0432
 1646SOL     ow 6581   2.676   3.853   2.545 -0.7233  0.0484 -0.6365
 1646SOL     hw 6582   2.744   3.920   2.552 -0.0046 -0.7789  0.8236
 1646SOL     hw 6583   2.638   3.847   2.633 -2.7466  0.5131 -1.4250
 1646SOL     vw 6584   2.680   3.861   2.557 -0.8955  0.0006 -0.5479
 1647SOL     ow 6585   6.179   6.006   6.446 -0.1636 -0.6582 -0.4638
 1647SOL     hw 6586   6.202   6.011   6.353  0.5911 -2.9869 -0.4683
 1647SOL     hw 6587   6.220   5.925   6.476 -1.6476 -0.7279  1.5484
 1647SOL     vw 6588   6.187   5.996   6.437 -0.2601 -0.9744 -0.1988
 1648SOL     ow 6589   7.160   3.310   4.093 -0.1474  0.1149 -0.0945
 1648SOL     hw 6590   7.103   3.331   4.019  1.5029  2.4704 -0.8342
 1648SOL     hw 6591   7.247   3.300   4.054  0.9728  2.4931  1.5331
 1648SOL     vw 6592   7.164   3.312   4.078  0.2182  0.7395  0.0226
 1649SOL     ow 6593   1.047   4.393   6.451  0.3156  0.7519  0.0346
 1649SOL     hw 6594   1.121   4.399   6.391  0.1680  0.3706 -0.1934
 1649SOL     hw 6595   1.019   4.302   6.444 -0.5104  1.0216 -0.2908
 1649SOL     vw 6596   1.053   4.382   6.442  0.1872  0.7372 -0.0384
 1650SOL     ow 6597   5.119   5.670   4.915 -0.0122 -0.6519 -0.1341
 1650SOL     hw 6598   5.126   5.578   4.890  0.9146 -0.6510  0.0865
 1650SOL     hw 6599   5.197   5.687   4.968 -0.8657 -0.0986  0.9907
 1650SOL     vw 6600   5.131   5.660   4.918 -0.0024 -0.5789  0.0434
 1651SOL     ow 6601   4.065   6.590   6.999 -0.1530  0.0214  0.1696
 1651SOL     hw 6602   4.136   6.640   7.039  0.6616  0.4168 -1.6649
 1651SOL     hw 6603   4.066   6.506   7.045  2.9128 -0.7919 -1.1213
 1651SOL     vw 6604   4.075   6.585   7.010  0.3591 -0.0339 -0.2427
 1652SOL     ow 6605   5.702   5.413   7.040 -0.1527  0.0322  0.1153
 1652SOL     hw 6606   5.683   5.454   6.955  3.3034 -0.5180 -1.0824
 1652SOL     hw 6607   5.715   5.321   7.019  0.7953 -0.1026  1.2009
 1652SOL     vw 6608   5.701   5.407   7.026  0.4282 -0.0579  0.1004
 1653SOL     ow 6609   1.876   0.323   3.216 -0.6866 -0.1598 -0.1453
 1653SOL     hw 6610   1.937   0.396   3.207 -0.6034  0.4437  3.5273
 1653SOL     hw 6611   1.929   0.246   3.198 -0.0545  0.5452 -1.4357
 1653SOL     vw 6612   1.891   0.323   3.213 -0.5922  0.0129  0.1689
 1654SOL     ow 6613   0.019   2.720   2.568  0.9991 -0.2127  0.6520
 1654SOL     hw 6614  -0.012   2.787   2.629 -0.4367 -0.4651  0.2344
 1654SOL     hw 6615   0.081   2.669   2.618  1.7551  1.1188  1.1336
 1654SOL     vw 6616   0.023   2.722   2.583  0.9098 -0.0701  0.6605
 1655SOL     ow 6617   1.473   6.572   1.911 -0.1427 -0.1085 -1.1570
 1655SOL     hw 6618   1.534   6.637   1.876  1.8786 -1.4215 -0.3343
 1655SOL     hw 6619   1.400   6.623   1.946  0.9918  1.6484 -1.2285
 1655SOL     vw 6620   1.472   6.587   1.911  0.2736 -0.0498 -1.0579
 1656SOL     ow 6621   4.652   0.961   6.182 -0.1005 -0.3909 -0.2901
 1656SOL     hw 6622   4.658   0.965   6.278 -0.6800  0.6545 -0.2775
 1656SOL     hw 6623   4.627   0.870   6.163  0.6817 -0.7871  0.4997
 1656SOL     vw 6624   4.650   0.949   6.192 -0.0737 -0.3053 -0.1841
 1657SOL     ow 6625   0.766   4.319   5.796 -0.2064 -0.0739 -0.7626
 1657SOL     hw 6626   0.812   4.235   5.799  1.0715  0.5492 -1.9171
 1657SOL     hw 6627   0.739   4.328   5.704  0.5056  1.1905 -0.8680
 1657SOL     vw 6628   0.768   4.309   5.784  0.0562  0.1752 -0.9291
 1658SOL     ow 6629   7.267   6.886   7.213 -0.3882 -0.8317  0.4477
 1658SOL     hw 6630   7.197   6.872   7.149 -1.2169 -0.4794  1.2634
 1658SOL     hw 6631   7.340   6.833   7.180 -1.1251 -1.4304 -0.2629
 1658SOL     vw 6632   7.268   6.877   7.200 -0.5949 -0.8643  0.4616
 1659SOL     ow 6633   1.532   1.930   1.773 -0.7436  0.1104 -0.7909
 1659SOL     hw 6634   1.624   1.917   1.796 -0.5878  2.2299  0.0156
 1659SOL     hw 6635   1.483   1.881   1.838 -0.1858  0.3584 -0.1768
 1659SOL     vw 6636   1.537   1.922   1.784 -0.6495  0.4227 -0.6036
 1660SOL     ow 6637   5.324   1.341   1.981  0.2728  0.3917  0.1385
 1660SOL     hw 6638   5.248   1.400   1.984  0.1115  0.4044 -2.2226
 1660SOL     hw 6639   5.322   1.304   1.892  1.5639 -1.5995  0.8704
 1660SOL     vw 6640   5.314   1.344   1.969  0.4218  0.1307 -0.0765
 1661SOL     ow 6641   0.409   7.171   3.410 -0.1965  0.1951  0.0856
 1661SOL     hw 6642   0.385   7.154   3.319 -2.2522  0.2301  0.5804
 1661SOL     hw 6643   0.414   7.084   3.450  0.3807  0.1979  0.0278
 1661SOL     vw 6644   0.407   7.157   3.404 -0.3916  0.2000  0.1433
 1662SOL     ow 6645   6.504   7.163   0.102  0.0894  0.0567  0.1892
 1662SOL     hw 6646   6.470   7.084   0.060 -3.0223  1.9475 -1.1912
 1662SOL     hw 6647   6.599   7.156   0.093 -0.1896 -2.2750 -2.2282
 1662SOL     vw 6648   6.512   7.152   0.096 -0.3581 -0.0012 -0.3119
 1663SOL     ow 6649   0.429   5.113   6.854  0.2514  0.4555  0.0240
 1663SOL     hw 6650   0.489   5.057   6.805 -0.5270 -0.7966  0.4360
 1663SOL     hw 6651   0.476   5.137   6.933  0.8855  1.0554 -0.5286
 1663SOL     vw 6652   0.443   5.108   6.858  0.2324  0.3693  0.0055
 1664SOL     ow 6653   1.173   7.114   1.085 -0.6830 -0.3097  0.4485
 1664SOL     hw 6654   1.205   7.088   0.998  2.3543 -0.3395  1.4545
 1664SOL     hw 6655   1.122   7.039   1.116  0.7314 -1.5636 -0.1382
 1664SOL     vw 6656   1.170   7.101   1.077 -0.0957 -0.4790  0.5038
 1665SOL     ow 6657   3.530   5.484   0.409 -0.0585  0.1719  0.3072
 1665SOL     hw 6658   3.616   5.457   0.376 -1.0979  0.0939 -2.6668
 1665SOL     hw 6659   3.536   5.473   0.504  3.1008 -0.0739  0.1875
 1665SOL     vw 6660   3.542   5.479   0.417  0.2214  0.1292 -0.1010
 1666SOL     ow 6661   4.518   7.263   7.011  0.0350  0.0689 -0.2754
 1666SOL     hw 6662   4.612   7.260   7.028  0.2514 -1.0033 -1.5362
 1666SOL     hw 6663   4.489   7.347   7.049  1.6391  0.8095 -0.6291
 1666SOL     vw 6664   4.526   7.274   7.018  0.2754  0.0250 -0.4883
 1667SOL     ow 6665   2.249   1.110   1.449  0.1063 -0.7403  0.2533
 1667SOL     hw 6666   2.275   1.104   1.357  3.4316  2.0647  0.8473
 1667SOL     hw 6667   2.310   1.053   1.495 -1.4789 -2.0527  0.8218
 1667SOL     vw 6668   2.260   1.102   1.443  0.3361 -0.5434  0.4067
 1668SOL     ow 6669   6.238   4.257   2.974  0.8026  0.1435 -0.6685
 1668SOL     hw 6670   6.218   4.164   2.978  1.8179 -0.1695 -2.0766
 1668SOL     hw 6671   6.220   4.290   3.062  1.2456 -1.5500  0.0777
 1668SOL     vw 6672   6.233   4.249   2.986  0.9949 -0.1211 -0.7559
 1669SOL     ow 6673   3.284   2.006   0.405  0.4095  0.6806  0.0919
 1669SOL     hw 6674   3.239   1.942   0.459 -2.2703  2.7699  0.5149
 1669SOL     hw 6675   3.336   1.953   0.344  1.4893 -1.7740  2.9024
 1669SOL     vw 6676   3.285   1.991   0.404  0.1985  0.6324  0.5185
 1670SOL     ow 6677   1.849   3.969   6.787 -0.2328  0.2564  0.1676
 1670SOL     hw 6678   1.928   3.966   6.734 -0.9960 -1.4861 -0.9672
 1670SOL     hw 6679   1.832   4.062   6.800  1.6729  0.6763 -0.0188
 1670SOL     vw 6680   1.857   3.981   6.782 -0.0821  0.0819 -0.0067
 1671SOL     ow 6681   5.909   5.026   3.142  0.3901 -0.1711 -0.2376
 1671SOL     hw 6682   5.901   5.120   3.157  0.2914 -0.0075 -1.2691
 1671SOL     hw 6683   5.999   5.013   3.113  0.7385 -0.5595  0.9438
 1671SOL     vw 6684   5.920   5.037   3.140  0.4232 -0.2007 -0.2178
 1672SOL     ow 6685   2.718   1.247   5.960  0.0015 -0.4464 -0.4066
 1672SOL     hw 6686   2.708   1.175   5.898 -0.0759 -1.8296  1.1437
 1672SOL     hw 6687   2.806   1.237   5.995  0.3403  0.8053 -0.8346
 1672SOL     vw 6688   2.728   1.236   5.956  0.0359 -0.4637 -0.2587
 1673SOL     ow 6689   0.511   2.259   0.008 -0.0148 -0.2705  0.1734
 1673SOL     hw 6690   0.587   2.255  -0.050  0.3614 -1.0179  0.7005
 1673SOL     hw 6691   0.537   2.321   0.077 -0.9385  1.5952 -1.0996
 1673SOL     vw 6692   0.525   2.266   0.010 -0.0870 -0.1229  0.0750
 1674SOL     ow 6693   3.975   2.422   2.304 -0.8090  1.2561  0.6712
 1674SOL     hw 6694   3.966   2.495   2.243  1.3900 -0.6410 -2.1069
 1674SOL     hw 6695   3.890   2.377   2.299 -0.6139  1.0349 -1.1610
 1674SOL     vw 6696   3.962   2.426   2.296 -0.4930  0.9766  0.0629
 1675SOL     ow 6697   0.105   3.706   2.781  0.1580  0.1388 -0.1311
 1675SOL     hw 6698   0.071   3.616   2.777  0.5988  0.0031 -1.4058
 1675SOL     hw 6699   0.056   3.753   2.714  0.1614  0.7718  0.3025
 1675SOL     vw 6700   0.094   3.700   2.771  0.2167  0.2044 -0.2421
 1676SOL     ow 6701   0.838   4.189   4.507 -0.1555  0.1320 -0.1505
 1676SOL     hw 6702   0.785   4.236   4.443 -0.2449  0.8300  0.4221
 1676SOL     hw 6703   0.812   4.226   4.592  0.7688  0.0259  0.1910
 1676SOL     vw 6704   0.828   4.200   4.510 -0.0454  0.2100 -0.0300
 1677SOL     ow 6705   1.639   3.729   0.287 -1.2795 -0.4831 -0.5847
 1677SOL     hw 6706   1.672   3.760   0.203  0.8520 -0.9499  0.0350
 1677SOL     hw 6707   1.544   3.728   0.276 -1.0882  0.1335 -2.7384
 1677SOL     vw 6708   1.631   3.733   0.275 -0.9730 -0.4634 -0.7871
 1678SOL     ow 6709   3.840   5.215   2.501  0.4744  0.5275  0.4923
 1678SOL     hw 6710   3.849   5.308   2.482 -0.8357  0.4239 -0.7898
 1678SOL     hw 6711   3.925   5.177   2.479  1.2454  1.4895  1.6831
 1678SOL     vw 6712   3.853   5.222   2.496  0.4033  0.6406  0.4803
 1679SOL     ow 6713   1.236   6.007   6.477  0.0710 -0.2738 -0.1704
 1679SOL     hw 6714   1.162   6.014   6.537 -0.3828  0.2534 -0.7818
 1679SOL     hw 6715   1.312   5.991   6.534 -0.4492 -0.4177  0.4863
 1679SOL     vw 6716   1.237   6.006   6.493 -0.0575 -0.2232 -0.1645
 1680SOL     ow 6717   3.677   5.659   1.612  0.3463  0.8324 -0.2437
 1680SOL     hw 6718   3.723   5.742   1.593  0.0718  0.9829 -0.2531
 1680SOL     hw 6719   3.745   5.603   1.648  0.6944  0.8189 -0.9018
 1680SOL     vw 6720   3.692   5.663   1.614  0.3561  0.8507 -0.3318
 1681SOL     ow 6721   5.522   1.581   6.201 -0.9897 -0.3758  0.1106
 1681SOL     hw 6722   5.544   1.643   6.271  0.0598 -0.2319 -0.3312
 1681SOL     hw 6723   5.603   1.532   6.186 -1.4336 -0.9508 -0.4626
 1681SOL     vw 6724   5.536   1.583   6.208 -0.9098 -0.4327 -0.0234
 1682SOL     ow 6725   6.192   6.871   4.898  0.6028  0.5009 -0.6895
 1682SOL     hw 6726   6.246   6.869   4.820  0.4940  1.3944 -0.8019
 1682SOL     hw 6727   6.124   6.936   4.878 -0.5800 -0.6663 -0.5962
 1682SOL     vw 6728   6.190   6.879   4.885  0.4323  0.4649 -0.6921
 1683SOL     ow 6729   6.270   1.336   4.844  0.0906 -0.1956 -0.7683
 1683SOL     hw 6730   6.244   1.325   4.936  1.3991 -2.6744 -0.6005
 1683SOL     hw 6731   6.364   1.352   4.848  0.5816 -2.5080 -1.6871
 1683SOL     vw 6732   6.279   1.337   4.857  0.3278 -0.8277 -0.8674
 1684SOL     ow 6733   0.542   6.251   0.045 -0.1091  0.0938 -0.0621
 1684SOL     hw 6734   0.458   6.206   0.047  0.2324 -0.7423 -2.2659
 1684SOL     hw 6735   0.593   6.209   0.115 -1.4269  0.5230  1.2111
 1684SOL     vw 6736   0.538   6.240   0.054 -0.2379  0.0403 -0.1849
 1685SOL     ow 6737   3.884   4.433   5.893 -0.6140 -0.4737  0.0024
 1685SOL     hw 6738   3.908   4.476   5.974  0.5326 -2.6203  0.8840
 1685SOL     hw 6739   3.808   4.379   5.915 -1.3673  0.2316 -0.8001
 1685SOL     vw 6740   3.877   4.431   5.906 -0.5622 -0.6638  0.0126
 1686SOL     ow 6741   1.232   3.061   4.157  0.0922  0.2452  0.0138
 1686SOL     hw 6742   1.269   3.142   4.192 -0.9211  1.1058 -0.8355
 1686SOL     hw 6743   1.280   3.047   4.075  0.5697 -0.2634  0.3759
 1686SOL     vw 6744   1.243   3.070   4.151  0.0215  0.2916 -0.0505
 1687SOL     ow 6745   5.443   2.713   7.239  0.5711 -0.2531  0.4507
 1687SOL     hw 6746   5.505   2.716   7.166  1.1074 -0.4982  0.8979
 1687SOL     hw 6747   5.415   2.804   7.250  2.6594  0.3024  1.7868
 1687SOL     vw 6748   5.447   2.726   7.231  0.9177 -0.2123  0.6859
 1688SOL     ow 6749   4.224   1.358   7.349 -0.0902  0.6315  0.0890
 1688SOL     hw 6750   4.263   1.275   7.321 -2.5841 -1.0047  1.1571
 1688SOL     hw 6751   4.288   1.394   7.411  1.9963  0.6549 -1.9016
 1688SOL     vw 6752   4.238   1.352   7.353 -0.1440  0.4187 -0.0329
 1689SOL     ow 6753   1.485   2.650   6.320 -0.3145 -1.0240 -0.1278
 1689SOL     hw 6754   1.412   2.610   6.273 -0.5458 -2.0824  1.0692
 1689SOL     hw 6755   1.462   2.743   6.326 -0.8924 -1.1054 -0.9577
 1689SOL     vw 6756   1.472   2.657   6.314 -0.4213 -1.1743 -0.0792
 1690SOL     ow 6757   4.614   6.530   6.498  0.4896 -0.2737 -0.2758
 1690SOL     hw 6758   4.639   6.448   6.457  1.1434 -1.0110  1.4988
 1690SOL     hw 6759   4.598   6.590   6.425  3.3965 -0.9579 -1.6316
 1690SOL     vw 6760   4.615   6.527   6.483  0.9592 -0.4616 -0.2205
 1691SOL     ow 6761   1.742   0.738   2.493 -0.4337  0.1297 -0.0385
 1691SOL     hw 6762   1.717   0.646   2.504  0.8679 -1.1260 -5.0524
 1691SOL     hw 6763   1.836   0.735   2.471 -0.7860  2.3276 -2.3277
 1691SOL     vw 6764   1.751   0.726   2.492 -0.3085  0.2540 -1.0021
 1692SOL     ow 6765   2.890   0.667   2.440  0.0886  0.4063 -0.6236
 1692SOL     hw 6766   2.866   0.630   2.525 -1.3807  0.6383 -0.9090
 1692SOL     hw 6767   2.900   0.761   2.457 -2.5341  0.8486 -1.0993
 1692SOL     vw 6768   2.888   0.674   2.454 -0.4512  0.4953 -0.7240
 1693SOL     ow 6769   0.647   1.621   3.386 -0.3850 -0.2191  0.1928
 1693SOL     hw 6770   0.686   1.576   3.311  1.1300  1.2605  0.0415
 1693SOL     hw 6771   0.639   1.552   3.453 -2.0521 -1.6367 -1.3321
 1693SOL     vw 6772   0.651   1.606   3.385 -0.4051 -0.2109 -0.0283
 1694SOL     ow 6773   2.166   2.219   1.061  0.2727  0.2222 -0.1617
 1694SOL     hw 6774   2.254   2.195   1.092  0.3308  1.2729  0.4946
 1694SOL     hw 6775   2.107   2.177   1.123  0.3344  0.3473 -0.0174
 1694SOL     vw 6776   2.170   2.210   1.073  0.2885  0.3773 -0.0561
 1695SOL     ow 6777   6.413   1.701   6.002 -0.2080  0.1780 -0.0475
 1695SOL     hw 6778   6.469   1.749   6.063 -0.7484  0.2591  0.3952
 1695SOL     hw 6779   6.324   1.725   6.027 -0.6274 -2.5124  1.5158
 1695SOL     vw 6780   6.409   1.710   6.013 -0.3347 -0.1663  0.2170
 1696SOL     ow 6781   5.790   2.161   7.177  0.0131 -0.2536  0.0942
 1696SOL     hw 6782   5.857   2.205   7.124  0.5244  2.8713  3.0188
 1696SOL     hw 6783   5.838   2.090   7.220  1.0048  0.6884  0.6052
 1696SOL     vw 6784   5.805   2.157   7.175  0.2115  0.2831  0.5476
 1697SOL     ow 6785   3.373   1.538   4.215  0.3704  0.1985  0.0617
 1697SOL     hw 6786   3.377   1.443   4.217 -0.3258  0.1254 -1.1375
 1697SOL     hw 6787   3.402   1.561   4.126 -0.6550  1.0300 -0.0731
 1697SOL     vw 6788   3.377   1.529   4.203  0.1432  0.2985 -0.1144
 1698SOL     ow 6789   5.956   0.305   1.347 -1.0233 -0.0611 -0.1623
 1698SOL     hw 6790   6.042   0.339   1.322 -0.8412 -0.8918 -0.7035
 1698SOL     hw 6791   5.975   0.226   1.398 -1.4273  0.8899  1.5324
 1698SOL     vw 6792   5.970   0.299   1.350 -1.0526 -0.0452 -0.0101
 1699SOL     ow 6793   3.343   6.058   3.782 -0.1454 -0.2774  0.2665
 1699SOL     hw 6794   3.304   6.027   3.700 -2.6330  3.2551 -0.1045
 1699SOL     hw 6795   3.422   6.106   3.755 -0.4014  0.0116  0.0235
 1699SOL     vw 6796   3.348   6.060   3.767 -0.5074  0.2270  0.1856
 1700SOL     ow 6797   7.071   4.815   1.742 -0.7603  0.3076 -0.4654
 1700SOL     hw 6798   6.992   4.866   1.729 -0.1974  1.1785 -0.5182
 1700SOL     hw 6799   7.042   4.737   1.790 -2.0876 -0.6891 -2.7229
 1700SOL     vw 6800   7.057   4.811   1.747 -0.8614  0.2913 -0.7702
 1701SOL     ow 6801   0.028   1.214   0.376  1.1394  0.1031  0.2475
 1701SOL     hw 6802  -0.029   1.284   0.408 -1.2701 -1.0284 -1.2759
 1701SOL     hw 6803   0.043   1.235   0.284  0.0459 -1.4800 -0.3457
 1701SOL     vw 6804   0.022   1.226   0.368  0.6773 -0.2550 -0.0318
 1702SOL     ow 6805   7.280   6.681   1.967  0.2579  0.6140  0.2063
 1702SOL     hw 6806   7.293   6.598   1.920  0.3592 -0.0618  1.4038
 1702SOL     hw 6807   7.283   6.747   1.898 -0.0038 -0.3865 -0.7999
 1702SOL     vw 6808   7.282   6.678   1.951  0.2367  0.3929  0.2315
 1703SOL     ow 6809   1.872   1.755   5.298  0.3533  0.3259 -0.4522
 1703SOL     hw 6810   1.926   1.717   5.228  0.1413  1.1003 -1.0602
 1703SOL     hw 6811   1.816   1.818   5.252  0.4691  1.1205  0.4763
 1703SOL     vw 6812   1.871   1.758   5.282  0.3405  0.5329 -0.4098
 1704SOL     ow 6813   6.157   1.784   6.074 -0.2940 -0.3072 -0.6777
 1704SOL     hw 6814   6.092   1.721   6.042  0.1155 -2.1081  1.7479
 1704SOL     hw 6815   6.107   1.842   6.131  0.0239 -1.2916  0.6669
 1704SOL     vw 6816   6.142   1.783   6.077 -0.1981 -0.6747 -0.1802
 1705SOL     ow 6817   5.522   6.668   5.202 -0.2635  0.4220 -0.0012
 1705SOL     hw 6818   5.567   6.697   5.282 -1.4237  0.1330  0.7749
 1705SOL     hw 6819   5.450   6.614   5.233 -1.9356  1.8959 -1.1244
 1705SOL     vw 6820   5.519   6.665   5.217 -0.6371  0.5784 -0.0470
 1706SOL     ow 6821   2.485   0.502   2.423 -0.1642 -0.2508 -0.3906
 1706SOL     hw 6822   2.411   0.534   2.372  0.8435 -1.3623 -2.6757
 1706SOL     hw 6823   2.450   0.428   2.473 -0.8648  0.0302 -0.4612
 1706SOL     vw 6824   2.471   0.496   2.423 -0.1236 -0.3604 -0.7013
 1707SOL     ow 6825   4.106   6.000   0.431  0.2601  0.4318  0.2101
 1707SOL     hw 6826   4.128   6.086   0.466 -1.4533  0.4673  1.3593
 1707SOL     hw 6827   4.051   6.018   0.354  2.4554  0.3370 -1.4619
 1707SOL     vw 6828   4.101   6.013   0.425  0.3238  0.4239  0.1411
 1708SOL     ow 6829   7.232   6.133   4.406  0.4348 -0.2261 -0.4688
 1708SOL     hw 6830   7.190   6.085   4.334  2.2146 -0.3099 -1.4929
 1708SOL     hw 6831   7.283   6.066   4.452 -3.0583 -0.9205  2.9586
 1708SOL     vw 6832   7.233   6.118   4.402  0.2086 -0.3285 -0.1516
 1709SOL     ow 6833   2.553   5.371   5.818 -0.5303 -1.0831  0.2319
 1709SOL     hw 6834   2.597   5.286   5.806 -1.2687 -1.5580  0.8238
 1709SOL     hw 6835   2.617   5.425   5.865 -0.4095 -1.6240  0.6961
 1709SOL     vw 6836   2.567   5.367   5.822 -0.6117 -1.2169  0.3715
 1710SOL     ow 6837   4.440   6.556   2.475  0.4328 -0.0318  0.3495
 1710SOL     hw 6838   4.479   6.556   2.388 -1.0854 -0.2149 -0.3795
 1710SOL     hw 6839   4.448   6.465   2.505  0.7179 -0.0288  0.2816
 1710SOL     vw 6840   4.446   6.544   2.467  0.2697 -0.0553  0.2444
 1711SOL     ow 6841   0.722   4.274   5.532  0.5297  0.3936 -0.0667
 1711SOL     hw 6842   0.752   4.311   5.448  1.2510 -0.3050 -0.1364
 1711SOL     hw 6843   0.755   4.184   5.531  0.5969  0.3961  1.0001
 1711SOL     vw 6844   0.731   4.267   5.520  0.6337  0.3021  0.0646
 1712SOL     ow 6845   5.513   4.805   1.396  0.1508  0.9079  0.9115
 1712SOL     hw 6846   5.544   4.778   1.483 -1.6130  0.0795  1.3420
 1712SOL     hw 6847   5.566   4.754   1.335 -2.1027 -2.7854  1.6791
 1712SOL     vw 6848   5.524   4.795   1.400 -0.3793  0.3111  1.0695
 1713SOL     ow 6849   4.689   5.708   0.003  0.0677 -0.0454  0.6807
 1713SOL     hw 6850   4.659   5.778  -0.055  2.3660  0.7658  0.3490
 1713SOL     hw 6851   4.660   5.628  -0.039  2.0485  0.4796 -1.9796
 1713SOL     vw 6852   4.681   5.707  -0.010  0.6325  0.1309  0.2859
 1714SOL     ow 6853   1.257   0.009   2.050  0.0315  0.3123 -0.2074
 1714SOL     hw 6854   1.229  -0.046   1.977 -0.2491  0.7541 -0.4396
 1714SOL     hw 6855   1.178   0.058   2.074  0.1165  0.1511  0.4080
 1714SOL     vw 6856   1.243   0.008   2.044  0.0057  0.3490 -0.1569
 1715SOL     ow 6857   4.409   0.601   2.257 -0.1073  0.0608 -0.6258
 1715SOL     hw 6858   4.395   0.688   2.219  0.5400  0.3499 -0.2252
 1715SOL     hw 6859   4.476   0.615   2.324  1.1840 -1.0393 -1.6282
 1715SOL     vw 6860   4.416   0.614   2.261  0.1485 -0.0462 -0.7052
 1716SOL     ow 6861   4.689   4.771   6.328 -0.1881 -0.5212 -0.0507
 1716SOL     hw 6862   4.704   4.862   6.304  0.9317 -1.5412 -3.9878
 1716SOL     hw 6863   4.605   4.771   6.373  0.6970  2.6253  1.8508
 1716SOL     vw 6864   4.680   4.783   6.331  0.0763 -0.2408 -0.3190
 1717SOL     ow 6865   5.104   2.820   3.711  0.5809  0.7830 -0.5573
 1717SOL     hw 6866   5.093   2.770   3.630 -1.3437  0.5496 -0.2034
 1717SOL     hw 6867   5.185   2.787   3.749  2.3194  1.8858 -3.0311
 1717SOL     vw 6868   5.113   2.809   3.706  0.5565  0.8978 -0.8371
 1718SOL     ow 6869   0.217   3.501   4.591 -0.2729  0.4529  0.0869
 1718SOL     hw 6870   0.230   3.584   4.636 -0.8321  0.4974  0.1718
 1718SOL     hw 6871   0.306   3.471   4.571 -0.0062  0.3948  1.2829
 1718SOL     vw 6872   0.231   3.508   4.594 -0.3115  0.4511  0.2561
 1719SOL     ow 6873   0.585   2.955   4.347 -0.6570  0.2311  0.2076
 1719SOL     hw 6874   0.555   2.911   4.268 -0.9065  1.0782 -0.1703
 1719SOL     hw 6875   0.680   2.962   4.336 -0.7556  0.8433 -0.2733
 1719SOL     vw 6876   0.594   2.950   4.335 -0.7029  0.4234  0.0942
 1720SOL     ow 6877   0.720   5.586   2.345  0.3397 -0.5937  0.5565
 1720SOL     hw 6878   0.746   5.494   2.340 -0.6005 -0.7995 -1.2327
 1720SOL     hw 6879   0.782   5.632   2.288  2.9007  0.4915  3.8880
 1720SOL     vw 6880   0.732   5.580   2.337  0.5535 -0.4780  0.7600
 1721SOL     ow 6881   1.880   2.112   4.605  0.3873 -0.0581 -0.3922
 1721SOL     hw 6882   1.953   2.077   4.657  0.0419  0.2215  0.3013
 1721SOL     hw 6883   1.868   2.049   4.535  1.5635  0.0934 -0.7542
 1721SOL     vw 6884   1.888   2.099   4.603  0.4968 -0.0013 -0.3486
 1722SOL     ow 6885   4.693   4.088   1.721 -0.1127 -0.2479  0.2189
 1722SOL     hw 6886   4.652   4.169   1.692 -1.7573 -1.0643  0.1484
 1722SOL     hw 6887   4.711   4.101   1.813  4.1808  1.9763 -0.6902
 1722SOL     vw 6888   4.690   4.100   1.729  0.2367 -0.0622  0.0897
 1723SOL     ow 6889   4.550   5.866   4.031 -0.4378 -0.3266  0.2511
 1723SOL     hw 6890   4.472   5.884   3.977 -0.6274  0.4454  0.7701
 1723SOL     hw 6891   4.522   5.798   4.091 -1.3422  1.2394  1.7063
 1723SOL     vw 6892   4.536   5.860   4.032 -0.5820 -0.0181  0.5116
 1724SOL     ow 6893   3.518   6.732   0.507  0.4169 -0.1882 -0.3349
 1724SOL     hw 6894   3.496   6.643   0.534 -0.8303 -0.4561 -2.0218
 1724SOL     hw 6895   3.516   6.729   0.411 -0.4456  1.8338 -0.4304
 1724SOL     vw 6896   3.515   6.720   0.498  0.1386  0.0429 -0.5701
 1725SOL     ow 6897   0.063   1.594   7.325  0.1019  0.6711  0.5917
 1725SOL     hw 6898   0.121   1.592   7.249  0.5474 -0.1680  0.9425
 1725SOL     hw 6899  -0.012   1.646   7.297 -0.0910 -0.2556 -0.6813
 1725SOL     vw 6900   0.061   1.601   7.311  0.1352  0.4381  0.4699
 1726SOL     ow 6901   1.801   4.540   3.613 -0.1261  0.0623 -0.0361
 1726SOL     hw 6902   1.800   4.554   3.708  0.9289 -0.4649  0.0647
 1726SOL     hw 6903   1.796   4.628   3.576 -0.6190  0.2681  0.5001
 1726SOL     vw 6904   1.800   4.554   3.621 -0.0519  0.0200  0.0479
 1727SOL     ow 6905   3.904   6.643   6.781 -0.4780 -0.4754 -0.4804
 1727SOL     hw 6906   3.976   6.654   6.842 -0.0807 -1.8831 -0.6569
 1727SOL     hw 6907   3.871   6.555   6.799 -2.2932  0.2119 -0.2654
 1727SOL     vw 6908   3.909   6.633   6.791 -0.6651 -0.5703 -0.4756
 1728SOL     ow 6909   4.525   3.901   1.742  0.4070 -0.0833 -1.5636
 1728SOL     hw 6910   4.546   3.861   1.826 -0.2670 -0.0347 -1.3684
 1728SOL     hw 6911   4.588   3.972   1.732 -2.3997  3.1676  1.2105
 1728SOL     vw 6912   4.536   3.905   1.751 -0.0520  0.3521 -1.1718
 1729SOL     ow 6913   5.857   6.884   5.247  0.4283  0.1334 -0.5753
 1729SOL     hw 6914   5.819   6.906   5.162 -1.2658 -1.2856 -0.2420
 1729SOL     hw 6915   5.813   6.941   5.309  2.7707  2.2906 -0.7289
 1729SOL     vw 6916   5.847   6.894   5.244  0.5140  0.2306 -0.5517
 1730SOL     ow 6917   7.160   4.483   4.746 -0.5904 -0.2122  0.9516
 1730SOL     hw 6918   7.206   4.475   4.663 -1.7649 -0.4282  0.3010
 1730SOL     hw 6919   7.155   4.577   4.762 -0.3664 -0.1696  0.7802
 1730SOL     vw 6920   7.165   4.494   4.737 -0.7155 -0.2351  0.8430
 1731SOL     ow 6921   5.379   6.238   2.793 -0.3566  0.1227 -0.3280
 1731SOL     hw 6922   5.333   6.168   2.748 -1.5062 -0.2783  1.4079
 1731SOL     hw 6923   5.432   6.194   2.860  1.0283  0.7319 -0.9743
 1731SOL     vw 6924   5.380   6.223   2.796 -0.3257  0.1502 -0.1842
 1732SOL     ow 6925   7.114   6.399   4.115  0.6663  0.0725  0.6071
 1732SOL     hw 6926   7.033   6.358   4.085  0.3697  1.0373  0.0327
 1732SOL     hw 6927   7.089   6.489   4.136  1.6565  0.4898  0.0716
 1732SOL     vw 6928   7.100   6.406   4.113  0.7579  0.2551  0.4606
 1733SOL     ow 6929   3.543   0.303   4.725 -0.0280 -0.6850 -0.6792
 1733SOL     hw 6930   3.570   0.393   4.708  0.3872 -0.9174 -1.2622
 1733SOL     hw 6931   3.613   0.249   4.689 -0.0083 -1.2363  0.1417
 1733SOL     vw 6932   3.556   0.308   4.718  0.0294 -0.7884 -0.6480
 1734SOL     ow 6933   5.582   1.680   6.913 -0.5085  0.8220 -0.3769
 1734SOL     hw 6934   5.655   1.742   6.918 -0.9128  1.2213  0.9257
 1734SOL     hw 6935   5.621   1.600   6.878  0.4953  1.1128  0.0374
 1734SOL     vw 6936   5.597   1.678   6.909 -0.4296  0.9130 -0.1504
 1735SOL     ow 6937   5.528   1.485   1.844 -0.8225  0.4554 -0.7907
 1735SOL     hw 6938   5.473   1.445   1.912 -0.4652 -1.5815 -1.6228
 1735SOL     hw 6939   5.585   1.546   1.892 -0.4745 -1.0345  0.8059
 1735SOL     vw 6940   5.528   1.488   1.859 -0.7296 -0.0100 -0.6898
 1736SOL     ow 6941   3.377   3.902   0.429 -0.1213  0.1456  0.3321
 1736SOL     hw 6942   3.463   3.934   0.452 -0.5616  0.7573  1.1376
 1736SOL     hw 6943   3.370   3.817   0.473 -0.5691  0.8516  1.6431
 1736SOL     vw 6944   3.387   3.895   0.438 -0.2385  0.3194  0.6114
 1737SOL     ow 6945   3.498   5.552   6.834  0.0032  0.0188 -0.3557
 1737SOL     hw 6946   3.559   5.486   6.802 -0.0559  0.2394 -0.9417
 1737SOL     hw 6947   3.465   5.594   6.754  0.4116  1.0815  0.0158
 1737SOL     vw 6948   3.502   5.549   6.819  0.0494  0.1881 -0.3843
 1738SOL     ow 6949   3.425   0.889   1.248  0.6918  0.1835  0.0915
 1738SOL     hw 6950   3.452   0.806   1.210  1.1701  0.9078 -1.2482
 1738SOL     hw 6951   3.408   0.946   1.172  2.9351  2.0964  0.8860
 1738SOL     vw 6952   3.427   0.886   1.233  1.0509  0.5314  0.0196
 1739SOL     ow 6953   2.625   1.137   5.313 -0.1063 -0.1906  0.7370
 1739SOL     hw 6954   2.573   1.175   5.242 -0.8099 -1.1764  0.7071
 1739SOL     hw 6955   2.569   1.144   5.391 -0.2354 -1.1136  0.7379
 1739SOL     vw 6956   2.611   1.143   5.314 -0.2164 -0.4424  0.7331
 1740SOL     ow 6957   4.436   2.185   4.684 -0.3750 -0.5506 -0.1966
 1740SOL     hw 6958   4.402   2.249   4.622 -0.5496 -0.8346 -0.3952
 1740SOL     hw 6959   4.432   2.229   4.769 -0.3787 -0.2558 -0.3490
 1740SOL     vw 6960   4.431   2.200   4.687 -0.3984 -0.5493 -0.2432
 1741SOL     ow 6961   3.413   5.917   1.557 -0.7862 -0.1432  0.1568
 1741SOL     hw 6962   3.495   5.948   1.519 -0.0040 -3.0681 -0.8670
 1741SOL     hw 6963   3.428   5.919   1.652 -0.0978  0.7461  0.0353
 1741SOL     vw 6964   3.426   5.921   1.565 -0.5922 -0.4120  0.0057
 1742SOL     ow 6965   5.409   6.732   4.721 -0.0862 -0.1546 -0.4776
 1742SOL     hw 6966   5.381   6.696   4.805 -0.8852  2.5121  0.5019
 1742SOL     hw 6967   5.500   6.704   4.712  0.2087 -0.0467  1.5875
 1742SOL     vw 6968   5.418   6.723   4.731 -0.1528  0.2115 -0.0761
 1743SOL     ow 6969   1.723   4.426   5.324 -0.2570 -0.7079  0.4495
 1743SOL     hw 6970   1.745   4.509   5.366 -3.8799 -0.0452  1.3663
 1743SOL     hw 6971   1.777   4.425   5.245  1.6941  1.3012  1.6136
 1743SOL     vw 6972   1.733   4.437   5.319 -0.4776 -0.3555  0.7241
 1744SOL     ow 6973   1.378   5.017   6.738  0.0026  0.5471 -0.0994
 1744SOL     hw 6974   1.377   5.112   6.748  0.2057  0.5908 -0.4659
 1744SOL     hw 6975   1.287   4.990   6.753  0.0679  0.7237  0.6664
 1744SOL     vw 6976   1.366   5.026   6.742  0.0380  0.5760 -0.0467
 1745SOL     ow 6977   2.681   3.546   5.701 -0.5142 -0.5619  0.1529
 1745SOL     hw 6978   2.726   3.572   5.621 -1.2120 -0.0428 -0.0789
 1745SOL     hw 6979   2.742   3.487   5.745  0.5656  0.4378  0.0440
 1745SOL     vw 6980   2.695   3.541   5.696 -0.4637 -0.3616  0.1078
 1746SOL     ow 6981   6.833   4.480   1.567 -0.4913  0.5345  0.5868
 1746SOL     hw 6982   6.844   4.570   1.598  1.0853  0.8348 -0.7135
 1746SOL     hw 6983   6.879   4.426   1.630  1.2603  0.9793 -0.2488
 1746SOL     vw 6984   6.840   4.485   1.579 -0.0522  0.6328  0.3050
 1747SOL     ow 6985   5.440   1.299   4.136  0.2506 -0.3458  0.0416
 1747SOL     hw 6986   5.518   1.244   4.138 -0.2855 -1.0955  1.4170
 1747SOL     hw 6987   5.368   1.241   4.162 -1.1096 -0.1485 -2.8860
 1747SOL     vw 6988   5.441   1.284   4.140  0.0005 -0.4187 -0.1633
 1748SOL     ow 6989   6.632   5.609   2.648  0.0487 -0.0469  0.0284
 1748SOL     hw 6990   6.554   5.564   2.679 -0.7981  1.7703  0.7116
 1748SOL     hw 6991   6.668   5.651   2.726  3.3379 -2.9920  0.3168
 1748SOL     vw 6992   6.627   5.609   2.662  0.3710 -0.1960  0.1566
 1749SOL     ow 6993   1.256   0.552   4.334 -0.2611  0.2502 -0.0839
 1749SOL     hw 6994   1.321   0.538   4.265  0.5774 -1.2221  0.9362
 1749SOL     hw 6995   1.307   0.551   4.415 -1.1148  2.7099  0.5523
 1749SOL     vw 6996   1.272   0.550   4.336 -0.2631  0.3805  0.1347
 1750SOL     ow 6997   5.871   4.497   6.459  0.5306 -0.9469  0.2209
 1750SOL     hw 6998   5.803   4.480   6.394 -1.2255  1.0133  1.4371
 1750SOL     hw 6999   5.906   4.583   6.435  0.2946 -0.4791  1.5000
 1750SOL     vw 7000   5.867   4.506   6.447  0.2677 -0.6266  0.5500
 1751SOL     ow 7001   0.935   2.573   4.791 -0.0842  0.6090 -0.4796
 1751SOL     hw 7002   0.998   2.582   4.862 -0.6132  0.4624  0.0226
 1751SOL     hw 7003   0.969   2.502   4.736  0.8648  1.4232 -0.9626
 1751SOL     vw 7004   0.948   2.565   4.793 -0.0287  0.6970 -0.4768
 1752SOL     ow 7005   0.109   6.029   3.055  0.0030  0.2445 -0.1129
 1752SOL     hw 7006   0.077   6.116   3.080  1.0049  0.1401  1.6767
 1752SOL     hw 7007   0.029   5.978   3.042 -0.6122  1.4610 -1.4606
 1752SOL     vw 7008   0.094   6.034   3.057  0.0541  0.3915 -0.0547
 1753SOL     ow 7009   2.118   5.269   6.443  0.0177 -0.4240  0.6563
 1753SOL     hw 7010   2.149   5.359   6.447  2.0132 -1.0503  0.4228
 1753SOL     hw 7011   2.198   5.217   6.433 -0.9838 -2.2962  1.8677
 1753SOL     vw 7012   2.133   5.274   6.442  0.1489 -0.7539  0.7854
 1754SOL     ow 7013   6.724   4.740   1.389  0.5105 -0.9058 -0.0923
 1754SOL     hw 7014   6.634   4.718   1.364  0.9829 -1.4263 -1.4297
 1754SOL     hw 7015   6.735   4.832   1.365  0.2696 -0.7715  0.3014
 1754SOL     vw 7016   6.714   4.749   1.383  0.5410 -0.9570 -0.2167
 1755SOL     ow 7017   6.578   1.257   0.608  0.2137  0.0079 -0.3487
 1755SOL     hw 7018   6.639   1.317   0.565  2.2704 -1.2964  0.5801
 1755SOL     hw 7019   6.578   1.285   0.699 -0.8584  0.1708 -0.3851
 1755SOL     vw 7020   6.586   1.269   0.614  0.3438 -0.1428 -0.2309
 1756SOL     ow 7021   7.090   6.255   6.877  0.1314 -0.7779 -0.2510
 1756SOL     hw 7022   7.052   6.270   6.790 -1.3009 -1.8244  0.1554
 1756SOL     hw 7023   7.121   6.164   6.874 -2.5964 -1.8729  1.1970
 1756SOL     vw 7024   7.089   6.245   6.865 -0.4175 -1.0607 -0.0064
 1757SOL     ow 7025   1.429   1.346   7.210  0.5293  0.1412  0.2489
 1757SOL     hw 7026   1.337   1.321   7.206  0.6503 -0.3734  0.5663
 1757SOL     hw 7027   1.428   1.439   7.230  0.0745 -0.0888  1.3888
 1757SOL     vw 7028   1.417   1.355   7.212  0.4853  0.0429  0.4413
 1758SOL     ow 7029   4.492   7.295   5.480 -0.4940  0.3807  0.0216
 1758SOL     hw 7030   4.522   7.340   5.401  2.1496 -0.1092  0.6437
 1758SOL     hw 7031   4.420   7.349   5.513 -1.4736  0.7639 -2.5041
 1758SOL     vw 7032   4.486   7.308   5.474 -0.2747  0.3667 -0.2296
 1759SOL     ow 7033   2.675   1.034   5.816 -0.0250  0.0209 -0.2682
 1759SOL     hw 7034   2.606   1.011   5.753 -1.4523 -1.7620  1.8091
 1759SOL     hw 7035   2.753   0.990   5.782 -0.6891 -0.6713 -0.9556
 1759SOL     vw 7036   2.676   1.025   5.803 -0.3009 -0.3057 -0.0846
 1760SOL     ow 7037   2.538   1.564   1.589 -0.1251 -0.4730  0.4882
 1760SOL     hw 7038   2.459   1.595   1.634  0.1073 -0.8823  1.2019
 1760SOL     hw 7039   2.549   1.474   1.620 -0.2509 -0.9575 -0.8103
 1760SOL     vw 7040   2.529   1.556   1.599 -0.1110 -0.5909  0.4110
 1761SOL     ow 7041   1.978   5.314   4.538  0.2844 -0.4117 -0.4144
 1761SOL     hw 7042   1.951   5.356   4.456  0.4422  0.1369 -0.1953
 1761SOL     hw 7043   1.916   5.347   4.603 -0.2769 -1.4010 -0.4387
 1761SOL     vw 7044   1.966   5.324   4.536  0.2312 -0.4699 -0.3886
 1762SOL     ow 7045   0.968   4.829   1.030 -0.6724 -0.0844 -0.3556
 1762SOL     hw 7046   0.888   4.859   0.987 -0.7200  0.9829  0.4508
 1762SOL     hw 7047   1.033   4.826   0.959 -1.3962 -0.9620 -1.0177
 1762SOL     vw 7048   0.966   4.832   1.015 -0.7742 -0.0594 -0.3366
 1763SOL     ow 7049   2.722   5.936   4.034 -0.0503  0.0981  0.3345
 1763SOL     hw 7050   2.737   5.854   4.081  0.4236  0.1787  0.3269
 1763SOL     hw 7051   2.726   6.004   4.102 -2.2257 -0.0096  0.6539
 1763SOL     vw 7052   2.724   5.934   4.049 -0.2748  0.0944  0.3757
 1764SOL     ow 7053   2.897   2.791   6.517 -0.5024  0.5108 -0.1140
 1764SOL     hw 7054   2.971   2.837   6.477  0.6583 -0.9656  0.2581
 1764SOL     hw 7055   2.920   2.699   6.511 -1.7715  0.0855  1.1148
 1764SOL     vw 7056   2.910   2.785   6.511 -0.5169  0.2599  0.0973
 1765SOL     ow 7057   6.296   6.874   4.118 -0.5833 -0.0983 -0.0619
 1765SOL     hw 7058   6.282   6.957   4.163 -0.8256 -0.2035  0.0604
 1765SOL     hw 7059   6.297   6.809   4.188 -6.0603 -0.9854 -0.3525
 1765SOL     vw 7060   6.294   6.877   4.133 -1.3378 -0.2291 -0.0844
 1766SOL     ow 7061   6.454   5.269   4.943 -0.3355 -0.8293  0.0323
 1766SOL     hw 7062   6.420   5.276   4.854  0.0737  0.4218 -0.0422
 1766SOL     hw 7063   6.426   5.350   4.986  0.0902 -1.0928  0.8315
 1766SOL     vw 7064   6.446   5.280   4.937 -0.2251 -0.6990  0.1280
 1767SOL     ow 7065   0.858   2.545   5.169 -0.4289  0.1798 -0.4156
 1767SOL     hw 7066   0.855   2.459   5.128 -0.2193 -0.0645  0.0745
 1767SOL     hw 7067   0.766   2.572   5.175 -0.9775 -1.8319  3.2111
 1767SOL     vw 7068   0.845   2.537   5.165 -0.4736 -0.1178  0.1276
 1768SOL     ow 7069   0.715   5.652   4.063  0.1817  0.2046 -0.0625
 1768SOL     hw 7070   0.706   5.742   4.030  2.6325  0.8355  0.7593
 1768SOL     hw 7071   0.706   5.597   3.986  2.5791  1.4312 -1.3311
 1768SOL     vw 7072   0.712   5.657   4.049  0.8214  0.4494 -0.1214
 1769SOL     ow 7073   2.550   1.656   2.338  0.6005  0.0404 -0.5580
 1769SOL     hw 7074   2.590   1.603   2.407  1.8872  2.7828  0.9849
 1769SOL     hw 7075   2.600   1.634   2.259  1.9051 -0.1793  0.2876
 1769SOL     vw 7076   2.562   1.646   2.337  0.9425  0.3733 -0.2428
 1770SOL     ow 7077   2.300   3.657   4.511 -0.0044  0.0997 -0.2084
 1770SOL     hw 7078   2.380   3.631   4.464 -0.0760 -0.1117 -0.2126
 1770SOL     hw 7079   2.240   3.685   4.442 -0.3736 -0.9096 -0.3073
 1770SOL     vw 7080   2.303   3.657   4.496 -0.0627 -0.0613 -0.2222
 1771SOL     ow 7081   0.053   0.849   6.753  0.2486  0.5424 -0.3566
 1771SOL     hw 7082   0.051   0.932   6.801 -0.0485 -0.1162  0.8155
 1771SOL     hw 7083  -0.027   0.848   6.702 -1.2290 -0.2406  1.8234
 1771SOL     vw 7084   0.042   0.860   6.753  0.0144  0.3522  0.0856
 1772SOL     ow 7085   5.373   4.862   0.876  0.5105  0.4707  0.0876
 1772SOL     hw 7086   5.330   4.927   0.932 -0.2452  1.4450 -1.5738
 1772SOL     hw 7087   5.444   4.828   0.931 -1.0517  0.3144  2.1704
 1772SOL     vw 7088   5.376   4.866   0.891  0.2048  0.5784  0.1432
 1773SOL     ow 7089   6.968   5.254   0.311 -0.6200  0.0782  0.2838
 1773SOL     hw 7090   6.982   5.278   0.219 -1.8318  0.7551  0.2578
 1773SOL     hw 7091   7.000   5.163   0.317  2.0524  0.9027 -0.1149
 1773SOL     vw 7092   6.974   5.245   0.300 -0.4275  0.2766  0.2277
 1774SOL     ow 7093   1.286   2.627   2.061 -0.2717  0.3235  0.5639
 1774SOL     hw 7094   1.205   2.578   2.074  2.0789 -4.0566  0.5073
 1774SOL     hw 7095   1.336   2.575   1.998  3.6290  1.2311  2.5555
 1774SOL     vw 7096   1.282   2.614   2.055  0.5531 -0.1346  0.8191
 1775SOL     ow 7097   2.098   3.692   6.809 -0.3650 -0.2389 -0.2560
 1775SOL     hw 7098   2.188   3.666   6.791 -0.6931 -1.7711  0.2136
 1775SOL     hw 7099   2.052   3.676   6.727 -0.0386  1.5737 -0.8476
 1775SOL     vw 7100   2.104   3.687   6.796 -0.3654 -0.2019 -0.2718
 1776SOL     ow 7101   1.315   2.804   2.327  0.2649 -0.4231 -0.1768
 1776SOL     hw 7102   1.344   2.843   2.410  1.1446 -1.5386  0.0616
 1776SOL     hw 7103   1.242   2.747   2.352  0.5977 -0.8399 -0.1444
 1776SOL     vw 7104   1.309   2.801   2.341  0.4249 -0.6251 -0.1411
 1777SOL     ow 7105   1.138   1.498   1.570 -0.3194  0.3520 -0.4747
 1777SOL     hw 7106   1.232   1.488   1.558 -0.4735  0.2963 -1.9204
 1777SOL     hw 7107   1.125   1.590   1.589  0.0532  0.3002  0.0299
 1777SOL     vw 7108   1.148   1.509   1.571 -0.2906  0.3378 -0.5988
 1778SOL     ow 7109   2.128   5.898   4.322  0.2447 -0.2363 -0.3847
 1778SOL     hw 7110   2.073   5.918   4.398  0.0494 -0.1507 -0.5493
 1778SOL     hw 7111   2.067   5.867   4.255  0.0254  2.1880 -1.4334
 1778SOL     vw 7112   2.113   5.896   4.323  0.1900  0.0951 -0.5448
 1779SOL     ow 7113   3.993   2.908   4.016  0.1072 -0.0691  0.0200
 1779SOL     hw 7114   3.905   2.945   4.005 -0.0696 -1.0436 -2.4711
 1779SOL     hw 7115   3.998   2.887   4.110 -2.0298  0.6359  0.3603
 1779SOL     vw 7116   3.982   2.910   4.027 -0.1980 -0.1047 -0.2639
 1780SOL     ow 7117   6.158   2.677   4.223  0.2091  0.3812 -0.0545
 1780SOL     hw 7118   6.254   2.679   4.230  0.1565  1.6571  0.8472
 1780SOL     hw 7119   6.129   2.651   4.310 -0.2646 -0.7105 -0.5317
 1780SOL     vw 7120   6.167   2.674   4.235  0.1395  0.4055  0.0017
 1781SOL     ow 7121   3.029   7.172   5.798 -0.1796 -0.0072 -0.0378
 1781SOL     hw 7122   3.093   7.170   5.726 -1.1410 -0.1029 -0.9235
 1781SOL     hw 7123   3.004   7.264   5.804  0.1641  0.0610  0.4389
 1781SOL     vw 7124   3.034   7.184   5.789 -0.2611 -0.0110 -0.0916
 1782SOL     ow 7125   4.975   4.193   7.021  0.1135  0.0612 -0.0571
 1782SOL     hw 7126   4.971   4.288   7.034  0.0467  0.1246 -0.4978
 1782SOL     hw 7127   4.964   4.182   6.926 -2.0610 -0.5273  0.2199
 1782SOL     vw 7128   4.973   4.204   7.010 -0.1822 -0.0081 -0.0787
 1783SOL     ow 7129   4.031   2.730   5.178 -0.4713 -0.0358 -0.0138
 1783SOL     hw 7130   3.997   2.699   5.094 -0.7143  1.8260 -0.6595
 1783SOL     hw 7131   3.992   2.672   5.243 -1.4406 -0.6210 -1.0815
 1783SOL     vw 7132   4.022   2.718   5.176 -0.6316  0.1326 -0.2401
 1784SOL     ow 7133   7.356   3.844   7.031 -0.1847  0.3400  0.3751
 1784SOL     hw 7134   7.265   3.851   7.001  0.5506  1.5395 -1.8354
 1784SOL     hw 7135   7.362   3.905   7.104 -1.3471 -0.3921  1.1075
 1784SOL     vw 7136   7.345   3.853   7.036 -0.2410  0.4017  0.1802
 1785SOL     ow 7137   0.997   4.667   6.090 -0.0956  0.0068  0.1285
 1785SOL     hw 7138   0.927   4.610   6.123  0.8525 -0.0442  2.2294
 1785SOL     hw 7139   0.960   4.707   6.011 -2.8517  0.6835  1.6113
 1785SOL     vw 7140   0.983   4.665   6.084 -0.3341  0.0892  0.6013
 1786SOL     ow 7141   4.851   2.896   1.080 -0.2176  0.0574 -0.0797
 1786SOL     hw 7142   4.872   2.807   1.052  1.5227  0.6381 -0.7464
 1786SOL     hw 7143   4.920   2.950   1.043 -1.5914  1.8040 -0.2311
 1786SOL     vw 7144   4.863   2.891   1.072 -0.1693  0.3644 -0.1876
 1787SOL     ow 7145   5.517   5.474   7.210 -0.0762 -1.1318 -0.3468
 1787SOL     hw 7146   5.585   5.438   7.152  1.6632  0.2501  0.7156
 1787SOL     hw 7147   5.480   5.547   7.160  1.4507  0.0844  0.2037
 1787SOL     vw 7148   5.521   5.479   7.196  0.3548 -0.7889 -0.1340
 1788SOL     ow 7149   2.340   5.525   6.077 -0.2084 -0.2459  0.2170
 1788SOL     hw 7150   2.399   5.555   6.008 -1.3597  0.5800 -0.4647
 1788SOL     hw 7151   2.347   5.430   6.075 -0.6564 -0.2877 -1.5163
 1788SOL     vw 7152   2.348   5.516   6.067 -0.4194 -0.1423 -0.1016
 1789SOL     ow 7153   7.268   0.151   5.607 -0.1950  0.2309 -0.3361
 1789SOL     hw 7154   7.253   0.187   5.520  1.4105  0.1095 -0.6830
 1789SOL     hw 7155   7.184   0.111   5.631 -0.9826  1.1904 -1.3572
 1789SOL     vw 7156   7.255   0.151   5.599 -0.0873  0.3415 -0.5162
 1790SOL     ow 7157   2.124   3.141   1.299 -0.3051 -0.5741  0.1012
 1790SOL     hw 7158   2.166   3.210   1.350  0.6506 -0.8887 -0.2431
 1790SOL     hw 7159   2.173   3.137   1.218 -1.1362 -0.8194 -0.4023
 1790SOL     vw 7160   2.136   3.150   1.295 -0.2886 -0.6479 -0.0107
 1791SOL     ow 7161   3.961   1.991   4.524 -0.4931  0.7130  0.4475
 1791SOL     hw 7162   3.957   2.087   4.529  0.4002  0.9391 -1.7761
 1791SOL     hw 7163   3.870   1.963   4.524 -0.7721  1.5714  0.9774
 1791SOL     vw 7164   3.949   2.000   4.524 -0.4121  0.8562  0.2241
 1792SOL     ow 7165   2.201   0.617   0.282  0.1760 -0.5960 -0.2906
 1792SOL     hw 7166   2.254   0.638   0.206 -0.4418 -0.7753 -0.7760
 1792SOL     hw 7167   2.258   0.562   0.336  1.5419  1.5996  0.6464
 1792SOL     vw 7168   2.215   0.612   0.279  0.2747 -0.3299 -0.2310
 1793SOL     ow 7169   5.491   6.408   4.059  0.3322 -0.3755 -0.7920
 1793SOL     hw 7170   5.505   6.351   4.136 -2.2236 -0.4768 -0.3264
 1793SOL     hw 7171   5.405   6.445   4.073  0.0453  0.0536 -3.3808
 1793SOL     vw 7172   5.482   6.405   4.071 -0.0429 -0.3324 -1.0722
 1794SOL     ow 7173   1.809   6.216   6.054  0.1690 -0.3310  0.2734
 1794SOL     hw 7174   1.729   6.239   6.101 -0.8426 -1.0655 -1.0120
 1794SOL     hw 7175   1.865   6.176   6.119 -0.3110  0.6192  1.3015
 1794SOL     vw 7176   1.805   6.214   6.069 -0.0278 -0.3023  0.2394
 1795SOL     ow 7177   6.893   3.182   4.122 -0.1072  0.0583 -0.0544
 1795SOL     hw 7178   6.845   3.118   4.069  1.8052 -0.1688 -1.5947
 1795SOL     hw 7179   6.826   3.245   4.149 -1.6324 -1.3388 -0.4047
 1795SOL     vw 7180   6.877   3.182   4.119 -0.0560 -0.1559 -0.3037
 1796SOL     ow 7181   5.236   0.054   1.357  0.6570  0.3966  0.9647
 1796SOL     hw 7182   5.322   0.019   1.335  0.4910  0.1424  0.6958
 1796SOL     hw 7183   5.182   0.034   1.280  0.3676  0.5792  1.1170
 1796SOL     vw 7184   5.240   0.046   1.344  0.5968  0.3872  0.9494
 1797SOL     ow 7185   2.611   4.660   2.333  0.0149 -0.3851 -0.1360
 1797SOL     hw 7186   2.694   4.695   2.364 -2.0715  1.9801  3.5191
 1797SOL     hw 7187   2.612   4.568   2.359  1.0292 -0.0779  1.0083
 1797SOL     vw 7188   2.622   4.653   2.340 -0.1265 -0.0324  0.4972
 1798SOL     ow 7189   1.716   0.305   3.743 -0.3630 -0.3661  0.5231
 1798SOL     hw 7190   1.639   0.329   3.794 -0.0995 -0.3302  0.9192
 1798SOL     hw 7191   1.728   0.212   3.762 -1.2203 -0.7620 -0.7859
 1798SOL     vw 7192   1.708   0.296   3.752 -0.4413 -0.4136  0.4026
 1799SOL     ow 7193   3.761   5.346   0.333 -0.1405  0.7251 -0.5483
 1799SOL     hw 7194   3.765   5.267   0.388  0.5489  1.4169  0.4204
 1799SOL     hw 7195   3.837   5.397   0.358 -0.2396  1.4259 -1.6183
 1799SOL     vw 7196   3.771   5.342   0.344 -0.0626  0.9089 -0.5617
 1800SOL     ow 7197   5.984   1.316   3.675  0.0716 -0.2533  0.6130
 1800SOL     hw 7198   5.959   1.279   3.760  0.3759  0.9428  1.2445
 1800SOL     hw 7199   6.001   1.408   3.693  0.7426 -0.1130 -0.6370
 1800SOL     vw 7200   5.983   1.323   3.689  0.2005 -0.0770  0.5314
 1801SOL     ow 7201   2.844   1.519   4.401 -0.2471 -0.7676  0.1509
 1801SOL     hw 7202   2.867   1.431   4.430 -2.6863 -2.5141 -2.6117
 1801SOL     hw 7203   2.787   1.553   4.469 -0.9873 -2.2312  0.3037
 1801SOL     vw 7204   2.840   1.512   4.414 -0.6667 -1.1911 -0.1931
 1802SOL     ow 7205   5.404   5.204   5.675  0.3332 -0.0204  0.6330
 1802SOL     hw 7206   5.375   5.113   5.676  2.2799 -0.7034  0.0369
 1802SOL     hw 7207   5.497   5.199   5.699  1.2014  1.4835 -1.9953
 1802SOL     vw 7208   5.412   5.191   5.679  0.7048  0.0877  0.2074
 1803SOL     ow 7209   3.518   1.534   5.929  0.0124  0.2229 -0.1666
 1803SOL     hw 7210   3.525   1.454   5.877 -1.2997 -0.6769  0.9447
 1803SOL     hw 7211   3.529   1.504   6.019  1.1610  1.5757  0.1641
 1803SOL     vw 7212   3.520   1.519   5.934 -0.0091  0.2826  0.0236
 1804SOL     ow 7213   6.141   0.845   4.407  0.1210 -0.4704  0.3210
 1804SOL     hw 7214   6.209   0.912   4.394  0.2420 -0.1355  2.3033
 1804SOL     hw 7215   6.059   0.891   4.389  0.1345  0.5614  2.5525
 1804SOL     vw 7216   6.139   0.860   4.403  0.1390 -0.2900  0.8769
 1805SOL     ow 7217   2.186   2.405   2.992 -0.3049 -0.3073  1.3551
 1805SOL     hw 7218   2.250   2.379   2.926 -0.5282  3.2963 -0.4993
 1805SOL     hw 7219   2.217   2.489   3.024 -2.5192  0.0860  2.6994
 1805SOL     vw 7220   2.199   2.412   2.988 -0.6267  0.2199  1.2878
 1806SOL     ow 7221   3.942   0.779   4.615  0.7069 -0.0315 -0.1420
 1806SOL     hw 7222   4.011   0.839   4.589  0.2830  1.0020  1.0219
 1806SOL     hw 7223   3.988   0.705   4.655  1.1791  0.1166 -0.4025
 1806SOL     vw 7224   3.957   0.777   4.616  0.7132  0.1244 -0.0229
 1807SOL     ow 7225   5.466   3.893   4.144 -0.3571 -0.3959  0.1870
 1807SOL     hw 7226   5.403   3.936   4.201  0.4313 -3.1337  3.4139
 1807SOL     hw 7227   5.544   3.947   4.148 -1.6752  1.9877 -2.3400
 1807SOL     vw 7228   5.468   3.906   4.152 -0.4270 -0.4426  0.2792
 1808SOL     ow 7229   0.051   6.521   7.358 -0.6734 -0.6185 -0.1665
 1808SOL     hw 7230   0.128   6.577   7.352 -0.1439 -1.2552  0.5564
 1808SOL     hw 7231   0.031   6.498   7.267 -1.6657  1.7236 -0.6194
 1808SOL     vw 7232   0.059   6.525   7.345 -0.7344 -0.3934 -0.1309
 1809SOL     ow 7233   5.341   0.537   5.414  0.0455  0.2313 -0.4080
 1809SOL     hw 7234   5.386   0.538   5.329 -1.9768  0.3483 -1.5499
 1809SOL     hw 7235   5.378   0.611   5.461  0.7011  0.6146 -1.4759
 1809SOL     vw 7236   5.352   0.547   5.409 -0.1349  0.2973 -0.6995
 1810SOL     ow 7237   1.207   6.419   6.370 -0.1840 -0.7425 -0.1758
 1810SOL     hw 7238   1.236   6.504   6.335  1.6212 -0.4578  1.8057
 1810SOL     hw 7239   1.260   6.406   6.449  0.4795 -4.2840 -1.0206
 1810SOL     vw 7240   1.218   6.429   6.376  0.1417 -1.1723 -0.0260
 1811SOL     ow 7241   6.477   1.126   6.048  0.2352 -0.1508 -0.0566
 1811SOL     hw 7242   6.497   1.159   5.961  1.7273  0.2674  0.4205
 1811SOL     hw 7243   6.407   1.184   6.080  2.7476  2.7017  0.7546
 1811SOL     vw 7244   6.470   1.138   6.041  0.7634  0.2808  0.1132
 1812SOL     ow 7245   5.750   4.271   7.123  0.0024  0.1463 -0.6657
 1812SOL     hw 7246   5.816   4.260   7.191 -1.3881 -0.8105  0.6207
 1812SOL     hw 7247   5.667   4.247   7.167 -1.0400  0.2261 -2.4934
 1812SOL     vw 7248   5.748   4.266   7.138 -0.3183  0.0310 -0.7372
 1813SOL     ow 7249   2.062   0.017   4.789  0.0418  0.1906  0.0764
 1813SOL     hw 7250   2.022  -0.067   4.768  1.4269 -1.0534  2.1217
 1813SOL     hw 7251   2.143   0.019   4.739  0.4002 -0.0795  0.6321
 1813SOL     vw 7252   2.067   0.006   4.780  0.2720 -0.0091  0.4199
 1814SOL     ow 7253   4.135   4.474   7.258 -0.1610  0.4304 -0.2809
 1814SOL     hw 7254   4.082   4.476   7.338 -2.3137 -0.2697 -1.6103
 1814SOL     hw 7255   4.223   4.449   7.288 -1.3010 -1.5863  1.6604
 1814SOL     vw 7256   4.140   4.471   7.273 -0.5953  0.0720 -0.2003
 1815SOL     ow 7257   3.702   6.382   0.687 -0.3280  0.0727 -0.1108
 1815SOL     hw 7258   3.739   6.342   0.609  1.4251  0.4471  0.4800
 1815SOL     hw 7259   3.759   6.456   0.705 -0.7940  0.0853  1.4483
 1815SOL     vw 7260   3.714   6.387   0.679 -0.1581  0.1237  0.1729
 1816SOL     ow 7261   2.375   0.893   6.538  0.1797  0.2553 -0.4588
 1816SOL     hw 7262   2.444   0.934   6.487 -0.5397  1.3103 -0.6091
 1816SOL     hw 7263   2.327   0.840   6.474  0.6939 -0.2949 -0.3980
 1816SOL     vw 7264   2.377   0.891   6.523  0.1526  0.3219 -0.4704
 1817SOL     ow 7265   0.684   7.306   3.506  0.5071 -0.7900 -0.4131
 1817SOL     hw 7266   0.699   7.326   3.599 -0.4371  0.0800 -0.4328
 1817SOL     hw 7267   0.755   7.246   3.483  1.3012 -0.2923  0.6346
 1817SOL     vw 7268   0.695   7.301   3.515  0.4873 -0.6092 -0.2775
 1818SOL     ow 7269   1.648   6.684   2.451  0.1557  0.7150 -0.1800
 1818SOL     hw 7270   1.677   6.775   2.455  0.1116  0.7047  3.7115
 1818SOL     hw 7271   1.655   6.652   2.541  2.1884 -3.8365 -1.6481
 1818SOL     vw 7272   1.653   6.692   2.463  0.4181  0.1130  0.1397
 1819SOL     ow 7273   1.446   0.214   2.903  0.0904 -0.3826  0.0359
 1819SOL     hw 7274   1.460   0.120   2.887 -0.8449 -0.4862 -0.2187
 1819SOL     hw 7275   1.515   0.257   2.853  0.2926 -0.9172 -0.1556
 1819SOL     vw 7276   1.457   0.207   2.894 -0.0063 -0.4668 -0.0230
 1820SOL     ow 7277   1.386   1.439   5.800 -0.0097  0.2837  0.5833
 1820SOL     hw 7278   1.406   1.531   5.821  0.1687  0.5953 -0.8272
 1820SOL     hw 7279   1.341   1.443   5.715  2.6209 -1.0990 -1.0082
 1820SOL     vw 7280   1.383   1.452   5.792  0.3609  0.1424  0.1872
 1821SOL     ow 7281   3.322   3.559   1.793 -0.1952 -0.4608  0.2475
 1821SOL     hw 7282   3.288   3.602   1.714 -1.3672  0.0336  1.0067
 1821SOL     hw 7283   3.352   3.631   1.848 -1.2195 -0.6611  1.0897
 1821SOL     vw 7284   3.321   3.574   1.790 -0.4848 -0.4221  0.4588
 1822SOL     ow 7285   6.030   1.078   1.060 -0.0181 -0.5936  0.6414
 1822SOL     hw 7286   6.089   1.115   1.125 -0.5379  0.7912  0.3589
 1822SOL     hw 7287   6.002   1.153   1.007  0.1124 -1.6305 -0.9626
 1822SOL     vw 7288   6.034   1.093   1.061 -0.0696 -0.5478  0.3926
 1823SOL     ow 7289   3.222   5.781   1.994 -0.7957  0.0072  0.1437
 1823SOL     hw 7290   3.188   5.745   1.912 -0.6629 -0.6978  0.3907
 1823SOL     hw 7291   3.238   5.873   1.975 -0.1509 -0.2880 -0.8234
 1823SOL     vw 7292   3.220   5.788   1.981 -0.6931 -0.1249  0.0486
 1824SOL     ow 7293   3.091   3.474   2.486  0.4501  0.5243  0.6538
 1824SOL     hw 7294   3.075   3.416   2.411 -2.0674 -0.8154  2.0651
 1824SOL     hw 7295   3.183   3.460   2.509  0.8266 -0.2567 -1.1802
 1824SOL     vw 7296   3.101   3.465   2.479  0.1676  0.2445  0.5981
 1825SOL     ow 7297   1.639   1.564   7.277  0.1836 -0.1272 -0.0128
 1825SOL     hw 7298   1.686   1.502   7.221 -0.2877 -0.8741  0.3890
 1825SOL     hw 7299   1.701   1.586   7.346  0.1508 -0.6676  0.1990
 1825SOL     vw 7300   1.653   1.559   7.279  0.1171 -0.2971  0.0684
 1826SOL     ow 7301   2.565   0.213   5.692 -0.3400 -0.7050 -0.1228
 1826SOL     hw 7302   2.586   0.264   5.614  2.9970 -3.0909 -0.9954
 1826SOL     hw 7303   2.506   0.145   5.661 -4.5685  2.0586  0.9904
 1826SOL     vw 7304   2.560   0.211   5.678 -0.4576 -0.6552 -0.0911
 1827SOL     ow 7305   4.071   5.957   0.880  0.1348 -0.7492 -0.4208
 1827SOL     hw 7306   4.035   5.935   0.966 -1.7323  0.0605 -0.9502
 1827SOL     hw 7307   4.010   5.918   0.818  1.1061 -0.7602 -1.4023
 1827SOL     vw 7308   4.058   5.949   0.883  0.0167 -0.6437 -0.6202
 1828SOL     ow 7309   4.258   6.490   1.637 -0.5173  0.2548  0.3733
 1828SOL     hw 7310   4.287   6.504   1.547 -5.0921 -2.2172 -1.8426
 1828SOL     hw 7311   4.316   6.422   1.671 -0.4474 -0.9100 -1.8937
 1828SOL     vw 7312   4.269   6.483   1.629 -1.1120 -0.2253 -0.2181
 1829SOL     ow 7313   0.214   6.168   7.215 -0.3061 -0.3307  0.3334
 1829SOL     hw 7314   0.262   6.135   7.139  2.0741  0.1062  1.5476
 1829SOL     hw 7315   0.262   6.134   7.291 -0.3608  2.1949  1.6162
 1829SOL     vw 7316   0.227   6.159   7.215  0.0007  0.0603  0.6628
 1830SOL     ow 7317   5.039   1.643   3.795 -0.9011  0.4616  0.1703
 1830SOL     hw 7318   5.016   1.699   3.721 -0.7178 -0.7416 -0.8060
 1830SOL     hw 7319   5.055   1.705   3.867 -1.6696  1.6096 -0.6119
 1830SOL     vw 7320   5.038   1.659   3.795 -0.9785  0.4542 -0.0616
 1831SOL     ow 7321   5.599   6.137   3.929  0.0370  0.3214  0.1532
 1831SOL     hw 7322   5.532   6.070   3.922  2.0120 -1.6410 -1.0441
 1831SOL     hw 7323   5.551   6.216   3.954 -2.9162 -0.5808 -2.1003
 1831SOL     vw 7324   5.584   6.139   3.932 -0.0923 -0.0567 -0.3021
 1832SOL     ow 7325   3.299   2.010   7.194  0.3345 -0.7557 -0.4312
 1832SOL     hw 7326   3.354   2.080   7.160 -0.1535  0.7318  1.6159
 1832SOL     hw 7327   3.353   1.966   7.259  0.1953 -1.4366 -0.7705
 1832SOL     vw 7328   3.313   2.013   7.198  0.2518 -0.6493 -0.2062
 1833SOL     ow 7329   2.994   1.156   6.000  0.7178  0.2956  0.1124
 1833SOL     hw 7330   3.076   1.204   5.995  1.7343 -1.3620  0.2595
 1833SOL     hw 7331   3.003   1.100   6.076 -1.4934  1.6664  1.5016
 1833SOL     vw 7332   3.006   1.155   6.009  0.5602  0.2577  0.3152
 1834SOL     ow 7333   4.881   2.906   2.286 -0.0717  0.6973 -0.1602
 1834SOL     hw 7334   4.894   2.812   2.288 -0.6897  0.5299 -1.9036
 1834SOL     hw 7335   4.955   2.942   2.336  1.3326 -0.6209 -1.1874
 1834SOL     vw 7336   4.893   2.899   2.293  0.0322  0.5013 -0.5258
 1835SOL     ow 7337   0.969   0.645   6.860 -0.9872  0.2271  0.3188
 1835SOL     hw 7338   0.949   0.583   6.790  0.5767 -1.3977  1.2161
 1835SOL     hw 7339   1.059   0.624   6.885 -0.6649  2.4027  1.1797
 1835SOL     vw 7340   0.978   0.634   6.854 -0.7383  0.2997  0.5507
 1836SOL     ow 7341   2.366   1.156   6.191 -0.1167 -0.1349 -0.2632
 1836SOL     hw 7342   2.280   1.116   6.197  0.3114 -0.8653  1.9462
 1836SOL     hw 7343   2.427   1.084   6.206  0.9136  0.3766 -1.7457
 1836SOL     vw 7344   2.363   1.141   6.194  0.0757 -0.1637 -0.1671
 1837SOL     ow 7345   4.449   6.796   5.313 -0.1026  0.2169 -1.1523
 1837SOL     hw 7346   4.396   6.720   5.335  2.8409 -1.1098  2.6081
 1837SOL     hw 7347   4.397   6.871   5.343 -1.4777 -0.6113 -1.3827
 1837SOL     vw 7348   4.435   6.796   5.320  0.1044 -0.0679 -0.6862
 1838SOL     ow 7349   6.836   2.160   4.449 -0.0482 -0.2290 -0.2630
 1838SOL     hw 7350   6.887   2.089   4.488 -0.4974 -1.1259 -1.2666
 1838SOL     hw 7351   6.824   2.222   4.521  0.1089 -1.2955  0.7241
 1838SOL     vw 7352   6.841   2.159   4.464 -0.0865 -0.4880 -0.2654
 1839SOL     ow 7353   5.673   0.245   3.089  0.0572 -0.1794  0.1308
 1839SOL     hw 7354   5.690   0.321   3.034  1.2333  0.5755  1.4739
 1839SOL     hw 7355   5.604   0.197   3.043  0.4264  0.8338 -1.5563
 1839SOL     vw 7356   5.666   0.249   3.076  0.2611  0.0539  0.0852
 1840SOL     ow 7357   5.720   5.171   6.944 -0.1199 -0.2663  0.2779
 1840SOL     hw 7358   5.800   5.179   6.892 -0.6681 -0.3980 -0.6171
 1840SOL     hw 7359   5.749   5.137   7.028  0.8506  0.3670  0.2187
 1840SOL     vw 7360   5.734   5.168   6.948 -0.0641 -0.2000  0.1521
 1841SOL     ow 7361   3.151   3.014   1.908 -0.5107 -0.4264 -0.1678
 1841SOL     hw 7362   3.207   2.969   1.971  2.3687  1.7887 -0.9659
 1841SOL     hw 7363   3.118   2.944   1.851 -1.1138 -2.1480  2.1492
 1841SOL     vw 7364   3.154   2.999   1.909 -0.2104 -0.3612  0.0325
 1842SOL     ow 7365   5.189   6.377   3.481 -0.4468  0.5590  0.7932
 1842SOL     hw 7366   5.166   6.457   3.529 -1.3599 -0.2169  1.6947
 1842SOL     hw 7367   5.253   6.333   3.536  0.6338  1.0172 -0.0663
 1842SOL     vw 7368   5.194   6.382   3.495 -0.4249  0.5171  0.7987
 1843SOL     ow 7369   1.165   1.569   5.607  0.5931  0.2710  0.0860
 1843SOL     hw 7370   1.220   1.545   5.532 -0.1972 -2.1410  0.1807
 1843SOL     hw 7371   1.075   1.564   5.573  0.1534 -1.9705  1.3964
 1843SOL     vw 7372   1.160   1.565   5.592  0.4309 -0.3430  0.2716
 1844SOL     ow 7373   6.779   1.874   0.381  0.5486 -0.0654  0.2536
 1844SOL     hw 7374   6.848   1.938   0.365  1.5784 -1.3698 -0.6732
 1844SOL     hw 7375   6.824   1.798   0.419 -0.4338 -0.7543  0.0796
 1844SOL     vw 7376   6.794   1.873   0.384  0.5550 -0.3284  0.1084
 1845SOL     ow 7377   0.118   3.893   6.800 -0.9740 -0.3132  0.1478
 1845SOL     hw 7378   0.178   3.820   6.797 -0.4579  0.1444 -1.2520
 1845SOL     hw 7379   0.075   3.886   6.885  2.9144  0.8447  2.4337
 1845SOL     vw 7380   0.120   3.883   6.811 -0.3929 -0.0999  0.2646
 1846SOL     ow 7381   1.264   5.851   2.343  0.4439 -0.5504  0.2253
 1846SOL     hw 7382   1.326   5.791   2.302  0.0373 -1.2655  0.6478
 1846SOL     hw 7383   1.218   5.798   2.407 -1.8742 -0.4877 -1.2957
 1846SOL     vw 7384   1.266   5.836   2.346  0.0845 -0.6363  0.0805
 1847SOL     ow 7385   4.407   0.952   6.022 -0.0433  0.1092 -0.0780
 1847SOL     hw 7386   4.317   0.923   6.004 -0.2063  1.3277 -1.4723
 1847SOL     hw 7387   4.448   0.955   5.935  0.8919  0.9852  0.3789
 1847SOL     vw 7388   4.401   0.949   6.008  0.0587  0.3856 -0.2015
 1848SOL     ow 7389   1.941   6.250   3.544  0.2374  0.2445  0.4676
 1848SOL     hw 7390   1.968   6.168   3.585  0.5682  0.1603  0.0782
 1848SOL     hw 7391   1.856   6.270   3.585 -0.7963 -1.2860 -0.8260
 1848SOL     vw 7392   1.933   6.242   3.555  0.1447  0.0312  0.2456
 1849SOL     ow 7393   3.711   0.297   5.465  0.1027 -0.4900  0.0938
 1849SOL     hw 7394   3.723   0.352   5.387  3.1536 -0.4829  0.4366
 1849SOL     hw 7395   3.773   0.225   5.453 -0.9679 -1.7008  1.5152
 1849SOL     vw 7396   3.721   0.295   5.453  0.3638 -0.6488  0.3264
 1850SOL     ow 7397   6.312   6.655   1.133  0.2392  0.2193  0.4704
 1850SOL     hw 7398   6.221   6.686   1.124  0.3396 -0.0434 -3.0763
 1850SOL     hw 7399   6.356   6.690   1.055  2.0726 -3.1795 -0.2100
 1850SOL     vw 7400   6.306   6.664   1.121  0.4942 -0.2639 -0.0873
 1851SOL     ow 7401   7.042   5.412   0.590 -0.4130 -0.7204  1.3843
 1851SOL     hw 7402   7.132   5.445   0.586  0.2652 -2.3517  2.0949
 1851SOL     hw 7403   7.020   5.414   0.683 -1.5017  0.5681  1.1272
 1851SOL     vw 7404   7.051   5.416   0.601 -0.4671 -0.7658  1.4441
 1852SOL     ow 7405   4.847   5.221   3.320  0.3596  0.1824  0.6833
 1852SOL     hw 7406   4.825   5.300   3.269  1.2720 -0.5390 -0.9236
 1852SOL     hw 7407   4.910   5.252   3.385  1.5928  0.6570 -0.6558
 1852SOL     vw 7408   4.853   5.236   3.322  0.6425  0.1500  0.2946
 1853SOL     ow 7409   6.920   3.486   0.868  0.5674 -0.5302 -0.1313
 1853SOL     hw 7410   6.924   3.438   0.786 -1.1635  0.6502 -0.9525
 1853SOL     hw 7411   7.008   3.522   0.879  0.9468 -1.0856 -1.2031
 1853SOL     vw 7412   6.933   3.484   0.859  0.3891 -0.4476 -0.3811
 1854SOL     ow 7413   2.620   1.087   1.236 -0.3399 -0.3947 -0.6130
 1854SOL     hw 7414   2.626   1.075   1.141  1.3185  1.3391 -0.7773
 1854SOL     hw 7415   2.704   1.053   1.270  1.3730  3.5342 -0.3962
 1854SOL     vw 7416   2.632   1.081   1.228  0.1049  0.3524 -0.6061
 1855SOL     ow 7417   4.883   2.230   1.718 -0.0378  0.5494 -0.7361
 1855SOL     hw 7418   4.856   2.315   1.753  0.0823 -0.5402  2.2904
 1855SOL     hw 7419   4.854   2.232   1.626  1.5383  4.4634 -1.3520
 1855SOL     vw 7420   4.875   2.242   1.710  0.1857  0.9220 -0.4180
 1856SOL     ow 7421   2.197   6.645   0.182 -0.4735  0.1594  0.1182
 1856SOL     hw 7422   2.129   6.578   0.184 -0.4254  0.1105  0.1260
 1856SOL     hw 7423   2.270   6.607   0.232 -0.1779 -0.0715 -0.4751
 1856SOL     vw 7424   2.198   6.631   0.189 -0.4281  0.1228  0.0410
 1857SOL     ow 7425   6.775   5.374   1.401  0.1165  0.1451 -0.1413
 1857SOL     hw 7426   6.809   5.361   1.313  2.0778  1.3032  0.3687
 1857SOL     hw 7427   6.847   5.417   1.448 -0.7524 -0.7208  2.1126
 1857SOL     vw 7428   6.789   5.378   1.396  0.2604  0.1838  0.2235
 1858SOL     ow 7429   0.779   2.507   6.633 -0.2087  0.1815 -0.3538
 1858SOL     hw 7430   0.722   2.521   6.709  2.7774 -0.2966  2.1707
 1858SOL     hw 7431   0.736   2.437   6.584 -2.1651  0.3780  0.9444
 1858SOL     vw 7432   0.766   2.500   6.637 -0.0729  0.1442  0.1504
 1859SOL     ow 7433   4.709   5.922   5.698 -0.5745 -0.1157  0.3360
 1859SOL     hw 7434   4.694   5.945   5.790  0.3953  0.7155  0.3102
 1859SOL     hw 7435   4.787   5.866   5.700 -0.8574 -0.5234  0.0651
 1859SOL     vw 7436   4.718   5.918   5.711 -0.4838 -0.0598  0.2968
 1860SOL     ow 7437   1.316   1.981   6.534 -0.4597  0.1020 -0.5055
 1860SOL     hw 7438   1.228   2.010   6.559  0.0685  0.1638  1.4334
 1860SOL     hw 7439   1.374   2.047   6.570  0.4013  0.1354 -1.9040
 1860SOL     vw 7440   1.312   1.993   6.542 -0.2764  0.1146 -0.4342
 1861SOL     ow 7441   2.468   3.426   1.971  0.5677  0.2336  0.5832
 1861SOL     hw 7442   2.542   3.453   1.916  0.3983  0.6123  0.5402
 1861SOL     hw 7443   2.399   3.488   1.951  0.1870 -0.2078  0.5220
 1861SOL     vw 7444   2.469   3.438   1.961  0.4950  0.2254  0.5695
 1862SOL     ow 7445   2.723   3.345   2.251 -0.1274 -0.0969 -0.2381
 1862SOL     hw 7446   2.672   3.407   2.303  0.9318  0.2058  0.4787
 1862SOL     hw 7447   2.666   3.322   2.177 -1.5349 -0.2700  0.8634
 1862SOL     vw 7448   2.709   3.350   2.248 -0.1732 -0.0798  0.0019
 1863SOL     ow 7449   4.026   5.152   1.238  0.0938  0.0907  0.2454
 1863SOL     hw 7450   3.984   5.105   1.310 -0.5599 -0.5072 -0.5050
 1863SOL     hw 7451   3.958   5.158   1.171  0.6658  0.7184 -0.2915
 1863SOL     vw 7452   4.011   5.147   1.239  0.0830  0.0947  0.0756
 1864SOL     ow 7453   4.575   3.707   3.238 -0.2934 -0.2189 -0.3049
 1864SOL     hw 7454   4.567   3.627   3.186 -0.1104 -0.3569 -0.1277
 1864SOL     hw 7455   4.495   3.711   3.289  0.2248 -0.9653  0.6072
 1864SOL     vw 7456   4.563   3.697   3.238 -0.2010 -0.3357 -0.1612
 1865SOL     ow 7457   3.948   1.659   3.025 -0.3760  0.1765 -0.4341
 1865SOL     hw 7458   3.998   1.588   3.064 -1.7884  0.1669  1.4654
 1865SOL     hw 7459   4.003   1.737   3.038  0.2962 -0.2256 -0.7845
 1865SOL     vw 7460   3.962   1.660   3.032 -0.4736  0.1222 -0.2297
 1866SOL     ow 7461   5.907   1.068   4.851 -0.1286  0.1788 -0.0295
 1866SOL     hw 7462   5.895   0.983   4.894 -1.9225  0.3781 -0.0664
 1866SOL     hw 7463   5.989   1.058   4.802  0.4173 -1.0460  1.0615
 1866SOL     vw 7464   5.916   1.055   4.850 -0.2933  0.0435  0.1094
 1867SOL     ow 7465   2.979   6.088   2.976  0.4607  0.4548 -0.0467
 1867SOL     hw 7466   2.899   6.037   2.972  0.7897 -0.0895  0.2777
 1867SOL     hw 7467   3.038   6.038   3.032  1.4009  0.3319 -1.0998
 1867SOL     vw 7468   2.976   6.075   2.983  0.6284  0.3669 -0.1428
 1868SOL     ow 7469   4.953   2.773   2.839  0.4123 -0.3282 -0.6000
 1868SOL     hw 7470   4.963   2.845   2.901 -0.3578 -1.7789  1.3012
 1868SOL     hw 7471   5.042   2.756   2.807  0.9622 -0.0209  0.7035
 1868SOL     vw 7472   4.966   2.780   2.843  0.3829 -0.4791 -0.1773
 1869SOL     ow 7473   6.632   0.158   1.682  0.8946 -0.1575 -0.4918
 1869SOL     hw 7474   6.608   0.207   1.604 -0.7061  0.9906  0.6664
 1869SOL     hw 7475   6.667   0.076   1.649 -0.1265  0.1334 -2.4195
 1869SOL     vw 7476   6.633   0.153   1.668  0.5486  0.0323 -0.5934
 1870SOL     ow 7477   5.854   1.352   4.773  0.8611  0.8108 -0.5980
 1870SOL     hw 7478   5.934   1.388   4.813  0.1709  0.9031  0.7683
 1870SOL     hw 7479   5.804   1.429   4.747  0.8565  0.7727 -0.6997
 1870SOL     vw 7480   5.858   1.367   4.775  0.7691  0.8180 -0.4311
 1871SOL     ow 7481   1.885   5.192   0.287 -0.3427 -0.0173 -0.6644
 1871SOL     hw 7482   1.859   5.106   0.320  0.6068 -0.2605 -0.5165
 1871SOL     hw 7483   1.816   5.216   0.226 -1.5677 -0.0576  0.6407
 1871SOL     vw 7484   1.873   5.184   0.284 -0.3790 -0.0546 -0.4727
 1872SOL     ow 7485   5.219   0.996   2.973 -0.4946 -0.3670 -0.5473
 1872SOL     hw 7486   5.265   0.972   3.054 -0.0169 -0.2956 -0.7947
 1872SOL     hw 7487   5.250   1.085   2.954 -1.2726 -0.0441 -0.3346
 1872SOL     vw 7488   5.229   1.005   2.981 -0.5341 -0.3150 -0.5519
 1873SOL     ow 7489   3.291   6.189   5.887  0.2570  0.3550  0.1162
 1873SOL     hw 7490   3.281   6.272   5.840 -0.6181 -0.1451 -0.6346
 1873SOL     hw 7491   3.297   6.124   5.817  5.0000  0.0682  0.5044
 1873SOL     vw 7492   3.291   6.191   5.871  0.7674  0.2511  0.0684
 1874SOL     ow 7493   4.186   0.998   5.626 -0.1153  0.2026 -0.4781
 1874SOL     hw 7494   4.269   1.047   5.625 -0.2025  0.3557 -0.2613
 1874SOL     hw 7495   4.159   0.998   5.718  0.7329 -1.7024 -0.1828
 1874SOL     vw 7496   4.194   1.005   5.638 -0.0148 -0.0286 -0.4106
 1875SOL     ow 7497   7.345   0.151   3.421  0.0397 -0.2678 -0.1800
 1875SOL     hw 7498   7.258   0.165   3.460  0.0860  1.7406 -0.7008
 1875SOL     hw 7499   7.337   0.067   3.377 -1.8335  0.0981 -0.6413
 1875SOL     vw 7500   7.332   0.142   3.420 -0.2015  0.0455 -0.3096
 1876SOL     ow 7501   2.522   5.494   4.188 -0.7519 -0.5087 -0.7302
 1876SOL     hw 7502   2.523   5.445   4.105 -1.1375 -2.3961  0.3244
 1876SOL     hw 7503   2.433   5.481   4.222 -0.1327 -1.1513  0.7336
 1876SOL     vw 7504   2.511   5.486   4.181 -0.7209 -0.8426 -0.3979
 1877SOL     ow 7505   3.690   4.157   6.496 -0.4238 -0.5543  0.2204
 1877SOL     hw 7506   3.629   4.093   6.531  0.5513 -0.9215  1.3138
 1877SOL     hw 7507   3.684   4.231   6.556 -0.1435 -0.4058  0.0686
 1877SOL     vw 7508   3.681   4.158   6.509 -0.2580 -0.5832  0.3445
 1878SOL     ow 7509   4.733   2.936   3.774  0.2728 -0.2671  0.0175
 1878SOL     hw 7510   4.660   2.984   3.813  0.3468 -0.1017 -0.0471
 1878SOL     hw 7511   4.751   2.865   3.836  0.8162  0.3782  0.6151
 1878SOL     vw 7512   4.726   2.933   3.788  0.3541 -0.1601  0.0879
 1879SOL     ow 7513   0.681   2.145   6.732 -0.2818  0.1663 -0.1490
 1879SOL     hw 7514   0.675   2.181   6.643  1.5524  1.2856  0.1239
 1879SOL     hw 7515   0.599   2.172   6.774 -1.3852 -0.7668 -1.5899
 1879SOL     vw 7516   0.669   2.153   6.725 -0.1854  0.1909 -0.3030
 1880SOL     ow 7517   4.719   5.610   5.593 -0.0033  0.7230 -0.2125
 1880SOL     hw 7518   4.798   5.639   5.546 -1.2082  3.8203 -0.5678
 1880SOL     hw 7519   4.683   5.690   5.630 -1.6058 -0.9932  2.2013
 1880SOL     vw 7520   4.725   5.624   5.591 -0.3736  0.9050  0.0591
 1881SOL     ow 7521   3.711   1.681   5.863 -0.7882 -0.8158  0.1311
 1881SOL     hw 7522   3.674   1.768   5.853 -2.7394 -1.6164 -0.0795
 1881SOL     hw 7523   3.644   1.631   5.910  0.6311 -1.9987  1.0145
 1881SOL     vw 7524   3.698   1.686   5.868 -0.8583 -1.0775  0.2193
 1882SOL     ow 7525   1.242   7.226   6.624  0.1303 -0.0975  0.3916
 1882SOL     hw 7526   1.271   7.314   6.600 -1.3380  0.8384  1.8450
 1882SOL     hw 7527   1.156   7.217   6.583 -0.5825 -0.0714  1.8340
 1882SOL     vw 7528   1.234   7.237   6.616 -0.1575  0.0293  0.7739
 1883SOL     ow 7529   2.761   1.557   1.324 -0.6598 -0.1807 -0.1683
 1883SOL     hw 7530   2.819   1.555   1.247 -1.3161  1.6690 -0.7653
 1883SOL     hw 7531   2.732   1.466   1.335 -0.8207 -0.4379 -2.3210
 1883SOL     vw 7532   2.765   1.545   1.315 -0.7676  0.0294 -0.5311
 1884SOL     ow 7533   1.001   2.497   5.383  0.3356  0.0289  0.5521
 1884SOL     hw 7534   0.953   2.530   5.307  0.7824  0.7774  0.5855
 1884SOL     hw 7535   1.085   2.543   5.381  2.1898 -3.1053 -0.9765
 1884SOL     vw 7536   1.006   2.507   5.373  0.6392 -0.2859  0.3548
 1885SOL     ow 7537   2.428   0.948   1.602 -0.0906 -1.0586  0.1130
 1885SOL     hw 7538   2.365   0.890   1.646 -0.6105 -0.8494 -0.3384
 1885SOL     hw 7539   2.443   0.907   1.517 -2.7822  0.9025 -1.4976
 1885SOL     vw 7540   2.421   0.935   1.597 -0.5144 -0.7723 -0.1591
 1886SOL     ow 7541   1.596   5.816   2.579  0.4340  0.4412  0.3122
 1886SOL     hw 7542   1.582   5.728   2.544 -3.5269  1.4790 -1.2173
 1886SOL     hw 7543   1.655   5.858   2.516  0.4578 -0.3914 -0.2360
 1886SOL     vw 7544   1.602   5.810   2.566 -0.0855  0.4685  0.0380
 1887SOL     ow 7545   0.622   3.381   6.725 -0.1902 -0.3044 -0.1470
 1887SOL     hw 7546   0.623   3.474   6.703  0.2712 -0.0719  0.8110
 1887SOL     hw 7547   0.529   3.359   6.733 -0.2857  0.2049  0.1500
 1887SOL     vw 7548   0.610   3.390   6.723 -0.1419 -0.2066  0.0184
 1888SOL     ow 7549   0.389   1.447   7.184  0.3951 -0.6541  0.3306
 1888SOL     hw 7550   0.463   1.508   7.179  0.8374 -1.2621 -2.3968
 1888SOL     hw 7551   0.324   1.484   7.124  0.1032 -2.0993 -0.2808
 1888SOL     vw 7552   0.390   1.460   7.176  0.4150 -0.9249 -0.1101
 1889SOL     ow 7553   0.225   5.412   7.168  0.2196 -0.1606 -0.4433
 1889SOL     hw 7554   0.162   5.369   7.226  0.6702 -0.0192  0.1656
 1889SOL     hw 7555   0.232   5.501   7.202  0.3245 -0.0140 -0.8503
 1889SOL     vw 7556   0.218   5.418   7.180  0.2929 -0.1225 -0.4168
 1890SOL     ow 7557   1.973   4.385   6.134 -0.6990  0.4402 -0.0308
 1890SOL     hw 7558   1.925   4.439   6.070 -1.1950 -0.6289 -0.5857
 1890SOL     hw 7559   1.911   4.316   6.158 -1.2890  1.8949  3.1679
 1890SOL     vw 7560   1.958   4.383   6.129 -0.8423  0.4907  0.3181
 1891SOL     ow 7561   5.652   4.744   1.618 -0.2017  0.2082  0.9563
 1891SOL     hw 7562   5.713   4.683   1.577  0.4044 -0.3004  2.5364
 1891SOL     hw 7563   5.591   4.688   1.666 -3.1457  0.5694 -2.0021
 1891SOL     vw 7564   5.652   4.728   1.619 -0.5105  0.1886  0.7745
 1892SOL     ow 7565   3.790   6.590   5.031 -0.4831 -0.2237  0.0617
 1892SOL     hw 7566   3.826   6.557   5.113  0.6521  2.7142  0.8852
 1892SOL     hw 7567   3.733   6.662   5.057 -2.1198 -0.8133 -1.6430
 1892SOL     vw 7568   3.787   6.595   5.046 -0.5491  0.0863 -0.0544
 1893SOL     ow 7569   5.774   1.304   7.280 -0.1715 -0.1825  0.1139
 1893SOL     hw 7570   5.686   1.302   7.245  0.3822  1.9220 -1.5749
 1893SOL     hw 7571   5.815   1.225   7.247 -0.8262 -0.1539 -0.7829
 1893SOL     vw 7572   5.768   1.293   7.271 -0.1848  0.0990 -0.2270
 1894SOL     ow 7573   1.424   3.352   1.165 -0.2580  0.0824 -0.1396
 1894SOL     hw 7574   1.416   3.439   1.126 -1.3251 -0.3374 -0.8902
 1894SOL     hw 7575   1.335   3.327   1.189 -0.4892 -2.0061 -2.6890
 1894SOL     vw 7576   1.411   3.360   1.163 -0.4293 -0.2484 -0.5751
 1895SOL     ow 7577   3.104   3.713   0.266 -0.4547  0.8537  0.1619
 1895SOL     hw 7578   3.158   3.696   0.344  1.6912  0.9124 -1.2086
 1895SOL     hw 7579   3.048   3.637   0.258  0.2341  0.2319  1.0398
 1895SOL     vw 7580   3.104   3.701   0.275 -0.0807  0.7795  0.0969
 1896SOL     ow 7581   3.294   7.091   3.328 -0.3302  0.0967  0.3639
 1896SOL     hw 7582   3.355   7.024   3.296 -0.9768 -0.3940  0.1359
 1896SOL     hw 7583   3.230   7.100   3.258 -0.3505  0.8380  0.4714
 1896SOL     vw 7584   3.294   7.083   3.314 -0.4181  0.1295  0.3480
 1897SOL     ow 7585   6.694   3.395   1.760  0.1805  0.7073  0.5735
 1897SOL     hw 7586   6.726   3.449   1.688 -0.6770  1.4072  0.7013
 1897SOL     hw 7587   6.684   3.308   1.721  0.1239  0.9788 -0.0383
 1897SOL     vw 7588   6.697   3.391   1.745  0.0601  0.8355  0.5097
 1898SOL     ow 7589   4.975   7.231   0.820  0.8620  0.4562 -0.1416
 1898SOL     hw 7590   4.894   7.215   0.772  1.6536  1.2397 -1.8057
 1898SOL     hw 7591   5.036   7.165   0.788  1.1884  0.5073  0.3607
 1898SOL     vw 7592   4.972   7.221   0.810  1.0097  0.5662 -0.2949
 1899SOL     ow 7593   1.584   0.547   3.545  0.0018  0.6061 -0.0544
 1899SOL     hw 7594   1.518   0.561   3.613 -0.5790 -1.2743 -0.1701
 1899SOL     hw 7595   1.595   0.632   3.504 -1.4490  1.2348  0.7855
 1899SOL     vw 7596   1.577   0.560   3.549 -0.2663  0.4410  0.0410
 1900SOL     ow 7597   5.745   3.871   3.846 -0.2693 -0.5552  0.8768
 1900SOL     hw 7598   5.819   3.889   3.789 -0.7958 -0.3108  0.2617
 1900SOL     hw 7599   5.692   3.950   3.842 -1.0647 -1.0907  0.5319
 1900SOL     vw 7600   5.748   3.883   3.838 -0.4437 -0.5935  0.7503
 1901SOL     ow 7601   2.837   2.059   5.123 -0.2226  0.4351 -0.6441
 1901SOL     hw 7602   2.922   2.088   5.089  0.2916 -1.0803 -0.7136
 1901SOL     hw 7603   2.855   1.975   5.164 -2.0277 -0.8970 -2.3862
 1901SOL     vw 7604   2.851   2.052   5.124 -0.3927  0.0594 -0.8833
 1902SOL     ow 7605   4.039   5.262   6.406  0.1039 -0.9717  0.7485
 1902SOL     hw 7606   3.995   5.300   6.330  1.7266  0.7064  0.5560
 1902SOL     hw 7607   4.122   5.229   6.371  0.2940 -1.3941  1.5700
 1902SOL     vw 7608   4.044   5.263   6.392  0.3431 -0.8061  0.8318
 1903SOL     ow 7609   7.324   1.312   5.364  0.2563 -0.3700 -0.0315
 1903SOL     hw 7610   7.355   1.390   5.318 -1.5687  2.4398  3.0742
 1903SOL     hw 7611   7.235   1.299   5.331  0.2481 -0.6128  0.0829
 1903SOL     vw 7612   7.316   1.321   5.354  0.0145 -0.0312  0.3932
 1904SOL     ow 7613   0.378   2.613   2.768 -0.3634 -0.1338  0.2394
 1904SOL     hw 7614   0.370   2.521   2.793 -2.0850  0.0638  0.5980
 1904SOL     hw 7615   0.353   2.661   2.848 -0.4243  0.6201 -0.2236
 1904SOL     vw 7616   0.373   2.607   2.782 -0.5986 -0.0083  0.2257
 1905SOL     ow 7617   3.497   6.826   4.336  0.5258 -0.2916  0.6216
 1905SOL     hw 7618   3.437   6.816   4.410  0.3637 -4.0446  0.1870
 1905SOL     hw 7619   3.553   6.749   4.340  2.4493  0.8533 -1.5475
 1905SOL     vw 7620   3.497   6.815   4.346  0.7581 -0.6359  0.2780
 1906SOL     ow 7621   2.227   6.872   2.290 -0.1686 -0.2845  0.3665
 1906SOL     hw 7622   2.147   6.859   2.341  0.7328 -1.3313  1.5668
 1906SOL     hw 7623   2.296   6.831   2.342  1.4016  1.7814  0.0473
 1906SOL     vw 7624   2.225   6.865   2.303  0.1575 -0.1497  0.4826
 1907SOL     ow 7625   0.383   1.232   6.580 -0.1555 -0.0592  0.3369
 1907SOL     hw 7626   0.366   1.274   6.495 -0.2215  0.0948  0.4245
 1907SOL     hw 7627   0.442   1.159   6.560 -2.1274 -1.5691 -0.2000
 1907SOL     vw 7628   0.389   1.228   6.566 -0.4244 -0.2381  0.2775
 1908SOL     ow 7629   7.335   0.324   2.949 -0.5573  0.3690  0.4621
 1908SOL     hw 7630   7.257   0.319   2.894  0.7429  1.7246 -1.7020
 1908SOL     hw 7631   7.400   0.272   2.902  0.1021 -0.0094  1.7537
 1908SOL     vw 7632   7.334   0.316   2.935 -0.2985  0.4979  0.3470
 1909SOL     ow 7633   2.541   6.190   4.850  0.2965  0.4728 -0.3342
 1909SOL     hw 7634   2.557   6.167   4.941  1.0012 -1.1057 -0.8247
 1909SOL     hw 7635   2.449   6.165   4.835  0.1888  0.7080 -0.0575
 1909SOL     vw 7636   2.531   6.183   4.860  0.3752  0.2956 -0.3626
 1910SOL     ow 7637   3.553   1.124   4.556  0.7586  0.4717 -0.7067
 1910SOL     hw 7638   3.533   1.116   4.463 -0.0769 -0.1951 -0.4821
 1910SOL     hw 7639   3.478   1.171   4.593  1.4394  1.4214 -0.4878
 1910SOL     vw 7640   3.540   1.129   4.549  0.7381  0.5090 -0.6480
 1911SOL     ow 7641   2.628   6.614   2.673 -0.6481  0.2017 -0.5026
 1911SOL     hw 7642   2.648   6.612   2.579 -1.5933 -0.7501 -0.7001
 1911SOL     hw 7643   2.554   6.674   2.680 -1.2045 -0.4794 -0.5004
 1911SOL     vw 7644   2.621   6.622   2.661 -0.8461 -0.0136 -0.5283
 1912SOL     ow 7645   7.282   6.619   3.068 -0.0419  0.5725  0.4781
 1912SOL     hw 7646   7.364   6.643   3.026  0.0743 -2.2640 -1.1315
 1912SOL     hw 7647   7.305   6.548   3.129 -0.9472  1.5041  1.9872
 1912SOL     vw 7648   7.296   6.613   3.071 -0.1462  0.3209  0.4648
 1913SOL     ow 7649   5.952   4.821   2.902 -0.4376 -0.3032  0.0801
 1913SOL     hw 7650   5.922   4.757   2.837 -2.0778  0.4998 -0.0080
 1913SOL     hw 7651   6.046   4.831   2.884 -0.3298 -1.9631 -0.4981
 1913SOL     vw 7652   5.961   4.814   2.891 -0.6397 -0.4163 -0.0077
 1914SOL     ow 7653   5.610   2.191   6.858 -0.1180  0.5657  0.0069
 1914SOL     hw 7654   5.637   2.110   6.816  1.1623 -0.4715  2.6329
 1914SOL     hw 7655   5.561   2.163   6.935 -1.6011  2.3544 -0.2266
 1914SOL     vw 7656   5.607   2.177   6.863 -0.1445  0.6648  0.3226
 1915SOL     ow 7657   3.737   3.039   4.033  0.0738  0.3072  0.8795
 1915SOL     hw 7658   3.736   3.054   4.127 -3.0010  1.0588  0.8405
 1915SOL     hw 7659   3.671   3.100   3.998 -0.4448 -1.4549 -1.4664
 1915SOL     vw 7660   3.728   3.049   4.041 -0.4004  0.1740  0.5648
 1916SOL     ow 7661   2.298   5.979   7.078  0.6199  0.1885 -0.2334
 1916SOL     hw 7662   2.259   5.892   7.075 -0.7025  0.7576 -0.2019
 1916SOL     hw 7663   2.352   5.979   7.157  1.5455 -0.9589 -0.8480
 1916SOL     vw 7664   2.300   5.968   7.088  0.5674  0.1123 -0.3099
 1917SOL     ow 7665   3.364   0.066   1.546  0.1719 -0.2867  0.3817
 1917SOL     hw 7666   3.458   0.085   1.543  0.3301 -0.9830  0.6847
 1917SOL     hw 7667   3.356  -0.022   1.510 -0.1820 -0.8062  1.6652
 1917SOL     vw 7668   3.376   0.057   1.541  0.1462 -0.4471  0.5911
 1918SOL     ow 7669   7.059   6.865   0.014 -0.1794 -0.5179  0.2772
 1918SOL     hw 7670   6.980   6.889  -0.034  0.6868  1.1980 -0.3779
 1918SOL     hw 7671   7.131   6.903  -0.037  0.9574 -0.7850  1.6107
 1918SOL     vw 7672   7.058   6.874   0.001  0.0846 -0.3269  0.3667
 1919SOL     ow 7673   6.022   7.066   4.835  0.2834  0.8185 -0.3826
 1919SOL     hw 7674   5.992   7.105   4.752 -0.0765  0.3110 -0.4989
 1919SOL     hw 7675   5.943   7.066   4.890 -0.0608 -0.8981 -0.8269
 1919SOL     vw 7676   6.007   7.072   4.831  0.1905  0.5250 -0.4563
 1920SOL     ow 7677   3.395   0.648   5.665 -0.5891 -0.0289 -0.1524
 1920SOL     hw 7678   3.330   0.588   5.702 -0.1957 -0.8200 -0.7189
 1920SOL     hw 7679   3.355   0.735   5.674 -0.5167 -0.1674  2.1116
 1920SOL     vw 7680   3.381   0.652   5.671 -0.5276 -0.1516  0.0715
 1921SOL     ow 7681   1.456   1.037   7.233  0.2087 -0.6204 -0.6386
 1921SOL     hw 7682   1.484   0.968   7.173  0.8700 -0.0737 -0.9645
 1921SOL     hw 7683   1.363   1.048   7.215  0.6037  0.2331 -2.2909
 1921SOL     vw 7684   1.447   1.029   7.223  0.3481 -0.4357 -0.8998
 1922SOL     ow 7685   3.493   3.087   2.126  0.4766 -0.6117 -0.2953
 1922SOL     hw 7686   3.488   3.086   2.222  0.6199  1.9651 -0.1843
 1922SOL     hw 7687   3.497   2.995   2.101  0.4646 -1.3531  2.1719
 1922SOL     vw 7688   3.493   3.075   2.136  0.4939 -0.3694  0.0447
 1923SOL     ow 7689   5.120   2.446   1.487  0.2861 -0.4925 -0.1090
 1923SOL     hw 7690   5.191   2.499   1.524 -0.8682  0.9420  0.1439
 1923SOL     hw 7691   5.048   2.507   1.476 -0.0896 -1.2993 -2.9341
 1923SOL     vw 7692   5.120   2.461   1.491  0.0842 -0.4096 -0.4484
 1924SOL     ow 7693   3.391   0.137   3.733 -0.1345  0.1253  0.2860
 1924SOL     hw 7694   3.398   0.144   3.828  1.5340 -0.6697  0.2625
 1924SOL     hw 7695   3.480   0.152   3.701 -1.1250  3.5165 -1.4386
 1924SOL     vw 7696   3.403   0.140   3.741 -0.0449  0.4679  0.0553
 1925SOL     ow 7697   2.862   5.734   4.428 -0.3946 -0.5167  0.6926
 1925SOL     hw 7698   2.850   5.640   4.441 -2.4185 -0.4093 -0.0526
 1925SOL     hw 7699   2.944   5.742   4.379 -1.9607 -2.2579 -2.5724
 1925SOL     vw 7700   2.871   5.723   4.423 -0.8682 -0.7327  0.1638
 1926SOL     ow 7701   4.140   6.036   6.763  0.8095 -0.1118 -0.1365
 1926SOL     hw 7702   4.067   6.097   6.770  2.2501  1.4249  3.4316
 1926SOL     hw 7703   4.140   5.988   6.845  3.5576 -0.3363 -0.1690
 1926SOL     vw 7704   4.130   6.038   6.775  1.3621  0.0615  0.3300
 1927SOL     ow 7705   3.345   2.310   3.612 -0.6799  0.2060  0.3955
 1927SOL     hw 7706   3.345   2.274   3.523  0.1345 -0.3441  0.6056
 1927SOL     hw 7707   3.252   2.315   3.635 -0.8793 -0.1670 -0.2754
 1927SOL     vw 7708   3.332   2.306   3.603 -0.5985  0.0842  0.3347
 1928SOL     ow 7709   6.797   0.615   0.582 -0.0555 -0.1266 -0.1377
 1928SOL     hw 7710   6.780   0.697   0.629  0.5743 -0.8207  1.3824
 1928SOL     hw 7711   6.892   0.611   0.575  0.0503 -1.6540  1.6048
 1928SOL     vw 7712   6.807   0.626   0.587  0.0417 -0.4198  0.2927
 1929SOL     ow 7713   4.737   2.646   0.277  0.8550  0.1575 -0.1834
 1929SOL     hw 7714   4.690   2.565   0.257  2.2402 -0.3562 -1.5599
 1929SOL     hw 7715   4.747   2.647   0.372  0.6164 -1.1645 -0.1372
 1929SOL     vw 7716   4.732   2.636   0.287  1.0064 -0.0849 -0.3589
 1930SOL     ow 7717   4.276   4.484   0.902 -0.4726  0.2767  0.5678
 1930SOL     hw 7718   4.205   4.433   0.942 -0.6174  0.8971  1.1177
 1930SOL     hw 7719   4.327   4.419   0.853 -0.7927 -0.3594  1.0558
 1930SOL     vw 7720   4.273   4.468   0.901 -0.5341  0.2747  0.7048
 1931SOL     ow 7721   1.956   3.346   1.172 -0.1923  0.2086  0.6443
 1931SOL     hw 7722   1.998   3.401   1.238  1.2810 -1.4747  1.1890
 1931SOL     hw 7723   1.979   3.256   1.197 -1.1563 -0.5797 -1.1109
 1931SOL     vw 7724   1.965   3.341   1.184 -0.1251 -0.1175  0.4846
 1932SOL     ow 7725   3.482   3.638   5.408  0.0935  0.1599 -0.0492
 1932SOL     hw 7726   3.516   3.552   5.431 -0.2142 -0.1078 -0.5755
 1932SOL     hw 7727   3.389   3.623   5.391  0.2446  0.3916 -1.1620
 1932SOL     vw 7728   3.474   3.625   5.409  0.0727  0.1552 -0.2656
 1933SOL     ow 7729   7.268   3.876   5.249 -0.1525 -0.0477  0.3974
 1933SOL     hw 7730   7.281   3.806   5.185 -0.3621  1.0739 -0.9227
 1933SOL     hw 7731   7.176   3.870   5.274 -0.4690  0.4580 -0.6013
 1933SOL     vw 7732   7.257   3.866   5.244 -0.2217  0.1670  0.0913
 1934SOL     ow 7733   7.244   6.155   3.993  0.4042  0.5167  0.6919
 1934SOL     hw 7734   7.184   6.083   3.974 -0.7491  1.2236  1.5503
 1934SOL     hw 7735   7.312   6.116   4.047  0.4010 -0.1741  0.2013
 1934SOL     vw 7736   7.245   6.141   3.998  0.2515  0.5188  0.7404
 1935SOL     ow 7737   4.649   3.925   3.091 -0.1334 -0.2104  0.4564
 1935SOL     hw 7738   4.624   3.838   3.123  0.8715 -0.7929 -0.2834
 1935SOL     hw 7739   4.658   3.915   2.996  1.1605  0.3814  0.4883
 1935SOL     vw 7740   4.647   3.912   3.083  0.1700 -0.2093  0.3629
 1936SOL     ow 7741   1.974   0.185   3.540  0.2064 -1.0035 -0.4087
 1936SOL     hw 7742   2.018   0.203   3.623 -0.4867  1.4248 -0.5019
 1936SOL     hw 7743   2.045   0.185   3.475  0.5897 -1.5650  0.0034
 1936SOL     vw 7744   1.989   0.187   3.542  0.1655 -0.7572 -0.3666
 1937SOL     ow 7745   2.303   2.121   0.207 -0.1793  0.0528 -0.5641
 1937SOL     hw 7746   2.377   2.160   0.160 -0.2023  0.0979 -0.5628
 1937SOL     hw 7747   2.341   2.045   0.251  0.2634  1.0640  0.8734
 1937SOL     vw 7748   2.318   2.116   0.207 -0.1240  0.1922 -0.3743
 1938SOL     ow 7749   2.332   1.150   1.166 -0.1460 -0.3180  0.2644
 1938SOL     hw 7750   2.418   1.119   1.138  0.2132  0.5640  0.3717
 1938SOL     hw 7751   2.270   1.103   1.109  0.4972  0.3543 -1.0464
 1938SOL     vw 7752   2.335   1.140   1.155 -0.0136 -0.1129  0.1057
 1939SOL     ow 7753   2.588   4.136   6.371  0.8763 -0.2555 -0.2508
 1939SOL     hw 7754   2.497   4.158   6.351  0.5032  0.0294  1.5557
 1939SOL     hw 7755   2.638   4.213   6.346  0.1861  0.8514  1.5556
 1939SOL     vw 7756   2.583   4.149   6.365  0.7359 -0.0720  0.2258
 1940SOL     ow 7757   7.246   4.858   2.169 -0.2522  0.7488  0.5156
 1940SOL     hw 7758   7.275   4.938   2.125  0.2800 -0.6353 -1.8483
 1940SOL     hw 7759   7.229   4.797   2.097  0.6997 -1.7163  2.2585
 1940SOL     vw 7760   7.247   4.860   2.154 -0.0563  0.2408  0.4338
 1941SOL     ow 7761   6.318   3.636   4.348  0.2906  0.2245  0.1786
 1941SOL     hw 7762   6.268   3.718   4.348  0.6992  0.6517 -3.4618
 1941SOL     hw 7763   6.410   3.664   4.345  0.4774 -0.3908  0.0420
 1941SOL     vw 7764   6.324   3.651   4.348  0.3691  0.1998 -0.3197
 1942SOL     ow 7765   5.158   4.444   2.334  0.8714  0.6565 -0.2496
 1942SOL     hw 7766   5.170   4.539   2.325 -2.1458  1.0425 -1.1884
 1942SOL     hw 7767   5.189   4.425   2.423  2.7380  2.2442 -0.4808
 1942SOL     vw 7768   5.164   4.454   2.345  0.7198  0.9172 -0.4039
 1943SOL     ow 7769   3.357   3.718   3.275 -0.0825 -0.1220 -0.9691
 1943SOL     hw 7770   3.362   3.633   3.232 -2.8862 -0.9700  0.1148
 1943SOL     hw 7771   3.356   3.782   3.204  0.0476 -1.1459 -1.9071
 1943SOL     vw 7772   3.357   3.715   3.260 -0.4352 -0.3690 -0.9499
 1944SOL     ow 7773   0.843   1.517   1.765 -0.5759  0.0288 -0.1056
 1944SOL     hw 7774   0.873   1.576   1.833  0.1415  1.0575 -1.2691
 1944SOL     hw 7775   0.779   1.461   1.808  0.5943 -0.0440  1.6593
 1944SOL     vw 7776   0.839   1.517   1.779 -0.3269  0.1550 -0.0263
 1945SOL     ow 7777   6.086   4.426   3.488 -1.0859 -0.3398  0.0420
 1945SOL     hw 7778   6.029   4.400   3.416 -0.5096 -0.9156 -0.2158
 1945SOL     hw 7779   6.032   4.415   3.566 -2.0515  1.2388 -0.3432
 1945SOL     vw 7780   6.071   4.421   3.489 -1.1375 -0.2074 -0.0429
 1946SOL     ow 7781   0.234   2.288   1.790  0.3607 -0.0668 -0.6494
 1946SOL     hw 7782   0.169   2.239   1.841 -0.1008  1.9533  0.8421
 1946SOL     hw 7783   0.215   2.265   1.699  0.9600 -3.4999 -0.0333
 1946SOL     vw 7784   0.223   2.278   1.785  0.3789 -0.2532 -0.3713
 1947SOL     ow 7785   0.142   0.471   2.597 -0.1188 -0.2751 -0.0869
 1947SOL     hw 7786   0.072   0.405   2.598 -0.5766  0.1502 -1.7158
 1947SOL     hw 7787   0.131   0.518   2.680 -0.9594 -1.0305  0.2558
 1947SOL     vw 7788   0.131   0.468   2.608 -0.2901 -0.3187 -0.2564
 1948SOL     ow 7789   5.120   4.431   3.052 -0.0723 -0.9426 -0.2074
 1948SOL     hw 7790   5.087   4.377   2.981 -2.7897 -0.1598  0.3241
 1948SOL     hw 7791   5.053   4.499   3.064  1.8821  0.9413  0.9161
 1948SOL     vw 7792   5.107   4.433   3.045 -0.1731 -0.5908  0.0108
 1949SOL     ow 7793   6.074   0.622   2.980 -0.1353 -0.9317 -0.0314
 1949SOL     hw 7794   5.989   0.600   2.942 -0.4567  0.2913 -0.0524
 1949SOL     hw 7795   6.071   0.717   2.992  1.9367 -0.5481 -1.8505
 1949SOL     vw 7796   6.062   0.632   2.976  0.0956 -0.7197 -0.2741
 1950SOL     ow 7797   7.002   3.624   2.557 -0.1784  0.4695  0.4119
 1950SOL     hw 7798   7.020   3.593   2.469  1.6044 -2.4137  1.6584
 1950SOL     hw 7799   6.912   3.595   2.575 -0.1209  0.0113 -0.0271
 1950SOL     vw 7800   6.992   3.616   2.548  0.0646  0.0286  0.5184
 1951SOL     ow 7801   1.558   2.708   2.081 -0.2615  0.2723  0.3070
 1951SOL     hw 7802   1.603   2.787   2.051  0.5379 -0.4619 -0.4678
 1951SOL     hw 7803   1.626   2.640   2.081  0.2170  0.4099  5.0066
 1951SOL     vw 7804   1.573   2.709   2.077 -0.0929  0.1935  0.8248
 1952SOL     ow 7805   2.221   2.418   4.726  0.4415 -0.3379  0.7262
 1952SOL     hw 7806   2.249   2.456   4.643 -1.2400 -0.2554  0.1572
 1952SOL     hw 7807   2.285   2.349   4.744  0.3192 -0.9878 -1.1335
 1952SOL     vw 7808   2.233   2.414   4.717  0.2035 -0.4126  0.4055
 1953SOL     ow 7809   2.001   1.340   6.562 -0.4753 -0.3607  0.0859
 1953SOL     hw 7810   1.977   1.379   6.647 -0.6818 -0.9820  0.3183
 1953SOL     hw 7811   1.956   1.255   6.561 -2.0666  0.4253 -1.4593
 1953SOL     vw 7812   1.992   1.334   6.573 -0.7125 -0.3389 -0.0875
 1954SOL     ow 7813   5.234   2.386   0.263  0.2365 -0.2719 -0.7198
 1954SOL     hw 7814   5.271   2.312   0.215  0.5445 -0.2777 -0.4796
 1954SOL     hw 7815   5.237   2.359   0.355  1.5202  0.5205 -0.5003
 1954SOL     vw 7816   5.239   2.373   0.269  0.4463 -0.1682 -0.6592
 1955SOL     ow 7817   5.373   0.335   0.421 -0.3928  0.4141 -0.4617
 1955SOL     hw 7818   5.301   0.278   0.450  0.3728 -0.0853  0.5023
 1955SOL     hw 7819   5.338   0.424   0.432 -1.3795  0.1634 -1.4048
 1955SOL     vw 7820   5.359   0.339   0.426 -0.4222  0.3151 -0.4590
 1956SOL     ow 7821   5.244   3.389   4.059 -0.1460 -0.2163 -0.9608
 1956SOL     hw 7822   5.212   3.476   4.034 -2.1921 -1.1141 -1.6884
 1956SOL     hw 7823   5.328   3.380   4.014  0.0293  1.3131 -0.9870
 1956SOL     vw 7824   5.251   3.399   4.050 -0.3927 -0.1329 -1.0598
 1957SOL     ow 7825   1.123   4.933   6.736  0.5515  0.0494 -0.4290
 1957SOL     hw 7826   1.065   4.978   6.797  2.0308 -1.3227  2.1860
 1957SOL     hw 7827   1.085   4.950   6.650 -1.5974  2.2174  0.8099
 1957SOL     vw 7828   1.110   4.941   6.733  0.4631  0.1545  0.0796
 1958SOL     ow 7829   1.669   4.498   0.788  0.3640  0.1978  0.0156
 1958SOL     hw 7830   1.579   4.492   0.756  0.8089 -1.9193 -1.0205
 1958SOL     hw 7831   1.687   4.410   0.823  0.9139  1.5104  3.4699
 1958SOL     vw 7832   1.659   4.485   0.789  0.4952  0.0918  0.3346
 1959SOL     ow 7833   5.633   6.138   2.047 -0.1485 -0.5612  0.2511
 1959SOL     hw 7834   5.612   6.097   1.964  0.4795  2.5478 -1.6138
 1959SOL     hw 7835   5.552   6.132   2.098 -0.2642 -3.3301 -0.1087
 1959SOL     vw 7836   5.619   6.132   2.043 -0.0811 -0.5162 -0.0423
 1960SOL     ow 7837   6.017   0.119   6.873 -0.2248 -0.6553 -0.3696
 1960SOL     hw 7838   6.053   0.147   6.957 -1.2261  0.9006 -0.4372
 1960SOL     hw 7839   5.929   0.088   6.893 -0.9078  0.8030 -0.9616
 1960SOL     vw 7840   6.010   0.119   6.887 -0.4468 -0.2576 -0.4563
 1961SOL     ow 7841   2.460   6.053   3.934 -0.2295 -0.3105  0.3536
 1961SOL     hw 7842   2.477   6.147   3.928  0.9765 -0.4348  1.2774
 1961SOL     hw 7843   2.368   6.043   3.911 -0.7964  1.2913  1.7275
 1961SOL     vw 7844   2.450   6.064   3.930 -0.1451 -0.1156  0.6567
 1962SOL     ow 7845   1.256   4.104   3.502  0.3278  0.1696 -0.4083
 1962SOL     hw 7846   1.306   4.052   3.440 -2.0482 -1.5785 -1.0025
 1962SOL     hw 7847   1.285   4.074   3.588  0.1509 -0.9788 -0.7373
 1962SOL     vw 7848   1.266   4.093   3.505 -0.0091 -0.2124 -0.5300
 1963SOL     ow 7849   5.582   4.970   0.595 -0.2669 -0.4674 -0.0116
 1963SOL     hw 7850   5.499   4.957   0.642 -0.6895  3.3935  0.6844
 1963SOL     hw 7851   5.643   5.001   0.662  0.4229  0.9226 -1.2305
 1963SOL     vw 7852   5.579   4.972   0.610 -0.2317  0.2258 -0.0806
 1964SOL     ow 7853   5.674   3.474   3.060 -0.1470  0.4063 -0.0126
 1964SOL     hw 7854   5.652   3.556   3.105  1.5646  2.4052 -2.4773
 1964SOL     hw 7855   5.631   3.482   2.974  2.5663  0.2870 -1.4843
 1964SOL     vw 7856   5.665   3.486   3.054  0.4370  0.6541 -0.5319
 1965SOL     ow 7857   4.634   0.313   2.165 -0.0912 -0.6100  0.2727
 1965SOL     hw 7858   4.645   0.264   2.247 -0.7074 -0.0623  0.6927
 1965SOL     hw 7859   4.655   0.249   2.096 -0.2706 -1.2829  0.8279
 1965SOL     vw 7860   4.638   0.298   2.167 -0.1962 -0.6265  0.4014
 1966SOL     ow 7861   0.182   4.177   1.682 -0.2653  0.3879  0.2012
 1966SOL     hw 7862   0.120   4.104   1.682 -1.7831  1.5558  2.3884
 1966SOL     hw 7863   0.223   4.174   1.769 -0.9386  2.5466  0.6498
 1966SOL     vw 7864   0.180   4.167   1.694 -0.5544  0.8268  0.5490
 1967SOL     ow 7865   5.458   2.461   3.270  0.0284  0.3830 -0.1303
 1967SOL     hw 7866   5.381   2.518   3.266 -2.1166 -1.8782  3.7752
 1967SOL     hw 7867   5.521   2.509   3.324  0.2777  0.9905 -0.9237
 1967SOL     vw 7868   5.456   2.475   3.276 -0.2217  0.1649  0.2804
 1968SOL     ow 7869   6.291   0.224   2.998 -0.7168  0.2864  0.5986
 1968SOL     hw 7870   6.356   0.274   3.047 -2.5618  2.5059  0.9848
 1968SOL     hw 7871   6.229   0.193   3.064 -2.1141  1.5593 -0.0592
 1968SOL     vw 7872   6.291   0.227   3.013 -1.1446  0.7472  0.5629
 1969SOL     ow 7873   7.029   0.444   6.616 -0.1414 -0.7850 -0.2375
 1969SOL     hw 7874   7.044   0.501   6.541  0.1613 -0.8676 -0.2417
 1969SOL     hw 7875   6.985   0.499   6.681  1.4125 -0.1342  0.3238
 1969SOL     vw 7876   7.025   0.459   6.615  0.1035 -0.7100 -0.1640
 1970SOL     ow 7877   1.491   0.671   1.920  0.1496  0.1069 -0.0898
 1970SOL     hw 7878   1.527   0.607   1.858 -0.4516  0.4434 -0.8097
 1970SOL     hw 7879   1.399   0.646   1.929  0.8035 -1.6724  2.9005
 1970SOL     vw 7880   1.483   0.660   1.913  0.1566 -0.0834  0.2097
 1971SOL     ow 7881   5.941   0.876   2.876 -0.0470 -0.1495  0.7406
 1971SOL     hw 7882   5.847   0.864   2.865  0.3818 -1.4366 -2.6631
 1971SOL     hw 7883   5.968   0.927   2.800  1.9188  1.1389  2.2011
 1971SOL     vw 7884   5.932   0.881   2.864  0.2689 -0.1493  0.4842
 1972SOL     ow 7885   0.799   3.187   6.846 -0.2497 -0.0754 -0.0322
 1972SOL     hw 7886   0.775   3.109   6.797  0.9555 -0.3216 -0.2484
 1972SOL     hw 7887   0.729   3.250   6.827 -1.8156 -1.4176  0.9983
 1972SOL     vw 7888   0.786   3.185   6.837 -0.2973 -0.2850  0.0756
 1973SOL     ow 7889   2.791   2.895   3.092  0.0847  0.2322 -0.2270
 1973SOL     hw 7890   2.718   2.949   3.121 -0.8545 -1.5525  0.8369
 1973SOL     hw 7891   2.775   2.809   3.130  3.2396 -0.0108  0.8730
 1973SOL     vw 7892   2.780   2.891   3.101  0.3771 -0.0353  0.0584
 1974SOL     ow 7893   2.267   5.671   4.469  0.1159 -0.5198 -0.0211
 1974SOL     hw 7894   2.241   5.728   4.396  1.3382  1.1578  0.7921
 1974SOL     hw 7895   2.265   5.583   4.432 -0.4084  0.1798 -1.7587
 1974SOL     vw 7896   2.264   5.667   4.454  0.2080 -0.2062 -0.1431
 1975SOL     ow 7897   2.982   6.779   2.354  0.1935 -0.0635  0.0521
 1975SOL     hw 7898   2.992   6.732   2.437  0.9595  1.1585  0.6853
 1975SOL     hw 7899   2.894   6.817   2.359 -0.3809 -1.2841 -0.4093
 1975SOL     vw 7900   2.971   6.778   2.366  0.2186 -0.0637  0.0746
 1976SOL     ow 7901   6.841   0.395   5.781  0.1140  0.5241 -0.2237
 1976SOL     hw 7902   6.872   0.314   5.821 -3.7583 -0.7472  0.5634
 1976SOL     hw 7903   6.887   0.399   5.697 -0.5806 -3.2913 -0.9659
 1976SOL     vw 7904   6.851   0.385   5.775 -0.4883 -0.1470 -0.2177
 1977SOL     ow 7905   5.496   1.659   5.929  0.2463 -0.2703  0.4579
 1977SOL     hw 7906   5.563   1.597   5.900  1.6602  0.1982  2.5215
 1977SOL     hw 7907   5.485   1.641   6.022 -2.3149 -0.0917  0.2637
 1977SOL     vw 7908   5.503   1.648   5.937  0.0947 -0.1849  0.7048
 1978SOL     ow 7909   4.891   1.917   5.324 -0.0111 -0.5210  0.3645
 1978SOL     hw 7910   4.841   1.875   5.394 -1.9364 -0.3789 -0.8657
 1978SOL     hw 7911   4.827   1.935   5.255  1.3780  1.4124 -0.5264
 1978SOL     vw 7912   4.876   1.913   5.324 -0.0818 -0.2472  0.0846
 1979SOL     ow 7913   0.016   6.300   4.202  0.1172 -0.3374 -0.0224
 1979SOL     hw 7914  -0.027   6.267   4.281 -0.8084 -0.2431 -0.4734
 1979SOL     hw 7915   0.108   6.310   4.227 -0.2378  0.0991  1.1637
 1979SOL     vw 7916   0.022   6.297   4.215 -0.0518 -0.2673  0.0744
 1980SOL     ow 7917   4.217   4.164   6.307 -0.0240 -0.0407  0.0972
 1980SOL     hw 7918   4.285   4.222   6.342  0.5413  0.1641 -1.2557
 1980SOL     hw 7919   4.136   4.192   6.350  0.2877  1.5909 -0.3253
 1980SOL     vw 7920   4.215   4.175   6.317  0.0913  0.2015 -0.1369
 1981SOL     ow 7921   6.312   7.209   1.364  0.6799 -0.2826 -0.0879
 1981SOL     hw 7922   6.253   7.236   1.434 -1.7023 -3.4056 -0.6484
 1981SOL     hw 7923   6.363   7.287   1.343 -2.3532  2.2753  1.3384
 1981SOL     vw 7924   6.311   7.223   1.371 -0.0346 -0.3572  0.0263
 1982SOL     ow 7925   1.643   2.739   6.545  0.6015  0.2680  0.2012
 1982SOL     hw 7926   1.722   2.713   6.498 -0.7489  1.3404 -2.9476
 1982SOL     hw 7927   1.639   2.834   6.535 -1.0349  0.2470  0.3191
 1982SOL     vw 7928   1.653   2.748   6.538  0.2075  0.4066 -0.1986
 1983SOL     ow 7929   0.735   4.892   0.880 -0.4490  0.4368 -0.8678
 1983SOL     hw 7930   0.736   4.857   0.790 -1.8046  2.0031 -1.5369
 1983SOL     hw 7931   0.692   4.824   0.931  0.3200 -0.4714 -1.3784
 1983SOL     vw 7932   0.729   4.878   0.875 -0.5264  0.5231 -1.0234
 1984SOL     ow 7933   5.293   5.260   6.732 -0.2844 -0.2382  0.1380
 1984SOL     hw 7934   5.354   5.202   6.686  0.2647  1.7970 -1.8782
 1984SOL     hw 7935   5.334   5.275   6.817  1.0665 -0.4157 -0.4588
 1984SOL     vw 7936   5.306   5.254   6.737 -0.0339  0.0067 -0.2069
 1985SOL     ow 7937   6.706   0.188   2.000  0.4759  0.4047  0.4259
 1985SOL     hw 7938   6.634   0.171   2.061  1.6365  3.7188  3.0471
 1985SOL     hw 7939   6.782   0.202   2.056  3.1794 -2.2918 -2.1873
 1985SOL     vw 7940   6.706   0.188   2.015  0.9856  0.4862  0.4270
 1986SOL     ow 7941   4.389   2.131   0.501  0.6353 -0.4087  0.0649
 1986SOL     hw 7942   4.327   2.202   0.480  0.5662 -0.7884 -1.0826
 1986SOL     hw 7943   4.475   2.172   0.492  0.5799 -0.2557  0.2203
 1986SOL     vw 7944   4.392   2.146   0.497  0.6189 -0.4386 -0.0660
 1987SOL     ow 7945   5.013   4.696   4.052 -0.0719  0.6678  0.0865
 1987SOL     hw 7946   5.072   4.716   3.979  1.1141  0.6596  1.0049
 1987SOL     hw 7947   4.952   4.632   4.016 -0.5040  1.8301 -1.3328
 1987SOL     vw 7948   5.013   4.690   4.037  0.0274  0.8202  0.0205
 1988SOL     ow 7949   0.311   5.371   6.901  0.3681  0.8783 -0.0493
 1988SOL     hw 7950   0.322   5.280   6.872 -0.6569  0.2385  1.4816
 1988SOL     hw 7951   0.264   5.365   6.983 -0.9802  2.8802 -0.6006
 1988SOL     vw 7952   0.306   5.358   6.908  0.0550  1.0581  0.0799
 1989SOL     ow 7953   3.764   3.135   2.082  0.5586 -0.0367  0.5271
 1989SOL     hw 7954   3.672   3.112   2.090 -0.3202  1.5104 -3.1280
 1989SOL     hw 7955   3.771   3.223   2.120  1.0114 -0.8803  2.4925
 1989SOL     vw 7956   3.753   3.144   2.088  0.5025  0.0561  0.3041
 1990SOL     ow 7957   1.228   7.090   1.613 -0.4719  0.4160 -0.2626
 1990SOL     hw 7958   1.222   6.996   1.597  0.2382  0.4076 -0.5251
 1990SOL     hw 7959   1.170   7.106   1.687 -2.3821  0.1496 -1.6436
 1990SOL     vw 7960   1.220   7.080   1.621 -0.6302  0.3796 -0.4794
 1991SOL     ow 7961   1.318   7.010   3.327 -0.5090  0.0204  0.5659
 1991SOL     hw 7962   1.317   6.973   3.415  1.7149  2.1953  1.6160
 1991SOL     hw 7963   1.404   6.989   3.292 -0.5433  1.0867 -0.2205
 1991SOL     vw 7964   1.329   7.002   3.334 -0.2201  0.4482  0.6007
 1992SOL     ow 7965   6.720   0.791   4.865  0.0908 -0.3812  0.2341
 1992SOL     hw 7966   6.707   0.726   4.796 -2.2535 -0.9943  1.1542
 1992SOL     hw 7967   6.759   0.866   4.821 -0.3989 -1.1343 -1.5530
 1992SOL     vw 7968   6.723   0.792   4.850 -0.2832 -0.5615  0.1197
 1993SOL     ow 7969   6.281   5.157   6.082  0.2939  0.3720 -0.1804
 1993SOL     hw 7970   6.332   5.236   6.102  2.4566 -0.7806 -0.8303
 1993SOL     hw 7971   6.302   5.096   6.153 -0.9185  0.1641  0.0228
 1993SOL     vw 7972   6.291   5.159   6.094  0.4191  0.1926 -0.2391
 1994SOL     ow 7973   4.476   6.321   1.714 -0.0977 -0.1842  0.0531
 1994SOL     hw 7974   4.538   6.360   1.654  1.2803 -0.9236  0.9448
 1994SOL     hw 7975   4.522   6.245   1.750 -1.6839 -1.0206  0.4055
 1994SOL     vw 7976   4.490   6.316   1.711 -0.1252 -0.3922  0.2173
 1995SOL     ow 7977   4.213   1.910   0.616  0.3197  0.3822 -0.1978
 1995SOL     hw 7978   4.205   1.815   0.612 -0.0740  0.3747  0.6141
 1995SOL     hw 7979   4.138   1.938   0.668 -0.0738  1.2214 -1.1897
 1995SOL     vw 7980   4.202   1.901   0.622  0.2158  0.4920 -0.2215
 1996SOL     ow 7981   7.274   4.113   4.820  0.1657 -0.2547 -0.0673
 1996SOL     hw 7982   7.189   4.144   4.851  0.0561  0.1611 -0.7677
 1996SOL     hw 7983   7.281   4.147   4.731  0.8741 -0.6602 -0.1722
 1996SOL     vw 7984   7.264   4.122   4.812  0.2444 -0.2534 -0.1738
 1997SOL     ow 7985   0.233   5.581   4.725  0.4066 -0.3408  0.0726
 1997SOL     hw 7986   0.242   5.499   4.772 -0.2411 -1.2968 -1.4013
 1997SOL     hw 7987   0.182   5.637   4.784  2.2628 -0.3596  1.7936
 1997SOL     vw 7988   0.227   5.578   4.739  0.5661 -0.4694  0.1051
 1998SOL     ow 7989   5.765   4.291   6.586  0.6997  0.3012  0.0906
 1998SOL     hw 7990   5.834   4.229   6.567  0.4768 -0.4073  1.4481
 1998SOL     hw 7991   5.796   4.374   6.550  2.2484 -0.0008  0.6793
 1998SOL     vw 7992   5.778   4.294   6.579  0.8745  0.1678  0.3474
 1999SOL     ow 7993   6.470   6.997   1.239  0.0993 -1.1030 -0.6057
 1999SOL     hw 7994   6.531   7.040   1.298 -0.5915 -0.1329 -0.5708
 1999SOL     hw 7995   6.519   6.922   1.204  0.2506 -2.2328  1.8298
 1999SOL     vw 7996   6.485   6.993   1.242  0.0279 -1.1241 -0.2798
 2000SOL     ow 7997   1.258   0.145   3.161 -0.0946 -0.2133 -0.2989
 2000SOL     hw 7998   1.237   0.209   3.228  0.2981 -0.3108 -0.0783
 2000SOL     hw 7999   1.178   0.137   3.109 -0.8985 -1.2419  1.0523
 2000SOL     vw 8000   1.245   0.152   3.163 -0.1489 -0.3619 -0.0914
 2001SOL     ow 8001   4.330   2.296   0.051 -0.1163  0.2350  0.1414
 2001SOL     hw 8002   4.315   2.211   0.011 -4.1414  1.7796 -2.1557
 2001SOL     hw 8003   4.253   2.311   0.106  0.1750  2.6299  0.0017
 2001SOL     vw 8004   4.318   2.287   0.053 -0.6089  0.7547 -0.1801
 2002SOL     ow 8005   5.725   3.118   2.697  0.7303  0.4418  0.0771
 2002SOL     hw 8006   5.729   3.073   2.612  0.6093 -0.0652  0.3374
 2002SOL     hw 8007   5.725   3.211   2.674 -0.9818  0.3265 -0.5669
 2002SOL     vw 8008   5.726   3.125   2.683  0.4883  0.3598  0.0263
 2003SOL     ow 8009   3.689   6.111   3.201  0.8034 -0.3171  0.1472
 2003SOL     hw 8010   3.675   6.126   3.294  3.2679 -0.0713  0.5447
 2003SOL     hw 8011   3.668   6.019   3.188 -2.2881  0.2509  0.2778
 2003SOL     vw 8012   3.684   6.101   3.211  0.7206 -0.2096  0.2168
 2004SOL     ow 8013   2.261   1.536   2.760 -0.7239  0.2728  0.0309
 2004SOL     hw 8014   2.227   1.518   2.847 -1.4959  2.5382  0.2718
 2004SOL     hw 8015   2.289   1.628   2.764  1.2340 -0.1984 -1.5006
 2004SOL     vw 8016   2.260   1.546   2.772 -0.5676  0.5096 -0.1392
 2005SOL     ow 8017   0.908   3.038   1.536 -0.0045 -0.3922  0.0933
 2005SOL     hw 8018   0.977   3.066   1.477 -0.2494 -0.1169 -0.0633
 2005SOL     hw 8019   0.868   2.963   1.492 -0.8319  0.4186 -0.5657
 2005SOL     vw 8020   0.912   3.032   1.522 -0.1459 -0.2489 -0.0144
 2006SOL     ow 8021   1.222   3.954   4.821 -0.3836  0.1419  0.5055
 2006SOL     hw 8022   1.305   4.001   4.824  0.7356 -1.6201 -0.4833
 2006SOL     hw 8023   1.226   3.893   4.895 -0.6339 -0.1762  0.2625
 2006SOL     vw 8024   1.233   3.952   4.831 -0.2689 -0.1324  0.3428
 2007SOL     ow 8025   1.474   4.926   2.873 -0.1523 -0.3348 -0.5942
 2007SOL     hw 8026   1.565   4.950   2.889 -0.1089 -0.1742 -1.0462
 2007SOL     hw 8027   1.423   5.000   2.906 -0.0155  0.4683 -2.0567
 2007SOL     vw 8028   1.480   4.939   2.879 -0.1285 -0.2077 -0.8469
 2008SOL     ow 8029   5.395   7.247   0.383 -0.4639 -0.1145  0.4428
 2008SOL     hw 8030   5.393   7.151   0.380  3.5262 -0.3593 -1.8188
 2008SOL     hw 8031   5.449   7.267   0.460 -1.5961  0.3971  1.1280
 2008SOL     vw 8032   5.402   7.237   0.393 -0.0870 -0.0792  0.2348
 2009SOL     ow 8033   1.694   4.970   3.549  0.2592  0.6436  0.4849
 2009SOL     hw 8034   1.760   4.929   3.605  0.4063  2.3338  1.6621
 2009SOL     hw 8035   1.735   5.053   3.522 -0.3900  0.5209 -0.9427
 2009SOL     vw 8036   1.708   4.976   3.553  0.1930  0.8502  0.4519
 2010SOL     ow 8037   0.045   6.983   0.402  0.3936  0.0282 -0.4255
 2010SOL     hw 8038  -0.012   6.967   0.477  0.7026 -0.6768 -0.3354
 2010SOL     hw 8039   0.033   7.076   0.382 -1.0426 -0.1702 -0.6124
 2010SOL     vw 8040   0.036   6.993   0.409  0.2449 -0.0911 -0.4383
 2011SOL     ow 8041   2.003   0.016   2.156  0.1440 -0.1563  0.1909
 2011SOL     hw 8042   2.043  -0.036   2.227 -0.4018  0.6556  1.1202
 2011SOL     hw 8043   2.060   0.093   2.149 -0.6318  0.4977  0.8065
 2011SOL     vw 8044   2.016   0.019   2.165 -0.0303  0.0370  0.3948
 2012SOL     ow 8045   0.620   2.279   6.488  0.2370  0.3111 -0.6659
 2012SOL     hw 8046   0.652   2.276   6.398 -0.0594 -2.9599 -0.7840
 2012SOL     hw 8047   0.525   2.287   6.480  0.2614  0.6394 -0.6257
 2012SOL     vw 8048   0.611   2.280   6.475  0.2011 -0.0772 -0.6764
 2013SOL     ow 8049   1.719   0.044   2.198  0.1326 -0.0883  0.3999
 2013SOL     hw 8050   1.803   0.050   2.153  0.7076 -1.6640  1.1852
 2013SOL     hw 8051   1.674   0.126   2.177  0.2461 -0.7797 -3.2433
 2013SOL     vw 8052   1.724   0.055   2.189  0.2234 -0.3874  0.0229
 2014SOL     ow 8053   5.605   5.033   1.617 -0.0116  0.0331 -0.1893
 2014SOL     hw 8054   5.560   5.093   1.676 -0.2931 -0.8515  0.5264
 2014SOL     hw 8055   5.672   5.086   1.575 -0.3800  0.8879  0.2780
 2014SOL     vw 8056   5.608   5.048   1.619 -0.0973  0.0288 -0.0332
 2015SOL     ow 8057   6.530   1.253   7.146 -0.0308  0.5134  0.5407
 2015SOL     hw 8058   6.588   1.298   7.085  0.6584 -0.1877  0.6579
 2015SOL     hw 8059   6.490   1.323   7.198  1.4990  0.9855  1.1517
 2015SOL     vw 8060   6.532   1.268   7.145  0.2623  0.4832  0.6366
 2016SOL     ow 8061   0.757   0.184   2.131 -0.1814  0.1695  0.1641
 2016SOL     hw 8062   0.847   0.153   2.125 -0.2341  0.1939 -1.0953
 2016SOL     hw 8063   0.764   0.276   2.156  0.0325 -0.4135  2.4475
 2016SOL     vw 8064   0.770   0.192   2.133 -0.1601  0.0958  0.2992
 2017SOL     ow 8065   5.895   6.614   6.379  0.8784  0.8283 -0.5131
 2017SOL     hw 8066   5.967   6.630   6.441  0.5375  2.1662 -0.4400
 2017SOL     hw 8067   5.918   6.666   6.302  0.8024 -0.0455 -1.1388
 2017SOL     vw 8068   5.908   6.623   6.377  0.8233  0.8898 -0.5863
 2018SOL     ow 8069   2.108   1.916   5.375 -0.8199 -0.1136 -0.6493
 2018SOL     hw 8070   2.059   1.980   5.324 -0.2948 -0.3467 -1.4632
 2018SOL     hw 8071   2.151   1.967   5.443 -1.5296  0.2007 -0.4378
 2018SOL     vw 8072   2.108   1.931   5.377 -0.8442 -0.1028 -0.7288
 2019SOL     ow 8073   0.836   2.121   1.617  0.3191 -0.6052  0.2946
 2019SOL     hw 8074   0.889   2.152   1.690  0.8476 -2.3413  0.7008
 2019SOL     hw 8075   0.793   2.042   1.650 -1.8365  0.2556 -0.3253
 2019SOL     vw 8076   0.837   2.114   1.631  0.1044 -0.7206  0.2664
 2020SOL     ow 8077   5.707   4.569   7.187  0.0761  0.1271  0.0126
 2020SOL     hw 8078   5.768   4.496   7.179 -1.1469 -1.0164  0.7264
 2020SOL     hw 8079   5.660   4.552   7.268 -2.8921 -0.4022 -1.6859
 2020SOL     vw 8080   5.709   4.557   7.196 -0.4771 -0.0937 -0.1173
 2021SOL     ow 8081   0.669   0.725   2.176 -0.0947  0.0529  0.2891
 2021SOL     hw 8082   0.661   0.819   2.192  0.9078  0.1610  0.2320
 2021SOL     hw 8083   0.755   0.702   2.211  0.2953 -0.5442 -0.9926
 2021SOL     vw 8084   0.680   0.735   2.182  0.0890 -0.0116  0.1123
 2022SOL     ow 8085   4.069   3.247   1.684  0.6519 -0.2533 -0.2124
 2022SOL     hw 8086   4.048   3.170   1.630  1.2224  0.4439 -1.4787
 2022SOL     hw 8087   4.165   3.251   1.683  0.6190  0.6247 -0.3828
 2022SOL     vw 8088   4.079   3.237   1.676  0.7226 -0.0455 -0.4020
 2023SOL     ow 8089   1.844   2.152   6.937 -0.3111 -1.1310 -1.7503
 2023SOL     hw 8090   1.863   2.072   6.986 -0.0237  0.7213  1.4295
 2023SOL     hw 8091   1.922   2.166   6.883  1.2981 -1.0621  0.4938
 2023SOL     vw 8092   1.857   2.143   6.936 -0.0609 -0.8774 -1.0345
 2024SOL     ow 8093   0.744   1.233   6.943  0.3244  0.2121  0.4195
 2024SOL     hw 8094   0.731   1.197   7.030 -1.1593  0.9144  0.5092
 2024SOL     hw 8095   0.825   1.284   6.950  1.2516 -1.2492  0.8522
 2024SOL     vw 8096   0.753   1.235   6.955  0.2509  0.1120  0.4885
 2025SOL     ow 8097   1.774   0.732   1.919 -0.0015  0.1735 -0.2796
 2025SOL     hw 8098   1.835   0.804   1.907 -0.6475  0.5619 -1.3229
 2025SOL     hw 8099   1.795   0.671   1.848  0.2956 -0.5066  0.3745
 2025SOL     vw 8100   1.785   0.733   1.908 -0.0475  0.1350 -0.3310
 2026SOL     ow 8101   0.850   4.542   0.159 -1.0282 -0.0971  0.1990
 2026SOL     hw 8102   0.757   4.559   0.147 -1.1878 -0.0859  1.3107
 2026SOL     hw 8103   0.858   4.520   0.252  0.0608 -0.2013  0.0904
 2026SOL     vw 8104   0.839   4.542   0.170 -0.9056 -0.1094  0.3314
 2027SOL     ow 8105   1.745   5.832   5.753  0.3378 -0.4321 -0.1316
 2027SOL     hw 8106   1.824   5.835   5.699 -0.3013 -1.5734 -1.1746
 2027SOL     hw 8107   1.677   5.871   5.698  0.3895  1.8565  1.2703
 2027SOL     vw 8108   1.747   5.838   5.739  0.2603 -0.2809 -0.0842
 2028SOL     ow 8109   6.126   3.525   0.434  0.3335 -0.4563  0.2068
 2028SOL     hw 8110   6.110   3.611   0.394 -3.4243 -0.4095  1.4293
 2028SOL     hw 8111   6.188   3.483   0.375  0.1546  2.0643 -1.9920
 2028SOL     vw 8112   6.132   3.531   0.421 -0.1860 -0.1175  0.0780
 2029SOL     ow 8113   3.656   3.958   2.309 -0.9506  0.2812  0.5855
 2029SOL     hw 8114   3.705   3.895   2.363 -0.0942  1.2655  0.9907
 2029SOL     hw 8115   3.719   4.027   2.291 -0.4861 -0.9278 -3.4533
 2029SOL     vw 8116   3.671   3.959   2.313 -0.7764  0.2517  0.1062
 2030SOL     ow 8117   3.094   1.056   1.037  0.0936  0.6841 -0.7341
 2030SOL     hw 8118   3.079   1.043   0.943  0.5317  2.7110 -1.1244
 2030SOL     hw 8119   3.037   1.129   1.061  1.5805  1.6160  0.0871
 2030SOL     vw 8120   3.085   1.064   1.028  0.3475  1.0745 -0.6773
 2031SOL     ow 8121   0.370   0.571   2.682  0.1500 -0.4772  0.2519
 2031SOL     hw 8122   0.324   0.500   2.637  0.5119 -0.9892  0.6714
 2031SOL     hw 8123   0.346   0.650   2.634  1.4926 -1.1396 -1.5890
 2031SOL     vw 8124   0.361   0.572   2.670  0.3749 -0.6322  0.0644
 2032SOL     ow 8125   3.094   2.146   0.209 -0.0587 -0.4411 -0.2272
 2032SOL     hw 8126   3.122   2.175   0.122 -1.4186  0.6380 -0.3467
 2032SOL     hw 8127   3.000   2.165   0.212  0.2267  1.0387  2.0259
 2032SOL     vw 8128   3.085   2.152   0.198 -0.2005 -0.1035  0.0543
 2033SOL     ow 8129   6.675   2.123   3.170  0.6282  0.9871 -0.0575
 2033SOL     hw 8130   6.674   2.204   3.221  3.2641  1.4291 -0.5701
 2033SOL     hw 8131   6.699   2.150   3.081  1.3323 -0.2923 -0.2876
 2033SOL     vw 8132   6.678   2.137   3.165  1.0691  0.8765 -0.1556
 2034SOL     ow 8133   5.886   4.958   1.733 -1.2156  0.2539 -0.0731
 2034SOL     hw 8134   5.968   4.910   1.738 -1.3250  0.2150  2.2958
 2034SOL     hw 8135   5.897   5.031   1.794 -2.5624  0.8631 -0.5162
 2034SOL     vw 8136   5.898   4.961   1.742 -1.4076  0.3295  0.1810
 2035SOL     ow 8137   2.137   0.825   1.669 -0.5453  0.1731  0.4291
 2035SOL     hw 8138   2.144   0.900   1.727 -0.2981 -0.0427  0.6834
 2035SOL     hw 8139   2.206   0.765   1.699 -1.0894 -0.3906  0.5716
 2035SOL     vw 8140   2.147   0.827   1.680 -0.5845  0.0702  0.4814
 2036SOL     ow 8141   3.770   4.569   0.243 -0.0261  0.4814 -0.0551
 2036SOL     hw 8142   3.752   4.628   0.316 -0.0575 -0.9756  1.1529
 2036SOL     hw 8143   3.705   4.593   0.176 -0.7008  1.1370  0.8107
 2036SOL     vw 8144   3.759   4.580   0.243 -0.1193  0.3757  0.2185
 2037SOL     ow 8145   1.574   4.477   5.605  0.1195 -0.3703 -0.6181
 2037SOL     hw 8146   1.532   4.440   5.683 -0.3565  0.0238 -0.6801
 2037SOL     hw 8147   1.576   4.571   5.622  2.5018 -0.5036  0.1156
 2037SOL     vw 8148   1.569   4.484   5.617  0.3710 -0.3359 -0.5298
 2038SOL     ow 8149   6.021   3.516   0.681 -1.0499 -0.0791 -0.3301
 2038SOL     hw 8150   6.048   3.515   0.589 -2.5295 -0.1675 -0.7875
 2038SOL     hw 8151   6.059   3.436   0.718  0.2828  0.3972 -0.6263
 2038SOL     vw 8152   6.030   3.505   0.673 -1.0691 -0.0279 -0.4295
 2039SOL     ow 8153   6.387   6.861   5.177  0.0906 -0.4273  0.2190
 2039SOL     hw 8154   6.405   6.932   5.115 -2.5251 -0.2467 -0.4395
 2039SOL     hw 8155   6.356   6.905   5.256  0.3509 -0.7805  0.5223
 2039SOL     vw 8156   6.385   6.876   5.179 -0.2203 -0.4504  0.1724
 2040SOL     ow 8157   6.553   6.032   1.657  0.3821 -0.7735  0.7408
 2040SOL     hw 8158   6.465   6.041   1.692  0.9430 -1.3666  2.3913
 2040SOL     hw 8159   6.595   5.967   1.713  0.6209 -3.7414 -2.4777
 2040SOL     vw 8160   6.547   6.024   1.669  0.4878 -1.2431  0.5339
 2041SOL     ow 8161   7.265   0.055   1.592  0.9011  0.1229  0.4822
 2041SOL     hw 8162   7.214   0.021   1.665  2.6906 -1.2862  1.1350
 2041SOL     hw 8163   7.326   0.117   1.631 -0.7656  2.4776 -0.4063
 2041SOL     vw 8164   7.266   0.059   1.607  0.9174  0.2477  0.4510
 2042SOL     ow 8165   6.635   2.802   2.101  0.2748 -0.0926 -0.2174
 2042SOL     hw 8166   6.664   2.768   2.016 -0.2234  0.2865 -0.5468
 2042SOL     hw 8167   6.592   2.885   2.080 -0.1639 -0.1648  0.3679
 2042SOL     vw 8168   6.633   2.809   2.087  0.1512 -0.0521 -0.1836
 2043SOL     ow 8169   1.917   0.572   6.723  0.3339  0.5188  0.5337
 2043SOL     hw 8170   1.961   0.645   6.678  1.9453 -0.4886  0.4064
 2043SOL     hw 8171   1.912   0.600   6.814  0.9167  0.8218  0.4818
 2043SOL     vw 8172   1.922   0.586   6.729  0.6233  0.4259  0.5100
 2044SOL     ow 8173   6.500   3.924   3.243  0.5469 -0.3717  0.0565
 2044SOL     hw 8174   6.572   3.981   3.268  0.5415 -1.1055  1.9424
 2044SOL     hw 8175   6.535   3.869   3.173  1.5723 -0.2204  0.4407
 2044SOL     vw 8176   6.514   3.924   3.237  0.6816 -0.4485  0.3560
 2045SOL     ow 8177   6.758   4.599   1.158 -0.4710  0.0215 -0.9366
 2045SOL     hw 8178   6.693   4.534   1.184 -1.9144  1.4006 -0.9099
 2045SOL     hw 8179   6.808   4.558   1.088 -2.3074 -0.5962 -1.9295
 2045SOL     vw 8180   6.756   4.585   1.153 -0.9038  0.1221 -1.0641
 2046SOL     ow 8181   5.297   6.884   1.745 -0.3812 -0.0869  0.3365
 2046SOL     hw 8182   5.249   6.918   1.821  1.5568 -1.2375  2.1901
 2046SOL     hw 8183   5.236   6.893   1.672 -1.8982  2.2525  1.7543
 2046SOL     vw 8184   5.283   6.890   1.745 -0.3254  0.0699  0.7681
 2047SOL     ow 8185   0.232   3.529   6.036 -0.1726 -0.5686  0.4997
 2047SOL     hw 8186   0.253   3.576   6.116 -2.8840 -0.6078  1.3367
 2047SOL     hw 8187   0.212   3.598   5.972 -3.7141 -0.3660  1.6035
 2047SOL     vw 8188   0.232   3.545   6.038 -0.9976 -0.5471  0.7558
 2048SOL     ow 8189   1.868   3.037   1.436  0.1060  0.3931 -0.6440
 2048SOL     hw 8190   1.819   2.954   1.434 -0.8468  0.7972  1.9313
 2048SOL     hw 8191   1.802   3.104   1.418  0.7403  0.6825 -2.0189
 2048SOL     vw 8192   1.853   3.035   1.433  0.0640  0.4846 -0.4855
 2049SOL     ow 8193   0.158   1.280   1.409 -0.4824 -0.3274 -0.5319
 2049SOL     hw 8194   0.205   1.329   1.341  0.7007  0.9959  1.1408
 2049SOL     hw 8195   0.214   1.205   1.426  0.0769  0.2215  0.1071
 2049SOL     vw 8196   0.172   1.277   1.402 -0.2525 -0.0805 -0.2269
 2050SOL     ow 8197   2.197   2.662   2.361 -0.2534 -0.0671  0.1421
 2050SOL     hw 8198   2.118   2.664   2.414 -0.7090  0.7134 -0.5371
 2050SOL     hw 8199   2.269   2.661   2.424 -0.7719  1.2690  0.7895
 2050SOL     vw 8200   2.196   2.663   2.376 -0.3818  0.2122  0.1379
 2051SOL     ow 8201   1.610   3.577   6.932 -0.1043  0.3339 -0.3219
 2051SOL     hw 8202   1.548   3.650   6.929  1.4727  1.7155 -1.9423
 2051SOL     hw 8203   1.557   3.499   6.915 -1.8943  0.9906  1.7971
 2051SOL     vw 8204   1.595   3.576   6.929 -0.1324  0.6027 -0.2561
 2052SOL     ow 8205   2.862   6.946   6.643  0.6508 -0.1078  0.0416
 2052SOL     hw 8206   2.956   6.932   6.626  0.4717 -0.6581 -0.5517
 2052SOL     hw 8207   2.818   6.895   6.575 -0.0944 -0.6367  0.9070
 2052SOL     vw 8208   2.869   6.937   6.632  0.5288 -0.2503  0.0775
 2053SOL     ow 8209   1.359   4.179   1.234 -0.3311 -0.4491  0.1745
 2053SOL     hw 8210   1.319   4.226   1.161 -1.0841  1.6022  1.8121
 2053SOL     hw 8211   1.388   4.096   1.196 -0.8133  0.4707 -2.3946
 2053SOL     vw 8212   1.358   4.174   1.219 -0.4941 -0.0570  0.0516
 2054SOL     ow 8213   6.114   2.669   3.933 -0.1241 -0.1258 -0.0810
 2054SOL     hw 8214   6.171   2.742   3.908 -0.5102  0.4461  0.6588
 2054SOL     hw 8215   6.117   2.610   3.858  1.5223 -0.1688 -0.0112
 2054SOL     vw 8216   6.122   2.671   3.920  0.0422 -0.0560  0.0259
 2055SOL     ow 8217   6.583   2.514   2.523  0.5407 -0.7764 -0.2821
 2055SOL     hw 8218   6.493   2.490   2.545 -0.0502  0.5590 -1.0999
 2055SOL     hw 8219   6.635   2.479   2.596 -0.8879  0.2952  1.3599
 2055SOL     vw 8220   6.578   2.506   2.536  0.2744 -0.4587 -0.1734
 2056SOL     ow 8221   5.021   5.366   3.618  0.0200  0.1129  0.2204
 2056SOL     hw 8222   5.004   5.460   3.624  1.3971  0.4284 -0.4272
 2056SOL     hw 8223   5.107   5.355   3.659  2.3766 -0.0002 -4.1630
 2056SOL     vw 8224   5.030   5.377   3.625  0.5126  0.1397 -0.4432
 2057SOL     ow 8225   4.850   2.611   4.671  0.6826 -0.4469 -0.3523
 2057SOL     hw 8226   4.870   2.533   4.619 -2.3092 -0.7448 -1.2413
 2057SOL     hw 8227   4.896   2.682   4.626  1.9086 -1.3922 -0.6419
 2057SOL     vw 8228   4.859   2.610   4.658  0.4497 -0.6109 -0.5076
 2058SOL     ow 8229   1.084   6.400   1.789  0.5619 -0.0034  0.4698
 2058SOL     hw 8230   1.065   6.369   1.701  4.0700 -0.8445 -0.1540
 2058SOL     hw 8231   1.097   6.495   1.779  2.5006 -0.3101 -0.3274
 2058SOL     vw 8232   1.083   6.409   1.776  1.2805 -0.1550  0.2823
 2059SOL     ow 8233   6.531   1.884   3.494 -0.1941  0.6617 -0.0885
 2059SOL     hw 8234   6.513   1.978   3.494  3.4021  1.5641 -2.3951
 2059SOL     hw 8235   6.596   1.872   3.564  0.8095  0.3458 -1.0382
 2059SOL     vw 8236   6.537   1.895   3.503  0.4127  0.7391 -0.5182
 2060SOL     ow 8237   1.989   2.939   5.072 -0.1275 -0.7541 -0.1810
 2060SOL     hw 8238   1.911   2.988   5.049 -0.3267 -0.9681  0.0265
 2060SOL     hw 8239   1.969   2.901   5.158  0.0989 -1.0286 -0.2478
 2060SOL     vw 8240   1.976   2.940   5.080 -0.1240 -0.8186 -0.1624
 2061SOL     ow 8241   2.230   5.118   6.893 -0.0383 -0.5871 -0.7460
 2061SOL     hw 8242   2.213   5.211   6.882 -1.9601 -0.8617 -0.6047
 2061SOL     hw 8243   2.178   5.076   6.824  0.7388 -1.5579 -0.7630
 2061SOL     vw 8244   2.221   5.125   6.882 -0.1893 -0.7513 -0.7296
 2062SOL     ow 8245   3.196   3.682   7.287 -0.7382 -0.0463 -0.6085
 2062SOL     hw 8246   3.261   3.627   7.331 -1.0335 -0.7907 -1.0975
 2062SOL     hw 8247   3.198   3.655   7.196 -0.1996  1.4348 -1.0631
 2062SOL     vw 8248   3.205   3.672   7.281 -0.7062  0.0510 -0.7329
 2063SOL     ow 8249   1.736   2.704   3.414  0.6608  0.1236  0.8073
 2063SOL     hw 8250   1.751   2.665   3.501 -1.4326  0.6410  1.4532
 2063SOL     hw 8251   1.674   2.645   3.371 -0.9781  1.5945  1.0251
 2063SOL     vw 8252   1.730   2.691   3.420  0.1683  0.3860  0.9211
 2064SOL     ow 8253   0.731   2.028   7.017 -0.0041  0.1952 -0.9343
 2064SOL     hw 8254   0.640   1.998   7.023  0.0051 -0.5528 -3.5411
 2064SOL     hw 8255   0.727   2.119   7.045 -1.4103 -0.0401 -0.2608
 2064SOL     vw 8256   0.718   2.036   7.022 -0.1885  0.0654 -1.1897
 2065SOL     ow 8257   4.991   0.463   1.156  0.5509 -0.9170  0.3639
 2065SOL     hw 8258   4.994   0.555   1.128 -0.1709 -1.4278 -1.4877
 2065SOL     hw 8259   4.917   0.426   1.109  2.5253 -3.1748 -1.1680
 2065SOL     vw 8260   4.981   0.470   1.146  0.7164 -1.2823 -0.0826
 2066SOL     ow 8261   4.945   0.681   0.245 -0.1528 -0.0353  0.2972
 2066SOL     hw 8262   4.900   0.643   0.320  0.8582 -0.8209  0.5303
 2066SOL     hw 8263   5.038   0.671   0.266  0.2606 -2.7412 -2.1801
 2066SOL     vw 8264   4.952   0.674   0.258  0.0353 -0.4960  0.0011
 2067SOL     ow 8265   5.351   6.520   4.535 -0.1096  0.6186 -0.4264
 2067SOL     hw 8266   5.367   6.452   4.471 -0.9334  1.8927 -2.0637
 2067SOL     hw 8267   5.395   6.490   4.615  1.2113 -0.8542 -1.6662
 2067SOL     vw 8268   5.359   6.507   4.537 -0.0441  0.5922 -0.8059
 2068SOL     ow 8269   3.507   3.461   7.149 -0.4459 -0.0524 -0.1611
 2068SOL     hw 8270   3.557   3.492   7.073 -2.0834  1.5032 -0.6810
 2068SOL     hw 8271   3.417   3.457   7.118 -1.0264 -0.2129  1.4788
 2068SOL     vw 8272   3.502   3.465   7.135 -0.7384  0.1316 -0.0134
 2069SOL     ow 8273   7.355   1.126   6.858  0.4401 -0.7418 -0.4713
 2069SOL     hw 8274   7.316   1.110   6.944  1.9576  1.7910  0.8071
 2069SOL     hw 8275   7.307   1.202   6.824 -0.2363 -1.7943 -1.9965
 2069SOL     vw 8276   7.343   1.134   6.865  0.5511 -0.5465 -0.5040
 2070SOL     ow 8277   7.314   1.349   2.061  0.0576  0.6691  0.3227
 2070SOL     hw 8278   7.328   1.441   2.084 -3.2188  1.7626 -1.3538
 2070SOL     hw 8279   7.238   1.323   2.112  2.2868 -2.0439  2.6042
 2070SOL     vw 8280   7.306   1.358   2.071 -0.0808  0.4554  0.4026
 2071SOL     ow 8281   4.915   2.483   3.448 -0.3842  0.5415  0.2335
 2071SOL     hw 8282   4.821   2.465   3.448 -0.4221  0.4411  2.1687
 2071SOL     hw 8283   4.921   2.576   3.469 -0.0773  0.0748  2.4477
 2071SOL     vw 8284   4.903   2.493   3.451 -0.3486  0.4667  0.7809
 2072SOL     ow 8285   2.225   1.399   2.517 -0.1564 -0.7393 -0.0631
 2072SOL     hw 8286   2.176   1.476   2.489  1.2631 -0.2975 -1.5108
 2072SOL     hw 8287   2.248   1.417   2.608  1.1002  1.1307 -0.6742
 2072SOL     vw 8288   2.222   1.412   2.525  0.1967 -0.4343 -0.3347
 2073SOL     ow 8289   6.547   5.930   4.631  0.1395  0.6680 -0.5465
 2073SOL     hw 8290   6.544   5.922   4.536  0.1464  1.0853 -0.5843
 2073SOL     hw 8291   6.641   5.930   4.652  0.1426 -1.5625 -0.3371
 2073SOL     vw 8292   6.559   5.929   4.621  0.1409  0.4287 -0.5240
 2074SOL     ow 8293   3.131   4.321   0.303 -0.4784 -0.2862  0.1647
 2074SOL     hw 8294   3.141   4.226   0.295  0.4018 -0.1150 -0.9720
 2074SOL     hw 8295   3.038   4.337   0.286 -0.3051 -0.7966 -1.4068
 2074SOL     vw 8296   3.120   4.310   0.300 -0.3395 -0.3312 -0.1926
 2075SOL     ow 8297   6.868   6.841   4.782 -0.6185  0.3525  0.1345
 2075SOL     hw 8298   6.860   6.885   4.697 -1.5053 -1.0139 -0.5097
 2075SOL     hw 8299   6.961   6.850   4.804 -0.3910  0.7988 -0.9410
 2075SOL     vw 8300   6.879   6.848   4.773 -0.7057  0.2313 -0.0925
 2076SOL     ow 8301   5.948   0.453   7.209  0.2776  0.3926  0.1934
 2076SOL     hw 8302   6.011   0.381   7.218 -0.2943 -0.3849 -1.4432
 2076SOL     hw 8303   5.898   0.452   7.290  0.9412 -0.4013  0.6086
 2076SOL     vw 8304   5.950   0.443   7.221  0.2899  0.1853  0.0322
 2077SOL     ow 8305   0.202   3.225   3.553  0.2762 -0.7970 -0.0063
 2077SOL     hw 8306   0.209   3.223   3.457  1.2552  1.5698 -0.0673
 2077SOL     hw 8307   0.134   3.291   3.570  0.4596 -0.8427  0.9328
 2077SOL     vw 8308   0.194   3.234   3.543  0.4296 -0.4908  0.1094
 2078SOL     ow 8309   5.871   6.442   5.447  0.0817  0.6291  0.5666
 2078SOL     hw 8310   5.838   6.459   5.358  0.7330  0.8765  0.3641
 2078SOL     hw 8311   5.956   6.401   5.433  0.7950  1.8882  1.0631
 2078SOL     vw 8312   5.878   6.439   5.433  0.2620  0.8278  0.6053
 2079SOL     ow 8313   5.489   5.489   4.774 -0.3855  0.5140 -0.5691
 2079SOL     hw 8314   5.581   5.508   4.756 -0.0895 -0.2623  0.0558
 2079SOL     hw 8315   5.447   5.575   4.782  1.0172  1.0462  2.8106
 2079SOL     vw 8316   5.495   5.503   4.773 -0.1614  0.4823 -0.0405
 2080SOL     ow 8317   5.629   3.371   5.821 -0.6638 -0.0203  0.1848
 2080SOL     hw 8318   5.648   3.321   5.742  3.3934 -1.2635  1.6570
 2080SOL     hw 8319   5.552   3.328   5.859 -1.1877 -0.9468 -1.8129
 2080SOL     vw 8320   5.621   3.359   5.816 -0.1976 -0.3067  0.1154
 2081SOL     ow 8321   5.088   3.473   3.232  0.0044  0.4901  0.1560
 2081SOL     hw 8322   5.122   3.554   3.193  0.1761  0.8267  0.9963
 2081SOL     hw 8323   5.163   3.414   3.234  0.0526  0.5541  0.2105
 2081SOL     vw 8324   5.102   3.476   3.227  0.0336  0.5429  0.2739
 2082SOL     ow 8325   4.661   6.623   2.978 -0.1330  0.6846  0.6330
 2082SOL     hw 8326   4.622   6.539   2.951 -0.7967  1.0068  0.5599
 2082SOL     hw 8327   4.595   6.688   2.953  1.9457  1.6776 -2.9079
 2082SOL     vw 8328   4.647   6.620   2.971  0.0539  0.8585  0.1563
 2083SOL     ow 8329   1.497   5.837   3.894  0.3160  0.4246 -0.7405
 2083SOL     hw 8330   1.451   5.911   3.855  1.7741  2.3350  0.9681
 2083SOL     hw 8331   1.589   5.854   3.877  0.7672 -0.2926  0.8455
 2083SOL     vw 8332   1.503   5.849   3.887  0.5679  0.5820 -0.3058
 2084SOL     ow 8333   4.024   3.065   1.488  0.5873 -0.1576 -0.2066
 2084SOL     hw 8334   3.930   3.045   1.485  0.6113 -0.4632  0.6444
 2084SOL     hw 8335   4.050   3.073   1.397 -0.1409 -0.6904 -0.4719
 2084SOL     vw 8336   4.015   3.064   1.476  0.4945 -0.2681 -0.1293
 2085SOL     ow 8337   1.337   1.137   5.679 -0.0417  0.0457  0.1349
 2085SOL     hw 8338   1.242   1.124   5.688 -0.1477  0.6423 -0.0897
 2085SOL     hw 8339   1.349   1.167   5.589  0.2232  1.1209  0.5090
 2085SOL     vw 8340   1.326   1.139   5.668 -0.0207  0.2662  0.1547
 2086SOL     ow 8341   5.771   6.629   6.882 -0.8886  0.5598  0.2336
 2086SOL     hw 8342   5.773   6.619   6.977 -0.1333  1.7684  0.3599
 2086SOL     hw 8343   5.691   6.678   6.865 -0.5483  1.1561  0.3366
 2086SOL     vw 8344   5.761   6.634   6.893 -0.7441  0.7977  0.2639
 2087SOL     ow 8345   1.679   6.895   0.514  0.5544 -1.0733  0.4195
 2087SOL     hw 8346   1.689   6.867   0.605 -0.8795  1.8022  1.5899
 2087SOL     hw 8347   1.688   6.814   0.463  1.6779 -2.7560  3.0398
 2087SOL     vw 8348   1.682   6.880   0.519  0.5135 -0.9162  0.9196
 2088SOL     ow 8349   4.462   5.876   0.163  0.1837  0.3706 -0.1753
 2088SOL     hw 8350   4.383   5.849   0.209  2.2027  0.4178  3.6978
 2088SOL     hw 8351   4.458   5.972   0.161  1.1879  0.5368  2.3617
 2088SOL     vw 8352   4.451   5.885   0.169  0.5827  0.3986  0.6704
 2089SOL     ow 8353   0.366   1.953   4.326  0.4562  0.5779 -0.9225
 2089SOL     hw 8354   0.355   2.033   4.275  3.3731  1.4275 -0.4511
 2089SOL     hw 8355   0.388   1.984   4.414 -1.4288 -0.8307  0.1137
 2089SOL     vw 8356   0.368   1.968   4.331  0.5924  0.5042 -0.7238
 2090SOL     ow 8357   4.378   3.965   6.245  0.1056 -0.0715  0.9737
 2090SOL     hw 8358   4.314   4.026   6.281  0.7393  0.4706  1.1991
 2090SOL     hw 8359   4.418   3.924   6.322  1.1931  0.8087  0.8927
 2090SOL     vw 8360   4.374   3.967   6.260  0.3326  0.1161  0.9925
 2091SOL     ow 8361   2.077   1.523   3.991 -0.0516 -0.1499  0.0789
 2091SOL     hw 8362   2.068   1.450   4.053 -1.1052 -0.7210 -0.7205
 2091SOL     hw 8363   2.160   1.505   3.946 -0.4463 -1.0343 -0.3181
 2091SOL     vw 8364   2.087   1.511   3.993 -0.2427 -0.3419 -0.0790
 2092SOL     ow 8365   0.446   6.178   4.988 -0.5405  0.0262  0.8006
 2092SOL     hw 8366   0.364   6.128   4.992 -0.3770 -0.2277  0.9903
 2092SOL     hw 8367   0.420   6.263   4.952 -1.0456  0.2493  1.6440
 2092SOL     vw 8368   0.432   6.183   4.984 -0.5856  0.0222  0.9370
 2093SOL     ow 8369   5.041   5.772   0.037  0.3070 -0.1001  0.6076
 2093SOL     hw 8370   4.949   5.762   0.016  0.2666 -1.8359  1.3900
 2093SOL     hw 8371   5.087   5.719  -0.029  0.6508 -0.1548  0.8842
 2093SOL     vw 8372   5.035   5.764   0.025  0.3469 -0.3364  0.7472
 2094SOL     ow 8373   1.545   6.124   2.758 -0.6838 -0.1145  0.1279
 2094SOL     hw 8374   1.626   6.172   2.744 -1.4303  0.4069 -3.3289
 2094SOL     hw 8375   1.489   6.186   2.805 -0.2331  0.9025 -0.6152
 2094SOL     vw 8376   1.548   6.139   2.762 -0.7228  0.0885 -0.4262
 2095SOL     ow 8377   4.638   3.441   4.864  0.1156 -0.1877  1.0303
 2095SOL     hw 8378   4.560   3.423   4.811 -0.2159  0.4387  1.2978
 2095SOL     hw 8379   4.603   3.480   4.945  0.7579  0.8003  0.8337
 2095SOL     vw 8380   4.623   3.444   4.868  0.1566  0.0253  1.0395
 2096SOL     ow 8381   5.710   2.294   6.551 -0.2948  0.4505 -0.4855
 2096SOL     hw 8382   5.695   2.246   6.470  0.0541  0.9375 -0.8471
 2096SOL     hw 8383   5.777   2.245   6.597 -0.9817 -0.2058 -0.1630
 2096SOL     vw 8384   5.717   2.281   6.547 -0.3393  0.4281 -0.4907
 2097SOL     ow 8385   3.661   1.243   2.278 -0.1864 -0.7056 -0.1524
 2097SOL     hw 8386   3.579   1.249   2.229  1.3567 -1.5554 -3.0976
 2097SOL     hw 8387   3.641   1.187   2.353 -2.1206 -1.5320 -1.2138
 2097SOL     vw 8388   3.647   1.237   2.282 -0.2379 -0.9267 -0.6810
 2098SOL     ow 8389   3.084   5.693   2.260  1.2466  0.0879  0.3686
 2098SOL     hw 8390   3.011   5.747   2.229  0.8963 -0.3833  0.3623
 2098SOL     hw 8391   3.061   5.669   2.349  0.5852 -1.4238 -0.1702
 2098SOL     vw 8392   3.071   5.697   2.267  1.1132 -0.1736  0.2967
 2099SOL     ow 8393   4.226   2.905   5.120 -0.4098  0.0961  0.1500
 2099SOL     hw 8394   4.248   2.883   5.030  0.6610  0.2184  0.3693
 2099SOL     hw 8395   4.151   2.849   5.141  0.4359 -1.2372 -0.2393
 2099SOL     vw 8396   4.219   2.895   5.111 -0.1571 -0.0637  0.1276
 2100SOL     ow 8397   0.119   1.390   5.679  1.0809  0.1491  0.2730
 2100SOL     hw 8398   0.200   1.435   5.658  0.0714  2.8890  1.7373
 2100SOL     hw 8399   0.128   1.363   5.770  0.3881  0.4428  0.4384
 2100SOL     vw 8400   0.131   1.392   5.688  0.8566  0.5494  0.4880
 2101SOL     ow 8401   3.118   7.064   3.540 -0.2449  0.2725 -0.2149
 2101SOL     hw 8402   3.177   7.062   3.465 -0.7025 -0.7707 -0.5644
 2101SOL     hw 8403   3.094   6.973   3.554 -0.5533  0.5124  0.8994
 2101SOL     vw 8404   3.122   7.052   3.532 -0.3459  0.1664 -0.1141
 2102SOL     ow 8405   0.448   3.469   7.061  0.0537 -0.3076  0.9505
 2102SOL     hw 8406   0.442   3.379   7.028  0.8296  0.4526 -1.5571
 2102SOL     hw 8407   0.515   3.510   7.005 -1.0533  2.1203  1.2750
 2102SOL     vw 8408   0.456   3.462   7.049  0.0100  0.1130  0.6623
 2103SOL     ow 8409   2.337   1.916   6.052  0.5200  0.3005  0.3521
 2103SOL     hw 8410   2.243   1.915   6.035  0.5722 -1.4892  0.0466
 2103SOL     hw 8411   2.375   1.948   5.970  0.3442 -1.9735 -0.6782
 2103SOL     vw 8412   2.330   1.920   6.039  0.5037 -0.2356  0.1760
 2104SOL     ow 8413   0.255   4.174   6.838 -0.2330  0.2290 -0.2615
 2104SOL     hw 8414   0.317   4.191   6.909  0.1952 -0.6986 -0.3961
 2104SOL     hw 8415   0.232   4.082   6.848 -0.1191  0.0631 -1.3541
 2104SOL     vw 8416   0.260   4.164   6.849 -0.1615  0.0849 -0.4237
 2105SOL     ow 8417   5.004   3.264   4.441 -0.4891 -0.5425  0.3067
 2105SOL     hw 8418   5.084   3.303   4.407  1.8136 -2.5287  2.9342
 2105SOL     hw 8419   4.942   3.269   4.368  1.4770  2.4082 -1.3837
 2105SOL     vw 8420   5.006   3.269   4.427  0.0739 -0.4152  0.4303
 2106SOL     ow 8421   2.197   4.114   2.222  0.3219  0.2921 -0.8542
 2106SOL     hw 8422   2.196   4.209   2.238  0.9294  0.7280 -3.0462
 2106SOL     hw 8423   2.280   4.098   2.177  0.1870 -1.2808 -0.5970
 2106SOL     vw 8424   2.208   4.125   2.218  0.3843  0.1421 -1.1095
 2107SOL     ow 8425   5.317   0.906   6.242  0.7224 -0.0514 -0.1739
 2107SOL     hw 8426   5.278   0.890   6.328  0.2094  1.2418 -0.1368
 2107SOL     hw 8427   5.344   0.998   6.245 -0.6704  0.4698 -1.9050
 2107SOL     vw 8428   5.316   0.916   6.254  0.4711  0.1880 -0.3972
 2108SOL     ow 8429   6.263   7.219   0.601  0.2942  0.4273 -0.4898
 2108SOL     hw 8430   6.285   7.312   0.614 -1.2861  0.4698  3.3423
 2108SOL     hw 8431   6.167   7.217   0.608  0.0750 -1.3119 -2.8599
 2108SOL     vw 8432   6.253   7.231   0.604  0.0565  0.2036 -0.2970
 2109SOL     ow 8433   5.558   3.953   6.934  0.2907  0.7012  0.2936
 2109SOL     hw 8434   5.538   3.927   7.024  1.4285  0.3293  0.4458
 2109SOL     hw 8435   5.629   3.895   6.907 -0.8066 -0.0026 -1.2592
 2109SOL     vw 8436   5.565   3.942   6.942  0.2961  0.5592  0.1087
 2110SOL     ow 8437   0.528   3.424   4.635  0.4113 -0.6540 -0.1280
 2110SOL     hw 8438   0.620   3.402   4.619  0.6002  0.4701 -0.6443
 2110SOL     hw 8439   0.529   3.470   4.719  0.2271 -1.1848  0.1718
 2110SOL     vw 8440   0.540   3.427   4.644  0.4119 -0.5758 -0.1564
 2111SOL     ow 8441   7.075   0.713   1.330 -0.1378  0.7212  0.4764
 2111SOL     hw 8442   7.122   0.795   1.348  0.2010  0.5518  0.3853
 2111SOL     hw 8443   7.115   0.649   1.388 -2.3537  1.2051  2.7056
 2111SOL     vw 8444   7.087   0.716   1.340 -0.3858  0.7627  0.7585
 2112SOL     ow 8445   4.977   0.692   7.305  0.5888 -0.0302  0.5864
 2112SOL     hw 8446   5.068   0.673   7.279  0.7189 -0.1096  1.0930
 2112SOL     hw 8447   4.931   0.703   7.222  0.4569 -2.7196  0.2215
 2112SOL     vw 8448   4.983   0.691   7.291  0.5884 -0.3955  0.6051
 2113SOL     ow 8449   1.286   5.367   1.233  0.7155 -0.0988 -0.9250
 2113SOL     hw 8450   1.217   5.433   1.234  2.0135  1.3150 -1.0641
 2113SOL     hw 8451   1.307   5.356   1.140  0.4367 -0.7997 -0.9111
 2113SOL     vw 8452   1.280   5.374   1.221  0.8498 -0.0048 -0.9415
 2114SOL     ow 8453   1.679   5.710   3.236 -0.4268 -0.8711 -0.2702
 2114SOL     hw 8454   1.608   5.706   3.300 -1.1226  0.0873 -0.9530
 2114SOL     hw 8455   1.636   5.697   3.151  0.3527 -1.2016 -0.6290
 2114SOL     vw 8456   1.664   5.708   3.233 -0.4157 -0.7880 -0.4076
 2115SOL     ow 8457   4.006   3.060   5.223 -0.0888 -0.1926  0.1231
 2115SOL     hw 8458   3.942   2.990   5.207  0.6821 -0.4269 -2.3587
 2115SOL     hw 8459   3.959   3.123   5.278 -2.3104 -0.5683 -1.2203
 2115SOL     vw 8460   3.991   3.059   5.228 -0.2801 -0.2731 -0.3819
 2116SOL     ow 8461   1.943   5.040   4.504  0.6472 -1.0452 -0.4191
 2116SOL     hw 8462   1.974   5.129   4.518  0.7381 -0.9774 -1.0124
 2116SOL     hw 8463   1.851   5.041   4.532  0.6029 -0.7246 -0.5797
 2116SOL     vw 8464   1.935   5.052   4.510  0.6533 -0.9940 -0.5188
 2117SOL     ow 8465   1.663   1.134   0.062 -0.8753  0.2667 -0.4968
 2117SOL     hw 8466   1.631   1.100   0.145 -0.4560  0.1305 -0.3852
 2117SOL     hw 8467   1.724   1.204   0.087 -0.9259  0.3814 -0.6928
 2117SOL     vw 8468   1.667   1.139   0.076 -0.8267  0.2639 -0.5079
 2118SOL     ow 8469   0.645   6.500   1.926 -0.5433  0.1167 -0.4620
 2118SOL     hw 8470   0.624   6.478   2.017  2.1327 -0.4959  0.0784
 2118SOL     hw 8471   0.692   6.584   1.931 -0.9177  0.3990 -1.3648
 2118SOL     vw 8472   0.648   6.509   1.939 -0.2396  0.0730 -0.5098
 2119SOL     ow 8473   4.900   7.025   4.884 -0.3500 -0.5437 -0.1408
 2119SOL     hw 8474   4.839   7.083   4.930 -1.0313 -1.7913  0.6182
 2119SOL     hw 8475   4.909   7.062   4.797 -0.0492  1.1823  0.5832
 2119SOL     vw 8476   4.893   7.037   4.879 -0.4005 -0.4802  0.0548
 2120SOL     ow 8477   3.366   3.601   2.861 -1.0825  0.2868 -0.4098
 2120SOL     hw 8478   3.317   3.682   2.844 -0.0160  1.5193  1.8505
 2120SOL     hw 8479   3.429   3.595   2.789 -1.0324  1.6321 -0.5048
 2120SOL     vw 8480   3.368   3.611   2.849 -0.9353  0.6269 -0.1241
 2121SOL     ow 8481   4.777   3.388   4.633 -0.0284 -0.7338  0.5511
 2121SOL     hw 8482   4.720   3.417   4.704 -0.6248  1.0257 -0.5984
 2121SOL     hw 8483   4.718   3.359   4.564  0.4667  0.0339 -0.2181
 2121SOL     vw 8484   4.762   3.388   4.634 -0.0417 -0.4003  0.2978
 2122SOL     ow 8485   0.726   0.488   2.003 -0.5725 -0.4273 -0.7006
 2122SOL     hw 8486   0.812   0.525   2.023 -0.0772 -2.1499  0.5850
 2122SOL     hw 8487   0.733   0.458   1.912 -0.8019  1.9776 -1.5722
 2122SOL     vw 8488   0.738   0.489   1.994 -0.5373 -0.3372 -0.6461
 2123SOL     ow 8489   2.591   3.179   7.283  0.6513 -0.0821 -0.2626
 2123SOL     hw 8490   2.545   3.263   7.284  0.3451 -0.2466 -0.3095
 2123SOL     hw 8491   2.683   3.202   7.291  0.4347  0.1506  2.0471
 2123SOL     vw 8492   2.597   3.193   7.284  0.5825 -0.0731  0.0358
 2124SOL     ow 8493   0.162   1.208   5.171 -0.5833 -0.3605  0.4319
 2124SOL     hw 8494   0.150   1.155   5.092  1.3667 -0.4493  0.1252
 2124SOL     hw 8495   0.075   1.240   5.193 -1.3914 -1.5135 -0.9233
 2124SOL     vw 8496   0.149   1.205   5.164 -0.4326 -0.5243  0.2127
 2125SOL     ow 8497   4.452   6.751   4.308 -0.5850  0.1700  0.6532
 2125SOL     hw 8498   4.406   6.681   4.354  1.3449  0.3338  3.0998
 2125SOL     hw 8499   4.522   6.707   4.261 -1.3049  0.2027 -0.4790
 2125SOL     vw 8500   4.455   6.736   4.308 -0.4253  0.1960  0.8266
 2126SOL     ow 8501   1.069   1.760   0.807  0.1817 -0.1130  0.6803
 2126SOL     hw 8502   1.052   1.827   0.873  0.0525 -0.5712  1.1232
 2126SOL     hw 8503   0.982   1.739   0.771  0.0103 -1.0783  1.5843
 2126SOL     vw 8504   1.055   1.766   0.811  0.1420 -0.3008  0.8580
 2127SOL     ow 8505   3.520   7.258   0.024 -0.4409 -0.2404 -0.4716
 2127SOL     hw 8506   3.459   7.186   0.009 -1.0961 -0.3708  2.2961
 2127SOL     hw 8507   3.606   7.215   0.028 -0.9861 -1.3399  3.0316
 2127SOL     vw 8508   3.523   7.243   0.023 -0.5993 -0.4025  0.3558
 2128SOL     ow 8509   6.517   0.964   0.460  0.7248 -0.7869  0.1757
 2128SOL     hw 8510   6.603   0.946   0.423  0.4988 -2.1952  0.2599
 2128SOL     hw 8511   6.456   0.923   0.399 -0.1010  2.0781 -1.0924
 2128SOL     vw 8512   6.520   0.956   0.447  0.5860 -0.5947  0.0195
 2129SOL     ow 8513   5.514   4.501   0.001 -0.4706  0.2667  0.3789
 2129SOL     hw 8514   5.547   4.485   0.089 -1.5141 -2.0456  0.4396
 2129SOL     hw 8515   5.420   4.485   0.007 -0.3928 -1.2790 -1.3700
 2129SOL     vw 8516   5.506   4.497   0.013 -0.5980 -0.2425  0.1562
 2130SOL     ow 8517   1.125   2.918   3.796 -0.1708 -0.0954 -0.0049
 2130SOL     hw 8518   1.208   2.952   3.763  0.0390 -0.8907 -0.3264
 2130SOL     hw 8519   1.059   2.977   3.760  0.2291  0.3368 -0.0363
 2130SOL     vw 8520   1.127   2.930   3.787 -0.0904 -0.1433 -0.0514
 2131SOL     ow 8521   4.886   6.292   5.884  0.2150 -0.1841 -0.2859
 2131SOL     hw 8522   4.932   6.224   5.933 -0.0504 -0.1022  0.0881
 2131SOL     hw 8523   4.917   6.374   5.921  0.3761 -0.1079 -0.5904
 2131SOL     vw 8524   4.896   6.294   5.895  0.2012 -0.1633 -0.2763
 2132SOL     ow 8525   6.132   0.699   2.157 -0.3145 -0.4548 -0.2698
 2132SOL     hw 8526   6.039   0.681   2.170 -0.0745 -2.7066 -1.1591
 2132SOL     hw 8527   6.167   0.710   2.246 -1.5582  1.5230  0.0375
 2132SOL     vw 8528   6.125   0.698   2.171 -0.4473 -0.4910 -0.3465
 2133SOL     ow 8529   3.265   5.685   2.896 -0.0280  0.4981  0.2663
 2133SOL     hw 8530   3.171   5.679   2.879 -0.3008  0.2386  1.7435
 2133SOL     hw 8531   3.281   5.778   2.912  0.5759  1.0767 -2.9860
 2133SOL     vw 8532   3.255   5.697   2.896  0.0157  0.5403  0.0321
 2134SOL     ow 8533   0.617   2.558   5.776 -0.2237 -0.9224 -0.2675
 2134SOL     hw 8534   0.612   2.481   5.833 -1.3229  1.0705  2.5916
 2134SOL     hw 8535   0.552   2.541   5.708 -2.0863 -1.6636  1.5636
 2134SOL     vw 8536   0.608   2.546   5.775 -0.6145 -0.7572  0.3512
 2135SOL     ow 8537   6.587   5.048   5.231  0.1711  0.2673  0.4795
 2135SOL     hw 8538   6.534   5.122   5.260  1.9733  2.0977 -0.6044
 2135SOL     hw 8539   6.529   4.996   5.175 -0.5820  2.0420 -0.4610
 2135SOL     vw 8540   6.573   5.051   5.228  0.3095  0.7432  0.2124
 2136SOL     ow 8541   4.093   1.601   4.106 -0.4616  0.3265  0.2087
 2136SOL     hw 8542   4.178   1.556   4.102 -0.3344  0.3020  2.2608
 2136SOL     hw 8543   4.049   1.574   4.026  1.7693  1.0342 -1.3693
 2136SOL     vw 8544   4.099   1.591   4.095 -0.1504  0.4166  0.2713
 2137SOL     ow 8545   7.338   4.277   2.667 -0.3100  0.1224 -0.5946
 2137SOL     hw 8546   7.399   4.328   2.719 -0.5570 -0.6445  0.4758
 2137SOL     hw 8547   7.375   4.277   2.579  3.8522 -4.1310  0.7625
 2137SOL     vw 8548   7.351   4.284   2.662  0.2062 -0.5400 -0.2743
 2138SOL     ow 8549   5.037   0.254   1.343 -1.0764 -0.4504 -0.1880
 2138SOL     hw 8550   4.981   0.331   1.331  0.5930  0.5875 -1.7716
 2138SOL     hw 8551   5.048   0.218   1.255 -1.9130 -2.6240  0.5373
 2138SOL     vw 8552   5.031   0.259   1.330 -0.9668 -0.6003 -0.3012
 2139SOL     ow 8553   5.085   5.358   0.133  0.2373  0.3622 -0.4493
 2139SOL     hw 8554   5.117   5.327   0.048  0.6665 -2.0506  0.5076
 2139SOL     hw 8555   5.130   5.442   0.146 -0.0726  0.9491 -2.6839
 2139SOL     vw 8556   5.095   5.365   0.123  0.2530  0.1216 -0.6179
 2140SOL     ow 8557   6.963   2.054   0.299 -1.1849 -0.0453 -0.2664
 2140SOL     hw 8558   7.013   2.109   0.359 -1.6041 -0.4569  0.4684
 2140SOL     hw 8559   7.028   1.997   0.258 -0.3828  2.3222 -2.6176
 2140SOL     vw 8560   6.978   2.054   0.301 -1.1344  0.2126 -0.4797
 2141SOL     ow 8561   5.563   4.096   3.860  0.2450 -0.5968  0.1423
 2141SOL     hw 8562   5.480   4.086   3.907  0.8627  0.6137  1.5844
 2141SOL     hw 8563   5.554   4.179   3.814  0.4931 -0.6906 -0.0729
 2141SOL     vw 8564   5.551   4.105   3.860  0.3593 -0.4494  0.3042
 2142SOL     ow 8565   3.326   3.016   1.015 -0.5205 -0.2895  0.3916
 2142SOL     hw 8566   3.235   2.989   1.017 -0.8523 -0.0944 -3.8300
 2142SOL     hw 8567   3.374   2.936   0.992 -0.3544  0.5137 -2.4265
 2142SOL     vw 8568   3.321   3.002   1.013 -0.5423 -0.1578 -0.5372
 2143SOL     ow 8569   0.770   0.777   6.174  0.0540 -0.3541 -0.6792
 2143SOL     hw 8570   0.708   0.779   6.101  1.5355  4.0466 -2.1414
 2143SOL     hw 8571   0.856   0.778   6.132  0.9639  1.1332  1.0909
 2143SOL     vw 8572   0.773   0.777   6.159  0.3695  0.4228 -0.6385
 2144SOL     ow 8573   2.100   6.596   4.835 -0.0773  0.8624 -1.0438
 2144SOL     hw 8574   2.152   6.589   4.915 -0.7000 -0.7025 -0.7324
 2144SOL     hw 8575   2.165   6.601   4.765  0.6283 -2.2071 -0.7704
 2144SOL     vw 8576   2.116   6.595   4.836 -0.0664  0.2513 -0.9665
 2145SOL     ow 8577   0.666   4.255   4.712 -0.0563 -0.1133 -0.8347
 2145SOL     hw 8578   0.575   4.274   4.690  0.1082  1.4627 -0.2658
 2145SOL     hw 8579   0.667   4.246   4.807  0.0900 -1.9903 -0.9764
 2145SOL     vw 8580   0.654   4.256   4.722 -0.0153 -0.1533 -0.7780
 2146SOL     ow 8581   3.880   3.079   6.991  0.8062 -0.1078  0.0521
 2146SOL     hw 8582   3.925   3.064   7.074  1.7456  2.1762  0.0347
 2146SOL     hw 8583   3.897   3.172   6.971 -0.6862 -0.1957 -1.9199
 2146SOL     vw 8584   3.888   3.090   7.000  0.7333  0.1819 -0.2103
 2147SOL     ow 8585   5.203   1.678   5.786 -0.0987 -0.0804 -0.1890
 2147SOL     hw 8586   5.159   1.698   5.704 -0.1559 -0.5346 -0.2713
 2147SOL     hw 8587   5.225   1.585   5.779  0.2050 -0.0373  0.1634
 2147SOL     vw 8588   5.200   1.668   5.774 -0.0663 -0.1346 -0.1535
 2148SOL     ow 8589   5.645   2.747   3.014  0.0280 -0.1407 -0.1358
 2148SOL     hw 8590   5.679   2.781   2.932  0.2099 -3.1328 -1.4397
 2148SOL     hw 8591   5.718   2.695   3.050 -0.4069  0.2652  1.4122
 2148SOL     vw 8592   5.659   2.745   3.008 -0.0055 -0.4820 -0.1036
 2149SOL     ow 8593   0.841   5.785   5.846 -0.5996  0.3093 -0.4482
 2149SOL     hw 8594   0.791   5.749   5.919  0.9034  0.4355  0.7077
 2149SOL     hw 8595   0.923   5.735   5.846 -0.5983  0.2289 -2.1485
 2149SOL     vw 8596   0.845   5.774   5.855 -0.4011  0.3154 -0.5200
 2150SOL     ow 8597   3.650   6.834   5.032  0.2259 -0.1625 -0.5528
 2150SOL     hw 8598   3.558   6.809   5.018  0.7000 -1.5562 -1.3682
 2150SOL     hw 8599   3.678   6.866   4.946  0.9457 -1.2679 -0.7404
 2150SOL     vw 8600   3.641   6.835   5.019  0.3835 -0.4923 -0.6850
 2151SOL     ow 8601   7.214   2.479   5.874  0.0242  0.1360  0.3705
 2151SOL     hw 8602   7.128   2.469   5.914 -0.9435  0.9009 -1.4066
 2151SOL     hw 8603   7.196   2.485   5.780  2.0251  0.2695 -0.0431
 2151SOL     vw 8604   7.200   2.478   5.867  0.1605  0.2545  0.0815
 2152SOL     ow 8605   4.648   7.266   5.723  0.2738  0.8468  0.0731
 2152SOL     hw 8606   4.718   7.318   5.683  0.2044  1.4594  0.7274
 2152SOL     hw 8607   4.668   7.266   5.816  0.3894 -0.5133  0.0594
 2152SOL     vw 8608   4.660   7.273   5.730  0.2799  0.7486  0.1576
 2153SOL     ow 8609   6.071   5.869   0.112  0.0311  0.2250 -0.2346
 2153SOL     hw 8610   6.132   5.865   0.039 -0.3038  0.2360 -0.5161
 2153SOL     hw 8611   6.019   5.948   0.096  0.3414  0.5480  0.3219
 2153SOL     vw 8612   6.072   5.879   0.101  0.0277  0.2692 -0.1983
 2154SOL     ow 8613   6.689   3.554   2.030 -0.1076 -0.3947  0.5347
 2154SOL     hw 8614   6.688   3.622   1.963  0.2396 -0.5038  0.4178
 2154SOL     hw 8615   6.648   3.595   2.106  1.2437  0.3732  0.8816
 2154SOL     vw 8616   6.684   3.568   2.031  0.1163 -0.3079  0.5651
 2155SOL     ow 8617   0.696   6.047   1.200 -0.6860 -0.0474  0.2956
 2155SOL     hw 8618   0.787   6.075   1.211  0.1676 -3.1164  2.0470
 2155SOL     hw 8619   0.663   6.035   1.289 -1.9168 -1.5153 -0.3075
 2155SOL     vw 8620   0.704   6.049   1.213 -0.7358 -0.6459  0.4472
 2156SOL     ow 8621   3.483   7.243   4.727  0.3436 -0.1524  0.1836
 2156SOL     hw 8622   3.464   7.273   4.638 -1.5431 -0.3601  0.4739
 2156SOL     hw 8623   3.418   7.176   4.744  0.2826  0.3070  1.9377
 2156SOL     vw 8624   3.472   7.238   4.718  0.0867 -0.1192  0.4535
 2157SOL     ow 8625   2.377   5.480   1.216 -0.0297  0.2093  0.3590
 2157SOL     hw 8626   2.304   5.505   1.272  0.1142 -0.6881  0.9662
 2157SOL     hw 8627   2.336   5.451   1.134 -0.3162  0.2087  0.5046
 2157SOL     vw 8628   2.362   5.480   1.212 -0.0486  0.0908  0.4583
 2158SOL     ow 8629   4.938   5.250   0.415  0.5178  0.0579 -0.5641
 2158SOL     hw 8630   4.894   5.180   0.464 -1.0797 -0.2722 -2.3845
 2158SOL     hw 8631   4.987   5.299   0.482  0.2436 -1.7170  1.0007
 2158SOL     vw 8632   4.939   5.247   0.431  0.2706 -0.2201 -0.5978
 2159SOL     ow 8633   6.272   5.521   1.015  0.0919  0.4621  0.3442
 2159SOL     hw 8634   6.274   5.615   1.033 -1.8399  1.0703 -2.0186
 2159SOL     hw 8635   6.207   5.486   1.075  1.8087  0.3075  2.2060
 2159SOL     vw 8636   6.263   5.529   1.025  0.0634  0.5217  0.2781
 2160SOL     ow 8637   3.027   1.154   2.637  0.5778 -0.0487  0.8073
 2160SOL     hw 8638   2.997   1.229   2.586  0.1532 -1.7474 -1.6400
 2160SOL     hw 8639   3.007   1.176   2.728 -2.5200  1.4394 -0.1070
 2160SOL     vw 8640   3.021   1.167   2.642  0.1131 -0.0765  0.3638
 2161SOL     ow 8641   0.712   4.766   2.891  0.1580 -0.6462  0.0539
 2161SOL     hw 8642   0.694   4.698   2.826 -0.6140 -2.1412  1.7065
 2161SOL     hw 8643   0.631   4.818   2.894 -0.3903 -1.5004  0.8114
 2161SOL     vw 8644   0.699   4.764   2.883 -0.0162 -0.9561  0.3718
 2162SOL     ow 8645   3.971   5.913   6.532  0.6167 -0.3437 -0.4396
 2162SOL     hw 8646   3.936   5.848   6.471  0.9528  0.2672 -1.2996
 2162SOL     hw 8647   3.920   5.992   6.514  1.0399 -0.0244 -0.2408
 2162SOL     vw 8648   3.960   5.915   6.522  0.7168 -0.2210 -0.5269
 2163SOL     ow 8649   5.026   0.179   5.694  0.4034 -0.0811 -0.2460
 2163SOL     hw 8650   5.115   0.211   5.692  0.3834  0.1147 -4.0174
 2163SOL     hw 8651   5.034   0.085   5.676 -0.0429 -0.9151  3.1559
 2163SOL     vw 8652   5.039   0.171   5.692  0.3419 -0.1653 -0.2947
 2164SOL     ow 8653   1.191   7.234   3.242 -0.4000 -0.3264 -0.0082
 2164SOL     hw 8654   1.237   7.159   3.280  0.8037  0.6782  0.6032
 2164SOL     hw 8655   1.259   7.300   3.229 -1.6235  1.1919  0.8169
 2164SOL     vw 8656   1.206   7.233   3.246 -0.4026  0.0064  0.1813
 2165SOL     ow 8657   4.321   3.747   1.660 -0.0669  0.5386 -0.4517
 2165SOL     hw 8658   4.241   3.795   1.637 -0.4558  0.2333  0.2156
 2165SOL     hw 8659   4.384   3.816   1.680 -0.0335  0.7865 -1.3997
 2165SOL     vw 8660   4.318   3.762   1.660 -0.1135  0.5311 -0.4888
 2166SOL     ow 8661   2.623   4.594   5.373 -0.4840  0.2194  0.9002
 2166SOL     hw 8662   2.637   4.598   5.278  1.2289 -0.6224  1.0706
 2166SOL     hw 8663   2.545   4.540   5.383 -1.4657  1.4198 -0.0573
 2166SOL     vw 8664   2.615   4.587   5.362 -0.3877  0.2668  0.7963
 2167SOL     ow 8665   4.872   3.009   2.037 -0.4695  0.1799 -0.3535
 2167SOL     hw 8666   4.850   2.980   2.126  0.1424 -3.0455 -1.1313
 2167SOL     hw 8667   4.799   3.066   2.011 -1.6920 -0.4875  1.4586
 2167SOL     vw 8668   4.859   3.013   2.045 -0.5500 -0.3337 -0.2171
 2168SOL     ow 8669   3.175   4.811   6.560  0.1456 -0.4343 -0.2520
 2168SOL     hw 8670   3.128   4.874   6.615 -0.9712 -2.1553  0.8639
 2168SOL     hw 8671   3.267   4.828   6.578 -0.0465  1.6413 -0.9026
 2168SOL     vw 8672   3.181   4.822   6.569 -0.0269 -0.3874 -0.1905
 2169SOL     ow 8673   1.719   3.218   1.016 -0.1001 -0.0428 -0.6423
 2169SOL     hw 8674   1.802   3.261   1.036 -0.2000 -0.3878  0.6218
 2169SOL     hw 8675   1.743   3.144   0.960  0.4136  0.0181 -0.5044
 2169SOL     vw 8676   1.733   3.214   1.012 -0.0455 -0.0802 -0.4573
 2170SOL     ow 8677   0.260   4.217   6.534 -0.1026  0.1510  0.3645
 2170SOL     hw 8678   0.342   4.189   6.495  0.2030  1.5275 -0.0381
 2170SOL     hw 8679   0.197   4.214   6.463 -0.1504  0.1038  0.4097
 2170SOL     vw 8680   0.263   4.213   6.520 -0.0686  0.3264  0.3173
 2171SOL     ow 8681   1.300   7.296   1.421 -0.0331 -0.0085 -0.0744
 2171SOL     hw 8682   1.279   7.217   1.471  1.6310 -0.4602 -0.0477
 2171SOL     hw 8683   1.375   7.334   1.466 -0.6202  1.4449 -0.2686
 2171SOL     vw 8684   1.307   7.290   1.434  0.1090  0.1235 -0.0965
 2172SOL     ow 8685   0.451   4.430   6.326 -0.0086 -0.0937  0.2675
 2172SOL     hw 8686   0.467   4.356   6.385 -0.4043  1.1027  1.9234
 2172SOL     hw 8687   0.444   4.506   6.383  0.0109  1.1962 -1.3694
 2172SOL     vw 8688   0.452   4.430   6.341 -0.0582  0.2344  0.2701
 2173SOL     ow 8689   7.242   5.270   3.934 -0.6385  0.0327 -0.0249
 2173SOL     hw 8690   7.196   5.254   4.016 -0.3687  2.2272  0.6188
 2173SOL     hw 8691   7.330   5.297   3.960  0.6385 -2.6233 -1.1969
 2173SOL     vw 8692   7.247   5.272   3.948 -0.4344 -0.0281 -0.0945
 2174SOL     ow 8693   6.889   6.039   5.934  0.7903 -0.2482  0.4661
 2174SOL     hw 8694   6.831   6.027   5.859  1.3670 -0.8964  0.1113
 2174SOL     hw 8695   6.973   6.003   5.905  1.5862  1.3298  0.7087
 2174SOL     vw 8696   6.893   6.033   5.920  0.9711 -0.1256  0.4513
 2175SOL     ow 8697   4.614   6.441   5.808 -0.0629  0.4815 -0.2116
 2175SOL     hw 8698   4.601   6.500   5.882  0.6579 -1.1655  1.3043
 2175SOL     hw 8699   4.526   6.431   5.770 -0.4391  1.3494  0.3945
 2175SOL     vw 8700   4.600   6.448   5.813 -0.0174  0.3786  0.0684
 2176SOL     ow 8701   2.639   4.390   4.292 -0.6863  0.9399  0.4453
 2176SOL     hw 8702   2.594   4.312   4.324  0.6237 -0.9763 -2.0136
 2176SOL     hw 8703   2.578   4.428   4.228 -0.4546  0.6697  0.0606
 2176SOL     vw 8704   2.625   4.385   4.288 -0.4830  0.6514  0.0701
 2177SOL     ow 8705   5.804   3.731   4.511  0.1190 -0.2764  0.2637
 2177SOL     hw 8706   5.767   3.775   4.588 -0.4854  0.3790 -0.3816
 2177SOL     hw 8707   5.881   3.784   4.488 -2.4198  2.6994 -2.5306
 2177SOL     vw 8708   5.809   3.744   4.518 -0.2956  0.2027 -0.1905
 2178SOL     ow 8709   5.063   2.162   1.339  0.5484 -1.2168 -0.4947
 2178SOL     hw 8710   5.086   2.071   1.355  1.7838 -0.7779  0.3468
 2178SOL     hw 8711   4.967   2.164   1.349  0.7065 -2.0185  1.6822
 2178SOL     vw 8712   5.053   2.150   1.342  0.7322 -1.2646 -0.0965
 2179SOL     ow 8713   1.729   4.176   5.554 -0.2888  0.0386 -0.7995
 2179SOL     hw 8714   1.709   4.084   5.572 -0.2520 -0.1945 -1.9038
 2179SOL     hw 8715   1.821   4.175   5.526  0.1530  0.6068  0.5626
 2179SOL     vw 8716   1.738   4.163   5.553 -0.2257  0.0830 -0.7653
 2180SOL     ow 8717   4.399   3.514   1.485  0.1895 -0.7022  0.4648
 2180SOL     hw 8718   4.329   3.472   1.436  0.1200  0.7548 -0.7608
 2180SOL     hw 8719   4.462   3.541   1.418  0.6154  0.3900  1.2719
 2180SOL     vw 8720   4.398   3.512   1.469  0.2363 -0.3659  0.4097
 2181SOL     ow 8721   6.085   2.709   0.353 -0.9287 -0.5840 -0.0643
 2181SOL     hw 8722   6.099   2.671   0.266  0.0153  0.9734 -0.6500
 2181SOL     hw 8723   6.012   2.660   0.390 -1.7158 -0.9205 -1.9600
 2181SOL     vw 8724   6.077   2.698   0.347 -0.9081 -0.4228 -0.3917
 2182SOL     ow 8725   6.859   3.135   3.273 -0.0375  0.3198  0.3230
 2182SOL     hw 8726   6.778   3.162   3.315 -0.8435  0.4288 -1.2386
 2182SOL     hw 8727   6.852   3.167   3.183  0.4614 -2.0755 -0.6525
 2182SOL     vw 8728   6.847   3.143   3.267 -0.0782  0.0181 -0.0118
 2183SOL     ow 8729   3.580   2.133   5.316  0.2109  0.3394  0.2660
 2183SOL     hw 8730   3.516   2.116   5.386 -1.3842 -1.3411 -1.4554
 2183SOL     hw 8731   3.617   2.047   5.297 -0.7534  0.3660 -2.1108
 2183SOL     vw 8732   3.576   2.119   5.322 -0.1270  0.1211 -0.2749
 2184SOL     ow 8733   3.343   2.235   1.772  0.1323 -0.1281  0.0454
 2184SOL     hw 8734   3.418   2.259   1.826  0.6360  1.3294 -1.2161
 2184SOL     hw 8735   3.347   2.295   1.697 -1.3005 -1.1701 -0.9323
 2184SOL     vw 8736   3.353   2.246   1.769  0.0097 -0.0732 -0.2500
 2185SOL     ow 8737   2.865   0.989   1.339  0.0794  0.5208 -0.0937
 2185SOL     hw 8738   2.809   0.937   1.396 -2.3607  1.2931 -1.6277
 2185SOL     hw 8739   2.895   0.928   1.272 -1.9522  0.7595 -1.3103
 2185SOL     vw 8740   2.862   0.974   1.337 -0.5105  0.6542 -0.4566
 2186SOL     ow 8741   2.889   1.082   5.169  0.3983 -0.7407  0.5010
 2186SOL     hw 8742   2.943   1.149   5.127  0.3069 -0.5097  0.7463
 2186SOL     hw 8743   2.891   1.008   5.109  1.2673 -0.8616  0.6780
 2186SOL     vw 8744   2.896   1.081   5.156  0.5009 -0.7262  0.5569
 2187SOL     ow 8745   3.910   6.734   4.198 -0.1316 -0.0431 -0.5983
 2187SOL     hw 8746   3.828   6.694   4.225 -0.6893  0.5026 -1.4255
 2187SOL     hw 8747   3.893   6.828   4.201  0.8511  0.1324  0.3811
 2187SOL     vw 8748   3.897   6.741   4.202 -0.0758  0.0522 -0.5782
 2188SOL     ow 8749   1.902   6.187   1.127  0.3909 -0.3336 -0.1176
 2188SOL     hw 8750   1.834   6.134   1.169 -0.1872 -0.3358 -1.0308
 2188SOL     hw 8751   1.938   6.129   1.060 -1.3691  0.9088 -2.2536
 2188SOL     vw 8752   1.898   6.172   1.124  0.0824 -0.1698 -0.5199
 2189SOL     ow 8753   3.822   0.028   2.386  0.3410  0.5896  0.1085
 2189SOL     hw 8754   3.851   0.106   2.338  0.7588  1.3256  1.5004
 2189SOL     hw 8755   3.876   0.028   2.465  0.7913 -1.4751 -0.1424
 2189SOL     vw 8756   3.833   0.038   2.390  0.4556  0.4143  0.2589
 2190SOL     ow 8757   3.779   6.707   3.952 -0.1609  0.3060 -0.1472
 2190SOL     hw 8758   3.852   6.714   4.014  2.8801  0.6039 -3.4230
 2190SOL     hw 8759   3.787   6.617   3.918 -1.3540  0.3505 -0.5637
 2190SOL     vw 8760   3.790   6.696   3.956  0.0829  0.3514 -0.6343
 2191SOL     ow 8761   5.344   2.287   1.433  0.5397  0.7527  0.3884
 2191SOL     hw 8762   5.372   2.286   1.524  1.0048  0.7322  0.2490
 2191SOL     hw 8763   5.420   2.254   1.384  0.2091  0.5264  0.0184
 2191SOL     vw 8764   5.358   2.282   1.438  0.5572  0.7201  0.3211
 2192SOL     ow 8765   3.385   3.285   4.605  0.2900 -0.1268 -0.2940
 2192SOL     hw 8766   3.397   3.208   4.661  0.8151  1.1116  1.3786
 2192SOL     hw 8767   3.466   3.335   4.615 -0.0057  0.6053 -1.4203
 2192SOL     vw 8768   3.397   3.282   4.614  0.3203  0.1332 -0.2222
 2193SOL     ow 8769   3.735   2.073   4.795 -0.7126  0.0003  0.0955
 2193SOL     hw 8770   3.827   2.091   4.775 -0.9240  1.2145  0.1312
 2193SOL     hw 8771   3.717   2.123   4.874 -0.7448 -2.2779  1.6361
 2193SOL     vw 8772   3.744   2.082   4.803 -0.7447 -0.1401  0.3037
 2194SOL     ow 8773   0.194   2.366   5.799 -0.1800 -0.0062  0.1353
 2194SOL     hw 8774   0.227   2.319   5.875  0.1719  2.6714  1.7611
 2194SOL     hw 8775   0.268   2.418   5.768 -0.9187  0.6498 -0.5952
 2194SOL     vw 8776   0.208   2.367   5.805 -0.2310  0.4337  0.2534
 2195SOL     ow 8777   0.008   5.704   1.641  0.1734  0.0609  0.2453
 2195SOL     hw 8778   0.040   5.791   1.615  0.0683 -0.1510 -0.6512
 2195SOL     hw 8779  -0.077   5.720   1.680 -0.0410  0.3333 -0.3193
 2195SOL     vw 8780   0.001   5.717   1.642  0.1311  0.0689  0.0526
 2196SOL     ow 8781   5.112   2.414   1.193 -0.8710 -0.0781 -0.2908
 2196SOL     hw 8782   5.032   2.464   1.177  1.0251  3.0110 -1.1088
 2196SOL     hw 8783   5.152   2.405   1.107  0.7023  0.4863  0.3385
 2196SOL     vw 8784   5.107   2.420   1.180 -0.4134  0.4039 -0.3156
 2197SOL     ow 8785   6.684   6.232   1.296  0.6066  0.6613 -0.5722
 2197SOL     hw 8786   6.776   6.230   1.272  0.6432 -0.4123 -0.4229
 2197SOL     hw 8787   6.655   6.140   1.289 -0.9907  1.2412 -2.6413
 2197SOL     vw 8788   6.692   6.219   1.292  0.4008  0.5963 -0.8255
 2198SOL     ow 8789   5.041   1.942   5.070  0.7775  0.2029  0.1611
 2198SOL     hw 8790   4.963   1.911   5.024 -0.2641  0.3854  1.7281
 2198SOL     hw 8791   5.097   1.977   5.000 -0.9467  0.9620 -0.9369
 2198SOL     vw 8792   5.038   1.943   5.054  0.4127  0.3271  0.2229
 2199SOL     ow 8793   0.562   6.230   5.292  0.1566 -0.2658  0.2848
 2199SOL     hw 8794   0.567   6.324   5.278 -0.6033 -0.2309  0.2348
 2199SOL     hw 8795   0.544   6.194   5.205  0.2321 -0.4420  0.3408
 2199SOL     vw 8796   0.561   6.237   5.278  0.0663 -0.2847  0.2856
 2200SOL     ow 8797   3.261   0.490   2.714 -0.8877  0.0938 -0.5488
 2200SOL     hw 8798   3.234   0.457   2.628  1.9653 -1.2811 -1.0509
 2200SOL     hw 8799   3.283   0.582   2.698  0.9007 -0.4731 -1.7074
 2200SOL     vw 8800   3.261   0.497   2.700 -0.2754 -0.1624 -0.7678
 2201SOL     ow 8801   6.441   2.846   7.078 -0.1667 -0.6534  0.4383
 2201SOL     hw 8802   6.501   2.783   7.117  1.2558  0.0492 -0.5290
 2201SOL     hw 8803   6.354   2.811   7.096  0.5691 -2.7677  0.1065
 2201SOL     vw 8804   6.437   2.833   7.086  0.1180 -0.8397  0.2670
 2202SOL     ow 8805   3.256   0.199   4.800  0.2731  1.0119  0.2895
 2202SOL     hw 8806   3.255   0.164   4.710 -0.4257 -1.2003  1.0782
 2202SOL     hw 8807   3.188   0.266   4.800  1.2446  2.0678 -1.1622
 2202SOL     vw 8808   3.246   0.203   4.788  0.3091  0.8593  0.2017
 2203SOL     ow 8809   6.583   4.649   3.735 -0.5371 -0.4690 -0.3535
 2203SOL     hw 8810   6.620   4.684   3.816 -2.0942  0.9235 -0.1973
 2203SOL     hw 8811   6.656   4.649   3.673  0.1330  0.5554  0.4098
 2203SOL     vw 8812   6.598   4.654   3.738 -0.6542 -0.1502 -0.2321
 2204SOL     ow 8813   0.259   3.425   1.112 -0.1598  0.3483  0.2348
 2204SOL     hw 8814   0.169   3.405   1.137  0.2603 -2.0632  0.0987
 2204SOL     hw 8815   0.311   3.397   1.187  0.5568  0.5404 -0.1822
 2204SOL     vw 8816   0.254   3.418   1.125 -0.0098  0.0553  0.1618
 2205SOL     ow 8817   2.504   0.761   2.606  0.1889  0.1385 -0.5666
 2205SOL     hw 8818   2.495   0.680   2.554 -0.6822  0.3244 -0.7258
 2205SOL     hw 8819   2.581   0.804   2.570  1.4789 -1.2627  0.4224
 2205SOL     vw 8820   2.513   0.756   2.594  0.2440 -0.0218 -0.4570
 2206SOL     ow 8821   5.141   6.798   4.594 -0.7781 -0.1070  0.2347
 2206SOL     hw 8822   5.093   6.752   4.663  0.6726 -0.2171  1.1988
 2206SOL     hw 8823   5.132   6.891   4.617 -0.4639 -0.1327  0.4648
 2206SOL     vw 8824   5.133   6.804   4.606 -0.5450 -0.1249  0.3920
 2207SOL     ow 8825   5.751   2.347   0.020 -0.1744 -0.8082  0.0686
 2207SOL     hw 8826   5.693   2.320   0.091  1.7599 -0.1028  2.0763
 2207SOL     hw 8827   5.758   2.271  -0.037 -0.4036 -2.0556  1.6455
 2207SOL     vw 8828   5.745   2.333   0.022  0.0505 -0.8798  0.5417
 2208SOL     ow 8829   7.007   0.376   5.528 -0.1353 -0.0121 -0.4203
 2208SOL     hw 8830   7.085   0.426   5.553 -1.1864  1.0629  0.9328
 2208SOL     hw 8831   7.036   0.319   5.457  2.4455 -1.3049  1.5235
 2208SOL     vw 8832   7.021   0.375   5.522  0.0665 -0.0409  0.0148
 2209SOL     ow 8833   2.758   3.984   6.176 -0.4069 -0.6007 -0.5644
 2209SOL     hw 8834   2.744   4.071   6.139 -0.2776  0.2650  1.3054
 2209SOL     hw 8835   2.837   3.953   6.134 -0.7927 -0.0911 -1.7154
 2209SOL     vw 8836   2.766   3.991   6.165 -0.4407 -0.4193 -0.4697
 2210SOL     ow 8837   3.220   0.350   0.466  0.3914 -0.0575  0.7380
 2210SOL     hw 8838   3.216   0.433   0.514  0.3788 -0.3198  1.1935
 2210SOL     hw 8839   3.240   0.285   0.533  1.4060 -0.2884  0.2406
 2210SOL     vw 8840   3.222   0.352   0.482  0.5236 -0.1226  0.7324
 2211SOL     ow 8841   2.910   0.716   6.540 -0.2054 -0.4812 -0.4743
 2211SOL     hw 8842   2.876   0.745   6.456  0.1202  1.2893 -0.0488
 2211SOL     hw 8843   2.864   0.771   6.604  2.4258  1.1054  0.2017
 2211SOL     vw 8844   2.899   0.727   6.538  0.1847 -0.0383 -0.3290
 2212SOL     ow 8845   3.529   6.470   0.972  0.2382  0.2534 -0.2408
 2212SOL     hw 8846   3.576   6.543   1.013  0.3485  0.2165 -0.3027
 2212SOL     hw 8847   3.463   6.444   1.037  2.3473 -1.7985  1.2549
 2212SOL     vw 8848   3.526   6.476   0.986  0.5310 -0.0222 -0.0516
 2213SOL     ow 8849   3.186   6.325   3.974  0.4032  0.5364 -0.1114
 2213SOL     hw 8850   3.116   6.341   3.910  0.1204 -0.0966  0.0389
 2213SOL     hw 8851   3.191   6.406   4.024  0.4941  0.9721 -0.8045
 2213SOL     vw 8852   3.177   6.338   3.972  0.3780  0.5105 -0.1831
 2214SOL     ow 8853   4.733   7.098   5.237  0.0549  0.0377  0.0534
 2214SOL     hw 8854   4.687   7.095   5.154  0.3156 -2.2998 -0.0854
 2214SOL     hw 8855   4.789   7.020   5.236 -0.0332 -0.1301  2.4613
 2214SOL     vw 8856   4.735   7.087   5.226  0.0775 -0.2925  0.3526
 2215SOL     ow 8857   2.434   3.536   2.214  0.3889  0.2974 -0.1836
 2215SOL     hw 8858   2.428   3.482   2.135 -1.7088 -1.0789  0.8059
 2215SOL     hw 8859   2.475   3.617   2.185 -2.2188  0.7285 -3.2200
 2215SOL     vw 8860   2.439   3.539   2.200 -0.2319  0.1727 -0.4537
 2216SOL     ow 8861   1.821   6.496   5.955  0.6202  0.0137 -0.4394
 2216SOL     hw 8862   1.738   6.544   5.956  0.6407  0.1735 -2.7609
 2216SOL     hw 8863   1.885   6.559   5.922  1.2418 -0.7578 -0.7290
 2216SOL     vw 8864   1.818   6.511   5.951  0.7050 -0.0672 -0.7837
 2217SOL     ow 8865   6.389   5.268   5.270  0.5973 -0.8911  1.1108
 2217SOL     hw 8866   6.343   5.276   5.354  1.1372 -1.5537  1.4878
 2217SOL     hw 8867   6.338   5.203   5.221  0.1049 -0.2746  0.7941
 2217SOL     vw 8868   6.376   5.260   5.275  0.6034 -0.8969  1.1187
 2218SOL     ow 8869   5.674   4.055   4.144 -0.3469  0.2392  0.0481
 2218SOL     hw 8870   5.665   4.112   4.068 -0.6223  0.6167  0.3613
 2218SOL     hw 8871   5.768   4.040   4.153 -0.3589 -0.4950 -0.8690
 2218SOL     vw 8872   5.685   4.060   4.135 -0.3846  0.1922 -0.0319
 2219SOL     ow 8873   3.315   2.474   3.858  0.6701 -0.3849  0.4360
 2219SOL     hw 8874   3.285   2.558   3.822 -0.6480 -0.1998  1.8465
 2219SOL     hw 8875   3.234   2.429   3.884  1.4693 -1.0647  1.8627
 2219SOL     vw 8876   3.300   2.479   3.857  0.6015 -0.4501  0.8104
 2220SOL     ow 8877   4.852   1.352   0.084 -0.3496 -0.1329  0.5169
 2220SOL     hw 8878   4.873   1.299   0.007 -1.6273 -1.7090  1.2064
 2220SOL     hw 8879   4.884   1.301   0.158  0.4907  1.1802  1.1062
 2220SOL     vw 8880   4.859   1.339   0.083 -0.4075 -0.1677  0.6856
 2221SOL     ow 8881   5.595   3.274   1.165  0.1767 -0.8165  1.3315
 2221SOL     hw 8882   5.659   3.333   1.205  0.3072 -1.5480  2.2381
 2221SOL     hw 8883   5.643   3.226   1.098 -0.1180  0.6509  0.0163
 2221SOL     vw 8884   5.610   3.275   1.162  0.1550 -0.7192  1.2776
 2222SOL     ow 8885   2.529   0.901   6.062 -0.0802  0.3071  0.0448
 2222SOL     hw 8886   2.568   0.974   6.013 -1.9435  0.9711 -0.5452
 2222SOL     hw 8887   2.533   0.827   6.002  0.6838  0.2486  0.1676
 2222SOL     vw 8888   2.535   0.901   6.047 -0.2254  0.3870 -0.0169
 2223SOL     ow 8889   4.384   3.261   5.963 -0.2857  0.2844  0.6896
 2223SOL     hw 8890   4.306   3.316   5.950  0.8466  1.9265  0.5527
 2223SOL     hw 8891   4.440   3.282   5.888  0.2621 -0.9651  0.7328
 2223SOL     vw 8892   4.381   3.271   5.951 -0.0641  0.3361  0.6773
 2224SOL     ow 8893   0.319   5.056   3.127  0.3634 -0.4133  0.5377
 2224SOL     hw 8894   0.229   5.033   3.106  0.2065  1.7324 -1.4889
 2224SOL     hw 8895   0.313   5.143   3.168  1.4898 -0.2504  0.4010
 2224SOL     vw 8896   0.306   5.065   3.130  0.4913 -0.1085  0.2524
 2225SOL     ow 8897   0.690   2.864   0.858  0.3622  0.1079 -0.2069
 2225SOL     hw 8898   0.679   2.888   0.950  2.1643  1.0605 -0.2064
 2225SOL     hw 8899   0.704   2.947   0.813 -1.4286 -0.2402 -1.5480
 2225SOL     vw 8900   0.690   2.878   0.864  0.3637  0.1878 -0.3838
 2226SOL     ow 8901   2.421   3.535   5.896  0.0906 -0.3772  0.5177
 2226SOL     hw 8902   2.335   3.515   5.860 -0.2197 -3.0736  2.4219
 2226SOL     hw 8903   2.448   3.454   5.940  1.1568  1.9246  4.7325
 2226SOL     vw 8904   2.414   3.522   5.897  0.1904 -0.4292  1.3254
 2227SOL     ow 8905   3.403   5.662   1.541 -0.0821  0.0294 -0.1237
 2227SOL     hw 8906   3.329   5.651   1.481 -1.8961  1.1876  1.7864
 2227SOL     hw 8907   3.415   5.757   1.546 -1.1344  0.0967  2.6083
 2227SOL     vw 8908   3.395   5.673   1.534 -0.4604  0.1912  0.4888
 2228SOL     ow 8909   3.136   0.109   3.616 -0.3920 -0.3196 -0.2554
 2228SOL     hw 8910   3.061   0.117   3.557 -0.6023 -0.2291  0.0251
 2228SOL     hw 8911   3.162   0.199   3.635 -0.9275 -0.3213  0.5535
 2228SOL     vw 8912   3.130   0.122   3.611 -0.4904 -0.3079 -0.1116
 2229SOL     ow 8913   3.584   7.283   2.464  0.7738 -0.9397 -0.3095
 2229SOL     hw 8914   3.549   7.258   2.379  0.5269 -0.0660 -0.4751
 2229SOL     hw 8915   3.657   7.341   2.445 -1.1031  1.7457  0.0163
 2229SOL     vw 8916   3.589   7.287   2.450  0.4936 -0.4702 -0.2884
 2230SOL     ow 8917   6.217   1.185   3.589 -0.7016  0.2250 -0.3117
 2230SOL     hw 8918   6.252   1.114   3.643 -1.7514 -0.1415 -0.0980
 2230SOL     hw 8919   6.153   1.229   3.644  0.5852  1.9691 -0.1035
 2230SOL     vw 8920   6.213   1.182   3.603 -0.6700  0.4068 -0.2561
 2231SOL     ow 8921   5.559   6.411   2.727 -0.0790  0.5101 -0.3026
 2231SOL     hw 8922   5.512   6.333   2.756  0.7535  0.2744  0.4363
 2231SOL     hw 8923   5.635   6.416   2.784 -1.1137  2.9649  1.0050
 2231SOL     vw 8924   5.563   6.401   2.739 -0.1059  0.8030 -0.0325
 2232SOL     ow 8925   5.093   4.816   6.574 -0.0133  0.5469 -0.0037
 2232SOL     hw 8926   5.099   4.760   6.651  0.8577 -1.3366 -1.3907
 2232SOL     hw 8927   5.032   4.771   6.516 -1.3351  2.3732 -0.1235
 2232SOL     vw 8928   5.085   4.803   6.576 -0.0730  0.5393 -0.2024
 2233SOL     ow 8929   4.086   7.066   5.091  0.1402  0.5142  0.0395
 2233SOL     hw 8930   4.065   7.129   5.022 -1.8307  0.4007  0.4827
 2233SOL     hw 8931   4.179   7.079   5.108 -0.3868  4.1210  0.9062
 2233SOL     vw 8932   4.096   7.076   5.084 -0.1893  0.9751  0.2122
 2234SOL     ow 8933   1.440   2.478   0.475  0.2517  0.6714  0.9546
 2234SOL     hw 8934   1.458   2.526   0.556  1.1051  1.2450  0.4504
 2234SOL     hw 8935   1.463   2.387   0.495 -2.6943  0.1386  2.3490
 2234SOL     vw 8936   1.446   2.472   0.488 -0.0244  0.6769  1.0720
 2235SOL     ow 8937   5.008   5.023   3.442 -0.6284  0.3318  0.2967
 2235SOL     hw 8938   5.083   5.043   3.387  0.0228 -1.4836  0.4856
 2235SOL     hw 8939   5.043   4.974   3.516 -1.9234 -0.1215  0.6498
 2235SOL     vw 8940   5.022   5.020   3.445 -0.7138  0.0322  0.3682
 2236SOL     ow 8941   2.722   1.240   2.042 -0.0191  0.1389  0.2687
 2236SOL     hw 8942   2.658   1.304   2.074 -0.1662  1.0857 -1.7358
 2236SOL     hw 8943   2.674   1.157   2.039 -1.8773  1.1342 -2.8545
 2236SOL     vw 8944   2.707   1.238   2.046 -0.2835  0.3951 -0.4077
 2237SOL     ow 8945   0.564   2.391   0.277  0.3046  0.9962 -0.3679
 2237SOL     hw 8946   0.657   2.403   0.293  0.8600 -2.5848  0.0400
 2237SOL     hw 8947   0.529   2.359   0.361 -0.8990  0.6235 -0.9776
 2237SOL     vw 8948   0.572   2.388   0.290  0.2191  0.4745 -0.3946
 2238SOL     ow 8949   4.673   7.074   5.501  0.2631  0.5203 -0.0696
 2238SOL     hw 8950   4.703   7.093   5.412 -1.2063 -1.4871 -1.0770
 2238SOL     hw 8951   4.692   6.981   5.513 -1.8859  0.1269  0.7025
 2238SOL     vw 8952   4.679   7.064   5.491 -0.2143  0.2038 -0.1004
 2239SOL     ow 8953   3.497   3.435   0.496  0.4280  0.0803  0.5923
 2239SOL     hw 8954   3.529   3.520   0.525  1.2121 -1.1592  3.7819
 2239SOL     hw 8955   3.413   3.424   0.541  0.2992 -0.8073  0.1598
 2239SOL     vw 8956   3.490   3.445   0.506  0.5145 -0.2004  0.9561
 2240SOL     ow 8957   1.493   2.755   3.920 -0.6490 -0.7136  0.1862
 2240SOL     hw 8958   1.540   2.692   3.866  3.1912  0.5727  1.7247
 2240SOL     hw 8959   1.507   2.840   3.878 -0.5445 -0.1361  1.3450
 2240SOL     vw 8960   1.501   2.758   3.908 -0.1285 -0.4678  0.5419
 2241SOL     ow 8961   5.631   6.967   4.525 -0.6713  0.2697  0.2778
 2241SOL     hw 8962   5.713   7.004   4.492  0.5020 -1.6674  0.7918
 2241SOL     hw 8963   5.623   7.002   4.614  1.3735 -1.8898  1.4406
 2241SOL     vw 8964   5.641   6.976   4.533 -0.2468 -0.2706  0.4988
 2242SOL     ow 8965   7.354   7.236   0.365 -0.1365 -0.4624 -0.1412
 2242SOL     hw 8966   7.348   7.275   0.453 -0.0877 -0.5962 -0.0778
 2242SOL     hw 8967   7.410   7.296   0.316 -0.3547 -0.2642 -0.1488
 2242SOL     vw 8968   7.360   7.249   0.370 -0.1589 -0.4537 -0.1339
 2243SOL     ow 8969   1.121   0.485   0.772 -0.5063  0.0653  1.0756
 2243SOL     hw 8970   1.051   0.519   0.716  0.3483 -1.1236 -0.7937
 2243SOL     hw 8971   1.196   0.540   0.753  0.4473 -1.7242 -0.8170
 2243SOL     vw 8972   1.122   0.496   0.762 -0.2677 -0.3276  0.5792
 2244SOL     ow 8973   3.906   5.873   4.170 -0.2131 -0.1283  0.6790
 2244SOL     hw 8974   3.875   5.961   4.150  2.2337  0.3054 -1.7905
 2244SOL     hw 8975   3.963   5.850   4.096  2.0399 -2.3818  2.9364
 2244SOL     vw 8976   3.909   5.881   4.157  0.4070 -0.3686  0.6509
 2245SOL     ow 8977   1.658   4.341   4.448 -0.6661 -0.3360  0.7729
 2245SOL     hw 8978   1.644   4.375   4.537 -0.7347 -0.4702  0.8132
 2245SOL     hw 8979   1.664   4.246   4.460  4.7205 -0.2102  1.4413
 2245SOL     vw 8980   1.657   4.333   4.462  0.0356 -0.3371  0.8662
 2246SOL     ow 8981   5.056   0.099   4.127 -0.4903 -0.1183  0.1347
 2246SOL     hw 8982   4.988   0.128   4.187 -1.0753 -1.5090  0.1685
 2246SOL     hw 8983   5.130   0.157   4.145 -2.2148  2.6973 -1.2284
 2246SOL     vw 8984   5.057   0.110   4.137 -0.7949  0.0697 -0.0408
 2247SOL     ow 8985   1.853   2.896   5.978 -0.7499 -0.7386  0.2885
 2247SOL     hw 8986   1.874   2.908   5.885  0.1835  0.8676  0.6687
 2247SOL     hw 8987   1.763   2.866   5.978 -0.2210 -2.4905 -1.2020
 2247SOL     vw 8988   1.844   2.894   5.965 -0.5569 -0.7578  0.1421
 2248SOL     ow 8989   3.347   4.491   0.103 -0.0254 -0.2166  0.3423
 2248SOL     hw 8990   3.424   4.488   0.047 -2.5056 -1.5936 -3.4027
 2248SOL     hw 8991   3.308   4.577   0.086 -0.8720 -0.6992 -0.2363
 2248SOL     vw 8992   3.352   4.502   0.093 -0.4643 -0.4621 -0.2281
 2249SOL     ow 8993   1.577   6.315   4.787  0.8365 -0.0374  0.1616
 2249SOL     hw 8994   1.581   6.254   4.861  1.1414 -0.1500  0.0537
 2249SOL     hw 8995   1.646   6.285   4.727  1.8050  1.1082  0.6506
 2249SOL     vw 8996   1.587   6.303   4.789  1.0044  0.0987  0.2120
 2250SOL     ow 8997   3.631   4.222   1.996  0.2677  0.6985  0.0299
 2250SOL     hw 8998   3.560   4.278   2.025 -0.2353  0.9500 -1.5908
 2250SOL     hw 8999   3.594   4.133   1.998 -1.2594  1.0658 -3.7115
 2250SOL     vw 9000   3.617   4.217   2.000 -0.0002  0.7801 -0.6776
 2251SOL     ow 9001   7.127   2.579   4.789 -0.1229 -0.2025 -0.5403
 2251SOL     hw 9002   7.034   2.594   4.771 -0.3508 -0.6459  0.2241
 2251SOL     hw 9003   7.161   2.541   4.709 -0.5864  0.0483 -0.8600
 2251SOL     vw 9004   7.119   2.576   4.776 -0.2141 -0.2280 -0.4816
 2252SOL     ow 9005   2.693   1.292   1.404  0.1928  0.3975 -0.3884
 2252SOL     hw 9006   2.640   1.281   1.483 -0.3520 -0.8420 -0.9136
 2252SOL     hw 9007   2.646   1.245   1.336  0.2508  2.0870 -1.6671
 2252SOL     vw 9008   2.680   1.285   1.405  0.1285  0.4569 -0.6263
 2253SOL     ow 9009   6.624   0.508   5.950 -0.0129 -0.4914  0.2220
 2253SOL     hw 9010   6.695   0.450   5.922  0.1170 -1.7857  2.8726
 2253SOL     hw 9011   6.552   0.449   5.972 -1.8492  0.7652 -1.9482
 2253SOL     vw 9012   6.624   0.493   5.949 -0.2382 -0.4963  0.2854
 2254SOL     ow 9013   3.589   6.694   6.774 -0.1865 -0.1432 -0.0355
 2254SOL     hw 9014   3.554   6.759   6.836  0.2580 -1.3796  1.5792
 2254SOL     hw 9015   3.541   6.614   6.793  1.1584 -0.9984 -0.0692
 2254SOL     vw 9016   3.578   6.692   6.785  0.0496 -0.4191  0.1733
 2255SOL     ow 9017   2.596   7.057   1.212  0.2342 -0.4560  0.0608
 2255SOL     hw 9018   2.679   7.100   1.232  0.2665  0.0117 -1.0449
 2255SOL     hw 9019   2.537   7.128   1.186  0.1212 -1.0077 -1.2241
 2255SOL     vw 9020   2.599   7.072   1.211  0.2233 -0.4671 -0.2546
 2256SOL     ow 9021   1.809   4.958   5.864  0.3563  0.1575  0.1284
 2256SOL     hw 9022   1.761   4.957   5.781 -0.9855 -3.2063  0.7736
 2256SOL     hw 9023   1.766   5.026   5.916  0.3107  1.3448 -1.3787
 2256SOL     vw 9024   1.797   4.967   5.860  0.1733 -0.1299  0.0145
 2257SOL     ow 9025   4.187   7.276   6.928 -0.4562 -0.2599  0.0638
 2257SOL     hw 9026   4.229   7.317   7.003  0.0149 -2.1413  0.8849
 2257SOL     hw 9027   4.095   7.303   6.934 -0.1406  0.7385  0.4981
 2257SOL     vw 9028   4.180   7.285   6.939 -0.3524 -0.3765  0.2294
 2258SOL     ow 9029   0.790   0.612   0.101 -0.1224  0.7402  0.3275
 2258SOL     hw 9030   0.704   0.569   0.102 -0.2355  0.8492 -1.2408
 2258SOL     hw 9031   0.826   0.589   0.015  1.4619  0.6317  1.0048
 2258SOL     vw 9032   0.783   0.603   0.090  0.0717  0.7402  0.2099
 2259SOL     ow 9033   2.547   1.096   2.690 -0.3882  0.8408 -0.1278
 2259SOL     hw 9034   2.528   1.140   2.773  0.0326  0.4506  0.1797
 2259SOL     hw 9035   2.464   1.056   2.664 -1.0748  2.6769 -0.9523
 2259SOL     vw 9036   2.534   1.097   2.698 -0.4232  1.0315 -0.1961
 2260SOL     ow 9037   3.729   0.290   4.506  0.4413  0.1141  0.1436
 2260SOL     hw 9038   3.760   0.267   4.418 -2.4701 -1.8274 -0.5088
 2260SOL     hw 9039   3.799   0.261   4.564  1.1415 -1.4355 -1.3755
 2260SOL     vw 9040   3.743   0.283   4.502  0.1496 -0.3465 -0.1426
 2261SOL     ow 9041   0.161   6.163   5.013 -0.2548 -0.2696  0.0234
 2261SOL     hw 9042   0.110   6.211   5.078  0.1090 -0.1113  0.1987
 2261SOL     hw 9043   0.110   6.083   4.997 -0.6651 -0.0109  0.0240
 2261SOL     vw 9044   0.148   6.158   5.020 -0.2609 -0.2146  0.0467
 2262SOL     ow 9045   5.720   5.600   2.526  0.3980 -0.1170  0.4268
 2262SOL     hw 9046   5.780   5.583   2.453  0.6785 -1.2974  0.9056
 2262SOL     hw 9047   5.769   5.659   2.584  0.4754  0.2065  0.0280
 2262SOL     vw 9048   5.735   5.605   2.524  0.4454 -0.2298  0.4374
 2263SOL     ow 9049   1.532   7.207   2.287  1.0172  0.1713 -1.0377
 2263SOL     hw 9050   1.545   7.112   2.286 -1.9672 -0.3826  1.0418
 2263SOL     hw 9051   1.529   7.231   2.379  0.5347  2.1061 -1.4998
 2263SOL     vw 9052   1.533   7.198   2.299  0.5598  0.3538 -0.8243
 2264SOL     ow 9053   3.782   0.943   5.687 -0.9315  0.2195 -0.1046
 2264SOL     hw 9054   3.775   1.031   5.724 -0.8424 -1.1297  3.5148
 2264SOL     hw 9055   3.727   0.889   5.743  0.6086 -2.3871 -0.9311
 2264SOL     vw 9056   3.774   0.948   5.699 -0.7166 -0.3024  0.2639
 2265SOL     ow 9057   5.570   6.812   1.883 -0.2655  0.0135  0.0692
 2265SOL     hw 9058   5.662   6.821   1.907 -0.0782 -0.0609 -0.6225
 2265SOL     hw 9059   5.527   6.785   1.965  0.4332 -0.6786  0.2173
 2265SOL     vw 9060   5.576   6.810   1.897 -0.1485 -0.0877 -0.0025
 2266SOL     ow 9061   3.197   6.682   2.164 -0.2157 -0.1678  0.2014
 2266SOL     hw 9062   3.156   6.596   2.169  1.5734 -1.1033 -0.3145
 2266SOL     hw 9063   3.271   6.670   2.105 -0.3449  1.9242 -0.4625
 2266SOL     vw 9064   3.201   6.669   2.157  0.0033 -0.0153  0.0457
 2267SOL     ow 9065   5.982   1.424   0.171  0.0874  0.1471 -0.1640
 2267SOL     hw 9066   5.967   1.471   0.253  0.1923 -2.5920  1.5614
 2267SOL     hw 9067   6.026   1.343   0.198 -0.2073 -1.0378 -2.9133
 2267SOL     vw 9068   5.986   1.420   0.186  0.0622 -0.3707 -0.2991
 2268SOL     ow 9069   2.869   1.351   3.761 -0.8270  0.0687  0.7207
 2268SOL     hw 9070   2.847   1.292   3.689 -2.5985  1.7345 -0.1668
 2268SOL     hw 9071   2.882   1.293   3.836 -0.2355 -1.6018 -0.6046
 2268SOL     vw 9072   2.868   1.336   3.762 -0.9826  0.0681  0.4288
 2269SOL     ow 9073   5.925   3.044   3.290 -0.3749  0.1211 -0.6697
 2269SOL     hw 9074   5.900   3.104   3.219  0.9606 -1.1696 -2.3136
 2269SOL     hw 9075   5.990   2.986   3.251 -0.1597 -1.1619  1.4231
 2269SOL     vw 9076   5.930   3.045   3.275 -0.1705 -0.2186 -0.6105
 2270SOL     ow 9077   4.649   5.457   4.936 -0.0756 -0.6450 -0.3129
 2270SOL     hw 9078   4.582   5.465   4.868  1.0279 -0.9169 -1.4718
 2270SOL     hw 9079   4.679   5.546   4.951  0.2667 -0.6743 -0.8061
 2270SOL     vw 9080   4.644   5.470   4.929  0.1152 -0.6847 -0.5310
 2271SOL     ow 9081   2.544   3.506   2.438 -0.5539 -0.4602 -0.1852
 2271SOL     hw 9082   2.518   3.420   2.472 -0.7416 -0.9231 -1.4589
 2271SOL     hw 9083   2.493   3.517   2.358  0.2771  0.3628 -0.6179
 2271SOL     vw 9084   2.534   3.496   2.432 -0.4691 -0.4126 -0.4104
 2272SOL     ow 9085   4.521   3.574   1.765 -1.2416  0.0246 -0.7430
 2272SOL     hw 9086   4.602   3.541   1.726 -1.7182 -1.7957 -0.3097
 2272SOL     hw 9087   4.549   3.645   1.823  0.4902 -2.3967  1.6197
 2272SOL     vw 9088   4.535   3.579   1.767 -1.0757 -0.5351 -0.3741
 2273SOL     ow 9089   2.655   6.751   1.124 -0.5725 -0.0644 -0.0220
 2273SOL     hw 9090   2.650   6.673   1.179 -4.2905 -0.2084 -0.3216
 2273SOL     hw 9091   2.747   6.777   1.128  0.1736 -2.5665  2.6919
 2273SOL     vw 9092   2.666   6.744   1.132 -0.9646 -0.4134  0.2965
 2274SOL     ow 9093   2.900   3.800   4.038  0.4248 -0.6547  0.4023
 2274SOL     hw 9094   2.940   3.726   4.084 -1.0800 -2.4451 -0.9897
 2274SOL     hw 9095   2.844   3.759   3.972 -1.3574  1.7379  0.3133
 2274SOL     vw 9096   2.898   3.785   4.035 -0.0089 -0.5753  0.2072
 2275SOL     ow 9097   1.392   3.428   2.039 -0.5264 -0.0587 -0.2846
 2275SOL     hw 9098   1.382   3.481   1.960 -0.1931 -2.2181 -1.8551
 2275SOL     hw 9099   1.486   3.432   2.059 -0.2649 -1.0979 -1.2110
 2275SOL     vw 9100   1.403   3.436   2.031 -0.4479 -0.4807 -0.6140
 2276SOL     ow 9101   5.085   3.471   4.671 -0.2224 -0.9739  0.2378
 2276SOL     hw 9102   5.148   3.479   4.599  0.2852 -0.5244  0.7194
 2276SOL     hw 9103   5.118   3.530   4.738 -1.3720 -0.4611  0.3633
 2276SOL     vw 9104   5.098   3.480   4.670 -0.3071 -0.8470  0.3181
 2277SOL     ow 9105   0.917   3.274   1.741 -0.2039 -0.4200  0.1019
 2277SOL     hw 9106   1.004   3.304   1.765 -1.2867  0.2760  3.9191
 2277SOL     hw 9107   0.870   3.353   1.715 -0.6384 -0.1254  1.6626
 2277SOL     vw 9108   0.922   3.288   1.741 -0.4041 -0.2893  0.8114
 2278SOL     ow 9109   5.184   4.355   2.591  0.4190 -1.1211  0.0682
 2278SOL     hw 9110   5.121   4.296   2.633  1.1885 -0.6881  1.8780
 2278SOL     hw 9111   5.147   4.442   2.604  1.3559 -0.8665  1.1186
 2278SOL     vw 9112   5.171   4.359   2.598  0.6440 -1.0302  0.4456
 2279SOL     ow 9113   6.325   2.996   6.825 -0.4523 -0.5925  0.0531
 2279SOL     hw 9114   6.266   3.072   6.823  0.3215  0.1996  2.7904
 2279SOL     hw 9115   6.268   2.921   6.815 -1.5900  0.2594 -0.0571
 2279SOL     vw 9116   6.310   2.996   6.823 -0.5004 -0.3755  0.3996
 2280SOL     ow 9117   4.839   2.943   2.597 -0.0698 -0.3319 -0.5085
 2280SOL     hw 9118   4.864   2.880   2.665 -2.0841 -0.8513 -0.1932
 2280SOL     hw 9119   4.767   2.901   2.550  0.4116  0.5738 -2.1522
 2280SOL     vw 9120   4.833   2.929   2.599 -0.2718 -0.2810 -0.6838
 2281SOL     ow 9121   1.505   6.980   4.563  0.3038  0.7618  0.2492
 2281SOL     hw 9122   1.499   6.887   4.539  1.4650 -0.2426  3.3604
 2281SOL     hw 9123   1.440   6.990   4.633  0.2547  2.2906  0.0057
 2281SOL     vw 9124   1.495   6.969   4.569  0.4506  0.8311  0.6275
 2282SOL     ow 9125   6.367   5.569   6.265 -0.1891 -0.4479 -0.1319
 2282SOL     hw 9126   6.307   5.616   6.207 -1.6654 -1.9820  0.0734
 2282SOL     hw 9127   6.379   5.484   6.222 -0.4915 -1.2280  1.2858
 2282SOL     vw 9128   6.361   5.564   6.252 -0.4239 -0.7534  0.0823
 2283SOL     ow 9129   1.976   1.283   1.581  0.2155 -0.0367 -0.5638
 2283SOL     hw 9130   1.929   1.206   1.550 -1.1023 -0.3813  1.9747
 2283SOL     hw 9131   1.920   1.357   1.558  0.3220 -0.0669 -0.9211
 2283SOL     vw 9132   1.963   1.283   1.574  0.0557 -0.0861 -0.2760
 2284SOL     ow 9133   0.883   0.899   0.206 -0.4930  0.9481  0.1611
 2284SOL     hw 9134   0.824   0.930   0.137 -2.9771 -0.0870  1.7046
 2284SOL     hw 9135   0.963   0.874   0.159 -0.9000  3.1421 -1.9273
 2284SOL     vw 9136   0.886   0.900   0.191 -0.8745  1.1010  0.0892
 2285SOL     ow 9137   0.849   6.749   4.006 -0.1258 -0.2715  0.5701
 2285SOL     hw 9138   0.890   6.832   3.983  0.6925 -0.1272  2.3678
 2285SOL     hw 9139   0.819   6.713   3.923 -0.7960  1.9539 -0.2216
 2285SOL     vw 9140   0.851   6.755   3.992 -0.1062  0.0412  0.7029
 2286SOL     ow 9141   0.243   3.084   4.816  0.8612 -0.7337 -0.7157
 2286SOL     hw 9142   0.317   3.089   4.878  0.9541 -3.3384 -0.4996
 2286SOL     hw 9143   0.179   3.029   4.861 -0.2904 -0.3033 -1.7992
 2286SOL     vw 9144   0.245   3.077   4.830  0.7215 -1.0206 -0.8304
 2287SOL     ow 9145   4.113   3.314   1.155  0.0579 -0.1357 -0.6559
 2287SOL     hw 9146   4.049   3.385   1.143 -0.1330 -0.0267  0.8036
 2287SOL     hw 9147   4.187   3.338   1.099  0.3836  1.7123  0.4949
 2287SOL     vw 9148   4.114   3.327   1.146  0.0758  0.1225 -0.3114
 2288SOL     ow 9149   4.789   1.701   1.980  0.0576  0.5347  0.2367
 2288SOL     hw 9150   4.831   1.617   1.965 -1.3895 -1.1342  4.1460
 2288SOL     hw 9151   4.698   1.687   1.954  0.2081  1.6097 -0.9578
 2288SOL     vw 9152   4.783   1.688   1.975 -0.1135  0.4564  0.5949
 2289SOL     ow 9153   3.566   0.709   3.741  0.1015 -0.2244  0.6262
 2289SOL     hw 9154   3.513   0.672   3.811  0.7622 -1.2634  0.6084
 2289SOL     hw 9155   3.600   0.632   3.694  2.8434  0.2902  1.5492
 2289SOL     vw 9156   3.564   0.694   3.744  0.5504 -0.2936  0.7457
 2290SOL     ow 9157   5.721   1.586   4.728  0.1695 -0.7390  0.1539
 2290SOL     hw 9158   5.634   1.574   4.691 -0.7334 -1.1612  2.2790
 2290SOL     hw 9159   5.706   1.627   4.813  1.8910 -2.3058  1.2953
 2290SOL     vw 9160   5.708   1.590   4.734  0.2778 -1.0014  0.5851
 2291SOL     ow 9161   1.520   3.608   5.855  0.0612  0.2389 -0.1051
 2291SOL     hw 9162   1.442   3.623   5.802 -0.6806  0.7142  1.0710
 2291SOL     hw 9163   1.559   3.528   5.819  0.4874  1.3882 -2.3668
 2291SOL     vw 9164   1.515   3.599   5.844  0.0196  0.4532 -0.2482
 2292SOL     ow 9165   5.422   0.314   1.308 -0.3640 -0.0692 -0.3269
 2292SOL     hw 9166   5.434   0.219   1.302 -1.2456 -0.1095 -2.1505
 2292SOL     hw 9167   5.345   0.332   1.254 -0.1715  1.7014 -0.0757
 2292SOL     vw 9168   5.413   0.304   1.300 -0.4547  0.1591 -0.5344
 2293SOL     ow 9169   5.548   5.391   1.562 -0.1761 -0.6727 -0.8608
 2293SOL     hw 9170   5.584   5.429   1.642 -0.2576  3.3853 -2.5102
 2293SOL     hw 9171   5.612   5.325   1.536  1.0259 -0.4507  1.2934
 2293SOL     vw 9172   5.561   5.387   1.569 -0.0281 -0.1080 -0.7942
 2294SOL     ow 9173   3.637   0.940   1.504 -0.1254  0.1523 -0.9986
 2294SOL     hw 9174   3.664   1.004   1.569 -0.5756 -0.8110  0.1839
 2294SOL     hw 9175   3.713   0.884   1.492 -0.3712 -0.3035 -0.4880
 2294SOL     vw 9176   3.650   0.941   1.511 -0.2174 -0.0349 -0.7752
 2295SOL     ow 9177   2.872   4.098   6.422  0.3304 -0.0705  0.3243
 2295SOL     hw 9178   2.872   4.154   6.500  2.7292  1.3524 -0.6022
 2295SOL     hw 9179   2.957   4.056   6.422 -0.5340 -1.9263 -0.3145
 2295SOL     vw 9180   2.883   4.100   6.432  0.5327 -0.1276  0.1178
 2296SOL     ow 9181   1.260   3.873   0.493  0.1889  0.5170  0.1368
 2296SOL     hw 9182   1.321   3.895   0.564 -0.6336 -1.5086  1.5483
 2296SOL     hw 9183   1.290   3.788   0.462 -0.5695  0.5574 -0.7178
 2296SOL     vw 9184   1.272   3.865   0.499 -0.0197  0.2551  0.2103
 2297SOL     ow 9185   6.060   0.774   0.976  0.3561 -0.4106 -0.3918
 2297SOL     hw 9186   6.041   0.769   0.882  0.4864 -2.4227 -0.3607
 2297SOL     hw 9187   6.132   0.713   0.989  0.2800 -0.2321  1.0461
 2297SOL     vw 9188   6.067   0.765   0.965  0.3631 -0.6525 -0.1979
 2298SOL     ow 9189   0.350   3.041   4.564 -0.6394  0.2662  0.2860
 2298SOL     hw 9190   0.258   3.041   4.535 -0.5987 -2.6611 -0.1858
 2298SOL     hw 9191   0.345   3.049   4.659 -1.1397  3.0819  0.1163
 2298SOL     vw 9192   0.337   3.042   4.572 -0.7000  0.2514  0.2012
 2299SOL     ow 9193   2.948   4.621   1.705  0.2709 -0.3709 -0.2722
 2299SOL     hw 9194   2.936   4.613   1.800  0.4387  0.4549 -0.1733
 2299SOL     hw 9195   2.994   4.542   1.680  2.4158  0.4802  0.7223
 2299SOL     vw 9196   2.952   4.610   1.714  0.5761 -0.1497 -0.1279
 2300SOL     ow 9197   1.678   4.829   3.801  0.0021 -0.7361  0.9235
 2300SOL     hw 9198   1.584   4.845   3.803  0.2310  1.0255 -0.2303
 2300SOL     hw 9199   1.716   4.900   3.853  0.7710 -0.4051 -0.0477
 2300SOL     vw 9200   1.671   4.841   3.808  0.1338 -0.4601  0.6431
 2301SOL     ow 9201   1.498   0.444   6.544 -0.5155 -0.2336  0.4416
 2301SOL     hw 9202   1.474   0.536   6.531  1.7404  0.0615 -2.8655
 2301SOL     hw 9203   1.427   0.394   6.503 -0.5842  0.1550  0.0807
 2301SOL     vw 9204   1.486   0.450   6.537 -0.2270 -0.1433 -0.0422
 2302SOL     ow 9205   5.571   4.767   3.320 -0.0224  0.6854  0.2794
 2302SOL     hw 9206   5.625   4.796   3.393  2.0808 -0.6119 -0.6811
 2302SOL     hw 9207   5.551   4.847   3.272  1.6921  1.1288  0.2608
 2302SOL     vw 9208   5.575   4.781   3.323  0.4809  0.5729  0.1502
 2303SOL     ow 9209   5.629   0.241   5.586 -0.0227  0.4885 -0.2706
 2303SOL     hw 9210   5.561   0.235   5.653 -0.2438  1.2033 -0.4248
 2303SOL     hw 9211   5.666   0.329   5.597  0.9150  0.0857 -0.1512
 2303SOL     vw 9212   5.625   0.252   5.596  0.0720  0.5297 -0.2754
 2304SOL     ow 9213   1.802   1.068   2.179 -0.6649  0.0203 -0.0684
 2304SOL     hw 9214   1.769   1.150   2.215  1.3370  0.1878  1.5742
 2304SOL     hw 9215   1.882   1.092   2.134 -0.6681 -0.8805 -0.5834
 2304SOL     vw 9216   1.808   1.082   2.178 -0.4012 -0.0764  0.0803
 2305SOL     ow 9217   1.186   6.018   0.273  0.4229  0.5446  0.6788
 2305SOL     hw 9218   1.151   6.104   0.298 -0.6877  0.3705 -0.1859
 2305SOL     hw 9219   1.165   5.961   0.347 -0.1923  0.6841  0.6182
 2305SOL     vw 9220   1.178   6.022   0.286  0.1951  0.5400  0.5567
 2306SOL     ow 9221   3.781   1.508   7.043 -0.2665 -0.0740  0.6098
 2306SOL     hw 9222   3.755   1.551   6.961 -1.8099 -0.2574  0.9609
 2306SOL     hw 9223   3.704   1.516   7.099  0.0298 -1.7325  1.3207
 2306SOL     vw 9224   3.767   1.515   7.040 -0.4311 -0.3170  0.7498
 2307SOL     ow 9225   0.091   4.504   5.144 -0.1679 -0.4472 -0.4631
 2307SOL     hw 9226   0.021   4.455   5.100 -0.7572  0.0946 -0.1457
 2307SOL     hw 9227   0.169   4.451   5.131 -0.6544 -1.1081 -0.7508
 2307SOL     vw 9228   0.092   4.491   5.136 -0.3099 -0.4630 -0.4594
 2308SOL     ow 9229   3.308   5.650   0.478 -0.5135 -0.4086  0.0165
 2308SOL     hw 9230   3.290   5.741   0.499  1.3979  0.0556 -0.2116
 2308SOL     hw 9231   3.289   5.602   0.559  1.3816  0.6220  1.1433
 2308SOL     vw 9232   3.303   5.655   0.491 -0.0113 -0.2115  0.1351
 2309SOL     ow 9233   6.667   0.362   5.580  0.2641 -0.3398  0.4684
 2309SOL     hw 9234   6.736   0.349   5.646 -0.5583 -4.8274  0.7794
 2309SOL     hw 9235   6.710   0.347   5.496  0.0537 -1.5406  0.5542
 2309SOL     vw 9236   6.682   0.358   5.578  0.1280 -1.0903  0.5207
 2310SOL     ow 9237   4.271   5.651   0.954  0.1296  0.3402 -0.5017
 2310SOL     hw 9238   4.298   5.616   1.039  0.0705 -2.7835 -1.6378
 2310SOL     hw 9239   4.314   5.736   0.948  1.1389  0.1008  2.0995
 2310SOL     vw 9240   4.280   5.657   0.964  0.2549 -0.1035 -0.3085
 2311SOL     ow 9241   4.333   3.048   1.109 -0.2653  0.1721  0.3099
 2311SOL     hw 9242   4.321   3.048   1.014 -0.5351  0.2448  0.3412
 2311SOL     hw 9243   4.244   3.042   1.144 -0.0950 -4.3981  0.5344
 2311SOL     vw 9244   4.319   3.047   1.101 -0.2785 -0.4213  0.3437
 2312SOL     ow 9245   3.188   6.956   4.198  0.8741 -0.0092 -0.0422
 2312SOL     hw 9246   3.188   6.950   4.293  1.6321 -0.9904 -0.0861
 2312SOL     hw 9247   3.261   7.014   4.177  0.5784  0.3729 -0.0215
 2312SOL     vw 9248   3.197   6.963   4.208  0.9351 -0.0880 -0.0451
 2313SOL     ow 9249   0.631   4.861   3.562 -0.1030 -0.3524 -0.4966
 2313SOL     hw 9250   0.677   4.942   3.542  0.0058 -0.7736 -2.0772
 2313SOL     hw 9251   0.634   4.855   3.658  0.5602  1.0971 -0.3948
 2313SOL     vw 9252   0.637   4.871   3.572 -0.0011 -0.2167 -0.6917
 2314SOL     ow 9253   2.799   6.796   7.135 -0.1694  0.0186  0.4093
 2314SOL     hw 9254   2.868   6.863   7.136  0.3397 -0.4295 -1.3643
 2314SOL     hw 9255   2.846   6.713   7.124 -0.8840 -0.5054  1.1960
 2314SOL     vw 9256   2.815   6.794   7.134 -0.1965 -0.1097  0.2789
 2315SOL     ow 9257   0.270   3.122   4.048  0.5984 -0.4328  0.0623
 2315SOL     hw 9258   0.349   3.148   4.001  1.0499 -0.4899  0.7814
 2315SOL     hw 9259   0.297   3.046   4.100  0.8552  1.2327  2.5235
 2315SOL     vw 9260   0.284   3.115   4.049  0.6918 -0.2207  0.4818
 2316SOL     ow 9261   1.440   4.004   6.656 -0.5149 -0.1935 -0.1834
 2316SOL     hw 9262   1.461   4.094   6.683  0.3293 -0.5796  0.4893
 2316SOL     hw 9263   1.358   4.013   6.607 -0.7643  0.8652  0.3848
 2316SOL     vw 9264   1.432   4.017   6.653 -0.4365 -0.1047 -0.0196
 2317SOL     ow 9265   0.488   2.334   0.525 -0.0278  0.3009 -0.6355
 2317SOL     hw 9266   0.442   2.410   0.559 -1.9301 -0.6152 -0.9796
 2317SOL     hw 9267   0.541   2.302   0.598 -2.2480 -0.2978  0.8374
 2317SOL     vw 9268   0.489   2.340   0.539 -0.5717  0.1010 -0.4865
 2318SOL     ow 9269   2.009   0.451   1.795 -0.0583  0.0611 -0.1061
 2318SOL     hw 9270   1.969   0.368   1.770  0.6281 -0.1911 -0.3802
 2318SOL     hw 9271   2.102   0.431   1.806  0.0537  0.7112  0.1960
 2318SOL     vw 9272   2.016   0.437   1.793  0.0470  0.1136 -0.1025
 2319SOL     ow 9273   3.142   5.949   0.673  0.2764  0.3431 -0.2932
 2319SOL     hw 9274   3.129   5.854   0.670 -1.7553  0.4768  1.3462
 2319SOL     hw 9275   3.095   5.982   0.596  0.5117  0.0522 -0.5628
 2319SOL     vw 9276   3.134   5.941   0.662  0.0393  0.3223 -0.1124
 2320SOL     ow 9277   1.105   1.402   1.833  0.0107 -0.1906  0.1245
 2320SOL     hw 9278   1.064   1.392   1.919 -2.1033  2.9731 -0.3419
 2320SOL     hw 9279   1.192   1.438   1.853 -0.2437 -0.0014  0.9505
 2320SOL     vw 9280   1.111   1.405   1.847 -0.3018  0.2518  0.1720
 2321SOL     ow 9281   7.344   4.357   4.953 -0.0572 -0.0314  0.5559
 2321SOL     hw 9282   7.269   4.395   4.907  1.3412  2.8384  0.3828
 2321SOL     hw 9283   7.420   4.391   4.906  1.3682 -1.0026  2.0553
 2321SOL     vw 9284   7.344   4.367   4.941  0.3154  0.2191  0.7310
 2322SOL     ow 9285   5.035   5.942   4.943  0.0360  0.2968 -0.2480
 2322SOL     hw 9286   4.978   6.019   4.949 -0.0154  0.1607  1.1577
 2322SOL     hw 9287   5.110   5.962   4.998  0.4871 -0.2798 -0.6348
 2322SOL     vw 9288   5.037   5.955   4.951  0.0887  0.2029 -0.1135
 2323SOL     ow 9289   5.830   0.580   6.990  0.9248  0.2409 -0.2173
 2323SOL     hw 9290   5.865   0.536   7.067 -0.4362 -1.0881 -0.3117
 2323SOL     hw 9291   5.904   0.587   6.930  1.2819 -1.5726 -0.0354
 2323SOL     vw 9292   5.844   0.575   6.992  0.7927 -0.1737 -0.2060
 2324SOL     ow 9293   2.015   1.478   3.363 -0.8654  0.2119 -0.0969
 2324SOL     hw 9294   2.041   1.569   3.349  1.5462 -0.5980 -1.5656
 2324SOL     hw 9295   2.098   1.430   3.368 -2.0569 -1.8809  0.9598
 2324SOL     vw 9296   2.029   1.484   3.362 -0.7045 -0.1710 -0.1514
 2325SOL     ow 9297   6.837   2.624   2.782 -0.2742  0.1770  0.4499
 2325SOL     hw 9298   6.905   2.641   2.847 -0.7981 -0.4062  1.1619
 2325SOL     hw 9299   6.846   2.696   2.719  0.4487  0.5701  0.9864
 2325SOL     vw 9300   6.847   2.636   2.782 -0.2480  0.1519  0.6146
 2326SOL     ow 9301   1.620   6.551   2.182  0.6085  0.5127  0.3901
 2326SOL     hw 9302   1.614   6.556   2.087  1.0959 -0.2712  0.3063
 2326SOL     hw 9303   1.687   6.485   2.198  1.2614  1.3576  1.2788
 2326SOL     vw 9304   1.628   6.543   2.172  0.7590  0.5207  0.4963
 2327SOL     ow 9305   4.826   2.610   3.006 -0.3750 -0.0612 -0.2150
 2327SOL     hw 9306   4.865   2.658   2.933 -2.2798  1.2315 -0.4326
 2327SOL     hw 9307   4.805   2.677   3.071 -0.6386 -0.9403  0.6434
 2327SOL     vw 9308   4.829   2.625   3.005 -0.6609 -0.0066 -0.1305
 2328SOL     ow 9309   3.606   2.257   3.800  0.3128  0.1157 -0.0685
 2328SOL     hw 9310   3.569   2.170   3.812  3.3673 -1.0958  1.6587
 2328SOL     hw 9311   3.677   2.245   3.737  1.7297  1.0129  1.2986
 2328SOL     vw 9312   3.610   2.244   3.793  0.9027  0.0741  0.3397
 2329SOL     ow 9313   3.059   6.223   1.323 -0.1195  0.0498 -0.2590
 2329SOL     hw 9314   3.023   6.309   1.341  1.3213  0.5639  0.3480
 2329SOL     hw 9315   3.074   6.222   1.229 -2.5824 -0.5741 -0.7103
 2329SOL     vw 9316   3.056   6.234   1.313 -0.2544  0.0353 -0.2384
 2330SOL     ow 9317   2.875   2.843   2.834 -0.0879 -1.0633 -0.4303
 2330SOL     hw 9318   2.966   2.816   2.843 -0.0340 -0.7902 -0.1414
 2330SOL     hw 9319   2.848   2.868   2.922 -0.3082 -0.7198 -0.5906
 2330SOL     vw 9320   2.883   2.843   2.847 -0.1097 -0.9819 -0.4133
 2331SOL     ow 9321   3.482   0.065   4.913 -0.0675  0.9449  0.1345
 2331SOL     hw 9322   3.470   0.022   4.997  0.2567 -0.2982 -0.4316
 2331SOL     hw 9323   3.477  -0.005   4.849 -0.0188  1.8267 -0.8718
 2331SOL     vw 9324   3.479   0.050   4.915 -0.0184  0.8973 -0.0730
 2332SOL     ow 9325   2.578   0.717   6.734  0.1240 -0.4376 -0.0671
 2332SOL     hw 9326   2.667   0.740   6.760 -0.0591 -1.3916  1.5489
 2332SOL     hw 9327   2.589   0.669   6.651  1.1421 -0.8638  0.2973
 2332SOL     vw 9328   2.591   0.714   6.726  0.2342 -0.6197  0.1941
 2333SOL     ow 9329   5.731   0.193   1.973 -0.1431  0.4608  0.0044
 2333SOL     hw 9330   5.818   0.165   1.943 -0.6552 -1.4187  0.1465
 2333SOL     hw 9331   5.722   0.283   1.940  2.0962  0.9465  0.5455
 2333SOL     vw 9332   5.741   0.201   1.965  0.0846  0.2769  0.0946
 2334SOL     ow 9333   4.283   2.267   5.107 -0.4012  0.2330  0.1947
 2334SOL     hw 9334   4.240   2.280   5.022 -2.3939 -3.2824  0.4276
 2334SOL     hw 9335   4.213   2.279   5.171  0.4092  0.2189  1.1013
 2334SOL     vw 9336   4.268   2.270   5.104 -0.5569 -0.2327  0.3450
 2335SOL     ow 9337   7.235   5.082   1.106  0.1946 -0.1352  0.5135
 2335SOL     hw 9338   7.261   5.113   1.019 -0.6536 -1.1716 -0.1280
 2335SOL     hw 9339   7.141   5.068   1.100  0.5035 -2.7434  0.7646
 2335SOL     vw 9340   7.226   5.085   1.094  0.1235 -0.6158  0.4619
 2336SOL     ow 9341   5.117   3.308   5.725 -0.7775 -0.1256 -0.1850
 2336SOL     hw 9342   5.131   3.400   5.705 -0.9247  0.1139  0.7651
 2336SOL     hw 9343   5.111   3.305   5.820  1.6254 -1.4421 -0.0067
 2336SOL     vw 9344   5.118   3.320   5.735 -0.4797 -0.2676 -0.0362
 2337SOL     ow 9345   3.572   7.076   2.671  0.2291 -0.4765 -0.3979
 2337SOL     hw 9346   3.635   7.027   2.618  1.5623 -1.5228  1.9922
 2337SOL     hw 9347   3.539   7.013   2.735 -3.1741  0.1114 -1.3868
 2337SOL     vw 9348   3.576   7.061   2.673 -0.0441 -0.5369 -0.2131
 2338SOL     ow 9349   0.728   1.817   6.812 -0.7152  0.0454 -0.4339
 2338SOL     hw 9350   0.649   1.781   6.771 -0.6742 -2.0993  1.2288
 2338SOL     hw 9351   0.800   1.766   6.774 -0.4657 -0.3448  0.5420
 2338SOL     vw 9352   0.727   1.806   6.801 -0.6768 -0.2890 -0.0858
 2339SOL     ow 9353   1.608   6.907   3.500 -0.6563  0.1619 -0.4274
 2339SOL     hw 9354   1.644   6.991   3.529  0.2576  0.0624 -1.2043
 2339SOL     hw 9355   1.612   6.911   3.405  0.6915 -1.2610 -0.4818
 2339SOL     vw 9356   1.613   6.918   3.491 -0.3579 -0.0389 -0.5370
 2340SOL     ow 9357   4.833   6.446   5.609 -0.2814 -0.2312 -0.0671
 2340SOL     hw 9358   4.769   6.442   5.538 -1.4892 -2.1852  1.0534
 2340SOL     hw 9359   4.918   6.450   5.564 -0.9898 -1.6060 -1.6268
 2340SOL     vw 9360   4.836   6.446   5.593 -0.5345 -0.6704 -0.1249
 2341SOL     ow 9361   5.127   0.350   5.451  0.4355  0.4288 -0.0462
 2341SOL     hw 9362   5.181   0.429   5.439 -0.3584  0.9396 -0.3827
 2341SOL     hw 9363   5.189   0.281   5.473  1.5923  0.3138 -3.2362
 2341SOL     vw 9364   5.142   0.352   5.452  0.4833  0.4810 -0.5119
 2342SOL     ow 9365   4.954   0.611   2.832 -0.6282  0.1911  0.1106
 2342SOL     hw 9366   4.914   0.665   2.764 -0.1642  1.5537  0.8754
 2342SOL     hw 9367   5.041   0.590   2.798 -1.6509 -2.2015 -1.2549
 2342SOL     vw 9368   4.960   0.615   2.818 -0.7021  0.0552  0.0314
 2343SOL     ow 9369   2.443   0.894   1.340  0.2902  0.7042  0.4702
 2343SOL     hw 9370   2.497   0.966   1.306 -0.9521  0.9068 -1.1878
 2343SOL     hw 9371   2.406   0.853   1.262 -2.6747  1.1580  1.5375
 2343SOL     vw 9372   2.446   0.898   1.325 -0.2648  0.7908  0.3923
 2344SOL     ow 9373   1.185   5.673   2.077  0.4293  0.3343 -0.1025
 2344SOL     hw 9374   1.245   5.730   2.031  0.4829  0.1254 -0.2925
 2344SOL     hw 9375   1.237   5.637   2.149 -0.4927  3.1662  2.1692
 2344SOL     vw 9376   1.200   5.675   2.081  0.3148  0.6804  0.1723
 2345SOL     ow 9377   1.405   1.507   1.544  1.0111  0.3922 -0.1536
 2345SOL     hw 9378   1.430   1.550   1.462  2.1431 -0.8962 -0.5381
 2345SOL     hw 9379   1.460   1.429   1.547  1.1567  0.5134  1.9569
 2345SOL     vw 9380   1.416   1.502   1.533  1.1796  0.2382  0.0741
 2346SOL     ow 9381   0.335   3.932   2.750  0.4020 -0.5256 -0.4270
 2346SOL     hw 9382   0.253   3.925   2.798  0.1396  0.6906 -0.6829
 2346SOL     hw 9383   0.367   4.020   2.769  2.0555 -1.2453  0.2976
 2346SOL     vw 9384   0.328   3.943   2.759  0.5855 -0.4601 -0.3651
 2347SOL     ow 9385   3.652   6.766   0.752 -0.2904 -0.1192  0.5328
 2347SOL     hw 9386   3.711   6.694   0.772  0.6886  0.9523  1.5969
 2347SOL     hw 9387   3.645   6.816   0.833 -0.4956  1.3190 -0.3250
 2347SOL     vw 9388   3.659   6.763   0.765 -0.1882  0.2120  0.5600
 2348SOL     ow 9389   6.450   6.864   3.808 -0.0083  1.0357  0.0873
 2348SOL     hw 9390   6.373   6.844   3.755 -0.2029  2.3954 -0.1735
 2348SOL     hw 9391   6.461   6.958   3.800  2.1525  0.7919 -0.5213
 2348SOL     vw 9392   6.442   6.873   3.800  0.2511  1.1830 -0.0274
 2349SOL     ow 9393   3.470   6.451   0.487  0.1679  0.3023 -0.0674
 2349SOL     hw 9394   3.555   6.412   0.504  0.3991  0.2476 -1.3177
 2349SOL     hw 9395   3.453   6.436   0.394 -0.4869  1.6913 -0.2103
 2349SOL     vw 9396   3.479   6.444   0.477  0.1121  0.4785 -0.2512
 2350SOL     ow 9397   6.031   6.901   0.602 -0.7834  0.4529  0.0864
 2350SOL     hw 9398   6.030   6.994   0.578  2.7719  1.2003  2.1192
 2350SOL     hw 9399   5.976   6.896   0.681  2.9983  2.1490  3.1604
 2350SOL     vw 9400   6.023   6.913   0.609  0.1845  0.7756  0.7602
 2351SOL     ow 9401   5.984   5.889   0.384  0.4909 -0.3582 -0.0696
 2351SOL     hw 9402   5.889   5.877   0.389  0.0565  2.3631 -0.2749
 2351SOL     hw 9403   6.007   5.940   0.462  1.7879 -0.9359 -0.0420
 2351SOL     vw 9404   5.975   5.894   0.395  0.6049 -0.0753 -0.0930
 2352SOL     ow 9405   5.453   3.031   2.284  0.7337 -0.1616  0.9446
 2352SOL     hw 9406   5.501   2.959   2.326  2.6800  1.0134  0.8675
 2352SOL     hw 9407   5.434   3.092   2.355  0.1289 -0.2104  0.8248
 2352SOL     vw 9408   5.457   3.030   2.299  0.9108 -0.0131  0.9185
 2353SOL     ow 9409   7.012   5.440   3.926  0.3055  0.3155  0.3848
 2353SOL     hw 9410   7.046   5.514   3.875 -0.5386  1.2698  1.1512
 2353SOL     hw 9411   7.072   5.368   3.907  0.7334  0.9909 -0.9473
 2353SOL     vw 9412   7.025   5.440   3.917  0.2508  0.5305  0.3099
 2354SOL     ow 9413   6.504   0.879   4.991 -0.2806 -0.1758  0.3476
 2354SOL     hw 9414   6.438   0.875   4.921 -0.1137  2.0699 -0.0042
 2354SOL     hw 9415   6.585   0.851   4.949 -0.3150  0.5225 -0.2012
 2354SOL     vw 9416   6.506   0.875   4.976 -0.2632  0.2126  0.2286
 2355SOL     ow 9417   6.534   5.972   6.584 -0.1241 -0.0519 -0.1501
 2355SOL     hw 9418   6.583   5.925   6.652 -1.0033 -0.6169  0.1099
 2355SOL     hw 9419   6.587   6.050   6.567 -0.0470  0.2817  1.4208
 2355SOL     vw 9420   6.548   5.976   6.591 -0.2301 -0.0823  0.0913
 2356SOL     ow 9421   5.437   4.330   3.032 -0.3150 -0.1688 -0.3418
 2356SOL     hw 9422   5.440   4.367   2.944  3.4554  1.2569  0.1746
 2356SOL     hw 9423   5.499   4.256   3.028  0.7961  0.6126  1.2874
 2356SOL     vw 9424   5.446   4.325   3.020  0.3293  0.1225 -0.0588
 2357SOL     ow 9425   6.114   1.561   3.709  0.2471  0.1880  0.1812
 2357SOL     hw 9426   6.055   1.635   3.697  2.7769  2.2937 -0.2063
 2357SOL     hw 9427   6.152   1.574   3.796 -1.2583 -2.2943  1.3139
 2357SOL     vw 9428   6.112   1.573   3.719  0.3822  0.1383  0.2797
 2358SOL     ow 9429   5.479   0.711   5.655  0.3775  0.0234  0.0116
 2358SOL     hw 9430   5.536   0.645   5.616  1.6166  1.4561 -0.6961
 2358SOL     hw 9431   5.527   0.793   5.647 -0.5618  0.8578  1.9972
 2358SOL     vw 9432   5.493   0.713   5.649  0.4172  0.3225  0.1805
 2359SOL     ow 9433   1.238   4.530   2.480 -0.2442 -0.0537  0.0857
 2359SOL     hw 9434   1.215   4.589   2.408 -0.0074  0.5972  0.5350
 2359SOL     hw 9435   1.154   4.508   2.520 -0.3438 -0.1364 -0.1616
 2359SOL     vw 9436   1.224   4.535   2.476 -0.2261  0.0215  0.1124
 2360SOL     ow 9437   0.499   5.807   3.963 -0.3945 -0.1715  0.1394
 2360SOL     hw 9438   0.493   5.884   4.019  2.3531 -0.5719  1.1574
 2360SOL     hw 9439   0.458   5.737   4.015  0.1334 -0.0776  0.6914
 2360SOL     vw 9440   0.492   5.808   3.978  0.0377 -0.2122  0.3465
 2361SOL     ow 9441   6.311   6.186   6.686 -0.3171 -0.5856  0.2985
 2361SOL     hw 9442   6.258   6.257   6.721  0.8094  0.1971  0.4894
 2361SOL     hw 9443   6.292   6.187   6.592  1.4451  1.6349 -0.1490
 2361SOL     vw 9444   6.302   6.196   6.678  0.0639 -0.1895  0.2646
 2362SOL     ow 9445   4.992   4.037   4.866  0.1670 -0.1922 -0.1923
 2362SOL     hw 9446   5.014   3.951   4.829  1.8939 -0.1283  0.6244
 2362SOL     hw 9447   5.053   4.098   4.824  0.6604  0.2334  1.1168
 2362SOL     vw 9448   5.003   4.034   4.855  0.4599 -0.1278  0.0882
 2363SOL     ow 9449   6.486   5.342   6.155  0.2283  0.1793  0.9159
 2363SOL     hw 9450   6.546   5.288   6.206  0.5982  0.8000  1.1461
 2363SOL     hw 9451   6.531   5.356   6.071 -0.2218 -0.5413  0.5473
 2363SOL     vw 9452   6.500   5.337   6.151  0.2179  0.1657  0.8979
 2364SOL     ow 9453   4.819   2.563   5.798 -0.2257 -0.1631  0.5801
 2364SOL     hw 9454   4.903   2.561   5.752 -0.5012  1.0335 -0.0181
 2364SOL     hw 9455   4.827   2.638   5.858 -1.7045  1.5494 -1.2233
 2364SOL     vw 9456   4.831   2.573   5.800 -0.4575  0.2208  0.2632
 2365SOL     ow 9457   4.433   6.828   0.555 -0.3252 -0.4049 -0.5668
 2365SOL     hw 9458   4.361   6.889   0.573  1.1334  1.3153 -0.2530
 2365SOL     hw 9459   4.447   6.835   0.461 -2.2781 -2.8180 -1.1253
 2365SOL     vw 9460   4.425   6.837   0.545 -0.3905 -0.4961 -0.5991
 2366SOL     ow 9461   0.761   2.892   7.002 -0.1230  0.0688  0.1979
 2366SOL     hw 9462   0.843   2.890   7.052 -0.5015 -0.5722  0.8256
 2366SOL     hw 9463   0.719   2.974   7.028 -0.0639 -0.0046  0.5399
 2366SOL     vw 9464   0.766   2.903   7.012 -0.1651 -0.0254  0.3259
 2367SOL     ow 9465   1.742   6.809   3.778  1.0362 -0.0614  0.8362
 2367SOL     hw 9466   1.706   6.889   3.816  2.7688 -0.1424  2.8152
 2367SOL     hw 9467   1.835   6.828   3.764  1.3153 -1.4621  0.5883
 2367SOL     vw 9468   1.750   6.822   3.781  1.3016 -0.2568  1.0647
 2368SOL     ow 9469   0.490   4.117   6.410 -0.6669 -0.3188 -0.2121
 2368SOL     hw 9470   0.535   4.051   6.463 -1.7140 -0.5278  0.4340
 2368SOL     hw 9471   0.479   4.076   6.324 -2.5967 -1.5852  0.5855
 2368SOL     vw 9472   0.495   4.103   6.406 -1.0597 -0.5136 -0.0217
 2369SOL     ow 9473   6.548   3.537   6.965  0.1036 -0.0344  1.1707
 2369SOL     hw 9474   6.633   3.505   6.994  0.5113  0.9099  1.0285
 2369SOL     hw 9475   6.496   3.457   6.952  2.4489 -1.1602 -3.7503
 2369SOL     vw 9476   6.552   3.522   6.967  0.4668 -0.0582  0.5028
 2370SOL     ow 9477   6.474   1.892   3.209  1.3825 -0.6843  0.0498
 2370SOL     hw 9478   6.534   1.966   3.197  3.3524 -2.0179  1.1019
 2370SOL     hw 9479   6.498   1.831   3.139  0.2327 -0.6432 -0.3984
 2370SOL     vw 9480   6.485   1.894   3.198  1.4904 -0.8549  0.1295
 2371SOL     ow 9481   5.283   1.409   5.773  0.2600 -0.0370  0.1198
 2371SOL     hw 9482   5.350   1.357   5.727 -0.5309 -2.0657  1.1309
 2371SOL     hw 9483   5.201   1.385   5.729 -0.0820  0.6946  0.3535
 2371SOL     vw 9484   5.281   1.399   5.761  0.1104 -0.2081  0.2842
 2372SOL     ow 9485   3.592   3.391   6.729  0.8651 -0.1747  0.0869
 2372SOL     hw 9486   3.595   3.485   6.707  0.7847 -0.1057  0.3748
 2372SOL     hw 9487   3.658   3.352   6.673 -0.3878 -0.2285 -1.4364
 2372SOL     vw 9488   3.601   3.398   6.718  0.6893 -0.1726 -0.0761
 2373SOL     ow 9489   2.930   1.245   1.107  0.4388 -0.1503  0.4277
 2373SOL     hw 9490   2.949   1.335   1.079 -0.0131  0.0140  0.6436
 2373SOL     hw 9491   2.909   1.252   1.200  0.4810 -0.4920  0.4653
 2373SOL     vw 9492   2.930   1.258   1.116  0.3848 -0.1738  0.4612
 2374SOL     ow 9493   0.718   7.354   6.372 -0.1124 -0.1725  0.1079
 2374SOL     hw 9494   0.753   7.389   6.454 -3.0844  1.8963  0.6830
 2374SOL     hw 9495   0.793   7.351   6.313  1.3447  2.5046  1.6284
 2374SOL     vw 9496   0.732   7.358   6.375 -0.3123  0.4537  0.3846
 2375SOL     ow 9497   5.179   1.277   2.202  0.1224 -0.0736 -0.3340
 2375SOL     hw 9498   5.091   1.314   2.204  0.2281  0.1834 -0.4162
 2375SOL     hw 9499   5.202   1.265   2.294  0.1271  0.1617 -0.3033
 2375SOL     vw 9500   5.170   1.281   2.214  0.1369 -0.0086 -0.3407
 2376SOL     ow 9501   1.483   7.013   0.414 -0.0302  0.4693 -0.3566
 2376SOL     hw 9502   1.409   6.952   0.413 -0.2522  0.6254  1.7972
 2376SOL     hw 9503   1.557   6.961   0.444 -0.2477  1.2352  1.6122
 2376SOL     vw 9504   1.483   6.998   0.418 -0.0882  0.5913  0.1874
 2377SOL     ow 9505   3.414   7.022   7.347 -0.4564 -0.3091  0.2600
 2377SOL     hw 9506   3.362   7.010   7.426 -1.4405  0.0929 -0.3160
 2377SOL     hw 9507   3.411   6.937   7.303  1.3442 -1.0007  1.3606
 2377SOL     vw 9508   3.407   7.009   7.352 -0.3487 -0.3474  0.3292
 2378SOL     ow 9509   2.751   5.826   6.542 -0.3933 -0.0135 -0.7405
 2378SOL     hw 9510   2.696   5.883   6.489  0.1852 -0.2697 -1.6381
 2378SOL     hw 9511   2.814   5.789   6.480  0.2416 -0.3908  0.1138
 2378SOL     vw 9512   2.752   5.828   6.527 -0.2332 -0.0968 -0.7463
 2379SOL     ow 9513   3.677   0.638   4.862  0.1653  0.1909 -0.3505
 2379SOL     hw 9514   3.773   0.639   4.854  0.0671  0.0274 -1.6645
 2379SOL     hw 9515   3.658   0.708   4.925  1.0572  1.2399 -1.1956
 2379SOL     vw 9516   3.687   0.647   4.870  0.2700  0.3077 -0.6356
 2380SOL     ow 9517   0.681   2.036   5.881  0.1442  0.1974 -0.1017
 2380SOL     hw 9518   0.606   1.977   5.884  0.1612  0.2044  0.5809
 2380SOL     hw 9519   0.747   1.993   5.935  0.7756  0.0111 -0.9861
 2380SOL     vw 9520   0.680   2.022   5.888  0.2298  0.1738 -0.1285
 2381SOL     ow 9521   0.452   6.093   5.510  0.0878  0.6780 -0.0909
 2381SOL     hw 9522   0.484   6.109   5.421 -0.5109 -0.1509 -0.4670
 2381SOL     hw 9523   0.531   6.074   5.561  0.3531  0.2775 -0.6455
 2381SOL     vw 9524   0.466   6.092   5.505  0.0438  0.5155 -0.2136
 2382SOL     ow 9525   3.903   7.308   6.863  0.3868 -0.2118  0.1626
 2382SOL     hw 9526   3.812   7.302   6.892 -0.1208  1.0435 -1.0440
 2382SOL     hw 9527   3.904   7.383   6.803  1.9177 -1.0483 -0.9353
 2382SOL     vw 9528   3.891   7.317   6.859  0.5218 -0.1565 -0.1419
 2383SOL     ow 9529   3.463   1.174   1.331  0.4682 -0.1246  0.0047
 2383SOL     hw 9530   3.464   1.215   1.244  2.3373  1.5530  0.7439
 2383SOL     hw 9531   3.516   1.232   1.386 -0.2506 -1.3948  2.1758
 2383SOL     vw 9532   3.470   1.187   1.327  0.6200 -0.0708  0.3887
 2384SOL     ow 9533   1.683   3.003   2.041 -0.4373  0.6387 -0.2644
 2384SOL     hw 9534   1.716   3.060   1.972  1.6490  2.2218  1.9195
 2384SOL     hw 9535   1.679   3.058   2.119 -0.7773 -1.5795  1.3878
 2384SOL     vw 9536   1.687   3.018   2.042 -0.2069  0.5549  0.2416
 2385SOL     ow 9537   0.267   6.688   5.310  0.2799  0.5532 -0.1129
 2385SOL     hw 9538   0.299   6.778   5.315 -0.6883  0.8302  1.5664
 2385SOL     hw 9539   0.347   6.635   5.313  0.9856  1.3192 -2.7039
 2385SOL     vw 9540   0.282   6.693   5.311  0.2453  0.6909 -0.2332
 2386SOL     ow 9541   2.399   5.151   4.385 -0.0477  0.0782 -0.6215
 2386SOL     hw 9542   2.479   5.143   4.333  0.8087 -2.0956  0.8936
 2386SOL     hw 9543   2.426   5.129   4.474 -2.0042  1.0939  0.2844
 2386SOL     vw 9544   2.413   5.147   4.390 -0.1928 -0.0746 -0.3026
 2387SOL     ow 9545   1.374   1.464   6.337  0.5770 -0.5372 -0.7885
 2387SOL     hw 9546   1.451   1.521   6.345  0.3734 -0.1520 -1.4507
 2387SOL     hw 9547   1.377   1.409   6.415  1.1984 -0.1282 -0.5098
 2387SOL     vw 9548   1.385   1.464   6.348  0.6320 -0.4324 -0.8392
 2388SOL     ow 9549   2.662   4.881   3.174 -0.2580 -0.4742  0.3193
 2388SOL     hw 9550   2.577   4.838   3.171 -0.4320 -0.2243  1.3403
 2388SOL     hw 9551   2.722   4.818   3.132 -0.7340 -1.1479  0.6355
 2388SOL     vw 9552   2.659   4.867   3.168 -0.3437 -0.5305  0.4958
 2389SOL     ow 9553   4.206   1.246   4.664  0.9580  0.1904  0.2318
 2389SOL     hw 9554   4.222   1.241   4.570 -1.2832 -0.0003 -0.1835
 2389SOL     hw 9555   4.291   1.269   4.701  1.4346  2.4513 -2.0168
 2389SOL     vw 9556   4.219   1.248   4.657  0.7250  0.4635 -0.1199
 2390SOL     ow 9557   3.928   1.540   5.708 -0.2055 -0.5016 -0.2146
 2390SOL     hw 9558   3.984   1.595   5.653 -1.6092  1.3996  0.1414
 2390SOL     hw 9559   3.849   1.527   5.655 -0.8319 -0.1869  0.6274
 2390SOL     vw 9560   3.925   1.545   5.693 -0.4734 -0.2093 -0.0565
 2391SOL     ow 9561   3.626   0.875   4.632 -0.2391  0.1258  0.3019
 2391SOL     hw 9562   3.611   0.860   4.725  0.0290 -0.8824  0.1940
 2391SOL     hw 9563   3.592   0.963   4.616 -0.7791  0.1004  1.2406
 2391SOL     vw 9564   3.619   0.884   4.642 -0.2749 -0.0106  0.4115
 2392SOL     ow 9565   5.572   1.511   3.475  0.4155  0.3061 -0.4684
 2392SOL     hw 9566   5.551   1.443   3.539 -0.0921  1.6313  0.8192
 2392SOL     hw 9567   5.513   1.493   3.402  1.6220 -1.7664 -1.0219
 2392SOL     vw 9568   5.562   1.500   3.474  0.5078  0.2075 -0.3716
 2393SOL     ow 9569   1.821   6.501   6.692  0.2160 -0.4362 -0.7033
 2393SOL     hw 9570   1.913   6.474   6.687  0.5672  0.7619 -0.9347
 2393SOL     hw 9571   1.823   6.596   6.680 -0.8705 -0.1158  1.1605
 2393SOL     vw 9572   1.834   6.510   6.690  0.1190 -0.2358 -0.4878
 2394SOL     ow 9573   5.778   5.222   1.554 -0.7817 -0.0050  0.1347
 2394SOL     hw 9574   5.810   5.237   1.465 -1.3795  0.4865 -0.0052
 2394SOL     hw 9575   5.857   5.220   1.608 -0.0678 -3.7570 -0.8212
 2394SOL     vw 9576   5.793   5.224   1.549 -0.7665 -0.4349 -0.0099
 2395SOL     ow 9577   4.624   2.535   4.807 -1.2619  0.1877  0.7713
 2395SOL     hw 9578   4.600   2.529   4.714  1.1005 -0.4905  0.1247
 2395SOL     hw 9579   4.581   2.461   4.848 -0.5431 -0.8512 -0.2706
 2395SOL     vw 9580   4.615   2.525   4.800 -0.8552 -0.0389  0.5488
 2396SOL     ow 9581   4.751   6.504   7.225 -0.5695  0.2660 -0.6995
 2396SOL     hw 9582   4.662   6.531   7.246 -0.8725 -1.0752 -0.1531
 2396SOL     hw 9583   4.794   6.585   7.196 -1.4121  1.3369  0.8717
 2396SOL     vw 9584   4.745   6.518   7.224 -0.7207  0.2306 -0.4203
 2397SOL     ow 9585   1.019   0.504   5.652 -0.2284 -0.5073 -0.9054
 2397SOL     hw 9586   0.959   0.453   5.707  1.0596 -0.7433  0.3206
 2397SOL     hw 9587   1.076   0.438   5.612 -0.7715 -0.2836 -2.0753
 2397SOL     vw 9588   1.018   0.488   5.654 -0.1301 -0.5090 -0.8979
 2398SOL     ow 9589   5.508   6.782   1.560  0.2506 -0.0782  0.2703
 2398SOL     hw 9590   5.603   6.789   1.550  0.1174  3.1808  0.2057
 2398SOL     hw 9591   5.473   6.795   1.472 -0.3143 -2.0685  0.1464
 2398SOL     vw 9592   5.516   6.785   1.547  0.1585  0.0889  0.2455
 2399SOL     ow 9593   4.445   6.902   4.562  0.2252  0.0167  0.3129
 2399SOL     hw 9594   4.453   6.990   4.524  1.1984 -0.0290  0.3865
 2399SOL     hw 9595   4.488   6.845   4.499  0.7776 -0.2207  0.9001
 2399SOL     vw 9596   4.451   6.906   4.549  0.4265 -0.0205  0.3998
 2400SOL     ow 9597   0.027   5.273   7.268  0.1700 -0.1177 -0.4562
 2400SOL     hw 9598   0.069   5.306   7.347  0.7104  0.5690 -1.0275
 2400SOL     hw 9599   0.042   5.178   7.271  0.3021 -0.0818  0.1904
 2400SOL     vw 9600   0.034   5.265   7.279  0.2588 -0.0222 -0.4463
 2401SOL     ow 9601   4.524   2.304   4.945  0.4920  0.2621  0.0062
 2401SOL     hw 9602   4.610   2.272   4.971 -0.0052 -0.3257  0.9990
 2401SOL     hw 9603   4.468   2.286   5.021 -0.3531  1.2723 -0.3527
 2401SOL     vw 9604   4.528   2.297   4.959  0.3150  0.3179  0.0899
 2402SOL     ow 9605   7.061   2.059   6.446 -0.3613 -0.2576  1.0715
 2402SOL     hw 9606   7.014   1.977   6.461 -0.7690 -0.3928 -0.7313
 2402SOL     hw 9607   7.133   2.035   6.389 -0.3994  0.6138  0.6437
 2402SOL     vw 9608   7.064   2.045   6.441 -0.4201 -0.1606  0.7772
 2403SOL     ow 9609   5.541   2.909   0.766  0.3080 -0.0891  0.6749
 2403SOL     hw 9610   5.505   2.998   0.761 -0.3241 -0.2866  1.4543
 2403SOL     hw 9611   5.508   2.866   0.687 -1.1211 -0.2331  1.3140
 2403SOL     vw 9612   5.532   2.915   0.755  0.0360 -0.1342  0.8621
 2404SOL     ow 9613   2.842   3.073   4.448 -0.2182  0.3497 -0.5158
 2404SOL     hw 9614   2.748   3.077   4.430 -0.7221  0.4651  1.8023
 2404SOL     hw 9615   2.871   3.164   4.447 -0.7734  0.5973  1.5135
 2404SOL     vw 9616   2.833   3.085   4.445 -0.3579  0.3977  0.0575
 2405SOL     ow 9617   2.275   4.843   0.134 -0.5196 -0.6180  0.1675
 2405SOL     hw 9618   2.181   4.839   0.121 -0.5190  0.0996 -0.0957
 2405SOL     hw 9619   2.299   4.932   0.110  0.4072 -1.1524 -1.0434
 2405SOL     vw 9620   2.266   4.854   0.129 -0.3972 -0.5939 -0.0270
 2406SOL     ow 9621   4.933   4.235   0.716  0.2976  0.1370 -0.0549
 2406SOL     hw 9622   4.969   4.150   0.692  0.2509  0.5584 -1.6950
 2406SOL     hw 9623   4.869   4.254   0.648 -4.9664 -1.5844  3.7172
 2406SOL     vw 9624   4.930   4.226   0.704 -0.4034 -0.0343  0.2264
 2407SOL     ow 9625   4.225   2.918   3.812 -0.4003  0.1604  0.2251
 2407SOL     hw 9626   4.280   2.960   3.878 -0.3520 -1.3460  1.1954
 2407SOL     hw 9627   4.224   2.979   3.738  2.9281  0.0745 -0.0201
 2407SOL     vw 9628   4.232   2.932   3.811  0.0453 -0.0498  0.3208
 2408SOL     ow 9629   0.140   3.332   0.558  0.4762  0.4838  0.0188
 2408SOL     hw 9630   0.165   3.279   0.483  0.2477  1.0512 -0.4730
 2408SOL     hw 9631   0.158   3.277   0.634 -0.6619 -0.6688 -0.5090
 2408SOL     vw 9632   0.145   3.318   0.558  0.2959  0.4066 -0.1157
 2409SOL     ow 9633   6.247   3.453   4.146  0.0976  0.2444 -0.0074
 2409SOL     hw 9634   6.309   3.384   4.123  0.3151 -0.0751  1.4011
 2409SOL     hw 9635   6.262   3.522   4.082 -0.3349 -1.1180 -1.6349
 2409SOL     vw 9636   6.257   3.453   4.135  0.0694  0.0226 -0.0362
 2410SOL     ow 9637   2.750   6.728   3.625 -0.2952 -0.7183 -0.2372
 2410SOL     hw 9638   2.763   6.633   3.627 -1.0732 -0.8285  0.0448
 2410SOL     hw 9639   2.692   6.743   3.550 -1.2748 -0.6292  0.5138
 2410SOL     vw 9640   2.744   6.717   3.616 -0.5271 -0.7210 -0.1010
 2411SOL     ow 9641   6.779   4.773   7.187 -0.7789 -0.2155  0.5140
 2411SOL     hw 9642   6.756   4.865   7.169  1.6962  0.3534 -0.1178
 2411SOL     hw 9643   6.860   4.759   7.138 -0.6035 -2.4890  1.3575
 2411SOL     vw 9644   6.787   4.784   7.178 -0.4292 -0.4404  0.5422
 2412SOL     ow 9645   1.979   1.296   4.142 -0.2068  0.6927  0.2344
 2412SOL     hw 9646   1.979   1.346   4.223 -0.2480  0.7290  0.2118
 2412SOL     hw 9647   1.925   1.219   4.160 -1.5568  1.4978 -0.2549
 2412SOL     vw 9648   1.972   1.293   4.155 -0.3904  0.8036  0.1669
 2413SOL     ow 9649   5.331   3.104   1.263  0.0293  0.2153 -0.3198
 2413SOL     hw 9650   5.300   3.074   1.178 -0.0972  3.3299 -1.4983
 2413SOL     hw 9651   5.252   3.106   1.318 -0.1394 -0.4998 -0.5306
 2413SOL     vw 9652   5.317   3.100   1.259 -0.0095  0.5318 -0.5031
 2414SOL     ow 9653   4.583   6.534   3.653 -0.4300 -0.5120 -0.3386
 2414SOL     hw 9654   4.507   6.525   3.595 -1.7933 -0.2556  1.3208
 2414SOL     hw 9655   4.614   6.623   3.637  0.7647 -1.2442 -2.4133
 2414SOL     vw 9656   4.577   6.545   3.644 -0.4520 -0.5746 -0.3934
 2415SOL     ow 9657   6.542   2.782   2.660  0.3154  0.4386 -0.0974
 2415SOL     hw 9658   6.508   2.870   2.674  0.3798  0.3597  0.5900
 2415SOL     hw 9659   6.552   2.746   2.748  0.6460 -0.1196 -0.3581
 2415SOL     vw 9660   6.539   2.789   2.673  0.3674  0.3545 -0.0410
 2416SOL     ow 9661   3.373   0.127   4.003  0.1872 -0.0977 -0.1414
 2416SOL     hw 9662   3.365   0.071   4.080 -2.1739 -0.0878 -0.3084
 2416SOL     hw 9663   3.433   0.196   4.030 -1.0691  0.2693  1.9834
 2416SOL     vw 9664   3.380   0.129   4.017 -0.2900 -0.0480  0.1168
 2417SOL     ow 9665   1.436   3.027   3.934 -0.2632  0.0806 -0.2034
 2417SOL     hw 9666   1.420   3.115   3.901  0.3591  0.1142 -0.4220
 2417SOL     hw 9667   1.491   3.040   4.011 -0.5110 -0.0921  0.0058
 2417SOL     vw 9668   1.441   3.040   3.940 -0.2138  0.0623 -0.2047
 2418SOL     ow 9669   3.445   3.526   3.108  0.5516 -0.1279 -0.0057
 2418SOL     hw 9670   3.394   3.446   3.124 -0.6950  0.6362 -0.0471
 2418SOL     hw 9671   3.423   3.551   3.019 -0.2054  1.0430  0.4885
 2418SOL     vw 9672   3.435   3.519   3.099  0.2872  0.1274  0.0540
 2419SOL     ow 9673   0.791   3.312   4.623 -0.3821 -0.7240 -0.1810
 2419SOL     hw 9674   0.808   3.290   4.715  0.0786  0.0210 -0.0734
 2419SOL     hw 9675   0.867   3.365   4.597  0.1055 -1.9465 -1.3663
 2419SOL     vw 9676   0.803   3.316   4.632 -0.2570 -0.7870 -0.3233
 2420SOL     ow 9677   0.856   1.508   2.671  0.3561 -0.4331  0.2269
 2420SOL     hw 9678   0.838   1.585   2.617 -0.4949 -0.9804 -0.3022
 2420SOL     hw 9679   0.789   1.444   2.644 -0.0577 -0.7423  1.9058
 2420SOL     vw 9680   0.845   1.509   2.660  0.1892 -0.5461  0.3787
 2421SOL     ow 9681   3.216   1.124   5.426 -0.5485 -0.2515 -0.2557
 2421SOL     hw 9682   3.164   1.072   5.366  0.5580  1.6127 -3.0413
 2421SOL     hw 9683   3.170   1.207   5.434  0.5363  0.4020 -0.5057
 2421SOL     vw 9684   3.203   1.128   5.419 -0.2594  0.0807 -0.6566
 2422SOL     ow 9685   4.692   1.952   5.109  0.0806  0.1151  0.8315
 2422SOL     hw 9686   4.604   1.980   5.085  0.6344 -0.6142 -2.5725
 2422SOL     hw 9687   4.693   1.857   5.094  1.5980  0.2106  0.0783
 2422SOL     vw 9688   4.681   1.943   5.104  0.3538  0.0316  0.2828
 2423SOL     ow 9689   2.654   5.694   1.261 -0.5934 -0.0675  0.0069
 2423SOL     hw 9690   2.606   5.746   1.325  1.2727  0.6595  0.9080
 2423SOL     hw 9691   2.745   5.696   1.292 -0.1729 -2.4671 -0.8910
 2423SOL     vw 9692   2.660   5.701   1.273 -0.2918 -0.2882  0.0073
 2424SOL     ow 9693   2.528   1.422   2.072  0.6396 -0.1510  0.3272
 2424SOL     hw 9694   2.573   1.505   2.086 -0.6597  0.3309  2.0625
 2424SOL     hw 9695   2.465   1.440   2.002  1.1309 -0.0051 -0.0813
 2424SOL     vw 9696   2.526   1.435   2.065  0.5331 -0.0682  0.5023
 2425SOL     ow 9697   6.482   4.633   4.966 -0.0746  0.0424 -0.9556
 2425SOL     hw 9698   6.395   4.668   4.983  0.2073  0.8804 -1.1849
 2425SOL     hw 9699   6.467   4.543   4.937 -0.8992  0.3430 -1.4897
 2425SOL     vw 9700   6.469   4.625   4.965 -0.1462  0.1924 -1.0564
 2426SOL     ow 9701   3.537   2.069   6.076 -0.6641  0.0916  0.5671
 2426SOL     hw 9702   3.460   2.016   6.059  0.2124 -1.3250  0.8391
 2426SOL     hw 9703   3.594   2.013   6.130 -0.1764  1.7136  1.8536
 2426SOL     vw 9704   3.535   2.055   6.081 -0.4841  0.1187  0.7730
 2427SOL     ow 9705   4.544   1.774   6.767  0.5837  0.1909  0.0848
 2427SOL     hw 9706   4.609   1.720   6.721  0.5856 -0.8164  1.2072
 2427SOL     hw 9707   4.571   1.770   6.859 -0.5040  0.5739  0.4358
 2427SOL     vw 9708   4.556   1.766   6.773  0.4406  0.1085  0.2792
 2428SOL     ow 9709   6.011   5.493   7.055 -0.2510 -0.1716 -0.3510
 2428SOL     hw 9710   6.083   5.429   7.053  0.0119  0.1376 -1.8983
 2428SOL     hw 9711   5.932   5.439   7.053 -0.0325 -0.5055 -2.0019
 2428SOL     vw 9712   6.010   5.477   7.054 -0.1874 -0.1748 -0.7732
 2429SOL     ow 9713   5.276   0.294   1.552 -0.5035  0.2456 -0.3341
 2429SOL     hw 9714   5.249   0.375   1.593  0.9789  0.2088  0.8154
 2429SOL     hw 9715   5.348   0.319   1.493 -0.1787 -0.1972 -0.1324
 2429SOL     vw 9716   5.282   0.308   1.549 -0.2649  0.1823 -0.1557
 2430SOL     ow 9717   3.203   1.943   1.866 -0.4864  0.0286 -0.5438
 2430SOL     hw 9718   3.143   1.975   1.934 -0.4325  1.0392 -0.9557
 2430SOL     hw 9719   3.226   1.854   1.894 -0.9875  0.1875  0.4100
 2430SOL     vw 9720   3.198   1.935   1.879 -0.5453  0.1829 -0.4723
 2431SOL     ow 9721   1.757   2.084   6.581 -0.1984  0.0414  0.4228
 2431SOL     hw 9722   1.790   2.107   6.494 -1.1439  1.3469  0.3863
 2431SOL     hw 9723   1.816   2.130   6.642  0.9563 -1.5031  0.5469
 2431SOL     vw 9724   1.769   2.093   6.578 -0.1708  0.0099  0.4344
 2432SOL     ow 9725   3.115   3.891   1.996 -0.2043 -0.2885  0.1276
 2432SOL     hw 9726   3.036   3.852   2.034 -0.3339 -1.4775 -1.2493
 2432SOL     hw 9727   3.083   3.946   1.925 -0.1004  3.3030  2.6246
 2432SOL     vw 9728   3.100   3.893   1.991 -0.2075  0.0285  0.2753
 2433SOL     ow 9729   4.547   2.586   5.814 -0.0263  0.2011 -0.1224
 2433SOL     hw 9730   4.639   2.606   5.797 -0.4015  2.2063  0.0426
 2433SOL     hw 9731   4.504   2.591   5.729  0.3159 -2.9569 -0.6067
 2433SOL     vw 9732   4.553   2.589   5.801 -0.0308  0.0491 -0.1645
 2434SOL     ow 9733   6.241   6.854   5.423  0.0903 -0.1772 -0.2256
 2434SOL     hw 9734   6.189   6.854   5.503  1.6667 -0.4033  0.8397
 2434SOL     hw 9735   6.282   6.767   5.421  0.1688 -0.1259 -1.2108
 2434SOL     vw 9736   6.240   6.842   5.433  0.3088 -0.2000 -0.2153
 2435SOL     ow 9737   1.905   0.370   6.185 -0.2027 -0.0008 -0.1402
 2435SOL     hw 9738   1.988   0.341   6.223 -0.7775  0.2667  1.3771
 2435SOL     hw 9739   1.911   0.466   6.184 -0.3462  0.0060 -0.3634
 2435SOL     vw 9740   1.916   0.379   6.190 -0.2974  0.0354  0.0308
 2436SOL     ow 9741   5.370   2.202   3.294 -0.0461  0.2922  0.5327
 2436SOL     hw 9742   5.407   2.284   3.263 -0.6368  0.1662 -0.5519
 2436SOL     hw 9743   5.280   2.201   3.260  0.3141 -1.3400 -0.4902
 2436SOL     vw 9744   5.363   2.212   3.286 -0.0763  0.0602  0.2546
 2437SOL     ow 9745   1.326   5.047   1.351 -0.2402  0.6859  0.1849
 2437SOL     hw 9746   1.239   5.017   1.326  0.2342  0.3226 -1.1248
 2437SOL     hw 9747   1.350   4.992   1.425 -0.3593 -0.5791 -0.6777
 2437SOL     vw 9748   1.318   5.036   1.357 -0.1934  0.4709 -0.1017
 2438SOL     ow 9749   4.249   0.349   3.535  0.2444  0.0660  1.0863
 2438SOL     hw 9750   4.298   0.290   3.477  0.2070  0.3420  0.7649
 2438SOL     hw 9751   4.299   0.431   3.532 -0.3870  0.4442  0.5287
 2438SOL     vw 9752   4.262   0.352   3.527  0.1562  0.1523  0.9701
 2439SOL     ow 9753   2.111   7.190   5.006  0.4654 -0.6292 -0.2185
 2439SOL     hw 9754   2.176   7.183   5.075  1.2928 -1.8909 -1.0868
 2439SOL     hw 9755   2.156   7.159   4.927 -1.1244 -1.3464 -0.8852
 2439SOL     vw 9756   2.126   7.185   5.004  0.3650 -0.8903 -0.4210
 2440SOL     ow 9757   0.177   3.976   5.320 -0.0557  0.5752 -0.5029
 2440SOL     hw 9758   0.180   4.069   5.345  0.6029 -0.0365  1.9901
 2440SOL     hw 9759   0.259   3.961   5.273  1.0715  0.7322  1.3310
 2440SOL     vw 9760   0.188   3.986   5.317  0.1799  0.5153  0.0679
 2441SOL     ow 9761   1.518   7.108   4.293  0.0986  0.4470 -0.4065
 2441SOL     hw 9762   1.543   7.171   4.225  1.0299  0.5900  0.0476
 2441SOL     hw 9763   1.582   7.037   4.284 -0.2895  0.0706 -0.2219
 2441SOL     vw 9764   1.530   7.107   4.283  0.1704  0.4163 -0.3221
 2442SOL     ow 9765   4.338   5.943   0.903 -0.3354 -0.0157  0.3019
 2442SOL     hw 9766   4.378   5.974   0.822 -0.4862  3.2345  1.3105
 2442SOL     hw 9767   4.247   5.926   0.880 -0.0946 -0.3575 -0.4449
 2442SOL     vw 9768   4.332   5.945   0.889 -0.3233  0.3679  0.3364
 2443SOL     ow 9769   6.053   3.033   4.868 -0.3469  1.0270  0.6096
 2443SOL     hw 9770   6.089   2.948   4.894 -2.3485  0.3282  1.3482
 2443SOL     hw 9771   6.121   3.073   4.814 -0.1698 -2.0126 -1.6800
 2443SOL     vw 9772   6.067   3.027   4.864 -0.5877  0.5337  0.4048
 2444SOL     ow 9773   1.981   2.056   0.114  0.1383 -0.2907 -0.2569
 2444SOL     hw 9774   2.018   2.044   0.026  0.8308 -0.1757  0.0100
 2444SOL     hw 9775   1.963   1.968   0.144 -0.2559 -0.3222 -0.5784
 2444SOL     vw 9776   1.984   2.043   0.106  0.1776 -0.2795 -0.2641
 2445SOL     ow 9777   4.558   0.110   1.309  0.8327  0.0230 -0.2422
 2445SOL     hw 9778   4.481   0.157   1.341 -0.5933 -1.0518 -1.9250
 2445SOL     hw 9779   4.625   0.128   1.375 -0.7405  1.2455  1.1398
 2445SOL     vw 9780   4.557   0.119   1.322  0.4370  0.0425 -0.2818
 2446SOL     ow 9781   6.240   2.042   6.305 -0.6854 -0.1384  0.2605
 2446SOL     hw 9782   6.283   2.047   6.219  0.4058 -0.9110  0.7323
 2446SOL     hw 9783   6.147   2.055   6.286 -0.3547  0.7519 -0.9088
 2446SOL     vw 9784   6.234   2.044   6.291 -0.4978 -0.1230  0.1683
 2447SOL     ow 9785   0.508   3.256   4.416 -0.0631  0.2985 -0.1647
 2447SOL     hw 9786   0.559   3.308   4.355  0.2875  0.2816  0.1144
 2447SOL     hw 9787   0.497   3.312   4.493 -0.8351  0.4705 -0.3856
 2447SOL     vw 9788   0.513   3.270   4.418 -0.1188  0.3190 -0.1569
 2448SOL     ow 9789   2.623   6.547   6.762 -0.2611  0.2269 -0.6262
 2448SOL     hw 9790   2.692   6.546   6.696 -1.3762  3.0938 -2.0015
 2448SOL     hw 9791   2.542   6.535   6.712 -0.9466 -1.1132  0.7095
 2448SOL     vw 9792   2.621   6.545   6.747 -0.4987  0.4284 -0.6313
 2449SOL     ow 9793   2.524   0.097   3.965 -0.2465  0.2031  0.2086
 2449SOL     hw 9794   2.466   0.023   3.949 -1.6615  0.8528  1.9754
 2449SOL     hw 9795   2.491   0.166   3.906 -0.6768  0.2670  0.5171
 2449SOL     vw 9796   2.512   0.097   3.955 -0.4900  0.2973  0.4824
 2450SOL     ow 9797   6.572   5.343   2.470 -1.0558 -0.7482 -0.0502
 2450SOL     hw 9798   6.578   5.415   2.532  2.2609  0.5233 -1.6146
 2450SOL     hw 9799   6.556   5.266   2.525  0.6952  0.4433  2.3158
 2450SOL     vw 9800   6.571   5.342   2.486 -0.3870 -0.4230  0.0557
 2451SOL     ow 9801   2.059   2.296   0.236  0.2002 -0.1302  0.1372
 2451SOL     hw 9802   2.015   2.245   0.168  0.5486 -0.0543 -0.1511
 2451SOL     hw 9803   2.058   2.385   0.203  1.7212 -0.3188 -0.5036
 2451SOL     vw 9804   2.053   2.301   0.223  0.4468 -0.1451  0.0146
 2452SOL     ow 9805   1.053   3.586   6.698 -0.5207  0.3296  0.0148
 2452SOL     hw 9806   1.115   3.533   6.648 -1.1304 -0.7370  0.3622
 2452SOL     hw 9807   1.039   3.664   6.645 -0.6313 -0.4692 -1.1455
 2452SOL     vw 9808   1.059   3.589   6.685 -0.6158  0.0834 -0.0920
 2453SOL     ow 9809   5.997   7.154   0.505 -0.0856  0.0401  0.2183
 2453SOL     hw 9810   6.032   7.120   0.422  0.0631 -0.8763  0.6439
 2453SOL     hw 9811   5.930   7.217   0.479  0.8540  0.7273 -0.6041
 2453SOL     vw 9812   5.993   7.158   0.491  0.0579  0.0098  0.1660
 2454SOL     ow 9813   2.477   1.380   6.136 -0.2997 -0.0380  0.1842
 2454SOL     hw 9814   2.464   1.406   6.227 -0.3351  0.7170 -0.0274
 2454SOL     hw 9815   2.445   1.290   6.132  0.3122 -0.3139  1.0625
 2454SOL     vw 9816   2.471   1.372   6.147 -0.2236  0.0253  0.2720
 2455SOL     ow 9817   6.703   4.697   6.711  0.4226  0.0994  0.5365
 2455SOL     hw 9818   6.642   4.724   6.642 -0.4946  0.3685  1.4139
 2455SOL     hw 9819   6.769   4.645   6.666 -1.0962 -1.2221 -0.2943
 2455SOL     vw 9820   6.704   4.694   6.696  0.1013 -0.0393  0.5426
 2456SOL     ow 9821   4.137   4.831   0.235  0.0546 -0.6179  0.0311
 2456SOL     hw 9822   4.059   4.851   0.287 -1.1418 -0.2070 -1.8391
 2456SOL     hw 9823   4.189   4.911   0.237 -0.0913 -0.5316  0.4109
 2456SOL     vw 9824   4.133   4.844   0.242 -0.1225 -0.5527 -0.1655
 2457SOL     ow 9825   0.197   1.425   6.679  0.0316  0.0623 -0.2640
 2457SOL     hw 9826   0.129   1.485   6.710 -0.5379 -0.7488  0.0868
 2457SOL     hw 9827   0.171   1.404   6.589  0.7877  1.1208 -0.7513
 2457SOL     vw 9828   0.185   1.430   6.671  0.0562  0.0950 -0.2820
 2458SOL     ow 9829   0.931   5.225   5.251  0.2619 -0.1409 -0.3678
 2458SOL     hw 9830   0.909   5.272   5.332  1.3786  1.0569 -0.7211
 2458SOL     hw 9831   1.026   5.235   5.243  0.3573 -1.3987 -1.1485
 2458SOL     vw 9832   0.941   5.232   5.261  0.4218 -0.1490 -0.5178
 2459SOL     ow 9833   0.515   3.406   6.091  0.1120 -0.3795  0.4891
 2459SOL     hw 9834   0.420   3.413   6.096  0.0692 -0.2004 -0.3955
 2459SOL     hw 9835   0.545   3.496   6.079  0.5967 -0.0981  3.2382
 2459SOL     vw 9836   0.506   3.418   6.090  0.1703 -0.3188  0.7350
 2460SOL     ow 9837   0.305   2.568   1.761 -0.3603 -0.4687 -0.2038
 2460SOL     hw 9838   0.281   2.569   1.668  1.6427 -1.0752 -0.7755
 2460SOL     hw 9839   0.315   2.475   1.782  3.2320 -0.3219 -0.5968
 2460SOL     vw 9840   0.303   2.556   1.751  0.3780 -0.5294 -0.3311
 2461SOL     ow 9841   4.207   3.937   6.004 -0.3736 -0.8490 -0.5269
 2461SOL     hw 9842   4.121   3.978   6.006  0.0477  0.1054 -1.1362
 2461SOL     hw 9843   4.193   3.849   6.038 -1.2091 -0.0438  1.2889
 2461SOL     vw 9844   4.194   3.931   6.008 -0.4282 -0.6169 -0.3679
 2462SOL     ow 9845   1.600   7.248   4.585  0.0513 -0.2101  0.4299
 2462SOL     hw 9846   1.548   7.317   4.623  1.5355 -0.5812  3.4096
 2462SOL     hw 9847   1.667   7.293   4.533 -0.3362  0.4690  0.5223
 2462SOL     vw 9848   1.602   7.263   4.583  0.1960 -0.1693  0.8352
 2463SOL     ow 9849   3.879   6.652   5.406 -0.0237 -0.8082 -0.5996
 2463SOL     hw 9850   3.918   6.566   5.392  2.7388  0.4990 -1.5838
 2463SOL     hw 9851   3.868   6.658   5.501  0.8335 -1.7982 -0.4193
 2463SOL     vw 9852   3.882   6.641   5.417  0.4539 -0.7663 -0.7057
 2464SOL     ow 9853   4.875   6.429   3.462 -0.4343 -0.2444 -0.1526
 2464SOL     hw 9854   4.797   6.375   3.469 -0.7469  0.0113 -1.3907
 2464SOL     hw 9855   4.880   6.474   3.546 -1.1349 -0.9041  0.2583
 2464SOL     vw 9856   4.865   6.428   3.474 -0.5679 -0.2978 -0.2618
 2465SOL     ow 9857   1.619   4.532   4.215  0.2329 -0.0384 -0.5928
 2465SOL     hw 9858   1.611   4.625   4.197 -1.6650  0.2634  1.4103
 2465SOL     hw 9859   1.560   4.490   4.152  0.1449  0.2312 -0.6899
 2465SOL     vw 9860   1.610   4.539   4.204 -0.0291  0.0370 -0.3414
 2466SOL     ow 9861   3.560   3.435   0.226 -0.3245  0.6106  0.4483
 2466SOL     hw 9862   3.532   3.439   0.317 -1.7863 -1.4177  0.1689
 2466SOL     hw 9863   3.500   3.493   0.180 -0.8282  0.1723  0.5419
 2466SOL     vw 9864   3.548   3.443   0.232 -0.5838  0.2851  0.4238
 2467SOL     ow 9865   7.277   2.896   0.572 -0.0146 -0.7978  0.3754
 2467SOL     hw 9866   7.244   2.806   0.563 -1.5913 -0.4969  2.3788
 2467SOL     hw 9867   7.351   2.901   0.511  0.2643 -3.5052  0.3848
 2467SOL     vw 9868   7.282   2.885   0.563 -0.1860 -1.1154  0.6410
 2468SOL     ow 9869   1.544   5.745   4.182  0.4250 -0.0596  0.1597
 2468SOL     hw 9870   1.530   5.839   4.190  1.1823  0.0112  0.7882
 2468SOL     hw 9871   1.544   5.713   4.273  0.2025 -0.6556 -0.0477
 2468SOL     vw 9872   1.542   5.753   4.195  0.4956 -0.1290  0.2153
 2469SOL     ow 9873   0.727   3.998   3.266 -0.4662 -0.2268  0.0798
 2469SOL     hw 9874   0.695   4.041   3.187  3.0161  1.1799 -0.7721
 2469SOL     hw 9875   0.744   3.908   3.239  2.4236  0.6615 -1.5013
 2469SOL     vw 9876   0.725   3.992   3.252  0.3745  0.0759 -0.2413
 2470SOL     ow 9877   3.646   1.937   5.766 -0.0973  0.9240 -0.4654
 2470SOL     hw 9878   3.574   1.939   5.703 -1.3049 -3.4629  0.4256
 2470SOL     hw 9879   3.622   2.002   5.832 -2.7882  0.3224 -0.7386
 2470SOL     vw 9880   3.633   1.946   5.766 -0.6117  0.2658 -0.3841
 2471SOL     ow 9881   4.569   3.777   1.974  0.7886 -0.0703  0.2259
 2471SOL     hw 9882   4.628   3.702   1.987 -3.1395 -3.8887 -1.4864
 2471SOL     hw 9883   4.492   3.756   2.026 -0.3750  3.1762  0.0637
 2471SOL     vw 9884   4.567   3.764   1.983  0.1168 -0.1458 -0.0215
 2472SOL     ow 9885   4.058   4.028   6.627 -0.3133  0.1413 -0.6064
 2472SOL     hw 9886   3.998   3.974   6.678 -0.8483  0.5784 -0.7572
 2472SOL     hw 9887   4.136   3.974   6.615 -1.0738 -0.8389 -1.2950
 2472SOL     vw 9888   4.061   4.014   6.632 -0.4840  0.0696 -0.7172
 2473SOL     ow 9889   6.006   5.242   6.872  0.0335  0.2737 -0.0441
 2473SOL     hw 9890   6.055   5.266   6.950  0.1818 -0.5773  0.1373
 2473SOL     hw 9891   6.058   5.174   6.831 -0.6226 -0.1153 -0.2491
 2473SOL     vw 9892   6.019   5.236   6.877 -0.0334  0.1101 -0.0472
 2474SOL     ow 9893   6.114   1.440   3.355 -0.5443 -0.5067  0.4230
 2474SOL     hw 9894   6.163   1.485   3.424  0.4548 -0.7259 -0.1199
 2474SOL     hw 9895   6.082   1.360   3.398 -0.2342 -0.4694  0.7301
 2474SOL     vw 9896   6.116   1.435   3.370 -0.3715 -0.5307  0.3918
 2475SOL     ow 9897   5.976   0.980   3.395 -0.5524 -0.9795 -0.1549
 2475SOL     hw 9898   5.891   0.944   3.418 -2.2004  2.5129 -0.1766
 2475SOL     hw 9899   5.964   1.074   3.398  2.9531 -0.3241 -1.6319
 2475SOL     vw 9900   5.963   0.987   3.398 -0.3073 -0.4323 -0.3526
 2476SOL     ow 9901   1.375   1.767   6.295  0.0918 -0.0083 -0.3092
 2476SOL     hw 9902   1.460   1.809   6.284  0.9692 -1.9214 -1.4632
 2476SOL     hw 9903   1.348   1.745   6.206 -1.0569 -0.4828  0.1355
 2476SOL     vw 9904   1.383   1.769   6.282  0.0559 -0.3234 -0.4029
 2477SOL     ow 9905   0.512   1.928   0.776 -0.1039 -0.0248  0.4355
 2477SOL     hw 9906   0.581   1.984   0.811  0.0173  0.1211 -0.0225
 2477SOL     hw 9907   0.553   1.885   0.701 -0.7701  0.7340 -0.3827
 2477SOL     vw 9908   0.527   1.930   0.771 -0.1758  0.0945  0.2671
 2478SOL     ow 9909   7.269   3.456   4.572  1.0982 -0.4143 -0.0366
 2478SOL     hw 9910   7.302   3.525   4.515  2.5479  0.1325  1.3701
 2478SOL     hw 9911   7.179   3.482   4.591  1.6917  1.3061  0.6923
 2478SOL     vw 9912   7.261   3.469   4.567  1.3676 -0.1153  0.2453
 2479SOL     ow 9913   3.917   0.885   5.475 -0.6917  0.0181  0.7598
 2479SOL     hw 9914   3.849   0.909   5.413  0.0670 -0.4511 -0.2712
 2479SOL     hw 9915   3.872   0.884   5.560 -1.3659  2.3239  0.4919
 2479SOL     vw 9916   3.902   0.888   5.478 -0.6806  0.2604  0.5887
 2480SOL     ow 9917   2.774   1.703   1.625  0.2387  0.1353 -0.1377
 2480SOL     hw 9918   2.740   1.765   1.690 -0.7226 -0.2825 -0.2241
 2480SOL     hw 9919   2.707   1.635   1.620  0.8609 -0.4416 -0.7080
 2480SOL     vw 9920   2.760   1.702   1.633  0.1938  0.0040 -0.2244
 2481SOL     ow 9921   0.956   1.506   0.900 -0.1029 -0.5112 -0.1585
 2481SOL     hw 9922   0.939   1.421   0.939 -0.1647 -0.1117  0.7064
 2481SOL     hw 9923   0.869   1.541   0.881 -0.2183  0.3791  1.7583
 2481SOL     vw 9924   0.942   1.500   0.903 -0.1263 -0.3411  0.2085
 2482SOL     ow 9925   5.551   1.629   7.225  0.6259 -0.2645  0.3059
 2482SOL     hw 9926   5.540   1.653   7.133  2.1711 -3.8613 -1.0266
 2482SOL     hw 9927   5.467   1.648   7.265 -0.3332  0.8063 -2.0201
 2482SOL     vw 9928   5.539   1.634   7.218  0.7036 -0.5978 -0.1769
 2483SOL     ow 9929   4.661   4.733   4.935  0.0519 -0.3385 -0.2492
 2483SOL     hw 9930   4.612   4.696   4.861 -1.3017  0.0169  0.4292
 2483SOL     hw 9931   4.628   4.822   4.942 -1.0665 -0.8589  1.7804
 2483SOL     vw 9932   4.650   4.740   4.926 -0.2744 -0.3603  0.1078
 2484SOL     ow 9933   0.644   0.979   6.337 -0.6761 -0.1044  0.5979
 2484SOL     hw 9934   0.650   1.073   6.353 -4.7395  0.4386  0.0389
 2484SOL     hw 9935   0.551   0.959   6.346  0.0194 -4.1212  0.6759
 2484SOL     vw 9936   0.633   0.989   6.340 -1.1204 -0.5627  0.5345
 2485SOL     ow 9937   0.837   2.317   1.361  0.7074 -0.5051 -0.3555
 2485SOL     hw 9938   0.924   2.294   1.326  1.4109  0.3706  0.7595
 2485SOL     hw 9939   0.843   2.410   1.381 -0.8902 -0.1492 -1.3401
 2485SOL     vw 9940   0.849   2.326   1.359  0.5894 -0.3427 -0.3383
 2486SOL     ow 9941   2.166   1.992   0.424  0.0957  0.0361 -0.8958
 2486SOL     hw 9942   2.243   1.934   0.421  0.2000  0.2093 -1.6346
 2486SOL     hw 9943   2.092   1.933   0.439  0.2168 -0.2709 -1.5115
 2486SOL     vw 9944   2.167   1.976   0.426  0.1254  0.0185 -1.0745
 2487SOL     ow 9945   6.265   0.775   4.695 -0.1623 -0.2333 -1.0180
 2487SOL     hw 9946   6.278   0.771   4.600  0.3412 -0.9434 -0.9283
 2487SOL     hw 9947   6.170   0.776   4.707 -0.2287 -0.1650 -1.5245
 2487SOL     vw 9948   6.254   0.775   4.684 -0.1047 -0.3180 -1.0729
 2488SOL     ow 9949   0.643   2.310   5.920 -0.2282 -0.3607 -0.6961
 2488SOL     hw 9950   0.734   2.333   5.937 -0.1974 -0.6450 -0.4705
 2488SOL     hw 9951   0.643   2.214   5.916 -0.6485 -0.4053  0.0942
 2488SOL     vw 9952   0.655   2.300   5.922 -0.2796 -0.4040 -0.5620
 2489SOL     ow 9953   4.469   2.070   6.851  0.1803  0.0894  0.4211
 2489SOL     hw 9954   4.430   2.157   6.841 -0.2825  0.0490  1.6182
 2489SOL     hw 9955   4.450   2.046   6.942  1.1264 -0.8645  0.3900
 2489SOL     vw 9956   4.461   2.078   6.862  0.2441 -0.0417  0.5751
 2490SOL     ow 9957   4.231   3.214   5.041  0.2142  0.7350  0.5345
 2490SOL     hw 9958   4.181   3.247   4.966  0.8725 -1.5007 -0.9875
 2490SOL     hw 9959   4.257   3.293   5.089 -1.6570  2.1460 -0.6317
 2490SOL     vw 9960   4.228   3.229   5.038  0.0544  0.6262  0.1798
 2491SOL     ow 9961   1.425   5.012   5.616  0.1391  0.4137 -0.1530
 2491SOL     hw 9962   1.452   4.954   5.687  0.0892  0.4864 -0.0761
 2491SOL     hw 9963   1.455   5.099   5.642 -2.4267  0.9983  1.2030
 2491SOL     vw 9964   1.433   5.015   5.629 -0.2061  0.5007  0.0360
 2492SOL     ow 9965   5.302   5.438   1.399  0.5294 -0.3344  0.3132
 2492SOL     hw 9966   5.219   5.464   1.360 -0.6327 -1.4772  1.9085
 2492SOL     hw 9967   5.330   5.363   1.347  0.6163  0.0804 -0.2556
 2492SOL     vw 9968   5.295   5.432   1.387  0.3874 -0.4301  0.4486
 2493SOL     ow 9969   0.034   6.679   1.667  0.0465  0.0640 -0.4216
 2493SOL     hw 9970   0.060   6.678   1.575 -0.2533 -2.1346 -0.5388
 2493SOL     hw 9971   0.116   6.682   1.716  0.2743 -0.2125 -0.7807
 2493SOL     vw 9972   0.048   6.679   1.662  0.0370 -0.2625 -0.4845
 2494SOL     ow 9973   6.612   4.883   4.908  0.4125 -0.0124  0.3220
 2494SOL     hw 9974   6.522   4.907   4.931  0.7368  1.6609 -0.0502
 2494SOL     hw 9975   6.656   4.966   4.891  2.5621 -0.6426  2.2556
 2494SOL     vw 9976   6.606   4.897   4.909  0.7389  0.1254  0.5281
 2495SOL     ow 9977   1.035   0.135   2.155 -0.1973 -0.0630  0.0975
 2495SOL     hw 9978   0.998   0.070   2.214  1.3089 -0.4661  0.6422
 2495SOL     hw 9979   1.063   0.206   2.212  0.3379 -0.0086 -0.2250
 2495SOL     vw 9980   1.034   0.136   2.170  0.0721 -0.1090  0.1268
 2496SOL     ow 9981   5.891   4.637   4.616 -0.3135 -0.2415  0.5862
 2496SOL     hw 9982   5.940   4.567   4.658  0.2553 -1.0478 -1.3241
 2496SOL     hw 9983   5.807   4.639   4.662 -0.2928 -2.0956  0.7590
 2496SOL     vw 9984   5.887   4.628   4.628 -0.2356 -0.5927  0.3567
 2497SOL     ow 9985   6.839   4.804   5.622  0.6406  0.3152  0.4074
 2497SOL     hw 9986   6.897   4.728   5.634  1.1148  0.5830 -0.1785
 2497SOL     hw 9987   6.893   4.879   5.644  0.0595  0.4766  1.3584
 2497SOL     vw 9988   6.854   4.804   5.627  0.6268  0.3717  0.4556
 2498SOL     ow 9989   2.807   1.262   1.781  0.0981 -0.2721  0.3078
 2498SOL     hw 9990   2.763   1.245   1.864 -0.4320 -0.7414 -0.0645
 2498SOL     hw 9991   2.893   1.222   1.790 -0.9305 -2.8578 -0.3645
 2498SOL     vw 9992   2.813   1.255   1.793 -0.1074 -0.6751  0.1698
 2499SOL     ow 9993   6.464   6.498   1.312 -0.7634 -0.5507  0.5080
 2499SOL     hw 9994   6.416   6.541   1.241 -0.8589 -0.6297  0.5230
 2499SOL     hw 9995   6.423   6.531   1.392 -0.8819 -0.7175  0.5182
 2499SOL     vw 9996   6.452   6.508   1.313 -0.7915 -0.5832  0.5113
 2500SOL     ow 9997   2.380   1.860   0.423  0.1162 -0.3064  0.0993
 2500SOL     hw 9998   2.412   1.835   0.336 -2.4709  0.2643 -1.1183
 2500SOL     hw 9999   2.458   1.892   0.469  2.2881 -3.9038 -0.6460
 2500SOL     vw10000   2.395   1.861   0.418  0.0615 -0.7057 -0.1597
 2501SOL     ow10001   3.110   5.916   1.348  0.1872 -0.1978 -0.3679
 2501SOL     hw10002   3.192   5.896   1.393  0.5570  1.7179 -0.0808
 2501SOL     hw10003   3.112   5.862   1.269  1.1812 -1.0184  0.1949
 2501SOL     vw10004   3.121   5.906   1.343  0.3670 -0.0534 -0.2558
 2502SOL     ow10005   0.781   6.882   0.841 -0.3718  0.1951  0.6910
 2502SOL     hw10006   0.727   6.872   0.762 -3.1305  1.0800  2.3294
 2502SOL     hw10007   0.767   6.974   0.866 -0.7010 -0.4305  2.9445
 2502SOL     vw10008   0.772   6.893   0.834 -0.7792  0.2294  1.2045
 2503SOL     ow10009   5.071   5.015   6.798 -0.2764  0.3167 -0.6165
 2503SOL     hw10010   5.081   5.082   6.866  0.5422  0.4001 -0.8084
 2503SOL     hw10011   5.100   4.934   6.840  0.5050  0.4205 -0.9494
 2503SOL     vw10012   5.076   5.013   6.813 -0.0653  0.3414 -0.6857
 2504SOL     ow10013   3.897   0.585   3.477 -0.0488  0.3037 -0.3015
 2504SOL     hw10014   3.874   0.577   3.385 -0.0801  0.3020 -0.2933
 2504SOL     hw10015   3.986   0.622   3.476  1.4578 -2.9675 -0.4348
 2504SOL     vw10016   3.906   0.589   3.465  0.1458 -0.1281 -0.3179
 2505SOL     ow10017   6.586   0.266   1.420 -0.1235  0.5034  0.1742
 2505SOL     hw10018   6.574   0.223   1.335  1.6995 -1.5772  0.8942
 2505SOL     hw10019   6.515   0.330   1.424 -1.4234 -0.6620 -2.0892
 2505SOL     vw10020   6.575   0.269   1.409 -0.0546  0.0751 -0.0294
 2506SOL     ow10021   0.164   7.267   5.677  0.1882  0.2433 -0.1995
 2506SOL     hw10022   0.114   7.214   5.739 -0.0372  0.2109 -0.4045
 2506SOL     hw10023   0.254   7.239   5.689  0.0594 -0.2590 -0.3695
 2506SOL     vw10024   0.169   7.256   5.687  0.1415  0.1729 -0.2491
 2507SOL     ow10025   6.147   5.047   7.026 -0.2373 -0.3067 -0.6452
 2507SOL     hw10026   6.112   5.022   7.111 -1.3089  0.4565 -0.8378
 2507SOL     hw10027   6.109   4.985   6.964 -2.4075  1.2888 -1.0373
 2507SOL     vw10028   6.137   5.036   7.029 -0.6649  0.0043 -0.7222
 2508SOL     ow10029   6.452   3.443   4.616  0.0040  0.1535  0.8487
 2508SOL     hw10030   6.412   3.529   4.608  0.4385  0.4273  1.5603
 2508SOL     hw10031   6.546   3.461   4.629  0.1755 -0.4397  0.4590
 2508SOL     vw10032   6.459   3.457   4.617  0.0839  0.1113  0.8910
 2509SOL     ow10033   1.706   6.186   4.582  0.1576 -0.4397 -0.4729
 2509SOL     hw10034   1.706   6.100   4.624  1.4796 -0.3886 -0.3121
 2509SOL     hw10035   1.794   6.193   4.544  0.7539  1.5840  1.1258
 2509SOL     vw10036   1.718   6.175   4.583  0.4107 -0.1657 -0.2406
 2510SOL     ow10037   1.292   4.058   5.640 -0.1223  0.0122 -0.0908
 2510SOL     hw10038   1.210   4.105   5.630  1.5589  3.2511 -0.0773
 2510SOL     hw10039   1.351   4.121   5.681  1.6960 -3.0072  2.4630
 2510SOL     vw10040   1.289   4.072   5.644  0.3394  0.0412  0.2477
 2511SOL     ow10041   2.678   1.749   7.127  0.8220  0.0304  0.9458
 2511SOL     hw10042   2.752   1.807   7.141  3.6524 -2.0546 -3.4547
 2511SOL     hw10043   2.636   1.781   7.047 -0.1741 -1.4982  0.8154
 2511SOL     vw10044   2.682   1.761   7.119  1.0639 -0.4464  0.3479
 2512SOL     ow10045   1.899   5.079   6.354 -0.6362 -0.3392  0.0404
 2512SOL     hw10046   1.837   5.042   6.292  2.0081 -2.2145 -1.6945
 2512SOL     hw10047   1.949   5.004   6.387  1.8321  1.1440  0.0006
 2512SOL     vw10048   1.898   5.064   6.351  0.0383 -0.3910 -0.1936
 2513SOL     ow10049   7.268   6.420   7.039  0.6147  0.1452 -0.0793
 2513SOL     hw10050   7.359   6.415   7.068  0.7806  1.0779 -0.4136
 2513SOL     hw10051   7.270   6.474   6.961 -0.3340  0.8493  0.3622
 2513SOL     vw10052   7.280   6.426   7.033  0.5114  0.3610 -0.0653
 2514SOL     ow10053   6.260   3.331   4.426  0.4136  0.6059  0.1500
 2514SOL     hw10054   6.268   3.252   4.372 -0.4788  1.1237 -0.7818
 2514SOL     hw10055   6.349   3.351   4.453  0.9245  0.4285 -1.3075
 2514SOL     vw10056   6.273   3.323   4.422  0.3633  0.6508 -0.1650
 2515SOL     ow10057   6.958   5.084   1.606 -0.6105 -0.2856 -0.1118
 2515SOL     hw10058   6.870   5.112   1.584 -0.0332  1.1812 -0.7030
 2515SOL     hw10059   6.973   5.116   1.694 -1.1394 -1.7812  0.5598
 2515SOL     vw10060   6.949   5.092   1.614 -0.6039 -0.2892 -0.1011
 2516SOL     ow10061   4.708   0.117   1.529 -0.1003 -0.2749  0.1740
 2516SOL     hw10062   4.766   0.046   1.501  0.0623 -0.1951  0.3086
 2516SOL     hw10063   4.675   0.088   1.614  3.8448  1.9513  2.8006
 2516SOL     vw10064   4.711   0.103   1.537  0.4416  0.0294  0.5383
 2517SOL     ow10065   5.047   6.620   4.794  0.3499  0.0354 -0.1838
 2517SOL     hw10066   4.962   6.641   4.832  0.6266 -0.0749  0.5195
 2517SOL     hw10067   5.030   6.547   4.735 -0.2954  0.9866 -1.2134
 2517SOL     vw10068   5.034   6.613   4.791  0.3014  0.1464 -0.2265
 2518SOL     ow10069   5.843   5.386   3.762  0.0618 -0.2726 -0.0152
 2518SOL     hw10070   5.817   5.295   3.745 -1.8647 -0.0525  1.4826
 2518SOL     hw10071   5.765   5.427   3.796  1.6673  1.2239  2.0692
 2518SOL     vw10072   5.829   5.379   3.764  0.0193 -0.0460  0.4574
 2519SOL     ow10073   3.199   0.481   2.448 -0.0720  0.6800 -0.6821
 2519SOL     hw10074   3.127   0.545   2.452  0.2850  1.0746 -0.4842
 2519SOL     hw10075   3.239   0.496   2.362 -2.7563 -2.3405 -2.6509
 2519SOL     vw10076   3.195   0.492   2.437 -0.3791  0.3335 -0.9156
 2520SOL     ow10077   0.528   4.284   5.938  0.0827  0.0643  0.3168
 2520SOL     hw10078   0.609   4.297   5.888 -1.0872  0.1351 -1.6865
 2520SOL     hw10079   0.549   4.215   6.000  1.0560 -1.6629 -1.7934
 2520SOL     vw10080   0.542   4.277   5.939  0.0567 -0.1540 -0.2258
 2521SOL     ow10081   1.714   0.375   6.696 -0.1175  0.5737  0.3361
 2521SOL     hw10082   1.776   0.448   6.688  0.3303  0.1985  0.3059
 2521SOL     hw10083   1.636   0.404   6.650 -0.6889  1.8272  2.0179
 2521SOL     vw10084   1.712   0.388   6.689 -0.1338  0.6896  0.5543
 2522SOL     ow10085   6.149   1.425   3.025  0.5910 -0.1428  0.2050
 2522SOL     hw10086   6.148   1.458   2.935 -1.1569  2.1659  0.9714
 2522SOL     hw10087   6.115   1.335   3.018  2.8581 -0.9450 -1.6520
 2522SOL     vw10088   6.144   1.417   3.012  0.6595  0.0560  0.0610
 2523SOL     ow10089   0.982   5.695   5.071  0.0622 -0.1448  0.3497
 2523SOL     hw10090   0.975   5.736   4.985  2.3036  0.6713  0.4769
 2523SOL     hw10091   0.926   5.618   5.066  1.8317 -1.3867 -2.6535
 2523SOL     vw10092   0.974   5.691   5.059  0.5914 -0.2007 -0.0298
 2524SOL     ow10093   2.635   4.720   1.684 -0.1114  0.3661 -0.3578
 2524SOL     hw10094   2.664   4.766   1.763  2.0641 -0.0069 -0.8716
 2524SOL     hw10095   2.569   4.658   1.716  0.1895  0.7296  1.0625
 2524SOL     vw10096   2.630   4.718   1.699  0.2153  0.3650 -0.2381
 2525SOL     ow10097   5.109   5.357   6.427 -0.2438 -0.1026 -0.3305
 2525SOL     hw10098   5.138   5.422   6.363 -0.6514 -0.2900 -0.7135
 2525SOL     hw10099   5.014   5.362   6.426 -0.2620 -0.3187  0.0426
 2525SOL     vw10100   5.100   5.366   6.418 -0.3002 -0.1559 -0.3321
 2526SOL     ow10101   5.156   3.557   5.673  0.1765 -0.1182  0.4583
 2526SOL     hw10102   5.139   3.583   5.763 -2.0121 -1.7550  0.6092
 2526SOL     hw10103   5.217   3.623   5.639 -0.3532  1.5514  2.5693
 2526SOL     vw10104   5.161   3.569   5.680 -0.1822 -0.1140  0.7567
 2527SOL     ow10105   1.506   7.338   1.983 -1.0223  0.1740 -0.0452
 2527SOL     hw10106   1.416   7.365   2.001 -2.2004 -3.2093 -0.1292
 2527SOL     hw10107   1.497   7.274   1.912  0.8576 -3.3117  2.5918
 2527SOL     vw10108   1.493   7.333   1.976 -0.9297 -0.7322  0.2916
 2528SOL     ow10109   2.650   1.786   1.127  0.1348  0.0582 -0.0719
 2528SOL     hw10110   2.709   1.861   1.140  0.6477 -0.5506  1.2880
 2528SOL     hw10111   2.660   1.765   1.034  3.1081 -0.8295  0.3396
 2528SOL     vw10112   2.659   1.793   1.116  0.5947 -0.1392  0.1618
 2529SOL     ow10113   5.584   2.844   2.091 -0.5598 -0.1680  0.2002
 2529SOL     hw10114   5.549   2.933   2.089 -2.2199 -0.7956 -1.0943
 2529SOL     hw10115   5.517   2.793   2.136  0.6312 -0.7059  1.4279
 2529SOL     vw10116   5.571   2.849   2.096 -0.6216 -0.3217  0.1912
 2530SOL     ow10117   1.551   2.629   0.198  0.6076  0.4982  0.0225
 2530SOL     hw10118   1.604   2.677   0.261 -0.7798  0.5618  1.1696
 2530SOL     hw10119   1.517   2.697   0.139  1.4728  0.4935 -0.5115
 2530SOL     vw10120   1.554   2.645   0.198  0.5386  0.5062  0.1034
 2531SOL     ow10121   0.704   1.177   1.537 -0.1110 -0.0943  0.4060
 2531SOL     hw10122   0.667   1.124   1.607  0.8907 -0.8290  0.3940
 2531SOL     hw10123   0.716   1.116   1.464 -0.4783  0.5059 -0.1727
 2531SOL     vw10124   0.701   1.162   1.537 -0.0273 -0.1120  0.3281
 2532SOL     ow10125   5.950   4.628   2.701  0.0589  0.1218 -0.3197
 2532SOL     hw10126   5.869   4.577   2.704  2.1953 -3.5684  0.2309
 2532SOL     hw10127   5.922   4.716   2.674 -4.0292 -1.0173 -0.4168
 2532SOL     vw10128   5.935   4.633   2.698 -0.1986 -0.5155 -0.2598
 2533SOL     ow10129   1.131   2.279   5.314 -0.2853  0.4229  0.2186
 2533SOL     hw10130   1.077   2.355   5.334 -0.3821  0.8656 -1.5675
 2533SOL     hw10131   1.155   2.290   5.222  0.7836 -1.0477  0.2819
 2533SOL     vw10132   1.127   2.290   5.305 -0.1571  0.2873 -0.0086
 2534SOL     ow10133   1.992   1.302   3.139  0.3798 -0.5196 -0.5704
 2534SOL     hw10134   2.078   1.266   3.118  0.6100  0.0081 -0.5474
 2534SOL     hw10135   1.976   1.367   3.070 -0.7323 -1.7638 -1.5353
 2534SOL     vw10136   2.001   1.306   3.127  0.2635 -0.6142 -0.6946
 2535SOL     ow10137   5.432   5.690   1.505 -0.2981  0.1228  0.0825
 2535SOL     hw10138   5.375   5.678   1.582 -2.4495 -1.7271 -1.6626
 2535SOL     hw10139   5.462   5.781   1.512 -3.3875  1.1845  1.2397
 2535SOL     vw10140   5.428   5.701   1.516 -0.9899  0.0186  0.0049
 2536SOL     ow10141   6.895   6.309   5.995  0.8391  0.1276  0.2272
 2536SOL     hw10142   6.981   6.270   6.013 -0.0495 -2.2074 -0.3743
 2536SOL     hw10143   6.898   6.330   5.901  0.3691 -1.0054 -0.0500
 2536SOL     vw10144   6.907   6.307   5.985  0.6597 -0.3302  0.1113
 2537SOL     ow10145   1.782   5.790   5.115 -0.3408  0.8512 -0.1991
 2537SOL     hw10146   1.739   5.861   5.163 -2.2110 -1.6029  2.0435
 2537SOL     hw10147   1.864   5.828   5.084 -1.2473  3.9550  0.8429
 2537SOL     vw10148   1.787   5.804   5.117 -0.7071  0.9370  0.2341
 2538SOL     ow10149   0.787   5.469   4.274  0.2919  0.1121 -0.2236
 2538SOL     hw10150   0.868   5.518   4.258  0.3222 -1.0351 -5.2588
 2538SOL     hw10151   0.814   5.397   4.331  1.4004  2.7234  2.8416
 2538SOL     vw10152   0.801   5.466   4.279  0.4421  0.3054 -0.4838
 2539SOL     ow10153   5.482   5.156   4.856 -0.5042 -0.8156  0.0828
 2539SOL     hw10154   5.420   5.091   4.888 -0.3109 -1.5179 -0.9367
 2539SOL     hw10155   5.561   5.106   4.834  0.1716 -0.0321  0.6795
 2539SOL     vw10156   5.484   5.141   4.857 -0.3896 -0.8047  0.0269
 2540SOL     ow10157   3.418   6.329   0.710 -0.3456  0.2004 -0.1753
 2540SOL     hw10158   3.421   6.393   0.639 -1.1898 -0.9476 -1.2641
 2540SOL     hw10159   3.325   6.318   0.730 -0.2584 -1.0417 -0.3521
 2540SOL     vw10160   3.406   6.336   0.703 -0.4456 -0.1149 -0.3422
 2541SOL     ow10161   2.071   4.362   3.228  0.0992 -0.2570 -0.3217
 2541SOL     hw10162   2.029   4.296   3.173  0.6248 -0.6416 -0.2588
 2541SOL     hw10163   2.160   4.368   3.196  0.6818 -1.1413  1.0611
 2541SOL     vw10164   2.077   4.354   3.216  0.2453 -0.4246 -0.1310
 2542SOL     ow10165   3.999   7.190   1.864 -0.7627 -0.5876  0.1855
 2542SOL     hw10166   3.962   7.168   1.950  1.6991  0.1294  1.5472
 2542SOL     hw10167   4.046   7.272   1.879  0.3106 -0.8078 -1.6747
 2542SOL     vw10168   4.000   7.198   1.877 -0.2964 -0.5221  0.1197
 2543SOL     ow10169   2.417   2.229   4.845 -0.4365  0.1474  0.3062
 2543SOL     hw10170   2.412   2.242   4.939  1.3246  0.2687  0.4181
 2543SOL     hw10171   2.437   2.136   4.834 -3.6856 -0.5923 -0.1158
 2543SOL     vw10172   2.419   2.219   4.856 -0.6329  0.0657  0.2654
 2544SOL     ow10173   5.704   6.249   6.384  0.8542 -0.4803  0.7165
 2544SOL     hw10174   5.629   6.289   6.427 -0.2192  1.1317 -2.3808
 2544SOL     hw10175   5.669   6.171   6.342  1.8081 -1.8129  2.2468
 2544SOL     vw10176   5.690   6.244   6.384  0.8385 -0.4435  0.5097
 2545SOL     ow10177   2.357   0.965   2.570 -0.1764  0.1477 -0.1077
 2545SOL     hw10178   2.263   0.980   2.583 -0.2605 -0.1483 -0.3669
 2545SOL     hw10179   2.367   0.870   2.575  0.0065  0.1269 -0.7499
 2545SOL     vw10180   2.346   0.954   2.572 -0.1634  0.1059 -0.2266
 2546SOL     ow10181   6.731   4.513   0.479 -0.4614  0.4141  0.0020
 2546SOL     hw10182   6.686   4.583   0.526  0.5891  0.7384  0.5518
 2546SOL     hw10183   6.684   4.433   0.504 -1.7926  0.9036 -0.7861
 2546SOL     vw10184   6.719   4.512   0.488 -0.4983  0.5214 -0.0294
 2547SOL     ow10185   0.179   1.538   7.041 -0.6038 -0.3647  0.5580
 2547SOL     hw10186   0.120   1.591   6.987 -0.1302  0.5753  0.9345
 2547SOL     hw10187   0.125   1.466   7.073 -1.3729  0.1094  0.3549
 2547SOL     vw10188   0.164   1.536   7.038 -0.6428 -0.1781  0.5813
 2548SOL     ow10189   5.086   2.268   1.943  0.1078 -0.3726  0.7926
 2548SOL     hw10190   5.058   2.325   1.872  0.4550 -1.9860 -0.7050
 2548SOL     hw10191   5.010   2.261   2.000 -0.8331 -0.5785 -0.4546
 2548SOL     vw10192   5.072   2.275   1.941  0.0296 -0.6126  0.4305
 2549SOL     ow10193   1.081   6.812   2.872 -0.1894 -0.4940  0.2221
 2549SOL     hw10194   1.081   6.724   2.909 -1.8029 -0.0646  1.3377
 2549SOL     hw10195   1.024   6.805   2.795  1.0241 -0.7702 -0.6878
 2549SOL     vw10196   1.073   6.799   2.866 -0.2422 -0.4737  0.2491
 2550SOL     ow10197   5.600   1.118   4.792  0.1474 -0.4420  0.3094
 2550SOL     hw10198   5.575   1.075   4.873 -1.7950  1.7214  0.9711
 2550SOL     hw10199   5.517   1.134   4.746  1.1500 -1.3069 -1.9911
 2550SOL     vw10200   5.586   1.115   4.796  0.0231 -0.2707  0.0932
 2551SOL     ow10201   0.773   4.730   3.152 -0.0049  0.2321 -0.2390
 2551SOL     hw10202   0.750   4.728   3.059 -1.3864  1.4498  0.0499
 2551SOL     hw10203   0.741   4.646   3.186 -0.9843  0.4692 -0.5426
 2551SOL     vw10204   0.766   4.719   3.144 -0.3164  0.4244 -0.2409
 2552SOL     ow10205   4.070   6.726   3.055  0.2706 -0.3654  0.4636
 2552SOL     hw10206   4.137   6.738   3.122 -0.4625  5.1793  0.6791
 2552SOL     hw10207   3.988   6.748   3.100 -0.9425 -1.3542 -1.1500
 2552SOL     vw10208   4.068   6.730   3.070  0.0138  0.2358  0.2791
 2553SOL     ow10209   5.071   2.916   1.391 -0.1065 -0.0939  0.7507
 2553SOL     hw10210   5.160   2.881   1.387 -0.6814 -1.4919 -0.7702
 2553SOL     hw10211   5.014   2.840   1.383 -1.4296  0.8824  0.4396
 2553SOL     vw10212   5.076   2.901   1.389 -0.3569 -0.1494  0.5090
 2554SOL     ow10213   2.852   5.073   5.247  0.3930 -0.0774 -0.1622
 2554SOL     hw10214   2.943   5.104   5.251  0.3598  0.1325 -0.8708
 2554SOL     hw10215   2.811   5.129   5.180 -0.1292 -0.4921 -0.1920
 2554SOL     vw10216   2.859   5.085   5.238  0.3197 -0.1042 -0.2596
 2555SOL     ow10217   6.430   4.517   3.539 -0.5867  0.3183 -0.1125
 2555SOL     hw10218   6.491   4.560   3.478 -0.5627  1.5310  0.7301
 2555SOL     hw10219   6.471   4.527   3.625 -1.3622  0.0223  0.2995
 2555SOL     vw10220   6.443   4.524   3.542 -0.6859  0.4392  0.0529
 2556SOL     ow10221   2.335   3.893   0.531  0.2317 -0.2398  0.1274
 2556SOL     hw10222   2.428   3.874   0.534  0.9144  2.4911  3.7493
 2556SOL     hw10223   2.294   3.821   0.579  0.5196 -0.9606 -0.6722
 2556SOL     vw10224   2.342   3.881   0.538  0.3597  0.0254  0.4998
 2557SOL     ow10225   1.037   4.544   6.701 -0.4467 -0.2935 -0.2025
 2557SOL     hw10226   1.112   4.546   6.760 -1.1592  1.5699  0.7146
 2557SOL     hw10227   0.987   4.466   6.728 -0.5546  0.3029  1.4165
 2557SOL     vw10228   1.040   4.534   6.712 -0.5550  0.0310  0.1321
 2558SOL     ow10229   1.294   2.938   1.204 -0.6226 -0.6057 -0.7444
 2558SOL     hw10230   1.266   2.891   1.125 -2.2473  0.4148 -0.8207
 2558SOL     hw10231   1.214   2.979   1.237  0.3774  0.4730  0.4355
 2558SOL     vw10232   1.280   2.937   1.198 -0.7051 -0.3287 -0.5988
 2559SOL     ow10233   1.483   6.044   0.682 -0.1149  0.0225 -0.8452
 2559SOL     hw10234   1.393   6.062   0.653 -0.4185 -1.1651 -0.7081
 2559SOL     hw10235   1.531   6.025   0.601  0.6581  3.0135 -1.2002
 2559SOL     vw10236   1.477   6.044   0.667 -0.0530  0.2606 -0.8740
 2560SOL     ow10237   4.141   4.223   6.069  0.3215  0.1999  1.1634
 2560SOL     hw10238   4.173   4.173   6.144 -1.7591 -0.2950  1.7840
 2560SOL     hw10239   4.124   4.311   6.104 -0.2831  0.0749  1.1939
 2560SOL     vw10240   4.143   4.228   6.084 -0.0327  0.1178  1.2491
 2561SOL     ow10241   2.689   2.236   4.862 -0.2463  0.8281 -0.6516
 2561SOL     hw10242   2.599   2.260   4.842 -0.2044  3.7808  2.0763
 2561SOL     hw10243   2.735   2.319   4.876  2.9590 -0.5509 -1.8660
 2561SOL     vw10244   2.684   2.250   4.861  0.1820  1.0358 -0.4520
 2562SOL     ow10245   3.192   1.350   6.018  0.9085  0.8002 -0.8151
 2562SOL     hw10246   3.230   1.369   6.104  0.0050 -1.8739  0.2853
 2562SOL     hw10247   3.174   1.436   5.980  0.0530  2.0995  2.2407
 2562SOL     vw10248   3.195   1.364   6.025  0.6765  0.6188 -0.2668
 2563SOL     ow10249   4.636   5.283   2.888 -0.0234  0.2385 -0.0923
 2563SOL     hw10250   4.545   5.257   2.869 -0.2362  1.8272 -1.4517
 2563SOL     hw10251   4.687   5.248   2.815  0.9196 -2.5389  1.7123
 2563SOL     vw10252   4.630   5.275   2.876  0.0727  0.0818 -0.0337
 2564SOL     ow10253   4.420   1.060   6.324 -0.6760 -0.3911 -0.3449
 2564SOL     hw10254   4.353   1.109   6.372  1.1455  1.8587  0.0745
 2564SOL     hw10255   4.489   1.043   6.389  0.6859  0.4075 -1.5299
 2564SOL     vw10256   4.420   1.064   6.339 -0.2561  0.0111 -0.4458
 2565SOL     ow10257   5.356   1.126   5.141  0.2725  0.3383 -0.5469
 2565SOL     hw10258   5.368   1.150   5.233 -0.3501  1.4624 -0.7430
 2565SOL     hw10259   5.425   1.062   5.124  2.3986  2.3833 -0.1273
 2565SOL     vw10260   5.367   1.120   5.151  0.4709  0.7564 -0.5176
 2566SOL     ow10261   4.640   2.178   1.814  0.1141 -0.2063  0.1265
 2566SOL     hw10262   4.577   2.241   1.779  0.0378 -0.6385 -0.5432
 2566SOL     hw10263   4.725   2.208   1.782  0.0339 -0.6555 -0.5427
 2566SOL     vw10264   4.643   2.190   1.805  0.0935 -0.3227 -0.0501
 2567SOL     ow10265   4.598   0.992   1.106  0.2624  0.1805 -0.1553
 2567SOL     hw10266   4.601   0.986   1.202 -0.7381  0.2786 -0.1099
 2567SOL     hw10267   4.517   0.947   1.081 -0.2893  1.4740 -0.8244
 2567SOL     vw10268   4.588   0.986   1.115  0.0575  0.3641 -0.2376
 2568SOL     ow10269   0.958   1.258   1.588  0.0752  0.4173 -0.0527
 2568SOL     hw10270   0.866   1.237   1.572  0.8033 -2.1298 -1.5123
 2568SOL     hw10271   1.001   1.244   1.503  2.3435 -2.0957  1.3352
 2568SOL     vw10272   0.952   1.253   1.575  0.4705 -0.2503 -0.0621
 2569SOL     ow10273   3.013   0.427   6.662  0.3383  0.0238  0.4976
 2569SOL     hw10274   3.093   0.407   6.614  0.6140  1.0024  0.5209
 2569SOL     hw10275   2.980   0.507   6.621  0.1664  0.4461  1.4261
 2569SOL     vw10276   3.019   0.435   6.650  0.3520  0.2087  0.6235
 2570SOL     ow10277   3.649   3.937   5.364 -0.2208  0.5287  0.3929
 2570SOL     hw10278   3.690   3.921   5.279 -0.6539  2.9315 -0.3322
 2570SOL     hw10279   3.709   3.895   5.427  0.9622  0.0941 -0.9601
 2570SOL     vw10280   3.662   3.930   5.361 -0.1218  0.7885  0.1185
 2571SOL     ow10281   0.239   2.937   2.186  0.3907  0.4275  0.6163
 2571SOL     hw10282   0.248   2.906   2.277  1.0073  0.6544  0.6298
 2571SOL     hw10283   0.165   2.997   2.189 -0.9509 -1.1330  0.5659
 2571SOL     vw10284   0.230   2.941   2.199  0.2951  0.2515  0.6114
 2572SOL     ow10285   3.391   3.877   3.539  0.1331 -0.3133  0.0208
 2572SOL     hw10286   3.311   3.923   3.513 -0.0519 -0.2539  0.6793
 2572SOL     hw10287   3.393   3.885   3.634  0.7005 -0.6872  0.0416
 2572SOL     vw10288   3.381   3.884   3.548  0.1835 -0.3546  0.1104
 2573SOL     ow10289   1.578   4.370   1.133  0.2002 -0.1751  0.1089
 2573SOL     hw10290   1.510   4.436   1.122  0.4973 -0.0994 -1.6894
 2573SOL     hw10291   1.581   4.325   1.048  2.9065  0.3323 -0.1451
 2573SOL     vw10292   1.569   4.373   1.120  0.5964 -0.0980 -0.1619
 2574SOL     ow10293   1.158   0.827   3.599  0.0802  0.4786 -0.0115
 2574SOL     hw10294   1.201   0.817   3.514  0.5725 -0.5868  0.3476
 2574SOL     hw10295   1.230   0.836   3.661 -0.2890  1.7259  0.2446
 2574SOL     vw10296   1.173   0.827   3.596  0.0964  0.5026  0.0695
 2575SOL     ow10297   6.996   0.426   3.791  0.7390  0.2448  0.0364
 2575SOL     hw10298   7.010   0.461   3.879  3.1843  0.7434 -0.4666
 2575SOL     hw10299   6.968   0.502   3.739  2.9337  0.8503 -0.3621
 2575SOL     vw10300   6.994   0.441   3.795  1.3514  0.3905 -0.0826
 2576SOL     ow10301   3.056   0.909   2.486  0.1136  0.4219  0.7217
 2576SOL     hw10302   3.136   0.906   2.435 -0.6912 -0.2997 -0.5375
 2576SOL     hw10303   3.058   0.995   2.529  2.0533 -0.0202  1.5851
 2576SOL     vw10304   3.067   0.920   2.485  0.2635  0.2683  0.6694
 2577SOL     ow10305   7.354   5.439   1.560 -0.3223 -0.2723  0.4297
 2577SOL     hw10306   7.362   5.534   1.560  0.1684 -0.2980 -0.5972
 2577SOL     hw10307   7.441   5.407   1.585 -0.4948 -0.4533  0.8091
 2577SOL     vw10308   7.367   5.447   1.563 -0.2803 -0.2997  0.3443
 2578SOL     ow10309   4.269   4.741   4.811 -0.1788  0.0597  0.2025
 2578SOL     hw10310   4.310   4.823   4.782  0.1905  0.3234  1.4076
 2578SOL     hw10311   4.206   4.769   4.879  0.3633 -0.7016  1.0387
 2578SOL     vw10312   4.266   4.756   4.816 -0.0584 -0.0060  0.4721
 2579SOL     ow10313   3.021   0.988   5.588 -0.3803 -1.0914  0.1448
 2579SOL     hw10314   3.104   0.951   5.557 -0.8841 -1.4004 -0.8830
 2579SOL     hw10315   3.009   0.948   5.674  0.5241 -1.0501  0.3093
 2579SOL     vw10316   3.031   0.978   5.595 -0.3275 -1.1267  0.0308
 2580SOL     ow10317   6.643   1.927   6.621  0.7650 -0.0056  0.4560
 2580SOL     hw10318   6.625   1.862   6.690 -0.2236 -1.2219 -0.8920
 2580SOL     hw10319   6.737   1.942   6.627  0.7427 -0.2583  1.9110
 2580SOL     vw10320   6.653   1.920   6.631  0.6316 -0.1994  0.4702
 2581SOL     ow10321   5.104   2.016   2.087 -0.2681 -0.1035 -0.4638
 2581SOL     hw10322   5.113   2.032   2.181  0.2165  1.2032 -0.7191
 2581SOL     hw10323   5.070   1.926   2.081 -0.7250 -0.0420  0.9612
 2581SOL     vw10324   5.101   2.006   2.099 -0.2646  0.0770 -0.3093
 2582SOL     ow10325   0.262   3.217   4.304 -0.1357 -0.0852  0.2117
 2582SOL     hw10326   0.272   3.203   4.210  0.3909  0.2447  0.2128
 2582SOL     hw10327   0.352   3.221   4.337 -0.3211 -0.8012  0.8226
 2582SOL     vw10328   0.275   3.216   4.296 -0.0907 -0.1360  0.2925
 2583SOL     ow10329   4.096   4.415   5.564 -0.3510  0.3208 -0.0110
 2583SOL     hw10330   4.086   4.504   5.528  0.2928  0.1588 -0.6110
 2583SOL     hw10331   4.039   4.361   5.510 -0.3494  0.2825  0.0255
 2583SOL     vw10332   4.087   4.420   5.552 -0.2661  0.2944 -0.0854
 2584SOL     ow10333   4.103   3.810   4.155  0.3207 -0.7871 -1.0123
 2584SOL     hw10334   4.058   3.739   4.201  0.9769 -1.0094 -0.7010
 2584SOL     hw10335   4.033   3.868   4.126 -0.0493  0.8550  2.6645
 2584SOL     vw10336   4.088   3.808   4.157  0.3586 -0.5999 -0.4861
 2585SOL     ow10337   0.497   5.852   1.838  0.7236 -0.3861  0.1895
 2585SOL     hw10338   0.477   5.776   1.894  0.0159 -1.6203 -1.6443
 2585SOL     hw10339   0.417   5.905   1.839  1.3351  0.5648  1.7461
 2585SOL     vw10340   0.484   5.849   1.846  0.7109 -0.4234  0.1529
 2586SOL     ow10341   3.265   4.955   6.008  0.1481  0.2050  0.0740
 2586SOL     hw10342   3.311   4.880   5.970 -0.9344 -0.8848  0.8455
 2586SOL     hw10343   3.182   4.920   6.039 -0.3433  1.7074  0.5718
 2586SOL     vw10344   3.260   4.941   6.007 -0.0596  0.2594  0.2415
 2587SOL     ow10345   0.798   5.060   4.542  0.8335  0.6249 -0.2982
 2587SOL     hw10346   0.736   5.058   4.616  0.0876  0.2170 -0.9161
 2587SOL     hw10347   0.845   5.143   4.552  0.0062  1.0634  0.0478
 2587SOL     vw10348   0.796   5.070   4.553  0.6259  0.6287 -0.3340
 2588SOL     ow10349   3.387   5.663   0.199  0.3688  0.0572  0.1429
 2588SOL     hw10350   3.299   5.680   0.164 -1.4917 -0.4086  4.0140
 2588SOL     hw10351   3.421   5.750   0.219  1.3835  0.3165 -2.3475
 2588SOL     vw10352   3.380   5.677   0.197  0.2571  0.0298  0.3251
 2589SOL     ow10353   4.166   2.423   7.197 -0.1797 -0.3250 -0.4393
 2589SOL     hw10354   4.128   2.422   7.109  0.3255  1.9488 -0.7544
 2589SOL     hw10355   4.091   2.409   7.255 -0.5035 -1.9866 -1.1982
 2589SOL     vw10356   4.151   2.421   7.193 -0.1559 -0.2443 -0.5808
 2590SOL     ow10357   6.807   3.725   0.724  0.0440  0.2209 -0.3487
 2590SOL     hw10358   6.824   3.818   0.712 -0.3078  0.1932 -1.1212
 2590SOL     hw10359   6.771   3.696   0.640 -0.1843 -0.5344 -0.0012
 2590SOL     vw10360   6.805   3.733   0.712 -0.0324  0.1175 -0.4048
 2591SOL     ow10361   1.471   2.421   4.277  0.3607 -0.0414 -0.1918
 2591SOL     hw10362   1.393   2.464   4.243  0.5508 -0.6295 -1.4304
 2591SOL     hw10363   1.437   2.343   4.323  0.1353  0.4820  0.5431
 2591SOL     vw10364   1.456   2.416   4.279  0.3560 -0.0499 -0.2582
 2592SOL     ow10365   3.378   5.249   3.539  0.1179 -0.3309  0.1517
 2592SOL     hw10366   3.315   5.268   3.609 -0.1196 -0.6694  0.0303
 2592SOL     hw10367   3.455   5.301   3.562  0.2929 -0.9603  1.0286
 2592SOL     vw10368   3.380   5.258   3.551  0.1097 -0.4585  0.2515
 2593SOL     ow10369   5.615   3.358   7.105  0.6763  0.4645  0.3102
 2593SOL     hw10370   5.598   3.444   7.145 -0.2436 -0.8175  2.8888
 2593SOL     hw10371   5.628   3.378   7.012  0.1368  3.3495  0.7373
 2593SOL     vw10372   5.614   3.372   7.098  0.4838  0.6762  0.7067
 2594SOL     ow10373   7.232   2.126   1.073 -0.1246  0.1989  0.4871
 2594SOL     hw10374   7.278   2.054   1.115  3.1581  1.4639 -0.5899
 2594SOL     hw10375   7.179   2.085   1.004  1.0580 -1.2269  0.3956
 2594SOL     vw10376   7.231   2.111   1.069  0.4644  0.1777  0.3330
 2595SOL     ow10377   6.261   0.690   1.851 -0.5037 -0.4864  0.0915
 2595SOL     hw10378   6.185   0.690   1.792  1.8260 -1.1552 -3.2283
 2595SOL     hw10379   6.306   0.608   1.831 -0.0935 -1.3441  3.7961
 2595SOL     vw10380   6.257   0.679   1.840 -0.1421 -0.6878  0.1423
 2596SOL     ow10381   7.130   4.719   2.414 -0.7615 -0.3770  0.0854
 2596SOL     hw10382   7.079   4.675   2.346 -2.6163  2.6361 -0.6641
 2596SOL     hw10383   7.069   4.728   2.487 -0.7175  1.4695 -0.0553
 2596SOL     vw10384   7.115   4.714   2.415 -1.0006  0.2644 -0.0322
 2597SOL     ow10385   2.145   1.529   3.013  0.8001  0.3918 -0.7041
 2597SOL     hw10386   2.136   1.481   3.095  0.9348 -0.0455 -0.9412
 2597SOL     hw10387   2.065   1.581   3.006  1.9287  2.5166  1.0334
 2597SOL     vw10388   2.133   1.529   3.023  0.9667  0.6145 -0.5060
 2598SOL     ow10389   5.782   2.899   0.908 -0.4003  0.0374  0.5161
 2598SOL     hw10390   5.822   2.817   0.881  0.8491  0.2546  1.6229
 2598SOL     hw10391   5.692   2.893   0.877  0.0436 -1.1483 -0.6333
 2598SOL     vw10392   5.775   2.887   0.900 -0.1769 -0.0905  0.5105
 2599SOL     ow10393   6.049   5.759   3.443 -0.6629 -0.7711 -1.0635
 2599SOL     hw10394   6.026   5.807   3.363  0.9534 -1.2552 -1.8690
 2599SOL     hw10395   6.141   5.781   3.457 -1.1329  0.0609  1.2396
 2599SOL     vw10396   6.058   5.768   3.434 -0.5114 -0.7250 -0.8659
 2600SOL     ow10397   1.898   2.771   3.063 -0.4264 -0.7837 -0.4743
 2600SOL     hw10398   1.976   2.776   3.118 -0.4403  0.6215 -0.5442
 2600SOL     hw10399   1.825   2.782   3.123 -0.4349  0.9044 -0.7623
 2600SOL     vw10400   1.899   2.773   3.078 -0.4294 -0.3756 -0.5217
 2601SOL     ow10401   7.000   0.098   3.841  0.7194  0.5339  0.1013
 2601SOL     hw10402   7.070   0.075   3.903 -0.1450  0.4664  1.0833
 2601SOL     hw10403   6.920   0.067   3.883 -0.3787  3.8503  0.7661
 2601SOL     vw10404   6.998   0.091   3.855  0.4604  0.9626  0.3186
 2602SOL     ow10405   2.922   1.648   6.005  0.5504  0.2511 -0.8871
 2602SOL     hw10406   2.971   1.704   5.944  0.4141  0.0201 -1.2136
 2602SOL     hw10407   2.981   1.636   6.079  0.1118  1.8602 -0.2417
 2602SOL     vw10408   2.936   1.654   6.006  0.4747  0.4329 -0.8450
 2603SOL     ow10409   0.428   5.768   3.695 -0.3937 -0.9242 -0.0294
 2603SOL     hw10410   0.335   5.786   3.679 -0.0988 -0.2192 -1.0821
 2603SOL     hw10411   0.447   5.811   3.779 -1.0923 -1.3618  0.3587
 2603SOL     vw10412   0.418   5.776   3.704 -0.4469 -0.8891 -0.1173
 2604SOL     ow10413   7.169   6.983   4.795 -0.2964 -0.6161  0.4616
 2604SOL     hw10414   7.182   7.016   4.706  3.3347 -0.4891  0.8787
 2604SOL     hw10415   7.145   7.060   4.845  1.1757  0.0899  0.1566
 2604SOL     vw10416   7.168   6.998   4.790  0.3767 -0.5064  0.4766
 2605SOL     ow10417   6.748   2.191   0.102 -0.0056  0.3565 -0.3636
 2605SOL     hw10418   6.836   2.164   0.131  0.2118 -0.2819 -1.5606
 2605SOL     hw10419   6.764   2.264   0.043  0.0211 -1.6383 -2.9916
 2605SOL     vw10420   6.762   2.197   0.098  0.0267  0.0091 -0.8682
 2606SOL     ow10421   1.406   2.494   3.159 -0.5578  1.0417 -0.6903
 2606SOL     hw10422   1.426   2.568   3.102 -1.1901  1.5952 -0.2142
 2606SOL     hw10423   1.463   2.506   3.235 -2.1252  2.2578  0.3672
 2606SOL     vw10424   1.416   2.506   3.162 -0.8481  1.2752 -0.4879
 2607SOL     ow10425   0.453   4.451   5.666 -0.6334 -0.4738 -0.8558
 2607SOL     hw10426   0.509   4.459   5.589  0.3192  0.3777 -0.0954
 2607SOL     hw10427   0.492   4.380   5.716  2.5109  2.7641  1.7925
 2607SOL     vw10428   0.465   4.443   5.662 -0.0929  0.0658 -0.4060
 2608SOL     ow10429   3.835   4.161   2.258  0.5162 -0.1331  0.2152
 2608SOL     hw10430   3.767   4.181   2.194 -1.1666 -1.0207  1.6059
 2608SOL     hw10431   3.891   4.097   2.215  0.6431  0.7841 -1.0490
 2608SOL     vw10432   3.833   4.155   2.244  0.3109 -0.1295  0.2319
 2609SOL     ow10433   6.630   5.144   4.544  0.1295 -0.5213  0.4347
 2609SOL     hw10434   6.645   5.099   4.461  0.0706  2.5225 -1.3874
 2609SOL     hw10435   6.662   5.233   4.529 -4.6036  1.7432  1.8008
 2609SOL     vw10436   6.636   5.150   4.531 -0.5028  0.1791  0.3746
 2610SOL     ow10437   6.304   2.583   1.451 -0.4274 -0.2251 -0.9247
 2610SOL     hw10438   6.340   2.545   1.371  0.8603  1.3232 -1.1317
 2610SOL     hw10439   6.210   2.561   1.448 -0.0493 -1.8906 -1.8309
 2610SOL     vw10440   6.296   2.575   1.440 -0.2079 -0.2406 -1.0716
 2611SOL     ow10441   6.753   0.469   0.849  0.5854  0.0703 -0.1636
 2611SOL     hw10442   6.723   0.395   0.901 -0.9846  0.1745 -0.8621
 2611SOL     hw10443   6.754   0.543   0.909  0.2837 -0.1221  0.0783
 2611SOL     vw10444   6.749   0.469   0.863  0.3383  0.0587 -0.2238
 2612SOL     ow10445   4.403   7.051   5.655  0.8446 -0.7461 -0.1188
 2612SOL     hw10446   4.369   7.050   5.565  1.8614  1.9172 -0.6346
 2612SOL     hw10447   4.332   7.016   5.708 -0.9162  0.3018 -1.6598
 2612SOL     vw10448   4.389   7.046   5.650  0.7463 -0.2565 -0.3901
 2613SOL     ow10449   2.316   1.378   2.258  0.2929 -0.1137 -0.6375
 2613SOL     hw10450   2.386   1.376   2.193  2.4698  1.8522  1.4342
 2613SOL     hw10451   2.287   1.469   2.259 -0.6406 -0.4049  0.1640
 2613SOL     vw10452   2.322   1.390   2.250  0.4570  0.1073 -0.2584
 2614SOL     ow10453   5.036   0.097   1.598 -0.4817 -0.2653  0.3948
 2614SOL     hw10454   4.981   0.024   1.568 -0.1232 -0.5438  0.4022
 2614SOL     hw10455   5.051   0.078   1.691  1.3230 -1.3071 -0.0743
 2614SOL     vw10456   5.030   0.085   1.606 -0.1962 -0.4395  0.3338
 2615SOL     ow10457   0.729   6.275   3.384  0.0509 -0.0585  0.1743
 2615SOL     hw10458   0.804   6.254   3.327 -1.2132 -3.5620 -0.4875
 2615SOL     hw10459   0.767   6.281   3.471  1.2838 -0.8602 -0.2688
 2615SOL     vw10460   0.744   6.273   3.388  0.0468 -0.6266  0.0285
 2616SOL     ow10461   5.308   2.993   5.934 -0.3920 -0.1459 -0.0328
 2616SOL     hw10462   5.254   3.022   6.008  1.7174  0.8659  1.2122
 2616SOL     hw10463   5.307   2.897   5.940  0.4215 -0.0909  1.9154
 2616SOL     vw10464   5.301   2.984   5.945 -0.0067 -0.0051  0.3884
 2617SOL     ow10465   0.482   0.640   1.930 -0.1079 -0.1734  0.7507
 2617SOL     hw10466   0.507   0.585   1.855  1.0991 -0.8308  1.6032
 2617SOL     hw10467   0.387   0.634   1.933 -0.1198 -0.7892 -0.2325
 2617SOL     vw10468   0.473   0.632   1.920  0.0498 -0.3414  0.7334
 2618SOL     ow10469   1.001   4.578   1.084 -0.2069  0.0514 -0.0896
 2618SOL     hw10470   0.959   4.524   1.018 -2.0238  0.4793  0.6512
 2618SOL     hw10471   0.967   4.666   1.069  0.1318  0.3476  0.7833
 2618SOL     vw10472   0.991   4.583   1.073 -0.4020  0.1466  0.1233
 2619SOL     ow10473   1.753   1.603   3.979 -0.6936 -0.4536  0.0474
 2619SOL     hw10474   1.719   1.524   4.020 -0.0680  0.1097  1.7383
 2619SOL     hw10475   1.675   1.657   3.962 -0.8883  1.5381  5.3363
 2619SOL     vw10476   1.738   1.600   3.982 -0.6367 -0.1165  0.9682
 2620SOL     ow10477   0.251   2.856   2.452 -0.4035 -0.0655 -0.1954
 2620SOL     hw10478   0.168   2.846   2.499  1.3296 -1.5855  2.8180
 2620SOL     hw10479   0.311   2.893   2.516  1.8833 -1.3378 -1.4561
 2620SOL     vw10480   0.248   2.859   2.467  0.1269 -0.4342  0.0358
 2621SOL     ow10481   2.630   0.901   5.127  0.3378  0.4324 -0.0377
 2621SOL     hw10482   2.567   0.939   5.065 -1.6060 -0.0386  1.5487
 2621SOL     hw10483   2.681   0.840   5.073 -0.2008  1.2180 -1.5021
 2621SOL     vw10484   2.628   0.898   5.112  0.0103  0.4739 -0.0217
 2622SOL     ow10485   3.979   4.436   3.029 -0.2096  0.2380 -0.7776
 2622SOL     hw10486   4.031   4.365   3.067  1.0335  1.0464 -0.8948
 2622SOL     hw10487   4.035   4.514   3.037 -0.8732  0.8978 -2.0990
 2622SOL     vw10488   3.993   4.437   3.035 -0.1333  0.4320 -0.9675
 2623SOL     ow10489   2.962   1.272   1.430 -0.2392  0.3852  0.0234
 2623SOL     hw10490   3.001   1.338   1.486  0.1149 -0.9981  1.4877
 2623SOL     hw10491   2.867   1.282   1.443 -0.3455  2.1418 -1.6550
 2623SOL     vw10492   2.954   1.282   1.439 -0.2065  0.4345 -0.0048
 2624SOL     ow10493   3.219   5.419   0.335 -0.2315  0.3984  0.3946
 2624SOL     hw10494   3.126   5.427   0.315  0.1011  2.2124 -0.6209
 2624SOL     hw10495   3.242   5.330   0.307 -1.1209  0.7986 -1.7755
 2624SOL     vw10496   3.210   5.408   0.329 -0.3049  0.6907 -0.0257
 2625SOL     ow10497   3.860   1.465   6.020 -0.1920 -0.0012 -0.0906
 2625SOL     hw10498   3.793   1.438   6.083 -0.1364 -0.1499 -0.0945
 2625SOL     hw10499   3.921   1.391   6.017 -0.1563  0.0347 -0.2662
 2625SOL     vw10500   3.859   1.451   6.028 -0.1799 -0.0160 -0.1144
 2626SOL     ow10501   1.357   2.194   3.289 -0.4392  0.0729  0.0225
 2626SOL     hw10502   1.338   2.152   3.372 -0.2456  0.2682  0.1649
 2626SOL     hw10503   1.340   2.287   3.304  0.3412  0.2089  0.0648
 2626SOL     vw10504   1.352   2.200   3.302 -0.3107  0.1165  0.0468
 2627SOL     ow10505   0.434   4.758   3.455 -0.3846  0.2126 -0.1318
 2627SOL     hw10506   0.497   4.809   3.507 -3.3954  0.9028  3.2168
 2627SOL     hw10507   0.440   4.669   3.490  0.1916 -0.2604 -1.3559
 2627SOL     vw10508   0.443   4.753   3.467 -0.7058  0.2413  0.1485
 2628SOL     ow10509   5.150   2.279   3.502  0.3300  0.1522  0.9507
 2628SOL     hw10510   5.087   2.220   3.544 -0.0076 -0.7739 -0.7282
 2628SOL     hw10511   5.105   2.364   3.499  0.1639  0.1136  1.9499
 2628SOL     vw10512   5.136   2.282   3.507  0.2637  0.0249  0.8610
 2629SOL     ow10513   1.787   3.938   0.418 -0.0093 -0.0260 -0.0414
 2629SOL     hw10514   1.721   3.872   0.399  0.1916  0.0696 -1.1176
 2629SOL     hw10515   1.738   4.017   0.439 -0.2446 -0.3819  0.7886
 2629SOL     vw10516   1.772   3.939   0.418 -0.0138 -0.0603 -0.0739
 2630SOL     ow10517   2.094   4.341   0.628  0.1854 -0.0003 -0.1251
 2630SOL     hw10518   2.133   4.254   0.638  1.1413  0.3207 -0.9058
 2630SOL     hw10519   2.170   4.400   0.623 -0.4443  1.0341  1.6527
 2630SOL     vw10520   2.109   4.338   0.629  0.2284  0.1786  0.0064
 2631SOL     ow10521   0.752   5.026   3.044 -0.5318 -0.5696 -0.7502
 2631SOL     hw10522   0.681   5.060   2.990 -1.1688 -2.9230 -1.5078
 2631SOL     hw10523   0.831   5.039   2.992 -0.8723 -0.9795 -1.3801
 2631SOL     vw10524   0.753   5.032   3.030 -0.6608 -0.9344 -0.9333
 2632SOL     ow10525   6.362   0.454   5.960  0.4886 -1.0388 -0.5193
 2632SOL     hw10526   6.315   0.427   5.881 -0.3753 -1.6248  0.1713
 2632SOL     hw10527   6.331   0.394   6.028 -0.6560  0.9322  0.8194
 2632SOL     vw10528   6.352   0.442   5.958  0.2236 -0.8561 -0.2515
 2633SOL     ow10529   4.130   0.097   3.687  0.1552 -0.4954 -0.0714
 2633SOL     hw10530   4.113   0.058   3.773 -1.8512 -0.1838 -0.2969
 2633SOL     hw10531   4.208   0.051   3.655 -0.0138 -1.7341  1.2205
 2633SOL     vw10532   4.138   0.086   3.694 -0.1318 -0.6177  0.0695
 2634SOL     ow10533   2.640   2.479   3.476  0.4312  0.5101 -0.1238
 2634SOL     hw10534   2.728   2.510   3.501  0.4162  0.5565 -0.1276
 2634SOL     hw10535   2.608   2.546   3.415 -0.0898  1.1283  0.8112
 2634SOL     vw10536   2.648   2.492   3.471  0.3606  0.5980 -0.0008
 2635SOL     ow10537   2.837   3.524   2.045 -0.7057  0.4935 -0.5881
 2635SOL     hw10538   2.807   3.466   2.115  0.1621 -0.1411 -0.7394
 2635SOL     hw10539   2.780   3.504   1.971 -0.4620 -0.0929 -0.6135
 2635SOL     vw10540   2.825   3.514   2.045 -0.5590  0.3325 -0.6114
 2636SOL     ow10541   7.216   6.428   2.097  0.1448 -0.0117  0.4294
 2636SOL     hw10542   7.125   6.413   2.125  0.5379  0.2625  1.9635
 2636SOL     hw10543   7.221   6.389   2.010 -2.2802  2.7631 -1.1252
 2636SOL     vw10544   7.205   6.421   2.090 -0.1233  0.3905  0.4267
 2637SOL     ow10545   1.661   1.415   5.785 -0.2177  0.1052  0.6271
 2637SOL     hw10546   1.666   1.509   5.800 -0.0314  0.4413 -1.3054
 2637SOL     hw10547   1.567   1.397   5.776 -0.5592 -0.4917  4.0089
 2637SOL     vw10548   1.649   1.425   5.786 -0.2382  0.0708  0.8180
 2638SOL     ow10549   4.467   4.484   1.119 -0.1793 -0.4181 -0.0771
 2638SOL     hw10550   4.409   4.482   1.043 -1.0206 -2.4907  0.5572
 2638SOL     hw10551   4.538   4.423   1.098  0.3018  0.0089  0.2651
 2638SOL     vw10552   4.469   4.476   1.106 -0.2270 -0.6354  0.0517
 2639SOL     ow10553   7.048   3.410   0.623  0.2560 -0.1651 -0.4274
 2639SOL     hw10554   7.019   3.447   0.539 -1.7943 -1.1639 -0.2234
 2639SOL     hw10555   7.125   3.462   0.646  0.3652  0.7151 -2.4939
 2639SOL     vw10556   7.055   3.422   0.615  0.0000 -0.1806 -0.6731
 2640SOL     ow10557   5.664   3.581   4.916 -0.5509 -0.3720 -0.1554
 2640SOL     hw10558   5.671   3.527   4.995  0.4286 -0.7404 -0.4815
 2640SOL     hw10559   5.654   3.670   4.949 -2.1993 -0.7162  0.3851
 2640SOL     vw10560   5.663   3.586   4.931 -0.6392 -0.4660 -0.1276
 2641SOL     ow10561   6.807   2.715   2.539  0.3266  0.0728  1.0925
 2641SOL     hw10562   6.836   2.806   2.551  0.5267  0.0797  0.5946
 2641SOL     hw10563   6.889   2.666   2.527  0.1514  0.2250 -1.2464
 2641SOL     vw10564   6.822   2.721   2.539  0.3300  0.0938  0.7182
 2642SOL     ow10565   0.543   4.917   3.257  0.1503  0.3529 -0.1571
 2642SOL     hw10566   0.467   4.975   3.244 -0.1587 -0.1791 -0.7668
 2642SOL     hw10567   0.513   4.854   3.322  1.2921  2.2823  2.4214
 2642SOL     vw10568   0.529   4.917   3.264  0.2602  0.5372  0.1026
 2643SOL     ow10569   5.321   0.209   5.670 -0.4062 -0.3532 -0.3249
 2643SOL     hw10570   5.374   0.230   5.593 -0.4364  0.8895 -0.0178
 2643SOL     hw10571   5.346   0.119   5.692  0.2309 -0.4177 -1.2709
 2643SOL     vw10572   5.331   0.200   5.663 -0.3262 -0.1977 -0.4091
 2644SOL     ow10573   2.380   0.047   5.559 -0.7875 -0.0668 -0.1355
 2644SOL     hw10574   2.339   0.057   5.473  0.7942  0.0199 -0.9235
 2644SOL     hw10575   2.410  -0.044   5.561 -1.0736 -0.1515  0.4468
 2644SOL     vw10576   2.379   0.037   5.548 -0.6166 -0.0665 -0.1628
 2645SOL     ow10577   4.470   1.470   1.736  0.2470  0.1397 -0.0535
 2645SOL     hw10578   4.558   1.446   1.707  1.0663  1.0680  1.5292
 2645SOL     hw10579   4.441   1.394   1.788  0.4936  0.2161  0.1962
 2645SOL     vw10580   4.478   1.457   1.739  0.3874  0.2723  0.1882
 2646SOL     ow10581   4.134   4.183   4.188  0.6610  0.4378 -0.1540
 2646SOL     hw10582   4.133   4.090   4.209  0.7418 -0.5442 -3.7959
 2646SOL     hw10583   4.208   4.219   4.237  0.3111 -1.2434  1.7108
 2646SOL     vw10584   4.143   4.176   4.197  0.6256  0.0865 -0.3884
 2647SOL     ow10585   0.125   2.652   1.565 -0.5776  0.1235  0.1483
 2647SOL     hw10586   0.174   2.623   1.488  1.7875 -1.3363  2.0578
 2647SOL     hw10587   0.037   2.615   1.552  0.0818 -1.0402 -1.3114
 2647SOL     vw10588   0.120   2.643   1.553 -0.1785 -0.2227  0.2076
 2648SOL     ow10589   2.372   3.417   3.671 -0.3425  0.4725 -0.5335
 2648SOL     hw10590   2.386   3.354   3.742  2.1718  2.2420  0.6940
 2648SOL     hw10591   2.331   3.492   3.713  0.4916  1.2514 -1.0792
 2648SOL     vw10592   2.369   3.418   3.686  0.0992  0.8086 -0.4435
 2649SOL     ow10593   2.042   2.176   6.720 -0.4371  0.0270 -0.1469
 2649SOL     hw10594   2.106   2.247   6.719 -0.2346 -0.1597 -0.9699
 2649SOL     hw10595   2.089   2.102   6.758 -1.0637  0.6817  2.0756
 2649SOL     vw10596   2.057   2.175   6.725 -0.4930  0.0888  0.0377
 2650SOL     ow10597   5.471   3.476   4.702  0.5414  0.6483  0.3740
 2650SOL     hw10598   5.552   3.518   4.730  0.9141 -0.9153  1.8054
 2650SOL     hw10599   5.450   3.415   4.773 -0.7681 -0.4828 -0.9298
 2650SOL     vw10600   5.479   3.474   4.715  0.4179  0.2928  0.3905
 2651SOL     ow10601   3.355   5.141   3.200 -0.2093  0.8626 -0.5873
 2651SOL     hw10602   3.397   5.116   3.282  0.2125 -0.0797 -1.0697
 2651SOL     hw10603   3.303   5.065   3.175  0.3779  0.7879 -1.6399
 2651SOL     vw10604   3.354   5.128   3.208 -0.0762  0.7286 -0.7898
 2652SOL     ow10605   2.295   6.574   7.242  0.5054 -0.0100 -0.4027
 2652SOL     hw10606   2.249   6.567   7.159  1.4259  2.9070 -1.2832
 2652SOL     hw10607   2.379   6.531   7.226  1.1401  1.5257 -1.4404
 2652SOL     vw10608   2.300   6.567   7.229  0.7105  0.5772 -0.6561
 2653SOL     ow10609   4.434   1.664   1.382  0.1725  0.1806 -0.1086
 2653SOL     hw10610   4.366   1.646   1.446  0.7668  1.0451  0.8104
 2653SOL     hw10611   4.513   1.625   1.420  0.8754  2.1064  0.5437
 2653SOL     vw10612   4.436   1.657   1.396  0.3436  0.5487  0.0987
 2654SOL     ow10613   3.199   3.811   2.812 -0.6724  0.8835  0.4192
 2654SOL     hw10614   3.229   3.873   2.746 -1.6757  0.9054 -0.0381
 2654SOL     hw10615   3.135   3.859   2.864 -1.6226  0.2052 -0.0769
 2654SOL     vw10616   3.195   3.825   2.810 -0.9303  0.7968  0.2935
 2655SOL     ow10617   0.787   4.272   3.309  0.2260  0.3548 -0.0654
 2655SOL     hw10618   0.745   4.353   3.338  0.2628  0.4600 -0.3023
 2655SOL     hw10619   0.785   4.277   3.214  2.1820  1.1141 -0.1147
 2655SOL     vw10620   0.782   4.284   3.300  0.4889  0.4687 -0.1032
 2656SOL     ow10621   3.291   4.697   3.733  0.3123 -0.0760 -0.1904
 2656SOL     hw10622   3.386   4.689   3.741  0.0363 -1.4912  4.3323
 2656SOL     hw10623   3.267   4.629   3.670  2.2530  0.3501 -1.4679
 2656SOL     vw10624   3.300   4.687   3.726  0.5319 -0.2065  0.2376
 2657SOL     ow10625   2.578   2.992   1.774 -0.2431  0.3744  0.1251
 2657SOL     hw10626   2.563   2.897   1.773 -0.4563  0.3617  1.4808
 2657SOL     hw10627   2.534   3.024   1.696  0.2098 -0.6875 -0.5956
 2657SOL     vw10628   2.570   2.984   1.764 -0.2115  0.2327  0.2089
 2658SOL     ow10629   0.712   5.360   5.765  0.0469 -0.3342  0.0342
 2658SOL     hw10630   0.748   5.340   5.852 -0.2963 -2.1695 -0.2014
 2658SOL     hw10631   0.626   5.319   5.765 -2.0141  3.4720  0.3910
 2658SOL     vw10632   0.705   5.352   5.777 -0.2703 -0.0741  0.0503
 2659SOL     ow10633   3.184   2.244   7.346  0.6104  0.2712 -0.4540
 2659SOL     hw10634   3.229   2.192   7.278  2.9082  1.2959  0.1942
 2659SOL     hw10635   3.205   2.335   7.324 -1.6459  0.8587 -0.3899
 2659SOL     vw10636   3.193   2.249   7.334  0.6158  0.4839 -0.3600
 2660SOL     ow10637   5.527   0.730   6.195  0.5138  0.0412  0.0915
 2660SOL     hw10638   5.572   0.787   6.132  1.7579  1.6248  2.2672
 2660SOL     hw10639   5.450   0.780   6.222  2.1926  1.3849  2.8458
 2660SOL     vw10640   5.523   0.744   6.190  0.8993  0.4274  0.7420
 2661SOL     ow10641   2.785   1.433   6.176  0.6855  0.1716 -0.5500
 2661SOL     hw10642   2.853   1.470   6.120  0.8179  3.8866  1.6798
 2661SOL     hw10643   2.834   1.395   6.249  0.4387 -0.4715 -0.7211
 2661SOL     vw10644   2.801   1.433   6.179  0.6706  0.5769 -0.2785
 2662SOL     ow10645   5.820   5.972   3.794 -0.0954  0.1977 -0.0763
 2662SOL     hw10646   5.755   5.909   3.763  0.6970  0.4791 -2.5318
 2662SOL     hw10647   5.868   5.925   3.862 -1.1712 -0.9349 -0.0620
 2662SOL     vw10648   5.818   5.958   3.799 -0.1328  0.0856 -0.3985
 2663SOL     ow10649   3.585   5.370   1.556  0.2978 -0.4135  0.3072
 2663SOL     hw10650   3.584   5.278   1.528 -0.2449 -0.7038  1.2315
 2663SOL     hw10651   3.604   5.366   1.649  0.9473  0.4703  0.2220
 2663SOL     vw10652   3.587   5.357   1.564  0.3119 -0.3350  0.4179
 2664SOL     ow10653   1.837   0.608   3.694  0.6785 -0.1568 -0.1752
 2664SOL     hw10654   1.807   0.698   3.704 -0.0496 -0.2861 -1.0004
 2664SOL     hw10655   1.931   0.615   3.678  1.0238  0.3022  1.8153
 2664SOL     vw10656   1.845   0.621   3.693  0.6280 -0.1132 -0.0216
 2665SOL     ow10657   6.090   0.908   1.866  0.4687  0.3603 -0.1556
 2665SOL     hw10658   6.099   0.993   1.910 -1.7629  0.9111 -0.6533
 2665SOL     hw10659   5.995   0.897   1.855  0.6288 -2.6074  0.6797
 2665SOL     vw10660   6.079   0.918   1.871  0.1955  0.0414 -0.1111
 2666SOL     ow10661   2.862   7.171   3.578 -0.0222  0.5056  0.2649
 2666SOL     hw10662   2.858   7.144   3.670  3.5831 -0.4925  0.2532
 2666SOL     hw10663   2.882   7.091   3.531 -0.0470  1.3406 -1.2050
 2666SOL     vw10664   2.864   7.157   3.584  0.4504  0.4840  0.0694
 2667SOL     ow10665   1.337   3.382   5.791 -0.1703 -0.1864 -0.0267
 2667SOL     hw10666   1.244   3.395   5.810 -0.2971 -0.3826 -0.4870
 2667SOL     hw10667   1.380   3.388   5.876 -0.7834 -1.7583  0.4180
 2667SOL     vw10668   1.330   3.385   5.805 -0.2680 -0.4197 -0.0288
 2668SOL     ow10669   1.719   5.922   0.918 -0.0772 -0.4625 -0.0084
 2668SOL     hw10670   1.812   5.912   0.937  0.0943 -0.8563 -0.9868
 2668SOL     hw10671   1.706   5.872   0.838 -0.8403  0.7714 -0.6852
 2668SOL     vw10672   1.730   5.914   0.910 -0.1553 -0.3517 -0.2268
 2669SOL     ow10673   1.072   4.885   1.311  0.4886  0.3156  0.3022
 2669SOL     hw10674   1.022   4.855   1.235  0.5206 -2.1716  1.1809
 2669SOL     hw10675   1.007   4.929   1.367  0.4487  2.0926 -1.0396
 2669SOL     vw10676   1.057   4.887   1.309  0.4876  0.2220  0.2411
 2670SOL     ow10677   2.851   5.997   4.588  1.0938  0.2124  0.3310
 2670SOL     hw10678   2.792   6.026   4.658 -1.4574 -2.0514 -0.6942
 2670SOL     hw10679   2.934   5.981   4.633 -0.3634 -0.9506  2.8767
 2670SOL     vw10680   2.854   5.998   4.603  0.5649 -0.2396  0.5317
 2671SOL     ow10681   7.359   4.114   5.110  0.1798  0.3618  0.4199
 2671SOL     hw10682   7.274   4.157   5.124  1.2129  2.0152  2.0278
 2671SOL     hw10683   7.367   4.054   5.184  1.1018  1.4508  1.2410
 2671SOL     vw10684   7.349   4.112   5.121  0.4375  0.7234  0.7403
 2672SOL     ow10685   1.010   6.196   1.638 -0.6930  0.2162 -0.1529
 2672SOL     hw10686   0.940   6.173   1.577 -3.1789  4.2985  0.7738
 2672SOL     hw10687   0.982   6.160   1.722  0.6704 -1.8686 -0.5116
 2672SOL     vw10688   0.997   6.188   1.641 -0.8411  0.4797 -0.0780
 2673SOL     ow10689   6.686   7.165   0.594  0.0943 -0.6249  0.2823
 2673SOL     hw10690   6.736   7.130   0.668  2.3112  0.7462 -0.4901
 2673SOL     hw10691   6.672   7.090   0.537 -0.9095 -1.5269  1.6363
 2673SOL     vw10692   6.691   7.150   0.596  0.2544 -0.5629  0.3590
 2674SOL     ow10693   6.744   3.303   2.107 -0.1204  0.4013  0.3955
 2674SOL     hw10694   6.788   3.305   2.192  0.4788  0.1630  0.0918
 2674SOL     hw10695   6.658   3.264   2.125 -0.6206  1.7669  1.1689
 2674SOL     vw10696   6.738   3.298   2.121 -0.1073  0.5500  0.4574
 2675SOL     ow10697   1.452   0.568   3.797 -0.0929 -0.1503  0.0368
 2675SOL     hw10698   1.439   0.655   3.836  0.9830  0.4774 -0.9510
 2675SOL     hw10699   1.483   0.514   3.870  1.3648  0.8664  0.2080
 2675SOL     vw10700   1.454   0.573   3.812  0.2414  0.0666 -0.0709
 2676SOL     ow10701   6.346   0.605   2.797 -0.2254 -0.7512  0.3575
 2676SOL     hw10702   6.391   0.526   2.768  1.5011 -0.0219  0.9068
 2676SOL     hw10703   6.393   0.676   2.753 -2.4532 -0.0232 -1.0453
 2676SOL     vw10704   6.358   0.604   2.787 -0.2918 -0.5589  0.2450
 2677SOL     ow10705   5.615   2.983   3.164 -0.6654 -0.2538  0.4580
 2677SOL     hw10706   5.609   2.940   3.250 -0.5796 -2.6740 -0.6567
 2677SOL     hw10707   5.595   2.914   3.101  1.6543  0.7878 -1.6189
 2677SOL     vw10708   5.612   2.968   3.167 -0.3481 -0.4358  0.0370
 2678SOL     ow10709   3.597   1.426   6.157 -0.6857 -0.4018 -0.4188
 2678SOL     hw10710   3.509   1.397   6.181 -0.9036  0.3971 -0.2220
 2678SOL     hw10711   3.633   1.463   6.238 -0.1535 -0.7555 -0.4883
 2678SOL     vw10712   3.590   1.427   6.171 -0.6442 -0.3430 -0.4022
 2679SOL     ow10713   5.224   1.185   4.859  0.2315  0.6537 -0.5600
 2679SOL     hw10714   5.175   1.267   4.872 -1.2669  0.1755 -2.8153
 2679SOL     hw10715   5.278   1.202   4.782  0.6082 -0.1766 -0.4829
 2679SOL     vw10716   5.225   1.198   4.851  0.0834  0.4811 -0.8473
 2680SOL     ow10717   4.844   5.023   6.598  0.2285 -0.5683  0.1186
 2680SOL     hw10718   4.780   5.030   6.668  1.6939 -2.4685  1.7550
 2680SOL     hw10719   4.795   5.045   6.519 -2.0237 -0.4656  1.4508
 2680SOL     vw10720   4.829   5.027   6.597  0.1247 -0.8054  0.5105
 2681SOL     ow10721   5.412   5.528   1.894  0.8518  0.2578  0.5608
 2681SOL     hw10722   5.355   5.536   1.817  0.6514 -0.9871  0.5663
 2681SOL     hw10723   5.501   5.536   1.859  0.7991 -1.1836  0.0601
 2681SOL     vw10724   5.416   5.530   1.879  0.8183 -0.0968  0.4955
 2682SOL     ow10725   2.769   7.298   3.979  0.2944  0.4121 -0.1413
 2682SOL     hw10726   2.742   7.246   4.054  1.8035 -0.7662 -0.3518
 2682SOL     hw10727   2.811   7.235   3.920  1.4114  1.7229 -0.8136
 2682SOL     vw10728   2.771   7.283   3.981  0.6410  0.4296 -0.2577
 2683SOL     ow10729   7.143   2.996   4.163  0.5654  0.5652  0.3489
 2683SOL     hw10730   7.143   2.948   4.246  1.3760  1.8972  1.1417
 2683SOL     hw10731   7.234   2.991   4.133 -0.2151 -2.4490 -2.0404
 2683SOL     vw10732   7.155   2.989   4.170  0.5693  0.3432  0.1383
 2684SOL     ow10733   0.953   0.606   0.320 -0.0498  0.5357 -0.4059
 2684SOL     hw10734   1.032   0.554   0.302  1.1010  2.7313 -2.1730
 2684SOL     hw10735   0.928   0.580   0.408  2.1974 -0.8212 -0.0701
 2684SOL     vw10736   0.960   0.596   0.329  0.3986  0.6464 -0.5948
 2685SOL     ow10737   3.959   0.702   2.215  0.1048 -0.3409 -0.2015
 2685SOL     hw10738   3.866   0.686   2.230  0.1176 -2.9640 -2.1968
 2685SOL     hw10739   3.963   0.786   2.170 -1.2561 -0.1116  0.0703
 2685SOL     vw10740   3.948   0.711   2.211 -0.0732 -0.6568 -0.4288
 2686SOL     ow10741   5.694   6.730   5.442 -0.0155 -0.1501  0.0515
 2686SOL     hw10742   5.672   6.792   5.512 -0.2375 -1.5542  1.2748
 2686SOL     hw10743   5.773   6.766   5.403 -1.2106  1.9268 -0.5919
 2686SOL     vw10744   5.701   6.743   5.446 -0.2029 -0.0613  0.1280
 2687SOL     ow10745   5.917   1.564   5.093 -0.3297 -0.0857 -0.4063
 2687SOL     hw10746   5.977   1.529   5.027  1.0706 -0.2878  0.9104
 2687SOL     hw10747   5.881   1.486   5.136 -0.7409  0.0460 -0.5098
 2687SOL     vw10748   5.920   1.549   5.090 -0.1993 -0.0950 -0.2465
 2688SOL     ow10749   7.283   4.721   1.583  0.4294 -0.2981  0.2326
 2688SOL     hw10750   7.294   4.792   1.520 -0.6014 -0.9907 -0.7707
 2688SOL     hw10751   7.210   4.748   1.638 -1.1285 -1.2752 -1.2461
 2688SOL     vw10752   7.275   4.734   1.582  0.0880 -0.5181 -0.0949
 2689SOL     ow10753   5.619   7.014   5.311  0.4125  0.3965  0.2181
 2689SOL     hw10754   5.533   6.972   5.310  0.3069  0.5346  1.4969
 2689SOL     hw10755   5.614   7.081   5.243 -1.0904  1.5141  1.3508
 2689SOL     vw10756   5.607   7.017   5.302  0.2003  0.5622  0.5362
 2690SOL     ow10757   3.916   7.015   4.496 -0.1790  0.9353  0.5731
 2690SOL     hw10758   3.981   7.082   4.477  0.2901  0.0535 -1.1294
 2690SOL     hw10759   3.835   7.049   4.458 -0.0367  0.7317  0.0838
 2690SOL     vw10760   3.914   7.028   4.488 -0.0982  0.7923  0.2840
 2691SOL     ow10761   5.923   3.990   3.688 -0.0455 -0.0296  0.5916
 2691SOL     hw10762   5.968   4.025   3.765 -1.9660  0.8594  1.3846
 2691SOL     hw10763   5.849   4.049   3.674 -0.1649 -0.5845 -1.5288
 2691SOL     vw10764   5.919   4.002   3.696 -0.3147  0.0143  0.4166
 2692SOL     ow10765   3.335   3.878   5.507 -0.8057  0.3744 -0.1637
 2692SOL     hw10766   3.264   3.930   5.544 -2.3170 -3.0837  2.3307
 2692SOL     hw10767   3.292   3.806   5.462  1.1452 -0.4554 -0.8438
 2692SOL     vw10768   3.320   3.876   5.506 -0.7478 -0.1913  0.0756
 2693SOL     ow10769   2.615   3.762   0.695 -0.0845 -0.0139  0.1086
 2693SOL     hw10770   2.651   3.835   0.646  0.4736  0.1204  0.7044
 2693SOL     hw10771   2.576   3.802   0.773  0.0917 -0.3319  0.3635
 2693SOL     vw10772   2.615   3.777   0.699  0.0123 -0.0381  0.2208
 2694SOL     ow10773   6.799   4.207   0.629  1.0660 -0.8649 -0.5403
 2694SOL     hw10774   6.842   4.287   0.657 -0.1574 -0.7370  1.1262
 2694SOL     hw10775   6.817   4.144   0.699 -0.8731 -0.9749 -0.0885
 2694SOL     vw10776   6.807   4.209   0.642  0.6487 -0.8624 -0.2608
 2695SOL     ow10777   5.317   5.366   5.418 -0.7865 -0.2773  0.4858
 2695SOL     hw10778   5.362   5.417   5.350  0.6931 -2.5984 -0.3745
 2695SOL     hw10779   5.296   5.283   5.376 -1.2105 -1.2058  2.4311
 2695SOL     vw10780   5.320   5.362   5.403 -0.6471 -0.7060  0.6289
 2696SOL     ow10781   5.000   3.195   4.736  0.4752 -0.2837  0.7072
 2696SOL     hw10782   5.090   3.166   4.753  0.3521  0.2183  2.4630
 2696SOL     hw10783   4.953   3.174   4.817 -0.8162  0.1599  0.1003
 2696SOL     vw10784   5.005   3.188   4.749  0.2885 -0.1589  0.8588
 2697SOL     ow10785   0.149   4.919   1.723  0.3587 -0.9108 -0.3172
 2697SOL     hw10786   0.108   4.987   1.775 -1.0111 -1.5311 -0.5478
 2697SOL     hw10787   0.242   4.940   1.725 -0.1491  1.9985 -1.8688
 2697SOL     vw10788   0.156   4.931   1.730  0.1110 -0.6084 -0.5524
 2698SOL     ow10789   0.677   2.078   1.374  0.0979 -0.2603 -0.2845
 2698SOL     hw10790   0.582   2.084   1.372  0.1602  1.3069  0.1665
 2698SOL     hw10791   0.703   2.086   1.282 -0.1789 -0.0180 -0.3429
 2698SOL     vw10792   0.668   2.080   1.361  0.0696 -0.0216 -0.2327
 2699SOL     ow10793   6.344   1.466   3.589  0.3175 -0.5761  0.4526
 2699SOL     hw10794   6.273   1.506   3.640 -0.4671  1.1189 -1.8377
 2699SOL     hw10795   6.309   1.381   3.563  0.3071 -0.9990  1.7725
 2699SOL     vw10796   6.330   1.460   3.593  0.2127 -0.4082  0.3246
 2700SOL     ow10797   4.703   1.938   1.954  0.2615  0.3034  0.4567
 2700SOL     hw10798   4.675   1.910   2.041  0.3814 -0.1103  0.3622
 2700SOL     hw10799   4.740   1.860   1.914 -3.0251 -0.5671 -1.3080
 2700SOL     vw10800   4.704   1.924   1.960 -0.1564  0.1339  0.2114
 2701poe    c3110801   1.884   4.268   1.598 -0.5019  0.4104  0.1316
 2701poe     o210802   1.818   4.149   1.563 -0.1062  0.3645 -0.4847
 2701poe    c2310803   1.910   4.042   1.558  0.3626  0.7705 -0.5474
 2701poe    c2310804   1.836   3.920   1.499  0.0731  0.4385  0.4900
 2701poe     o210805   1.896   3.794   1.516 -0.2474  0.2386  0.1285
 2701poe    c2310806   1.823   3.698   1.441 -0.1541  0.2774 -0.0124
 2701poe    c2310807   1.856   3.548   1.436  0.0418  0.3301 -0.3035
 2701poe     o210808   1.977   3.510   1.373 -0.1673 -0.6328 -0.1478
 2701poe    c2310809   2.096   3.547   1.439 -0.3327  0.2803 -0.3425
 2701poe    c2310810   2.224   3.502   1.366 -0.1615  0.0146  0.1192
 2701poe     o210811   2.257   3.366   1.385  0.3233  0.0443 -0.5222
 2701poe    c3110812   2.382   3.329   1.329  0.5597 -0.4437  0.3164
 2702poe    c3110813   6.456   1.114   3.762 -0.2412 -0.1473 -0.0519
 2702poe     o210814   6.365   1.013   3.723 -0.3990  0.1279 -0.4004
 2702poe    c2310815   6.423   0.887   3.699  0.1282  0.2681  0.1285
 2702poe    c2310816   6.337   0.772   3.645 -0.0449  0.4311  0.0581
 2702poe     o210817   6.392   0.650   3.690  0.6094  0.5685 -0.3530
 2702poe    c2310818   6.341   0.537   3.623 -0.0724  0.7792 -0.2008
 2702poe    c2310819   6.235   0.471   3.713  0.1054  0.4609 -0.2219
 2702poe     o210820   6.296   0.408   3.822 -0.4233 -0.0089 -0.1927
 2702poe    c2310821   6.200   0.348   3.906 -0.0612 -0.0403  0.2061
 2702poe    c2310822   6.253   0.257   4.018  0.3167 -0.6295 -0.4423
 2702poe     o210823   6.326   0.329   4.115 -0.6047 -0.1562 -0.0895
 2702poe    c3110824   6.365   0.252   4.227  0.0225 -0.1089 -0.2707
 2703poe    c3110825   4.975   4.809   4.900  0.5835 -0.5422 -0.2785
 2703poe     o210826   5.069   4.889   4.832 -0.1484  0.3748 -0.2209
 2703poe    c2310827   5.190   4.819   4.820 -0.2321  0.1655  0.1534
 2703poe    c2310828   5.317   4.894   4.774 -0.6437  0.9059  0.2205
 2703poe     o210829   5.338   4.926   4.639  0.5344  0.3195  0.2589
 2703poe    c2310830   5.475   4.942   4.608  0.3777 -0.1533 -0.7017
 2703poe    c2310831   5.500   5.006   4.470  0.8160  0.0032 -0.5514
 2703poe     o210832   5.468   5.143   4.469 -1.1829 -0.4140  0.3216
 2703poe    c2310833   5.492   5.204   4.344 -0.0281 -0.3407  0.5645
 2703poe    c2310834   5.425   5.339   4.310 -0.3155 -0.6562 -0.1357
 2703poe     o210835   5.441   5.422   4.422  0.5633 -0.3266 -0.4959
 2703poe    c3110836   5.411   5.553   4.376  0.5716 -0.2157 -0.1868
 2704poe    c3110837   4.178   1.062   6.679  0.5581 -0.6406  0.0542
 2704poe     o210838   4.084   0.957   6.664 -0.1173 -0.0386  0.0362
 2704poe    c2310839   4.143   0.830   6.672 -0.1185 -0.0303  0.1950
 2704poe    c2310840   4.040   0.733   6.609 -0.0435  0.0070  0.0135
 2704poe     o210841   3.910   0.741   6.665  0.2585  0.4547  0.6709
 2704poe    c2310842   3.870   0.619   6.723  0.5104  0.0793  0.0664
 2704poe    c2310843   3.719   0.612   6.749  0.3751  0.1895 -0.6658
 2704poe     o210844   3.691   0.748   6.776  0.3449  0.0204  0.1909
 2704poe    c2310845   3.585   0.748   6.869  0.4767  0.0453  0.3414
 2704poe    c2310846   3.508   0.879   6.894  0.1637 -0.2405  0.8921
 2704poe     o210847   3.591   0.974   6.957  0.3780  0.3870 -0.3146
 2704poe    c3110848   3.538   1.104   6.960 -0.8591 -0.1029 -0.3638
 2705poe    c3110849   1.371   5.960   1.009  0.4374 -0.5361  0.1056
 2705poe     o210850   1.481   6.048   1.000 -0.1747  0.2413  0.2188
 2705poe    c2310851   1.460   6.177   1.053  0.0049  0.4173 -0.1368
 2705poe    c2310852   1.583   6.263   1.021 -0.1360  0.6391 -0.0850
 2705poe     o210853   1.616   6.236   0.886  0.3925  0.5896  0.0503
 2705poe    c2310854   1.739   6.299   0.863  0.6266  0.0774 -0.1210
 2705poe    c2310855   1.778   6.246   0.724  0.1529 -0.2080 -0.1447
 2705poe     o210856   1.795   6.106   0.730  0.1077 -0.2154 -0.1936
 2705poe    c2310857   1.870   6.052   0.623  0.0679  0.0181 -0.3413
 2705poe    c2310858   1.903   5.903   0.641 -0.7712 -0.2090 -0.6337
 2705poe     o210859   1.794   5.813   0.652 -1.0827  0.2103 -0.2533
 2705poe    c3110860   1.852   5.687   0.678  0.0119  0.7757  0.1438
 2706poe    c3110861   5.655   2.265   2.055 -0.2198  0.4514  0.1199
 2706poe     o210862   5.532   2.200   2.081 -0.5468  0.5271 -1.2023
 2706poe    c2310863   5.469   2.265   2.189 -0.1440  0.2817 -0.8169
 2706poe    c2310864   5.360   2.177   2.253  0.5491 -0.0326 -0.0517
 2706poe     o210865   5.414   2.092   2.352  0.6946  0.0122 -0.0928
 2706poe    c2310866   5.341   1.972   2.361  0.1487  0.3328 -0.1819
 2706poe    c2310867   5.204   1.964   2.432  0.3694 -0.1503  0.1988
 2706poe     o210868   5.102   2.024   2.355 -0.1003 -0.8634  0.2619
 2706poe    c2310869   5.074   2.150   2.411 -0.5973 -0.7295 -0.2811
 2706poe    c2310870   4.952   2.220   2.347 -0.0362  0.1408 -0.4169
 2706poe     o210871   4.972   2.238   2.209  0.1759 -0.6322 -0.4949
 2706poe    c3110872   4.857   2.304   2.159  0.0873  0.0847  0.6327
 2707poe    c3110873   1.815   2.654   1.779 -0.0884  0.1159  0.0114
 2707poe     o210874   1.724   2.643   1.672 -0.1667 -0.3913  0.1288
 2707poe    c2310875   1.643   2.758   1.661  0.0952 -0.2176  0.0143
 2707poe    c2310876   1.573   2.757   1.524 -0.1368  0.3683  0.1278
 2707poe     o210877   1.643   2.811   1.414  0.2879  0.1495  0.2924
 2707poe    c2310878   1.652   2.714   1.312  0.1730  0.5556 -0.1079
 2707poe    c2310879   1.743   2.764   1.199 -0.0371  0.0527 -0.5041
 2707poe     o210880   1.877   2.735   1.231 -0.3146 -1.1373 -0.3696
 2707poe    c2310881   1.951   2.749   1.112  0.4140 -0.3012  0.1694
 2707poe    c2310882   2.080   2.666   1.128  0.4557 -0.1446  0.6626
 2707poe     o210883   2.080   2.526   1.112  0.2118 -0.0622 -0.1276
 2707poe    c3110884   2.018   2.450   1.213 -0.5181  0.7776  0.0687
 2708poe    c3110885   1.383   6.275   2.151 -0.4488  0.5828 -0.7378
 2708poe     o210886   1.258   6.210   2.166  0.0156 -0.0468  0.5281
 2708poe    c2310887   1.147   6.292   2.193  0.1492  0.4464 -0.4045
 2708poe    c2310888   1.140   6.357   2.332 -1.1071 -0.4738 -0.0187
 2708poe     o210889   1.102   6.263   2.430 -0.2241 -0.2289  0.5678
 2708poe    c2310890   1.038   6.304   2.549 -0.3393  0.2808  0.3313
 2708poe    c2310891   1.030   6.186   2.647  0.0770  0.2363  0.3155
 2708poe     o210892   1.151   6.125   2.685  0.1343  0.1208 -0.0509
 2708poe    c2310893   1.129   5.990   2.722  0.4513 -0.0949 -0.6410
 2708poe    c2310894   1.219   5.956   2.842 -0.1488  0.0281 -0.1529
 2708poe     o210895   1.347   5.920   2.794 -0.2200 -0.5605  0.0951
 2708poe    c3110896   1.421   5.847   2.890 -0.1974  0.1056  0.5932
 2709poe    c3110897   1.004   4.733   5.568  0.3032  0.2444  0.1762
 2709poe     o210898   1.073   4.750   5.447 -0.1812 -0.2898 -0.1781
 2709poe    c2310899   1.195   4.681   5.428  0.2207  0.3683 -0.0253
 2709poe    c2310900   1.250   4.699   5.286 -0.3303  0.1957 -0.2655
 2709poe     o210901   1.279   4.834   5.257  0.0786  0.0948 -0.3397
 2709poe    c2310902   1.284   4.849   5.117 -0.1638  0.1783 -0.3398
 2709poe    c2310903   1.333   4.992   5.092  0.0366  0.2545  0.4756
 2709poe     o210904   1.226   5.083   5.078  0.0355  0.1553 -0.1931
 2709poe    c2310905   1.287   5.210   5.075  0.0311  0.1634  0.0364
 2709poe    c2310906   1.302   5.260   5.220 -0.3289  0.7336 -0.1187
 2709poe     o210907   1.177   5.290   5.277 -0.7479 -0.3361 -0.4519
 2709poe    c3110908   1.195   5.311   5.415 -0.6210  0.5301 -0.5964
 2710poe    c3110909   5.971   6.115   1.762  0.1879  0.3005  0.9516
 2710poe     o210910   5.832   6.098   1.748  0.3921 -0.7252  0.0024
 2710poe    c2310911   5.794   5.962   1.751 -0.3702 -0.5245 -0.1086
 2710poe    c2310912   5.643   5.949   1.725 -0.3948 -0.5700  0.0487
 2710poe     o210913   5.571   5.986   1.839 -0.5368 -0.8598  0.0531
 2710poe    c2310914   5.438   6.023   1.807 -0.2773 -0.4001 -0.5058
 2710poe    c2310915   5.432   6.150   1.720  0.6249  0.1772  0.2432
 2710poe     o210916   5.471   6.271   1.780 -0.3296  0.2403  0.7537
 2710poe    c2310917   5.456   6.380   1.691 -0.2399 -0.0354  0.3952
 2710poe    c2310918   5.471   6.520   1.755 -0.0975  0.0777  0.1121
 2710poe     o210919   5.360   6.601   1.784  0.3768  0.7986 -0.0421
 2710poe    c3110920   5.250   6.535   1.844  0.2467  0.8155 -0.2621
 2711poe    c3110921   4.677   0.157   1.868  0.1368  0.2765 -0.4298
 2711poe     o210922   4.668   0.097   1.995  0.9668 -0.1990 -0.5848
 2711poe    c2310923   4.756  -0.013   2.007  0.7512 -0.3191 -0.0660
 2711poe    c2310924   4.791  -0.051   2.152  0.2503  0.2426  0.2069
 2711poe     o210925   4.924  -0.014   2.180  0.5404 -0.3096 -0.4069
 2711poe    c2310926   4.957  -0.102   2.285  0.4999 -0.2618 -0.3534
 2711poe    c2310927   5.102  -0.100   2.338  0.2925 -0.4913  0.2273
 2711poe     o210928   5.149   0.027   2.377 -0.2427 -0.1873 -0.1004
 2711poe    c2310929   5.290   0.020   2.381 -0.2367 -0.4986 -0.7515
 2711poe    c2310930   5.356   0.159   2.380 -0.1068 -0.5519 -0.0646
 2711poe     o210931   5.382   0.208   2.250 -0.4412 -0.2303 -0.0102
 2711poe    c3110932   5.450   0.331   2.257 -1.0393  0.1311 -0.4568
 2712poe    c3110933   1.638   2.285   5.561  0.5229 -0.5432 -0.2796
 2712poe     o210934   1.526   2.216   5.613  0.5075 -0.0317  0.3833
 2712poe    c2310935   1.453   2.280   5.715 -0.3269  0.2767 -0.3925
 2712poe    c2310936   1.371   2.400   5.664 -0.3397  0.4175 -0.0428
 2712poe     o210937   1.248   2.361   5.607 -0.1025 -0.7541  0.2248
 2712poe    c2310938   1.153   2.355   5.710  0.0434 -0.2086  0.3944
 2712poe    c2310939   1.025   2.279   5.671  0.0666 -0.0369 -0.0147
 2712poe     o210940   1.085   2.165   5.613 -0.2053 -0.1474 -0.0817
 2712poe    c2310941   0.969   2.088   5.591 -0.4205  0.2439 -0.3378
 2712poe    c2310942   1.025   1.954   5.542 -0.7390 -0.0050 -0.0306
 2712poe     o210943   1.124   1.974   5.443 -0.3723 -0.0263  0.3254
 2712poe    c3110944   1.139   1.851   5.374 -0.2077  0.1852 -0.0183
 2713poe    c3110945   3.131   3.930   4.265  0.0501 -0.0803  0.5209
 2713poe     o210946   2.992   3.920   4.246  0.2071 -0.8792 -0.2519
 2713poe    c2310947   2.930   3.916   4.372  0.2391 -0.9087 -0.2368
 2713poe    c2310948   2.782   3.874   4.362 -0.1607  0.4206 -0.0816
 2713poe     o210949   2.738   3.933   4.242  0.1060 -0.3492 -0.5660
 2713poe    c2310950   2.607   3.892   4.211 -0.4449  0.5210  0.5140
 2713poe    c2310951   2.567   4.001   4.109 -0.4164 -0.1631 -0.2386
 2713poe     o210952   2.660   3.994   4.003 -0.0786 -0.9074  0.0931
 2713poe    c2310953   2.604   4.075   3.902  0.0549 -0.2244  0.5603
 2713poe    c2310954   2.701   4.132   3.797 -0.2435  0.0184  0.4133
 2713poe     o210955   2.789   4.227   3.854 -0.0074 -0.1366  0.3093
 2713poe    c3110956   2.725   4.347   3.891  0.1772  0.0962 -0.1203
 2714poe    c3110957   6.950   3.962   2.083 -0.1014 -0.1027  0.1809
 2714poe     o210958   7.015   4.010   2.198 -0.1423  0.2659  0.0529
 2714poe    c2310959   7.143   4.055   2.158 -0.1069  0.9044  0.8573
 2714poe    c2310960   7.249   4.053   2.270 -0.1931 -0.1117  0.9335
 2714poe     o210961   7.284   3.920   2.298 -0.0256 -0.3441 -0.3182
 2714poe    c2310962   7.414   3.905   2.349  0.0974  0.0475 -0.5154
 2714poe    c2310963   7.474   3.764   2.345  0.2462  0.0574  0.7460
 2714poe     o210964   7.404   3.662   2.413  0.1518 -0.2660  0.1730
 2714poe    c2310965   7.458   3.535   2.385 -0.1974 -0.3375 -0.1978
 2714poe    c2310966   7.393   3.426   2.473 -1.0414  0.4019  0.1093
 2714poe     o210967   7.439   3.425   2.606 -0.2839 -0.6262 -0.1535
 2714poe    c3110968   7.417   3.301   2.670  0.2707 -0.2705  0.7514
 2715poe    c3110969   4.621   2.183   3.637  0.2800 -0.4273 -0.5011
 2715poe     o210970   4.648   2.283   3.733 -0.4009 -0.3898 -0.3430
 2715poe    c2310971   4.534   2.344   3.789 -0.0532 -0.3061  0.2840
 2715poe    c2310972   4.567   2.441   3.903  0.2317 -0.3474  0.2376
 2715poe     o210973   4.610   2.573   3.877 -0.4632 -0.2058 -0.2058
 2715poe    c2310974   4.716   2.581   3.784 -0.3606 -0.0409 -0.0740
 2715poe    c2310975   4.837   2.622   3.870 -0.0928 -0.4511 -0.2564
 2715poe     o210976   4.835   2.753   3.922 -0.3263 -0.4185 -0.3468
 2715poe    c2310977   4.915   2.764   4.038  0.3037  0.1398 -0.8231
 2715poe    c2310978   4.941   2.909   4.080  0.9522 -0.2663  0.2170
 2715poe     o210979   5.017   2.983   3.987 -0.9194  0.4807 -0.7702
 2715poe    c3110980   5.020   3.116   4.033 -0.4570 -0.0044  0.6392
 2716poe    c3110981   5.069   1.836   6.467  0.1372  0.1571  0.4587
 2716poe     o210982   5.196   1.804   6.519  0.2642 -0.0955  0.0041
 2716poe    c2310983   5.215   1.665   6.531 -0.3990 -0.1556  0.3670
 2716poe    c2310984   5.346   1.625   6.601 -0.1999  0.5557  0.4050
 2716poe     o210985   5.358   1.661   6.737 -0.5149  0.3696  0.4815
 2716poe    c2310986   5.310   1.555   6.817 -0.0467 -0.1547  0.0752
 2716poe    c2310987   5.201   1.611   6.910  0.3681  1.0166 -0.1289
 2716poe     o210988   5.241   1.739   6.953  1.0978  0.6033  0.4564
 2716poe    c2310989   5.127   1.822   6.954  0.6505  0.0043 -0.1677
 2716poe    c2310990   5.151   1.943   7.046 -0.4714  0.1226 -0.0224
 2716poe     o210991   5.054   2.045   7.037  0.1774  0.7148 -0.3692
 2716poe    c3110992   5.063   2.125   7.154  0.7721 -0.5779  0.4893
 2717poe    c3110993   4.447   5.608   3.037 -0.5986 -0.0824  0.1835
 2717poe     o210994   4.581   5.580   3.004 -0.3457  0.2651  0.8884
 2717poe    c2310995   4.649   5.674   2.923 -0.3048 -0.5772 -0.0715
 2717poe    c2310996   4.633   5.648   2.772 -0.4355 -0.1223 -0.1379
 2717poe     o210997   4.691   5.521   2.752 -0.1554 -0.0408  0.1423
 2717poe    c2310998   4.704   5.495   2.614  0.4018 -0.1124  0.2058
 2717poe    c2310999   4.802   5.378   2.593  0.2518 -0.1171 -0.5091
 2717poe     o211000   4.758   5.250   2.632 -0.5237  0.0015 -0.9776
 2717poe    c2311001   4.816   5.142   2.563 -0.1742 -0.2362 -0.3135
 2717poe    c2311002   4.769   5.005   2.616  0.4034 -0.3821 -0.1703
 2717poe     o211003   4.630   4.999   2.594  0.3823 -0.0776 -0.1263
 2717poe    c3111004   4.595   4.875   2.652 -0.6299  0.2438 -0.0274
 2718poe    c3111005   5.315   0.083   0.840  0.2518  0.0400 -0.1750
 2718poe     o211006   5.256  -0.041   0.873  0.4754  0.0362  0.2188
 2718poe    c2311007   5.314  -0.126   0.777 -0.3320 -0.3076  0.0263
 2718poe    c2311008   5.285  -0.275   0.802  0.1538 -0.3610  0.2780
 2718poe     o211009   5.155  -0.320   0.773  0.1254 -0.2592  0.2506
 2718poe    c2311010   5.158  -0.453   0.727  0.4046 -0.2036  0.1056
 2718poe    c2311011   5.025  -0.493   0.661 -0.0144  0.2869  0.6412
 2718poe     o211012   4.912  -0.540   0.731 -0.3956 -0.1580 -0.2542
 2718poe    c2311013   4.841  -0.456   0.820  0.1689  0.5580 -0.4739
 2718poe    c2311014   4.715  -0.523   0.877  0.4924  0.1527 -0.2337
 2718poe     o211015   4.616  -0.534   0.777 -0.1017  0.0263  0.3578
 2718poe    c3111016   4.494  -0.552   0.845 -0.3278 -0.2418 -0.1099
 2719poe    c3111017   2.682   4.533   5.691  0.1135 -0.3945 -0.1204
 2719poe     o211018   2.793   4.538   5.605 -0.1897  0.9430 -0.4487
 2719poe    c2311019   2.909   4.522   5.683 -0.3409  0.0894 -0.3903
 2719poe    c2311020   3.035   4.528   5.594 -0.5566 -0.3375 -0.7265
 2719poe     o211021   3.054   4.657   5.540  0.0132  0.1055  0.4856
 2719poe    c2311022   3.184   4.668   5.488 -0.1300  0.4387  0.1927
 2719poe    c2311023   3.224   4.602   5.355  0.2564  0.6944  0.1783
 2719poe     o211024   3.129   4.637   5.257  0.4183  0.0125 -0.2339
 2719poe    c2311025   3.182   4.597   5.133  0.2396  0.2505 -0.3868
 2719poe    c2311026   3.113   4.689   5.030  0.2741  0.2955 -0.3692
 2719poe     o211027   3.142   4.825   5.052  0.0053  0.3261 -0.1899
 2719poe    c3111028   3.036   4.898   4.994 -0.4056  0.3029  0.5266
 2720poe    c3111029   6.115   5.698   5.474 -0.0384 -1.0195  0.2864
 2720poe     o211030   6.138   5.693   5.335  0.0449 -0.2098  0.2648
 2720poe    c2311031   6.153   5.814   5.265  0.0092 -0.5884 -0.4099
 2720poe    c2311032   6.049   5.818   5.152 -0.1668  0.5103 -0.2278
 2720poe     o211033   6.058   5.698   5.077  0.0488 -0.0219  0.6376
 2720poe    c2311034   5.976   5.691   4.963  0.5314  0.2327  0.2726
 2720poe    c2311035   5.994   5.547   4.911 -0.7528  0.1903 -0.1029
 2720poe     o211036   6.013   5.454   5.016  0.3208  0.0329 -0.4237
 2720poe    c2311037   5.964   5.327   4.980  0.6972 -0.2834  0.1685
 2720poe    c2311038   5.835   5.285   5.052  0.4423 -0.4168 -0.3570
 2720poe     o211039   5.857   5.270   5.191  0.1040 -0.3605 -0.2974
 2720poe    c3111040   5.742   5.209   5.247  0.1591 -0.2524 -0.0641
 2721poe    c3111041   2.089   1.861   2.689  0.6651  0.0277 -0.6314
 2721poe     o211042   2.184   1.819   2.785 -0.0372 -0.1857 -0.0124
 2721poe    c2311043   2.216   1.918   2.880  0.5005 -0.3555 -0.0118
 2721poe    c2311044   2.325   1.886   2.984  0.0659 -0.7804  0.3149
 2721poe     o211045   2.443   1.837   2.925  0.0288 -0.2363 -0.2172
 2721poe    c2311046   2.551   1.835   3.015 -0.2876 -0.1984  0.1642
 2721poe    c2311047   2.681   1.867   2.938 -0.0979 -0.0364  0.5473
 2721poe     o211048   2.703   2.006   2.942  0.5915 -0.1446  0.4967
 2721poe    c2311049   2.802   2.033   2.845  0.3102 -0.3349  0.1510
 2721poe    c2311050   2.846   2.181   2.843 -0.1424 -0.1929  0.5806
 2721poe     o211051   2.940   2.209   2.742 -0.0096 -0.0096  0.7531
 2721poe    c3111052   2.975   2.345   2.745  0.1370 -0.0374  0.3955
 2722poe    c3111053   0.700   1.180   2.590  0.6540 -0.1579 -0.3704
 2722poe     o211054   0.686   1.292   2.675 -0.1389 -0.2030 -0.4390
 2722poe    c2311055   0.560   1.303   2.737 -0.2118  0.3703 -0.6821
 2722poe    c2311056   0.549   1.444   2.798  0.9763  0.2449 -0.1626
 2722poe     o211057   0.505   1.535   2.700  0.1240  0.0793  0.0647
 2722poe    c2311058   0.518   1.667   2.748  0.0104  0.0373  0.2126
 2722poe    c2311059   0.561   1.760   2.633 -0.1861 -0.1647 -0.0219
 2722poe     o211060   0.690   1.743   2.580 -0.2183  0.0962 -0.1863
 2722poe    c2311061   0.710   1.821   2.464 -0.8848 -0.0873 -0.4255
 2722poe    c2311062   0.804   1.754   2.362 -0.4275 -0.1475  0.0340
 2722poe     o211063   0.938   1.729   2.399 -0.3715  0.2010  0.0736
 2722poe    c3111064   1.021   1.829   2.345 -0.0791 -0.1011 -0.0420
 2723poe    c3111065   1.617   6.260   3.657 -0.9655  0.1482 -0.0290
 2723poe     o211066   1.741   6.307   3.706 -0.9049  0.3664 -0.3968
 2723poe    c2311067   1.720   6.401   3.809  0.0328 -0.2174  0.3357
 2723poe    c2311068   1.851   6.479   3.831  0.4889 -0.6332 -0.7949
 2723poe     o211069   1.894   6.567   3.729 -0.0869  0.1523 -0.3755
 2723poe    c2311070   2.029   6.606   3.740  0.0660 -0.2938 -0.6474
 2723poe    c2311071   2.058   6.749   3.690 -0.1215  0.0251  0.1382
 2723poe     o211072   2.000   6.844   3.775  0.0333 -0.3645  0.6869
 2723poe    c2311073   2.095   6.930   3.834  0.2302  0.1098 -0.3023
 2723poe    c2311074   2.056   7.003   3.964  0.0907  0.3119 -0.4568
 2723poe     o211075   1.984   7.121   3.937 -0.7627 -0.1541 -0.2636
 2723poe    c3111076   1.966   7.197   4.055  0.0472 -0.2991 -0.0406
 2724poe    c3111077   3.043   5.594   4.146 -0.1519 -0.1061 -0.0542
 2724poe     o211078   2.980   5.533   4.256  0.4167 -0.2104  0.2152
 2724poe    c2311079   2.866   5.461   4.212  0.1397  0.2475  0.1757
 2724poe    c2311080   2.794   5.411   4.338  0.4564 -0.1514  0.2026
 2724poe     o211081   2.764   5.511   4.433 -0.2254  0.1831 -0.3610
 2724poe    c2311082   2.656   5.487   4.520 -0.0033 -0.2225 -0.1982
 2724poe    c2311083   2.669   5.375   4.625  0.5907 -0.2631 -0.3115
 2724poe     o211084   2.674   5.243   4.575  0.2043 -0.4645  0.1750
 2724poe    c2311085   2.670   5.144   4.675 -0.6978  0.0281  0.6455
 2724poe    c2311086   2.588   5.022   4.628  0.1607 -0.0208 -0.7795
 2724poe     o211087   2.450   5.047   4.636  0.0868 -0.5347 -0.3585
 2724poe    c3111088   2.400   4.968   4.741  0.6019 -0.3004  0.0673
 2725poe    c3111089   0.168   7.180   1.986  0.6076  0.4744 -0.8240
 2725poe     o211090   0.238   7.140   2.102 -0.4383  0.1412 -0.2923
 2725poe    c2311091   0.260   7.251   2.187  0.0155 -0.1113 -0.0801
 2725poe    c2311092   0.309   7.187   2.318  0.0081 -0.2548 -0.1473
 2725poe     o211093   0.437   7.135   2.287 -0.1142 -0.4370 -0.3498
 2725poe    c2311094   0.493   7.073   2.400  0.1541  1.0260  0.3446
 2725poe    c2311095   0.638   7.033   2.365 -0.0060  0.5974  0.1608
 2725poe     o211096   0.725   7.136   2.323 -0.7732  1.3265  0.3323
 2725poe    c2311097   0.820   7.179   2.417 -0.4044  0.1811  0.4927
 2725poe    c2311098   0.872   7.323   2.405 -0.2568  0.0823 -0.0835
 2725poe     o211099   0.995   7.340   2.338  0.1330 -0.0920  0.5773
 2725poe    c3111100   1.095   7.348   2.437  0.4242 -0.0820  0.2839
 2726poe    c3111101   2.043   3.309   2.976 -0.1361 -0.1362  0.3650
 2726poe     o211102   1.986   3.316   2.847  0.7981 -0.2763 -0.0695
 2726poe    c2311103   2.073   3.380   2.756  0.5568  0.0914 -0.0465
 2726poe    c2311104   2.115   3.528   2.763  0.1185  0.2153 -0.0085
 2726poe     o211105   2.011   3.614   2.723 -0.0158  0.0810  0.0514
 2726poe    c2311106   1.968   3.621   2.589 -0.0018 -0.1124  0.0369
 2726poe    c2311107   1.858   3.723   2.554 -0.3691 -0.3596  0.4506
 2726poe     o211108   1.737   3.674   2.605 -0.4804 -0.3451  0.1979
 2726poe    c2311109   1.641   3.719   2.511 -0.0961  0.1407  0.0382
 2726poe    c2311110   1.501   3.658   2.526  0.2574 -0.6963  0.0112
 2726poe     o211111   1.493   3.532   2.464  0.5497 -0.2825 -0.8774
 2726poe    c3111112   1.368   3.521   2.400 -0.1019  0.3420  0.2620
 2727poe    c3111113   7.271   1.000   2.174 -0.2366 -0.3319  0.6149
 2727poe     o211114   7.342   1.027   2.292  0.6466  0.3251 -0.0553
 2727poe    c2311115   7.458   1.104   2.271  0.1721  1.0385 -0.0966
 2727poe    c2311116   7.541   1.148   2.393 -0.0935 -0.4124  0.6265
 2727poe     o211117   7.480   1.234   2.487 -0.7509 -0.7044  0.4758
 2727poe    c2311118   7.566   1.281   2.589 -0.2676 -0.1293 -0.1884
 2727poe    c2311119   7.505   1.394   2.672 -0.3122  0.0117 -0.4128
 2727poe     o211120   7.446   1.335   2.786  1.0369 -0.7311 -0.0830
 2727poe    c2311121   7.481   1.419   2.894 -0.4958  0.1096 -0.2199
 2727poe    c2311122   7.429   1.369   3.030 -0.2903  0.1748 -0.1171
 2727poe     o211123   7.300   1.403   3.077 -0.4261  0.5161 -0.7218
 2727poe    c3111124   7.201   1.320   3.019  0.1033 -0.3553 -0.4108
 2728poe    c3111125   0.624   1.780   4.508 -0.4692  0.0663  0.4124
 2728poe     o211126   0.569   1.770   4.378 -0.0577 -0.5643  0.2813
 2728poe    c2311127   0.678   1.751   4.291  0.2155  0.1990  0.4472
 2728poe    c2311128   0.676   1.845   4.170 -0.3239  0.1739  0.4362
 2728poe     o211129   0.544   1.824   4.124 -0.0456 -0.4088 -0.1207
 2728poe    c2311130   0.527   1.869   3.991  0.5854 -0.3946 -0.1991
 2728poe    c2311131   0.403   1.831   3.909  0.3813  0.5701 -0.3483
 2728poe     o211132   0.403   1.691   3.893 -0.3743  0.4882  0.2820
 2728poe    c2311133   0.343   1.657   3.771  0.6320 -0.1008 -0.0586
 2728poe    c2311134   0.356   1.510   3.726 -0.0578 -0.1009 -0.2724
 2728poe     o211135   0.321   1.484   3.592 -0.0379 -0.1111 -0.2758
 2728poe    c3111136   0.310   1.344   3.575 -0.2510 -0.0897 -0.3228
 2729poe    c3111137   4.330   1.295   1.163 -0.0653 -0.1455  0.1281
 2729poe     o211138   4.404   1.415   1.163 -0.2253 -0.0452  0.3479
 2729poe    c2311139   4.517   1.399   1.080 -0.5575 -0.4884 -0.0277
 2729poe    c2311140   4.595   1.532   1.084 -0.5572 -0.5031  0.4974
 2729poe     o211141   4.498   1.632   1.061  0.4227  0.2730 -0.2999
 2729poe    c2311142   4.538   1.764   1.090 -0.0403  0.3359  0.0559
 2729poe    c2311143   4.417   1.860   1.084  0.0443  0.4802  0.5773
 2729poe     o211144   4.330   1.781   1.162 -0.1600  0.2137  0.0856
 2729poe    c2311145   4.196   1.824   1.148 -0.0942  0.2761 -0.3783
 2729poe    c2311146   4.122   1.752   1.262 -0.2803  0.1362 -0.5881
 2729poe     o211147   4.172   1.620   1.270 -0.0620  0.2590  0.1433
 2729poe    c3111148   4.115   1.565   1.386 -0.0958 -0.5236 -0.2362
 2730poe    c3111149   4.303   0.762   1.095  0.0778  0.1631 -0.0642
 2730poe     o211150   4.373   0.864   1.028  0.0644  0.1003 -0.1736
 2730poe    c2311151   4.362   0.859   0.887 -0.3690 -0.2852 -0.1276
 2730poe    c2311152   4.472   0.776   0.819 -0.2549 -0.2521  0.0151
 2730poe     o211153   4.597   0.842   0.817 -0.2266 -0.3143 -0.5327
 2730poe    c2311154   4.659   0.835   0.691  0.9736 -0.9764  0.0823
 2730poe    c2311155   4.719   0.977   0.691 -0.0311 -0.5443  0.4278
 2730poe     o211156   4.772   1.018   0.815  0.3874  0.1263  0.0320
 2730poe    c2311157   4.869   1.120   0.814  0.4280  0.0857 -0.6179
 2730poe    c2311158   4.959   1.085   0.934  0.1137  0.4939 -0.2569
 2730poe     o211159   4.873   1.060   1.042  0.1907  0.6637 -0.1563
 2730poe    c3111160   4.946   1.043   1.162 -0.0970 -0.1571 -0.0862
 2731poe    c3111161   1.971   3.726   3.119 -0.2112  0.3659  0.3306
 2731poe     o211162   1.855   3.647   3.136 -0.3240  0.4972  0.1674
 2731poe    c2311163   1.766   3.659   3.027 -0.6865  0.4062  0.4555
 2731poe    c2311164   1.665   3.544   3.010 -0.1755  0.0766 -0.3852
 2731poe     o211165   1.723   3.418   2.986  0.5893  0.4055 -0.2733
 2731poe    c2311166   1.635   3.314   3.021  0.8767  0.2754  0.0662
 2731poe    c2311167   1.694   3.173   3.003  0.4701  0.0672  0.3497
 2731poe     o211168   1.722   3.159   2.866  0.1800  0.1048  0.2859
 2731poe    c2311169   1.787   3.034   2.869 -0.0775 -0.0614 -0.7637
 2731poe    c2311170   1.807   3.001   2.719  0.8178  0.0046 -0.6683
 2731poe     o211171   1.859   3.124   2.673  0.4201  0.5219  0.2383
 2731poe    c3111172   1.911   3.122   2.543  0.0472  0.1080  0.0925
 2732poe    c3111173   0.455   0.062   3.139 -0.7560 -0.5683 -0.0460
 2732poe     o211174   0.470   0.084   3.278  0.1464  0.0078 -0.2254
 2732poe    c2311175   0.373   0.181   3.310  0.1110 -0.1679  0.2022
 2732poe    c2311176   0.403   0.210   3.459 -0.1410  0.2062  0.1820
 2732poe     o211177   0.406   0.095   3.541 -0.6248  0.0862  0.0368
 2732poe    c2311178   0.387   0.123   3.678 -0.6766 -0.1978  0.0876
 2732poe    c2311179   0.376  -0.006   3.761  0.5043 -0.2432  0.1842
 2732poe     o211180   0.483  -0.086   3.715 -0.0559 -0.6894 -0.3456
 2732poe    c2311181   0.511  -0.203   3.788  0.3586 -0.1415  0.3759
 2732poe    c2311182   0.405  -0.313   3.767  0.4231 -0.0675 -0.3495
 2732poe     o211183   0.400  -0.373   3.639  0.0976 -0.1606 -0.2949
 2732poe    c3111184   0.332  -0.496   3.646 -0.4764  0.1645 -0.0865
 2733poe    c3111185   4.511   0.285   5.496 -0.2509 -0.0057  0.1592
 2733poe     o211186   4.526   0.294   5.356 -0.0414  0.9657  0.2362
 2733poe    c2311187   4.403   0.335   5.300 -0.4052  0.2423  0.4880
 2733poe    c2311188   4.387   0.299   5.151  0.7569  0.6227  0.2588
 2733poe     o211189   4.429   0.166   5.129  0.4735  0.4938  0.4902
 2733poe    c2311190   4.458   0.137   4.995 -0.4801  0.5214  0.2718
 2733poe    c2311191   4.595   0.164   4.929 -0.5944  0.0715 -0.1627
 2733poe     o211192   4.698   0.086   4.986 -0.9798 -0.6751 -0.4709
 2733poe    c2311193   4.811   0.065   4.904 -0.1728 -0.1318  0.4829
 2733poe    c2311194   4.916   0.178   4.894 -0.4552  0.0562 -0.4869
 2733poe     o211195   5.038   0.149   4.830 -0.0145  0.2545  0.2505
 2733poe    c3111196   5.118   0.054   4.896 -0.0471  0.3081  0.3671
 2734poe    c3111197   4.763   5.750   5.111 -0.3665  0.6062 -0.2619
 2734poe     o211198   4.732   5.711   4.979  0.2942 -0.2895 -0.1668
 2734poe    c2311199   4.654   5.810   4.915 -0.3405 -0.5624  0.1784
 2734poe    c2311200   4.693   5.817   4.766 -0.5920  0.9560  0.1697
 2734poe     o211201   4.833   5.825   4.752 -0.5663 -0.4949 -0.5774
 2734poe    c2311202   4.861   5.898   4.634  0.6583 -0.4914 -0.2955
 2734poe    c2311203   4.983   5.835   4.565  0.5406 -0.2777 -0.6984
 2734poe     o211204   5.088   5.817   4.657  0.2995 -0.6354 -0.4936
 2734poe    c2311205   5.206   5.802   4.582  0.5393 -0.1465 -0.2202
 2734poe    c2311206   5.331   5.840   4.663  0.2609 -0.5406  0.4040
 2734poe     o211207   5.332   5.973   4.711  0.5961 -0.3414 -0.1464
 2734poe    c3111208   5.461   6.010   4.753  0.3834  0.3400 -0.0888
 2735poe    c3111209   2.598   0.893   4.318  0.2103 -0.1977  0.2895
 2735poe     o211210   2.706   0.807   4.349  0.6773  0.4307  0.4258
 2735poe    c2311211   2.703   0.702   4.444  0.1627  0.0292 -0.0246
 2735poe    c2311212   2.582   0.608   4.430  0.1409 -0.0224  0.5149
 2735poe     o211213   2.591   0.541   4.306  1.0513 -0.3059  0.7210
 2735poe    c2311214   2.527   0.416   4.293 -1.0369  0.8043 -0.1921
 2735poe    c2311215   2.527   0.379   4.143 -0.3928 -0.2916  0.0697
 2735poe     o211216   2.650   0.314   4.123 -0.4838 -0.3395 -0.3497
 2735poe    c2311217   2.736   0.403   4.055 -0.0408 -0.2448  0.3160
 2735poe    c2311218   2.875   0.335   4.055 -0.2219 -0.6290 -0.4427
 2735poe     o211219   2.865   0.210   3.990 -0.4484 -0.8203 -0.0404
 2735poe    c3111220   2.998   0.170   3.968 -0.1854  0.1069 -0.1887
 2736poe    c3111221   6.277   4.225   5.269 -0.1061 -0.3321 -0.1239
 2736poe     o211222   6.324   4.190   5.141  0.1493 -0.4595  0.0050
 2736poe    c2311223   6.355   4.301   5.059  0.2909 -0.1379  0.4927
 2736poe    c2311224   6.441   4.272   4.935 -0.2463  0.0253  0.0789
 2736poe     o211225   6.485   4.387   4.868  0.9624 -0.0975  0.6352
 2736poe    c2311226   6.553   4.365   4.746  0.4020 -0.0096  0.3025
 2736poe    c2311227   6.491   4.281   4.632  0.7708  0.1871 -0.0434
 2736poe     o211228   6.419   4.344   4.529  0.5598  0.5030  0.2925
 2736poe    c2311229   6.446   4.284   4.404 -0.3351 -0.0000  0.3340
 2736poe    c2311230   6.531   4.368   4.307 -0.0289  0.3367  0.8906
 2736poe     o211231   6.449   4.457   4.235 -0.2198 -0.4290  0.1476
 2736poe    c3111232   6.523   4.508   4.126 -0.3436 -0.2813  0.1315
 2737poe    c3111233   3.552   6.070   0.888  0.0328  0.3502  0.1736
 2737poe     o211234   3.632   6.186   0.893  0.0706  0.3286  0.0697
 2737poe    c2311235   3.744   6.166   0.976 -0.0077  0.8410  0.3067
 2737poe    c2311236   3.861   6.261   0.946  0.7100 -0.0449  0.2387
 2737poe     o211237   3.852   6.397   0.982  0.2362 -0.1193  0.4086
 2737poe    c2311238   3.839   6.417   1.121 -0.0929  0.1155  0.3444
 2737poe    c2311239   3.846   6.568   1.152  0.5330  0.1408  0.0894
 2737poe     o211240   3.730   6.625   1.096  0.3993 -0.1725  0.0417
 2737poe    c2311241   3.716   6.755   1.151  0.1868 -0.0961 -0.1948
 2737poe    c2311242   3.577   6.810   1.113  0.1301 -0.3647 -0.3855
 2737poe     o211243   3.544   6.823   0.976 -0.3054  0.2351 -0.2281
 2737poe    c3111244   3.406   6.841   0.949 -0.4503  0.0898  0.3889
 2738poe    c3111245   2.329   2.817   5.108  0.3499 -0.0547  0.5024
 2738poe     o211246   2.300   2.954   5.090 -0.3446 -0.2834 -0.1670
 2738poe    c2311247   2.380   3.005   4.986  0.4124 -0.3872  0.3575
 2738poe    c2311248   2.342   3.152   4.963 -0.3822 -0.6253  0.0959
 2738poe     o211249   2.207   3.172   4.996 -0.3701 -0.2105 -0.1018
 2738poe    c2311250   2.188   3.312   4.994 -0.5167 -0.2337 -0.4964
 2738poe    c2311251   2.043   3.334   5.043  0.0175  1.0608  0.5574
 2738poe     o211252   1.962   3.302   4.932  0.3756 -0.4458  0.7149
 2738poe    c2311253   1.826   3.320   4.966  0.3659 -0.4646  0.6865
 2738poe    c2311254   1.741   3.195   4.940 -0.1174 -0.0169  0.0737
 2738poe     o211255   1.739   3.098   5.043  0.5836 -0.4491 -0.3146
 2738poe    c3111256   1.660   2.985   5.014  0.1048 -0.4148  0.8215
 2739poe    c3111257   7.150   2.479   5.153  0.6644 -0.3286  0.6631
 2739poe     o211258   7.246   2.477   5.050  0.0725  0.1444  0.0961
 2739poe    c2311259   7.245   2.351   4.987 -0.3618  0.1789  0.0360
 2739poe    c2311260   7.367   2.327   4.896 -0.0957  0.1353  0.4041
 2739poe     o211261   7.359   2.442   4.816  0.1168  0.1041  0.3363
 2739poe    c2311262   7.405   2.441   4.683  0.0239  0.0238  0.3044
 2739poe    c2311263   7.305   2.374   4.587 -0.1003  0.2279  0.2919
 2739poe     o211264   7.190   2.456   4.580  0.0579  0.4250 -0.0242
 2739poe    c2311265   7.127   2.438   4.455  0.0513 -0.5625  0.1123
 2739poe    c2311266   7.186   2.519   4.338 -0.4559 -0.1701  0.1273
 2739poe     o211267   7.110   2.495   4.222 -0.1912 -0.0263 -0.0761
 2739poe    c3111268   7.172   2.555   4.110 -0.6818  0.8691  0.1294
 2740poe    c3111269   6.290   7.089   5.640 -0.0365 -0.0697 -0.5457
 2740poe     o211270   6.164   7.139   5.601 -0.3126 -0.3739 -0.0419
 2740poe    c2311271   6.084   7.169   5.713 -0.2940 -0.5171  0.0108
 2740poe    c2311272   5.945   7.188   5.650  0.0356 -0.3635 -0.6695
 2740poe     o211273   5.957   7.254   5.526  0.2008  0.0379 -0.4418
 2740poe    c2311274   5.827   7.278   5.475  0.0806  0.6236  0.1286
 2740poe    c2311275   5.830   7.355   5.342  0.6291  0.1014 -0.1649
 2740poe     o211276   5.932   7.302   5.260  0.6726  0.2508 -0.2073
 2740poe    c2311277   5.940   7.361   5.132  0.4640  0.1234 -0.2811
 2740poe    c2311278   6.075   7.412   5.077  0.5049  0.4275  0.0925
 2740poe     o211279   6.172   7.311   5.090  0.0974 -0.0200 -0.2783
 2740poe    c3111280   6.286   7.343   5.013 -0.3509  0.1554 -0.8746
 2741poe    c3111281   4.941   0.481   5.853  0.8954 -0.3529 -0.2383
 2741poe     o211282   4.913   0.618   5.839  0.6049 -0.3286  0.5131
 2741poe    c2311283   5.007   0.683   5.756 -0.2442  0.2031 -0.0570
 2741poe    c2311284   5.011   0.837   5.751 -0.5046  0.2068 -0.1815
 2741poe     o211285   5.037   0.885   5.881  0.3170 -0.9273  0.0913
 2741poe    c2311286   5.055   1.025   5.880 -0.1348 -0.8622  0.7727
 2741poe    c2311287   5.101   1.091   6.011 -0.5028  0.3041  0.3264
 2741poe     o211288   5.005   1.041   6.101 -0.1808 -0.8830  0.0324
 2741poe    c2311289   5.012   1.106   6.226  0.2381 -0.1648 -0.3545
 2741poe    c2311290   4.972   0.990   6.320  0.1332  0.1396 -0.0227
 2741poe     o211291   5.031   0.875   6.264  0.5366  0.0913  0.4973
 2741poe    c3111292   4.985   0.757   6.326 -0.0338  0.3466  0.5660
 2742poe    c3111293   2.071   4.244   2.795 -0.0598  0.1963 -0.0274
 2742poe     o211294   2.120   4.131   2.726 -0.0342  0.0619  0.2051
 2742poe    c2311295   2.141   4.010   2.794 -0.2795  0.1286  0.4012
 2742poe    c2311296   2.243   3.935   2.706 -0.5052 -0.2012  0.4174
 2742poe     o211297   2.193   3.918   2.575  0.3819  0.4530 -0.0238
 2742poe    c2311298   2.284   3.868   2.480  0.3078 -0.2414  0.2652
 2742poe    c2311299   2.232   3.775   2.369 -0.6827 -0.2723  0.7400
 2742poe     o211300   2.128   3.843   2.304  0.1117  0.4384  0.1813
 2742poe    c2311301   2.086   3.780   2.185  0.4840  0.7226 -0.1046
 2742poe    c2311302   1.941   3.827   2.167  0.2694  0.0542 -0.1579
 2742poe     o211303   1.937   3.968   2.172  0.0447  0.0477 -0.1203
 2742poe    c3111304   1.802   4.006   2.156 -0.0480 -0.0622  0.3856
 2743poe    c3111305   2.197   6.312   1.040  0.2192 -0.2464 -0.1675
 2743poe     o211306   2.103   6.368   1.129  0.1291 -0.4658 -0.1258
 2743poe    c2311307   2.074   6.501   1.093  0.3188 -0.2467  0.5123
 2743poe    c2311308   2.002   6.570   1.211 -0.3306  0.1926 -0.1322
 2743poe     o211309   1.904   6.477   1.252  0.0410 -0.2944 -0.3324
 2743poe    c2311310   1.820   6.519   1.358 -0.0717  0.0455 -0.5551
 2743poe    c2311311   1.707   6.417   1.377 -0.2953  0.3731 -0.1331
 2743poe     o211312   1.764   6.289   1.366 -0.2053  0.4130 -0.1299
 2743poe    c2311313   1.670   6.188   1.396  0.2124 -0.1706 -0.7511
 2743poe    c2311314   1.726   6.045   1.405  0.1872 -0.1382 -0.0605
 2743poe     o211315   1.767   6.008   1.276  0.1805 -0.1140 -0.0695
 2743poe    c3111316   1.768   5.867   1.273  0.4405 -0.1399  0.9511
 2744poe    c3111317   0.910   2.515   3.167 -0.2987  0.2180 -0.3159
 2744poe     o211318   0.777   2.471   3.181 -0.0791 -0.3463  0.0216
 2744poe    c2311319   0.683   2.569   3.142  0.3705  0.0908  0.0222
 2744poe    c2311320   0.547   2.497   3.149  0.4705 -0.1247 -0.2294
 2744poe     o211321   0.509   2.425   3.034 -0.0750 -0.2174  0.0059
 2744poe    c2311322   0.380   2.370   3.046 -0.7010  1.0607 -0.6403
 2744poe    c2311323   0.329   2.287   2.926 -0.1047 -0.2011 -0.0370
 2744poe     o211324   0.328   2.369   2.812 -0.0486  0.1906  0.2401
 2744poe    c2311325   0.279   2.284   2.710 -0.1451  0.2334  0.2511
 2744poe    c2311326   0.211   2.367   2.600  0.5186  0.1579 -0.2184
 2744poe     o211327   0.292   2.420   2.498  0.1385  0.2891 -0.4553
 2744poe    c3111328   0.206   2.444   2.389 -0.3178  0.5759 -0.0337
 2745poe    c3111329   6.702   0.155   4.596 -0.1196 -0.4307  0.0327
 2745poe     o211330   6.756   0.054   4.514  0.5973 -0.1915  0.1964
 2745poe    c2311331   6.703  -0.075   4.538 -0.5266  0.1503 -0.3778
 2745poe    c2311332   6.734  -0.191   4.441 -1.0094 -0.4891  0.2273
 2745poe     o211333   6.670  -0.189   4.315  0.3394  0.1845 -0.4661
 2745poe    c2311334   6.529  -0.186   4.313  0.3231  0.1881  0.2785
 2745poe    c2311335   6.485  -0.102   4.191  0.4557 -0.2995 -0.1063
 2745poe     o211336   6.533  -0.141   4.064  0.0105 -0.1393 -0.3242
 2745poe    c2311337   6.464  -0.061   3.971 -0.3262  0.3063  0.2964
 2745poe    c2311338   6.521  -0.116   3.838  0.0597  0.0905  0.5472
 2745poe     o211339   6.473  -0.242   3.798  0.0321  0.1078  0.5259
 2745poe    c3111340   6.415  -0.228   3.670  0.1672  0.0150  0.4542
 2746poe    c3111341   5.158   1.602   2.401  0.4316 -0.3336 -0.9820
 2746poe     o211342   5.038   1.596   2.327 -0.2483  0.1672  0.0534
 2746poe    c2311343   4.948   1.516   2.399 -0.0249 -0.4905 -0.3929
 2746poe    c2311344   4.848   1.460   2.296 -0.0932 -0.3166 -0.4216
 2746poe     o211345   4.899   1.341   2.239  0.0129 -0.4345 -0.0860
 2746poe    c2311346   4.815   1.293   2.136 -0.3146  0.4592 -0.2481
 2746poe    c2311347   4.875   1.313   1.996  0.0502 -0.0258 -0.1629
 2746poe     o211348   4.893   1.449   1.964  0.3142 -0.1212 -0.4228
 2746poe    c2311349   4.970   1.450   1.846 -0.0358 -0.6013 -0.6600
 2746poe    c2311350   5.073   1.562   1.821 -0.5380  0.0679  0.2216
 2746poe     o211351   5.188   1.539   1.900  0.0059 -0.0145 -0.5803
 2746poe    c3111352   5.253   1.663   1.911  0.1290 -0.0876 -0.4807
 2747poe    c3111353   1.300   4.459   0.140  0.4330  0.1358 -0.1916
 2747poe     o211354   1.189   4.495   0.060  0.0843 -0.2351  0.1233
 2747poe    c2311355   1.226   4.601  -0.025  0.2138 -0.8307 -0.5708
 2747poe    c2311356   1.147   4.588  -0.157 -0.2824 -0.1938 -0.3397
 2747poe     o211357   1.008   4.595  -0.133 -0.1684  0.0535  0.2821
 2747poe    c2311358   0.934   4.547  -0.243  0.3086 -0.2990  0.1122
 2747poe    c2311359   0.787   4.577  -0.209  0.3800 -0.0186  0.1731
 2747poe     o211360   0.742   4.510  -0.093 -0.0965 -0.8898 -0.5091
 2747poe    c2311361   0.601   4.517  -0.083 -0.0009  0.4365  0.1094
 2747poe    c2311362   0.547   4.481   0.056  0.4426 -0.1282  0.1403
 2747poe     o211363   0.584   4.572   0.157  0.4197  0.1237 -0.0764
 2747poe    c3111364   0.547   4.515   0.281  0.4909 -0.6334 -0.3957
 2748poe    c3111365   5.268   2.674   6.763 -0.1548 -0.1001 -0.3487
 2748poe     o211366   5.284   2.535   6.774  0.5549 -0.0564 -0.8195
 2748poe    c2311367   5.173   2.455   6.810  0.1906  0.5818 -0.5216
 2748poe    c2311368   5.151   2.464   6.962  0.1972 -0.2424 -0.4698
 2748poe     o211369   5.265   2.423   7.035  0.0457  0.2365  0.0386
 2748poe    c2311370   5.269   2.414   7.176 -0.1996 -0.0366  0.0311
 2748poe    c2311371   5.409   2.362   7.216  0.0798 -0.1119 -1.0053
 2748poe     o211372   5.508   2.462   7.212  0.3060 -0.2734  0.2070
 2748poe    c2311373   5.577   2.451   7.090 -0.4177  0.2778 -0.2564
 2748poe    c2311374   5.685   2.552   7.048  0.1402 -0.0399  0.4081
 2748poe     o211375   5.603   2.662   7.015  0.3862 -0.1138 -0.4792
 2748poe    c3111376   5.671   2.785   7.021  0.4906 -0.1861 -0.1516
 2749poe    c3111377   4.978   3.639   6.981 -0.1238 -0.2041 -0.0153
 2749poe     o211378   5.096   3.714   6.994 -0.0170 -0.3151 -0.3510
 2749poe    c2311379   5.206   3.703   6.906  0.0625 -0.1867 -0.2689
 2749poe    c2311380   5.228   3.837   6.833  0.2624 -0.2172 -0.2637
 2749poe     o211381   5.126   3.871   6.742  0.3464  0.0836 -0.2460
 2749poe    c2311382   5.122   3.812   6.614 -0.1132 -0.0456 -0.1736
 2749poe    c2311383   5.245   3.825   6.523  0.2024  0.0285  0.2623
 2749poe     o211384   5.271   3.956   6.476  0.1070 -0.0959 -0.1358
 2749poe    c2311385   5.386   3.969   6.395  0.1281  0.1916 -0.0581
 2749poe    c2311386   5.406   4.108   6.331 -0.7430  0.2539 -0.1989
 2749poe     o211387   5.405   4.197   6.440  0.0941  0.2228 -0.1606
 2749poe    c3111388   5.435   4.322   6.381 -0.3589  0.1744 -0.4990
 2750poe    c3111389   4.656   1.819   5.515 -0.3403  0.2832  0.2569
 2750poe     o211390   4.788   1.839   5.561 -0.3540  0.4927  0.2038
 2750poe    c2311391   4.769   1.891   5.691  0.2175  0.8688  0.1402
 2750poe    c2311392   4.903   1.883   5.765  0.2904 -0.2271 -0.0984
 2750poe     o211393   5.005   1.970   5.721  0.1624  0.1430  0.3365
 2750poe    c2311394   4.983   2.107   5.745 -0.4754  0.0512  0.2795
 2750poe    c2311395   5.096   2.197   5.691 -0.3466 -0.1766  0.1709
 2750poe     o211396   5.110   2.224   5.553  0.2170 -0.5104  0.1592
 2750poe    c2311397   5.203   2.329   5.538 -0.6676  0.2299 -0.2621
 2750poe    c2311398   5.224   2.369   5.391 -0.1548  0.4201 -0.1406
 2750poe     o211399   5.303   2.276   5.322 -0.1167  0.5266 -0.2411
 2750poe    c3111400   5.378   2.363   5.239  0.3354 -0.1072 -0.5104
 2751poe    c3111401   4.482   1.073   2.516 -0.2298 -0.0924 -0.2893
 2751poe     o211402   4.388   0.973   2.547  0.2328 -0.3633  0.2660
 2751poe    c2311403   4.333   0.905   2.436 -0.4103  0.1635  0.2566
 2751poe    c2311404   4.230   0.799   2.477  0.3157 -0.2494  1.0406
 2751poe     o211405   4.112   0.855   2.532 -0.0660  0.2899 -0.2803
 2751poe    c2311406   4.028   0.748   2.569  0.4984 -0.2668 -0.5969
 2751poe    c2311407   3.891   0.813   2.591  0.5836 -0.2052 -0.2479
 2751poe     o211408   3.859   0.897   2.482 -0.8167  0.3958  0.5974
 2751poe    c2311409   3.722   0.891   2.450 -0.6857 -0.6269  0.1930
 2751poe    c2311410   3.610   0.967   2.524  0.2076  0.1646  0.7554
 2751poe     o211411   3.585   1.097   2.476 -0.1386 -0.2558 -0.2232
 2751poe    c3111412   3.484   1.163   2.548  0.5947  0.6680 -0.0277
 2752poe    c3111413   7.286   0.436   5.750 -0.0389  0.1326  0.8467
 2752poe     o211414   7.241   0.463   5.619  0.0074 -0.2065  0.7591
 2752poe    c2311415   7.349   0.511   5.540 -0.3771  0.0749  0.3987
 2752poe    c2311416   7.310   0.481   5.394 -0.7596  0.9487  0.3160
 2752poe     o211417   7.301   0.341   5.379  0.2220  0.9297 -0.1890
 2752poe    c2311418   7.222   0.298   5.270 -0.0771  0.4509  0.2129
 2752poe    c2311419   7.176   0.151   5.283  0.4052  0.2976  0.2269
 2752poe     o211420   7.091   0.145   5.396 -0.4952  0.3375 -0.4362
 2752poe    c2311421   7.049   0.012   5.417 -0.4917  0.3802 -0.1669
 2752poe    c2311422   6.979   0.017   5.555 -0.2700 -0.6690 -0.0044
 2752poe     o211423   7.066   0.033   5.665  0.0786  0.0757 -0.3717
 2752poe    c3111424   6.994   0.039   5.786  0.4404  0.3324 -0.1685
 2753poe    c3111425   3.582   5.946   2.659 -0.4775 -0.0877  0.9445
 2753poe     o211426   3.522   6.072   2.636 -0.0378 -0.0553 -0.0791
 2753poe    c2311427   3.613   6.180   2.631 -0.0970 -0.0005  0.0274
 2753poe    c2311428   3.572   6.292   2.534  0.1859  0.1729  0.1072
 2753poe     o211429   3.464   6.372   2.575 -0.4850 -0.1004 -1.0731
 2753poe    c2311430   3.483   6.510   2.552  0.3725 -0.0243  0.0011
 2753poe    c2311431   3.423   6.600   2.661 -0.3938  0.6782 -0.9790
 2753poe     o211432   3.282   6.595   2.667 -0.3125 -0.9472  0.4890
 2753poe    c2311433   3.225   6.674   2.768  0.0535  0.2865 -0.2529
 2753poe    c2311434   3.233   6.614   2.909  0.6654 -0.2548 -0.5123
 2753poe     o211435   3.164   6.491   2.910 -0.2249  0.2344  0.0566
 2753poe    c3111436   3.198   6.428   3.032 -0.2743 -0.2046 -0.1542
 2754poe    c3111437   3.389   1.676   3.153 -0.4254  0.0971  0.4586
 2754poe     o211438   3.407   1.656   3.014 -0.1719 -0.0054  0.5068
 2754poe    c2311439   3.296   1.623   2.934  0.4956 -0.4548 -0.2451
 2754poe    c2311440   3.336   1.581   2.791 -0.3546  0.1458 -0.6678
 2754poe     o211441   3.390   1.682   2.708  0.6907  0.0228 -0.1627
 2754poe    c2311442   3.447   1.618   2.596  0.6802 -0.4578  0.1056
 2754poe    c2311443   3.505   1.705   2.484  0.1179  0.5844  0.6089
 2754poe     o211444   3.639   1.742   2.511  0.6496 -0.7593 -0.0751
 2754poe    c2311445   3.699   1.808   2.402 -0.0444  0.2085  0.1090
 2754poe    c2311446   3.847   1.836   2.433 -0.0672  0.9035 -0.3925
 2754poe     o211447   3.867   1.906   2.554  0.1711  0.0905  0.0444
 2754poe    c3111448   3.995   1.962   2.572  0.1394 -0.0839  0.8643
 2755poe    c3111449   0.997   6.667   6.103  0.3650 -0.2901  0.2037
 2755poe     o211450   1.072   6.596   6.008 -0.2602 -0.6264 -0.0434
 2755poe    c2311451   1.102   6.681   5.899  0.0665 -0.1931  0.3792
 2755poe    c2311452   1.170   6.607   5.782  0.0830  0.9163 -0.3323
 2755poe     o211453   1.073   6.508   5.755  1.0304 -0.2374  0.3835
 2755poe    c2311454   1.126   6.402   5.679  0.0307 -0.4775  0.0026
 2755poe    c2311455   1.071   6.264   5.719  0.2809 -0.8332 -0.8565
 2755poe     o211456   1.121   6.222   5.844 -0.3350  0.3152 -0.2115
 2755poe    c2311457   1.185   6.099   5.818 -0.1334  0.4761 -0.4901
 2755poe    c2311458   1.241   6.030   5.944 -0.3146  0.7712 -0.2458
 2755poe     o211459   1.148   6.019   6.050 -0.2269  0.1378 -0.2307
 2755poe    c3111460   1.123   5.889   6.099  0.1265  0.3911  0.6442
 2756poe    c3111461   2.291   0.497   6.835 -0.2830 -0.6815  0.1778
 2756poe     o211462   2.230   0.597   6.913 -0.1167  0.1740 -0.7662
 2756poe    c2311463   2.120   0.545   6.985 -0.0574  0.6713 -0.3111
 2756poe    c2311464   2.050   0.653   7.069 -0.1453 -0.0240  0.5307
 2756poe     o211465   1.952   0.696   6.977 -0.4390 -0.8283  0.4616
 2756poe    c2311466   1.877   0.804   7.026 -0.2273 -0.1463 -0.6741
 2756poe    c2311467   1.726   0.789   7.055 -0.1210 -0.3087 -0.2010
 2756poe     o211468   1.685   0.691   7.148 -0.0868  0.1787  0.3315
 2756poe    c2311469   1.631   0.579   7.083  0.2419  0.2224 -0.0141
 2756poe    c2311470   1.635   0.449   7.165  0.5835  0.2129 -0.0421
 2756poe     o211471   1.742   0.369   7.122 -0.2167 -1.0889  0.3177
 2756poe    c3111472   1.779   0.289   7.232 -0.1251 -0.5487  0.6817
 2757poe    c3111473   4.887   4.361   5.079  0.4658 -0.1599  0.4171
 2757poe     o211474   4.938   4.236   5.119 -0.5150 -0.8649 -0.5060
 2757poe    c2311475   5.026   4.248   5.228 -0.8917  0.1751 -0.3094
 2757poe    c2311476   5.147   4.161   5.191 -0.5969  0.2356  0.4925
 2757poe     o211477   5.107   4.045   5.122  0.3030  0.1119  0.1654
 2757poe    c2311478   5.223   3.966   5.105  0.2458 -0.0629  0.5854
 2757poe    c2311479   5.187   3.818   5.128 -0.0147 -0.0578  0.2155
 2757poe     o211480   5.063   3.799   5.063 -0.0363  0.1779  0.1886
 2757poe    c2311481   5.025   3.668   5.029  0.1905  0.2940 -0.5522
 2757poe    c2311482   4.896   3.665   4.945  0.1980 -0.2553 -0.5481
 2757poe     o211483   4.932   3.721   4.821  0.1806 -0.1981 -0.5275
 2757poe    c3111484   4.818   3.745   4.741 -0.1416 -0.1863 -0.0664
 2758poe    c3111485   6.213   4.482   5.852  0.1186 -0.1364  0.0269
 2758poe     o211486   6.090   4.435   5.802  0.0390  0.1084 -0.0077
 2758poe    c2311487   6.043   4.533   5.712  0.5827 -0.2546 -0.6907
 2758poe    c2311488   5.937   4.476   5.617 -0.0305 -0.5949  0.1872
 2758poe     o211489   5.809   4.443   5.667 -0.3017  0.2686  0.0716
 2758poe    c2311490   5.714   4.406   5.569 -0.2870 -0.0808  0.1911
 2758poe    c2311491   5.614   4.307   5.632 -0.4060 -0.1882 -0.1644
 2758poe     o211492   5.670   4.193   5.693 -0.0663  0.2866  0.4297
 2758poe    c2311493   5.547   4.131   5.725  0.0455 -0.0464  0.2269
 2758poe    c2311494   5.536   4.076   5.868  1.6056  0.5832  0.6145
 2758poe     o211495   5.593   3.950   5.893  0.0310 -0.2324  0.2311
 2758poe    c3111496   5.618   3.935   6.031 -0.3467 -0.1615  0.3064
 2759poe    c3111497   6.544   1.997   5.468  0.3848 -0.3611 -0.2993
 2759poe     o211498   6.523   2.125   5.413  0.1258 -0.2238  0.1162
 2759poe    c2311499   6.624   2.219   5.440 -0.3301  0.2229  0.3045
 2759poe    c2311500   6.561   2.359   5.444 -0.2589  0.2629  0.0404
 2759poe     o211501   6.494   2.405   5.329  0.0819  0.0897 -0.2306
 2759poe    c2311502   6.450   2.538   5.343  0.2027  0.0740  0.3059
 2759poe    c2311503   6.554   2.652   5.345  0.3341 -0.0395  0.0267
 2759poe     o211504   6.603   2.679   5.215  0.1654 -0.6405 -0.1649
 2759poe    c2311505   6.679   2.798   5.213 -0.0616 -0.5058 -0.9746
 2759poe    c2311506   6.600   2.928   5.191 -0.3511 -0.4872  0.1295
 2759poe     o211507   6.556   2.978   5.315  0.2542  0.6545 -0.0957
 2759poe    c3111508   6.464   3.085   5.316  0.0247  0.4587 -0.2590
 2760poe    c3111509   2.075   4.545   1.239 -0.2466 -0.0284  0.6200
 2760poe     o211510   1.967   4.597   1.313 -0.5820  0.0153  0.1121
 2760poe    c2311511   1.853   4.605   1.232 -0.3262  0.1526 -0.2350
 2760poe    c2311512   1.751   4.678   1.321 -0.0686  0.0405  0.1509
 2760poe     o211513   1.787   4.814   1.326 -0.0947  0.0348  0.5012
 2760poe    c2311514   1.738   4.884   1.439  0.0619 -0.2150  0.7269
 2760poe    c2311515   1.767   5.035   1.451 -0.0238 -0.1674  0.3512
 2760poe     o211516   1.869   5.056   1.545  0.0016  0.4646  0.1890
 2760poe    c2311517   1.816   5.069   1.675 -0.2449  0.1189  0.1244
 2760poe    c2311518   1.931   5.106   1.771  0.0285 -0.0641 -0.1293
 2760poe     o211519   2.001   5.226   1.746 -0.0267  0.0812  0.3849
 2760poe    c3111520   1.992   5.296   1.867  0.6470  0.3961  0.2581
 2761poe    c3111521   4.586   7.306   0.409  0.5636 -0.0982  0.1989
 2761poe     o211522   4.549   7.170   0.418  0.0543  0.0486  0.3399
 2761poe    c2311523   4.481   7.138   0.298 -0.3207  0.0314  0.5535
 2761poe    c2311524   4.431   6.993   0.286 -0.2806  0.0473  0.1991
 2761poe     o211525   4.518   6.883   0.303 -0.5884 -0.3647 -0.8312
 2761poe    c2311526   4.609   6.869   0.196 -0.0447  0.3001 -0.4620
 2761poe    c2311527   4.616   6.717   0.169 -0.2467  0.2425 -0.1988
 2761poe     o211528   4.644   6.629   0.276 -0.4733  0.1632 -0.2040
 2761poe    c2311529   4.660   6.500   0.223  0.1311  0.0529  0.2303
 2761poe    c2311530   4.723   6.403   0.325 -0.0921 -0.2041  0.1274
 2761poe     o211531   4.834   6.449   0.398 -0.0884 -0.0391  0.0186
 2761poe    c3111532   4.870   6.347   0.489 -0.6475 -0.1738  0.0892
 2762poe    c3111533   5.793   4.867   2.438  0.5537 -0.2510 -0.3856
 2762poe     o211534   5.824   4.877   2.575 -0.3646 -1.0351 -0.1117
 2762poe    c2311535   5.739   4.966   2.643  0.4578  0.0689 -0.5010
 2762poe    c2311536   5.781   5.113   2.666  0.8392 -0.1773  0.4085
 2762poe     o211537   5.782   5.176   2.792 -0.0988  1.0769 -0.1975
 2762poe    c2311538   5.867   5.289   2.792  0.7337  0.4557  0.1420
 2762poe    c2311539   5.863   5.363   2.927 -0.2259  0.2666  0.2285
 2762poe     o211540   5.883   5.284   3.042 -0.2101 -0.0258  0.0242
 2762poe    c2311541   5.880   5.353   3.165  0.2509 -0.5069  0.3138
 2762poe    c2311542   5.980   5.465   3.199 -0.0511 -0.1270 -0.0176
 2762poe     o211543   6.112   5.414   3.191 -0.1505 -0.3766 -0.0609
 2762poe    c3111544   6.203   5.515   3.155 -0.7769 -0.1812 -1.1447
 2763poe    c3111545   5.852   5.711   4.027 -0.0397  0.2255  0.0884
 2763poe     o211546   5.910   5.833   3.985 -0.3345  0.1971 -0.4125
 2763poe    c2311547   5.958   5.885   4.107 -0.3078 -0.6936 -0.0321
 2763poe    c2311548   5.869   6.001   4.154  0.4159  0.0550 -0.4770
 2763poe     o211549   5.870   6.097   4.051 -0.7133  0.5211 -0.0702
 2763poe    c2311550   5.957   6.199   4.096  0.4443 -0.1144 -0.8226
 2763poe    c2311551   6.003   6.284   3.976  0.6021  0.5920 -0.2693
 2763poe     o211552   5.896   6.303   3.887 -0.1309  0.2284  0.5291
 2763poe    c2311553   5.943   6.350   3.763 -0.2351 -0.5168  0.2039
 2763poe    c2311554   5.815   6.366   3.678 -0.3276 -0.1295  0.4164
 2763poe     o211555   5.739   6.250   3.702 -0.4200 -0.1494  0.0410
 2763poe    c3111556   5.679   6.201   3.585  0.1853  0.3075 -0.4682
 2764poe    c3111557   7.088   1.854   1.501  0.1562  0.0116  0.0381
 2764poe     o211558   7.073   1.782   1.621  0.2751  0.7049  0.4768
 2764poe    c2311559   7.154   1.667   1.606  0.0780  0.5655  0.4633
 2764poe    c2311560   7.074   1.574   1.699  0.0910 -0.0262 -0.1143
 2764poe     o211561   7.040   1.652   1.811 -0.5505 -0.7988  0.2400
 2764poe    c2311562   7.017   1.569   1.923  0.4485 -0.5904  0.6143
 2764poe    c2311563   6.995   1.658   2.047 -0.2810 -0.4227  0.3685
 2764poe     o211564   6.885   1.744   2.026  0.4171  0.4756  0.3643
 2764poe    c2311565   6.865   1.825   2.140 -0.2838  0.7465  0.0536
 2764poe    c2311566   6.783   1.953   2.114 -0.2638  0.8856  0.6633
 2764poe     o211567   6.867   2.046   2.049  0.2162 -0.0336 -0.0594
 2764poe    c3111568   6.793   2.165   2.037  0.5322  0.1146 -0.5398
 2765poe    c3111569   6.396   2.356   1.814 -0.3423  0.0142 -0.3356
 2765poe     o211570   6.323   2.448   1.737 -0.1351 -0.0925 -0.6660
 2765poe    c2311571   6.192   2.458   1.790  0.2344  0.3668  0.1885
 2765poe    c2311572   6.163   2.566   1.896  0.4843  0.0953  0.5362
 2765poe     o211573   6.153   2.685   1.821  0.5159 -0.1972  0.0645
 2765poe    c2311574   6.194   2.792   1.903  0.1979 -0.2913  0.3455
 2765poe    c2311575   6.238   2.910   1.815  0.6513 -0.4741  0.3232
 2765poe     o211576   6.355   2.900   1.737  0.1018 -0.1417 -0.5673
 2765poe    c2311577   6.369   3.009   1.648 -0.5586  0.4475  0.0294
 2765poe    c2311578   6.517   3.023   1.606 -0.3193 -0.3441  0.5741
 2765poe     o211579   6.586   3.023   1.729 -0.1522 -0.2776  0.4806
 2765poe    c3111580   6.722   3.051   1.707 -0.4196  0.4550 -0.2896
 2766poe    c3111581   2.800   0.346   6.351  0.0262  0.0044  0.0401
 2766poe     o211582   2.777   0.376   6.215 -0.0201  0.4017  0.1346
 2766poe    c2311583   2.859   0.479   6.166 -0.1122  0.1173 -0.6380
 2766poe    c2311584   2.871   0.472   6.013  0.1008 -0.5199 -0.5942
 2766poe     o211585   2.761   0.534   5.951  0.0399 -0.1580 -0.1260
 2766poe    c2311586   2.772   0.545   5.810 -0.4443  0.0709 -0.1481
 2766poe    c2311587   2.644   0.600   5.743  0.0940  0.8256 -0.5689
 2766poe     o211588   2.541   0.521   5.796  0.2577  0.7950 -0.2941
 2766poe    c2311589   2.429   0.534   5.711 -0.4571  0.1528  0.5213
 2766poe    c2311590   2.342   0.425   5.777 -0.6634  0.1408  0.2294
 2766poe     o211591   2.367   0.440   5.914  0.1451  0.3505  0.0631
 2766poe    c3111592   2.276   0.365   5.991  0.1421 -0.1319 -0.4063
 2767poe    c3111593   5.187   6.623   5.280  0.6408  0.3576  0.3452
 2767poe     o211594   5.292   6.537   5.246 -0.1068 -0.2877 -0.3735
 2767poe    c2311595   5.269   6.403   5.285  0.4199 -0.2030  0.2599
 2767poe    c2311596   5.385   6.318   5.231  0.7457  0.5416 -0.2365
 2767poe     o211597   5.377   6.323   5.090  0.6888  0.2910 -0.2437
 2767poe    c2311598   5.445   6.213   5.036 -0.5312 -0.7255  0.2554
 2767poe    c2311599   5.597   6.222   5.014 -0.6023 -0.2243 -0.0374
 2767poe     o211600   5.638   6.291   4.897 -0.0827  0.4187  0.5168
 2767poe    c2311601   5.779   6.289   4.896 -0.0854  0.1130 -0.3656
 2767poe    c2311602   5.836   6.400   4.805  0.1282  0.1847 -0.1465
 2767poe     o211603   5.811   6.530   4.852  0.4235  0.1113  0.2236
 2767poe    c3111604   5.893   6.618   4.778 -0.0129  0.4399  0.1253
 2768poe    c3111605   1.860   7.100   3.553 -0.3442 -0.1310 -0.3281
 2768poe     o211606   1.731   7.092   3.609 -0.5090  0.4320 -0.6184
 2768poe    c2311607   1.720   7.174   3.723 -0.4263 -0.0706 -0.2460
 2768poe    c2311608   1.604   7.126   3.812  0.0791 -0.3651  0.2684
 2768poe     o211609   1.627   7.006   3.882  0.5769 -0.0450  0.6558
 2768poe    c2311610   1.507   6.965   3.943  0.1636  0.0140 -0.1077
 2768poe    c2311611   1.533   6.856   4.048  0.3405 -0.0774 -0.2457
 2768poe     o211612   1.617   6.891   4.155 -0.4018 -0.1177  0.3558
 2768poe    c2311613   1.673   6.786   4.230  1.0100 -0.5711 -1.2655
 2768poe    c2311614   1.806   6.842   4.284  0.1646  0.4473 -0.1998
 2768poe     o211615   1.791   6.938   4.387 -0.1418 -0.1365  0.3053
 2768poe    c3111616   1.905   7.011   4.426  0.6381 -1.1762  0.0318
 2769poe    c3111617   7.188   5.324   2.717 -0.1422  0.1552  0.4071
 2769poe     o211618   7.155   5.288   2.585  0.8420  0.1794  0.1517
 2769poe    c2311619   7.122   5.410   2.522 -0.9612 -0.3407  0.0455
 2769poe    c2311620   7.091   5.396   2.372 -0.1518  0.1124 -0.1722
 2769poe     o211621   7.187   5.476   2.308  0.0301 -0.0970 -0.1618
 2769poe    c2311622   7.186   5.452   2.169 -0.2012  0.1602 -0.2067
 2769poe    c2311623   7.327   5.465   2.108 -0.0859 -0.1918 -0.0215
 2769poe     o211624   7.396   5.342   2.094  0.3186  0.0152  0.1326
 2769poe    c2311625   7.513   5.382   2.027  0.5094 -0.5205  0.1411
 2769poe    c2311626   7.590   5.253   1.993  0.8049 -0.2120 -0.3785
 2769poe     o211627   7.622   5.190   2.115 -0.4093 -0.2809 -0.0777
 2769poe    c3111628   7.679   5.068   2.073  0.3259 -0.1514  0.5071
 2770poe    c3111629   1.480   1.222   2.271 -0.3726 -0.1365  0.8402
 2770poe     o211630   1.613   1.251   2.311 -0.1550  0.4719 -0.2942
 2770poe    c2311631   1.615   1.360   2.401 -0.4670 -0.4709  0.8821
 2770poe    c2311632   1.757   1.411   2.435 -0.1961 -0.6427  0.0391
 2770poe     o211633   1.805   1.333   2.542 -0.1749  0.0239  0.5201
 2770poe    c2311634   1.923   1.376   2.605 -0.1834  0.8493 -0.0048
 2770poe    c2311635   1.951   1.320   2.746 -0.3983 -0.0609 -0.3123
 2770poe     o211636   1.969   1.180   2.748  0.1621  0.0107  0.0017
 2770poe    c2311637   1.884   1.128   2.848  0.6115  0.1460  0.4600
 2770poe    c2311638   1.916   0.979   2.870  0.4317  0.0289 -0.0534
 2770poe     o211639   1.890   0.897   2.758  0.0798  0.4380 -0.2767
 2770poe    c3111640   1.982   0.791   2.772  0.1839  0.5809  0.1467
 2771poe    c3111641   2.330   3.821   6.529  0.0813  0.4521 -0.4494
 2771poe     o211642   2.432   3.762   6.451  0.2482 -0.2125  0.2585
 2771poe    c2311643   2.410   3.623   6.446  0.2243 -0.2015  0.0623
 2771poe    c2311644   2.464   3.566   6.313 -0.3873  0.0358 -0.2888
 2771poe     o211645   2.598   3.601   6.286 -0.3613  0.1598 -0.0005
 2771poe    c2311646   2.653   3.514   6.189  0.2121  0.5124  0.0095
 2771poe    c2311647   2.806   3.528   6.178  0.2802 -0.3293 -0.1700
 2771poe     o211648   2.864   3.643   6.120  0.1103 -0.1536  0.0097
 2771poe    c2311649   2.968   3.685   6.206  0.0191 -0.4006  0.2408
 2771poe    c2311650   3.054   3.797   6.144 -0.1773 -0.0085  0.6754
 2771poe     o211651   2.986   3.918   6.118 -0.6190 -0.2859  0.5256
 2771poe    c3111652   3.068   4.011   6.050 -0.2386 -0.5327  0.6451
 2772poe    c3111653   1.769   4.825   3.221  0.0431  0.0598  0.3645
 2772poe     o211654   1.648   4.881   3.264 -0.5556 -0.5730 -0.4567
 2772poe    c2311655   1.621   4.995   3.186 -0.9587 -0.1438  0.2940
 2772poe    c2311656   1.482   5.051   3.224 -0.8382  0.4021 -0.0501
 2772poe     o211657   1.468   5.051   3.364 -0.2833 -0.4921  0.0182
 2772poe    c2311658   1.353   5.127   3.396 -0.0379 -0.0484 -0.1322
 2772poe    c2311659   1.332   5.148   3.547  0.0247  0.3810 -0.1833
 2772poe     o211660   1.322   5.014   3.590  0.0946  0.4254 -0.0299
 2772poe    c2311661   1.292   5.009   3.728 -0.0089 -0.4823 -0.0774
 2772poe    c2311662   1.268   4.874   3.798  0.4438 -0.6060 -0.1560
 2772poe     o211663   1.399   4.825   3.812  0.7401 -0.0909 -1.0119
 2772poe    c3111664   1.389   4.685   3.797  0.4813 -0.1736 -0.1382
 2773poe    c3111665   3.287   5.292   6.172 -0.4007  0.2571  0.0022
 2773poe     o211666   3.373   5.338   6.070 -0.4440  0.2157 -0.0526
 2773poe    c2311667   3.364   5.479   6.062 -0.6772  0.2032 -0.0290
 2773poe    c2311668   3.465   5.531   5.958 -0.2002  0.2209  0.4379
 2773poe     o211669   3.451   5.445   5.848  0.2335  0.2943  0.3220
 2773poe    c2311670   3.520   5.500   5.738 -0.1487  0.2388  0.0496
 2773poe    c2311671   3.476   5.432   5.608  0.1928  0.1493 -0.0198
 2773poe     o211672   3.494   5.292   5.615  0.2794  0.1537 -0.1555
 2773poe    c2311673   3.421   5.229   5.512  1.3512  0.0967 -0.9017
 2773poe    c2311674   3.445   5.077   5.521  0.3020 -0.0519 -0.4749
 2773poe     o211675   3.432   5.033   5.654  0.1117  0.3895 -0.3462
 2773poe    c3111676   3.395   4.898   5.671  0.0571  0.3357 -0.8801
 2774poe    c3111677   2.883   0.791   1.798  0.6819  0.6690  0.2263
 2774poe     o211678   2.998   0.825   1.724  0.8894  0.2810  0.3682
 2774poe    c2311679   3.075   0.707   1.730 -0.3893 -0.5867  0.1549
 2774poe    c2311680   3.158   0.698   1.600 -0.2438  0.6068  0.1581
 2774poe     o211681   3.087   0.639   1.494  0.0901  0.0216  0.2557
 2774poe    c2311682   3.025   0.738   1.415  1.0565 -0.1134 -0.6892
 2774poe    c2311683   3.016   0.687   1.270  0.4012  0.0787 -0.7176
 2774poe     o211684   2.957   0.785   1.188 -0.6113  0.0933  0.0016
 2774poe    c2311685   2.898   0.739   1.069 -0.6007 -0.0283  0.0436
 2774poe    c2311686   2.752   0.690   1.069 -0.5025 -0.3259 -0.4355
 2774poe     o211687   2.741   0.550   1.086  0.2430 -0.3484 -0.1022
 2774poe    c3111688   2.612   0.502   1.055  0.1446 -0.2348  0.1299
 2775poe    c3111689   1.872   5.435   5.279  0.8959  0.7808 -0.3303
 2775poe     o211690   1.759   5.505   5.233  0.1894  0.2624  0.6033
 2775poe    c2311691   1.675   5.542   5.340 -0.1486  0.5691  0.2361
 2775poe    c2311692   1.529   5.564   5.296 -0.1825  0.0933  0.1103
 2775poe     o211693   1.547   5.637   5.177  0.1295 -0.2876 -0.0800
 2775poe    c2311694   1.425   5.644   5.106  0.1752  0.1301 -0.1159
 2775poe    c2311695   1.461   5.639   4.956 -0.5575  0.6709 -0.3191
 2775poe     o211696   1.599   5.655   4.935 -0.4400  0.3122  0.1474
 2775poe    c2311697   1.660   5.569   4.841 -0.1843 -0.1890  0.7629
 2775poe    c2311698   1.813   5.587   4.837 -0.1781 -0.3751 -0.1775
 2775poe     o211699   1.852   5.593   4.973  0.1328 -0.5840 -0.2564
 2775poe    c3111700   1.992   5.594   4.960  0.1508  1.0020 -0.1384
 2776poe    c3111701   5.132   0.080   5.318 -0.3520 -0.5225  0.2067
 2776poe     o211702   5.011   0.109   5.384 -0.2955  0.2195 -0.0038
 2776poe    c2311703   4.938  -0.011   5.378  0.7344 -0.4295  0.2234
 2776poe    c2311704   4.967  -0.133   5.468 -0.3916 -0.5826  0.3923
 2776poe     o211705   4.969  -0.093   5.603 -0.3036  0.0126  0.2168
 2776poe    c2311706   4.997  -0.186   5.705  0.3504 -0.0010  0.0276
 2776poe    c2311707   5.015  -0.134   5.849  0.2148  0.3188 -0.0704
 2776poe     o211708   4.896  -0.075   5.896  0.1422  0.2896 -0.2184
 2776poe    c2311709   4.925   0.025   5.990 -0.0607  0.1962 -0.0535
 2776poe    c2311710   4.800   0.073   6.066 -0.2313 -0.0675 -0.1669
 2776poe     o211711   4.692   0.090   5.975 -0.4394  0.0590  0.1017
 2776poe    c3111712   4.581   0.146   6.041 -0.3584  0.3253  0.0103
 2777poe    c3111713   0.939   4.093   5.969 -0.0662  0.9246  0.0643
 2777poe     o211714   0.850   4.075   5.860  0.1233  0.1505  0.0330
 2777poe    c2311715   0.864   3.953   5.792 -0.2808 -0.2328  0.6316
 2777poe    c2311716   0.801   3.948   5.652 -0.0458  0.5676  0.4922
 2777poe     o211717   0.859   4.044   5.567 -0.0619 -0.1837 -0.3857
 2777poe    c2311718   0.965   3.989   5.492 -0.0033 -0.3106 -0.2101
 2777poe    c2311719   1.054   4.100   5.433  0.5628 -0.4779  0.3144
 2777poe     o211720   1.087   4.178   5.545 -0.6814 -0.0933  0.4347
 2777poe    c2311721   1.090   4.318   5.523 -0.7108 -0.1310  0.1872
 2777poe    c2311722   1.093   4.390   5.659 -0.0255 -0.4359  0.3420
 2777poe     o211723   1.220   4.412   5.715 -0.0115  0.2103  0.0567
 2777poe    c3111724   1.221   4.484   5.836 -0.0540  0.3430 -0.0210
 2778poe    c3111725   3.559   5.764   3.061 -0.5025  0.5756  0.0307
 2778poe     o211726   3.632   5.846   3.149 -0.3485 -0.1660  0.6031
 2778poe    c2311727   3.744   5.769   3.186  0.1705 -0.1212 -0.8140
 2778poe    c2311728   3.832   5.833   3.295 -0.5991 -0.1577 -0.1606
 2778poe     o211729   3.907   5.940   3.243  0.6098 -0.5372  0.7430
 2778poe    c2311730   3.979   6.000   3.348  0.1029 -0.3338  0.9777
 2778poe    c2311731   4.050   6.130   3.303 -0.6087 -0.4221 -0.4556
 2778poe     o211732   3.963   6.220   3.239 -0.1961  0.1334 -0.2404
 2778poe    c2311733   4.032   6.328   3.180 -0.1338  0.1731 -0.0926
 2778poe    c2311734   3.922   6.412   3.113 -0.0815  0.0940 -0.2781
 2778poe     o211735   3.845   6.335   3.024 -0.2512  0.1566 -0.1866
 2778poe    c3111736   3.751   6.406   2.947 -0.2289  0.3465 -0.0380
 2779poe    c3111737   0.866   0.449   7.146 -0.6591 -0.0849  0.4782
 2779poe     o211738   0.767   0.504   7.230 -0.0383  0.5752  0.7898
 2779poe    c2311739   0.646   0.440   7.195  0.3146  0.3341 -0.0140
 2779poe    c2311740   0.530   0.486   7.285  0.0560  0.0422 -0.1944
 2779poe     o211741   0.563   0.443   7.415 -0.0623  0.2482 -0.0953
 2779poe    c2311742   0.455   0.475   7.499 -0.3610 -0.3916 -0.2296
 2779poe    c2311743   0.457   0.413   7.640 -0.7286 -0.1898 -0.1319
 2779poe     o211744   0.572   0.471   7.696 -0.9850  0.1395  0.0539
 2779poe    c2311745   0.595   0.426   7.828  0.5425 -0.2403 -0.3253
 2779poe    c2311746   0.681   0.298   7.837  0.6047 -0.1746  0.0158
 2779poe     o211747   0.614   0.180   7.802  0.1862  0.0871 -0.0674
 2779poe    c3111748   0.687   0.061   7.820 -0.4464 -0.3704 -0.4692
 2780poe    c3111749   4.615   1.949   0.735 -0.4591 -0.1443 -0.2531
 2780poe     o211750   4.528   1.908   0.633 -0.4557 -0.2684 -0.2053
 2780poe    c2311751   4.585   1.814   0.545  0.5659 -0.2011  0.3750
 2780poe    c2311752   4.519   1.817   0.406 -0.0443  0.1952  0.6695
 2780poe     o211753   4.380   1.820   0.428 -0.1316  0.2403  0.1414
 2780poe    c2311754   4.326   1.791   0.302  0.0966 -0.1103  0.1208
 2780poe    c2311755   4.200   1.876   0.276  0.3471  0.2117 -0.0585
 2780poe     o211756   4.201   2.004   0.333 -0.0818 -0.0336  0.5110
 2780poe    c2311757   4.087   2.085   0.313  0.4242  0.4789 -0.3718
 2780poe    c2311758   4.063   2.185   0.427 -0.4028 -0.0357 -0.0897
 2780poe     o211759   4.177   2.265   0.446 -0.5743  0.3658 -0.7114
 2780poe    c3111760   4.141   2.371   0.532  0.2091  0.0518  0.0199
 2781poe    c3111761   3.763   0.128   0.216  0.0634  0.2767 -0.2832
 2781poe     o211762   3.633   0.084   0.248  0.3853 -0.2597  0.3099
 2781poe    c2311763   3.626   0.031   0.379 -0.3178  0.1593  0.4523
 2781poe    c2311764   3.480  -0.014   0.395 -0.1456 -0.5855  0.0000
 2781poe     o211765   3.423  -0.059   0.274 -0.6773  0.7592 -0.2624
 2781poe    c2311766   3.296  -0.119   0.288 -0.4005  0.2470  0.0860
 2781poe    c2311767   3.274  -0.265   0.331 -0.6353  0.1181 -0.4591
 2781poe     o211768   3.247  -0.349   0.221 -0.4115  0.6423 -0.9214
 2781poe    c2311769   3.243  -0.480   0.275  0.8196  0.5818 -0.9520
 2781poe    c2311770   3.152  -0.574   0.195  0.0203  0.2946  0.2758
 2781poe     o211771   3.021  -0.527   0.169  0.1691  0.2715 -0.5311
 2781poe    c3111772   2.936  -0.621   0.107  0.1126  0.4590 -0.7370
 2782poe    c3111773   3.091   0.412   4.985 -0.7189  1.0559  0.1063
 2782poe     o211774   3.067   0.387   4.848  0.3114  0.1237  0.0771
 2782poe    c2311775   2.948   0.453   4.812  0.1155 -0.1806  0.1608
 2782poe    c2311776   2.991   0.571   4.723 -0.2335 -0.3281 -0.2086
 2782poe     o211777   3.043   0.684   4.790  0.3487 -0.5270 -0.3224
 2782poe    c2311778   3.060   0.794   4.704 -0.3095 -0.6329 -0.5881
 2782poe    c2311779   3.178   0.872   4.763 -0.9406 -0.1225  0.0180
 2782poe     o211780   3.152   0.934   4.887  0.8811 -0.5101  0.6273
 2782poe    c2311781   3.235   1.043   4.920  0.1381  0.3143 -0.1904
 2782poe    c2311782   3.206   1.130   5.044 -0.0220 -0.0659  0.0406
 2782poe     o211783   3.087   1.203   5.028  0.0227 -0.0829 -0.3702
 2782poe    c3111784   3.111   1.340   5.008  0.5361 -0.1179 -0.0023
 2783poe    c3111785   4.283   0.686   3.629  0.6267  0.3191  0.3480
 2783poe     o211786   4.299   0.552   3.673  0.0565  0.0756 -0.1735
 2783poe    c2311787   4.329   0.541   3.810  0.1878 -0.3417 -0.2339
 2783poe    c2311788   4.422   0.421   3.833  0.4580 -0.0072  0.4470
 2783poe     o211789   4.353   0.302   3.802  0.5485  0.1869 -0.5394
 2783poe    c2311790   4.432   0.188   3.826 -0.3396 -0.2839  0.2187
 2783poe    c2311791   4.481   0.121   3.696  0.1616 -0.1168  0.3197
 2783poe     o211792   4.388   0.046   3.623 -0.1778  0.3262  0.2929
 2783poe    c2311793   4.442   0.000   3.501 -0.3926 -0.0742  0.3443
 2783poe    c2311794   4.342   0.026   3.387  0.1729 -0.3466 -0.2213
 2783poe     o211795   4.313   0.163   3.369  0.3738 -0.3244 -0.3847
 2783poe    c3111796   4.225   0.182   3.260  0.5266  0.7217 -0.3401
 2784poe    c3111797   6.597   1.578   3.889 -0.2654 -0.3173 -0.4069
 2784poe     o211798   6.654   1.692   3.828 -0.4788  0.0592  0.0886
 2784poe    c2311799   6.611   1.818   3.876  0.4316  0.1800  0.6114
 2784poe    c2311800   6.704   1.928   3.822  0.3251  0.0705  0.2014
 2784poe     o211801   6.706   1.933   3.681  0.0008  0.1761  0.1991
 2784poe    c2311802   6.837   1.975   3.648  0.0473 -0.1067  0.0255
 2784poe    c2311803   6.852   1.986   3.495 -0.4960 -0.2714 -0.0395
 2784poe     o211804   6.851   1.862   3.427  0.9101 -0.3068 -0.0120
 2784poe    c2311805   6.899   1.892   3.298  0.0934 -0.7637 -0.4265
 2784poe    c2311806   6.904   1.769   3.207  0.4897 -0.5339 -0.7155
 2784poe     o211807   6.916   1.665   3.302 -0.1228  0.1162  0.0857
 2784poe    c3111808   6.962   1.548   3.238 -0.2581 -0.1540  0.4776
 2785poe    c3111809   2.188   1.994   4.273 -0.5523  0.3189 -0.0408
 2785poe     o211810   2.153   2.001   4.136 -0.8331 -0.3108 -0.0072
 2785poe    c2311811   2.147   2.132   4.082  0.4897 -0.1521  0.1856
 2785poe    c2311812   2.120   2.120   3.931  0.4672 -0.7687  0.2358
 2785poe     o211813   1.986   2.082   3.908  0.0278  0.9135 -0.0746
 2785poe    c2311814   1.959   2.076   3.770 -0.0885 -0.9125  0.0108
 2785poe    c2311815   1.839   1.988   3.731 -0.4539 -0.2854 -0.2842
 2785poe     o211816   1.723   2.034   3.797 -0.5061 -0.5096 -0.2184
 2785poe    c2311817   1.604   1.967   3.765 -0.5456 -0.5668  0.0452
 2785poe    c2311818   1.498   2.062   3.824  0.0526  0.4541 -0.4883
 2785poe     o211819   1.486   2.061   3.964 -0.2072  0.4453 -0.5097
 2785poe    c3111820   1.360   2.117   3.993 -0.3740 -0.1260 -0.1026
 2786poe    c3111821   2.952   4.534   1.243  0.3537  0.1043  0.6617
 2786poe     o211822   2.879   4.640   1.186  0.1038 -0.2939  0.2384
 2786poe    c2311823   2.882   4.650   1.045  0.6636  0.1973  0.2801
 2786poe    c2311824   2.902   4.793   0.992  0.1642 -0.0238 -0.5138
 2786poe     o211825   3.020   4.855   1.039  0.5359 -0.4830 -0.8293
 2786poe    c2311826   2.988   4.992   1.024  0.1942 -0.4788 -0.1148
 2786poe    c2311827   3.111   5.062   1.085  0.2049 -0.3992 -0.2276
 2786poe     o211828   3.237   5.052   1.022  0.4012 -0.5419  0.1882
 2786poe    c2311829   3.315   5.159   1.071 -0.4541  0.0004  0.3804
 2786poe    c2311830   3.453   5.183   1.008 -0.3634 -0.5258  0.3774
 2786poe     o211831   3.549   5.090   1.054  0.6881  0.2356 -0.2209
 2786poe    c3111832   3.668   5.095   0.979  0.5467 -0.3991 -0.4893
 2787poe    c3111833   4.934   6.594   6.676  0.0417  0.1924  0.0579
 2787poe     o211834   4.809   6.532   6.694  0.2746 -0.3891 -0.3177
 2787poe    c2311835   4.839   6.446   6.802 -0.8788 -0.1530  0.2084
 2787poe    c2311836   4.718   6.443   6.897 -0.5798 -0.1007  0.5931
 2787poe     o211837   4.606   6.448   6.811 -0.1401  0.1550  0.0273
 2787poe    c2311838   4.497   6.424   6.896  0.0267  0.1008  0.2274
 2787poe    c2311839   4.374   6.388   6.810  0.6974 -0.4088 -0.5277
 2787poe     o211840   4.327   6.504   6.746  0.4598 -0.3666 -0.2792
 2787poe    c2311841   4.196   6.495   6.694  0.3124  0.1774 -0.0041
 2787poe    c2311842   4.158   6.606   6.593  0.4203  0.2803  0.0673
 2787poe     o211843   4.166   6.736   6.645  0.3891  0.2545  0.1366
 2787poe    c3111844   4.160   6.829   6.539  0.9215  0.7513  0.5332
 2788poe    c3111845   2.415   6.542   4.998 -0.2431 -0.0403  0.2202
 2788poe     o211846   2.285   6.588   5.027 -0.2305  0.0389  0.1493
 2788poe    c2311847   2.233   6.552   5.153  0.8301 -0.4113  0.4674
 2788poe    c2311848   2.151   6.671   5.204  0.8600 -0.0326 -0.3488
 2788poe     o211849   2.032   6.694   5.132  0.1747  0.1431  0.8110
 2788poe    c2311850   1.921   6.609   5.157 -0.1574  0.2950 -0.0907
 2788poe    c2311851   1.790   6.664   5.098 -0.4149 -0.1681  0.0508
 2788poe     o211852   1.797   6.662   4.957 -0.3107  0.3993  0.0452
 2788poe    c2311853   1.690   6.711   4.880 -0.6669 -0.3189  0.0702
 2788poe    c2311854   1.712   6.627   4.753 -0.2153  0.0970 -0.1332
 2788poe     o211855   1.850   6.615   4.727 -0.1643  0.5224 -0.0518
 2788poe    c3111856   1.862   6.539   4.609 -0.3020  0.4623 -0.0260
 2789poe    c3111857   2.620   6.234   5.882 -0.1020  0.0491  0.1988
 2789poe     o211858   2.549   6.343   5.828 -0.2358 -0.0753  0.1232
 2789poe    c2311859   2.408   6.339   5.838 -0.2038  0.1494  0.7139
 2789poe    c2311860   2.362   6.477   5.888 -0.4374  0.3508 -0.0417
 2789poe     o211861   2.222   6.478   5.904 -0.4538  0.1219 -0.1625
 2789poe    c2311862   2.188   6.597   5.973 -0.0465  0.1834 -0.0664
 2789poe    c2311863   2.114   6.701   5.887 -0.0018  0.1617 -0.1308
 2789poe     o211864   1.991   6.650   5.842  0.1108  0.2016 -0.4911
 2789poe    c2311865   1.948   6.728   5.733 -0.2697  0.3191 -0.2585
 2789poe    c2311866   1.810   6.685   5.681 -0.2071 -0.0730 -0.0968
 2789poe     o211867   1.819   6.580   5.587 -0.1633 -0.2721  0.1270
 2789poe    c3111868   1.704   6.530   5.524  0.2808 -0.0939 -0.8405
 2790poe    c3111869   4.634   6.386   0.863  0.8062  0.3914 -0.3399
 2790poe     o211870   4.602   6.254   0.824  0.1495  0.5085 -0.1917
 2790poe    c2311871   4.542   6.256   0.696 -0.2671 -0.4498 -0.0201
 2790poe    c2311872   4.554   6.115   0.635  0.6263 -0.3508 -0.0884
 2790poe     o211873   4.461   6.014   0.668 -0.2110  0.3922 -0.1641
 2790poe    c2311874   4.452   5.915   0.568  0.2734 -0.0780  0.2536
 2790poe    c2311875   4.444   5.768   0.610 -0.5981 -0.0704  0.1314
 2790poe     o211876   4.546   5.730   0.700  0.5175 -0.1060 -1.1221
 2790poe    c2311877   4.545   5.591   0.720  0.2485 -0.0043 -0.3892
 2790poe    c2311878   4.673   5.525   0.774  0.0184 -0.1568 -0.0294
 2790poe     o211879   4.686   5.532   0.914 -0.0725  0.3655 -0.0428
 2790poe    c3111880   4.812   5.482   0.955 -0.2106 -0.0016 -0.0594
 2791poe    c3111881   5.412   1.528   5.429  0.1602 -0.4410  0.1359
 2791poe     o211882   5.407   1.669   5.422 -0.0204 -0.4776 -0.4720
 2791poe    c2311883   5.463   1.719   5.541  0.1490 -0.4069 -0.5813
 2791poe    c2311884   5.426   1.860   5.588  0.3197 -0.5796  0.0724
 2791poe     o211885   5.427   1.869   5.729 -0.4762 -0.0748  0.0517
 2791poe    c2311886   5.439   2.005   5.763 -0.3890 -0.0879  0.0743
 2791poe    c2311887   5.438   2.016   5.917  0.0383 -0.1917  0.0853
 2791poe     o211888   5.349   1.918   5.965  0.0725 -0.3584 -0.1866
 2791poe    c2311889   5.363   1.921   6.106  0.2826  0.0630 -0.2133
 2791poe    c2311890   5.254   1.823   6.154  0.2718  0.1754 -0.0098
 2791poe     o211891   5.253   1.705   6.077  0.4714  0.1006  0.1006
 2791poe    c3111892   5.157   1.612   6.122  0.4811  0.1151  0.1515
 2792poe    c3111893   7.237   7.007   5.494 -0.0863  0.1896  0.1758
 2792poe     o211894   7.261   6.989   5.632 -0.7183 -0.6021  0.1890
 2792poe    c2311895   7.393   6.945   5.658 -0.2468  0.1273 -0.9088
 2792poe    c2311896   7.422   6.965   5.808 -0.2115 -0.8902 -0.7790
 2792poe     o211897   7.401   7.100   5.840  0.2856 -1.0583  0.3099
 2792poe    c2311898   7.274   7.139   5.887  0.6187 -0.0002  0.3544
 2792poe    c2311899   7.271   7.269   5.970  0.3189  0.2305 -0.0180
 2792poe     o211900   7.307   7.377   5.886 -0.3013  0.1482 -0.3989
 2792poe    c2311901   7.343   7.490   5.961 -0.2532 -0.2968  0.2531
 2792poe    c2311902   7.489   7.533   5.936 -0.4093  0.1515  0.1170
 2792poe     o211903   7.508   7.565   5.800 -0.8727  0.3932  0.1058
 2792poe    c3111904   7.631   7.635   5.799 -0.0372 -1.0401  0.1554
 2793poe    c3111905   4.591   0.859   3.467 -0.1978  0.0971  0.5784
 2793poe     o211906   4.541   0.970   3.395 -0.2159 -0.4612 -0.2825
 2793poe    c2311907   4.545   1.094   3.462  0.2436 -0.7771  0.2829
 2793poe    c2311908   4.527   1.216   3.371  0.1273 -1.1297 -0.1732
 2793poe     o211909   4.627   1.217   3.272 -0.3011 -0.2561 -0.6090
 2793poe    c2311910   4.699   1.338   3.264 -0.5360 -0.0764 -0.0511
 2793poe    c2311911   4.793   1.335   3.142 -0.2592 -0.0469  0.1606
 2793poe     o211912   4.723   1.326   3.020 -0.1036  0.9879 -0.0181
 2793poe    c2311913   4.776   1.411   2.921  0.6994 -0.0943 -0.5466
 2793poe    c2311914   4.674   1.426   2.806 -0.3793  0.2526  0.4373
 2793poe     o211915   4.553   1.494   2.831 -0.4700  0.1721  0.2112
 2793poe    c3111916   4.528   1.598   2.739 -0.1627 -0.0968 -0.1798
 2794poe    c3111917   6.458   5.555   1.352 -1.1606 -0.0893  0.6081
 2794poe     o211918   6.471   5.469   1.242  0.2782  0.2769  0.4735
 2794poe    c2311919   6.400   5.352   1.277  0.3946 -0.1332 -0.6248
 2794poe    c2311920   6.427   5.225   1.194 -0.2000 -0.9151  0.3643
 2794poe     o211921   6.417   5.262   1.058  0.9067  0.5043  0.6520
 2794poe    c2311922   6.451   5.157   0.970 -0.4720  0.3846  0.2366
 2794poe    c2311923   6.415   5.196   0.825 -0.4468  0.1835  0.1755
 2794poe     o211924   6.462   5.328   0.805  0.4375 -0.1152  0.2312
 2794poe    c2311925   6.449   5.375   0.673  0.1384 -0.3609  0.1722
 2794poe    c2311926   6.487   5.524   0.663 -0.6004 -0.1943 -0.2872
 2794poe     o211927   6.422   5.577   0.776  0.0432 -0.0588  0.0222
 2794poe    c3111928   6.413   5.717   0.759 -0.2480 -0.1023 -0.1851
 2795poe    c3111929   3.532   4.353   0.409 -0.5118  0.2720  0.0838
 2795poe     o211930   3.436   4.451   0.377 -0.8538 -0.1349 -0.1448
 2795poe    c2311931   3.392   4.535   0.481  0.7204 -0.1446  0.5581
 2795poe    c2311932   3.364   4.679   0.433  0.1080 -0.6115 -0.5231
 2795poe     o211933   3.288   4.672   0.315 -0.2738  0.5081 -0.3556
 2795poe    c2311934   3.284   4.801   0.258  0.2985  0.7517  0.1560
 2795poe    c2311935   3.199   4.814   0.131 -0.0997 -0.6796  0.2637
 2795poe     o211936   3.247   4.732   0.026  0.3957  0.6271 -0.5600
 2795poe    c2311937   3.159   4.753  -0.082 -0.1616  0.1970 -0.1994
 2795poe    c2311938   3.119   4.620  -0.149 -0.2297  0.4401 -0.6458
 2795poe     o211939   3.027   4.545  -0.073  0.8936 -0.0844  0.2277
 2795poe    c3111940   2.980   4.431  -0.142  0.7300 -0.0609  0.3010
 2796poe    c3111941   3.140   4.020   3.362  0.3134 -0.7502 -0.5629
 2796poe     o211942   3.156   4.009   3.502  0.1814 -0.7942 -0.5516
 2796poe    c2311943   3.034   3.993   3.572  0.3059 -0.1331 -0.1757
 2796poe    c2311944   3.040   4.031   3.721  0.2626 -0.4055 -0.1028
 2796poe     o211945   3.060   4.168   3.750 -0.0542 -0.2946 -0.3933
 2796poe    c2311946   3.197   4.199   3.765 -0.0350 -0.6526  0.2259
 2796poe    c2311947   3.217   4.340   3.824 -0.1032 -0.7787  0.5553
 2796poe     o211948   3.152   4.357   3.948 -0.6435  0.0476  0.1663
 2796poe    c2311949   3.132   4.496   3.957 -0.1022  0.1174  0.2860
 2796poe    c2311950   3.242   4.572   4.034  0.1039 -0.2342  0.3437
 2796poe     o211951   3.258   4.539   4.170  0.2441 -0.0023  0.3845
 2796poe    c3111952   3.368   4.619   4.207  0.4855 -0.2745  0.2679
 2797poe    c3111953   1.800   3.208   3.771 -0.1350 -0.3662 -0.2952
 2797poe     o211954   1.726   3.200   3.651 -0.4457 -0.9500 -0.0718
 2797poe    c2311955   1.589   3.232   3.657 -0.2442 -0.0135 -0.2288
 2797poe    c2311956   1.573   3.374   3.600 -0.5801  0.2134  0.4295
 2797poe     o211957   1.590   3.388   3.461 -0.4433  0.5117  0.4751
 2797poe    c2311958   1.466   3.399   3.395 -0.1307 -0.7896 -0.3746
 2797poe    c2311959   1.395   3.536   3.393  0.6254 -0.3934 -0.4685
 2797poe     o211960   1.462   3.637   3.321  0.0943 -0.1024 -0.5547
 2797poe    c2311961   1.393   3.759   3.336  0.2426 -0.1006  0.1604
 2797poe    c2311962   1.452   3.887   3.274 -0.2437 -0.0276 -0.1611
 2797poe     o211963   1.358   3.988   3.303  0.1991  0.3160  0.1078
 2797poe    c3111964   1.363   4.081   3.197 -0.0674  0.6415  0.3792
 2798poe    c3111965   5.186   4.734   3.482  0.6143 -0.2977  0.1397
 2798poe     o211966   5.073   4.789   3.545 -0.0098 -0.7167 -0.6020
 2798poe    c2311967   5.022   4.696   3.637 -0.3782 -0.3659 -0.4478
 2798poe    c2311968   4.879   4.724   3.687 -0.1480 -0.1619  0.1063
 2798poe     o211969   4.865   4.837   3.770 -0.6050 -0.1440  0.0113
 2798poe    c2311970   4.729   4.835   3.804 -0.5054 -0.2680  0.4130
 2798poe    c2311971   4.697   4.940   3.912 -0.1253  0.5709 -0.2806
 2798poe     o211972   4.563   4.936   3.954 -0.1970  0.6620 -0.4979
 2798poe    c2311973   4.548   5.007   4.075 -0.1562 -0.5106  0.2143
 2798poe    c2311974   4.405   5.014   4.130 -0.1023 -0.0994  0.3059
 2798poe     o211975   4.355   4.903   4.202 -0.2919 -0.4344 -0.3354
 2798poe    c3111976   4.220   4.922   4.237 -0.3103 -0.7815 -0.2180
 2799poe    c3111977   3.621   4.492   3.802  0.4631 -0.0008  0.0238
 2799poe     o211978   3.535   4.559   3.713  0.4575  0.6684  0.5265
 2799poe    c2311979   3.555   4.514   3.581 -0.2752 -0.3630  0.7562
 2799poe    c2311980   3.446   4.555   3.480  0.1967 -1.1388 -0.0833
 2799poe     o211981   3.318   4.524   3.529 -0.1075  0.0027 -0.1399
 2799poe    c2311982   3.253   4.444   3.432  0.2417 -0.4218 -0.0247
 2799poe    c2311983   3.105   4.425   3.469  0.0746  0.4055 -0.2522
 2799poe     o211984   3.026   4.541   3.453 -0.0233  0.4064  0.2192
 2799poe    c2311985   2.900   4.521   3.514 -0.0913 -0.2828 -0.1290
 2799poe    c2311986   2.814   4.639   3.466  0.1848 -0.0107  0.0398
 2799poe     o211987   2.861   4.764   3.512  0.0375  0.0223  0.1007
 2799poe    c3111988   2.771   4.866   3.472 -0.0060 -0.3522 -0.7653
 2800poe    c3111989   6.153   0.370   0.238  0.0809  0.3255 -0.7442
 2800poe     o211990   6.021   0.419   0.241 -0.0582 -0.0870  0.3232
 2800poe    c2311991   5.993   0.549   0.196 -0.0709 -0.2542 -0.1585
 2800poe    c2311992   5.841   0.555   0.171 -0.1315 -0.0586  0.2585
 2800poe     o211993   5.799   0.476   0.062  0.3973 -0.1156  0.0930
 2800poe    c2311994   5.659   0.475   0.046  0.4715  0.0993 -0.6014
 2800poe    c2311995   5.614   0.358  -0.042  0.2360  0.0296 -0.3896
 2800poe     o211996   5.633   0.229   0.014  0.1438  0.1037 -0.1851
 2800poe    c2311997   5.556   0.130  -0.050  0.0691 -0.1180  0.2478
 2800poe    c2311998   5.607  -0.007  -0.001 -0.3536 -0.2918  0.2069
 2800poe     o211999   5.581  -0.041   0.134  0.4671 -0.0569  0.4288
 2800poe    c3112000   5.674  -0.143   0.165  0.5338 -0.0867  0.1331
 2801poe    c3112001   3.139   1.422   3.958  0.3712 -0.0552  0.1591
 2801poe     o212002   3.107   1.502   3.847  0.3547 -0.4799 -0.1475
 2801poe    c2312003   3.041   1.618   3.894  0.5813 -0.1214 -0.6983
 2801poe    c2312004   2.994   1.717   3.786 -0.1049 -0.3408 -0.6049
 2801poe     o212005   2.933   1.643   3.682  0.5743  0.0814 -1.3158
 2801poe    c2312006   2.871   1.744   3.606 -0.2126  0.2919 -0.4108
 2801poe    c2312007   2.759   1.655   3.550 -0.2236  0.0500 -0.0115
 2801poe     o212008   2.800   1.546   3.470 -0.0960  0.2784 -0.2583
 2801poe    c2312009   2.681   1.470   3.460  0.0159  0.0964 -0.2038
 2801poe    c2312010   2.699   1.321   3.426  0.1937  0.0819 -0.0474
 2801poe     o212011   2.781   1.248   3.515 -0.6300 -0.4809  0.2629
 2801poe    c3112012   2.751   1.115   3.482 -0.1038 -0.4770 -0.2280
 2802poe    c3112013   3.310   2.211   2.472 -0.1038 -0.0320  0.3140
 2802poe     o212014   3.381   2.196   2.593  0.7744 -0.3444 -0.2316
 2802poe    c2312015   3.346   2.086   2.673 -0.1177  0.0918 -0.0132
 2802poe    c2312016   3.457   2.069   2.778 -0.1089  0.0993 -0.0211
 2802poe     o212017   3.510   2.195   2.812 -0.1162 -0.0247  0.4634
 2802poe    c2312018   3.589   2.188   2.928 -0.1743 -0.4142  0.4808
 2802poe    c2312019   3.662   2.319   2.965 -0.7832  0.0798 -0.0454
 2802poe     o212020   3.763   2.345   2.870  0.0587 -0.0921  0.7904
 2802poe    c2312021   3.833   2.465   2.895 -0.2343  0.1710  0.3491
 2802poe    c2312022   3.906   2.493   2.762 -0.2328 -0.1458  0.2827
 2802poe     o212023   3.830   2.523   2.646 -0.4388 -0.6772  0.2751
 2802poe    c3112024   3.896   2.634   2.591 -0.4418 -0.7120  0.2023
 2803poe    c3112025   4.564   3.221   3.853  0.3087 -0.1034 -0.0031
 2803poe     o212026   4.538   3.086   3.887 -0.1658 -0.1822 -0.6712
 2803poe    c2312027   4.460   3.098   4.004  0.3050  0.0605 -0.3812
 2803poe    c2312028   4.447   2.969   4.086 -0.0630  0.0722 -0.4213
 2803poe     o212029   4.378   2.862   4.025 -0.2037 -0.2432  0.2757
 2803poe    c2312030   4.347   2.753   4.109  0.0995 -0.7001 -0.1913
 2803poe    c2312031   4.277   2.634   4.043 -0.1196 -0.7848  0.1856
 2803poe     o212032   4.162   2.668   3.968  0.2871  0.2223  0.0046
 2803poe    c2312033   4.110   2.553   3.905  0.7946  0.2700 -0.5101
 2803poe    c2312034   3.966   2.579   3.859  0.3630 -0.7918  0.2004
 2803poe     o212035   3.963   2.709   3.805  0.1123 -0.7478  0.3172
 2803poe    c3112036   3.853   2.726   3.720  0.4017 -0.2150  0.0447
 2804poe    c3112037   2.943   6.916   0.996  0.2538  0.2778  0.0201
 2804poe     o212038   2.900   6.844   1.109  1.0665 -0.0131  0.1491
 2804poe    c2312039   2.974   6.884   1.222  1.1885  0.5538 -0.1282
 2804poe    c2312040   2.960   6.762   1.316  0.5998  0.6937 -0.0298
 2804poe     o212041   2.826   6.733   1.351  0.7132  0.2353  0.0250
 2804poe    c2312042   2.789   6.819   1.456 -0.5211 -0.3613  0.0897
 2804poe    c2312043   2.640   6.810   1.494 -0.6256  0.4349 -0.1100
 2804poe     o212044   2.554   6.833   1.385 -0.5909 -0.5095 -0.3452
 2804poe    c2312045   2.418   6.826   1.423 -0.6364  0.7395 -0.2310
 2804poe    c2312046   2.341   6.775   1.300 -0.5626  0.9467 -0.3643
 2804poe     o212047   2.375   6.838   1.179 -0.1302  0.3278 -0.5735
 2804poe    c3112048   2.328   6.751   1.079  0.2328  0.2057 -0.6364
 2805poe    c3112049   4.771   3.936   2.319  0.6768  0.6941 -0.2571
 2805poe     o212050   4.736   4.072   2.304  0.0557  0.5399 -0.2576
 2805poe    c2312051   4.598   4.089   2.286  0.0298 -0.0107 -0.6098
 2805poe    c2312052   4.561   4.220   2.215  0.2249  0.1374 -0.4380
 2805poe     o212053   4.437   4.191   2.155 -0.0350  0.0132  0.1529
 2805poe    c2312054   4.383   4.308   2.096 -0.7992 -0.2013  0.4172
 2805poe    c2312055   4.304   4.258   1.973  0.7192 -0.5430 -0.4482
 2805poe     o212056   4.189   4.182   2.001  0.3575 -0.0142 -0.4758
 2805poe    c2312057   4.201   4.049   2.047 -0.0775  0.1059 -0.0133
 2805poe    c2312058   4.085   3.951   2.021  0.1019 -0.0076 -0.3938
 2805poe     o212059   3.972   3.980   2.099  0.4051 -0.0120  0.0568
 2805poe    c3112060   3.859   3.899   2.074 -0.1124  0.8795 -0.5675
 2806poe    c3112061   3.062   5.010   5.517 -0.4246  0.7150  0.4376
 2806poe     o212062   3.107   5.100   5.419  0.4613 -0.3659 -0.1579
 2806poe    c2312063   3.061   5.227   5.459  0.2723 -0.6344  0.4831
 2806poe    c2312064   3.107   5.335   5.360 -0.6489 -0.7505 -0.0862
 2806poe     o212065   3.065   5.316   5.226 -0.7144  0.2164 -0.2122
 2806poe    c2312066   3.156   5.386   5.144 -0.1661 -0.2036  0.0262
 2806poe    c2312067   3.108   5.384   4.997  0.1575  0.3630 -0.0871
 2806poe     o212068   3.122   5.258   4.936  0.5279  0.1807  0.3697
 2806poe    c2312069   3.070   5.282   4.808 -0.0210 -0.2286  0.5132
 2806poe    c2312070   3.066   5.158   4.716 -0.2304  0.4721 -0.4407
 2806poe     o212071   3.196   5.107   4.695 -0.3918  0.0166 -0.3455
 2806poe    c3112072   3.193   4.982   4.629 -0.0625 -0.1357 -0.0687
 2807poe    c3112073   1.606   2.140   0.393  0.3763  0.4854 -0.0463
 2807poe     o212074   1.517   2.197   0.487 -0.2322  0.0670 -0.3567
 2807poe    c2312075   1.445   2.093   0.550  0.0597 -0.1285 -0.3401
 2807poe    c2312076   1.294   2.110   0.526  0.0450  0.1904 -0.0356
 2807poe     o212077   1.248   2.109   0.393  0.0978  0.0406 -0.0524
 2807poe    c2312078   1.242   1.982   0.332  0.4685 -0.0726  0.1437
 2807poe    c2312079   1.260   1.989   0.179  0.0958 -0.4797  0.0789
 2807poe     o212080   1.392   2.029   0.150 -0.0432  0.1140  0.2398
 2807poe    c2312081   1.406   2.051   0.012 -0.2384  0.2756  0.2455
 2807poe    c2312082   1.554   2.089  -0.008 -0.2622  0.3141  0.1389
 2807poe     o212083   1.585   2.207   0.064 -0.1673  0.9250 -0.8795
 2807poe    c3112084   1.714   2.260   0.050  0.5188 -0.3163  0.4962
 2808poe    c3112085   2.158   2.128   6.300 -0.1799 -0.0140 -0.6971
 2808poe     o212086   2.291   2.088   6.273 -0.1857 -0.1408 -0.5339
 2808poe    c2312087   2.371   2.196   6.316 -0.3007 -0.1185 -0.3730
 2808poe    c2312088   2.516   2.149   6.340 -0.5205 -0.6296 -0.0289
 2808poe     o212089   2.549   2.063   6.233  0.0331  0.2997 -0.6208
 2808poe    c2312090   2.678   2.008   6.253 -0.2568  0.0225  0.6155
 2808poe    c2312091   2.681   1.884   6.162  0.9019  0.1370  0.4853
 2808poe     o212092   2.557   1.830   6.201  0.7931  0.2454  0.2913
 2808poe    c2312093   2.562   1.725   6.295 -0.3529  0.1614  0.2775
 2808poe    c2312094   2.414   1.716   6.337 -0.4391  0.4757  0.0446
 2808poe     o212095   2.370   1.847   6.365  0.1279  0.6804  0.0103
 2808poe    c3112096   2.257   1.810   6.442  0.1437  0.0441 -0.2711
 2809poe    c3112097   4.309   0.277   2.099 -0.5524  0.5218  0.1480
 2809poe     o212098   4.373   0.401   2.078 -0.0933  0.2787  0.1098
 2809poe    c2312099   4.407   0.417   1.942 -0.6617  0.5754 -0.0012
 2809poe    c2312100   4.488   0.546   1.915  0.1325  0.0097 -0.3725
 2809poe     o212101   4.586   0.558   2.015 -0.0953 -0.3919 -0.0986
 2809poe    c2312102   4.694   0.644   1.988 -0.3003 -0.0365  0.2062
 2809poe    c2312103   4.790   0.667   2.106  0.0647 -0.1361 -0.0699
 2809poe     o212104   4.734   0.758   2.198  0.0552 -0.1432 -0.0688
 2809poe    c2312105   4.836   0.785   2.292 -0.1636  0.2239  0.0635
 2809poe    c2312106   4.776   0.837   2.425 -0.1380 -0.0158  0.1695
 2809poe     o212107   4.716   0.735   2.502 -0.8999  0.4436  0.1912
 2809poe    c3112108   4.656   0.794   2.614 -0.3866 -0.2549  0.8469
 2810poe    c3112109   2.553   4.954   2.226  0.3989 -0.0337 -0.2924
 2810poe     o212110   2.467   4.871   2.300  0.0745  0.1914 -0.4145
 2810poe    c2312111   2.337   4.926   2.302 -0.1301 -0.3077  0.4236
 2810poe    c2312112   2.255   4.799   2.333 -0.0847 -0.6889 -0.9411
 2810poe     o212113   2.312   4.729   2.442 -0.0746  0.3956 -0.2357
 2810poe    c2312114   2.253   4.602   2.453  0.1289  0.3267  0.0767
 2810poe    c2312115   2.307   4.525   2.575 -0.3704 -0.2038 -0.0280
 2810poe     o212116   2.447   4.543   2.570 -0.3337 -0.2795  0.5741
 2810poe    c2312117   2.516   4.431   2.621  0.6477 -0.1432 -0.4048
 2810poe    c2312118   2.565   4.351   2.498 -0.2370 -0.2503 -0.6995
 2810poe     o212119   2.671   4.420   2.437 -0.1715  0.1783 -0.1171
 2810poe    c3112120   2.719   4.342   2.330 -0.4818  0.3559 -0.3879
 2811poe    c3112121   7.235   5.440   4.550 -0.3774 -0.0364 -0.2038
 2811poe     o212122   7.372   5.424   4.522 -0.2980  0.2509  0.0203
 2811poe    c2312123   7.380   5.362   4.396 -0.8820 -0.6348  0.4137
 2811poe    c2312124   7.527   5.314   4.388 -0.5253  0.4842  0.1468
 2811poe     o212125   7.618   5.415   4.424  0.1454 -0.0488 -0.0431
 2811poe    c2312126   7.752   5.373   4.438 -0.0774 -0.6547  0.3060
 2811poe    c2312127   7.840   5.460   4.530 -0.0377 -0.4133  0.0418
 2811poe     o212128   7.885   5.581   4.474  0.5702 -0.4907  0.3540
 2811poe    c2312129   7.984   5.645   4.551  0.2590 -0.1232  0.4563
 2811poe    c2312130   8.037   5.766   4.472 -0.5319 -0.0073  0.0982
 2811poe     o212131   8.092   5.746   4.343  0.0337  0.3841  0.2794
 2811poe    c3112132   8.152   5.869   4.308  0.1822  0.2225 -0.0410
 2812poe    c3112133   3.758   3.465   2.124 -0.3207 -0.6174 -0.5623
 2812poe     o212134   3.806   3.350   2.189 -0.0723 -0.2511 -0.0969
 2812poe    c2312135   3.927   3.384   2.253 -0.2141 -0.2550  0.1713
 2812poe    c2312136   3.980   3.272   2.346  0.3374 -0.1100  0.0344
 2812poe     o212137   4.020   3.169   2.259  0.0597 -0.1705 -0.0236
 2812poe    c2312138   4.061   3.056   2.334  0.1696 -0.4682 -0.5263
 2812poe    c2312139   4.133   2.957   2.241  0.0271  0.0493 -1.1968
 2812poe     o212140   4.060   2.949   2.121 -0.7578  0.6311 -0.7643
 2812poe    c2312141   4.124   2.879   2.017  0.1979 -0.1654  0.3446
 2812poe    c2312142   4.017   2.841   1.913  0.3756  0.1949  0.0266
 2812poe     o212143   3.926   2.949   1.913  0.7059  0.4777 -0.3001
 2812poe    c3112144   3.818   2.934   1.824  0.2099 -1.1724  0.5232
 2813poe    c3112145   6.571   5.061   5.577  1.1538 -0.1368 -0.7671
 2813poe     o212146   6.634   4.981   5.675 -0.8641 -0.1356  0.5961
 2813poe    c2312147   6.608   5.042   5.800 -0.2673 -0.0589  0.6864
 2813poe    c2312148   6.691   4.962   5.902  0.4543 -0.1608  0.0318
 2813poe     o212149   6.649   4.829   5.878 -0.1564 -0.0663  0.5344
 2813poe    c2312150   6.740   4.745   5.945  0.2580  0.1585  0.2575
 2813poe    c2312151   6.709   4.594   5.947  0.4016  0.1234 -0.0476
 2813poe     o212152   6.697   4.560   5.811 -0.0859 -0.2505  0.0865
 2813poe    c2312153   6.662   4.423   5.807 -0.5002 -0.1473  0.1131
 2813poe    c2312154   6.661   4.366   5.665 -0.1969 -0.0424  0.0683
 2813poe     o212155   6.566   4.431   5.583 -0.2670  0.3211  0.4393
 2813poe    c3112156   6.562   4.376   5.454  1.0960  0.2331  0.4214
 2814poe    c3112157   4.129   1.035   7.064  0.5987  0.0209  0.2681
 2814poe     o212158   3.991   1.017   7.086  0.4201  0.2206 -0.6384
 2814poe    c2312159   3.982   0.906   7.172 -0.5414  0.2900 -0.6475
 2814poe    c2312160   3.847   0.886   7.244 -0.2223  0.1015 -0.1001
 2814poe     o212161   3.818   0.977   7.347  0.1703  0.3657 -0.2223
 2814poe    c2312162   3.693   1.042   7.348 -0.1520 -0.2496  0.2699
 2814poe    c2312163   3.558   0.980   7.389 -0.2508 -0.2128 -0.0001
 2814poe     o212164   3.492   0.909   7.287  0.0057 -0.7487  0.2035
 2814poe    c2312165   3.352   0.894   7.292 -0.0943  0.1346  0.1149
 2814poe    c2312166   3.252   1.008   7.266  0.1229  0.3550  0.2396
 2814poe     o212167   3.258   1.068   7.139 -0.3950 -0.5890 -0.2448
 2814poe    c3112168   3.177   1.182   7.124  0.1934 -0.0822  0.3591
 2815poe    c3112169   3.121   5.910   0.352 -0.4247 -0.7209  0.5785
 2815poe     o212170   3.047   6.001   0.430 -0.1534 -0.2438  0.2830
 2815poe    c2312171   2.911   5.984   0.396 -0.1013  0.4980 -0.3102
 2815poe    c2312172   2.830   6.110   0.433 -0.0324  0.4235  0.1006
 2815poe     o212173   2.784   6.104   0.566  0.3413 -0.3048  0.2030
 2815poe    c2312174   2.645   6.091   0.550  0.4608 -0.3756 -0.8615
 2815poe    c2312175   2.568   6.093   0.683  0.5658 -0.0802 -0.8050
 2815poe     o212176   2.634   6.012   0.779 -0.1643  0.0919 -0.1444
 2815poe    c2312177   2.587   6.037   0.909  0.4486 -0.2413  0.1436
 2815poe    c2312178   2.655   5.924   0.989 -0.3591 -0.8314  0.0112
 2815poe     o212179   2.785   5.909   0.938 -0.5281 -0.0294 -0.6839
 2815poe    c3112180   2.859   5.801   0.991 -0.2937  0.3174 -0.3038
 2816poe    c3112181   7.191   3.646   3.047  0.7081 -0.3405 -0.0769
 2816poe     o212182   7.175   3.769   3.114 -0.0694 -0.4949  0.0257
 2816poe    c2312183   7.140   3.756   3.250 -0.4378  0.8228  0.0695
 2816poe    c2312184   7.174   3.885   3.328 -0.3283  0.5323  0.5060
 2816poe     o212185   7.308   3.925   3.316 -0.0561 -0.4990 -0.0248
 2816poe    c2312186   7.376   3.883   3.433 -0.3144 -0.2514  0.2174
 2816poe    c2312187   7.528   3.905   3.419 -0.2998  0.0001  0.7769
 2816poe     o212188   7.559   4.039   3.387 -0.0714 -0.3431 -0.4653
 2816poe    c2312189   7.688   4.063   3.337  0.0146 -0.5926 -0.3643
 2816poe    c2312190   7.715   4.212   3.362  0.4952 -0.7990  0.3811
 2816poe     o212191   7.599   4.275   3.314  0.7770 -0.3626  0.2585
 2816poe    c3112192   7.632   4.412   3.302 -0.5473 -0.0190  0.3036
 2817poe    c3112193   3.441   2.433   6.530 -0.4326 -0.0064  0.7006
 2817poe     o212194   3.419   2.318   6.452 -0.3461  0.4270  0.0326
 2817poe    c2312195   3.290   2.295   6.400 -0.0093 -0.2758 -0.4965
 2817poe    c2312196   3.269   2.235   6.259 -0.3701 -0.4332 -0.3767
 2817poe     o212197   3.334   2.291   6.148  0.0254  0.1617  0.1473
 2817poe    c2312198   3.276   2.411   6.104 -0.4989 -0.3149 -0.4743
 2817poe    c2312199   3.354   2.445   5.975  0.1238 -0.3335 -0.1068
 2817poe     o212200   3.487   2.405   5.992  0.1859 -0.0816  0.0086
 2817poe    c2312201   3.541   2.400   5.862 -0.4586  0.9308 -0.3069
 2817poe    c2312202   3.693   2.371   5.858 -0.6675 -0.1821 -0.3959
 2817poe     o212203   3.714   2.264   5.948 -0.3250  0.4269  0.2671
 2817poe    c3112204   3.844   2.211   5.953 -0.3885  0.3172  0.7750
 2818poe    c3112205   3.904   5.104   4.218  0.3255  0.3408  0.3212
 2818poe     o212206   3.769   5.142   4.228  0.0462 -0.3308 -0.7538
 2818poe    c2312207   3.679   5.036   4.254 -0.5472  0.1449 -0.8498
 2818poe    c2312208   3.544   5.102   4.287 -0.3079  0.0012  0.4782
 2818poe     o212209   3.563   5.191   4.394 -0.0800  0.2979  0.1906
 2818poe    c2312210   3.448   5.230   4.465 -0.2007  0.0869  0.1099
 2818poe    c2312211   3.466   5.335   4.576  0.0861  0.3361 -0.1710
 2818poe     o212212   3.540   5.305   4.692  0.0911  0.4427 -0.1464
 2818poe    c2312213   3.473   5.362   4.803  0.4625 -0.0548  0.3405
 2818poe    c2312214   3.574   5.358   4.918  0.3542  0.3124  0.4518
 2818poe     o212215   3.604   5.224   4.951  0.2101  0.1289 -0.1567
 2818poe    c3112216   3.663   5.223   5.079 -0.3527 -0.0447  0.1035
 2819poe    c3112217   7.346   3.607   4.284 -0.6450  0.1269 -0.0518
 2819poe     o212218   7.349   3.657   4.416  0.7596 -0.7177  0.2633
 2819poe    c2312219   7.465   3.733   4.440  0.4766 -0.2305  0.0948
 2819poe    c2312220   7.446   3.814   4.570  0.0871 -0.4353  0.1673
 2819poe     o212221   7.411   3.720   4.669  0.3399 -0.5137  0.1839
 2819poe    c2312222   7.324   3.776   4.764 -0.4550  0.2860 -0.9920
 2819poe    c2312223   7.224   3.672   4.817  0.1863  0.0727 -0.1863
 2819poe     o212224   7.260   3.567   4.904 -0.4058 -0.3067 -0.3909
 2819poe    c2312225   7.150   3.491   4.949 -0.2122 -0.4121 -0.0875
 2819poe    c2312226   7.125   3.361   4.871 -0.4110 -0.6227  0.3255
 2819poe     o212227   7.220   3.262   4.902  0.5063  0.0862 -0.1972
 2819poe    c3112228   7.153   3.139   4.891  0.4990  0.0470  0.2589
 2820poe    c3112229   5.914   3.551   5.091 -0.1030 -0.6418  0.2228
 2820poe     o212230   5.799   3.530   5.171 -0.4271  0.2541 -0.0020
 2820poe    c2312231   5.818   3.576   5.303  0.3746 -0.2585  0.0739
 2820poe    c2312232   5.697   3.667   5.335  0.0052 -0.6526 -0.1918
 2820poe     o212233   5.573   3.608   5.367  0.0037 -0.4667  0.1485
 2820poe    c2312234   5.546   3.587   5.503  0.4848 -0.3962  0.2564
 2820poe    c2312235   5.475   3.709   5.565  0.4973  0.0448 -0.5834
 2820poe     o212236   5.336   3.714   5.543  0.4747  0.1894 -0.4130
 2820poe    c2312237   5.308   3.842   5.492  0.6237  0.2619 -0.3154
 2820poe    c2312238   5.161   3.887   5.489  0.5700  0.1103 -0.0307
 2820poe     o212239   5.119   3.957   5.604 -0.3937 -0.4958 -0.0008
 2820poe    c3112240   4.978   3.958   5.602 -0.3884  0.3079 -0.2731
 2821poe    c3112241   6.691   6.739   1.201  0.2829 -0.6336  0.2898
 2821poe     o212242   6.582   6.809   1.146  0.5430 -0.3893  0.0795
 2821poe    c2312243   6.615   6.829   1.010  0.0095  0.1516  0.0266
 2821poe    c2312244   6.500   6.867   0.914 -0.2621  0.2877  0.4034
 2821poe     o212245   6.399   6.769   0.905  0.0691 -0.0238  0.0576
 2821poe    c2312246   6.276   6.794   0.840  0.2276 -0.2547 -0.3328
 2821poe    c2312247   6.192   6.665   0.832  0.2614 -0.2862 -0.1951
 2821poe     o212248   6.081   6.665   0.745 -0.1346 -0.0484  0.3049
 2821poe    c2312249   6.007   6.545   0.757 -0.3619  0.0279 -0.2736
 2821poe    c2312250   5.888   6.523   0.662 -0.6457  0.4748 -0.0269
 2821poe     o212251   5.934   6.586   0.544 -0.9234 -0.2086 -0.5048
 2821poe    c3112252   5.892   6.526   0.423  0.1187 -0.5486 -0.7115
 2822poe    c3112253   6.650   5.784   6.065  0.0204 -0.9930  0.2118
 2822poe     o212254   6.690   5.783   6.200  0.6216  0.4086  0.0600
 2822poe    c2312255   6.740   5.654   6.227 -0.0414  0.1467  0.0305
 2822poe    c2312256   6.742   5.628   6.379  0.2716 -0.5402 -0.0856
 2822poe     o212257   6.612   5.625   6.433  0.0854  0.8003 -0.4130
 2822poe    c2312258   6.633   5.542   6.546 -0.4251  0.4475 -0.5711
 2822poe    c2312259   6.521   5.571   6.647  0.3013 -0.0849  0.4014
 2822poe     o212260   6.401   5.544   6.577  0.0761  0.2242  0.6674
 2822poe    c2312261   6.283   5.541   6.654 -0.2269  0.1250  0.2019
 2822poe    c2312262   6.147   5.555   6.583 -0.1689  0.0447  0.0766
 2822poe     o212263   6.115   5.677   6.521 -0.2161  0.0214  0.0557
 2822poe    c3112264   5.992   5.672   6.452 -0.0530 -0.7015 -0.1918
 2823poe    c3112265   0.792   6.580   0.252  0.5766 -0.1826 -0.3945
 2823poe     o212266   0.782   6.474   0.161 -0.3937 -0.3898 -0.0569
 2823poe    c2312267   0.894   6.470   0.076 -0.0517  0.2802  0.3589
 2823poe    c2312268   0.901   6.341  -0.009 -0.6042  0.1067  0.5734
 2823poe     o212269   0.786   6.304  -0.080 -0.1010  0.2562 -0.3350
 2823poe    c2312270   0.808   6.173  -0.127 -0.2998  0.0416  0.1588
 2823poe    c2312271   0.737   6.159  -0.263 -0.3143 -0.9474  0.2683
 2823poe     o212272   0.615   6.225  -0.236  0.0103 -0.1878 -0.1347
 2823poe    c2312273   0.536   6.252  -0.350 -0.3903  0.5141  0.3012
 2823poe    c2312274   0.464   6.134  -0.418  0.2369  0.3906 -0.1503
 2823poe     o212275   0.372   6.060  -0.341  0.3200  0.2654 -0.1711
 2823poe    c3112276   0.412   5.930  -0.302 -0.5429  0.0608  0.0472
 2824poe    c3112277   6.473   5.389   4.350  0.4282 -0.2596 -0.3337
 2824poe     o212278   6.442   5.502   4.272  0.4167  0.0030  0.0466
 2824poe    c2312279   6.312   5.471   4.227  0.3073  0.0248  0.3487
 2824poe    c2312280   6.249   5.568   4.126  0.8094  0.3605  0.3501
 2824poe     o212281   6.304   5.581   3.997 -0.2422  0.6685 -0.0798
 2824poe    c2312282   6.259   5.687   3.914 -0.6621  0.5546  0.0005
 2824poe    c2312283   6.302   5.669   3.767  0.6868  0.4670  0.3913
 2824poe     o212284   6.249   5.552   3.709  1.0326  0.4574  0.0901
 2824poe    c2312285   6.289   5.541   3.574 -0.1877  0.3793 -0.2717
 2824poe    c2312286   6.234   5.402   3.537  0.0245  0.1224  0.3495
 2824poe     o212287   6.097   5.382   3.560  0.0334 -0.1573  0.1559
 2824poe    c3112288   6.055   5.255   3.513  0.5340 -0.1388 -0.3536
 2825poe    c3112289   1.187   0.475   2.941 -0.2719 -0.4860  0.0362
 2825poe     o212290   1.266   0.428   3.048  0.5558  0.0295 -0.3333
 2825poe    c2312291   1.259   0.513   3.161  0.8549 -0.0081 -0.2867
 2825poe    c2312292   1.395   0.498   3.232  0.5416 -0.1473  0.2933
 2825poe     o212293   1.434   0.363   3.217 -0.4448 -0.4116  0.0688
 2825poe    c2312294   1.545   0.328   3.296  0.2010  0.3514 -0.4759
 2825poe    c2312295   1.540   0.176   3.324  1.2640  0.3957 -0.0283
 2825poe     o212296   1.567   0.113   3.201 -0.0490 -0.2597  0.0078
 2825poe    c2312297   1.573  -0.026   3.220 -0.5828 -0.2441  0.3227
 2825poe    c2312298   1.602  -0.080   3.079 -0.1191  0.4097  0.1649
 2825poe     o212299   1.497  -0.051   2.989  0.2984  0.1642 -0.4144
 2825poe    c3112300   1.456  -0.171   2.929  0.4800 -0.1501  0.0859
 2826poe    c3112301   3.715   0.120   1.443  0.1296  0.2950 -0.0255
 2826poe     o212302   3.629   0.141   1.553  0.0142 -0.2727 -0.0051
 2826poe    c2312303   3.690   0.222   1.650  0.1846 -0.1194 -0.2391
 2826poe    c2312304   3.646   0.184   1.793 -0.5735  0.5255 -0.2974
 2826poe     o212305   3.678   0.057   1.845 -0.5263  0.5320 -0.3102
 2826poe    c2312306   3.579  -0.035   1.807  0.2745 -0.2493 -0.5197
 2826poe    c2312307   3.604  -0.173   1.870  0.4419  0.2160  0.4430
 2826poe     o212308   3.686  -0.258   1.794 -0.3117 -0.4192  0.3155
 2826poe    c2312309   3.714  -0.381   1.856 -0.3230 -0.1671  0.8236
 2826poe    c2312310   3.792  -0.483   1.770 -0.1477  0.4826  0.2043
 2826poe     o212311   3.919  -0.445   1.723  0.1061 -0.2669  0.2820
 2826poe    c3112312   3.971  -0.549   1.642  0.0343  0.1283 -0.2789
 2827poe    c3112313   0.937   1.653   0.432 -0.7557 -0.2802 -0.2339
 2827poe     o212314   0.874   1.597   0.545 -0.3821  0.0200  0.1278
 2827poe    c2312315   0.826   1.468   0.514  0.0520 -0.1445  0.1362
 2827poe    c2312316   0.707   1.429   0.604  0.2892  0.6047  0.7938
 2827poe     o212317   0.585   1.501   0.596  0.1159  0.2035 -0.4746
 2827poe    c2312318   0.476   1.420   0.634 -0.1961  0.9687  0.2787
 2827poe    c2312319   0.455   1.408   0.787 -0.1239  0.0902  0.2237
 2827poe     o212320   0.432   1.537   0.839 -0.2420  0.2816 -0.2889
 2827poe    c2312321   0.386   1.529   0.973  0.1646 -0.3126 -0.1815
 2827poe    c2312322   0.369   1.668   1.036 -0.4910 -0.0167 -0.9935
 2827poe     o212323   0.492   1.736   1.027 -0.4599  0.1464  0.3955
 2827poe    c3112324   0.500   1.836   1.126 -0.0256 -0.4064  0.9221
 2828poe    c3112325   0.727   4.459   1.963 -0.3500 -0.6963  0.4057
 2828poe     o212326   0.757   4.588   2.011 -1.0320 -0.4944  0.3025
 2828poe    c2312327   0.685   4.697   1.958  0.2960  0.1834 -0.1560
 2828poe    c2312328   0.592   4.743   2.072  0.3632 -0.3799  0.1277
 2828poe     o212329   0.515   4.642   2.133 -0.3292  0.0655  0.0053
 2828poe    c2312330   0.508   4.653   2.273  0.0919  0.6809 -0.0168
 2828poe    c2312331   0.469   4.520   2.340  0.1171  0.3216 -0.7043
 2828poe     o212332   0.338   4.480   2.309 -0.1741  0.0968  0.7148
 2828poe    c2312333   0.313   4.347   2.348  0.5366 -0.1809  0.2402
 2828poe    c2312334   0.174   4.307   2.296  0.1882  0.3165  0.7730
 2828poe     o212335   0.071   4.316   2.392 -0.2737  0.1683  0.2980
 2828poe    c3112336   0.006   4.437   2.360  0.2344  0.4405  0.2885
 2829poe    c3112337   2.692   7.176   6.967 -0.1762  0.0970  0.2911
 2829poe     o212338   2.673   7.128   6.836  0.3473  0.1472  0.1925
 2829poe    c2312339   2.544   7.166   6.794  0.4006  0.1935  0.0708
 2829poe    c2312340   2.528   7.141   6.643 -0.5284 -0.0351  0.2017
 2829poe     o212341   2.573   7.007   6.642 -0.3961  0.0092  0.2703
 2829poe    c2312342   2.534   6.943   6.523 -0.8764 -0.0937  0.4788
 2829poe    c2312343   2.585   6.799   6.504  0.0227  0.1941  0.6528
 2829poe     o212344   2.724   6.786   6.480  0.0057  0.0587  0.6296
 2829poe    c2312345   2.745   6.673   6.399  0.0948  0.2822  0.3431
 2829poe    c2312346   2.842   6.564   6.448  0.1729  0.1184 -0.1712
 2829poe     o212347   2.811   6.489   6.563  0.1735  0.3616 -0.0129
 2829poe    c3112348   2.914   6.414   6.622 -0.3313  0.4110  0.9491
 2830poe    c3112349   4.109   7.066   6.137  0.0886  0.6096  0.3640
 2830poe     o212350   4.176   7.093   6.258 -0.0497 -0.2933  0.6542
 2830poe    c2312351   4.316   7.099   6.236 -0.2051  0.1775 -0.2527
 2830poe    c2312352   4.388   7.229   6.276 -0.2298  0.1351 -0.0684
 2830poe     o212353   4.412   7.236   6.415 -0.0127  0.0005 -0.0991
 2830poe    c2312354   4.439   7.374   6.429  0.3606 -0.0674 -0.1212
 2830poe    c2312355   4.454   7.408   6.578  0.1404 -0.3151 -0.0402
 2830poe     o212356   4.553   7.336   6.648  0.3483 -0.4114 -0.4292
 2830poe    c2312357   4.678   7.400   6.656  0.0457  0.1308  0.0737
 2830poe    c2312358   4.763   7.321   6.758  0.0745 -0.3343 -0.3092
 2830poe     o212359   4.807   7.206   6.689 -0.4295 -0.5482 -0.2816
 2830poe    c3112360   4.841   7.105   6.781  0.3315 -0.3899 -0.3829
 2831poe    c3112361   3.198   5.675   6.671  0.0458  0.0206 -0.1857
 2831poe     o212362   3.306   5.594   6.632 -0.1815 -0.5644  0.3825
 2831poe    c2312363   3.338   5.616   6.497 -0.1015 -0.3384  0.4376
 2831poe    c2312364   3.466   5.536   6.463  0.0204 -0.1284  0.4027
 2831poe     o212365   3.577   5.596   6.526  0.1532  0.1111 -0.0592
 2831poe    c2312366   3.701   5.559   6.469 -0.0088 -0.1330 -0.2551
 2831poe    c2312367   3.763   5.635   6.350 -0.5212  0.1983 -0.3188
 2831poe     o212368   3.785   5.772   6.377  0.0861 -0.0663  0.6137
 2831poe    c2312369   3.798   5.839   6.253 -0.6335 -0.7747  0.1344
 2831poe    c2312370   3.769   5.990   6.253  0.1205 -0.6224  0.2190
 2831poe     o212371   3.863   6.075   6.315 -0.0999 -0.0725 -0.1983
 2831poe    c3112372   3.831   6.213   6.316  0.1663 -0.0161  0.3909
 2832poe    c3112373   1.033   5.064   5.665  0.0178 -0.0127 -0.3219
 2832poe     o212374   1.006   5.179   5.741  0.0993 -0.2937  0.1343
 2832poe    c2312375   0.978   5.145   5.875 -0.9272  0.1658  0.0468
 2832poe    c2312376   0.984   5.263   5.973  0.7498  0.2759 -0.1731
 2832poe     o212377   0.875   5.352   5.967  0.1572 -0.4433 -0.1867
 2832poe    c2312378   0.857   5.415   6.092 -0.4060  0.5788 -0.7663
 2832poe    c2312379   0.709   5.448   6.119 -0.3089  0.0707  0.4253
 2832poe     o212380   0.661   5.535   6.019  0.8370  0.0298 -0.1767
 2832poe    c2312381   0.541   5.603   6.050  0.8268 -0.2425  0.3934
 2832poe    c2312382   0.444   5.617   5.931  0.4948  0.6916  0.7727
 2832poe     o212383   0.453   5.744   5.870 -0.1307  0.1618 -0.4596
 2832poe    c3112384   0.387   5.750   5.746 -0.4426 -0.3182 -0.3181
 2833poe    c3112385   5.684   4.721   4.313  0.5826 -0.2599  0.0024
 2833poe     o212386   5.817   4.690   4.348  0.7884  0.6036 -0.0075
 2833poe    c2312387   5.856   4.574   4.278 -0.2829  0.4836 -0.4219
 2833poe    c2312388   6.009   4.587   4.262 -0.2119  0.7139  0.3811
 2833poe     o212389   6.076   4.622   4.381  0.1307  0.2393  0.3291
 2833poe    c2312390   6.209   4.577   4.396  0.0691  0.2255  0.8430
 2833poe    c2312391   6.261   4.638   4.528  0.5126  0.2493  0.6584
 2833poe     o212392   6.261   4.778   4.546 -0.1794  0.3388  0.0133
 2833poe    c2312393   6.363   4.853   4.484  0.5248 -0.5048  0.1278
 2833poe    c2312394   6.499   4.843   4.555  0.5532  0.2309  0.1858
 2833poe     o212395   6.596   4.788   4.468  0.3317  0.2044 -0.0449
 2833poe    c3112396   6.726   4.804   4.519 -0.0012  0.9518  0.5849
 2834poe    c3112397   3.315   4.403   6.601  0.2238 -0.0844 -0.1249
 2834poe     o212398   3.198   4.477   6.628  0.0860 -0.2731 -0.1989
 2834poe    c2312399   3.110   4.405   6.711  0.5216 -0.4256  0.1397
 2834poe    c2312400   3.022   4.509   6.783  0.7187  0.3034 -0.6504
 2834poe     o212401   2.967   4.589   6.680 -0.0822  0.4099 -0.1495
 2834poe    c2312402   2.861   4.670   6.725 -0.3738 -0.1885  0.2510
 2834poe    c2312403   2.810   4.755   6.608  0.4512 -0.4597 -0.3189
 2834poe     o212404   2.897   4.860   6.572 -0.0648  0.0469 -0.1212
 2834poe    c2312405   2.824   4.971   6.526  0.1068  0.3979  0.4368
 2834poe    c2312406   2.892   5.090   6.456 -0.2271  0.4756  0.2431
 2834poe     o212407   2.973   5.165   6.543 -0.4952  0.2210  0.7152
 2834poe    c3112408   3.089   5.201   6.471 -0.9171 -0.0435 -0.1073
 2835poe    c3112409   4.995   5.499   6.716 -0.6162 -0.2154 -0.2967
 2835poe     o212410   5.132   5.511   6.687 -0.6408  0.4483 -0.1739
 2835poe    c2312411   5.165   5.640   6.731  0.1213  0.3228 -0.3571
 2835poe    c2312412   5.312   5.678   6.756  0.2391 -0.4572  0.1577
 2835poe     o212413   5.392   5.680   6.640 -0.3788  0.5499 -0.2596
 2835poe    c2312414   5.528   5.709   6.666 -0.2334 -0.0059 -0.3837
 2835poe    c2312415   5.615   5.679   6.542 -0.0516  0.4569 -0.3729
 2835poe     o212416   5.642   5.542   6.519 -0.6118  0.2510  0.1500
 2835poe    c2312417   5.690   5.505   6.392 -0.0665 -0.2369  0.4906
 2835poe    c2312418   5.734   5.358   6.389 -0.9502 -0.5058  0.3839
 2835poe     o212419   5.858   5.336   6.453 -0.7402  0.5864  0.3636
 2835poe    c3112420   5.838   5.287   6.584 -0.1952 -0.3750  0.0986
 2836poe    c3112421   2.782   1.412   5.356  0.2788 -0.1137 -0.1663
 2836poe     o212422   2.783   1.377   5.493 -0.0133 -0.5116 -0.2632
 2836poe    c2312423   2.741   1.491   5.565  0.5477 -0.5128  0.0695
 2836poe    c2312424   2.848   1.599   5.585  0.2191 -0.1432 -0.1729
 2836poe     o212425   2.861   1.689   5.476 -0.1042  0.1181  0.0043
 2836poe    c2312426   2.985   1.752   5.494  0.0267 -0.1746  0.1386
 2836poe    c2312427   3.006   1.895   5.439  0.0427 -0.3288 -0.2612
 2836poe     o212428   3.041   1.912   5.304 -0.0023  0.1583 -0.2126
 2836poe    c2312429   3.169   1.867   5.265 -0.3826 -0.6750 -0.5152
 2836poe    c2312430   3.208   1.904   5.121  0.1572  0.2364 -0.1457
 2836poe     o212431   3.125   1.840   5.026 -0.1325  0.3176  0.0530
 2836poe    c3112432   3.190   1.799   4.908 -0.3290  0.1594 -0.0015
 2837poe    c3112433   5.003   0.318   0.721  0.1855 -0.5961  0.2383
 2837poe     o212434   4.896   0.309   0.813 -0.1964  0.1333 -0.1253
 2837poe    c2312435   4.806   0.417   0.820  0.3881  0.6111  0.1320
 2837poe    c2312436   4.693   0.402   0.924  0.4483 -0.6306  0.0353
 2837poe     o212437   4.736   0.454   1.048 -0.0080 -0.2798  0.0501
 2837poe    c2312438   4.624   0.437   1.131  0.4054 -0.5693  0.5544
 2837poe    c2312439   4.639   0.536   1.249  0.0383  0.0815  0.0656
 2837poe     o212440   4.626   0.676   1.249 -0.9924 -0.0107 -0.2215
 2837poe    c2312441   4.700   0.736   1.353 -0.2490  0.3715 -0.9618
 2837poe    c2312442   4.603   0.794   1.457 -0.5073 -0.5633 -0.6722
 2837poe     o212443   4.549   0.921   1.428 -0.3585 -0.4250 -0.3434
 2837poe    c3112444   4.440   0.945   1.514 -0.1578  0.4828 -0.3343
 2838poe    c3112445   2.017   3.122   0.177  0.1641 -0.3607  0.6931
 2838poe     o212446   2.137   3.190   0.205  0.3212 -0.3300 -0.0308
 2838poe    c2312447   2.120   3.329   0.188 -0.2147 -0.3439  0.3741
 2838poe    c2312448   2.237   3.413   0.242 -0.6381  0.4426  0.0884
 2838poe     o212449   2.258   3.421   0.381 -0.3430  0.4049  0.0475
 2838poe    c2312450   2.361   3.511   0.415 -0.1756  0.1959  0.0901
 2838poe    c2312451   2.368   3.543   0.565  0.0762 -0.5377  0.2397
 2838poe     o212452   2.268   3.635   0.602  0.2992 -0.1911 -0.0127
 2838poe    c2312453   2.234   3.622   0.738  0.3756  0.1767  0.0429
 2838poe    c2312454   2.105   3.689   0.790 -0.0337 -0.1038 -0.5984
 2838poe     o212455   1.987   3.644   0.728 -0.2239 -0.5035  0.0558
 2838poe    c3112456   1.877   3.694   0.802  0.1460  0.7152 -0.1979
 2839poe    c3112457   4.858   4.378   1.348  0.0723  0.4190 -0.8278
 2839poe     o212458   4.767   4.279   1.309 -0.1864  0.2574  0.1577
 2839poe    c2312459   4.792   4.150   1.362 -0.1641  0.0414 -0.3702
 2839poe    c2312460   4.724   4.028   1.298 -0.2650 -0.5495  0.8393
 2839poe     o212461   4.590   4.023   1.340 -0.2726  0.0867  0.8991
 2839poe    c2312462   4.560   3.886   1.327  0.2408  0.0556 -0.0091
 2839poe    c2312463   4.409   3.874   1.301  0.2883 -0.4132 -0.0826
 2839poe     o212464   4.365   3.939   1.184 -0.7221  0.2648  0.6569
 2839poe    c2312465   4.226   3.914   1.175 -0.6418 -0.1182  0.4158
 2839poe    c2312466   4.162   3.952   1.040  0.0350  0.0887  0.1495
 2839poe     o212467   4.161   4.091   1.020 -0.1001  0.1659  0.6971
 2839poe    c3112468   4.123   4.122   0.888 -0.2844 -0.2426  0.6518
 2840poe    c3112469   1.875   5.451   0.972  0.3001 -0.6026 -0.4416
 2840poe     o212470   1.772   5.357   0.954 -0.0607 -0.2839 -0.0869
 2840poe    c2312471   1.679   5.397   0.856 -0.7854 -0.1510  0.6450
 2840poe    c2312472   1.612   5.283   0.778 -0.0544 -0.1875  0.0548
 2840poe     o212473   1.548   5.312   0.656 -0.6900 -0.6258  0.2760
 2840poe    c2312474   1.463   5.204   0.625 -0.2939 -0.9123  0.1868
 2840poe    c2312475   1.410   5.228   0.482 -0.2366 -0.2245  0.2761
 2840poe     o212476   1.509   5.178   0.396 -0.3109  0.0290  0.0438
 2840poe    c2312477   1.475   5.182   0.259  0.6874  0.0876 -0.2085
 2840poe    c2312478   1.551   5.283   0.171  0.1280  0.2566 -0.5000
 2840poe     o212479   1.686   5.247   0.150  0.1181 -0.0780 -0.0071
 2840poe    c3112480   1.739   5.327   0.047  0.1142 -0.2592 -0.1493
 2841poe    c3112481   4.184   2.346   6.227  0.5391 -0.0954 -0.2230
 2841poe     o212482   4.218   2.474   6.181 -0.5922  0.1226 -0.4905
 2841poe    c2312483   4.149   2.575   6.252  0.4827  0.2203  0.4306
 2841poe    c2312484   4.230   2.705   6.239  0.2899  0.2939 -0.0298
 2841poe     o212485   4.248   2.757   6.109  0.3134 -0.3285 -0.2774
 2841poe    c2312486   4.128   2.794   6.046  0.2697  0.5284  0.2914
 2841poe    c2312487   4.144   2.830   5.897 -0.3309 -0.2068  0.0413
 2841poe     o212488   4.221   2.739   5.822 -0.1567 -0.1392  0.1386
 2841poe    c2312489   4.251   2.779   5.690 -0.0375  0.2434  0.2826
 2841poe    c2312490   4.255   2.668   5.584  0.3491  0.7430 -0.2358
 2841poe     o212491   4.374   2.596   5.607 -0.1997 -0.0199  0.3030
 2841poe    c3112492   4.410   2.519   5.495 -0.2482  0.1628  0.1609
 2842poe    c3112493   0.891   3.014   5.171 -0.4467 -0.1363 -0.3467
 2842poe     o212494   0.952   3.043   5.047  0.4243 -0.2545  0.0505
 2842poe    c2312495   1.083   2.993   5.058  0.5308  0.1144  0.5154
 2842poe    c2312496   1.185   3.041   4.952 -0.1941 -0.3221 -0.3966
 2842poe     o212497   1.145   2.999   4.824  0.3796  0.0329 -0.6975
 2842poe    c2312498   1.214   3.073   4.726  0.2901 -0.0613 -0.8335
 2842poe    c2312499   1.120   3.148   4.630 -0.5811 -0.4769 -0.3165
 2842poe     o212500   1.195   3.220   4.535 -0.2651 -0.2476  0.1036
 2842poe    c2312501   1.115   3.280   4.435  0.1374 -0.1548 -0.1655
 2842poe    c2312502   1.203   3.368   4.344  0.0837  0.2857  0.2016
 2842poe     o212503   1.292   3.291   4.266  0.1533  0.2626  0.3037
 2842poe    c3112504   1.362   3.366   4.169  0.0476 -0.2736 -0.1868
 2843poe    c3112505   7.084   3.649   2.201 -0.3274 -0.4544 -0.7935
 2843poe     o212506   7.070   3.566   2.315  0.1295  0.1759 -0.2655
 2843poe    c2312507   7.063   3.430   2.281 -0.5619  0.0300  0.4407
 2843poe    c2312508   7.000   3.339   2.388 -0.1837 -0.5788  0.1507
 2843poe     o212509   6.861   3.350   2.374 -0.0901  0.4712  0.0290
 2843poe    c2312510   6.794   3.286   2.480  0.2361 -0.1938 -0.1643
 2843poe    c2312511   6.642   3.303   2.458  0.2685 -0.2340 -0.4216
 2843poe     o212512   6.587   3.261   2.335 -0.4509 -0.3477 -0.0678
 2843poe    c2312513   6.447   3.279   2.336 -0.4668 -0.4618 -0.2565
 2843poe    c2312514   6.368   3.214   2.221 -0.4395  0.0524 -0.5677
 2843poe     o212515   6.404   3.241   2.087  0.4541 -0.2445 -0.3986
 2843poe    c3112516   6.307   3.318   2.019 -0.0513 -0.6182 -0.1113
 2844poe    c3112517   3.976   4.556   6.935 -0.3687 -0.9863 -0.5275
 2844poe     o212518   4.039   4.433   6.962  0.0353 -0.5292  0.6795
 2844poe    c2312519   4.169   4.426   6.907 -0.0984  0.2595  0.2484
 2844poe    c2312520   4.209   4.278   6.919  0.6740  0.4620  0.2567
 2844poe     o212521   4.176   4.241   7.052  0.1299  0.1993  0.0554
 2844poe    c2312522   4.188   4.103   7.078  0.5965  0.2004 -0.1375
 2844poe    c2312523   4.196   4.075   7.229  0.2778  0.5123 -0.0624
 2844poe     o212524   4.076   4.111   7.295 -0.0022 -0.4695 -0.0305
 2844poe    c2312525   4.002   3.996   7.329  0.2284 -0.3986  0.7256
 2844poe    c2312526   3.891   4.032   7.429 -0.0934  0.5199  0.0467
 2844poe     o212527   3.796   4.122   7.375  0.1522  0.4637 -0.4792
 2844poe    c3112528   3.695   4.151   7.468 -0.2307 -0.6405 -0.5445
 2845poe    c3112529   7.021   5.380   5.005  0.1813 -0.0139  1.2390
 2845poe     o212530   7.129   5.328   5.079  0.4737 -0.1047  0.7493
 2845poe    c2312531   7.248   5.348   5.006  0.1677 -0.1873  0.2181
 2845poe    c2312532   7.374   5.357   5.095  0.1273  0.2302  0.2371
 2845poe     o212533   7.344   5.418   5.219  0.0726  0.7052 -0.0106
 2845poe    c2312534   7.456   5.420   5.305 -0.0892 -0.1098  0.2222
 2845poe    c2312535   7.436   5.528   5.413 -0.6945  0.4064 -0.3893
 2845poe     o212536   7.314   5.522   5.482 -0.1367  0.0032  0.5834
 2845poe    c2312537   7.317   5.628   5.575  0.3586 -0.2627  0.8739
 2845poe    c2312538   7.178   5.685   5.609  0.1406  0.2407 -0.8019
 2845poe     o212539   7.075   5.662   5.516 -0.2534 -0.0059 -0.3045
 2845poe    c3112540   7.081   5.717   5.386 -0.2691  0.4926 -0.0977
 2846poe    c3112541   3.403   6.104   4.219 -0.1093 -0.1385 -0.2016
 2846poe     o212542   3.336   6.068   4.101 -0.0688  0.2975 -0.3613
 2846poe    c2312543   3.275   5.942   4.115  0.4461  0.1069  0.2343
 2846poe    c2312544   3.129   5.959   4.069  0.3650 -0.8498  0.1133
 2846poe     o212545   3.126   5.993   3.932 -0.0932 -0.9225  0.1015
 2846poe    c2312546   2.991   5.994   3.893  0.0621 -0.0420 -0.4474
 2846poe    c2312547   2.973   6.085   3.770  0.7521  0.6013 -0.0790
 2846poe     o212548   2.989   6.223   3.791  0.1739  0.6089  0.3336
 2846poe    c2312549   2.975   6.315   3.685  0.0065  0.2229  0.0186
 2846poe    c2312550   2.832   6.350   3.640 -0.2805 -0.2421  0.5566
 2846poe     o212551   2.789   6.476   3.686 -0.3048  0.0198 -0.1666
 2846poe    c3112552   2.742   6.484   3.819  0.6740 -0.3516  0.2098
 2847poe    c3112553   5.629   7.198   6.389 -0.1441  0.6422  0.4513
 2847poe     o212554   5.492   7.188   6.421 -0.1996 -0.3171 -0.0485
 2847poe    c2312555   5.455   7.296   6.504  0.0871 -0.0847 -0.2201
 2847poe    c2312556   5.307   7.297   6.547  0.1281 -0.1450 -0.0781
 2847poe     o212557   5.206   7.301   6.449 -0.2601 -0.1697  0.3177
 2847poe    c2312558   5.077   7.339   6.493 -0.1899  0.7420 -0.2444
 2847poe    c2312559   4.983   7.319   6.373 -0.6035 -0.1409  0.2148
 2847poe     o212560   4.982   7.186   6.325  0.3751 -0.1822  0.2939
 2847poe    c2312561   4.901   7.095   6.396  0.1443 -0.0232  0.2370
 2847poe    c2312562   4.941   6.954   6.348  0.0680 -0.0678  0.3062
 2847poe     o212563   5.078   6.952   6.378  0.1061 -0.3829  0.1191
 2847poe    c3112564   5.116   6.834   6.445 -0.7619 -0.5823  0.2616
 2848poe    c3112565   3.125   7.104   5.455  0.2151 -0.0014  0.5076
 2848poe     o212566   3.167   7.192   5.557 -0.0069  0.0947  0.5189
 2848poe    c2312567   3.154   7.329   5.526  0.0612  0.0933  0.4824
 2848poe    c2312568   3.230   7.425   5.620  0.5344  0.1365  0.0584
 2848poe     o212569   3.371   7.424   5.615  0.5281 -0.2727 -0.1566
 2848poe    c2312570   3.424   7.326   5.701 -0.3928 -0.9418 -0.3424
 2848poe    c2312571   3.421   7.364   5.850  0.8201 -0.0091 -0.5430
 2848poe     o212572   3.498   7.476   5.886  0.1487  0.0665  0.7479
 2848poe    c2312573   3.490   7.493   6.025  0.8843  0.1796  0.7845
 2848poe    c2312574   3.510   7.638   6.074  0.4111  0.5492 -0.1013
 2848poe     o212575   3.397   7.716   6.039 -0.1548 -0.1787  0.0607
 2848poe    c3112576   3.387   7.830   6.122 -0.0889 -0.0149 -0.1547
 2849poe    c3112577   3.229   6.574   4.350  0.0298 -0.2827 -0.5389
 2849poe     o212578   3.105   6.527   4.303 -0.5254  0.4818  0.1362
 2849poe    c2312579   3.023   6.626   4.245 -0.6540  0.1960 -0.1728
 2849poe    c2312580   2.987   6.585   4.101 -0.3817  0.3343 -0.2834
 2849poe     o212581   3.091   6.573   4.007 -0.1156 -0.0897  0.0609
 2849poe    c2312582   3.158   6.693   3.977  0.4360 -0.3233  0.3338
 2849poe    c2312583   3.236   6.672   3.846  0.0836  0.3986  0.0014
 2849poe     o212584   3.150   6.673   3.734  0.0574  0.0229  0.0177
 2849poe    c2312585   3.221   6.656   3.613 -0.4182 -0.3218 -0.2153
 2849poe    c2312586   3.146   6.651   3.479 -0.1662 -0.8281 -0.3376
 2849poe     o212587   3.107   6.782   3.445 -0.0562 -0.6420  0.2478
 2849poe    c3112588   3.114   6.791   3.305  0.3448  0.3833  0.3248
 2850poe    c3112589   0.604   3.993   0.838 -0.2368  0.2949 -0.5301
 2850poe     o212590   0.473   3.947   0.811 -0.2100  0.0565 -0.2562
 2850poe    c2312591   0.391   4.055   0.772 -0.2451  0.3261  0.5285
 2850poe    c2312592   0.251   4.007   0.729 -0.0330 -0.5503  0.7969
 2850poe     o212593   0.241   3.944   0.603 -0.6316  0.2890  0.4152
 2850poe    c2312594   0.120   3.894   0.552 -0.3719 -0.5653  0.6198
 2850poe    c2312595   0.133   3.850   0.405  0.2342  0.1265  0.4643
 2850poe     o212596   0.228   3.746   0.398  0.7298  0.5811  0.3551
 2850poe    c2312597   0.254   3.732   0.260 -0.4132 -0.4508  0.2201
 2850poe    c2312598   0.327   3.600   0.231  0.1809 -0.0777 -0.0137
 2850poe     o212599   0.400   3.573   0.348  0.0888  0.2014  0.1077
 2850poe    c3112600   0.484   3.460   0.339 -0.2169 -0.0320  0.1386
 2851poe    c3112601   4.203   5.093   6.155 -0.9828  0.1661  0.0956
 2851poe     o212602   4.232   5.107   6.292  0.0608 -0.4089 -0.0609
 2851poe    c2312603   4.313   4.999   6.336 -0.0965 -0.3781  0.3111
 2851poe    c2312604   4.421   5.051   6.433 -0.0221 -0.3924  0.2356
 2851poe     o212605   4.507   5.138   6.362 -0.4330  0.1488  0.3880
 2851poe    c2312606   4.498   5.278   6.357 -0.7573  0.1201  0.0966
 2851poe    c2312607   4.511   5.349   6.493 -0.1017  0.2284 -0.0158
 2851poe     o212608   4.647   5.356   6.530 -0.0163 -0.6570 -0.1399
 2851poe    c2312609   4.657   5.379   6.669 -0.8255 -0.2355 -0.1411
 2851poe    c2312610   4.626   5.270   6.773  0.1183 -0.4175 -0.0410
 2851poe     o212611   4.729   5.176   6.792  0.0246 -0.5381 -0.1255
 2851poe    c3112612   4.743   5.154   6.931  0.0560 -0.5159 -0.1251
 2852poe    c3112613   2.495   5.141   2.577 -0.1048 -0.2279  0.5541
 2852poe     o212614   2.378   5.213   2.545 -0.0893 -0.3304  0.2620
 2852poe    c2312615   2.314   5.271   2.656  0.1687  0.0158  0.2318
 2852poe    c2312616   2.195   5.362   2.618  0.3915 -0.1767 -0.9583
 2852poe     o212617   2.226   5.495   2.582  0.5570  0.1206  0.2360
 2852poe    c2312618   2.097   5.551   2.578  0.4428 -0.1364  0.3125
 2852poe    c2312619   2.115   5.695   2.528  0.1945 -0.3446 -0.3964
 2852poe     o212620   2.186   5.688   2.407  0.0751 -0.2686 -0.4711
 2852poe    c2312621   2.198   5.813   2.342  0.2901  0.0563  0.1839
 2852poe    c2312622   2.258   5.763   2.209 -0.0425  0.3691 -0.0846
 2852poe     o212623   2.390   5.720   2.230 -0.3263 -0.4855 -0.0279
 2852poe    c3112624   2.455   5.660   2.120  0.3841 -0.0105  0.1308
 2853poe    c3112625   4.389   3.917   4.332 -0.3158  0.8800 -0.1907
 2853poe     o212626   4.394   3.912   4.191  0.0560  0.2706 -0.1608
 2853poe    c2312627   4.520   3.907   4.127  0.0264 -0.3775 -0.1668
 2853poe    c2312628   4.492   3.896   3.976 -0.0798 -0.0246 -0.1735
 2853poe     o212629   4.379   3.813   3.965 -0.1627  0.0966 -0.2313
 2853poe    c2312630   4.341   3.769   3.836 -0.4483 -0.3298 -0.0047
 2853poe    c2312631   4.201   3.705   3.838 -0.0853 -1.1483 -0.3389
 2853poe     o212632   4.184   3.622   3.951  0.0617  0.2842  0.7644
 2853poe    c2312633   4.067   3.545   3.936 -0.0499  0.5086  0.4626
 2853poe    c2312634   4.048   3.452   4.057  0.1080  0.0031  0.1004
 2853poe     o212635   4.119   3.335   4.024  0.0218 -0.0204 -0.0017
 2853poe    c3112636   4.078   3.211   4.080  0.7318 -0.2230  0.0796
 2854poe    c3112637   2.727   3.165   2.798  0.0088 -0.0569  0.1648
 2854poe     o212638   2.848   3.141   2.731 -0.0517  0.5001 -0.1540
 2854poe    c2312639   2.951   3.220   2.788 -0.0515  0.2519  0.1903
 2854poe    c2312640   3.070   3.182   2.698 -0.4038  0.0769 -0.2101
 2854poe     o212641   3.060   3.042   2.682  0.1821  0.0004  0.0754
 2854poe    c2312642   3.190   2.994   2.653  0.1305 -0.0601 -0.0542
 2854poe    c2312643   3.204   2.844   2.686 -0.3647 -0.1139 -0.0761
 2854poe     o212644   3.176   2.803   2.818 -0.0034  0.1729  0.0937
 2854poe    c2312645   3.269   2.715   2.878  0.1826  0.4368  0.1914
 2854poe    c2312646   3.400   2.776   2.931 -0.0421  0.9620  0.1547
 2854poe     o212647   3.468   2.841   2.826  0.1056  0.4575 -0.0663
 2854poe    c3112648   3.587   2.902   2.871  0.3470 -0.2707  0.2916
 2855poe    c3112649   1.453   4.893   4.207  0.2644  0.7503  0.3283
 2855poe     o212650   1.462   4.783   4.294  0.0054  0.5198  0.0656
 2855poe    c2312651   1.329   4.743   4.319  0.0124  0.2003 -0.4085
 2855poe    c2312652   1.316   4.610   4.396 -0.7000  0.2767 -0.3873
 2855poe     o212653   1.183   4.594   4.441 -0.5950 -0.2388 -0.2550
 2855poe    c2312654   1.159   4.459   4.476  0.1069 -0.3616 -0.2259
 2855poe    c2312655   1.102   4.357   4.375 -0.0161 -0.2503 -0.2696
 2855poe     o212656   0.978   4.397   4.322 -0.4077  0.1861  0.9308
 2855poe    c2312657   0.935   4.311   4.219 -0.0117  0.3115  0.6600
 2855poe    c2312658   0.783   4.320   4.198  0.0694  0.6904  0.2096
 2855poe     o212659   0.713   4.287   4.316 -0.4463  0.2247 -0.2171
 2855poe    c3112660   0.573   4.284   4.306 -0.4388  0.5378 -0.4412
 2856poe    c3112661   5.990   4.695   0.680 -0.1926 -0.4161  0.4384
 2856poe     o212662   5.881   4.632   0.618 -0.0251 -0.2115 -0.0697
 2856poe    c2312663   5.911   4.494   0.626 -0.0162 -0.2049  0.0155
 2856poe    c2312664   5.826   4.411   0.528 -0.3299 -0.3091  0.3767
 2856poe     o212665   5.887   4.284   0.534  0.4177  0.0032 -0.4878
 2856poe    c2312666   5.816   4.192   0.454 -0.8190  0.1449  0.4253
 2856poe    c2312667   5.866   4.050   0.487 -0.4588  0.0461 -0.5184
 2856poe     o212668   5.992   4.036   0.425 -0.2521  0.1093 -0.1173
 2856poe    c2312669   6.001   3.899   0.394  0.2830 -0.0397  0.6633
 2856poe    c2312670   6.113   3.859   0.296 -0.6377  0.3245 -0.5619
 2856poe     o212671   6.100   3.724   0.255  0.6687  0.0799 -0.2161
 2856poe    c3112672   6.151   3.702   0.126  0.5300  0.5189 -0.3489
 2857poe    c3112673   3.448   6.339   5.176  0.3040  0.2039 -0.7331
 2857poe     o212674   3.585   6.339   5.209 -0.0096  0.2028  0.6365
 2857poe    c2312675   3.593   6.281   5.337 -0.4535 -1.1129  0.0944
 2857poe    c2312676   3.743   6.255   5.363 -0.3363 -0.1411  0.4322
 2857poe     o212677   3.808   6.156   5.287  0.2579  0.4631  0.1369
 2857poe    c2312678   3.947   6.139   5.306  0.3112  0.0128 -0.6375
 2857poe    c2312679   3.999   6.039   5.201  0.6606  0.1339 -0.5805
 2857poe     o212680   3.931   6.049   5.078  0.3489  0.5915 -0.3735
 2857poe    c2312681   4.003   5.980   4.978  0.5031  0.1178  0.0618
 2857poe    c2312682   3.955   6.031   4.841  0.0311  0.2951  0.2916
 2857poe     o212683   3.818   6.050   4.871  0.1987  1.1211  0.5488
 2857poe    c3112684   3.750   6.107   4.762 -0.5978 -0.3383  0.2595
 2858poe    c3112685   5.405   6.477   1.297  0.6538 -1.0249 -0.4034
 2858poe     o212686   5.341   6.513   1.176 -0.0125  0.5720  0.3956
 2858poe    c2312687   5.431   6.573   1.086  0.0427 -0.1555 -0.0366
 2858poe    c2312688   5.343   6.575   0.959 -0.5785  0.1058  0.3988
 2858poe     o212689   5.283   6.448   0.946  0.1211 -0.1304 -0.5861
 2858poe    c2312690   5.218   6.416   0.825 -0.8168 -0.0575 -0.1152
 2858poe    c2312691   5.149   6.279   0.821  0.2058 -0.5885 -0.1306
 2858poe     o212692   5.075   6.275   0.941 -0.1605  0.1260 -0.3227
 2858poe    c2312693   5.010   6.154   0.973 -0.2714  0.5745  1.2565
 2858poe    c2312694   4.878   6.165   1.051 -0.8918  0.3618  0.2512
 2858poe     o212695   4.898   6.219   1.179  0.4586  0.3048  0.0785
 2858poe    c3112696   4.786   6.205   1.264  0.2599  0.3353 -0.1768
 2859poe    c3112697   2.402   5.013   3.449  0.7783 -0.5778  0.2770
 2859poe     o212698   2.433   5.136   3.387  0.1603 -0.4153  0.2793
 2859poe    c2312699   2.478   5.234   3.478  0.0100  0.2240 -0.3329
 2859poe    c2312700   2.476   5.384   3.444 -0.4613  0.2148 -0.3559
 2859poe     o212701   2.582   5.405   3.354 -0.0820  0.1500  0.0746
 2859poe    c2312702   2.606   5.540   3.320  0.4793 -0.0036 -0.1597
 2859poe    c2312703   2.739   5.558   3.245  0.3878 -0.6560 -0.4855
 2859poe     o212704   2.749   5.467   3.138 -0.1478 -0.7869 -0.4290
 2859poe    c2312705   2.881   5.462   3.088  0.2227  0.0254  0.4553
 2859poe    c2312706   2.868   5.367   2.968 -0.2672  0.0595  0.4779
 2859poe     o212707   2.796   5.252   3.004 -0.4385 -0.0194 -0.0991
 2859poe    c3112708   2.769   5.152   2.909 -0.8042  0.2042 -0.2355
 2860poe    c3112709   7.230   1.038   4.070  0.0585  0.3578  0.4745
 2860poe     o212710   7.142   1.124   4.001 -0.1259 -0.4925 -0.3628
 2860poe    c2312711   7.036   1.060   3.932 -0.1881 -0.3270 -0.4199
 2860poe    c2312712   6.985   1.170   3.837  1.0053  0.5104 -0.1197
 2860poe     o212713   6.974   1.299   3.893  0.4505  0.3528  0.1382
 2860poe    c2312714   6.910   1.397   3.814  0.1051  0.3295  0.3882
 2860poe    c2312715   6.969   1.534   3.850 -0.5354  0.7919 -0.2894
 2860poe     o212716   6.937   1.555   3.986  0.0113 -0.0236 -0.0321
 2860poe    c2312717   6.948   1.684   4.040 -0.2260 -0.3266  0.7557
 2860poe    c2312718   7.049   1.785   3.983 -0.2034 -0.6605  0.2043
 2860poe     o212719   7.182   1.735   3.984  0.0843  0.0601 -0.6919
 2860poe    c3112720   7.289   1.823   3.958  0.5390 -0.1861  0.3089
 2861poe    c3112721   7.042   1.163   5.234  0.0581 -0.3912  0.4648
 2861poe     o212722   7.076   1.294   5.276  0.3334 -0.3112  0.0086
 2861poe    c2312723   6.979   1.395   5.259  0.5174 -0.2062 -0.4269
 2861poe    c2312724   7.045   1.528   5.299  0.4665 -0.2744 -0.1107
 2861poe     o212725   7.043   1.563   5.436  0.2407  0.7175 -0.3637
 2861poe    c2312726   7.160   1.628   5.480 -0.0036  0.6605  0.3844
 2861poe    c2312727   7.167   1.649   5.632  0.3607 -0.5413  0.5453
 2861poe     o212728   7.212   1.530   5.693  0.6431 -0.5790  0.2676
 2861poe    c2312729   7.215   1.538   5.834  0.2571 -0.1481  0.2525
 2861poe    c2312730   7.206   1.413   5.922  0.2880 -0.3245  0.0055
 2861poe     o212731   7.080   1.351   5.929  0.2490 -0.2543 -0.0805
 2861poe    c3112732   7.080   1.254   6.032  0.2793 -0.3265 -0.1488
 2862poe    c3112733   5.843   6.182   1.427 -0.1691 -0.1133 -0.1411
 2862poe     o212734   5.760   6.107   1.341 -0.4906  0.4012 -0.2802
 2862poe    c2312735   5.813   6.094   1.210 -0.1901 -0.0369 -0.1182
 2862poe    c2312736   5.728   5.995   1.129 -0.6304  0.4778 -0.2932
 2862poe     o212737   5.590   6.024   1.128 -0.7506 -0.0762  0.0300
 2862poe    c2312738   5.527   5.908   1.079 -0.3969 -0.2622  0.0118
 2862poe    c2312739   5.399   5.936   0.998 -0.1356  0.3079 -0.2107
 2862poe     o212740   5.288   5.982   1.072  0.1150  0.1109  0.2944
 2862poe    c2312741   5.214   5.877   1.130 -0.0444  0.0989  0.0677
 2862poe    c2312742   5.135   5.927   1.252  0.4455  0.5593  0.2020
 2862poe     o212743   5.211   6.000   1.346  0.4304  0.5932  0.1878
 2862poe    c3112744   5.135   6.082   1.432 -0.9868 -0.2428 -0.2330
 2863poe    c3112745   3.736   5.405   7.287 -0.1187  0.0641  0.2431
 2863poe     o212746   3.623   5.442   7.212  0.2153 -0.0126 -0.3002
 2863poe    c2312747   3.500   5.399   7.267  0.1449 -0.6893 -0.9630
 2863poe    c2312748   3.388   5.424   7.164  0.1308 -0.0440 -0.7930
 2863poe     o212749   3.369   5.560   7.130 -0.2531  0.0494 -0.2184
 2863poe    c2312750   3.233   5.594   7.140 -0.3947 -0.4413 -0.4478
 2863poe    c2312751   3.223   5.744   7.106  0.2158 -0.3609 -0.2743
 2863poe     o212752   3.303   5.760   6.991  0.8701  0.2188  0.2497
 2863poe    c2312753   3.311   5.900   6.970  0.1770  0.2254  0.0031
 2863poe    c2312754   3.415   5.913   6.858  0.4093  0.5381  0.2539
 2863poe     o212755   3.537   5.849   6.888 -0.0161 -0.3618  0.1126
 2863poe    c3112756   3.621   5.879   6.779  0.5689 -0.2824  0.5755
 2864poe    c3112757   4.973   6.338   2.227  0.6753 -0.1642 -0.2785
 2864poe     o212758   4.953   6.403   2.351 -0.0708 -0.4121 -0.2631
 2864poe    c2312759   5.027   6.349   2.458 -0.0870  0.2557  0.0908
 2864poe    c2312760   4.990   6.403   2.597  0.2750  0.0571  0.2656
 2864poe     o212761   5.036   6.534   2.624  0.0872  0.1252  0.2599
 2864poe    c2312762   4.954   6.638   2.578  0.3554  0.2472  0.0570
 2864poe    c2312763   5.050   6.754   2.546  0.2370  0.2811 -0.1793
 2864poe     o212764   5.111   6.785   2.670 -0.2730 -0.3463  0.2336
 2864poe    c2312765   5.196   6.894   2.645 -0.4621 -0.1132  0.5901
 2864poe    c2312766   5.277   6.944   2.766  0.0680 -0.0934  0.2326
 2864poe     o212767   5.356   6.835   2.806 -0.3722 -0.3657  0.3629
 2864poe    c3112768   5.378   6.851   2.944 -0.1390 -0.1411  0.3003
 2865poe    c3112769   0.271   3.166   0.886  0.4926 -0.1613 -0.4343
 2865poe     o212770   0.176   3.156   0.782  0.0608 -0.0099 -0.0612
 2865poe    c2312771   0.115   3.029   0.787  0.4197 -0.1834  0.0119
 2865poe    c2312772  -0.001   2.990   0.880  0.3359 -0.2905 -0.1365
 2865poe     o212773  -0.114   3.072   0.857  0.2555 -0.2064  0.5271
 2865poe    c2312774  -0.229   3.032   0.928  0.1503  0.3256  0.6644
 2865poe    c2312775  -0.353   3.079   0.849  0.0533  0.0646  0.6579
 2865poe     o212776  -0.349   3.045   0.712  0.5369 -0.0231  0.6919
 2865poe    c2312777  -0.465   3.080   0.640  0.9659  0.0335  0.0131
 2865poe    c2312778  -0.443   3.019   0.500 -0.2785 -0.5431  0.0564
 2865poe     o212779  -0.316   3.056   0.452 -0.3417 -0.3495  0.0360
 2865poe    c3112780  -0.299   3.004   0.322  0.2750 -0.0289 -0.0123
 2866poe    c3112781   7.339   2.330   3.390 -0.5292  0.6814  0.3825
 2866poe     o212782   7.416   2.445   3.414  0.2887  0.1801  0.2068
 2866poe    c2312783   7.525   2.438   3.325  0.5920  0.3911  0.5579
 2866poe    c2312784   7.581   2.582   3.320  0.1713  0.5336 -0.2380
 2866poe     o212785   7.595   2.625   3.453 -0.1169  0.1772 -0.0902
 2866poe    c2312786   7.608   2.765   3.462 -0.8154  0.2215  0.3472
 2866poe    c2312787   7.598   2.823   3.604 -0.0492 -0.0656  0.5274
 2866poe     o212788   7.468   2.794   3.651 -0.0846 -0.0203  0.4592
 2866poe    c2312789   7.427   2.885   3.751 -0.0510  0.0942  0.3683
 2866poe    c2312790   7.282   2.865   3.799 -0.1233 -0.2383  0.0246
 2866poe     o212791   7.196   2.844   3.689  0.0298 -0.6356 -0.0207
 2866poe    c3112792   7.074   2.785   3.727 -0.9348  0.6233 -1.0952
 2867poe    c3112793   6.714   6.159   3.758 -0.6055 -0.0079  0.3149
 2867poe     o212794   6.745   6.290   3.718  0.3027 -0.1457  0.5412
 2867poe    c2312795   6.743   6.387   3.821 -0.1614  0.1884  0.2263
 2867poe    c2312796   6.798   6.523   3.774 -0.4270  0.0880 -0.3841
 2867poe     o212797   6.709   6.590   3.687 -0.0400  0.1779 -0.7122
 2867poe    c2312798   6.739   6.727   3.698 -0.1099  0.1002  0.6482
 2867poe    c2312799   6.663   6.804   3.587 -0.3015 -0.6127  0.2786
 2867poe     o212800   6.709   6.783   3.456 -0.0101 -0.0083  0.2830
 2867poe    c2312801   6.646   6.874   3.368  0.1828  0.1312  0.2872
 2867poe    c2312802   6.718   6.998   3.312  0.3018 -0.0116  0.1237
 2867poe     o212803   6.851   7.012   3.269  0.2230  0.3280 -0.0130
 2867poe    c3112804   6.856   7.145   3.222 -0.6763  0.0014 -1.0467
 2868poe    c3112805   1.478   1.371   3.319  0.8440  0.2033 -0.3724
 2868poe     o212806   1.560   1.475   3.366  0.3108  0.3685  0.2009
 2868poe    c2312807   1.564   1.501   3.505  0.4603  0.8954  0.1006
 2868poe    c2312808   1.615   1.397   3.606  0.3144  0.3241 -0.4073
 2868poe     o212809   1.745   1.353   3.577  0.2214 -0.2607  0.0461
 2868poe    c2312810   1.787   1.297   3.699 -0.0849 -0.4543  0.0639
 2868poe    c2312811   1.930   1.240   3.688  0.0752 -0.0948  0.2592
 2868poe     o212812   2.016   1.351   3.680  0.0533 -0.0983 -0.0731
 2868poe    c2312813   2.150   1.307   3.684  0.0787 -0.0397 -0.3141
 2868poe    c2312814   2.265   1.407   3.702 -0.1518  0.2303 -0.3473
 2868poe     o212815   2.267   1.477   3.824 -0.0772  0.6056 -0.5592
 2868poe    c3112816   2.400   1.521   3.838  0.0814 -0.0295 -0.0123
 2869poe    c3112817   0.757   7.353   4.602  0.2298  0.0879 -0.3696
 2869poe     o212818   0.896   7.370   4.581  0.3030 -0.2949 -0.1935
 2869poe    c2312819   0.943   7.494   4.536  0.0597 -0.0103  0.3315
 2869poe    c2312820   1.083   7.471   4.475  0.2074 -0.6158  0.8889
 2869poe     o212821   1.199   7.440   4.549  0.4399 -0.1952  0.7065
 2869poe    c2312822   1.245   7.525   4.652  0.6358 -0.1516  0.5819
 2869poe    c2312823   1.359   7.611   4.595  0.1647  0.0484 -0.0731
 2869poe     o212824   1.459   7.538   4.527  0.1947 -0.2057  0.2408
 2869poe    c2312825   1.572   7.616   4.495  0.4490 -0.5072  0.3974
 2869poe    c2312826   1.687   7.527   4.444  0.4131 -0.2434 -0.1619
 2869poe     o212827   1.755   7.455   4.544 -0.0825 -0.4931  0.0024
 2869poe    c3112828   1.892   7.466   4.513 -0.2495  0.1721 -0.5065
 2870poe    c3112829   6.978   0.301   0.672 -0.1991 -0.1834 -0.3292
 2870poe     o212830   6.858   0.345   0.613 -0.5780  0.0591  0.5940
 2870poe    c2312831   6.794   0.228   0.566  0.6934 -0.2994 -0.3019
 2870poe    c2312832   6.665   0.278   0.498 -0.2243 -0.7420  1.0662
 2870poe     o212833   6.587   0.362   0.579 -0.3354 -0.0775  0.2850
 2870poe    c2312834   6.490   0.434   0.506 -0.3355 -0.2479  0.1161
 2870poe    c2312835   6.425   0.549   0.585 -0.4074  0.2951 -0.7196
 2870poe     o212836   6.525   0.615   0.659 -0.4233 -0.5526  0.0812
 2870poe    c2312837   6.475   0.744   0.689  0.1797 -0.2925 -0.0273
 2870poe    c2312838   6.573   0.831   0.771 -0.1223  0.2748 -0.2672
 2870poe     o212839   6.702   0.854   0.719  0.0911  0.0466  0.1622
 2870poe    c3112840   6.773   0.924   0.819  0.0537  0.2518  0.0452
 2871poe    c3112841   3.781   4.362   5.402  0.2832  0.4274 -0.5969
 2871poe     o212842   3.887   4.282   5.448 -0.2136 -0.1603 -0.4537
 2871poe    c2312843   3.914   4.179   5.355  0.2364 -0.2653 -0.2116
 2871poe    c2312844   3.985   4.062   5.426  0.4034 -0.0208  0.0275
 2871poe     o212845   4.124   4.075   5.451  0.3139  0.1318  0.4615
 2871poe    c2312846   4.164   3.980   5.547 -0.5044 -0.3207  0.3641
 2871poe    c2312847   4.302   4.012   5.605 -0.6829 -0.0340  0.6318
 2871poe     o212848   4.297   4.098   5.717 -0.6434  0.1549  0.4900
 2871poe    c2312849   4.429   4.112   5.764 -0.4002  0.1790 -0.1906
 2871poe    c2312850   4.461   4.216   5.873  0.3954 -0.2116 -0.0463
 2871poe     o212851   4.444   4.158   6.000  0.5456 -0.5991 -0.2021
 2871poe    c3112852   4.484   4.245   6.103  0.1697 -0.3691 -0.2516
 2872poe    c3112853   1.408   7.332   5.017 -0.5853  0.2451  0.0974
 2872poe     o212854   1.414   7.245   4.907 -1.4561  0.4147 -0.0909
 2872poe    c2312855   1.459   7.116   4.943 -0.3315  0.6385 -0.6529
 2872poe    c2312856   1.372   6.989   4.939  0.4488  0.0687  0.1478
 2872poe     o212857   1.369   6.945   4.805  0.2381 -0.8323  0.4424
 2872poe    c2312858   1.232   6.928   4.777  0.2490 -0.1205 -0.0637
 2872poe    c2312859   1.193   6.865   4.642 -0.6108 -0.2850  0.2572
 2872poe     o212860   1.229   6.731   4.616 -0.5134 -0.2167  0.0478
 2872poe    c2312861   1.243   6.702   4.478  0.7713  1.2427 -0.1618
 2872poe    c2312862   1.340   6.583   4.462 -0.0562  0.6264 -0.6146
 2872poe     o212863   1.473   6.627   4.461  0.1948 -0.0676  0.4058
 2872poe    c3112864   1.554   6.512   4.452  0.2459 -0.0268  0.3333
 2873poe    c3112865   1.917   7.226   5.334 -0.1818  0.1612  0.4856
 2873poe     o212866   2.011   7.135   5.283 -0.2203  0.3580  0.0632
 2873poe    c2312867   2.125   7.129   5.365 -0.3008 -0.0822  0.1455
 2873poe    c2312868   2.225   7.042   5.287 -0.2465 -0.0511  0.1800
 2873poe     o212869   2.291   7.095   5.174  0.6484 -0.2871  0.5825
 2873poe    c2312870   2.420   7.045   5.146  0.6753  0.1199 -0.0316
 2873poe    c2312871   2.511   7.134   5.059  0.5200  0.5112  0.1993
 2873poe     o212872   2.647   7.105   5.079  0.5400  0.1036 -0.4562
 2873poe    c2312873   2.732   7.206   5.030 -0.1075  0.5609 -0.6493
 2873poe    c2312874   2.877   7.198   5.082 -0.4750  0.8120  0.4401
 2873poe     o212875   2.932   7.309   5.149  0.6801  0.4183  0.1740
 2873poe    c3112876   2.869   7.341   5.271  0.0817  0.2113 -0.0774
 2874poe    c3112877   3.549   4.274   4.293  0.1425  0.6589 -0.4889
 2874poe     o212878   3.644   4.182   4.342 -0.5712  0.1530 -0.0416
 2874poe    c2312879   3.580   4.058   4.365  0.2836 -0.2638  0.1090
 2874poe    c2312880   3.694   3.962   4.402  0.3503 -0.2080  0.0489
 2874poe     o212881   3.788   4.014   4.494  0.1106  0.5168 -0.1117
 2874poe    c2312882   3.904   3.937   4.470 -0.0145  0.2683  0.0797
 2874poe    c2312883   4.010   4.000   4.561 -0.3433 -0.2069  0.8011
 2874poe     o212884   3.997   4.135   4.522 -0.1215 -0.1133  1.0420
 2874poe    c2312885   4.104   4.206   4.578  0.3075  0.0459  0.0332
 2874poe    c2312886   4.080   4.358   4.591  0.3493  0.1098 -0.6283
 2874poe     o212887   4.076   4.414   4.461  1.0623 -0.1184 -0.7572
 2874poe    c3112888   4.144   4.537   4.471  0.6046  0.0804  0.0259
 2875poe    c3112889   2.213   7.265   3.758 -0.5015 -0.5223 -0.4130
 2875poe     o212890   2.330   7.206   3.809 -0.0466  0.1015 -0.7332
 2875poe    c2312891   2.450   7.249   3.747  0.3568  0.1164  0.0304
 2875poe    c2312892   2.547   7.136   3.709  0.1220  0.1616 -0.7248
 2875poe     o212893   2.596   7.046   3.807  0.6831  0.0229 -1.1260
 2875poe    c2312894   2.506   6.945   3.844  0.6952  0.5548  0.4041
 2875poe    c2312895   2.557   6.858   3.961  0.0908  0.4078  0.5630
 2875poe     o212896   2.554   6.914   4.091 -0.0545  0.8366  0.3790
 2875poe    c2312897   2.566   6.811   4.187  0.2279  0.6785  0.1780
 2875poe    c2312898   2.581   6.863   4.332 -0.2296  0.0776  0.4402
 2875poe     o212899   2.700   6.935   4.351 -0.6480  0.7325  0.5968
 2875poe    c3112900   2.762   6.926   4.477 -0.2681 -0.2806  0.3446
 2876poe    c3112901   3.724   3.852   3.326  0.4608 -0.1276 -0.4198
 2876poe     o212902   3.647   3.785   3.423  0.5132  0.0652 -0.2451
 2876poe    c2312903   3.724   3.684   3.486  0.1016  0.1211  0.3591
 2876poe    c2312904   3.621   3.613   3.575  0.2816 -0.3569  0.1877
 2876poe     o212905   3.506   3.572   3.504 -0.3035  0.7117  0.4875
 2876poe    c2312906   3.428   3.473   3.568  0.1936 -0.1235 -0.1675
 2876poe    c2312907   3.310   3.418   3.486  0.2158 -0.2631 -0.1069
 2876poe     o212908   3.338   3.341   3.372 -0.1641 -0.3419 -0.1498
 2876poe    c2312909   3.217   3.308   3.307 -0.3193  0.1472 -0.1119
 2876poe    c2312910   3.260   3.227   3.183 -0.1916  0.3261 -0.1839
 2876poe     o212911   3.347   3.293   3.093  0.1865  0.0889  0.0038
 2876poe    c3112912   3.328   3.260   2.958 -0.1224  0.5889 -0.0807
 2877poe    c3112913   3.326   6.724   7.163  0.8086 -0.7269 -0.0757
 2877poe     o212914   3.428   6.811   7.206  0.2979 -0.0515 -0.2280
 2877poe    c2312915   3.550   6.740   7.201  0.0091 -0.5330 -0.4719
 2877poe    c2312916   3.667   6.818   7.138 -0.0520  0.7113  0.8986
 2877poe     o212917   3.634   6.881   7.016  0.1030 -0.1070  0.4215
 2877poe    c2312918   3.729   6.978   6.976 -0.1102  0.0360  0.2613
 2877poe    c2312919   3.714   7.044   6.838 -0.2312  0.0520  0.2817
 2877poe     o212920   3.718   6.937   6.746  0.5466  0.0309  0.3304
 2877poe    c2312921   3.740   6.985   6.615 -0.9093  0.0181  0.0679
 2877poe    c2312922   3.710   6.883   6.504  0.1820  0.0099 -0.2328
 2877poe     o212923   3.790   6.769   6.526  0.6324  0.3149 -0.2948
 2877poe    c3112924   3.799   6.694   6.407 -0.0662  0.3396 -0.3643
 2878poe    c3112925   6.161   7.195   2.864 -0.7565  0.4696 -0.1316
 2878poe     o212926   6.184   7.109   2.754  0.1093  0.3317  0.1460
 2878poe    c2312927   6.104   7.121   2.639 -0.0055 -0.0554  0.1834
 2878poe    c2312928   6.125   7.247   2.553  0.3842 -0.2568 -0.0195
 2878poe     o212929   6.259   7.267   2.515  0.3674  0.0044  0.0586
 2878poe    c2312930   6.298   7.401   2.540 -0.2111  0.2103 -0.1249
 2878poe    c2312931   6.420   7.436   2.454  0.2379 -0.0816  0.3828
 2878poe     o212932   6.522   7.341   2.471 -0.0636 -0.5922 -0.5559
 2878poe    c2312933   6.608   7.346   2.360 -0.2446  0.0152 -0.6737
 2878poe    c2312934   6.731   7.258   2.389 -0.2869  0.3975  0.7250
 2878poe     o212935   6.693   7.154   2.477 -0.0035 -0.0081  0.3783
 2878poe    c3112936   6.804   7.070   2.497 -0.3183 -0.4623  0.2436
 2879poe    c3112937   2.579   5.982   7.327 -0.2639  0.2464 -0.2952
 2879poe     o212938   2.463   6.041   7.273 -0.6976 -0.3194  0.0103
 2879poe    c2312939   2.456   6.179   7.299  0.0782 -0.4368  0.9167
 2879poe    c2312940   2.315   6.241   7.304  0.1880 -0.1646  0.6637
 2879poe     o212941   2.241   6.241   7.184  0.6106 -0.3709  0.3999
 2879poe    c2312942   2.106   6.267   7.213  0.4371 -0.4130 -0.3542
 2879poe    c2312943   2.017   6.266   7.087 -0.1667  0.0667  0.0590
 2879poe     o212944   2.052   6.142   7.031  0.3929  0.2499 -0.0057
 2879poe    c2312945   1.952   6.121   6.934  0.3011  0.0569  0.1299
 2879poe    c2312946   2.003   6.013   6.836 -0.4201  0.2385 -0.4562
 2879poe     o212947   2.131   6.061   6.801 -0.1929  0.3141  0.4420
 2879poe    c3112948   2.192   6.000   6.689 -0.3565  0.1419  0.4457
 2880poe    c3112949   7.271   2.394   5.510  0.2394  0.1728 -0.0853
 2880poe     o212950   7.300   2.479   5.619 -0.3136 -0.2343  0.3826
 2880poe    c2312951   7.351   2.606   5.584 -0.7744 -0.1260  0.1070
 2880poe    c2312952   7.361   2.702   5.704 -0.3193 -0.2375  0.1598
 2880poe     o212953   7.451   2.659   5.803 -0.6025 -1.0681  0.0652
 2880poe    c2312954   7.445   2.740   5.919 -0.2240  0.1786 -0.7626
 2880poe    c2312955   7.545   2.680   6.020 -0.5303  0.0837 -0.5164
 2880poe     o212956   7.507   2.544   6.031 -0.3634  0.0930  0.2013
 2880poe    c2312957   7.575   2.494   6.144 -0.1522 -0.0698  0.0031
 2880poe    c2312958   7.567   2.340   6.158 -0.2694 -0.0326  0.3609
 2880poe     o212959   7.596   2.280   6.034 -0.1366 -0.2052  0.4749
 2880poe    c3112960   7.638   2.147   6.050  0.4690 -0.1591 -0.6089
 2881poe    c3112961   0.677   0.463   5.895  0.5017  0.5373  0.1186
 2881poe     o212962   0.708   0.453   5.758 -0.4268 -0.3137 -0.0411
 2881poe    c2312963   0.604   0.498   5.675  0.1335  0.5708 -0.2762
 2881poe    c2312964   0.648   0.455   5.534 -0.2931  0.3775 -0.3549
 2881poe     o212965   0.758   0.529   5.483 -0.4588  0.7572 -0.1664
 2881poe    c2312966   0.781   0.516   5.345  0.2182  0.5230 -0.0350
 2881poe    c2312967   0.866   0.634   5.294  0.2028  0.1098 -1.0309
 2881poe     o212968   0.982   0.663   5.369 -0.1963 -0.5087 -0.1653
 2881poe    c2312969   1.059   0.766   5.312 -0.3243 -0.5008 -0.3240
 2881poe    c2312970   1.188   0.802   5.387 -0.4397 -0.3963 -0.1762
 2881poe     o212971   1.159   0.812   5.524 -0.5153 -0.7286 -0.1668
 2881poe    c3112972   1.282   0.821   5.593 -0.9158  0.0847  0.4605
 2882poe    c3112973   5.000   6.132   5.492 -0.6914  0.7149  0.0205
 2882poe     o212974   5.008   6.217   5.380 -0.1823 -0.0858 -0.5596
 2882poe    c2312975   4.960   6.161   5.259 -0.3064 -0.4259 -0.3532
 2882poe    c2312976   4.955   6.265   5.146  0.2735 -0.2403 -0.2123
 2882poe     o212977   4.983   6.208   5.020  0.9525 -0.2298 -0.0736
 2882poe    c2312978   5.003   6.306   4.921 -0.1343  0.1599  0.0765
 2882poe    c2312979   5.026   6.252   4.778  0.5631  0.1040  0.2093
 2882poe     o212980   5.037   6.352   4.680 -0.1940  0.0359  0.0541
 2882poe    c2312981   4.967   6.329   4.559 -0.3169  0.8678 -0.0403
 2882poe    c2312982   4.994   6.455   4.475  0.6221  0.4184 -0.4251
 2882poe     o212983   4.932   6.563   4.540  0.1146  0.1418 -0.4435
 2882poe    c3112984   4.902   6.667   4.449 -0.3210 -0.1877 -0.6784
 2883poe    c3112985   0.172   4.768   2.265  0.7756 -0.1864 -0.2923
 2883poe     o212986   0.079   4.803   2.365  0.6231 -0.3200 -0.3885
 2883poe    c2312987   0.144   4.824   2.488 -0.3601 -0.1254  0.1107
 2883poe    c2312988   0.054   4.774   2.603 -0.0980 -1.2252 -0.1483
 2883poe     o212989  -0.065   4.846   2.624  0.3522 -0.5716  0.1839
 2883poe    c2312990  -0.125   4.818   2.749 -0.0305  0.0083  0.1387
 2883poe    c2312991  -0.272   4.862   2.759  0.0210  0.2177 -0.0296
 2883poe     o212992  -0.351   4.789   2.667 -0.3640  0.4255  0.1326
 2883poe    c2312993  -0.473   4.851   2.632 -0.3451  0.2203 -0.3069
 2883poe    c2312994  -0.574   4.776   2.544 -0.1995 -0.1401 -0.1730
 2883poe     o212995  -0.516   4.725   2.426  0.1751 -0.0434 -0.0296
 2883poe    c3112996  -0.581   4.633   2.341 -0.6213  0.0001  0.5200
 2884poe    c3112997   4.251   6.273   1.032 -0.3610  0.2497  0.4496
 2884poe     o212998   4.281   6.162   1.115 -0.5012 -0.1436 -0.0224
 2884poe    c2312999   4.249   6.188   1.249  0.1582 -0.1318  0.1331
 2884poe    c2313000   4.368   6.180   1.348 -0.5578  0.0149  1.0209
 2884poe     o213001   4.406   6.046   1.369 -0.1115  0.0071  0.2128
 2884poe    c2313002   4.504   6.022   1.467 -0.3200  0.6365  0.5800
 2884poe    c2313003   4.457   5.960   1.600 -0.5432 -0.2404  0.1008
 2884poe     o213004   4.449   5.820   1.584 -0.3014 -0.2671  0.2188
 2884poe    c2313005   4.432   5.742   1.700 -0.1200 -0.3544  0.1873
 2884poe    c2313006   4.407   5.591   1.680  0.4082 -0.4452  0.1919
 2884poe     o213007   4.523   5.523   1.638  0.2541 -0.4618 -0.2059
 2884poe    c3113008   4.522   5.385   1.664  0.3467 -0.4395 -0.0897
 2885poe    c3113009   4.699   2.973   4.656  0.3477 -0.9059 -0.2256
 2885poe     o213010   4.712   2.982   4.797 -0.0002  0.2853 -0.2666
 2885poe    c2313011   4.667   3.104   4.853  0.0257  0.1289  0.0943
 2885poe    c2313012   4.724   3.111   4.996 -0.3055 -0.1842  0.2450
 2885poe     o213013   4.856   3.159   4.989 -0.3343 -0.1221  0.1146
 2885poe    c2313014   4.879   3.233   5.107  0.6389 -0.1573 -0.0447
 2885poe    c2313015   5.030   3.257   5.130  0.5992 -0.0220  0.0776
 2885poe     o213016   5.048   3.342   5.241 -0.4677  0.2605  0.0426
 2885poe    c2313017   5.184   3.378   5.242 -0.5913  0.7305  0.2214
 2885poe    c2313018   5.266   3.351   5.370  0.0808 -0.0448 -0.3645
 2885poe     o213019   5.272   3.213   5.398 -0.1943  0.1753  0.8199
 2885poe    c3113020   5.364   3.193   5.504  0.1502 -0.0602  0.4800
 2886poe    c3113021   3.752   3.177   0.677 -0.1762 -0.1789  0.1336
 2886poe     o213022   3.798   3.245   0.791 -0.3306  0.1031  0.0280
 2886poe    c2313023   3.806   3.386   0.791  0.1184  0.0852  0.6750
 2886poe    c2313024   3.951   3.425   0.755  0.3330 -0.9552  0.3828
 2886poe     o213025   3.995   3.379   0.629  0.4217 -0.5234  0.2575
 2886poe    c2313026   4.098   3.462   0.580  0.4651 -0.7162  0.0247
 2886poe    c2313027   4.147   3.451   0.434  0.1818 -0.2578 -0.1054
 2886poe     o213028   4.060   3.500   0.334 -0.1137 -0.1809  0.1878
 2886poe    c2313029   4.102   3.499   0.200  0.4042  0.1962  0.3476
 2886poe    c2313030   3.993   3.579   0.126  0.2387 -0.4610 -0.1292
 2886poe     o213031   3.871   3.511   0.105 -0.2359  0.1615  0.5458
 2886poe    c3113032   3.795   3.576   0.006  0.1352  0.2077  0.2891
 2887poe    c3113033   4.068   1.670   2.753 -0.0991 -0.3379 -0.3119
 2887poe     o213034   4.113   1.542   2.715 -0.2368 -0.5483  0.2199
 2887poe    c2313035   4.008   1.481   2.644  0.1054 -0.7363 -0.1331
 2887poe    c2313036   3.997   1.328   2.660 -0.1546 -0.7229 -0.1691
 2887poe     o213037   3.937   1.292   2.782  0.5037 -0.6239  0.1901
 2887poe    c2313038   3.881   1.163   2.785 -0.0642 -0.3853 -0.1539
 2887poe    c2313039   3.840   1.133   2.930 -0.1162 -0.3015 -0.1511
 2887poe     o213040   3.954   1.127   3.013  0.1979 -0.1849 -0.5721
 2887poe    c2313041   3.921   1.042   3.121 -0.2025  0.1203 -0.4518
 2887poe    c2313042   4.018   1.049   3.240 -0.1131 -0.1509 -0.5077
 2887poe     o213043   4.028   1.181   3.289  0.1680 -0.0560 -0.8196
 2887poe    c3113044   4.111   1.200   3.401 -0.6334  0.0504 -0.2309
 2888poe    c3113045   7.007   2.941   2.303 -0.0161  0.1490 -0.5534
 2888poe     o213046   7.034   2.808   2.267  0.1309  0.2792 -0.9208
 2888poe    c2313047   7.165   2.808   2.213  0.5995  0.4297  0.1863
 2888poe    c2313048   7.205   2.673   2.151 -0.7805 -0.1377  0.4880
 2888poe     o213049   7.182   2.557   2.228 -0.3015 -0.0412  0.7811
 2888poe    c2313050   7.228   2.451   2.147 -0.6342  0.4482 -0.0655
 2888poe    c2313051   7.120   2.342   2.148 -0.6088  0.4234  0.0060
 2888poe     o213052   7.113   2.277   2.273  0.6123 -0.1609 -0.2113
 2888poe    c2313053   7.152   2.142   2.266  0.0971 -0.3331  0.1412
 2888poe    c2313054   7.107   2.073   2.396 -0.2082 -0.1763  0.1179
 2888poe     o213055   7.198   2.118   2.495 -0.1176 -0.2261  0.0561
 2888poe    c3113056   7.245   2.004   2.564  0.1819 -0.0505  0.1440
 2889poe    c3113057   5.821   0.078   2.270 -0.0396  0.2560 -0.1178
 2889poe     o213058   5.746  -0.007   2.186 -0.0263 -0.0930  0.2186
 2889poe    c2313059   5.835  -0.092   2.117 -0.0606 -0.5029  0.6724
 2889poe    c2313060   5.747  -0.195   2.044  0.3934 -0.1421 -0.4028
 2889poe     o213061   5.664  -0.113   1.965  0.3229  0.5595  0.3949
 2889poe    c2313062   5.609  -0.177   1.852  1.0720  0.4618  0.0752
 2889poe    c2313063   5.528  -0.066   1.781  0.9386 -0.0373 -0.5549
 2889poe     o213064   5.613   0.040   1.744  0.6326  0.1019 -0.8530
 2889poe    c2313065   5.543   0.123   1.653 -0.3113  0.1190 -0.1287
 2889poe    c2313066   5.634   0.224   1.580  0.1797  0.0433  0.3679
 2889poe     o213067   5.661   0.319   1.680  0.0817  0.2741  0.1762
 2889poe    c3113068   5.754   0.410   1.625  0.5566 -0.3484 -0.0571
 2890poe    c3113069   6.540   1.328   6.283  0.2168  0.5806  0.9649
 2890poe     o213070   6.592   1.421   6.191  0.3879 -0.3944  0.0586
 2890poe    c2313071   6.733   1.412   6.197  0.4092 -0.1104  0.0171
 2890poe    c2313072   6.805   1.519   6.113  0.2296 -0.1559 -0.1961
 2890poe     o213073   6.789   1.505   5.973  0.1425 -0.7144 -0.1350
 2890poe    c2313074   6.855   1.606   5.900 -0.3943 -0.4092 -0.2022
 2890poe    c2313075   6.783   1.618   5.765 -0.1565  0.0113 -0.2952
 2890poe     o213076   6.645   1.637   5.782 -0.1249  0.1243 -0.1706
 2890poe    c2313077   6.597   1.629   5.650  0.0923  0.5829 -0.2804
 2890poe    c2313078   6.457   1.692   5.637 -0.1763 -0.0194 -0.3836
 2890poe     o213079   6.366   1.653   5.736  0.3504  0.6911  0.3922
 2890poe    c3113080   6.235   1.670   5.688  0.2837  0.2534  0.4181
 2891poe    c3113081   2.570   3.157   4.684  0.4508  0.0961  0.0387
 2891poe     o213082   2.437   3.178   4.641  0.1925 -0.2537  0.6525
 2891poe    c2313083   2.398   3.099   4.531  0.0781  0.1415  0.4071
 2891poe    c2313084   2.248   3.109   4.500  0.1431  0.2148  0.1121
 2891poe     o213085   2.212   3.245   4.488 -0.2618  0.1078  0.0780
 2891poe    c2313086   2.097   3.268   4.410  0.3497  0.0108 -0.8799
 2891poe    c2313087   2.069   3.417   4.387 -0.2701  0.0415  0.0110
 2891poe     o213088   2.061   3.496   4.504 -0.1868 -0.1473  0.1438
 2891poe    c2313089   1.951   3.489   4.592 -0.4950  0.3275 -0.2025
 2891poe    c2313090   1.968   3.597   4.702  0.2387  0.2957 -0.2788
 2891poe     o213091   2.106   3.597   4.732  0.2313 -0.3451 -0.2260
 2891poe    c3113092   2.132   3.708   4.814  0.4166 -0.0410 -0.6929
 2892poe    c3113093   2.616   1.244   4.492  0.4252  0.2177  0.1706
 2892poe     o213094   2.589   1.381   4.470 -0.2327  0.0461 -0.1105
 2892poe    c2313095   2.502   1.432   4.569  0.1392 -0.4329  0.4758
 2892poe    c2313096   2.496   1.584   4.547  0.7197 -0.4510  0.1935
 2892poe     o213097   2.619   1.654   4.549  0.4339  0.0778 -0.2500
 2892poe    c2313098   2.613   1.794   4.554 -0.3348  0.0357  0.1770
 2892poe    c2313099   2.733   1.872   4.497  0.0494 -0.7545 -0.1077
 2892poe     o213100   2.851   1.878   4.573 -0.2401 -0.0300  0.2942
 2892poe    c2313101   2.963   1.799   4.541  0.0210  0.1890  0.6525
 2892poe    c2313102   3.047   1.833   4.416 -0.2055 -0.5525  0.2912
 2892poe     o213103   3.000   1.799   4.287 -0.1953 -0.2535  0.2086
 2892poe    c3113104   3.085   1.854   4.189 -0.1982 -0.0440  0.3232
 2893poe    c3113105   6.552   3.056   0.308 -0.5613  0.3885 -0.1563
 2893poe     o213106   6.633   3.125   0.401 -0.5074 -0.1651  0.2172
 2893poe    c2313107   6.565   3.232   0.463  0.1083  0.0507  0.5276
 2893poe    c2313108   6.663   3.340   0.511  0.5320 -0.2628  0.3732
 2893poe     o213109   6.723   3.426   0.417 -0.2024 -0.2293 -0.0756
 2893poe    c2313110   6.825   3.354   0.351  0.2724 -0.2015  0.6216
 2893poe    c2313111   6.933   3.442   0.286 -0.2205 -0.0381  0.0182
 2893poe     o213112   7.005   3.524   0.376  0.1824 -0.0806 -0.2621
 2893poe    c2313113   7.120   3.581   0.317  0.2936 -0.0297  0.0031
 2893poe    c2313114   7.200   3.681   0.401  0.3732  0.0343 -0.1482
 2893poe     o213115   7.156   3.815   0.403  0.2346 -0.0155  0.1579
 2893poe    c3113116   7.060   3.854   0.499 -0.1157  0.2759 -0.3050
 2894poe    c3113117   3.887   5.588   0.515 -0.3570 -0.4215 -0.2758
 2894poe     o213118   3.923   5.469   0.448  0.3216 -0.1747 -0.3564
 2894poe    c2313119   4.064   5.459   0.447  0.3478  0.1908 -0.5132
 2894poe    c2313120   4.120   5.416   0.310  0.5876 -0.4593 -0.2133
 2894poe     o213121   4.079   5.501   0.205  0.7456 -0.0517  0.0524
 2894poe    c2313122   4.101   5.449   0.075 -0.2400 -0.0138 -0.1349
 2894poe    c2313123   4.157   5.552  -0.024 -0.6119 -0.1582 -0.4948
 2894poe     o213124   4.296   5.534  -0.035 -0.5759 -0.2840  0.1460
 2894poe    c2313125   4.352   5.596  -0.149  0.0272 -0.4977  0.3213
 2894poe    c2313126   4.473   5.517  -0.201  0.0225 -0.3936  0.1523
 2894poe     o213127   4.571   5.517  -0.100 -0.1590  0.3887  0.3345
 2894poe    c3113128   4.635   5.393  -0.121 -0.0878  0.4054  0.4464
 2895poe    c3113129   7.317   1.480   3.394  0.2496 -0.1984  0.0926
 2895poe     o213130   7.210   1.453   3.482  0.3556  0.0104  0.2863
 2895poe    c2313131   7.202   1.317   3.518  0.1281 -0.1030 -0.1891
 2895poe    c2313132   7.287   1.272   3.638  0.3341  0.3144 -0.1786
 2895poe     o213133   7.260   1.339   3.759  0.0642 -0.3138  0.1130
 2895poe    c2313134   7.380   1.341   3.834  0.2069  0.6910 -0.1229
 2895poe    c2313135   7.361   1.433   3.956 -0.3689  0.3074  0.0837
 2895poe     o213136   7.255   1.380   4.032  0.1864 -0.1993  0.5110
 2895poe    c2313137   7.253   1.443   4.158 -0.7084  0.6445  0.0869
 2895poe    c2313138   7.161   1.362   4.252  0.2609 -0.1891  0.3410
 2895poe     o213139   7.065   1.310   4.162  0.4213  0.4796 -0.2362
 2895poe    c3113140   6.947   1.311   4.241  0.5633 -0.4798  0.0132
 2896poe    c3113141   6.657   2.946   5.587 -0.2647 -0.5144  0.3853
 2896poe     o213142   6.601   2.900   5.708 -0.2453 -0.5244  0.3905
 2896poe    c2313143   6.677   2.935   5.822  1.0191 -0.3932 -0.4738
 2896poe    c2313144   6.596   2.915   5.951  0.2154  0.1860 -0.8798
 2896poe     o213145   6.520   2.796   5.946  0.1601  0.1644  0.1359
 2896poe    c2313146   6.573   2.696   6.030 -0.1022  0.3587  0.5365
 2896poe    c2313147   6.454   2.600   6.049 -0.3140  0.5227  0.0566
 2896poe     o213148   6.359   2.635   6.147 -0.1620 -0.0207  0.4008
 2896poe    c2313149   6.409   2.597   6.274 -0.1586 -0.1982  0.3458
 2896poe    c2313150   6.328   2.648   6.395  0.2954 -0.1843  0.6438
 2896poe     o213151   6.363   2.781   6.423 -0.0649  0.2061 -0.6713
 2896poe    c3113152   6.295   2.827   6.538 -0.1219 -0.4245 -0.4475
 2897poe    c3113153   1.132   1.149   3.585 -0.1089  0.5896 -0.1897
 2897poe     o213154   1.043   1.093   3.679  0.4727 -0.2563 -0.1297
 2897poe    c2313155   1.035   1.178   3.791  0.1171 -0.3118 -0.1128
 2897poe    c2313156   0.943   1.130   3.906  0.1973  0.2108  0.1690
 2897poe     o213157   0.822   1.082   3.853  0.1267  0.6972 -0.1226
 2897poe    c2313158   0.722   1.076   3.952  0.1125  0.2433 -0.1606
 2897poe    c2313159   0.610   0.978   3.912  0.0457 -0.0080  0.6243
 2897poe     o213160   0.649   0.844   3.902 -0.2379 -0.0851  0.5282
 2897poe    c2313161   0.533   0.765   3.895 -0.3138  0.0856 -0.2483
 2897poe    c2313162   0.548   0.627   3.827  0.2492  0.0490 -0.0515
 2897poe     o213163   0.670   0.567   3.867  0.3784  0.1437 -0.3038
 2897poe    c3113164   0.681   0.449   3.791  0.7975  0.0663 -0.1218
 2898poe    c3113165   3.445   1.913   1.637  0.3451 -0.0437  0.7091
 2898poe     o213166   3.328   1.991   1.632  0.3999 -0.0023 -0.0301
 2898poe    c2313167   3.260   1.970   1.510 -0.0106 -0.8050  0.3294
 2898poe    c2313168   3.109   2.001   1.513  0.0927 -0.2927  0.3953
 2898poe     o213169   3.103   2.102   1.611 -0.4599  0.0249  0.0399
 2898poe    c2313170   2.974   2.153   1.635 -0.1881  0.5326  0.4418
 2898poe    c2313171   2.982   2.250   1.754 -0.6543  0.0851  0.8451
 2898poe     o213172   3.057   2.199   1.862  0.6131  0.1358  0.0057
 2898poe    c2313173   3.007   2.254   1.981 -0.1785 -0.7576  0.0913
 2898poe    c2313174   3.086   2.202   2.102 -0.1680  0.4682  0.6264
 2898poe     o213175   3.096   2.062   2.101  0.1311  0.4906  0.2591
 2898poe    c3113176   3.174   2.010   2.206 -0.1987 -0.5183  0.0262
 2899poe    c3113177   4.339   5.699   2.148  0.1074  0.0426  0.1200
 2899poe     o213178   4.403   5.585   2.096 -0.0771  0.1262 -0.2874
 2899poe    c2313179   4.378   5.455   2.145  0.0255  0.3256  0.2919
 2899poe    c2313180   4.452   5.357   2.053 -0.1769 -0.3848  0.8795
 2899poe     o213181   4.591   5.363   2.075 -0.1250  0.0117  0.4320
 2899poe    c2313182   4.666   5.249   2.039 -0.4090 -0.1777  0.4434
 2899poe    c2313183   4.803   5.238   2.109 -0.1521  0.3463  0.0265
 2899poe     o213184   4.880   5.351   2.074 -0.1822  0.3376 -0.0724
 2899poe    c2313185   5.013   5.326   2.114 -0.1286  0.0026 -0.4633
 2899poe    c2313186   5.078   5.464   2.095  0.5074 -0.1347  0.6836
 2899poe     o213187   4.982   5.566   2.113  0.7739  0.1430  0.5393
 2899poe    c3113188   5.029   5.689   2.062 -0.2999  0.4521  0.2634
 2900poe    c3113189   4.743   2.770   3.303 -0.0844  0.0456  0.0600
 2900poe     o213190   4.718   2.759   3.164 -0.1706 -0.2870  0.1009
 2900poe    c2313191   4.579   2.772   3.145 -0.1497 -0.2188 -0.0059
 2900poe    c2313192   4.554   2.743   2.996  0.2173 -0.5576 -0.0046
 2900poe     o213193   4.556   2.613   2.943 -0.0055 -0.2268 -0.8579
 2900poe    c2313194   4.434   2.580   2.881 -0.4765  0.3621 -0.2569
 2900poe    c2313195   4.441   2.460   2.785 -0.2713  0.2422 -0.0909
 2900poe     o213196   4.482   2.338   2.845  0.2425  0.4857  0.0638
 2900poe    c2313197   4.474   2.228   2.757 -0.2212  0.1799  0.4826
 2900poe    c2313198   4.585   2.123   2.771 -0.2152  0.1090 -0.0534
 2900poe     o213199   4.720   2.165   2.761 -0.1190 -0.2804 -0.4173
 2900poe    c3113200   4.805   2.070   2.821  0.6372  0.5657 -0.1227
 2901poe    c3113201   0.849   6.577   4.558 -0.1584 -0.6615  0.5194
 2901poe     o213202   0.776   6.632   4.450  0.7893 -0.3070  0.0506
 2901poe    c2313203   0.647   6.579   4.431  0.6520  0.1960 -0.4408
 2901poe    c2313204   0.579   6.657   4.317  0.6010 -0.1296 -0.6344
 2901poe     o213205   0.615   6.790   4.346  0.2127 -0.0110 -0.7020
 2901poe    c2313206   0.578   6.884   4.248 -0.4068  0.1006 -0.3690
 2901poe    c2313207   0.625   7.029   4.272  0.2951 -0.1710 -0.1001
 2901poe     o213208   0.762   7.039   4.238  0.3487  0.6007  0.3239
 2901poe    c2313209   0.801   7.174   4.247  0.2899  0.7070 -0.8232
 2901poe    c2313210   0.947   7.188   4.201  0.5915  0.0813 -0.0677
 2901poe     o213211   1.055   7.145   4.282  0.0541  0.2478  0.7551
 2901poe    c3113212   1.171   7.166   4.204 -0.3326  0.1109  0.1326
 2902poe    c3113213   2.744   2.936   3.841  0.6051  0.2078 -0.3725
 2902poe     o213214   2.724   2.862   3.960  0.0667 -0.0337 -0.6083
 2902poe    c2313215   2.619   2.768   3.960 -0.1321  0.1813  0.2970
 2902poe    c2313216   2.585   2.725   4.104  0.0756  0.4104  0.4166
 2902poe     o213217   2.682   2.634   4.149  0.0891 -0.1316 -0.6753
 2902poe    c2313218   2.627   2.570   4.263 -0.2572 -0.4058 -0.9946
 2902poe    c2313219   2.723   2.466   4.323 -0.2510 -0.0138 -0.3144
 2902poe     o213220   2.844   2.535   4.343  0.0091 -0.5260 -0.0831
 2902poe    c2313221   2.946   2.448   4.386  0.3149  0.0391  0.3592
 2902poe    c2313222   3.084   2.515   4.389  0.2669  0.1608 -0.0311
 2902poe     o213223   3.078   2.580   4.264  0.5525 -0.1734 -0.2207
 2902poe    c3113224   3.200   2.635   4.221  0.2517  0.7901  0.1354
 2903poe    c3113225   1.296   3.617   0.992  0.1441  0.5553 -0.1864
 2903poe     o213226   1.371   3.633   1.111 -0.0609  0.3159 -0.0216
 2903poe    c2313227   1.475   3.724   1.081  0.7610 -0.5973 -0.0013
 2903poe    c2313228   1.560   3.786   1.194  0.6780  0.5591 -0.5654
 2903poe     o213229   1.487   3.866   1.284  0.5818 -0.0479 -0.0966
 2903poe    c2313230   1.410   3.794   1.377  0.0205 -0.1126 -0.6017
 2903poe    c2313231   1.293   3.884   1.420  0.1811 -0.1291 -0.1228
 2903poe     o213232   1.320   3.986   1.513  0.3856 -0.2552 -0.0426
 2903poe    c2313233   1.210   4.066   1.550  0.5049  0.1368 -0.5279
 2903poe    c2313234   1.254   4.164   1.660 -0.0509 -0.0822 -0.1064
 2903poe     o213235   1.347   4.257   1.610  0.0739 -0.2867 -0.2513
 2903poe    c3113236   1.447   4.277   1.708  0.3979  0.3127 -0.6979
 2904poe    c3113237   0.978   5.196   1.100 -0.0481 -0.8201 -0.2853
 2904poe     o213238   0.953   5.202   0.961 -0.1810 -0.2136 -0.2353
 2904poe    c2313239   1.079   5.186   0.900  0.0161 -0.1243  0.1461
 2904poe    c2313240   1.064   5.157   0.750 -0.0439  0.2770  0.0734
 2904poe     o213241   0.967   5.241   0.691  0.0261  0.4008  0.1343
 2904poe    c2313242   0.944   5.193   0.561  0.6936 -0.3030  0.2665
 2904poe    c2313243   0.865   5.303   0.488  0.5706 -0.5567  0.0131
 2904poe     o213244   0.764   5.329   0.583  0.6107  0.2380 -0.1544
 2904poe    c2313245   0.670   5.418   0.528  0.0549 -0.1929  0.0836
 2904poe    c2313246   0.539   5.441   0.605  0.0546  0.2495 -0.0459
 2904poe     o213247   0.564   5.521   0.719 -0.4982 -0.1491  0.3645
 2904poe    c3113248   0.446   5.526   0.795 -0.5441 -0.1482  0.2941
 2905poe    c3113249   3.520   3.633   6.314  0.8201 -0.5145  0.1422
 2905poe     o213250   3.407   3.549   6.306  0.3327  0.0864  0.5687
 2905poe    c2313251   3.292   3.618   6.349  0.0904 -0.1437  0.2952
 2905poe    c2313252   3.208   3.531   6.445  0.0456 -0.3732  0.0466
 2905poe     o213253   3.180   3.423   6.358  0.1369 -0.4979  0.1734
 2905poe    c2313254   3.087   3.340   6.423 -0.2634 -0.1638  0.0266
 2905poe    c2313255   3.051   3.229   6.322  0.2525  0.1248 -0.4759
 2905poe     o213256   3.160   3.146   6.288 -0.1430 -0.8636  0.5900
 2905poe    c2313257   3.111   3.033   6.220 -0.5931 -0.3907  0.1216
 2905poe    c2313258   3.172   2.900   6.267  0.9634  0.2850  0.0735
 2905poe     o213259   3.119   2.857   6.390  0.6174  0.1535 -0.1216
 2905poe    c3113260   3.211   2.762   6.440  0.1555 -0.0612  0.3324
 2906poe    c3113261   0.658   0.892   4.438 -0.1276 -0.4844 -0.2456
 2906poe     o213262   0.766   0.910   4.349  0.2428 -0.4542  0.2139
 2906poe    c2313263   0.891   0.879   4.407  0.3703 -0.1784  0.0849
 2906poe    c2313264   1.013   0.896   4.315 -0.1711  0.5432 -0.5048
 2906poe     o213265   1.015   0.807   4.206 -0.0746  0.1001 -0.1390
 2906poe    c2313266   1.135   0.829   4.134 -0.0951 -0.3083 -0.3042
 2906poe    c2313267   1.143   0.726   4.021  0.3561 -0.3871 -0.2022
 2906poe     o213268   1.106   0.604   4.081 -0.2867 -0.0533  0.0885
 2906poe    c2313269   1.128   0.502   3.985 -0.1869 -0.2770  0.3484
 2906poe    c2313270   1.097   0.360   4.037  0.2208 -0.5263 -0.0825
 2906poe     o213271   0.956   0.356   4.032  0.2025 -0.1552  0.0791
 2906poe    c3113272   0.893   0.230   4.026  0.1985 -0.1450 -0.1021
 2907poe    c3113273   6.683   0.569   5.102  0.4183  0.5411  0.0696
 2907poe     o213274   6.576   0.641   5.159  0.1830  0.2290  0.0243
 2907poe    c2313275   6.489   0.553   5.228  0.0379 -0.1812 -0.6608
 2907poe    c2313276   6.365   0.621   5.289  0.7170  0.4218  0.0724
 2907poe     o213277   6.311   0.697   5.183  0.2028 -0.5796 -0.3923
 2907poe    c2313278   6.181   0.739   5.217  0.4597  0.1013 -0.2308
 2907poe    c2313279   6.136   0.867   5.145  0.3942  0.2112  0.0022
 2907poe     o213280   6.226   0.973   5.164 -0.1501  0.4454  1.4153
 2907poe    c2313281   6.160   1.097   5.153 -0.3856  0.1875 -0.3782
 2907poe    c2313282   6.255   1.211   5.195 -0.3275  0.0180 -0.0509
 2907poe     o213283   6.314   1.268   5.080 -0.1396  0.0409  0.0558
 2907poe    c3113284   6.452   1.293   5.093 -0.1304  0.2500 -0.4083
 2908poe    c3113285   1.389   3.108   2.150  0.2202 -0.1173 -0.6176
 2908poe     o213286   1.265   3.175   2.151  0.1201 -0.3047 -0.1239
 2908poe    c2313287   1.194   3.121   2.260 -0.2724 -0.3264 -0.3916
 2908poe    c2313288   1.061   3.198   2.254 -0.2723 -0.3380 -0.5599
 2908poe     o213289   1.088   3.329   2.210  0.0677 -0.1293  0.2389
 2908poe    c2313290   0.976   3.407   2.175  0.3576  0.0009 -0.4217
 2908poe    c2313291   1.024   3.539   2.112 -0.3186  0.2774 -0.3629
 2908poe     o213292   1.102   3.522   1.996 -0.0694  0.1373 -0.1748
 2908poe    c2313293   1.102   3.648   1.931 -0.7251  0.1853 -0.0858
 2908poe    c2313294   1.207   3.660   1.819 -0.2582  0.4305  0.3771
 2908poe     o213295   1.329   3.594   1.848 -0.0441  0.7993  0.3317
 2908poe    c3113296   1.424   3.651   1.761 -0.1808 -0.5527 -0.7434
 2909poe    c3113297   3.040   4.648   2.067 -0.1850 -0.2011 -0.4626
 2909poe     o213298   2.931   4.636   1.978 -0.5711 -0.6025  0.0553
 2909poe    c2313299   2.817   4.597   2.050 -0.7720  0.1842  0.1719
 2909poe    c2313300   2.675   4.626   1.997 -0.7483 -0.1023 -0.0465
 2909poe     o213301   2.616   4.542   1.900 -0.0100 -0.3515 -0.2934
 2909poe    c2313302   2.480   4.517   1.928 -0.1439  0.4953 -0.1501
 2909poe    c2313303   2.413   4.444   1.810 -0.5624  0.1040  0.3250
 2909poe     o213304   2.422   4.520   1.692 -0.2072 -0.5931 -0.0975
 2909poe    c2313305   2.346   4.455   1.592 -1.2968  0.6559 -0.0970
 2909poe    c2313306   2.390   4.491   1.449 -0.0926  0.1289  0.1271
 2909poe     o213307   2.520   4.451   1.414 -0.1059  0.0411  0.1803
 2909poe    c3113308   2.516   4.440   1.274  0.7635  0.1448  0.1380
 2910poe    c3113309   2.544   1.128   0.065 -0.2365 -0.2458  0.3561
 2910poe     o213310   2.617   1.158   0.182  0.6001 -0.3877 -0.1276
 2910poe    c2313311   2.746   1.210   0.159  0.6534 -0.4221  0.0900
 2910poe    c2313312   2.781   1.319   0.262  0.0183 -0.1037 -0.0248
 2910poe     o213313   2.698   1.429   0.230  0.3429  0.0193 -0.4668
 2910poe    c2313314   2.730   1.536   0.316 -0.1804 -0.0890 -0.1306
 2910poe    c2313315   2.686   1.678   0.276  0.2108  0.0572 -0.0496
 2910poe     o213316   2.746   1.741   0.165 -0.2315  0.2439 -0.1856
 2910poe    c2313317   2.703   1.871   0.129 -0.1591  0.1375 -0.6674
 2910poe    c2313318   2.564   1.891   0.068 -0.2356  0.0680 -0.5175
 2910poe     o213319   2.457   1.853   0.152 -0.0851  0.2619 -0.2351
 2910poe    c3113320   2.349   1.789   0.088  0.1593  0.0071 -0.3934
 2911poe    c3113321   1.961   2.643   0.149  0.4769 -0.0176 -0.8143
 2911poe     o213322   2.014   2.525   0.093  0.3631 -0.5006  0.0899
 2911poe    c2313323   2.100   2.563  -0.011 -0.2301  0.0274 -0.2142
 2911poe    c2313324   2.105   2.466  -0.131 -0.1092 -0.0593 -0.1389
 2911poe     o213325   2.139   2.333  -0.100  0.3706  0.1254  0.1469
 2911poe    c2313326   2.103   2.248  -0.207 -0.0967  0.4915  0.0128
 2911poe    c2313327   2.140   2.099  -0.192  0.0168  0.5423  0.2434
 2911poe     o213328   2.038   2.024  -0.131  0.0307  0.2735 -0.0602
 2911poe    c2313329   2.024   1.891  -0.174  0.6152  0.0822  0.3169
 2911poe    c2313330   1.882   1.839  -0.206  0.5604  0.3443  0.1303
 2911poe     o213331   1.815   1.924  -0.296  0.3736 -0.4279 -0.4771
 2911poe    c3113332   1.699   1.865  -0.349  0.3548 -0.3562 -0.5157
 2912poe    c3113333   7.081   6.569   6.734  0.3552 -0.1306 -0.5592
 2912poe     o213334   7.213   6.578   6.783  0.2481  0.3508 -0.3537
 2912poe    c2313335   7.247   6.715   6.782 -0.3411  0.5038  0.1414
 2912poe    c2313336   7.398   6.720   6.808 -0.3940  0.6164  0.4332
 2912poe     o213337   7.442   6.854   6.801  0.1349  0.4271  0.0782
 2912poe    c2313338   7.579   6.858   6.766  0.0861 -0.6773 -0.2944
 2912poe    c2313339   7.635   7.000   6.788 -0.8110 -0.3788  0.1525
 2912poe     o213340   7.674   7.038   6.918 -0.5445  0.0914 -0.0601
 2912poe    c2313341   7.695   7.172   6.957  0.3424 -0.1007  0.1283
 2912poe    c2313342   7.824   7.237   6.904  0.1120  0.3436  0.1167
 2912poe     o213343   7.819   7.276   6.769 -0.3551  0.1824  0.0833
 2912poe    c3113344   7.943   7.282   6.700  0.0245  0.3473  0.7746
 2913poe    c3113345   7.031   0.114   4.432  0.1009 -0.0672 -0.1606
 2913poe     o213346   7.164   0.137   4.474  0.1757 -0.3989 -0.2164
 2913poe    c2313347   7.190   0.028   4.560 -0.1271 -0.2691  0.0430
 2913poe    c2313348   7.299   0.071   4.660  0.3623 -0.7073 -0.2952
 2913poe     o213349   7.390   0.143   4.580 -0.0816  0.2744  0.0724
 2913poe    c2313350   7.514   0.151   4.645  0.0903 -0.3650 -0.1688
 2913poe    c2313351   7.591   0.252   4.558  0.3332  0.1689  0.6484
 2913poe     o213352   7.506   0.361   4.531  0.4600  0.3777  1.0819
 2913poe    c2313353   7.576   0.473   4.483 -0.5981  0.6550  0.1344
 2913poe    c2313354   7.470   0.576   4.440 -1.1646  0.0283  0.0094
 2913poe     o213355   7.428   0.529   4.314 -0.0923 -0.2520 -0.2574
 2913poe    c3113356   7.377   0.634   4.235 -0.3065  0.0441  0.2638
 2914poe    c3113357   5.754   1.879   4.561 -0.6327  0.1020 -0.4539
 2914poe     o213358   5.818   1.917   4.441  0.3131 -0.1880 -0.0504
 2914poe    c2313359   5.956   1.918   4.466  0.2833  0.4342  0.1087
 2914poe    c2313360   6.030   1.966   4.340 -0.2841  1.2633  0.0861
 2914poe     o213361   6.163   1.995   4.376  0.0727 -0.4190  0.2064
 2914poe    c2313362   6.230   2.054   4.267 -0.2267 -0.5425 -0.0459
 2914poe    c2313363   6.369   2.083   4.325 -0.3427  0.0082 -0.0310
 2914poe     o213364   6.477   1.992   4.315 -0.0583  0.3517 -0.0949
 2914poe    c2313365   6.443   1.863   4.360  0.4958  0.3906  0.4552
 2914poe    c2313366   6.547   1.818   4.464  0.0342 -0.5463  0.5225
 2914poe     o213367   6.678   1.829   4.414 -0.5652  0.0789 -0.9744
 2914poe    c3113368   6.711   1.739   4.310 -0.2660 -0.4611 -0.4203
 2915poe    c3113369   6.897   5.286   2.979  0.0570  0.6746 -0.4830
 2915poe     o213370   6.877   5.189   2.878 -0.3590  0.1226  0.1212
 2915poe    c2313371   6.762   5.221   2.803 -0.2370 -0.3509 -0.2693
 2915poe    c2313372   6.712   5.132   2.688  0.1409 -0.8957 -0.0178
 2915poe     o213373   6.578   5.157   2.651  0.0066 -0.4762  0.7222
 2915poe    c2313374   6.498   5.041   2.641 -0.6260  0.0296 -0.2594
 2915poe    c2313375   6.346   5.062   2.636 -0.5572  0.5951 -0.0390
 2915poe     o213376   6.286   5.054   2.508 -0.0944 -0.7324 -0.1860
 2915poe    c2313377   6.156   5.000   2.518 -0.3110 -0.1320  0.3134
 2915poe    c2313378   6.092   4.991   2.378 -0.2568 -0.4203  0.3071
 2915poe     o213379   6.139   4.877   2.309  0.6334  0.3734 -0.4259
 2915poe    c3113380   6.103   4.873   2.173 -0.0552  0.9090 -0.2681
 2916poe    c3113381   4.050   1.712   4.674 -0.2561 -0.7870  0.4223
 2916poe     o213382   3.924   1.704   4.611  0.1165 -0.5219 -0.3756
 2916poe    c2313383   3.830   1.635   4.691  0.0332 -0.1732 -0.1722
 2916poe    c2313384   3.702   1.585   4.622  0.2448 -0.4381 -0.3714
 2916poe     o213385   3.642   1.703   4.575 -0.2243 -0.6313 -0.2650
 2916poe    c2313386   3.548   1.674   4.474 -0.7661 -0.4460  0.1849
 2916poe    c2313387   3.469   1.800   4.435 -0.2930 -0.1202  0.2707
 2916poe     o213388   3.537   1.886   4.347 -0.5851  0.1183  0.2768
 2916poe    c2313389   3.447   1.973   4.281 -0.4179  0.0895  0.0098
 2916poe    c2313390   3.530   2.076   4.202 -0.6347  0.4260  0.2216
 2916poe     o213391   3.601   2.149   4.299 -0.0876  0.0214  0.1297
 2916poe    c3113392   3.640   2.271   4.239  0.3120 -0.3127 -0.2948
 2917poe    c3113393   1.601   0.863   4.585 -0.0212 -0.1177 -0.3749
 2917poe     o213394   1.660   0.750   4.645  0.1064  0.2626  0.2315
 2917poe    c2313395   1.712   0.657   4.552 -0.1201  0.3271  0.0387
 2917poe    c2313396   1.799   0.537   4.595  0.1680  0.5931  0.2045
 2917poe     o213397   1.929   0.585   4.619  0.5929 -0.0739 -0.6987
 2917poe    c2313398   2.002   0.471   4.656 -0.3415 -0.1425  1.0612
 2917poe    c2313399   2.120   0.520   4.742  0.4524 -0.5701  0.2462
 2917poe     o213400   2.080   0.579   4.864  0.4032  0.4148 -0.2377
 2917poe    c2313401   2.190   0.651   4.916  0.4962  0.1594 -0.0817
 2917poe    c2313402   2.163   0.732   5.043 -0.4882 -0.6315  0.2289
 2917poe     o213403   2.077   0.842   5.023  0.2152 -0.0215  0.5063
 2917poe    c3113404   2.041   0.913   5.139 -0.1814  0.0180  0.3608
 2918poe    c3113405   1.809   0.532   5.826  0.2995 -0.4603 -0.2052
 2918poe     o213406   1.718   0.424   5.838 -0.3968  0.1818  0.3837
 2918poe    c2313407   1.586   0.459   5.871 -0.2513  0.1072  1.0540
 2918poe    c2313408   1.513   0.339   5.809  0.1812  0.2810  0.1913
 2918poe     o213409   1.576   0.218   5.845 -0.2149  0.0584  0.1383
 2918poe    c2313410   1.524   0.101   5.784  0.0072 -0.1606  0.3685
 2918poe    c2313411   1.593  -0.030   5.826  0.6352  0.1032  0.1824
 2918poe     o213412   1.724  -0.023   5.776  0.3565  0.4310 -0.5208
 2918poe    c2313413   1.806  -0.129   5.823 -0.1202  0.0480 -0.5465
 2918poe    c2313414   1.947  -0.108   5.765 -0.0140  0.2585 -0.2154
 2918poe     o213415   2.018  -0.006   5.831 -0.0700  0.1703 -0.0187
 2918poe    c3113416   2.154  -0.010   5.796 -0.0822  0.0973 -0.0559
 2919poe    c3113417   1.080   1.330   0.025 -0.3765 -0.0553 -0.5620
 2919poe     o213418   1.145   1.258  -0.077  0.0836 -0.0385 -0.2826
 2919poe    c2313419   1.046   1.184  -0.145 -0.1722  0.0927 -0.0562
 2919poe    c2313420   1.095   1.141  -0.285  0.3504  0.1514  0.1077
 2919poe     o213421   1.195   1.041  -0.287 -0.1406 -0.3390  0.0094
 2919poe    c2313422   1.205   1.003  -0.423 -0.0994 -0.1899 -0.0283
 2919poe    c2313423   1.342   0.942  -0.456 -0.1598 -0.1633 -0.3336
 2919poe     o213424   1.356   0.806  -0.421 -1.0856 -0.0968  0.3463
 2919poe    c2313425   1.311   0.725  -0.528 -0.1103  0.0256 -0.1746
 2919poe    c2313426   1.280   0.580  -0.485  0.1231  0.0504  0.0850
 2919poe     o213427   1.191   0.565  -0.377  0.2788 -0.7880  0.1065
 2919poe    c3113428   1.244   0.458  -0.302  0.6181 -0.3678  0.4746
 2920poe    c3113429   0.313   0.097   0.528 -0.0361 -0.0926  0.2161
 2920poe     o213430   0.182   0.094   0.582  0.2665  0.5467  1.0099
 2920poe    c2313431   0.162  -0.028   0.650 -0.0070 -0.1674 -0.3259
 2920poe    c2313432   0.020  -0.032   0.707 -0.0693  0.4731 -0.4270
 2920poe     o213433  -0.081  -0.032   0.608 -0.4235  0.1574 -0.0698
 2920poe    c2313434  -0.214  -0.036   0.653 -0.4565 -0.2750 -0.1980
 2920poe    c2313435  -0.317  -0.082   0.549 -0.1978 -0.1863 -0.4936
 2920poe     o213436  -0.357   0.016   0.456 -0.2891  0.0646 -0.1891
 2920poe    c2313437  -0.277   0.039   0.342 -0.3674 -0.1940 -0.2955
 2920poe    c2313438  -0.340   0.128   0.233  0.1342  0.5649  0.0270
 2920poe     o213439  -0.451   0.063   0.175  0.2508  0.5019 -0.1278
 2920poe    c3113440  -0.524   0.159   0.101  0.2757  0.2093 -0.5333
 2921poe    c3113441   5.381   1.299   0.992  0.1158 -0.2709 -0.3605
 2921poe     o213442   5.458   1.296   1.110  0.0287  0.2049 -0.2917
 2921poe    c2313443   5.519   1.422   1.127 -0.0252  0.2415 -0.3661
 2921poe    c2313444   5.670   1.411   1.158 -0.0944 -0.4146 -0.2502
 2921poe     o213445   5.710   1.384   1.290 -0.1212  0.3034 -0.0920
 2921poe    c2313446   5.851   1.392   1.287 -0.1090  0.0822 -0.1233
 2921poe    c2313447   5.925   1.325   1.403  0.2613  0.3194 -0.2198
 2921poe     o213448   5.913   1.373   1.535 -0.2684 -0.4333  0.0183
 2921poe    c2313449   5.977   1.283   1.622 -0.4089 -0.6547 -0.1070
 2921poe    c2313450   5.977   1.333   1.768 -0.6977 -0.0857 -0.2967
 2921poe     o213451   5.843   1.310   1.808 -0.6220 -0.1391 -0.0703
 2921poe    c3113452   5.828   1.350   1.942 -0.5070  0.7151 -0.3047
 2922poe    c3113453   3.037   0.319   3.025  0.7229 -0.1319  0.4616
 2922poe     o213454   3.125   0.299   2.917 -0.2839  0.2865 -0.4567
 2922poe    c2313455   3.106   0.166   2.872  0.2797 -0.1471  0.5471
 2922poe    c2313456   3.184   0.060   2.951  0.3711 -0.1939  0.3936
 2922poe     o213457   3.322   0.052   2.922  0.1551 -0.7970 -0.5103
 2922poe    c2313458   3.378   0.005   3.042 -0.0598  0.2838  0.0208
 2922poe    c2313459   3.520  -0.026   2.993 -0.1127  0.2423 -0.1047
 2922poe     o213460   3.570   0.082   2.918  0.0779  0.0475 -0.2625
 2922poe    c2313461   3.710   0.084   2.895  0.1688  0.3724  0.2985
 2922poe    c2313462   3.756   0.183   2.787 -0.3061  0.2990  0.0276
 2922poe     o213463   3.715   0.310   2.830 -0.1195  0.2605  0.3203
 2922poe    c3113464   3.781   0.414   2.761  0.2000  0.2293  0.5790
 2923poe    c3113465   1.272   6.536   0.205  0.0782  0.1076 -0.1738
 2923poe     o213466   1.312   6.401   0.196  0.3151  0.2211 -0.9598
 2923poe    c2313467   1.447   6.391   0.238 -0.2125 -0.2504  0.7260
 2923poe    c2313468   1.490   6.245   0.262 -0.7402 -0.4232  0.6339
 2923poe     o213469   1.526   6.188   0.139 -0.0118 -0.4066  0.8348
 2923poe    c2313470   1.624   6.091   0.170  0.6018 -0.0457  0.0744
 2923poe    c2313471   1.682   6.052   0.033  0.7119  0.2679  0.0306
 2923poe     o213472   1.590   5.985  -0.050 -0.1103  0.6749  0.6062
 2923poe    c2313473   1.641   5.940  -0.173  0.3590 -0.0867  1.0693
 2923poe    c2313474   1.740   5.823  -0.174 -0.0213 -0.4212 -0.2683
 2923poe     o213475   1.837   5.820  -0.071  0.2221  0.0935 -0.4793
 2923poe    c3113476   1.934   5.717  -0.084  0.0541 -0.1220 -0.0183
 2924poe    c3113477   3.880   3.732   2.460 -0.2959 -0.3344 -1.1315
 2924poe     o213478   3.925   3.863   2.484 -0.0914 -0.4555 -0.8492
 2924poe    c2313479   4.065   3.880   2.483 -0.1616  0.2434 -0.1527
 2924poe    c2313480   4.102   4.025   2.448  0.2997  0.1265 -0.1502
 2924poe     o213481   4.073   4.102   2.562 -0.2590 -0.0508 -0.1682
 2924poe    c2313482   4.127   4.232   2.545 -0.0766 -0.1173 -0.0998
 2924poe    c2313483   4.102   4.335   2.656  0.1653 -0.0609 -0.0972
 2924poe     o213484   3.973   4.391   2.644  0.1981 -0.0359 -0.3463
 2924poe    c2313485   3.944   4.504   2.722  0.3687 -0.2303 -0.0009
 2924poe    c2313486   3.796   4.543   2.705  0.4781 -0.1536 -0.8180
 2924poe     o213487   3.708   4.436   2.731  0.1472  0.4564  0.7076
 2924poe    c3113488   3.574   4.475   2.718  0.1373  0.1728 -0.0776
 2925poe    c3113489   0.334   5.788   2.868 -0.1810  0.0254  0.9399
 2925poe     o213490   0.323   5.751   2.732 -0.0545 -0.1509  0.9759
 2925poe    c2313491   0.195   5.693   2.715  0.0939 -0.0100 -0.7965
 2925poe    c2313492   0.162   5.709   2.566 -0.6708  0.3419 -0.5940
 2925poe     o213493   0.237   5.615   2.491 -0.1553 -0.0658  0.4230
 2925poe    c2313494   0.159   5.501   2.468 -0.5938  0.2663  0.2560
 2925poe    c2313495   0.233   5.373   2.510 -0.3341  0.3033 -0.0819
 2925poe     o213496   0.267   5.385   2.647  0.1447  0.6687 -0.2290
 2925poe    c2313497   0.359   5.289   2.692 -0.4827  0.2542  0.1943
 2925poe    c2313498   0.444   5.329   2.815  0.5119  0.0332 -0.4039
 2925poe     o213499   0.528   5.441   2.806  0.2000  0.2765 -0.3293
 2925poe    c3113500   0.614   5.440   2.918 -0.3555  0.3780  0.1013
 2926poe    c3113501   2.764   0.651   0.385 -0.2275  0.3110 -0.6900
 2926poe     o213502   2.651   0.578   0.427 -0.3148  0.8564  0.0560
 2926poe    c2313503   2.528   0.647   0.423 -0.8110 -0.0137 -0.1128
 2926poe    c2313504   2.433   0.587   0.528  0.4767 -0.4248  0.8379
 2926poe     o213505   2.360   0.489   0.459  0.4998  0.3233 -0.2746
 2926poe    c2313506   2.329   0.367   0.522  0.3947  0.3055 -0.3603
 2926poe    c2313507   2.307   0.249   0.425 -0.1835  0.3086 -0.2366
 2926poe     o213508   2.193   0.249   0.343 -0.1424 -0.1308 -0.2988
 2926poe    c2313509   2.211   0.135   0.262  0.2801 -0.2909  0.0177
 2926poe    c2313510   2.074   0.070   0.235 -0.0437  0.1684  0.5405
 2926poe     o213511   2.022  -0.024   0.327 -0.6939  0.0232  0.0336
 2926poe    c3113512   2.094  -0.145   0.323 -0.5470  0.1028  0.2289
 2927poe    c3113513   6.908   0.647   6.912 -0.3998  0.1265 -0.3598
 2927poe     o213514   6.908   0.516   6.859 -0.0344  0.1664 -0.4614
 2927poe    c2313515   6.803   0.434   6.905  0.1118 -0.1120 -0.6200
 2927poe    c2313516   6.826   0.286   6.872 -0.1157 -0.3623  0.3263
 2927poe     o213517   6.865   0.235   6.747  0.5028  0.1122  0.3184
 2927poe    c2313518   6.853   0.094   6.753  0.0292  0.0871 -0.8790
 2927poe    c2313519   6.958   0.068   6.643  0.4731  0.4676 -0.5504
 2927poe     o213520   6.917   0.152   6.537 -0.3177  0.0813 -0.5572
 2927poe    c2313521   7.004   0.138   6.427 -0.0485  0.0436 -0.3408
 2927poe    c2313522   6.953   0.210   6.301  0.3798  0.3120 -0.3600
 2927poe     o213523   6.967   0.349   6.319  0.4662  0.2458  0.1140
 2927poe    c3113524   6.987   0.416   6.196 -0.0497 -0.1227 -0.1734
 2928poe    c3113525   4.499   0.228   6.903  0.1485 -0.2601 -0.3885
 2928poe     o213526   4.460   0.157   7.018 -0.1997  0.3745 -0.1060
 2928poe    c2313527   4.353   0.228   7.077 -0.2444  0.0002  0.2690
 2928poe    c2313528   4.306   0.157   7.205  0.5496 -0.7968  0.1281
 2928poe     o213529   4.248   0.035   7.163 -0.4123 -0.0639 -0.7261
 2928poe    c2313530   4.238  -0.067   7.260 -0.4528  0.4844 -0.1410
 2928poe    c2313531   4.120  -0.051   7.357 -0.1895  0.1349  0.2373
 2928poe     o213532   4.011  -0.107   7.287  0.2888 -0.2414 -0.2102
 2928poe    c2313533   3.894  -0.115   7.366  0.2565  0.0705 -0.2270
 2928poe    c2313534   3.859  -0.252   7.425  0.5070  0.2117  0.2551
 2928poe     o213535   3.727  -0.251   7.475  0.4920  0.0089  0.2225
 2928poe    c3113536   3.692  -0.385   7.504 -0.5481  0.2803  0.2839
 2929poe    c3113537   3.065   3.398   0.257 -0.0594  0.3325 -0.4917
 2929poe     o213538   2.980   3.507   0.229 -0.2232  0.3014 -0.1205
 2929poe    c2313539   2.922   3.469   0.107 -0.2779 -0.0484  0.0119
 2929poe    c2313540   2.871   3.591   0.028 -0.0730 -0.1796 -0.3262
 2929poe     o213541   2.945   3.709   0.049 -0.4697 -0.0568  0.3904
 2929poe    c2313542   2.861   3.821   0.026 -0.5571 -0.2334 -0.1657
 2929poe    c2313543   2.917   3.942  -0.051 -0.2323 -0.7357 -0.7303
 2929poe     o213544   3.037   3.962   0.021 -0.3580 -0.4964 -0.5858
 2929poe    c2313545   3.099   4.075  -0.036 -0.1538 -0.0231  0.5523
 2929poe    c2313546   3.248   4.085   0.002  0.0767 -0.6401 -0.1589
 2929poe     o213547   3.338   3.982  -0.029  0.3077 -0.3782 -0.3691
 2929poe    c3113548   3.419   4.032  -0.133  0.9901  0.3820  0.5078
 2930poe    c3113549   1.225   6.553   3.082 -0.3171  0.4585 -0.2971
 2930poe     o213550   1.105   6.604   3.026 -0.6263 -0.0339 -0.0892
 2930poe    c2313551   1.011   6.499   3.031 -0.2349 -0.3885 -0.0853
 2930poe    c2313552   0.890   6.542   2.946 -0.1117 -0.1512 -0.1420
 2930poe     o213553   0.929   6.581   2.816  0.0555  0.2035  0.0130
 2930poe    c2313554   0.813   6.636   2.755 -0.2004  0.3777  0.6473
 2930poe    c2313555   0.854   6.712   2.628 -0.1100 -0.3569  0.2283
 2930poe     o213556   0.956   6.805   2.658 -0.7234  0.2658  0.4178
 2930poe    c2313557   0.985   6.863   2.533 -0.4543  0.0782  0.3915
 2930poe    c2313558   1.130   6.912   2.511 -0.4535 -0.2154 -0.2926
 2930poe     o213559   1.147   7.024   2.595 -0.3421 -0.2930 -0.2120
 2930poe    c3113560   1.274   7.080   2.572 -0.5303  0.1091 -0.2772
 2931poe    c3113561   3.826   0.485   3.136  0.3898 -0.2240 -0.1189
 2931poe     o213562   3.761   0.504   3.259 -0.1322 -0.4630 -0.3549
 2931poe    c2313563   3.624   0.475   3.272 -0.1915 -0.0968 -0.1346
 2931poe    c2313564   3.604   0.323   3.292 -0.1265 -0.1629 -0.5448
 2931poe     o213565   3.658   0.298   3.420 -0.1980  0.1315 -0.4545
 2931poe    c2313566   3.646   0.160   3.450 -1.1265  0.2839 -0.0790
 2931poe    c2313567   3.721   0.137   3.583 -0.7120  0.7500 -0.2252
 2931poe     o213568   3.647   0.168   3.699 -0.6184 -0.4047  0.1578
 2931poe    c2313569   3.743   0.169   3.802 -0.8958 -0.3973  0.4185
 2931poe    c2313570   3.708   0.266   3.916  0.2912 -0.1587  0.5859
 2931poe     o213571   3.595   0.235   3.993 -0.2671 -0.0762 -0.1931
 2931poe    c3113572   3.624   0.305   4.112 -0.6062  0.2206 -0.2830
 2932poe    c3113573   4.739   0.376   4.473  0.1461 -0.1255  0.0102
 2932poe     o213574   4.849   0.433   4.540  0.5706 -0.1654 -0.6460
 2932poe    c2313575   4.888   0.552   4.476 -0.5520  0.2169 -0.6429
 2932poe    c2313576   5.017   0.553   4.392  0.1121 -0.1542  0.3530
 2932poe     o213577   5.138   0.557   4.464  0.3118 -0.0923  0.0199
 2932poe    c2313578   5.253   0.518   4.392  0.4538  0.2722  0.0484
 2932poe    c2313579   5.365   0.536   4.497 -0.3085  0.6153  0.8211
 2932poe     o213580   5.329   0.469   4.615 -0.1441  0.5405  0.8286
 2932poe    c2313581   5.436   0.472   4.707  0.3997  0.1735  0.2163
 2932poe    c2313582   5.410   0.402   4.842 -0.4954 -0.3930 -0.2352
 2932poe     o213583   5.288   0.446   4.896 -0.0491  0.2356  0.2806
 2932poe    c3113584   5.244   0.356   4.996  0.5235  0.0871  0.4040
 2933poe    c3113585   4.359   0.775   5.425  0.1985  0.3671 -0.0986
 2933poe     o213586   4.220   0.753   5.443  0.2038  0.0175 -0.4542
 2933poe    c2313587   4.195   0.617   5.467 -0.1443  0.2108  0.2984
 2933poe    c2313588   4.061   0.597   5.539 -0.2545 -0.7506 -0.1536
 2933poe     o213589   4.040   0.689   5.644 -0.1435 -0.3678 -0.4657
 2933poe    c2313590   4.096   0.641   5.764 -0.4468  0.4596  0.0143
 2933poe    c2313591   4.034   0.695   5.894 -0.4941 -0.2100  0.2746
 2933poe     o213592   3.906   0.646   5.923 -0.4654 -0.6653 -0.3481
 2933poe    c2313593   3.884   0.715   6.045  0.0461 -0.8004 -0.1793
 2933poe    c2313594   3.769   0.660   6.132  0.0790 -0.2530  0.2134
 2933poe     o213595   3.642   0.698   6.084 -0.2506 -0.3932  0.9676
 2933poe    c3113596   3.590   0.812   6.148  0.1550  0.2777  0.1199
 2934poe    c3113597   1.299   4.697   3.070  0.0713 -0.5271  0.3125
 2934poe     o213598   1.252   4.712   2.937  0.1576  0.3286  0.3717
 2934poe    c2313599   1.130   4.781   2.940 -0.2271 -0.3407  0.2594
 2934poe    c2313600   1.104   4.811   2.791  0.3462 -0.2090  0.1833
 2934poe     o213601   1.222   4.873   2.745  0.1242  0.0752 -0.0080
 2934poe    c2313602   1.210   4.930   2.617  0.4540 -1.0486 -0.5506
 2934poe    c2313603   1.346   5.000   2.596 -0.1470  0.1312 -0.5382
 2934poe     o213604   1.441   4.896   2.591 -0.1154  0.1722 -0.7957
 2934poe    c2313605   1.571   4.935   2.552  0.2266  0.0504  0.2098
 2934poe    c2313606   1.686   4.832   2.557  0.4270  0.2671  0.0352
 2934poe     o213607   1.710   4.778   2.684  0.2904  0.1262  0.0025
 2934poe    c3113608   1.813   4.684   2.701  0.0444 -0.1738 -0.1758
 2935poe    c3113609   7.182   1.445   2.441 -0.6227 -0.8847 -0.3664
 2935poe     o213610   7.132   1.385   2.558 -0.3518 -0.3339  0.0368
 2935poe    c2313611   6.999   1.430   2.574 -0.2312  0.0411 -0.0039
 2935poe    c2313612   6.951   1.359   2.702 -0.2985 -0.2295 -0.1793
 2935poe     o213613   6.993   1.225   2.693 -0.3317 -0.2694  0.2700
 2935poe    c2313614   6.936   1.148   2.797  0.1514 -0.2887  0.5243
 2935poe    c2313615   6.952   0.995   2.792 -0.0166 -0.2937  0.1147
 2935poe     o213616   6.892   0.941   2.676 -0.1731  0.0167  0.0506
 2935poe    c2313617   6.930   0.807   2.659  0.1519  0.1311 -0.1396
 2935poe    c2313618   6.907   0.755   2.516  0.1131  0.0242 -0.0947
 2935poe     o213619   6.993   0.828   2.431  0.0754  0.3146  0.1151
 2935poe    c3113620   6.963   0.820   2.294 -0.1705  0.6153  0.1523
 2936poe    c3113621   3.503   5.760   3.886  0.1521 -0.6414 -0.1091
 2936poe     o213622   3.519   5.728   4.023 -0.3747  0.2414  0.1688
 2936poe    c2313623   3.575   5.599   4.037 -1.0111  0.0178  0.6834
 2936poe    c2313624   3.616   5.577   4.184  0.4563 -0.4545  0.2188
 2936poe     o213625   3.744   5.627   4.216  0.3209 -0.0082  0.0776
 2936poe    c2313626   3.839   5.523   4.215 -0.2165 -0.5027 -0.6433
 2936poe    c2313627   3.976   5.580   4.257 -0.8729  0.3693  0.3416
 2936poe     o213628   3.960   5.670   4.365 -0.2548  0.7029  0.1545
 2936poe    c2313629   4.083   5.729   4.401  0.0749 -0.2937  0.6809
 2936poe    c2313630   4.075   5.830   4.516 -0.0471  0.1654  0.2740
 2936poe     o213631   3.993   5.942   4.491 -0.1918  0.1700  0.7444
 2936poe    c3113632   4.078   6.051   4.465 -0.0403 -0.1800 -0.2765
 2937poe    c3113633   6.130   4.200   1.818 -0.0917 -0.1759  0.1952
 2937poe     o213634   6.165   4.136   1.698 -0.1090 -0.4266  0.3233
 2937poe    c2313635   6.081   4.176   1.592  0.0421  0.5003  0.5491
 2937poe    c2313636   6.165   4.159   1.464 -0.0162  0.2473  0.5444
 2937poe     o213637   6.185   4.022   1.438  0.1365  0.3285  0.2317
 2937poe    c2313638   6.241   3.993   1.312  0.1644  0.3167  0.2471
 2937poe    c2313639   6.272   3.845   1.283  0.5328  0.4314  0.0443
 2937poe     o213640   6.323   3.792   1.404 -0.1497 -0.1915  0.0634
 2937poe    c2313641   6.368   3.660   1.386  0.1543 -0.0348 -0.3428
 2937poe    c2313642   6.398   3.614   1.530 -0.2134  0.0707 -0.2318
 2937poe     o213643   6.303   3.675   1.615 -0.3389 -0.1080 -0.2445
 2937poe    c3113644   6.301   3.612   1.741 -0.2107  0.3389 -0.0172
 2938poe    c3113645   1.335   5.650   3.344 -0.6325 -0.0821  0.3934
 2938poe     o213646   1.463   5.667   3.402 -0.4287  0.2652 -0.1498
 2938poe    c2313647   1.457   5.717   3.533  0.3229 -0.1939  0.0626
 2938poe    c2313648   1.578   5.661   3.610  0.3788  0.6749  0.6286
 2938poe     o213649   1.700   5.698   3.550  0.1093 -0.6611 -0.8233
 2938poe    c2313650   1.817   5.668   3.623  0.0979 -0.7680 -0.8490
 2938poe    c2313651   1.946   5.712   3.552  0.1595  0.0628 -0.2489
 2938poe     o213652   1.967   5.647   3.428  0.0978 -0.2529 -0.0945
 2938poe    c2313653   2.096   5.681   3.383 -0.1497  0.1412 -0.5115
 2938poe    c2313654   2.111   5.644   3.234  0.3068 -0.3794 -0.3374
 2938poe     o213655   1.976   5.658   3.194  0.2414  0.5889  0.1904
 2938poe    c3113656   1.974   5.671   3.054 -0.2658 -0.0803  0.1351
 2939poe    c3113657   3.866   1.965   7.180 -0.2636 -0.1465 -0.2802
 2939poe     o213658   3.792   1.967   7.061 -0.4221  0.2775 -0.1748
 2939poe    c2313659   3.888   1.967   6.958 -0.3695  0.4080 -0.1258
 2939poe    c2313660   3.838   2.067   6.852 -0.3748  0.3042 -0.2211
 2939poe     o213661   3.698   2.062   6.833 -0.4805  0.4471  0.4917
 2939poe    c2313662   3.658   2.168   6.748  0.0646  0.4834  0.2737
 2939poe    c2313663   3.504   2.166   6.738  0.0651  0.3638  0.2872
 2939poe     o213664   3.435   2.085   6.830  0.2034  0.1308  0.1900
 2939poe    c2313665   3.301   2.063   6.791  0.2262 -0.1289  0.2555
 2939poe    c2313666   3.214   2.187   6.820  0.2101 -0.0984  0.0762
 2939poe     o213667   3.216   2.308   6.746 -0.3094  0.0272  0.2682
 2939poe    c3113668   3.139   2.408   6.810 -0.3974  0.0759  0.0860
 2940poe    c3113669   5.448   4.961   6.792 -0.3982 -0.4351 -0.4026
 2940poe     o213670   5.446   5.065   6.697 -0.0066 -0.0556  0.0025
 2940poe    c2313671   5.566   5.077   6.623 -0.0991  0.2180 -0.1082
 2940poe    c2313672   5.540   5.044   6.475 -0.1969 -0.6060  0.0888
 2940poe     o213673   5.463   5.146   6.416 -0.1787 -0.5382  0.1813
 2940poe    c2313674   5.461   5.124   6.277  0.2927  0.1282  0.0660
 2940poe    c2313675   5.363   5.220   6.206  0.4360  0.0514 -0.2414
 2940poe     o213676   5.421   5.348   6.207 -0.2733  0.3743  0.0980
 2940poe    c2313677   5.331   5.439   6.148 -0.0958  0.1253 -0.5561
 2940poe    c2313678   5.342   5.583   6.201 -0.6598 -0.0852  0.1443
 2940poe     o213679   5.256   5.593   6.312 -0.6788 -0.3794  0.1555
 2940poe    c3113680   5.195   5.719   6.329  0.0963 -0.0070  0.2340
 2941poe    c3113681   3.038   2.768   7.083 -0.2822  0.0492  0.4856
 2941poe     o213682   2.923   2.718   7.017  0.2633 -1.4212  0.6125
 2941poe    c2313683   2.827   2.661   7.102 -0.9644 -0.3490 -0.0165
 2941poe    c2313684   2.727   2.559   7.044 -0.4212 -0.8535 -0.0794
 2941poe     o213685   2.625   2.609   6.960 -0.1805 -0.1480  0.0413
 2941poe    c2313686   2.517   2.523   6.985 -0.0401 -0.4063 -0.2408
 2941poe    c2313687   2.481   2.473   6.844 -0.0941  0.0296 -0.3828
 2941poe     o213688   2.484   2.579   6.751 -0.0130  0.2704 -0.1050
 2941poe    c2313689   2.474   2.544   6.615 -0.0086 -0.0341 -0.0268
 2941poe    c2313690   2.459   2.681   6.547 -0.2615 -0.0438  0.0105
 2941poe     o213691   2.549   2.770   6.609 -0.5033 -0.0510  0.3756
 2941poe    c3113692   2.569   2.890   6.538 -0.9176 -0.1313  0.1207
 2942poe    c3113693   2.926   5.470   6.637  0.1135  0.5720  0.4536
 2942poe     o213694   2.810   5.547   6.614 -0.1403  0.1114  0.1763
 2942poe    c2313695   2.704   5.484   6.682  0.0861  0.2590  0.6630
 2942poe    c2313696   2.586   5.582   6.699 -0.3869 -0.0834 -0.5656
 2942poe     o213697   2.640   5.686   6.778 -0.1822 -0.1872 -0.5673
 2942poe    c2313698   2.536   5.764   6.831  0.1442 -0.1566  0.0370
 2942poe    c2313699   2.599   5.864   6.930 -0.1084 -0.3724  0.4167
 2942poe     o213700   2.681   5.943   6.848 -0.3835 -0.3695  0.1398
 2942poe    c2313701   2.738   6.056   6.911 -0.6456  0.2390 -0.6967
 2942poe    c2313702   2.828   6.101   6.795 -0.1108  0.4287 -0.2128
 2942poe     o213703   2.884   5.980   6.749 -0.2903  0.2766 -0.0329
 2942poe    c3113704   2.974   6.014   6.646 -0.3179  0.5990  0.0456
 2943poe    c3113705   4.993   4.757   1.585 -0.1659  0.4161  0.2114
 2943poe     o213706   5.088   4.743   1.481 -0.4317  0.1693 -0.0003
 2943poe    c2313707   5.032   4.762   1.354  0.0699  0.1832 -0.2213
 2943poe    c2313708   5.145   4.736   1.252  0.4729  0.2776  0.2004
 2943poe     o213709   5.178   4.599   1.242 -0.4649  0.0627  0.0291
 2943poe    c2313710   5.302   4.596   1.177 -0.3791 -0.0076  0.1971
 2943poe    c2313711   5.365   4.455   1.186 -0.4082 -0.0513 -0.2648
 2943poe     o213712   5.280   4.355   1.135  0.6685 -0.6795 -0.8771
 2943poe    c2313713   5.261   4.240   1.214 -0.2189 -0.0092 -0.0903
 2943poe    c2313714   5.197   4.126   1.133  0.0934 -0.3975  0.2046
 2943poe     o213715   5.057   4.134   1.117  0.1386 -0.8024 -0.4513
 2943poe    c3113716   4.996   4.017   1.067 -0.0602 -0.6686 -0.5245
 2944poe    c3113717   4.478   5.483   0.222 -1.0675  0.6489 -0.8665
 2944poe     o213718   4.587   5.571   0.232 -0.3239 -0.3633  0.3016
 2944poe    c2313719   4.659   5.569   0.353  0.0208  0.0341  0.1091
 2944poe    c2313720   4.774   5.671   0.349  0.0552 -0.0141 -0.1520
 2944poe     o213721   4.723   5.791   0.296 -0.4047 -0.2075 -0.1507
 2944poe    c2313722   4.821   5.892   0.309 -0.2651 -0.3773  0.1151
 2944poe    c2313723   4.814   5.983   0.185  0.3843 -0.1395  0.2500
 2944poe     o213724   4.718   6.085   0.205  0.0857 -0.3234 -0.2339
 2944poe    c2313725   4.664   6.129   0.082 -0.5028  0.3836  0.2685
 2944poe    c2313726   4.533   6.208   0.101 -0.4750  0.4403  0.2209
 2944poe     o213727   4.425   6.131   0.149 -0.2269  0.0404  0.1501
 2944poe    c3113728   4.304   6.200   0.170  0.2535  0.9796 -0.0981
 2945poe    c3113729   5.984   2.608   1.513  0.2053  0.1603 -0.3821
 2945poe     o213730   6.066   2.496   1.487  0.1757  0.1569 -0.4607
 2945poe    c2313731   6.001   2.400   1.407 -0.1625 -0.0562  0.0630
 2945poe    c2313732   6.096   2.298   1.343 -0.5535 -0.1588 -0.3580
 2945poe     o213733   6.211   2.335   1.271 -0.4366 -0.2259 -0.2065
 2945poe    c2313734   6.177   2.407   1.154 -0.3029 -0.7158 -0.5487
 2945poe    c2313735   6.305   2.457   1.085 -0.1084 -0.2490  0.1405
 2945poe     o213736   6.370   2.536   1.182 -0.3043  0.0658  0.0136
 2945poe    c2313737   6.507   2.538   1.149 -0.3762 -0.5275 -0.3256
 2945poe    c2313738   6.585   2.645   1.227 -0.1461 -0.4530 -0.6603
 2945poe     o213739   6.546   2.776   1.193  0.4371  0.0092  0.3988
 2945poe    c3113740   6.582   2.858   1.301  0.0784  0.3861  0.2356
 2946poe    c3113741   5.253   3.502   0.873  0.1810  0.6867  0.3207
 2946poe     o213742   5.263   3.536   1.010 -0.2185 -0.2023  0.5706
 2946poe    c2313743   5.278   3.415   1.081 -0.4511 -0.4725  0.1678
 2946poe    c2313744   5.253   3.419   1.233 -0.1051  0.0795  0.2121
 2946poe     o213745   5.365   3.413   1.318  0.1825 -0.1630 -0.1796
 2946poe    c2313746   5.345   3.412   1.458  0.0662 -0.0868 -0.1950
 2946poe    c2313747   5.470   3.356   1.529 -0.2182 -0.3135  0.1316
 2946poe     o213748   5.519   3.240   1.467  0.6594  0.1426 -0.0462
 2946poe    c2313749   5.585   3.146   1.548 -0.0490 -0.0267  0.3360
 2946poe    c2313750   5.678   3.065   1.456 -0.3816 -0.0620  0.0302
 2946poe     o213751   5.625   3.060   1.326 -0.0346  0.6163 -0.1406
 2946poe    c3113752   5.672   2.943   1.263 -0.4876  0.1546  0.3689
 2947poe    c3113753   3.138   3.669   1.497  0.2819 -0.2633  0.6635
 2947poe     o213754   3.229   3.723   1.590  0.3080  0.2457  0.3419
 2947poe    c2313755   3.301   3.829   1.532 -0.1143  0.4011  0.0968
 2947poe    c2313756   3.446   3.817   1.582 -0.2679 -0.8135  0.2621
 2947poe     o213757   3.500   3.699   1.527 -0.2762 -0.7215  0.0559
 2947poe    c2313758   3.618   3.656   1.590  0.2013 -0.0404 -0.3677
 2947poe    c2313759   3.660   3.517   1.537  0.3440 -0.1476  0.0209
 2947poe     o213760   3.708   3.516   1.405 -0.1456  0.2806 -0.1658
 2947poe    c2313761   3.760   3.392   1.361  0.5443  0.2018  0.8323
 2947poe    c2313762   3.798   3.404   1.212 -0.4286  0.2669  0.5806
 2947poe     o213763   3.893   3.493   1.156 -0.6812  0.3190  0.2352
 2947poe    c3113764   3.851   3.627   1.159  0.6200  0.7430 -0.1776
 2948poe    c3113765   2.101   6.865   0.399  0.4146 -0.1365 -0.2444
 2948poe     o213766   2.146   6.848   0.532 -0.0385 -0.0829 -0.0794
 2948poe    c2313767   2.120   6.718   0.579 -0.2058 -0.0718 -0.1425
 2948poe    c2313768   2.158   6.696   0.726 -0.1574 -0.3118 -0.1896
 2948poe     o213769   2.298   6.700   0.746 -0.1404 -0.0683 -0.3459
 2948poe    c2313770   2.376   6.583   0.763  0.3002  0.2956  0.1889
 2948poe    c2313771   2.521   6.629   0.785  0.1998  0.5842  0.2492
 2948poe     o213772   2.579   6.692   0.673  0.2599 -0.0212 -0.0602
 2948poe    c2313773   2.693   6.766   0.711  0.0554  0.3549 -0.1814
 2948poe    c2313774   2.793   6.769   0.594  0.2371 -0.0942 -0.0379
 2948poe     o213775   2.854   6.643   0.575  0.2327 -0.2270  0.7655
 2948poe    c3113776   2.878   6.613   0.439  0.0183  0.5551  0.5475
 2949poe    c3113777   4.607   0.123   0.751  0.7056 -0.3688  0.1950
 2949poe     o213778   4.525   0.119   0.865  0.0217  0.1608 -0.2706
 2949poe    c2313779   4.385   0.123   0.849 -0.0257  0.3677  0.1784
 2949poe    c2313780   4.305   0.144   0.979 -0.7333 -0.4570 -0.1126
 2949poe     o213781   4.310   0.052   1.086  0.1715 -0.0924  0.1672
 2949poe    c2313782   4.236  -0.064   1.054 -0.0693  0.0492  0.2136
 2949poe    c2313783   4.282  -0.172   1.154  0.6786 -0.1617 -0.3513
 2949poe     o213784   4.422  -0.158   1.141  0.6344  0.7318  0.0122
 2949poe    c2313785   4.480  -0.281   1.181  0.2536  0.4090 -0.4146
 2949poe    c2313786   4.483  -0.304   1.333  0.3529  0.0953 -0.4644
 2949poe     o213787   4.568  -0.210   1.395  0.4049 -0.0917 -0.2506
 2949poe    c3113788   4.532  -0.203   1.531  0.1359 -0.8836 -0.2743
 2950poe    c3113789   6.470   4.292   3.268  0.5500 -0.0506  0.8005
 2950poe     o213790   6.369   4.305   3.365 -0.1507 -0.3804  0.1240
 2950poe    c2313791   6.342   4.173   3.410  0.1463 -0.4590  0.0693
 2950poe    c2313792   6.378   4.166   3.559  0.8212  0.6578 -0.0296
 2950poe     o213793   6.295   4.256   3.629 -0.0962 -0.1410 -0.0752
 2950poe    c2313794   6.344   4.268   3.761 -0.0976  0.6010 -0.1344
 2950poe    c2313795   6.261   4.373   3.836  0.7997  0.7186  0.7216
 2950poe     o213796   6.243   4.483   3.750  0.1670  0.0424 -0.0294
 2950poe    c2313797   6.167   4.581   3.816  0.7756  0.2115  0.4266
 2950poe    c2313798   6.178   4.710   3.732  0.5614 -0.0788 -0.0510
 2950poe     o213799   6.120   4.706   3.604  0.0635 -0.1373  0.1720
 2950poe    c3113800   6.170   4.811   3.524  0.1577 -0.1686  0.1898
 2951poe    c3113801   5.451   0.374   5.935  0.3927  0.7273 -0.2212
 2951poe     o213802   5.412   0.449   6.048  0.0477  0.3022 -0.0574
 2951poe    c2313803   5.360   0.358   6.142  0.1754  0.3320  0.0413
 2951poe    c2313804   5.368   0.427   6.279  0.3667 -0.3630  0.3888
 2951poe     o213805   5.491   0.478   6.327  0.3642 -0.2147  0.2383
 2951poe    c2313806   5.466   0.510   6.462  0.2771  0.3016  0.1034
 2951poe    c2313807   5.598   0.560   6.524  0.6394 -0.0752 -0.3569
 2951poe     o213808   5.640   0.665   6.439 -0.2260  0.1657 -0.4909
 2951poe    c2313809   5.737   0.741   6.507 -0.6414  0.1254  0.1579
 2951poe    c2313810   5.812   0.837   6.412 -1.2606  0.0653 -0.3975
 2951poe     o213811   5.886   0.760   6.321 -0.7217  0.1805 -0.0596
 2951poe    c3113812   5.938   0.845   6.221  0.7100 -0.8377 -0.2214
 2952poe    c3113813   0.777   6.345   1.349  0.4350 -0.0224  0.2137
 2952poe     o213814   0.729   6.364   1.218 -0.2021 -0.3023  0.4018
 2952poe    c2313815   0.590   6.342   1.206 -0.0942 -0.6668 -0.1806
 2952poe    c2313816   0.531   6.372   1.067  0.0094  0.4441  0.0107
 2952poe     o213817   0.513   6.509   1.040 -0.6098  0.3887  0.1200
 2952poe    c2313818   0.406   6.528   0.950 -0.6175  0.0753  0.0618
 2952poe    c2313819   0.383   6.679   0.927 -0.1483  0.0418 -0.6746
 2952poe     o213820   0.455   6.715   0.811  0.2674  0.1821 -0.3773
 2952poe    c2313821   0.422   6.851   0.788 -0.2156  0.0716 -0.3596
 2952poe    c2313822   0.454   6.902   0.647  0.0373 -0.3100 -0.4433
 2952poe     o213823   0.592   6.924   0.626  0.0457  0.0436 -0.0288
 2952poe    c3113824   0.608   6.924   0.486 -0.7931  0.3366 -0.1334
 2953poe    c3113825   3.727   1.701   4.130 -0.5570 -0.2395 -0.0088
 2953poe     o213826   3.849   1.769   4.111 -0.5728 -0.4290 -0.8119
 2953poe    c2313827   3.833   1.878   4.023  0.1524  0.2819 -0.0797
 2953poe    c2313828   3.967   1.910   3.954  0.3017 -0.3789 -0.0981
 2953poe     o213829   4.066   1.903   4.054  0.4302 -0.3192 -0.2207
 2953poe    c2313830   4.195   1.925   4.000  0.5293 -0.7971 -0.1817
 2953poe    c2313831   4.308   1.902   4.102  0.9096 -0.1143 -0.4493
 2953poe     o213832   4.268   1.790   4.177  0.6576  0.3215  0.0698
 2953poe    c2313833   4.361   1.763   4.279  0.5002  0.4740  0.2542
 2953poe    c2313834   4.333   1.627   4.345  0.5395  0.4353  0.1904
 2953poe     o213835   4.204   1.640   4.401  0.4161 -0.0534  0.0261
 2953poe    c3113836   4.159   1.510   4.433  0.0753  0.1818  0.5073
 2954poe    c3113837   3.380   4.910   0.789  0.5393 -0.5565 -0.0765
 2954poe     o213838   3.417   4.778   0.821 -0.3580 -0.8723 -0.3067
 2954poe    c2313839   3.550   4.739   0.792 -0.1517 -0.4314  0.0159
 2954poe    c2313840   3.585   4.595   0.835 -1.0325 -0.5648  0.3103
 2954poe     o213841   3.586   4.593   0.976 -0.6409 -0.4327  0.3098
 2954poe    c2313842   3.573   4.477   1.056  0.4332 -0.3973  0.5577
 2954poe    c2313843   3.580   4.512   1.205  0.5040  0.3598  0.3810
 2954poe     o213844   3.489   4.609   1.252 -0.2633 -0.0368 -0.2674
 2954poe    c2313845   3.468   4.591   1.390 -0.2229 -0.4139 -0.3106
 2954poe    c2313846   3.326   4.639   1.426 -0.0007 -0.0867  0.1259
 2954poe     o213847   3.320   4.766   1.364  0.0362 -0.0599  0.1766
 2954poe    c3113848   3.243   4.855   1.442 -0.4899 -0.2077 -0.1705
 2955poe    c3113849   0.512   3.244   4.910 -0.0716 -0.0676 -0.0926
 2955poe     o213850   0.492   3.105   4.891 -0.5324  0.0129 -0.2134
 2955poe    c2313851   0.551   3.045   5.005 -1.0378  0.0245  0.0562
 2955poe    c2313852   0.536   2.892   5.002 -0.0373 -0.0734 -0.2655
 2955poe     o213853   0.605   2.843   4.889  0.3466 -0.1542  0.0008
 2955poe    c2313854   0.558   2.712   4.870 -0.5038  0.1917 -0.3250
 2955poe    c2313855   0.550   2.670   4.722 -0.0335 -0.3073 -0.2109
 2955poe     o213856   0.673   2.680   4.653  0.1939 -0.7321  0.1311
 2955poe    c2313857   0.669   2.651   4.515 -0.2238  0.0019 -0.0160
 2955poe    c2313858   0.792   2.699   4.437  0.1077 -0.0882  0.4429
 2955poe     o213859   0.905   2.691   4.520  0.2183 -0.2866  0.2754
 2955poe    c3113860   1.026   2.716   4.453  0.0402  0.2790  0.1605
 2956poe    c3113861   7.035   0.462   4.135 -0.2412 -0.4662 -0.0488
 2956poe     o213862   6.976   0.527   4.024 -0.4523 -0.2059  0.2157
 2956poe    c2313863   6.921   0.651   4.060  0.1932  0.0762  0.2425
 2956poe    c2313864   6.834   0.690   3.938 -0.0797 -0.4390  0.2700
 2956poe     o213865   6.919   0.702   3.826 -0.1473  0.0257  0.2671
 2956poe    c2313866   6.860   0.745   3.705  0.1948  0.0177  0.0961
 2956poe    c2313867   6.966   0.768   3.595 -0.3681  0.1939 -0.4162
 2956poe     o213868   7.011   0.639   3.561 -0.1523  0.2222 -0.2419
 2956poe    c2313869   7.124   0.640   3.476 -0.2181 -0.0551 -0.3349
 2956poe    c2313870   7.128   0.729   3.351  0.1203  0.7835  0.2616
 2956poe     o213871   7.056   0.674   3.242 -0.0345  0.2591  0.6273
 2956poe    c3113872   6.972   0.767   3.179 -0.2188 -0.6396 -0.4691
 2957poe    c3113873   4.857   2.524   5.111 -0.2354  0.4147  0.0557
 2957poe     o213874   4.910   2.534   4.981  0.1063  0.1499  0.1746
 2957poe    c2313875   5.034   2.468   4.963  0.1012  0.2013 -0.0545
 2957poe    c2313876   5.043   2.346   4.870 -0.5744  0.2155 -0.1484
 2957poe     o213877   5.012   2.395   4.742  0.1381  0.4080 -0.2519
 2957poe    c2313878   5.059   2.313   4.637 -0.2096 -0.0075 -0.0873
 2957poe    c2313879   5.002   2.376   4.509 -0.0235  0.3744  0.0147
 2957poe     o213880   5.058   2.505   4.506 -0.1947  0.4513  0.0633
 2957poe    c2313881   5.018   2.590   4.401  0.1080 -0.1892 -0.5777
 2957poe    c2313882   5.060   2.737   4.423  0.2738 -0.3488  0.2029
 2957poe     o213883   4.986   2.792   4.530 -0.1499  0.1365 -0.3349
 2957poe    c3113884   5.062   2.900   4.578  0.6268 -0.3672 -0.4105
 2958poe    c3113885   6.158   3.775   5.493 -1.0525  0.6581  0.3043
 2958poe     o213886   6.265   3.817   5.411 -0.3798 -0.3280  0.6599
 2958poe    c2313887   6.383   3.805   5.488  0.3721 -0.0278 -0.4227
 2958poe    c2313888   6.492   3.843   5.386  0.6858 -0.3094 -0.1887
 2958poe     o213889   6.498   3.747   5.283  0.5595 -0.1984 -0.2972
 2958poe    c2313890   6.609   3.749   5.197  0.5965 -0.4052 -0.2542
 2958poe    c2313891   6.574   3.665   5.073 -0.2914  0.0025 -0.2869
 2958poe     o213892   6.506   3.542   5.086  0.0525 -0.1039  0.5910
 2958poe    c2313893   6.458   3.481   4.968  0.7390 -0.0493  0.2773
 2958poe    c2313894   6.376   3.354   4.997 -0.0022  0.3989  0.1833
 2958poe     o213895   6.294   3.386   5.107  0.3343  0.0748  0.5308
 2958poe    c3113896   6.207   3.279   5.135  0.1194 -0.0503 -0.5930
 2959poe    c3113897   1.170   5.329   6.782 -0.1723  0.1133  0.6743
 2959poe     o213898   1.265   5.243   6.841  0.6753  0.6045  0.0486
 2959poe    c2313899   1.272   5.251   6.981 -0.2570 -0.1807  0.1518
 2959poe    c2313900   1.322   5.122   7.050  0.4537  0.2296  0.4231
 2959poe     o213901   1.460   5.096   7.040  0.4731  0.4853 -0.0256
 2959poe    c2313902   1.508   4.972   7.087 -0.1940  0.2469  0.0474
 2959poe    c2313903   1.650   4.961   7.028 -0.3670 -0.6999 -0.2079
 2959poe     o213904   1.620   4.913   6.899 -0.6341 -0.6767 -0.1562
 2959poe    c2313905   1.736   4.846   6.853  0.1509  0.3667  0.2718
 2959poe    c2313906   1.702   4.750   6.738 -0.5164  0.2492  0.5634
 2959poe     o213907   1.619   4.818   6.647  0.0976 -0.0038 -0.1951
 2959poe    c3113908   1.672   4.829   6.516  0.8348 -0.0646  0.0939
 2960poe    c3113909   4.780   4.650   0.927  0.0523  0.0217  0.4013
 2960poe     o213910   4.757   4.605   0.796  0.0284  0.7966  0.1319
 2960poe    c2313911   4.622   4.570   0.773  0.1889  0.2015  0.0563
 2960poe    c2313912   4.601   4.557   0.621  0.2656 -0.7246  0.1229
 2960poe     o213913   4.686   4.455   0.572  0.5453 -0.3121 -0.2626
 2960poe    c2313914   4.613   4.340   0.535 -0.4062  0.2575 -0.2020
 2960poe    c2313915   4.684   4.229   0.456  0.3503  0.3116  0.3884
 2960poe     o213916   4.786   4.152   0.516  0.2010  0.0755  0.3404
 2960poe    c2313917   4.830   4.032   0.455  0.1396  0.2157  0.0163
 2960poe    c2313918   4.909   3.953   0.561  0.2518 -0.2777 -0.4298
 2960poe     o213919   5.023   4.005   0.626 -0.2557 -0.0468  0.2863
 2960poe    c3113920   5.105   3.905   0.681 -0.4111 -0.2965  0.0624
 2961poe    c3113921   5.667   0.066   3.905 -0.1720 -0.5286  0.1820
 2961poe     o213922   5.543   0.081   3.841  0.1704  0.0969 -0.3380
 2961poe    c2313923   5.570   0.117   3.707 -0.3219 -0.1698 -0.5114
 2961poe    c2313924   5.439   0.150   3.633 -0.4030 -0.3821 -0.4627
 2961poe     o213925   5.380   0.275   3.661  0.2346 -0.1601 -0.1028
 2961poe    c2313926   5.440   0.379   3.587 -0.0909  0.1321  0.0429
 2961poe    c2313927   5.390   0.514   3.642 -0.1042  0.1431  0.0046
 2961poe     o213928   5.265   0.561   3.598  0.3938  0.8876 -0.6433
 2961poe    c2313929   5.236   0.695   3.634  0.3252  0.6715  0.1373
 2961poe    c2313930   5.116   0.745   3.552  0.3334  0.8896  0.2584
 2961poe     o213931   5.107   0.758   3.411  0.2001  0.4742  0.2259
 2961poe    c3113932   5.164   0.656   3.333  0.5443  0.5694  0.3489
 2962poe    c3113933   3.309   7.229   6.786 -0.4179  0.3939 -0.4141
 2962poe     o213934   3.259   7.274   6.910 -0.0821  0.2645 -0.2313
 2962poe    c2313935   3.347   7.351   6.989 -0.0289 -0.1065  0.0712
 2962poe    c2313936   3.399   7.489   6.945 -0.2954 -0.0454 -0.0522
 2962poe     o213937   3.298   7.586   6.935 -0.2170  0.0182 -0.2335
 2962poe    c2313938   3.362   7.703   6.887  0.3495  0.0131  0.4877
 2962poe    c2313939   3.273   7.825   6.856  0.0696 -0.3638 -0.2419
 2962poe     o213940   3.242   7.910   6.964  0.9511 -0.6420  0.2437
 2962poe    c2313941   3.107   7.948   6.946  1.0655  0.1051  0.8620
 2962poe    c2313942   3.071   8.075   7.024  0.3971  0.5351 -0.1328
 2962poe     o213943   3.010   8.174   6.943  0.0792  0.1404 -0.3815
 2962poe    c3113944   3.096   8.246   6.857 -0.1007  0.2813 -0.4443
 2963poe    c3113945   5.740   3.094   6.226 -0.3065  0.3126  0.4266
 2963poe     o213946   5.751   2.978   6.306  0.1578  0.1340  0.1076
 2963poe    c2313947   5.676   3.002   6.423  0.2775 -0.1198  0.2387
 2963poe    c2313948   5.704   2.897   6.532 -0.2184 -0.2643  0.2316
 2963poe     o213949   5.834   2.848   6.508 -0.2498 -0.1902 -0.0970
 2963poe    c2313950   5.873   2.761   6.612 -0.6277 -0.0981  0.1214
 2963poe    c2313951   5.865   2.617   6.558 -0.0203 -0.1404  0.1406
 2963poe     o213952   5.924   2.603   6.430  0.3471 -0.0904  0.3016
 2963poe    c2313953   5.871   2.490   6.363  0.3742 -0.0814  0.2653
 2963poe    c2313954   5.963   2.451   6.246 -0.0497  0.0714 -0.1215
 2963poe     o213955   5.979   2.550   6.147 -0.0900  0.0592 -0.1405
 2963poe    c3113956   6.072   2.507   6.050 -0.0644 -0.1454 -0.0248
 2964poe    c3113957   6.863   4.944   0.156 -0.1573  0.6238 -0.0196
 2964poe     o213958   6.988   4.899   0.203 -0.1176  0.7971  0.0437
 2964poe    c2313959   7.002   4.860   0.338  0.3165 -0.3675 -0.3185
 2964poe    c2313960   7.137   4.921   0.381  0.0798 -0.0912  0.0421
 2964poe     o213961   7.143   5.061   0.373 -0.4066 -0.0445  0.4413
 2964poe    c2313962   7.250   5.121   0.443  0.1326 -0.2395 -0.2057
 2964poe    c2313963   7.365   5.187   0.366 -0.2515  0.1714 -0.4269
 2964poe     o213964   7.463   5.112   0.298  0.1051  0.1680  0.0793
 2964poe    c2313965   7.588   5.097   0.359 -0.2970  0.2956  0.9433
 2964poe    c2313966   7.702   5.111   0.256 -0.4350 -0.4364  0.6877
 2964poe     o213967   7.724   5.009   0.162 -0.0698  0.3926 -0.1391
 2964poe    c3113968   7.764   4.879   0.199 -0.9576  0.2588  0.3757
 2965poe    c3113969   1.829   0.046   2.717  0.1038  0.4541  0.0075
 2965poe     o213970   1.771  -0.071   2.772  0.5151  0.0621 -0.3839
 2965poe    c2313971   1.830  -0.199   2.768 -0.2679 -0.3255  0.3565
 2965poe    c2313972   1.971  -0.222   2.826 -0.1388 -0.9232 -0.1852
 2965poe     o213973   2.074  -0.146   2.769 -0.2089 -0.3972  0.3805
 2965poe    c2313974   2.172  -0.116   2.865 -0.4202 -0.4866  0.6244
 2965poe    c2313975   2.188   0.025   2.925  0.4065 -0.3771  0.1702
 2965poe     o213976   2.205   0.127   2.829  0.4147 -0.2454  0.3106
 2965poe    c2313977   2.180   0.248   2.896 -0.4203 -0.1783 -0.1025
 2965poe    c2313978   2.176   0.384   2.824 -0.2306  0.0006  0.2208
 2965poe     o213979   2.305   0.431   2.790 -0.2123 -0.3803 -0.2553
 2965poe    c3113980   2.286   0.550   2.716 -0.7464 -0.3551 -0.0837
 2966poe    c3113981   3.671   1.442   2.891  0.0908  0.7132  0.1648
 2966poe     o213982   3.714   1.485   3.018  0.1504 -0.0453  0.4048
 2966poe    c2313983   3.644   1.406   3.112 -0.3710  0.3578  0.3591
 2966poe    c2313984   3.709   1.429   3.250  0.7129 -0.3731 -0.0145
 2966poe     o213985   3.716   1.570   3.260  0.4886 -0.3794  0.2304
 2966poe    c2313986   3.818   1.614   3.347  0.3850  0.1089  0.1067
 2966poe    c2313987   3.792   1.765   3.347 -0.4247 -0.0263 -0.0505
 2966poe     o213988   3.810   1.803   3.213 -0.1076 -0.2418 -0.0705
 2966poe    c2313989   3.868   1.931   3.200 -0.5926 -0.0387 -0.2786
 2966poe    c2313990   3.926   1.975   3.064  0.0049 -0.4588 -0.1613
 2966poe     o213991   4.055   1.928   3.033  0.2168  0.2427 -0.3542
 2966poe    c3113992   4.147   2.019   2.977  0.6429 -0.0110 -0.0745
 2967poe    c3113993   3.262   7.213   5.065  0.1147  0.6348 -0.0012
 2967poe     o213994   3.367   7.295   5.111  0.2624  0.5434 -0.1746
 2967poe    c2313995   3.429   7.214   5.208  0.3657  0.0091 -0.6789
 2967poe    c2313996   3.560   7.282   5.252  0.4053 -0.2020 -0.4679
 2967poe     o213997   3.657   7.290   5.149  0.8029  0.7205 -0.0259
 2967poe    c2313998   3.776   7.351   5.193  0.5743  0.6308  0.7327
 2967poe    c2313999   3.866   7.402   5.079 -0.6313  0.2107 -0.4269
 2967poe     o214000   3.957   7.313   5.017  0.1900  0.5452  0.2815
 2967poe    c2314001   4.037   7.379   4.922  0.1875  0.4253  0.1966
 2967poe    c2314002   4.080   7.284   4.808 -0.1614 -0.0424  0.4537
 2967poe     o214003   4.134   7.161   4.850 -0.1103 -0.1169  0.1719
 2967poe    c3114004   4.127   7.062   4.750  0.1081  0.3009 -0.2548
 2968poe    c3114005   6.313   3.747   7.127 -0.2319  0.1417 -0.6502
 2968poe     o214006   6.338   3.703   6.996  0.1153 -0.0260 -0.5290
 2968poe    c2314007   6.221   3.644   6.945  0.0618 -0.4268  0.0567
 2968poe    c2314008   6.240   3.614   6.795  0.3951  0.3160 -0.0524
 2968poe     o214009   6.365   3.670   6.760  0.2553  0.4383 -0.3580
 2968poe    c2314010   6.371   3.702   6.623 -0.0724  0.5750 -0.3419
 2968poe    c2314011   6.504   3.778   6.607  0.1555  0.2036 -0.2256
 2968poe     o214012   6.601   3.704   6.678 -0.1972 -0.3807 -0.3486
 2968poe    c2314013   6.720   3.695   6.603 -0.0867 -0.2696 -0.1868
 2968poe    c2314014   6.853   3.642   6.660 -0.0660 -0.1484 -0.1218
 2968poe     o214015   6.952   3.664   6.563 -0.2967  0.2292 -0.2731
 2968poe    c3114016   7.063   3.581   6.590  0.0476  0.7640 -0.0151
 2969poe    c3114017   6.707   7.123   5.675 -0.3082  0.1526  0.4191
 2969poe     o214018   6.785   7.034   5.752  0.3120  0.3309  0.0105
 2969poe    c2314019   6.868   6.949   5.676 -0.1692 -0.3281  0.2043
 2969poe    c2314020   6.967   6.870   5.763  0.8179  0.6929  0.0379
 2969poe     o214021   6.911   6.823   5.884  0.4566  0.0783 -0.3638
 2969poe    c2314022   6.988   6.725   5.949 -0.1380 -0.3501 -0.2965
 2969poe    c2314023   6.902   6.666   6.062 -0.2204 -0.0043 -0.1761
 2969poe     o214024   6.848   6.761   6.151  0.0985  0.4734 -0.4937
 2969poe    c2314025   6.846   6.719   6.285  0.0670  0.3632 -0.5284
 2969poe    c2314026   6.790   6.839   6.364 -0.2144 -0.2398  0.2027
 2969poe     o214027   6.860   6.961   6.364  0.0050 -0.3652  0.0380
 2969poe    c3114028   6.790   7.056   6.441 -0.1434 -0.6393  0.2431
 2970poe    c3114029   5.294   0.557   2.856  0.2290 -0.0959  0.3537
 2970poe     o214030   5.209   0.593   2.749  0.6787 -0.0677  0.0048
 2970poe    c2314031   5.288   0.635   2.640  0.8051  0.5269  0.3160
 2970poe    c2314032   5.211   0.660   2.509  0.1985  0.0619  0.5743
 2970poe     o214033   5.165   0.542   2.447  0.6775  0.3269 -0.3185
 2970poe    c2314034   5.026   0.521   2.459  0.8997 -0.8542  0.4405
 2970poe    c2314035   5.004   0.376   2.413  0.7205 -0.7544  0.2114
 2970poe     o214036   4.869   0.337   2.423  0.3217  0.2833 -0.8572
 2970poe    c2314037   4.851   0.197   2.422  0.2869  0.2696  0.5333
 2970poe    c2314038   4.710   0.162   2.473 -0.1566  0.7549 -0.3555
 2970poe     o214039   4.606   0.210   2.390 -0.4768  0.4297 -0.1433
 2970poe    c3114040   4.480   0.183   2.447 -0.3705  0.6990  0.2219
 2971poe    c3114041   0.641   3.714   4.515 -0.7996  0.0643 -0.9088
 2971poe     o214042   0.764   3.681   4.454 -0.4828  0.2316 -0.3597
 2971poe    c2314043   0.784   3.792   4.369  0.1681  0.2799 -0.1504
 2971poe    c2314044   0.913   3.788   4.285 -0.2593  0.0993 -0.8003
 2971poe     o214045   1.016   3.813   4.377 -0.5254 -0.3619 -0.3696
 2971poe    c2314046   1.127   3.768   4.302  0.1123  0.4775  0.0498
 2971poe    c2314047   1.258   3.751   4.381  0.2743 -0.5379 -0.4188
 2971poe     o214048   1.238   3.671   4.495  0.7374 -0.3264 -0.1851
 2971poe    c2314049   1.357   3.669   4.571  0.6257  0.0727  0.0035
 2971poe    c2314050   1.460   3.559   4.536  0.7136  0.0435  0.3488
 2971poe     o214051   1.513   3.592   4.410  0.1007  0.2398  0.1364
 2971poe    c3114052   1.633   3.522   4.383 -0.3400 -0.2863 -0.5187
 2972poe    c3114053   2.065   2.560   0.533  0.2606  0.8994 -0.3046
 2972poe     o214054   2.195   2.509   0.553 -0.0905  0.1450  0.0967
 2972poe    c2314055   2.287   2.612   0.581  0.6052 -0.2133 -0.8062
 2972poe    c2314056   2.432   2.560   0.593  0.5940 -0.1518 -0.3748
 2972poe     o214057   2.437   2.476   0.706  0.1386 -0.2970 -0.4605
 2972poe    c2314058   2.560   2.487   0.773 -0.2892 -0.2348  0.3342
 2972poe    c2314059   2.573   2.469   0.925  0.5797  0.0376  0.2980
 2972poe     o214060   2.521   2.345   0.969  0.6498  0.0814  0.5074
 2972poe    c2314061   2.567   2.323   1.100  0.2333  0.3575  0.7001
 2972poe    c2314062   2.541   2.182   1.155  0.0626 -0.0742 -0.4615
 2972poe     o214063   2.408   2.134   1.156 -0.1084  0.4011 -0.0828
 2972poe    c3114064   2.383   2.042   1.260  0.9116  0.1126 -0.0751
 2973poe    c3114065   3.297   1.577   1.952 -0.2195  0.0228 -0.5270
 2973poe     o214066   3.194   1.673   1.946  0.2262  0.5343 -0.1302
 2973poe    c2314067   3.066   1.624   1.912  0.2607 -0.2235  0.8096
 2973poe    c2314068   2.979   1.733   1.977  0.1885  0.5625 -0.5789
 2973poe     o214069   2.840   1.739   1.950  0.0219 -0.0882  0.1174
 2973poe    c2314070   2.794   1.871   1.963 -0.5763 -0.2375 -0.4524
 2973poe    c2314071   2.650   1.894   1.912 -0.4908  0.6887 -0.2910
 2973poe     o214072   2.641   1.872   1.773  0.4405 -0.2672 -0.2151
 2973poe    c2314073   2.504   1.879   1.739  0.2203 -0.3459  0.6207
 2973poe    c2314074   2.462   2.014   1.677  0.8529 -0.2381  0.4144
 2973poe     o214075   2.529   2.029   1.554 -0.2907 -0.2508 -0.2252
 2973poe    c3114076   2.558   2.166   1.543 -0.3542 -0.1443  0.8207
 2974poe    c3114077   6.280   7.144   0.954 -0.5929  0.1747  0.3904
 2974poe     o214078   6.141   7.122   0.964 -0.5869 -0.4511 -0.7592
 2974poe    c2314079   6.078   7.227   0.893 -0.1608 -0.4724 -1.1752
 2974poe    c2314080   5.933   7.188   0.857 -0.3459 -1.0002  0.0869
 2974poe     o214081   5.840   7.216   0.959 -0.2836 -0.1496 -0.0843
 2974poe    c2314082   5.721   7.142   0.943 -0.2824 -0.1734  0.0178
 2974poe    c2314083   5.605   7.178   1.037 -0.0467  0.5411  0.0370
 2974poe     o214084   5.636   7.183   1.175 -0.3055 -0.2851  0.1304
 2974poe    c2314085   5.643   7.055   1.233  0.0207 -0.2271  0.2228
 2974poe    c2314086   5.688   7.077   1.379  0.5482  0.0284  0.0231
 2974poe     o214087   5.820   7.121   1.403  0.6161 -0.1489 -0.0178
 2974poe    c3114088   5.847   7.152   1.538 -0.4284 -0.1584  0.2019
 2975poe    c3114089   3.692   4.873   6.063 -0.5241 -0.2222  0.4977
 2975poe     o214090   3.725   4.995   5.998  0.3950 -0.4887  0.4420
 2975poe    c2314091   3.822   4.981   5.898 -0.5875  0.7470 -0.7202
 2975poe    c2314092   3.885   5.103   5.827  0.4087  0.6704  0.0019
 2975poe     o214093   3.799   5.176   5.742  0.0045  0.2469  0.0401
 2975poe    c2314094   3.871   5.217   5.628  0.2796 -0.5430 -0.0775
 2975poe    c2314095   3.802   5.307   5.523 -0.2108 -0.5147  0.2650
 2975poe     o214096   3.798   5.444   5.556  0.4976 -0.4467  0.0862
 2975poe    c2314097   3.825   5.529   5.447  0.6362 -0.0754  0.4091
 2975poe    c2314098   3.848   5.679   5.478 -0.2005  0.0951  0.2349
 2975poe     o214099   3.880   5.768   5.374 -0.0352 -0.1920  0.0376
 2975poe    c3114100   3.774   5.777   5.281 -0.3396  0.1005  0.4097
 2976poe    c3114101   3.448   3.230   6.415 -0.4661  0.0951  0.4959
 2976poe     o214102   3.472   3.270   6.282 -0.0223 -1.3142  0.1393
 2976poe    c2314103   3.611   3.269   6.258 -0.0009  0.0016  0.1280
 2976poe    c2314104   3.636   3.283   6.107  0.1974 -0.2413  0.1372
 2976poe     o214105   3.557   3.394   6.070  0.1368 -0.2517  0.2354
 2976poe    c2314106   3.590   3.423   5.936  0.0928 -0.4664  0.1767
 2976poe    c2314107   3.528   3.559   5.900 -0.5098 -0.7941 -0.0360
 2976poe     o214108   3.392   3.549   5.862 -0.4670 -0.1592 -0.3757
 2976poe    c2314109   3.362   3.658   5.779  0.1489  0.3934  0.1139
 2976poe    c2314110   3.211   3.669   5.752  0.0810  0.1108  0.3793
 2976poe     o214111   3.136   3.710   5.864 -0.3181 -0.2799  0.2599
 2976poe    c3114112   3.000   3.697   5.831 -0.2234  0.5517 -0.4988
 2977poe    c3114113   1.000   3.695   7.127  0.4409 -0.4944 -0.1083
 2977poe     o214114   0.918   3.580   7.122 -0.6119  0.2198  0.2097
 2977poe    c2314115   0.812   3.578   7.214 -0.5003  0.2389  0.3386
 2977poe    c2314116   0.850   3.521   7.352  0.1556  0.5279  0.2789
 2977poe     o214117   0.859   3.383   7.324  0.1657  0.6465 -0.2992
 2977poe    c2314118   0.883   3.306   7.439 -0.0691  0.0491 -0.6423
 2977poe    c2314119   0.846   3.159   7.413  0.3028 -0.1673  0.0228
 2977poe     o214120   0.939   3.084   7.339  0.2570 -0.1155 -0.0862
 2977poe    c2314121   0.883   2.955   7.337 -0.3074  0.1295 -0.2749
 2977poe    c2314122   0.969   2.850   7.266 -0.6285 -0.3485  0.0362
 2977poe     o214123   1.004   2.892   7.136 -0.3309 -0.5549  0.0472
 2977poe    c3114124   1.081   2.792   7.074  0.6113  0.1604  0.0402
 2978poe    c3114125   1.833   6.505   7.345  0.0747  0.4425 -0.3628
 2978poe     o214126   1.956   6.569   7.316  0.4051 -0.0113  0.0312
 2978poe    c2314127   1.927   6.660   7.212  0.4283 -0.5742 -0.4748
 2978poe    c2314128   1.983   6.799   7.244  0.0859 -0.5667  0.1010
 2978poe     o214129   2.123   6.788   7.257  0.1233 -0.0926  0.1323
 2978poe    c2314130   2.184   6.914   7.237 -0.6127  0.1631 -0.5673
 2978poe    c2314131   2.338   6.914   7.245 -0.6690  0.3605  0.6694
 2978poe     o214132   2.366   6.835   7.359  0.6739 -0.5609 -0.2716
 2978poe    c2314133   2.503   6.812   7.377  0.5826 -1.2692 -0.4466
 2978poe    c2314134   2.516   6.751   7.518  0.3787  0.0567  0.1652
 2978poe     o214135   2.498   6.611   7.523  0.0750  0.0838 -0.0993
 2978poe    c3114136   2.552   6.537   7.630 -0.1173 -0.2927 -0.2599
 2979poe    c3114137   4.567   3.201   1.361  0.3247 -0.0999 -0.9632
 2979poe     o214138   4.506   3.076   1.339 -0.3534 -0.0395  0.4458
 2979poe    c2314139   4.551   2.992   1.443  0.5165 -0.4301 -0.2370
 2979poe    c2314140   4.437   2.890   1.463 -0.2589  0.3939 -0.4418
 2979poe     o214141   4.418   2.834   1.335 -0.1030 -0.0656 -0.2636
 2979poe    c2314142   4.331   2.723   1.330 -0.1945 -0.0156  0.1542
 2979poe    c2314143   4.328   2.661   1.189  0.2905 -0.1817  0.2145
 2979poe     o214144   4.271   2.760   1.107 -0.3106 -0.6226  0.0911
 2979poe    c2314145   4.237   2.728   0.974 -0.1300 -0.1082 -0.0830
 2979poe    c2314146   4.137   2.826   0.910 -0.1231 -0.0662 -0.0285
 2979poe     o214147   4.186   2.958   0.893 -0.1342 -0.2074 -1.2168
 2979poe    c3114148   4.084   3.051   0.865 -0.0429  0.3765  0.3380
 2980poe    c3114149   1.707   4.217   6.990 -0.1512  0.0499  0.1953
 2980poe     o214150   1.821   4.205   6.908 -0.6364  0.3093 -0.5270
 2980poe    c2314151   1.938   4.276   6.944 -0.3054 -0.3547 -0.2847
 2980poe    c2314152   2.000   4.225   7.076 -0.2193 -0.6468 -0.4364
 2980poe     o214153   2.066   4.102   7.062  0.6005 -0.2819  0.1346
 2980poe    c2314154   2.204   4.112   7.031  0.5189 -0.1396 -0.1946
 2980poe    c2314155   2.281   3.980   7.048  0.0055 -0.4058  0.1270
 2980poe     o214156   2.240   3.921   7.169 -0.2677 -0.8898 -0.1931
 2980poe    c2314157   2.340   3.920   7.269 -0.2121 -0.3628 -0.2405
 2980poe    c2314158   2.296   3.897   7.414  0.1008 -0.2436 -0.1249
 2980poe     o214159   2.224   4.000   7.477  0.3616 -0.2833  0.2402
 2980poe    c3114160   2.101   4.044   7.425  0.3539  0.3047  0.7376
 2981poe    c3114161   3.395   2.290   0.248  0.2150  0.5151 -0.3974
 2981poe     o214162   3.315   2.309   0.363  0.3804  0.1829 -0.2274
 2981poe    c2314163   3.371   2.413   0.440  0.1875  0.1315 -0.0197
 2981poe    c2314164   3.285   2.461   0.559  0.0928  0.0537 -0.0566
 2981poe     o214165   3.228   2.372   0.652 -0.0909  0.1048 -0.1210
 2981poe    c2314166   3.322   2.325   0.745  0.0792  0.2433 -0.2238
 2981poe    c2314167   3.277   2.197   0.818  0.1729  0.0612 -0.4842
 2981poe     o214168   3.223   2.102   0.729 -0.1304 -0.4425  0.2320
 2981poe    c2314169   3.256   1.966   0.748 -0.2238 -0.4408  0.4096
 2981poe    c2314170   3.135   1.883   0.702  0.1385 -0.5676 -0.3191
 2981poe     o214171   3.109   1.893   0.563  0.1226 -0.0897 -0.2845
 2981poe    c3114172   2.974   1.860   0.537 -0.0884  0.0769  0.5501
 2982poe    c3114173   0.525   4.710   4.133 -0.1785 -0.2958 -0.2202
 2982poe     o214174   0.424   4.770   4.212  0.1075  0.2366 -0.2518
 2982poe    c2314175   0.323   4.678   4.248  0.1380  0.3522  0.1324
 2982poe    c2314176   0.183   4.737   4.229  0.0342  0.0429 -0.0677
 2982poe     o214177   0.147   4.775   4.098  0.4320  0.2104 -0.1267
 2982poe    c2314178   0.023   4.841   4.101  0.5700  0.4466  0.6885
 2982poe    c2314179   0.019   4.932   3.976  0.5526 -0.0564  0.3211
 2982poe     o214180   0.012   4.867   3.851  0.4124  0.1891  0.2004
 2982poe    c2314181   0.048   4.953   3.745 -0.2352  0.0127 -0.1693
 2982poe    c2314182   0.027   4.868   3.619 -0.2081 -0.0544 -0.1290
 2982poe     o214183   0.098   4.748   3.641  0.2386  0.1701 -0.3239
 2982poe    c3114184   0.099   4.677   3.520  0.7789 -0.5129  0.0749
 2983poe    c3114185   5.061   2.437   3.184 -0.3271  0.1870 -0.4206
 2983poe     o214186   5.122   2.310   3.184 -0.3448  0.1730  0.4647
 2983poe    c2314187   5.020   2.212   3.194  0.0349 -0.2887 -0.1074
 2983poe    c2314188   5.080   2.078   3.147 -0.4906 -0.5124 -0.1439
 2983poe     o214189   5.126   2.096   3.015  0.0766 -0.1429  0.0978
 2983poe    c2314190   5.200   1.983   2.974 -0.3797 -0.3108 -0.2679
 2983poe    c2314191   5.325   2.036   2.902 -0.3009 -0.2756 -0.1041
 2983poe     o214192   5.324   2.153   2.823 -0.1053 -0.5640 -0.5374
 2983poe    c2314193   5.451   2.166   2.762  0.2585 -0.0551  0.3115
 2983poe    c2314194   5.477   2.298   2.688 -0.5161 -0.1255 -0.0957
 2983poe     o214195   5.465   2.415   2.766 -0.7807 -0.1268 -0.1303
 2983poe    c3114196   5.488   2.511   2.666 -0.1357  0.3605  0.4722
 2984poe    c3114197   7.021   5.284   7.307  0.1241  0.0853 -0.0921
 2984poe     o214198   7.037   5.337   7.437 -0.0349 -0.4704  0.1574
 2984poe    c2314199   7.137   5.437   7.439 -0.0973 -0.4091  0.1781
 2984poe    c2314200   7.130   5.486   7.584  0.2522 -0.4210  0.1986
 2984poe     o214201   7.005   5.518   7.640  0.1249 -0.2409 -0.1854
 2984poe    c2314202   6.964   5.652   7.625 -0.1505 -0.3064 -0.0376
 2984poe    c2314203   7.034   5.738   7.732  0.5498 -0.2577 -0.5265
 2984poe     o214204   7.034   5.701   7.868  0.4171  0.1056 -0.4257
 2984poe    c2314205   7.146   5.758   7.932 -0.2316  1.0060 -0.0686
 2984poe    c2314206   7.284   5.697   7.899 -0.6274  0.0848 -0.0573
 2984poe     o214207   7.265   5.562   7.935  0.2100 -0.0200 -0.0015
 2984poe    c3114208   7.374   5.476   7.910  0.3317 -0.0711  0.6810
 2985poe    c3114209   5.449   5.623   2.910  0.1303 -0.1406  0.1735
 2985poe     o214210   5.476   5.595   2.775  0.0137  0.2000  0.0779
 2985poe    c2314211   5.385   5.493   2.738  0.1331  0.0712  0.1380
 2985poe    c2314212   5.443   5.403   2.627  0.1957  0.0687  0.1725
 2985poe     o214213   5.451   5.476   2.507  0.9637 -0.0052  0.1751
 2985poe    c2314214   5.458   5.399   2.389 -0.1934  0.2473 -0.0767
 2985poe    c2314215   5.449   5.492   2.267 -0.3230 -0.1794 -0.3928
 2985poe     o214216   5.544   5.596   2.281 -0.8288  0.2972 -0.4710
 2985poe    c2314217   5.543   5.693   2.178 -0.1743  0.3034 -0.4718
 2985poe    c2314218   5.652   5.797   2.211 -0.2339  0.0256  0.6467
 2985poe     o214219   5.626   5.829   2.346 -0.1428  0.3482  0.5898
 2985poe    c3114220   5.712   5.935   2.380  0.5574 -0.0107 -0.0256
 2986poe    c3114221   3.935   3.197   3.641  0.0066  0.2255  0.4300
 2986poe     o214222   3.818   3.169   3.567  0.5758 -1.0248 -0.0130
 2986poe    c2314223   3.847   3.054   3.491  0.6360 -0.3277 -1.0577
 2986poe    c2314224   3.736   3.061   3.384  0.0397 -0.3113 -0.4431
 2986poe     o214225   3.761   3.162   3.290  0.1203  0.2921  0.2164
 2986poe    c2314226   3.646   3.181   3.210  0.4042 -0.1991 -0.3202
 2986poe    c2314227   3.686   3.243   3.075  0.5048  0.2941 -0.0656
 2986poe     o214228   3.808   3.313   3.087  0.7980 -0.2002 -0.1554
 2986poe    c2314229   3.826   3.385   2.968 -0.2338  0.3158 -0.0110
 2986poe    c2314230   3.972   3.434   2.954 -0.0009 -0.0982  0.9148
 2986poe     o214231   4.006   3.517   3.063  0.0738  0.7287  0.2684
 2986poe    c3114232   4.145   3.537   3.062  0.1808  0.0085 -0.4818
 2987poe    c3114233   1.472   1.058   4.862  0.5251  0.6568 -0.2472
 2987poe     o214234   1.505   1.116   4.738  0.1866 -0.0827 -0.6906
 2987poe    c2314235   1.600   1.219   4.757  0.1016 -0.0670 -0.3463
 2987poe    c2314236   1.673   1.220   4.621  0.2012  0.4255 -0.2912
 2987poe     o214237   1.793   1.147   4.612 -0.3677 -0.5654 -0.0753
 2987poe    c2314238   1.835   1.146   4.478 -0.2654 -0.4182 -0.0456
 2987poe    c2314239   1.978   1.093   4.457 -0.0232  0.0882  0.3166
 2987poe     o214240   1.986   0.952   4.457  0.4369  0.1109 -0.2539
 2987poe    c2314241   2.099   0.922   4.378  0.6410  0.1233  0.0307
 2987poe    c2314242   2.087   0.782   4.315  0.8592 -0.1730  0.6361
 2987poe     o214243   2.174   0.753   4.208  0.4152  0.5301  0.0725
 2987poe    c3114244   2.124   0.650   4.125  0.3642  0.4472  0.2073
 2988poe    c3114245   4.322   5.142   5.080 -0.1383  0.1541  0.0167
 2988poe     o214246   4.350   5.190   5.209  0.1787  0.0948 -0.0280
 2988poe    c2314247   4.314   5.106   5.317  0.3840 -0.3430 -0.2993
 2988poe    c2314248   4.438   5.021   5.350  0.3595 -0.3258 -0.1627
 2988poe     o214249   4.534   5.099   5.418  0.2671 -0.1207 -0.2680
 2988poe    c2314250   4.653   5.025   5.423  0.3034 -0.0230  0.2844
 2988poe    c2314251   4.754   5.044   5.309 -0.8478  0.2226 -0.7070
 2988poe     o214252   4.805   5.175   5.294 -0.6727  0.1918 -0.3804
 2988poe    c2314253   4.923   5.181   5.217 -0.2048 -0.1286  0.2952
 2988poe    c2314254   4.997   5.309   5.260  0.1742 -0.1830 -0.1923
 2988poe     o214255   4.902   5.411   5.240  0.4738  0.2031  0.3348
 2988poe    c3114256   4.963   5.538   5.245  0.1420  0.3868 -0.2306
 2989poe    c3114257   4.552   4.062   4.899 -0.3387  0.9035 -0.6541
 2989poe     o214258   4.471   4.139   4.986 -0.3519 -0.3609  0.4751
 2989poe    c2314259   4.380   4.226   4.923 -0.3290 -0.2962  0.5320
 2989poe    c2314260   4.290   4.307   5.018 -0.2217  0.6226 -0.1376
 2989poe     o214261   4.367   4.375   5.116  0.1355 -0.0881  0.0826
 2989poe    c2314262   4.278   4.423   5.215 -0.6660 -0.1659 -0.5812
 2989poe    c2314263   4.336   4.452   5.355 -0.9334  0.1766 -0.5414
 2989poe     o214264   4.410   4.569   5.381  0.1645 -0.5935 -0.1427
 2989poe    c2314265   4.481   4.552   5.502  0.6023 -0.4517 -0.3809
 2989poe    c2314266   4.582   4.667   5.525 -0.5530  0.4474  0.3010
 2989poe     o214267   4.704   4.639   5.460 -0.5047 -0.8224  0.9011
 2989poe    c3114268   4.810   4.697   5.533 -0.1332  0.5808 -0.6726
 2990poe    c3114269   0.595   4.300   1.623 -0.8931 -0.1445  0.5239
 2990poe     o214270   0.524   4.404   1.558  0.3483  0.4833  0.1439
 2990poe    c2314271   0.600   4.502   1.492  0.3948  0.3499 -0.0010
 2990poe    c2314272   0.538   4.516   1.352 -0.2581 -0.4377  0.2050
 2990poe     o214273   0.399   4.542   1.351 -0.2857 -0.5956 -0.1255
 2990poe    c2314274   0.351   4.585   1.225  0.2075  0.7231  0.1276
 2990poe    c2314275   0.200   4.611   1.237 -0.0520 -0.5401 -0.2881
 2990poe     o214276   0.137   4.486   1.258 -0.4008 -0.2264  0.5874
 2990poe    c2314277   0.023   4.475   1.176  0.3451 -0.3518 -0.4499
 2990poe    c2314278  -0.050   4.344   1.212 -0.4581  0.0725 -0.5185
 2990poe     o214279  -0.021   4.307   1.345 -0.3316  0.5787 -0.4000
 2990poe    c3114280  -0.114   4.212   1.393  0.2579  0.0902 -0.2106
 2991poe    c3114281   5.138   1.963   4.012 -0.1085 -0.3509  0.3848
 2991poe     o214282   5.086   1.929   3.886 -0.2926 -0.1115  0.3947
 2991poe    c2314283   4.961   1.983   3.850 -0.1893 -0.2537 -0.1992
 2991poe    c2314284   4.826   1.914   3.881 -0.3216 -0.0074 -0.2203
 2991poe     o214285   4.800   1.789   3.821 -0.2550 -0.0585 -0.1434
 2991poe    c2314286   4.724   1.721   3.919 -0.1860  0.0782  0.0051
 2991poe    c2314287   4.653   1.593   3.875  0.1432  0.0413 -0.4307
 2991poe     o214288   4.740   1.507   3.804  0.3073 -0.3010  0.1785
 2991poe    c2314289   4.671   1.392   3.759 -0.0695  0.0355 -0.1096
 2991poe    c2314290   4.759   1.341   3.644  0.0789  0.2519 -0.0932
 2991poe     o214291   4.892   1.326   3.689  0.2068  0.3393 -0.4384
 2991poe    c3114292   4.960   1.264   3.582  0.5268 -0.0105 -0.0367
 2992poe    c3114293   6.269   6.880   3.096 -0.3409  0.6549  0.6834
 2992poe     o214294   6.207   6.854   3.220 -0.4956 -0.6227  0.3472
 2992poe    c2314295   6.239   6.949   3.319  0.5146 -0.5260 -0.0591
 2992poe    c2314296   6.157   6.933   3.448  0.4439  0.1797 -0.0127
 2992poe     o214297   6.206   6.862   3.560 -0.0811  0.2070  0.2363
 2992poe    c2314298   6.187   6.723   3.550 -0.0490  0.2000  0.2792
 2992poe    c2314299   6.157   6.654   3.685 -0.1564 -0.6606 -0.1735
 2992poe     o214300   6.266   6.635   3.772  0.0960  0.3506 -0.2553
 2992poe    c2314301   6.237   6.571   3.895 -0.1805  0.4130 -0.2872
 2992poe    c2314302   6.367   6.528   3.964  0.0660 -0.0087 -1.0048
 2992poe     o214303   6.426   6.638   4.030  0.0415 -0.3287 -0.4412
 2992poe    c3114304   6.518   6.584   4.121  0.2282 -0.2305 -0.5702
 2993poe    c3114305   6.862   2.362   6.841 -0.1413  0.8259  0.5979
 2993poe     o214306   6.908   2.391   6.711 -0.2506 -0.2096  0.3217
 2993poe    c2314307   6.791   2.395   6.633  0.1526  0.0930 -0.2698
 2993poe    c2314308   6.846   2.355   6.494  0.3283  0.0407 -0.1857
 2993poe     o214309   6.962   2.429   6.462  0.2793 -0.1002 -0.6833
 2993poe    c2314310   6.939   2.546   6.385 -0.0066  0.0424 -0.3839
 2993poe    c2314311   7.076   2.616   6.376  0.2601 -0.4051  0.0537
 2993poe     o214312   7.121   2.666   6.500 -0.1218  0.2900 -0.0799
 2993poe    c2314313   7.242   2.732   6.473  0.2566 -0.4879 -0.3104
 2993poe    c2314314   7.276   2.815   6.598 -0.0861 -0.4716 -0.2287
 2993poe     o214315   7.285   2.741   6.717 -0.2186 -0.0135  0.0708
 2993poe    c3114316   7.370   2.801   6.813 -0.2584  0.4095 -0.1582
 2994poe    c3114317   1.076   0.106   2.830 -0.4520 -0.5908  0.4617
 2994poe     o214318   1.062   0.146   2.965  0.0648 -0.5610  0.5101
 2994poe    c2314319   0.926   0.162   3.001 -0.0407  0.1735 -0.1834
 2994poe    c2314320   0.895   0.087   3.132 -0.9097 -0.2158 -0.6033
 2994poe     o214321   0.929  -0.050   3.143 -0.4377 -0.0488  0.0957
 2994poe    c2314322   0.868  -0.127   3.042 -0.0214  0.1543 -0.3176
 2994poe    c2314323   0.912  -0.273   3.060  0.4143  0.3662  0.3740
 2994poe     o214324   0.868  -0.325   3.183 -0.0310  0.0308  0.0755
 2994poe    c2314325   0.785  -0.439   3.173 -0.3929  0.2877  0.1133
 2994poe    c2314326   0.779  -0.532   3.296  0.1746  0.0464 -0.0364
 2994poe     o214327   0.733  -0.463   3.410  0.5443 -0.2236  0.2781
 2994poe    c3114328   0.687  -0.545   3.516  0.3962 -0.3796  0.0946
 2995poe    c3114329   0.898   2.807   3.488  0.9705 -0.3778 -0.3489
 2995poe     o214330   0.861   2.943   3.500  0.3661 -0.5641 -0.0328
 2995poe    c2314331   0.734   2.949   3.560  0.2188 -0.4349 -0.3562
 2995poe    c2314332   0.652   3.072   3.517  0.4395 -0.3070 -0.4088
 2995poe     o214333   0.692   3.201   3.559 -0.1846 -0.1290 -0.3469
 2995poe    c2314334   0.795   3.250   3.477  0.1261  0.0268  0.1300
 2995poe    c2314335   0.848   3.373   3.554 -0.0387  0.1055  0.1176
 2995poe     o214336   0.747   3.470   3.567 -0.2484 -0.1024  0.0537
 2995poe    c2314337   0.777   3.567   3.665  0.7819 -0.2884 -0.0690
 2995poe    c2314338   0.700   3.693   3.623  0.2490 -0.5152  0.2136
 2995poe     o214339   0.580   3.659   3.557  0.1747  0.0284  0.0593
 2995poe    c3114340   0.543   3.758   3.464 -0.4572 -0.2821 -0.0239
 2996poe    c3114341   6.443   1.804   6.891  0.2244 -0.2138  0.6855
 2996poe     o214342   6.542   1.719   6.838  0.0212  0.1267 -0.2564
 2996poe    c2314343   6.556   1.601   6.914 -0.3110  0.1096 -0.2179
 2996poe    c2314344   6.657   1.514   6.836 -0.1008  0.3258 -0.1886
 2996poe     o214345   6.683   1.394   6.906 -0.2456 -0.0989 -0.8616
 2996poe    c2314346   6.786   1.318   6.845  0.5833 -0.1117  0.5278
 2996poe    c2314347   6.829   1.206   6.942 -0.5187 -0.9383  0.0791
 2996poe     o214348   6.731   1.110   6.974 -1.2531 -0.0941  0.4104
 2996poe    c2314349   6.778   1.017   7.069  0.1464  0.0958 -0.0771
 2996poe    c2314350   6.678   0.901   7.059 -0.0524  0.2503  0.1057
 2996poe     o214351   6.543   0.941   7.076 -0.0282  0.2693  0.2531
 2996poe    c3114352   6.462   0.843   7.137  0.3855 -0.0702  0.2617
 2997poe    c3114353   2.909   3.209   1.206 -0.5865  0.2875  0.0637
 2997poe     o214354   2.954   3.080   1.170 -0.0514  0.5839 -0.3586
 2997poe    c2314355   2.897   3.031   1.051  0.2075 -0.5593 -0.0170
 2997poe    c2314356   2.922   2.879   1.039 -0.3399 -0.7054  0.6618
 2997poe     o214357   3.056   2.843   1.018 -0.3685 -0.3793 -0.1343
 2997poe    c2314358   3.078   2.716   0.960 -0.0998 -0.1646 -0.5016
 2997poe    c2314359   3.224   2.668   0.972  0.0417  0.3418 -0.1491
 2997poe     o214360   3.316   2.751   0.905 -0.2316  0.8355  0.0808
 2997poe    c2314361   3.445   2.702   0.933 -0.4209 -0.0312 -0.5166
 2997poe    c2314362   3.549   2.764   0.838 -0.2345  0.5495  0.0626
 2997poe     o214363   3.561   2.686   0.721  0.0070  0.6556  0.0156
 2997poe    c3114364   3.684   2.709   0.656  0.1741 -0.0768  0.0696
 2998poe    c3114365   6.191   2.154   5.371 -0.1053 -0.5115 -0.1156
 2998poe     o214366   6.282   2.206   5.277  0.1562  0.2192  0.5292
 2998poe    c2314367   6.209   2.269   5.174  0.0547 -0.4407  0.1947
 2998poe    c2314368   6.289   2.278   5.043 -0.3271  0.0373 -0.0105
 2998poe     o214369   6.407   2.344   5.082 -0.4125  0.3672 -0.3025
 2998poe    c2314370   6.495   2.385   4.981  0.2290  0.3891  0.2545
 2998poe    c2314371   6.642   2.412   5.020  0.2769  0.5973 -0.0555
 2998poe     o214372   6.702   2.289   5.053  0.2704  0.4540 -0.5731
 2998poe    c2314373   6.752   2.207   4.950 -0.4371  0.0521 -0.6064
 2998poe    c2314374   6.852   2.102   5.004 -0.4195  0.3648 -0.0277
 2998poe     o214375   6.794   2.000   5.082 -0.2247  0.7465  0.6258
 2998poe    c3114376   6.867   1.898   5.146  0.0454 -0.0606 -0.9408
 2999poe    c3114377   1.791   1.966   5.561 -0.2978  0.5143 -0.1730
 2999poe     o214378   1.876   1.855   5.547  0.1908  0.8575  0.0556
 2999poe    c2314379   1.900   1.815   5.681  0.1495  0.6413  0.0001
 2999poe    c2314380   1.996   1.696   5.694 -0.8823 -0.2299 -0.1917
 2999poe     o214381   2.054   1.679   5.567  0.1925 -0.2651  0.2937
 2999poe    c2314382   2.121   1.556   5.550 -0.3831 -0.5717  0.2408
 2999poe    c2314383   2.200   1.569   5.418 -0.8188 -0.2291  0.0097
 2999poe     o214384   2.099   1.586   5.322 -0.5198 -0.3289 -0.3233
 2999poe    c2314385   2.145   1.574   5.189  0.7164 -0.3477  0.0940
 2999poe    c2314386   2.060   1.481   5.100  0.1628 -0.1214  0.3771
 2999poe     o214387   1.937   1.540   5.063  0.7145  0.3706 -0.7325
 2999poe    c3114388   1.908   1.498   4.932 -0.3172 -0.0053 -0.3913
 3000poe    c3114389   7.010   0.089   3.457  0.7412 -0.2265  0.3972
 3000poe     o214390   6.930   0.163   3.547  0.0501 -0.2138 -0.2235
 3000poe    c2314391   6.828   0.232   3.478 -0.1062 -0.4468 -0.2267
 3000poe    c2314392   6.720   0.224   3.587  0.1920  0.2646  0.1220
 3000poe     o214393   6.770   0.257   3.715 -0.1222 -0.3572  0.4075
 3000poe    c2314394   6.662   0.262   3.807 -0.5105 -1.1603  0.0086
 3000poe    c2314395   6.724   0.258   3.948 -0.5222 -0.3663  0.0388
 3000poe     o214396   6.743   0.121   3.975 -0.7193 -0.3185  0.4140
 3000poe    c2314397   6.809   0.106   4.099 -0.1022  0.1084  0.1408
 3000poe    c2314398   6.854  -0.038   4.127  0.2938  0.0600 -0.7228
 3000poe     o214399   6.952  -0.078   4.033  1.0132  0.7894 -0.2977
 3000poe    c3114400   6.999  -0.204   4.072 -0.5902  0.1106 -0.4677
 3001poe    c3114401   2.160   3.106   6.447 -0.5111 -0.1853 -0.0672
 3001poe     o214402   2.130   3.043   6.324 -0.2311  0.4215 -0.4544
 3001poe    c2314403   2.119   3.148   6.231 -0.8280  0.5821 -0.2079
 3001poe    c2314404   2.206   3.112   6.110 -0.4406  0.0050  0.2362
 3001poe     o214405   2.156   3.007   6.030  0.2017  0.0845 -0.2833
 3001poe    c2314406   2.255   2.978   5.935  0.8243 -0.3456  0.4851
 3001poe    c2314407   2.221   2.852   5.853  0.4037  0.3980 -0.5135
 3001poe     o214408   2.143   2.773   5.939  0.7131 -0.1277 -0.7099
 3001poe    c2314409   2.116   2.645   5.884  0.1728 -0.0213 -0.6993
 3001poe    c2314410   2.021   2.555   5.965  0.9836  0.4952  0.8675
 3001poe     o214411   1.923   2.636   6.025  0.1099 -0.1537  0.3433
 3001poe    c3114412   1.812   2.555   6.057 -0.5269  0.5358 -0.0924
 3002poe    c3114413   6.227   1.064   0.691  0.0931  0.2604 -0.3472
 3002poe     o214414   6.291   1.128   0.582  0.3888  0.2047 -0.2080
 3002poe    c2314415   6.202   1.208   0.508  0.2449  0.7960  0.5871
 3002poe    c2314416   6.255   1.234   0.365  0.0296  0.7673  0.5011
 3002poe     o214417   6.395   1.233   0.380  0.1354  0.1353 -0.4781
 3002poe    c2314418   6.452   1.278   0.259 -0.1445 -0.4889 -0.8453
 3002poe    c2314419   6.605   1.262   0.261 -0.1889 -0.8703 -0.2403
 3002poe     o214420   6.650   1.131   0.236  0.5934 -0.6315 -0.0898
 3002poe    c2314421   6.785   1.108   0.272  0.3176 -0.7976  0.8614
 3002poe    c2314422   6.848   0.974   0.231  0.3492 -0.5519  0.0986
 3002poe     o214423   6.800   0.873   0.317  0.2806 -0.5509  0.0614
 3002poe    c3114424   6.837   0.741   0.285  0.4352 -0.6006  0.4333
 3003poe    c3114425   6.408   4.851   7.236 -0.1521  0.3779  0.4559
 3003poe     o214426   6.489   4.742   7.197 -0.6430  0.2180 -0.1275
 3003poe    c2314427   6.470   4.640   7.292 -0.0470 -0.0646 -0.3120
 3003poe    c2314428   6.484   4.515   7.203 -0.1892 -0.2853 -0.0251
 3003poe     o214429   6.614   4.532   7.150  0.0243 -0.0545  0.5669
 3003poe    c2314430   6.657   4.414   7.084  0.6104  0.1171  0.6394
 3003poe    c2314431   6.805   4.430   7.045  0.4663  0.1286  0.0974
 3003poe     o214432   6.813   4.555   6.980 -0.4974  0.3451  0.3782
 3003poe    c2314433   6.945   4.582   6.940 -0.3569  0.3848  0.8653
 3003poe    c2314434   6.963   4.725   6.884  0.9038  0.0433  0.3610
 3003poe     o214435   6.952   4.816   6.991 -0.0461  0.3038  0.0514
 3003poe    c3114436   6.992   4.948   6.964 -0.5687  0.4008 -0.2509
 3004poe    c3114437   4.397   5.159   5.852  0.6557  0.6107 -0.1483
 3004poe     o214438   4.422   5.298   5.851 -0.5697  0.8411 -0.0158
 3004poe    c2314439   4.465   5.339   5.979  0.5674 -0.3594  0.0085
 3004poe    c2314440   4.515   5.482   5.951 -0.3622  0.0120  0.1926
 3004poe     o214441   4.428   5.544   5.860 -0.0168  0.1142 -0.0701
 3004poe    c2314442   4.461   5.679   5.837  0.2881  0.1088  0.3260
 3004poe    c2314443   4.381   5.735   5.718 -0.0369 -1.1509 -0.0644
 3004poe     o214444   4.394   5.656   5.602 -0.0660 -0.5721 -0.4702
 3004poe    c2314445   4.334   5.726   5.496 -0.4458 -0.0277  0.0962
 3004poe    c2314446   4.355   5.648   5.365  0.6444  0.2581  0.0912
 3004poe     o214447   4.311   5.514   5.358 -0.1306  0.5008  0.1999
 3004poe    c3114448   4.250   5.480   5.236  0.3423  0.3456  0.0061
 3005poe    c3114449   6.135   1.982   6.693 -0.1717  0.1604 -0.1413
 3005poe     o214450   6.219   1.930   6.593  0.3839  0.3279  0.2329
 3005poe    c2314451   6.203   1.790   6.598  0.2185  0.3124 -0.5624
 3005poe    c2314452   6.272   1.735   6.471  0.9791 -0.1120  0.0266
 3005poe     o214453   6.394   1.801   6.449  0.7750  0.3922  0.3709
 3005poe    c2314454   6.489   1.718   6.384 -0.0708 -0.3907  0.1145
 3005poe    c2314455   6.593   1.794   6.300 -0.0474 -0.3562  0.1742
 3005poe     o214456   6.529   1.867   6.198  0.9561 -0.2050 -0.3601
 3005poe    c2314457   6.588   1.987   6.155  0.4655  0.3566  0.5061
 3005poe    c2314458   6.496   2.063   6.058  0.2818  0.3528  0.6754
 3005poe     o214459   6.366   2.108   6.088  0.0869 -0.1523  0.5870
 3005poe    c3114460   6.298   2.179   5.987  1.3490  0.7276  0.3310
 3006poe    c3114461   2.203   2.049   4.629 -0.7578  1.1575 -0.2284
 3006poe     o214462   2.099   1.994   4.708  0.0429 -0.3057 -0.1534
 3006poe    c2314463   2.123   1.864   4.756 -0.0393 -0.2415  0.0611
 3006poe    c2314464   2.194   1.871   4.892 -0.2832  0.3712  0.1585
 3006poe     o214465   2.331   1.903   4.889 -0.2048  0.0114 -0.0805
 3006poe    c2314466   2.393   1.843   5.000 -0.0088  0.3320 -0.0147
 3006poe    c2314467   2.538   1.891   5.019  0.1709  0.1232 -0.8446
 3006poe     o214468   2.566   2.025   5.051 -0.1216 -0.0653  0.2294
 3006poe    c2314469   2.542   2.068   5.183  0.0966  1.1543 -0.1193
 3006poe    c2314470   2.400   2.122   5.209 -0.2044  0.1775  0.2903
 3006poe     o214471   2.378   2.227   5.118  0.6736  0.2453  0.1470
 3006poe    c3114472   2.268   2.305   5.159  0.3442 -0.2201  0.1524
 3007poe    c3114473   4.104   5.166   2.264  0.1803  0.0612  0.2546
 3007poe     o214474   4.068   5.109   2.387 -0.3514  0.1255  0.1302
 3007poe    c2314475   4.162   5.013   2.430  0.9170  1.0847 -0.4549
 3007poe    c2314476   4.165   5.012   2.584 -0.2821  0.2895 -0.4232
 3007poe     o214477   4.058   4.950   2.652 -0.0012  0.1742 -0.0798
 3007poe    c2314478   4.028   4.987   2.784 -0.2546  0.0057 -0.0892
 3007poe    c2314479   3.902   4.921   2.844 -0.3216 -0.0010 -0.2369
 3007poe     o214480   3.772   4.955   2.803 -0.2435 -0.0958 -0.5677
 3007poe    c2314481   3.731   5.087   2.832  0.0070 -0.2045  0.3101
 3007poe    c2314482   3.592   5.123   2.775 -0.0259 -0.5703  0.1568
 3007poe     o214483   3.580   5.130   2.635 -0.5464  0.1175  0.2343
 3007poe    c3114484   3.475   5.216   2.597 -0.2035  0.1013 -0.7971
 3008poe    c3114485   6.576   7.044   6.089  0.2826  0.1959  0.2337
 3008poe     o214486   6.620   6.953   5.991 -0.5475  0.4955 -0.4390
 3008poe    c2314487   6.541   6.837   6.003  0.2562 -0.0340 -0.1760
 3008poe    c2314488   6.516   6.774   5.864  0.1797  0.4121 -0.3645
 3008poe     o214489   6.642   6.746   5.808  0.2066 -0.1964 -0.0127
 3008poe    c2314490   6.604   6.703   5.679 -0.2359  0.8141 -0.2315
 3008poe    c2314491   6.701   6.649   5.573 -0.0242 -0.2614  0.4990
 3008poe     o214492   6.616   6.594   5.475  0.1878  0.6828 -0.2279
 3008poe    c2314493   6.666   6.490   5.395 -0.9095 -0.3943  0.4545
 3008poe    c2314494   6.564   6.453   5.285 -0.2096 -0.7985 -0.0675
 3008poe     o214495   6.622   6.429   5.159 -0.5851  0.3076 -0.4662
 3008poe    c3114496   6.542   6.429   5.043 -0.7935  0.0005 -0.3236
 3009poe    c3114497   5.378   3.776   1.388 -0.5537 -0.6325  0.5618
 3009poe     o214498   5.424   3.828   1.511 -0.4063  0.1657  0.1705
 3009poe    c2314499   5.565   3.831   1.509 -0.4067  0.0411 -0.3275
 3009poe    c2314500   5.625   3.943   1.596 -0.3207 -0.1349 -0.1589
 3009poe     o214501   5.638   3.910   1.733  0.1629  0.3450 -0.0849
 3009poe    c2314502   5.768   3.924   1.786 -0.2342  0.5076  0.8584
 3009poe    c2314503   5.784   3.797   1.872  0.1925  0.0689  0.1467
 3009poe     o214504   5.661   3.779   1.939  0.1746 -0.2302  0.0342
 3009poe    c2314505   5.678   3.681   2.040  0.5353  0.3458  0.5393
 3009poe    c2314506   5.538   3.652   2.097  0.2621  0.0384 -0.2704
 3009poe     o214507   5.445   3.633   1.993 -0.2571  0.3432  0.1334
 3009poe    c3114508   5.346   3.547   2.045  0.0496 -0.1436 -0.0832
 3010poe    c3114509   1.326   1.171   6.033  1.1190  0.4132 -0.4086
 3010poe     o214510   1.240   1.269   5.979  0.0124 -0.0125  0.5263
 3010poe    c2314511   1.106   1.233   6.000 -0.1020  0.2287  0.2062
 3010poe    c2314512   1.050   1.124   5.908  0.6113 -0.4583  0.5776
 3010poe     o214513   1.054   1.157   5.771  0.1387  0.0220  0.6763
 3010poe    c2314514   0.933   1.167   5.698  0.5895 -0.0893 -0.1003
 3010poe    c2314515   0.938   1.227   5.556  0.3222 -0.6217 -0.3342
 3010poe     o214516   1.013   1.158   5.459  0.4931 -0.3787 -0.3730
 3010poe    c2314517   1.020   1.243   5.346  0.1296  0.4663  0.2350
 3010poe    c2314518   1.092   1.164   5.236  0.2820 -0.5352  1.0379
 3010poe     o214519   1.007   1.080   5.162  0.3328  0.1346  0.2022
 3010poe    c3114520   1.058   1.046   5.035  0.1954  0.4074  0.0719
 3011poe    c3114521   2.838   2.076   7.221  0.0785 -0.7446  0.2401
 3011poe     o214522   2.852   1.941   7.180  0.0935 -0.5085 -0.5439
 3011poe    c2314523   2.970   1.877   7.221  0.1116 -0.0686  0.1088
 3011poe    c2314524   3.019   1.776   7.116 -0.2801 -0.2944  0.1425
 3011poe     o214525   2.955   1.651   7.122 -0.7397 -0.0403  0.6436
 3011poe    c2314526   2.989   1.587   7.001 -0.3059  0.0281  0.7273
 3011poe    c2314527   2.941   1.441   6.995  0.4478 -0.2013  0.1279
 3011poe     o214528   2.804   1.454   7.025  0.4721  0.2501  0.0444
 3011poe    c2314529   2.727   1.337   7.012 -0.2555  0.6693  0.5222
 3011poe    c2314530   2.582   1.385   7.035 -0.5736 -0.0153  0.0046
 3011poe     o214531   2.584   1.474   7.145  0.7919 -0.1556  0.1179
 3011poe    c3114532   2.452   1.520   7.165  0.7259  0.0319 -0.7125
 3012poe    c3114533   1.451   1.810   3.279  0.1746  0.5792 -0.9588
 3012poe     o214534   1.333   1.872   3.326  0.2930 -0.0582  0.2270
 3012poe    c2314535   1.227   1.782   3.345 -0.1245  0.4227  0.1959
 3012poe    c2314536   1.109   1.855   3.413 -0.0300  0.1544  0.6548
 3012poe     o214537   1.026   1.931   3.328  0.1820 -0.2008  0.1245
 3012poe    c2314538   0.930   2.005   3.399 -0.3374 -0.6059 -0.1433
 3012poe    c2314539   0.886   2.119   3.305  0.3855 -0.0473  0.1770
 3012poe     o214540   0.774   2.076   3.230  0.4151  0.0361  0.0855
 3012poe    c2314541   0.770   2.140   3.104 -0.2526 -0.1879 -0.0101
 3012poe    c2314542   0.795   2.059   2.976 -0.4090 -0.4192  0.1057
 3012poe     o214543   0.933   2.034   2.963 -0.4004 -0.3078 -0.0227
 3012poe    c3114544   0.964   1.943   2.859  0.1408  0.0699 -0.1978
 3013poe    c3114545   4.130   6.056   5.661  0.3246 -0.2649  0.1089
 3013poe     o214546   4.056   5.939   5.688  0.1789 -0.0178  0.8233
 3013poe    c2314547   4.005   5.927   5.818 -0.4747 -0.2331  0.5521
 3013poe    c2314548   4.106   5.915   5.934  0.4433 -0.4610 -0.2572
 3013poe     o214549   4.181   6.033   5.949 -0.3866  0.0289  0.1274
 3013poe    c2314550   4.302   6.017   6.020 -0.0992  0.3276 -0.2893
 3013poe    c2314551   4.363   6.155   6.053  0.5083  0.0525 -0.2511
 3013poe     o214552   4.459   6.155   6.156  0.2622  0.4952 -0.0236
 3013poe    c2314553   4.520   6.281   6.172  0.6096  0.2921  0.2687
 3013poe    c2314554   4.651   6.292   6.252  0.9745 -0.0972 -0.2725
 3013poe     o214555   4.640   6.293   6.392 -0.5256  0.1934 -0.3745
 3013poe    c3114556   4.737   6.228   6.471 -0.5533  0.3886 -0.1801
 3014poe    c3114557   5.872   3.648   5.699 -0.4012  0.2370  0.4793
 3014poe     o214558   5.837   3.618   5.832 -0.2567  0.2305  0.5162
 3014poe    c2314559   5.948   3.558   5.895 -0.0350 -0.3760 -0.4327
 3014poe    c2314560   5.916   3.543   6.045 -0.0642  0.7807 -0.3190
 3014poe     o214561   5.780   3.515   6.065  0.0426  0.6705  0.2584
 3014poe    c2314562   5.740   3.533   6.199  0.1820  0.1232  0.3791
 3014poe    c2314563   5.596   3.478   6.201  0.1866  0.1019  0.2098
 3014poe     o214564   5.513   3.554   6.117  0.5260  0.6319  0.3453
 3014poe    c2314565   5.377   3.519   6.134  0.7589 -0.3190  0.2874
 3014poe    c2314566   5.301   3.641   6.078  0.7237 -0.2603  0.4633
 3014poe     o214567   5.309   3.660   5.938 -0.1895  0.5508  0.5159
 3014poe    c3114568   5.237   3.777   5.908 -0.2612  0.4228  0.1922
 3015poe    c3114569   2.753   6.290   2.630 -0.3093 -0.1165  0.5604
 3015poe     o214570   2.736   6.374   2.742 -0.0855  0.2453  0.3256
 3015poe    c2314571   2.829   6.339   2.843 -0.1287 -0.3093  0.1793
 3015poe    c2314572   2.804   6.441   2.955 -0.3792 -0.1266 -0.0412
 3015poe     o214573   2.665   6.463   2.958 -0.3869 -0.0670 -0.6701
 3015poe    c2314574   2.641   6.563   3.055 -0.1133 -0.5073 -0.1438
 3015poe    c2314575   2.509   6.639   3.036 -0.2298 -0.5770  0.3707
 3015poe     o214576   2.472   6.657   2.901  0.0645  0.2851  0.4050
 3015poe    c2314577   2.349   6.723   2.882 -0.0241  0.0632  0.2060
 3015poe    c2314578   2.353   6.856   2.803  0.1817 -0.1778 -0.1898
 3015poe     o214579   2.394   6.855   2.668 -0.4283  0.2541 -0.3808
 3015poe    c3114580   2.411   6.982   2.609  0.7181  0.2771 -0.0084
 3016poe    c3114581   1.230   3.730   5.749 -0.0149 -0.0684  0.2098
 3016poe     o214582   1.349   3.668   5.705 -0.3297 -0.3230 -0.2908
 3016poe    c2314583   1.344   3.636   5.568 -0.4397  0.3097 -0.4398
 3016poe    c2314584   1.483   3.586   5.524 -0.5543 -0.2822 -0.1503
 3016poe     o214585   1.500   3.454   5.569  0.2132 -0.0438  0.2813
 3016poe    c2314586   1.620   3.402   5.515 -0.2475 -0.2274 -0.5811
 3016poe    c2314587   1.659   3.323   5.641  0.2864 -0.1538 -0.6963
 3016poe     o214588   1.556   3.242   5.695  0.3421  0.3730  0.2126
 3016poe    c2314589   1.602   3.168   5.806  0.0391 -0.0151  0.0818
 3016poe    c2314590   1.632   3.246   5.936 -0.1588 -0.2288  0.2552
 3016poe     o214591   1.524   3.326   5.977 -0.1804 -0.1799  0.1020
 3016poe    c3114592   1.538   3.375   6.109  0.1347  0.1004 -0.0320
 3017poe    c3114593   0.248   1.079   1.821 -0.8279  0.0407  0.0044
 3017poe     o214594   0.307   1.015   1.710 -0.4696  0.2234  0.0913
 3017poe    c2314595   0.407   0.927   1.757  0.2030  0.5795 -0.6485
 3017poe    c2314596   0.458   0.834   1.646 -0.0522 -0.3611  0.0176
 3017poe     o214597   0.513   0.903   1.537 -0.2348 -0.1233  0.0757
 3017poe    c2314598   0.604   0.814   1.476 -0.1313  0.0694 -0.0513
 3017poe    c2314599   0.677   0.874   1.354 -0.3618 -0.5248 -0.4814
 3017poe     o214600   0.763   0.983   1.378 -0.6149 -0.3212 -0.5002
 3017poe    c2314601   0.859   0.979   1.276  0.0010  0.0295  0.0566
 3017poe    c2314602   0.938   1.111   1.277 -0.3839  0.2676 -0.4559
 3017poe     o214603   0.854   1.221   1.253 -0.2117  0.5410  0.1755
 3017poe    c3114604   0.924   1.341   1.280  0.7059  0.1369 -0.3475
 3018poe    c3114605   1.343   0.264   1.731 -0.3767 -0.1352 -0.0023
 3018poe     o214606   1.332   0.401   1.762  0.0896 -0.0289 -0.3003
 3018poe    c2314607   1.222   0.414   1.849  0.1368  0.4999 -0.3141
 3018poe    c2314608   1.131   0.538   1.850 -0.0342  0.3742 -0.2796
 3018poe     o214609   1.192   0.649   1.911  0.6590  0.1300 -0.5224
 3018poe    c2314610   1.117   0.767   1.895 -0.0541 -0.2185  0.1490
 3018poe    c2314611   1.178   0.903   1.936 -0.0647  0.0977 -0.8502
 3018poe     o214612   1.311   0.915   1.892  0.0425 -0.1306 -0.5878
 3018poe    c2314613   1.326   0.989   1.774  0.2313  0.1102 -0.4144
 3018poe    c2314614   1.473   1.022   1.742  0.4609 -0.2016  0.3135
 3018poe     o214615   1.558   1.087   1.835  0.3133  0.2070  0.1637
 3018poe    c3114616   1.549   1.227   1.822  0.6942  0.1427 -0.8968
 3019poe    c3114617   5.485   7.282   3.281 -0.2960  0.2161 -0.3537
 3019poe     o214618   5.400   7.327   3.384  0.1790 -0.5907  0.4091
 3019poe    c2314619   5.276   7.268   3.418 -0.3795  0.3784  0.0718
 3019poe    c2314620   5.277   7.143   3.507 -0.2461  0.4810  0.2157
 3019poe     o214621   5.315   7.172   3.640 -0.3401  0.1706  0.3117
 3019poe    c2314622   5.342   7.052   3.709 -0.2936 -0.0083 -0.0113
 3019poe    c2314623   5.430   7.087   3.831 -0.4977 -0.0343  0.1446
 3019poe     o214624   5.371   7.145   3.945  0.3908  0.0017  0.5939
 3019poe    c2314625   5.464   7.167   4.048  0.4292  0.0513  0.5479
 3019poe    c2314626   5.413   7.140   4.191 -0.2616 -0.2609  0.2452
 3019poe     o214627   5.390   7.006   4.229 -0.0634 -0.2194  0.5118
 3019poe    c3114628   5.265   6.964   4.178 -0.1648  0.3484  0.2788
 3020poe    c3114629   2.003   5.160   1.170  0.1175  0.3494 -0.1580
 3020poe     o214630   2.096   5.083   1.242 -0.1663  0.1586  0.0047
 3020poe    c2314631   2.215   5.077   1.165 -0.0569  0.0714  0.1794
 3020poe    c2314632   2.318   5.003   1.251 -0.1599 -0.0331  0.2138
 3020poe     o214633   2.310   5.057   1.382  0.0403 -0.2736  0.3271
 3020poe    c2314634   2.421   5.017   1.459  0.5015  0.2526 -0.0607
 3020poe    c2314635   2.396   5.001   1.610  0.5940 -0.6838 -0.1394
 3020poe     o214636   2.291   4.907   1.617 -0.1612  0.1357 -0.3216
 3020poe    c2314637   2.225   4.883   1.739 -0.3658  0.4810 -0.3627
 3020poe    c2314638   2.135   4.759   1.722  0.4494 -0.2634  0.6577
 3020poe     o214639   2.006   4.795   1.680  0.7520 -0.5302 -0.5316
 3020poe    c3114640   1.904   4.742   1.762  0.8003  0.1208 -0.0425
 3021poe    c3114641   4.600   5.670   3.779  0.2819  0.3136 -0.3219
 3021poe     o214642   4.734   5.709   3.795  0.1412  0.5217  0.3758
 3021poe    c2314643   4.816   5.598   3.825 -0.4392  0.0057  0.0735
 3021poe    c2314644   4.960   5.647   3.803 -0.3584 -0.4771 -0.4768
 3021poe     o214645   4.976   5.667   3.664  0.5859  0.4535 -0.2497
 3021poe    c2314646   5.090   5.747   3.639  0.6864  0.4007  0.0461
 3021poe    c2314647   5.061   5.872   3.555  0.1347 -0.0564 -0.4520
 3021poe     o214648   5.018   5.866   3.420 -0.4400 -0.0451 -0.2733
 3021poe    c2314649   5.115   5.838   3.322 -0.2441 -0.0246 -0.0873
 3021poe    c2314650   5.231   5.939   3.312 -0.1751 -0.0449  0.4769
 3021poe     o214651   5.194   6.072   3.286  0.3826  0.0749  0.2797
 3021poe    c3114652   5.304   6.150   3.246  0.0854  0.1797 -0.3429
 3022poe    c3114653   5.445   0.861   0.202 -0.0288 -0.0078 -0.1935
 3022poe     o214654   5.388   0.778   0.103 -0.5088 -0.4101  0.4214
 3022poe    c2314655   5.349   0.851  -0.011 -0.4447  0.2248  0.8016
 3022poe    c2314656   5.339   0.766  -0.139 -0.3529  0.4900  0.6175
 3022poe     o214657   5.251   0.658  -0.120  0.1075 -0.0561 -0.3119
 3022poe    c2314658   5.318   0.535  -0.136  0.1055 -0.1879  0.6323
 3022poe    c2314659   5.234   0.410  -0.100 -0.2968 -0.0652  0.1352
 3022poe     o214660   5.235   0.392   0.039 -0.2105  0.5063  0.2144
 3022poe    c2314661   5.134   0.305   0.087 -0.0130  0.0343 -0.2157
 3022poe    c2314662   4.997   0.369   0.119  0.0526  0.0038  0.1317
 3022poe     o214663   4.924   0.442   0.023 -0.1088  0.0586  0.2975
 3022poe    c3114664   4.854   0.356  -0.063  0.5722 -0.2362  0.0324
 3023poe    c3114665   6.552   6.560   6.971  0.0371  0.6079  0.5195
 3023poe     o214666   6.550   6.444   7.051  0.0061  0.2673  0.0322
 3023poe    c2314667   6.545   6.465   7.190  0.4414 -0.1467  0.1126
 3023poe    c2314668   6.473   6.336   7.232 -0.9065  0.3445 -0.6404
 3023poe     o214669   6.548   6.223   7.193  0.1421  0.6576  0.3961
 3023poe    c2314670   6.586   6.137   7.298 -0.2617 -0.1644 -0.1178
 3023poe    c2314671   6.617   5.998   7.239 -0.1251  0.2111 -0.9460
 3023poe     o214672   6.500   5.926   7.208 -0.2572 -0.2971  0.6801
 3023poe    c2314673   6.529   5.809   7.136  0.3220  0.2224  0.0610
 3023poe    c2314674   6.403   5.748   7.070  0.3829  0.0596  0.0932
 3023poe     o214675   6.361   5.864   7.002 -0.6562 -0.1015  0.4461
 3023poe    c3114676   6.288   5.806   6.895  0.1353 -0.3201  0.0135
 3024poe    c3114677   3.976   0.753   1.431 -0.1350  0.4098 -0.2174
 3024poe     o214678   3.839   0.770   1.458 -0.1720 -0.5357  0.1956
 3024poe    c2314679   3.796   0.650   1.518 -0.3997 -0.1313  0.8535
 3024poe    c2314680   3.645   0.619   1.510 -0.3191 -0.2790 -0.2438
 3024poe     o214681   3.588   0.581   1.387 -0.2373 -0.4559 -0.2281
 3024poe    c2314682   3.453   0.541   1.398 -0.4390  0.1907 -0.2778
 3024poe    c2314683   3.408   0.483   1.263  0.1015 -0.5256 -0.1576
 3024poe     o214684   3.405   0.586   1.167  0.6695 -0.4021 -0.0448
 3024poe    c2314685   3.380   0.536   1.038 -0.0043 -0.3760  0.0720
 3024poe    c2314686   3.346   0.648   0.938  0.4687 -0.0348  0.2880
 3024poe     o214687   3.439   0.747   0.900  0.2724  0.0574  0.0434
 3024poe    c3114688   3.381   0.847   0.820  0.1232 -0.0950 -0.0373
 3025poe    c3114689   0.991   1.775   4.593 -0.0397 -0.4040  0.0140
 3025poe     o214690   0.994   1.638   4.561 -0.4735 -0.4116 -0.0008
 3025poe    c2314691   0.953   1.561   4.672 -0.4288  0.0421  0.3312
 3025poe    c2314692   0.919   1.413   4.650  0.7788 -0.2224  0.1932
 3025poe     o214693   1.038   1.348   4.610  0.3692 -0.8690  0.0058
 3025poe    c2314694   1.030   1.208   4.623  0.3734 -0.8223  0.5099
 3025poe    c2314695   1.166   1.148   4.583  0.7729  0.2393  0.2335
 3025poe     o214696   1.192   1.209   4.459 -0.5616 -0.5285 -0.4533
 3025poe    c2314697   1.322   1.167   4.425 -0.2527  0.0497 -0.0055
 3025poe    c2314698   1.361   1.217   4.285 -0.4750 -0.1923 -0.1573
 3025poe     o214699   1.359   1.358   4.278  0.1921 -0.1917 -0.4636
 3025poe    c3114700   1.393   1.378   4.143  0.6098  0.2626 -0.2927
 3026poe    c3114701   4.908   2.896   5.854  0.1775  0.7149  0.0206
 3026poe     o214702   4.862   2.780   5.920  0.2632  0.4624 -0.3652
 3026poe    c2314703   4.854   2.808   6.058 -0.5848  0.6535 -0.4451
 3026poe    c2314704   4.787   2.697   6.140  0.2016  0.3497 -0.2041
 3026poe     o214705   4.673   2.641   6.078 -0.0693  0.1232  0.4890
 3026poe    c2314706   4.602   2.552   6.161 -0.5341  0.0491  0.0140
 3026poe    c2314707   4.620   2.401   6.136  0.4932  0.2165 -0.3043
 3026poe     o214708   4.547   2.361   6.022 -0.3109 -0.2184  0.3503
 3026poe    c2314709   4.561   2.222   6.004 -0.0017 -0.1331 -0.0882
 3026poe    c2314710   4.470   2.178   5.888 -1.0490  0.6138  0.4361
 3026poe     o214711   4.439   2.271   5.787  0.2972  0.0284 -0.5439
 3026poe    c3114712   4.325   2.225   5.718  0.4631 -1.1813 -0.0209
 3027poe    c3114713   3.030   0.525   0.179 -0.6272 -0.0290 -0.2592
 3027poe     o214714   3.046   0.402   0.113  0.5683  0.1204 -0.2660
 3027poe    c2314715   3.114   0.412  -0.010  0.3345  0.3430 -0.3784
 3027poe    c2314716   3.110   0.291  -0.106 -0.4749 -0.0376  0.1316
 3027poe     o214717   3.152   0.173  -0.042 -0.1519 -0.5217 -0.9522
 3027poe    c2314718   3.041   0.095  -0.004  0.0092  0.1488  1.0463
 3027poe    c2314719   3.076  -0.055  -0.006 -0.3624  0.0616 -0.5384
 3027poe     o214720   3.081  -0.113  -0.134  0.2200 -0.0217 -0.4783
 3027poe    c2314721   3.135  -0.243  -0.119  0.0427 -0.0495 -0.0693
 3027poe    c2314722   3.139  -0.340  -0.239 -0.0953 -0.2779  0.1100
 3027poe     o214723   3.019  -0.399  -0.285 -0.1731  0.3200 -0.4737
 3027poe    c3114724   3.027  -0.424  -0.423 -0.4068 -0.3097 -0.3734
 3028poe    c3114725   4.852   7.031   2.818 -0.4296 -0.4162  0.2153
 3028poe     o214726   4.939   7.004   2.925 -0.0102 -0.0649 -0.0362
 3028poe    c2314727   4.968   7.116   3.006 -0.6152 -0.2858  0.4918
 3028poe    c2314728   5.096   7.091   3.087  0.1875 -0.6396 -0.8664
 3028poe     o214729   5.089   6.958   3.133 -0.0119 -0.2742  0.1671
 3028poe    c2314730   5.191   6.941   3.230  0.3882 -0.4109 -0.2777
 3028poe    c2314731   5.199   6.798   3.288  0.4073 -0.2670  0.0743
 3028poe     o214732   5.228   6.708   3.183 -0.2048 -0.0568 -0.2815
 3028poe    c2314733   5.216   6.576   3.230  0.4058  0.0217  0.1060
 3028poe    c2314734   5.298   6.488   3.134  0.2913  0.3639 -0.3058
 3028poe     o214735   5.235   6.463   3.010 -0.0759 -0.7697  0.0950
 3028poe    c3114736   5.135   6.365   3.020 -0.5706 -0.2658  0.1245
 3029poe    c3114737   6.633   3.606   3.036 -0.1116 -0.1839 -0.3785
 3029poe     o214738   6.624   3.743   3.066 -0.2419 -0.1908 -0.3878
 3029poe    c2314739   6.733   3.814   3.012 -0.1577 -0.1850 -0.2072
 3029poe    c2314740   6.830   3.887   3.107 -0.1367  0.0194 -0.3858
 3029poe     o214741   6.760   3.989   3.175 -0.0118  0.1076 -0.3906
 3029poe    c2314742   6.873   4.064   3.214  0.3146 -0.2768 -0.5880
 3029poe    c2314743   6.846   4.210   3.173 -0.4891 -0.1923  0.2173
 3029poe     o214744   6.885   4.242   3.042 -0.1518 -0.7895  0.1713
 3029poe    c2314745   6.801   4.335   2.977  0.3512 -0.1216  0.4608
 3029poe    c2314746   6.873   4.435   2.886 -0.4076 -0.0273 -0.0430
 3029poe     o214747   6.920   4.362   2.775  0.0091 -0.1966  0.2426
 3029poe    c3114748   6.988   4.457   2.696  0.2257 -0.2661  0.3441
 3030poe    c3114749   4.692   3.140   6.111  0.5789 -0.0655  0.1267
 3030poe     o214750   4.607   3.199   6.207  0.4229  0.1913 -0.1675
 3030poe    c2314751   4.675   3.311   6.258  0.1921  0.0104  0.5499
 3030poe    c2314752   4.581   3.395   6.347  0.2765  1.0467 -0.3231
 3030poe     o214753   4.461   3.393   6.273  0.1908  0.2874 -0.1701
 3030poe    c2314754   4.359   3.453   6.350  0.4922  0.9247 -0.2542
 3030poe    c2314755   4.234   3.445   6.260  0.0040  0.4869  0.4545
 3030poe     o214756   4.235   3.320   6.195  0.2230  0.7007  0.0453
 3030poe    c2314757   4.117   3.282   6.127  0.1681 -0.2301  0.6444
 3030poe    c2314758   4.024   3.199   6.218 -0.7330  0.8624  0.7379
 3030poe     o214759   4.093   3.079   6.242 -0.1105  1.0724  0.0064
 3030poe    c3114760   4.019   3.003   6.334  0.2113 -0.1057 -0.6781
 3031poe    c3114761   0.154   3.497   3.320  0.3749 -0.5876  0.4055
 3031poe     o214762   0.260   3.583   3.287 -0.3237  0.2613  0.3327
 3031poe    c2314763   0.266   3.615   3.150 -0.1923  0.2591  0.3379
 3031poe    c2314764   0.363   3.731   3.122  0.2887 -0.1909  0.1197
 3031poe     o214765   0.493   3.686   3.153  0.2879 -0.1912  0.1228
 3031poe    c2314766   0.577   3.758   3.064  0.1626 -0.2782 -0.0662
 3031poe    c2314767   0.726   3.721   3.077  0.1358 -0.2270  0.3893
 3031poe     o214768   0.794   3.755   3.196  0.2778  0.0041  0.2438
 3031poe    c2314769   0.920   3.693   3.186  0.1855 -0.1949  0.3119
 3031poe    c2314770   0.992   3.679   3.321  0.8470 -0.1219 -0.0294
 3031poe     o214771   1.038   3.794   3.389  0.0380  0.2008 -0.0061
 3031poe    c3114772   1.077   3.782   3.524 -0.2740  0.5230  0.1131
 3032poe    c3114773   0.259   0.778   2.428 -0.1881  0.3694  0.3679
 3032poe     o214774   0.347   0.783   2.537  0.0203  0.9874  0.1750
 3032poe    c2314775   0.476   0.802   2.483  0.1901  0.4142  0.3770
 3032poe    c2314776   0.586   0.820   2.589  0.1509 -0.0595  0.5025
 3032poe     o214777   0.616   0.718   2.681 -0.2201 -0.4693  0.1687
 3032poe    c2314778   0.736   0.745   2.750 -0.2671  0.3178 -0.0482
 3032poe    c2314779   0.754   0.648   2.869 -0.0054  0.2321 -0.1553
 3032poe     o214780   0.630   0.649   2.937  0.1014  0.4727  0.0355
 3032poe    c2314781   0.623   0.560   3.045 -0.5453 -0.1977 -0.5468
 3032poe    c2314782   0.477   0.546   3.091 -0.3524 -0.2324  0.0621
 3032poe     o214783   0.414   0.508   2.971 -0.2403  0.2071 -0.1363
 3032poe    c3114784   0.280   0.469   2.991 -0.0398 -0.3810  0.0685
 3033poe    c3114785   0.967   6.302   3.631  0.8977 -0.1792  0.1634
 3033poe     o214786   0.827   6.292   3.616  0.9001  0.5088 -0.3601
 3033poe    c2314787   0.749   6.327   3.728  0.2167  0.4678 -0.8198
 3033poe    c2314788   0.633   6.227   3.746  0.5182  0.2107 -0.2700
 3033poe     o214789   0.539   6.232   3.641 -0.5360 -0.1997  0.6350
 3033poe    c2314790   0.437   6.135   3.644 -0.6044 -0.1446  0.2164
 3033poe    c2314791   0.342   6.152   3.524  0.0324 -0.1180 -0.2863
 3033poe     o214792   0.414   6.152   3.402 -0.1051 -0.7822 -0.3683
 3033poe    c2314793   0.316   6.168   3.302 -0.7537  1.0948  0.5276
 3033poe    c2314794   0.381   6.178   3.163  0.5242 -0.6035  0.9771
 3033poe     o214795   0.491   6.263   3.188  0.4345 -0.1328 -0.1705
 3033poe    c3114796   0.574   6.280   3.076  0.8316  0.1151  0.1562
 3034poe    c3114797   0.551   3.028   1.108 -0.1410  0.2550  0.8998
 3034poe     o214798   0.664   2.945   1.103 -0.2835  0.1142 -0.3322
 3034poe    c2314799   0.723   2.949   1.232  0.4786  0.2179 -0.6766
 3034poe    c2314800   0.839   2.850   1.245  0.1341 -0.1367 -0.2989
 3034poe     o214801   0.865   2.829   1.382  0.5723  0.2039 -0.3262
 3034poe    c2314802   0.967   2.733   1.400  0.3266 -0.0508 -0.2853
 3034poe    c2314803   0.948   2.643   1.523 -0.0626  0.3827 -0.0272
 3034poe     o214804   0.836   2.558   1.536  0.3296 -0.1133  0.1286
 3034poe    c2314805   0.845   2.475   1.650  0.1999 -0.8380 -0.3770
 3034poe    c2314806   0.707   2.419   1.686 -0.1295  0.2220  0.0660
 3034poe     o214807   0.661   2.326   1.590 -0.1848  0.4540 -0.1333
 3034poe    c3114808   0.533   2.289   1.636 -0.3759  0.6233 -0.5292
 3035poe    c3114809   1.177   4.351   2.867  0.1513  0.7724 -0.4228
 3035poe     o214810   1.114   4.324   2.743 -0.8845 -0.1725  0.2841
 3035poe    c2314811   0.982   4.372   2.736 -0.8873 -0.2102  0.0979
 3035poe    c2314812   0.945   4.379   2.586  0.5889  0.1213 -0.2621
 3035poe     o214813   0.978   4.503   2.527  0.0450  0.3591 -0.0643
 3035poe    c2314814   0.871   4.551   2.448 -0.2546  0.1714  0.2198
 3035poe    c2314815   0.885   4.518   2.298 -0.1033  0.6904  0.1146
 3035poe     o214816   1.009   4.549   2.240  0.2704  0.0104  0.5435
 3035poe    c2314817   1.026   4.681   2.193  0.2220 -0.2905 -0.3352
 3035poe    c2314818   1.170   4.720   2.157  0.2549 -0.0663  0.0383
 3035poe     o214819   1.251   4.696   2.270  0.0695 -1.0284 -0.0272
 3035poe    c3114820   1.364   4.781   2.275 -0.3675 -0.4446 -0.0154
 3036poe    c3114821   5.866   0.436   6.699 -0.3546 -0.3003  0.6091
 3036poe     o214822   5.818   0.357   6.593  0.5408  0.2999 -0.2547
 3036poe    c2314823   5.917   0.259   6.571  0.5075  0.2781 -0.3087
 3036poe    c2314824   5.929   0.200   6.429  0.1125 -0.3793 -0.0715
 3036poe     o214825   5.959   0.063   6.437 -0.1709 -0.4492 -0.1872
 3036poe    c2314826   5.997   0.029   6.305 -0.1276  0.1380 -0.3254
 3036poe    c2314827   6.107  -0.078   6.313 -0.3040 -0.0462 -0.3421
 3036poe     o214828   6.045  -0.197   6.355 -0.4265  0.2279  0.2702
 3036poe    c2314829   6.145  -0.294   6.375 -0.6914 -0.0117  0.4482
 3036poe    c2314830   6.086  -0.418   6.445 -0.8698  0.1436  0.5734
 3036poe     o214831   6.039  -0.391   6.575 -0.0900  0.2331  0.8453
 3036poe    c3114832   5.903  -0.426   6.595 -0.0740 -0.2627  0.1326
 3037poe    c3114833   2.711   7.253   3.021  0.0486 -0.2576 -0.7119
 3037poe     o214834   2.694   7.393   3.024 -0.1207 -0.2883 -0.1833
 3037poe    c2314835   2.599   7.445   2.933 -0.1322 -0.3067 -0.1820
 3037poe    c2314836   2.573   7.596   2.920 -0.3707 -0.3660 -0.3978
 3037poe     o214837   2.652   7.639   2.811  0.2966  0.2279  0.3040
 3037poe    c2314838   2.642   7.779   2.807  0.1306  0.1995 -0.3835
 3037poe    c2314839   2.766   7.839   2.739  0.6872 -0.3022  0.1733
 3037poe     o214840   2.793   7.801   2.605 -0.0209 -0.2420  0.0107
 3037poe    c2314841   2.823   7.666   2.578  0.7989 -0.0273 -0.1697
 3037poe    c2314842   2.883   7.654   2.437  0.0384 -0.5411 -0.4563
 3037poe     o214843   2.782   7.666   2.339 -0.3341  0.2562  0.0218
 3037poe    c3114844   2.823   7.591   2.227  0.0927 -0.5419  0.7022
 3038poe    c3114845   2.510   5.208   7.159  0.4574  0.0115  0.0303
 3038poe     o214846   2.489   5.101   7.069 -0.1840 -0.1211  0.3301
 3038poe    c2314847   2.585   5.114   6.966 -0.3159 -0.1426  0.2044
 3038poe    c2314848   2.594   4.985   6.884 -0.2370 -0.1317  0.1966
 3038poe     o214849   2.462   4.935   6.880 -0.0565 -0.6690  0.8489
 3038poe    c2314850   2.445   4.799   6.849 -0.2546 -0.4158 -0.1656
 3038poe    c2314851   2.368   4.735   6.966 -0.8138 -0.3557 -0.4934
 3038poe     o214852   2.269   4.831   6.994 -0.0561  0.2878  0.0459
 3038poe    c2314853   2.184   4.795   7.101  0.1970  0.7941  0.4179
 3038poe    c2314854   2.078   4.904   7.127 -0.3556  0.3044  0.2298
 3038poe     o214855   2.154   5.023   7.135  0.3805 -0.1435  0.0142
 3038poe    c3114856   2.075   5.118   7.203  0.2463 -0.2545  0.0168
 3039poe    c3114857   6.364   5.066   3.683  0.1640 -0.6690 -0.0812
 3039poe     o214858   6.478   5.135   3.636  0.1689 -0.7670 -0.2132
 3039poe    c2314859   6.586   5.047   3.616  0.3219 -0.5929 -0.1566
 3039poe    c2314860   6.661   5.079   3.486 -0.5614  0.4026 -0.4303
 3039poe     o214861   6.706   5.212   3.498 -0.1518  0.2344 -0.0861
 3039poe    c2314862   6.733   5.249   3.365 -0.7496  0.6160 -0.1067
 3039poe    c2314863   6.797   5.389   3.370 -0.1144  0.3399 -0.3105
 3039poe     o214864   6.729   5.476   3.459 -0.3494  0.3277 -0.4758
 3039poe    c2314865   6.800   5.597   3.470 -0.1666  0.1827 -0.0183
 3039poe    c2314866   6.730   5.680   3.580  0.2955  0.1868  0.2746
 3039poe     o214867   6.714   5.589   3.687 -0.0210  0.2441  0.2767
 3039poe    c3114868   6.700   5.665   3.805 -0.2692 -0.4334  0.6894
 3040poe    c3114869   6.202   0.912   1.326  0.2399 -0.4070  0.0773
 3040poe     o214870   6.075   0.871   1.280  0.2413  0.1014 -0.3927
 3040poe    c2314871   5.975   0.870   1.379  0.5642  0.1973 -0.0625
 3040poe    c2314872   5.846   0.820   1.312  0.4648  0.2772  0.0676
 3040poe     o214873   5.845   0.904   1.199  0.1243 -0.0258 -0.1594
 3040poe    c2314874   5.713   0.926   1.153  0.2165  0.0009 -0.4150
 3040poe    c2314875   5.730   0.983   1.012 -0.8047  0.1654 -0.4809
 3040poe     o214876   5.793   0.897   0.920  0.0857 -0.4012  0.6386
 3040poe    c2314877   5.821   0.960   0.797  0.0279 -0.6254  0.5088
 3040poe    c2314878   5.891   0.868   0.695 -0.1693 -0.5476  0.3017
 3040poe     o214879   6.008   0.804   0.740  0.1961 -0.1408 -0.0621
 3040poe    c3114880   6.089   0.761   0.634 -0.1638  0.1580 -0.4608
 3041poe    c3114881   1.202   0.353   6.350 -0.0516 -0.2072 -0.4973
 3041poe     o214882   1.338   0.321   6.369 -0.1653 -0.2238  0.2998
 3041poe    c2314883   1.408   0.290   6.250  0.5443  0.6985  0.4704
 3041poe    c2314884   1.558   0.259   6.256  0.4126  0.0437  0.3736
 3041poe     o214885   1.567   0.143   6.336  0.3017  0.3953  0.8938
 3041poe    c2314886   1.654   0.046   6.283 -0.4859  0.2825 -0.2343
 3041poe    c2314887   1.645  -0.086   6.363  0.3871  0.2950 -0.1030
 3041poe     o214888   1.650  -0.085   6.504  0.4291  0.0029 -0.1029
 3041poe    c2314889   1.583  -0.196   6.559  0.4810  0.0434  0.0424
 3041poe    c2314890   1.632  -0.249   6.695 -0.3916 -0.2068  0.2639
 3041poe     o214891   1.590  -0.155   6.791 -0.5859 -0.1071  0.0805
 3041poe    c3114892   1.659  -0.162   6.913  0.2230  0.7997 -0.3133
 3042poe    c3114893   4.431   5.542   4.107 -0.1807  0.2612  0.0337
 3042poe     o214894   4.524   5.637   4.156  0.4133 -0.3228  0.0595
 3042poe    c2314895   4.561   5.590   4.284 -0.1255  0.0128  0.3454
 3042poe    c2314896   4.672   5.680   4.342 -0.0360 -0.0887  0.3309
 3042poe     o214897   4.657   5.818   4.317  0.3112 -0.0941  0.0843
 3042poe    c2314898   4.557   5.877   4.397  0.3608  0.2749 -0.1245
 3042poe    c2314899   4.538   6.029   4.394 -1.5272  0.0806  0.7086
 3042poe     o214900   4.465   6.071   4.282 -0.0733 -0.0180 -0.3029
 3042poe    c2314901   4.449   6.210   4.260 -0.4434 -0.0032  0.0459
 3042poe    c2314902   4.352   6.240   4.145 -0.6680 -0.1564  0.1949
 3042poe     o214903   4.413   6.201   4.024  0.2588  0.0631  0.5868
 3042poe    c3114904   4.315   6.182   3.924  0.3625  0.3483  0.4301
 3043poe    c3114905   4.135   2.680   6.910  0.1447 -0.0313  0.0344
 3043poe     o214906   4.230   2.780   6.883  0.2252 -0.0200  0.3674
 3043poe    c2314907   4.166   2.905   6.881 -0.2590 -0.2723  0.1949
 3043poe    c2314908   4.248   3.008   6.960 -0.0219 -0.2642 -0.0627
 3043poe     o214909   4.372   3.044   6.902 -0.2003  0.3636 -0.0592
 3043poe    c2314910   4.456   3.071   7.012 -0.3955 -0.0489  0.1968
 3043poe    c2314911   4.591   3.119   6.954 -0.5976  0.0616 -0.1919
 3043poe     o214912   4.649   3.020   6.873  0.1182  0.5570 -0.2965
 3043poe    c2314913   4.784   3.055   6.853  0.0571  0.3631 -1.1004
 3043poe    c2314914   4.845   2.951   6.758 -0.0038 -0.9009  0.2077
 3043poe     o214915   4.749   2.892   6.672 -0.0787  0.3714 -0.6000
 3043poe    c3114916   4.807   2.862   6.548 -0.2346  0.1892 -0.6284
 3044poe    c3114917   6.686   1.374   2.190  0.5988  0.4338 -0.1819
 3044poe     o214918   6.784   1.313   2.108  0.3116 -0.3478  0.0414
 3044poe    c2314919   6.730   1.308   1.978 -0.0241 -0.5157  0.1852
 3044poe    c2314920   6.813   1.210   1.893  0.2124 -0.0076 -0.1776
 3044poe     o214921   6.928   1.274   1.844  0.3642 -0.3309 -0.2457
 3044poe    c2314922   7.020   1.187   1.782  0.5814 -0.2181 -0.0843
 3044poe    c2314923   6.964   1.100   1.668 -0.4400  0.1537  0.1263
 3044poe     o214924   6.953   1.178   1.552  0.2700  0.7068  0.4268
 3044poe    c2314925   6.966   1.117   1.425 -0.0317  0.6502  0.4242
 3044poe    c2314926   6.985   1.229   1.321  0.2209 -0.3430 -0.6116
 3044poe     o214927   7.114   1.284   1.328  0.2886 -0.5677 -0.0420
 3044poe    c3114928   7.161   1.360   1.218  0.0905 -0.4082 -0.0168
 3045poe    c3114929   6.620   2.048   1.565  0.3801  0.0200 -0.0411
 3045poe     o214930   6.670   1.917   1.569 -0.0932 -0.1853 -0.5949
 3045poe    c2314931   6.646   1.851   1.447 -0.4203  0.1043 -0.6871
 3045poe    c2314932   6.684   1.702   1.453  0.5758  0.3721 -0.0384
 3045poe     o214933   6.585   1.627   1.519  0.5024  0.6233  0.1413
 3045poe    c2314934   6.626   1.506   1.579 -0.2090  0.4671  0.3246
 3045poe    c2314935   6.519   1.479   1.686 -0.0471 -0.4399  0.2688
 3045poe     o214936   6.509   1.587   1.777 -0.4472  0.0369 -0.3352
 3045poe    c2314937   6.423   1.571   1.887  0.4891 -1.1281  0.2492
 3045poe    c2314938   6.426   1.682   1.994 -0.5433 -0.1939 -0.6600
 3045poe     o214939   6.373   1.809   1.966 -0.7522 -0.2134 -0.3600
 3045poe    c3114940   6.232   1.820   1.963 -0.7875 -0.2991  0.5893
 3046poe    c3114941   6.852   3.296   6.974 -0.2122  0.7106  0.0077
 3046poe     o214942   6.773   3.386   7.048 -0.4734  0.6996 -0.2550
 3046poe    c2314943   6.793   3.376   7.187  0.1362 -0.0800 -0.3897
 3046poe    c2314944   6.739   3.505   7.253  0.8367 -0.0595  0.1588
 3046poe     o214945   6.798   3.616   7.191  0.0352  0.2900  0.0041
 3046poe    c2314946   6.750   3.741   7.235 -0.2497  0.2431 -0.1717
 3046poe    c2314947   6.844   3.854   7.189  0.2734 -0.0564  0.1569
 3046poe     o214948   6.847   3.876   7.050  0.3435  0.0522  0.1757
 3046poe    c2314949   6.939   3.977   7.013  0.4694 -0.1266  0.0018
 3046poe    c2314950   7.044   3.938   6.907  0.1497 -0.6978 -0.1064
 3046poe     o214951   7.133   3.833   6.936  0.3434 -0.2693  0.8577
 3046poe    c3114952   7.079   3.706   6.965 -0.0305 -0.2606  0.2076
 3047poe    c3114953   5.713   0.842   5.909  0.3904 -0.5702 -0.4001
 3047poe     o214954   5.678   0.914   6.025  0.3076 -0.2875 -0.6016
 3047poe    c2314955   5.651   1.050   5.998  0.0167 -0.1475  0.3742
 3047poe    c2314956   5.506   1.095   6.020  0.0101 -0.0763  0.1824
 3047poe     o214957   5.479   1.120   6.157 -0.9117  0.5948 -0.1112
 3047poe    c2314958   5.478   1.255   6.197 -0.6840  0.8231 -0.8501
 3047poe    c2314959   5.446   1.258   6.348  0.3618 -1.0089 -0.5633
 3047poe     o214960   5.334   1.179   6.379 -0.4227  0.1876 -0.3038
 3047poe    c2314961   5.342   1.134   6.512  0.0795 -0.1023 -0.4315
 3047poe    c2314962   5.251   1.017   6.552  0.5553 -0.0418  0.8737
 3047poe     o214963   5.293   0.896   6.494  0.8287  0.3289  0.2905
 3047poe    c3114964   5.272   0.805   6.600 -0.1363  0.7833  0.5046
 3048poe    c3114965   1.931   5.513   1.459 -0.3221  0.5583  0.9217
 3048poe     o214966   2.063   5.496   1.415 -0.5131  0.3613  0.4206
 3048poe    c2314967   2.149   5.590   1.475  0.3313  0.7737 -1.3845
 3048poe    c2314968   2.268   5.563   1.568 -0.2372  0.9197 -0.6100
 3048poe     o214969   2.379   5.515   1.495 -0.0388  0.3141  0.0763
 3048poe    c2314970   2.505   5.522   1.558  0.1215  0.2740 -0.2385
 3048poe    c2314971   2.611   5.422   1.508  0.4593  0.4315  0.1555
 3048poe     o214972   2.612   5.426   1.367  0.6167  0.1457  0.1477
 3048poe    c2314973   2.712   5.337   1.323 -0.3176 -0.3049 -1.1126
 3048poe    c2314974   2.707   5.332   1.169 -0.7667 -0.4750 -1.0946
 3048poe     o214975   2.670   5.457   1.115 -0.1234  0.1788 -0.0591
 3048poe    c3114976   2.659   5.449   0.975 -0.0411 -0.5706 -0.0251
 3049poe    c3114977   6.231   3.900   4.989  0.1014 -0.1625  0.1630
 3049poe     o214978   6.183   3.768   4.980  0.0652 -0.1799  0.6048
 3049poe    c2314979   6.177   3.723   4.847 -0.4604  0.3811  0.4357
 3049poe    c2314980   6.036   3.719   4.785 -0.1451 -0.0703 -0.2643
 3049poe     o214981   5.984   3.847   4.758  0.1453  0.1410  0.1606
 3049poe    c2314982   5.880   3.888   4.844 -0.0677  0.1416 -0.0949
 3049poe    c2314983   5.771   3.960   4.763  0.3288  0.1742 -0.6073
 3049poe     o214984   5.685   3.869   4.698 -0.1176 -0.2535  0.5414
 3049poe    c2314985   5.569   3.937   4.657  0.5575  0.7038  0.1761
 3049poe    c2314986   5.458   3.845   4.603  0.5937  0.8544 -0.1641
 3049poe     o214987   5.496   3.765   4.493 -0.4410  0.7835 -0.4812
 3049poe    c3114988   5.381   3.712   4.431 -0.4807  0.2615  0.0301
 3050poe    c3114989   6.913   4.600   0.064 -0.4357 -0.2527  0.0820
 3050poe     o214990   6.956   4.502   0.156  0.1481  0.2503  0.3562
 3050poe    c2314991   6.895   4.378   0.126  0.3348  0.2466 -0.0155
 3050poe    c2314992   6.907   4.282   0.246  0.3357 -0.5743 -0.6621
 3050poe     o214993   7.041   4.290   0.288  0.2807 -0.5820 -0.4816
 3050poe    c2314994   7.082   4.190   0.378 -0.4549 -0.5644 -0.1287
 3050poe    c2314995   7.234   4.186   0.402 -0.5563 -0.1495  0.6119
 3050poe     o214996   7.284   4.311   0.446 -0.3974 -0.1166  0.3383
 3050poe    c2314997   7.421   4.319   0.479 -0.4140  0.1304  0.3434
 3050poe    c2314998   7.458   4.451   0.549 -0.6870  0.3583  0.0624
 3050poe     o214999   7.459   4.544   0.443  0.0937 -0.2477 -0.4678
 3050poe    c3115000   7.544   4.652   0.474 -0.1755 -0.2419  0.2479
 3051poe    c3115001   3.452   5.700   2.407 -0.0055 -0.3873  0.4617
 3051poe     o215002   3.387   5.588   2.351 -0.4189  0.1261 -0.0995
 3051poe    c2315003   3.463   5.532   2.246  0.0354 -0.9936  0.8061
 3051poe    c2315004   3.395   5.429   2.154  0.0587 -0.2178 -0.0872
 3051poe     o215005   3.283   5.480   2.085  0.0457 -0.4385 -0.2305
 3051poe    c2315006   3.234   5.398   1.982  0.0824 -0.8395  0.0707
 3051poe    c2315007   3.082   5.422   1.982  0.0990 -0.7263 -0.2087
 3051poe     o215008   3.057   5.560   1.998  0.2647 -0.7748  0.4689
 3051poe    c2315009   2.918   5.575   2.009  0.1524 -0.7878 -0.8338
 3051poe    c2315010   2.844   5.711   2.011  0.1623 -0.7872 -0.3135
 3051poe     o215011   2.889   5.799   2.111 -0.7318 -0.3582 -0.2808
 3051poe    c3115012   2.917   5.926   2.058 -0.4189 -0.1517  0.3638
 3052poe    c3115013   3.864   1.144   4.664 -0.6686  0.4579  0.4871
 3052poe     o215014   3.969   1.090   4.741 -0.2544  0.2247 -0.2227
 3052poe    c2315015   3.936   1.111   4.877 -0.3532 -0.2475 -0.1741
 3052poe    c2315016   4.039   1.023   4.949 -0.0624  0.2322 -0.0049
 3052poe     o215017   4.165   1.046   4.890 -0.2138 -0.2065 -0.4977
 3052poe    c2315018   4.264   0.970   4.956 -0.3813 -0.3104 -0.3659
 3052poe    c2315019   4.386   0.968   4.863  0.1132  0.8916  0.2368
 3052poe     o215020   4.358   0.909   4.738  0.0648  0.8560  0.2643
 3052poe    c2315021   4.475   0.889   4.661 -0.1260 -0.3022  0.2474
 3052poe    c2315022   4.450   0.774   4.563 -0.8561 -0.4795  0.6325
 3052poe     o215023   4.348   0.810   4.472 -0.1449  0.1029  0.0532
 3052poe    c3115024   4.337   0.726   4.360  0.0396 -0.2915  0.3289
 3053poe    c3115025   2.883   7.293   1.178  0.1360 -0.3934 -0.2596
 3053poe     o215026   2.775   7.254   1.259  0.4455 -0.7324 -0.0077
 3053poe    c2315027   2.772   7.299   1.392 -0.0602  0.5849 -0.4495
 3053poe    c2315028   2.626   7.301   1.441  0.0548  0.1911 -0.0789
 3053poe     o215029   2.574   7.415   1.376 -0.5538  0.0247  0.1097
 3053poe    c2315030   2.448   7.456   1.425 -0.9708 -0.6832 -0.3587
 3053poe    c2315031   2.402   7.573   1.336 -0.0965 -0.0501  0.0125
 3053poe     o215032   2.355   7.517   1.215  0.0358 -0.0891 -0.0211
 3053poe    c2315033   2.223   7.559   1.192 -0.0171 -0.0891  0.2754
 3053poe    c2315034   2.146   7.443   1.127 -0.7146  0.5606 -0.0798
 3053poe     o215035   2.167   7.426   0.989  0.2336  0.3678  0.0806
 3053poe    c3115036   2.183   7.539   0.907 -0.4762  0.3494 -0.0948
 3054poe    c3115037   2.190   4.550   0.255 -0.0216  0.4359  0.2351
 3054poe     o215038   2.320   4.580   0.210 -0.1039 -0.1321 -0.3929
 3054poe    c2315039   2.350   4.498   0.099  0.2447 -0.2693 -0.1976
 3054poe    c2315040   2.491   4.537   0.050  0.2863  0.3822  0.4107
 3054poe     o215041   2.508   4.675   0.068 -0.3483  0.5255 -0.0467
 3054poe    c2315042   2.624   4.731   0.010 -0.0398 -0.1288 -0.0629
 3054poe    c2315043   2.615   4.884   0.021 -0.7245 -0.1950  0.3163
 3054poe     o215044   2.541   4.906   0.139  0.1856 -0.5369  0.9612
 3054poe    c2315045   2.565   5.032   0.199 -0.5948  0.2488 -0.3337
 3054poe    c2315046   2.444   5.087   0.276 -0.5844 -0.1671 -0.0208
 3054poe     o215047   2.351   5.109   0.173 -0.0768 -0.4750 -0.5481
 3054poe    c3115048   2.251   5.191   0.229  1.0750  0.5187  0.0909
 3055poe    c3115049   0.690   1.375   3.693 -0.6377 -0.0275 -0.4671
 3055poe     o215050   0.744   1.499   3.654 -0.2069 -0.0739 -0.0316
 3055poe    c2315051   0.762   1.561   3.779 -0.0323  0.0989 -0.1399
 3055poe    c2315052   0.851   1.686   3.766  0.1602 -0.0924 -0.6831
 3055poe     o215053   0.770   1.798   3.740 -0.1073 -0.0440  0.3032
 3055poe    c2315054   0.848   1.913   3.765 -0.0743  0.0524 -0.2262
 3055poe    c2315055   0.765   2.042   3.753 -0.1565  0.0215  0.0039
 3055poe     o215056   0.674   2.047   3.646  0.0458 -0.0212 -0.1697
 3055poe    c2315057   0.621   2.172   3.608 -0.3208 -0.2163 -0.3072
 3055poe    c2315058   0.506   2.156   3.507 -0.2997 -0.2379 -0.3277
 3055poe     o215059   0.396   2.083   3.555  0.1989 -0.5799  0.3173
 3055poe    c3115060   0.279   2.063   3.478  0.1933  0.4236  0.0504
 3056poe    c3115061   2.214   1.614   6.042 -0.2495  0.2627 -0.2375
 3056poe     o215062   2.164   1.552   6.158 -0.0251  0.2301 -0.1573
 3056poe    c2315063   2.036   1.610   6.167 -0.2581 -0.1767 -0.7868
 3056poe    c2315064   1.924   1.525   6.230 -0.0462  0.0011 -0.1702
 3056poe     o215065   1.912   1.396   6.174  0.4748 -0.0729 -0.1154
 3056poe    c2315066   1.811   1.323   6.239  0.0739 -0.1096 -0.7743
 3056poe    c2315067   1.765   1.186   6.186 -0.2122 -0.3611  0.1067
 3056poe     o215068   1.709   1.194   6.056 -0.1094  0.1879  0.0938
 3056poe    c2315069   1.679   1.066   6.007 -0.3839  0.3570 -0.1852
 3056poe    c2315070   1.618   1.066   5.866 -0.1273  0.2089 -0.2988
 3056poe     o215071   1.697   1.119   5.762  0.1912 -0.2682 -0.3006
 3056poe    c3115072   1.680   1.019   5.665  0.2283  0.0300 -0.6159
 3057poe    c3115073   7.298   3.189   1.203 -0.0620 -0.3929  0.1902
 3057poe     o215074   7.408   3.269   1.239 -0.4931  0.2589  0.0787
 3057poe    c2315075   7.390   3.306   1.374  0.6943 -0.1694  0.3724
 3057poe    c2315076   7.463   3.438   1.406  0.0941  0.1858  0.2966
 3057poe     o215077   7.603   3.436   1.392  0.1041  0.7754  0.2636
 3057poe    c2315078   7.677   3.496   1.496  0.5198  0.5617  0.0949
 3057poe    c2315079   7.660   3.647   1.521 -0.0903  0.4881  0.1505
 3057poe     o215080   7.726   3.715   1.416 -0.3944  0.1614 -0.2538
 3057poe    c2315081   7.717   3.846   1.467 -0.2710  0.1042 -0.0843
 3057poe    c2315082   7.748   3.953   1.360  0.3122 -0.2264 -0.2517
 3057poe     o215083   7.667   3.946   1.244 -0.2355  0.0305  0.1118
 3057poe    c3115084   7.689   4.060   1.163 -0.7712 -0.2812 -0.4814
 3058poe    c3115085   6.691   6.360   0.844  0.0033  0.1619  1.0153
 3058poe     o215086   6.758   6.345   0.967  0.3765 -0.5773  0.7247
 3058poe    c2315087   6.843   6.456   0.986  0.7546 -0.4902 -1.2627
 3058poe    c2315088   6.981   6.415   1.040  0.3447  0.1356  0.3259
 3058poe     o215089   6.988   6.377   1.175 -0.0519  0.0844  0.3333
 3058poe    c2315090   7.120   6.379   1.225  0.2082 -0.5053 -0.3196
 3058poe    c2315091   7.129   6.392   1.379 -0.0229  0.4922 -0.3856
 3058poe     o215092   7.090   6.504   1.455  0.0147  0.5706 -0.4820
 3058poe    c2315093   7.097   6.501   1.596 -0.0756  0.3375 -0.4828
 3058poe    c2315094   7.021   6.387   1.666  0.1230  0.3475 -0.2517
 3058poe     o215095   6.885   6.409   1.639 -0.0304  0.0237  0.2458
 3058poe    c3115096   6.817   6.337   1.740 -0.0191 -0.2908  0.0326
 3059poe    c3115097   6.745   2.915   6.352  0.1002 -0.1624 -0.2327
 3059poe     o215098   6.745   3.035   6.426 -0.3794 -0.1727 -0.2140
 3059poe    c2315099   6.702   3.026   6.560 -0.1800  0.2127 -0.1207
 3059poe    c2315100   6.580   3.113   6.592 -0.2058  0.3159 -0.4911
 3059poe     o215101   6.622   3.245   6.566  0.1599  0.3193  0.0909
 3059poe    c2315102   6.523   3.327   6.507  0.2200 -0.0608 -0.5546
 3059poe    c2315103   6.473   3.305   6.364 -0.4759 -0.1746 -0.2960
 3059poe     o215104   6.549   3.362   6.260 -0.3519  0.1739 -0.0130
 3059poe    c2315105   6.585   3.270   6.160  0.7767  0.2366  0.3239
 3059poe    c2315106   6.692   3.301   6.053  0.0218  0.7911 -0.2801
 3059poe     o215107   6.817   3.343   6.103 -0.1391  0.3731  0.4881
 3059poe    c3115108   6.891   3.378   5.988 -0.4806  0.6367  0.3457
 3060poe    c3115109   4.579   0.753   5.806  0.3618 -0.1987 -0.3087
 3060poe     o215110   4.526   0.878   5.770  0.0325 -0.3561 -0.3785
 3060poe    c2315111   4.588   0.927   5.653  0.0575  0.5441  0.0029
 3060poe    c2315112   4.557   1.076   5.627 -0.3900  0.5875  0.7743
 3060poe     o215113   4.432   1.103   5.568 -0.0321  0.2587 -0.1419
 3060poe    c2315114   4.453   1.215   5.486 -0.0098  0.2816 -0.1047
 3060poe    c2315115   4.335   1.309   5.455 -0.1310  0.1194 -0.1335
 3060poe     o215116   4.216   1.246   5.413  0.0358 -0.4349  0.2094
 3060poe    c2315117   4.102   1.326   5.432  0.0712 -0.2715 -0.2476
 3060poe    c2315118   4.054   1.383   5.297 -0.0930  0.2999  0.0463
 3060poe     o215119   4.051   1.291   5.190  0.0468 -0.1185  0.3994
 3060poe    c3115120   4.070   1.375   5.078 -0.3897  0.1628  0.5378
 3061poe    c3115121   5.262   4.057   2.853  0.3330  0.1244 -0.2807
 3061poe     o215122   5.231   4.010   2.724 -0.1006  0.2456 -0.2196
 3061poe    c2315123   5.337   3.953   2.651 -0.1193  0.2186 -0.2260
 3061poe    c2315124   5.309   3.857   2.534  0.1490  0.0580 -0.1592
 3061poe     o215125   5.226   3.916   2.437 -0.2885 -0.2652  0.0112
 3061poe    c2315126   5.211   3.826   2.330 -0.3209  0.1305 -0.3203
 3061poe    c2315127   5.113   3.854   2.214 -0.3952  0.0543 -0.2761
 3061poe     o215128   5.173   3.946   2.126  0.0529 -0.1652 -0.1999
 3061poe    c2315129   5.082   4.002   2.034  0.0583  0.1962  0.0118
 3061poe    c2315130   5.104   4.151   2.000  0.1446  0.1218 -0.2561
 3061poe     o215131   5.080   4.235   2.110 -0.3320  0.1741 -0.3982
 3061poe    c3115132   5.047   4.366   2.069 -0.1475  0.4883  0.4468
 3062poe    c3115133   0.374   2.191   0.946 -0.4007 -0.0125  0.2696
 3062poe     o215134   0.291   2.101   0.877 -0.0252 -0.0634 -0.1198
 3062poe    c2315135   0.197   2.058   0.973  0.4615  0.0018  0.3919
 3062poe    c2315136   0.095   1.963   0.906  0.6126 -0.3434  0.6521
 3062poe     o215137   0.178   1.883   0.824 -0.2562 -0.8855  0.2937
 3062poe    c2315138   0.107   1.782   0.756 -0.3638 -0.3329 -0.4266
 3062poe    c2315139   0.209   1.721   0.658  0.9634  0.2169  0.5877
 3062poe     o215140   0.295   1.815   0.598  0.6863  0.0581 -0.0634
 3062poe    c2315141   0.318   1.782   0.462  0.9070 -0.4539  0.0959
 3062poe    c2315142   0.386   1.896   0.385  0.6606 -0.2378  0.1993
 3062poe     o215143   0.494   1.939   0.464  0.5112  0.4041  0.0655
 3062poe    c3115144   0.587   2.009   0.384  0.6539  0.3559  0.1870
 3063poe    c3115145   5.726   3.302   0.170 -0.1379  0.7624 -0.0142
 3063poe     o215146   5.707   3.381   0.055 -0.4105  0.1494 -0.3913
 3063poe    c2315147   5.633   3.497   0.084  0.0063  0.2639  0.2297
 3063poe    c2315148   5.673   3.607  -0.016  0.7961 -0.2530 -0.0339
 3063poe     o215149   5.659   3.581  -0.154  0.1512  0.5015 -0.1191
 3063poe    c2315150   5.697   3.686  -0.240  0.1949  0.9261  0.4128
 3063poe    c2315151   5.719   3.636  -0.384 -0.2043  0.6988  0.4292
 3063poe     o215152   5.601   3.570  -0.424  0.2148  0.0800  0.1938
 3063poe    c2315153   5.621   3.540  -0.560 -0.1677 -0.0864  0.1724
 3063poe    c2315154   5.569   3.400  -0.597  0.2879 -0.3689  0.5877
 3063poe     o215155   5.632   3.302  -0.517  0.8550 -0.3541  0.1697
 3063poe    c3115156   5.561   3.181  -0.530 -1.1404  0.8233 -0.4410
 3064poe    c3115157   3.054   2.830   0.597 -0.0903  0.7676  0.0646
 3064poe     o215158   3.140   2.914   0.523  0.0810  0.5190 -0.0177
 3064poe    c2315159   3.256   2.845   0.480  0.2611  0.7002  0.1802
 3064poe    c2315160   3.352   2.956   0.435  0.3099  0.9543  0.8946
 3064poe     o215161   3.491   2.934   0.436  0.1767 -0.0113 -0.2861
 3064poe    c2315162   3.551   3.057   0.403 -0.2857  0.1896 -0.3862
 3064poe    c2315163   3.702   3.042   0.374 -0.2343  1.2808 -0.7297
 3064poe     o215164   3.726   3.026   0.236 -0.1074 -0.0864 -0.5687
 3064poe    c2315165   3.723   2.893   0.189  0.2602  0.0022 -0.8464
 3064poe    c2315166   3.593   2.826   0.142  0.4335 -0.8774 -0.1040
 3064poe     o215167   3.537   2.894   0.032  0.3759 -0.5740  0.1116
 3064poe    c3115168   3.409   2.840   0.008 -0.1985  0.8952 -0.2215
 3065poe    c3115169   1.720   5.558   3.957  0.1808 -0.2397 -0.5477
 3065poe     o215170   1.587   5.543   3.913 -0.1237  0.1506  0.2292
 3065poe    c2315171   1.528   5.422   3.954 -0.0584 -0.1887 -0.6555
 3065poe    c2315172   1.385   5.439   3.902 -0.0953  0.0675 -0.4745
 3065poe     o215173   1.355   5.568   3.949 -0.2486 -0.0506 -0.2450
 3065poe    c2315174   1.218   5.597   3.929 -0.4096 -0.3703  0.3824
 3065poe    c2315175   1.175   5.703   4.032 -1.2035  0.2488 -0.5673
 3065poe     o215176   1.276   5.802   4.031 -0.5473 -0.3940  0.2315
 3065poe    c2315177   1.225   5.913   4.101  0.0268  0.1264 -0.1713
 3065poe    c2315178   1.327   6.023   4.140 -0.0787  0.2826 -0.3341
 3065poe     o215179   1.404   5.984   4.251 -0.5994  0.4009  0.0727
 3065poe    c3115180   1.511   6.071   4.281 -0.5072  0.3362 -0.0678
 3066poe    c3115181   3.777   0.474   1.095 -0.0306  0.1917 -0.1613
 3066poe     o215182   3.828   0.583   1.022  0.2726  0.0709 -0.1305
 3066poe    c2315183   3.948   0.558   0.952 -0.0787 -0.1139 -0.6728
 3066poe    c2315184   3.989   0.698   0.904 -0.3265  0.0219 -0.4857
 3066poe     o215185   3.908   0.776   0.818 -0.2052  0.4292 -0.2375
 3066poe    c2315186   3.904   0.906   0.871  0.3695  0.5436 -0.4586
 3066poe    c2315187   3.784   0.987   0.819 -0.3079 -0.1200  0.0536
 3066poe     o215188   3.759   1.014   0.683 -0.1724 -0.5337 -0.0563
 3066poe    c2315189   3.640   1.084   0.652 -0.1850 -0.5604 -0.0669
 3066poe    c2315190   3.626   1.115   0.502  0.1657 -0.1874 -0.0222
 3066poe     o215191   3.679   1.246   0.490 -0.3366 -0.0430 -0.7002
 3066poe    c3115192   3.638   1.284   0.361 -0.7187  1.0410 -0.2643
 3067poe    c3115193   2.705   3.141   5.467  0.2086  0.1529  1.1367
 3067poe     o215194   2.701   3.000   5.474 -0.2850  0.1487  0.7668
 3067poe    c2315195   2.577   2.958   5.526 -0.3022  0.3621  0.8960
 3067poe    c2315196   2.543   2.810   5.507 -0.1018  0.3916  0.3021
 3067poe     o215197   2.640   2.721   5.558 -0.1681 -0.0835 -0.3768
 3067poe    c2315198   2.604   2.585   5.554  0.2181 -0.2062  0.1352
 3067poe    c2315199   2.729   2.503   5.518  0.2338  0.0126 -0.3235
 3067poe     o215200   2.843   2.558   5.580 -0.3139 -0.0848  0.7962
 3067poe    c2315201   2.967   2.501   5.546 -0.6408 -0.8939  0.9346
 3067poe    c2315202   3.071   2.552   5.648  0.2631 -0.3811 -0.2249
 3067poe     o215203   3.046   2.688   5.673 -0.3012 -0.4778 -0.2478
 3067poe    c3115204   3.142   2.760   5.748  0.0400 -0.7669 -0.4026
 3068poe    c3115205   3.282   1.291   0.659 -0.2354  0.1162  0.0513
 3068poe     o215206   3.379   1.394   0.668  0.0240 -0.1269  0.0640
 3068poe    c2315207   3.331   1.525   0.647  0.4490 -0.0286 -0.3064
 3068poe    c2315208   3.436   1.624   0.592  0.3301  0.1096 -0.2833
 3068poe     o215209   3.543   1.610   0.683  0.2463 -0.7546 -0.3150
 3068poe    c2315210   3.657   1.675   0.633  0.0059  0.2367  0.4156
 3068poe    c2315211   3.737   1.728   0.754  0.6016  0.1804  0.0484
 3068poe     o215212   3.768   1.618   0.837 -0.7490 -0.3292 -0.1020
 3068poe    c2315213   3.817   1.669   0.959 -0.0601 -0.2768 -0.3966
 3068poe    c2315214   3.890   1.555   1.032 -0.4858 -0.1703  0.2109
 3068poe     o215215   3.811   1.439   1.022 -0.0578 -0.4495  0.0314
 3068poe    c3115216   3.878   1.339   1.096  0.4923 -0.2867 -0.2406
 3069poe    c3115217   4.313   5.255   3.223  0.1979 -0.7285  0.2179
 3069poe     o215218   4.398   5.286   3.331  0.2510  0.3183 -0.1100
 3069poe    c2315219   4.353   5.406   3.389 -0.3851  0.2039 -0.3569
 3069poe    c2315220   4.470   5.461   3.474 -0.3644 -1.0921  0.4846
 3069poe     o215221   4.576   5.497   3.389 -0.6303 -0.1648  0.5406
 3069poe    c2315222   4.695   5.534   3.455 -0.0571 -0.3757 -0.3536
 3069poe    c2315223   4.801   5.603   3.367  0.1667 -0.0477  0.1701
 3069poe     o215224   4.834   5.521   3.258 -0.5970  0.1683 -0.2298
 3069poe    c2315225   4.896   5.594   3.154 -0.4677 -0.8252 -0.8691
 3069poe    c2315226   4.987   5.512   3.062  0.4605 -0.7185 -0.0592
 3069poe     o215227   4.894   5.422   3.007 -0.4463 -0.1598  0.5423
 3069poe    c3115228   4.966   5.308   2.967 -0.3410  0.0045  0.2619
 3070poe    c3115229   5.786   5.231   4.625  0.2275 -0.5436  0.0673
 3070poe     o215230   5.754   5.159   4.741 -0.4852 -0.1113  0.1474
 3070poe    c2315231   5.803   5.028   4.726 -0.1134  0.0364  0.0770
 3070poe    c2315232   5.781   4.953   4.859  0.4397  0.2129  0.2706
 3070poe     o215233   5.646   4.927   4.888  0.4804 -1.1546 -0.6693
 3070poe    c2315234   5.642   4.829   4.989  0.4550 -0.1486  0.3381
 3070poe    c2315235   5.641   4.680   4.948  0.1020  0.0158 -0.2716
 3070poe     o215236   5.759   4.628   4.892  0.0268  0.3312 -0.7266
 3070poe    c2315237   5.766   4.487   4.896  0.5518  0.3550 -0.7355
 3070poe    c2315238   5.909   4.429   4.895  0.2385 -0.4548  0.3878
 3070poe     o215239   5.980   4.466   4.780  0.3085 -0.1363  0.5315
 3070poe    c3115240   6.112   4.416   4.775  0.6330  0.7241  0.3317
 3071poe    c3115241   2.418   3.050   0.421 -0.6563 -0.5620  0.0756
 3071poe     o215242   2.476   3.021   0.296  0.6293  0.5676  0.3799
 3071poe    c2315243   2.567   2.913   0.296  0.1491  0.1569  0.2425
 3071poe    c2315244   2.642   2.906   0.162  0.2007 -0.5888  0.3042
 3071poe     o215245   2.567   2.901   0.042 -0.0111 -0.2347  0.4188
 3071poe    c2315246   2.493   2.782   0.026 -0.3808  0.0195  0.2147
 3071poe    c2315247   2.437   2.791  -0.117  0.4435  0.1296 -0.1064
 3071poe     o215248   2.376   2.918  -0.122 -0.6092 -0.3359  0.4829
 3071poe    c2315249   2.277   2.907  -0.222 -0.1009 -0.3843 -0.0238
 3071poe    c2315250   2.216   3.041  -0.266 -0.3477 -0.2582  0.6848
 3071poe     o215251   2.193   3.137  -0.166  1.0534  0.7403  0.0777
 3071poe    c3115252   2.137   3.260  -0.207  0.0827  0.2219 -0.1634
 3072poe    c3115253   6.593   2.517   2.948 -0.2864 -0.7788  0.2859
 3072poe     o215254   6.515   2.544   2.833  0.0749 -0.7082  0.0547
 3072poe    c2315255   6.389   2.481   2.836 -0.5324  0.4700 -0.1758
 3072poe    c2315256   6.304   2.508   2.711 -0.3490 -0.0278 -0.4095
 3072poe     o215257   6.348   2.435   2.599 -0.2035 -0.6088  0.0216
 3072poe    c2315258   6.263   2.451   2.488  0.0326 -0.0812 -0.0901
 3072poe    c2315259   6.324   2.395   2.358  0.7231 -0.1766  0.2746
 3072poe     o215260   6.319   2.255   2.375  0.0118 -0.1577  0.2555
 3072poe    c2315261   6.336   2.194   2.250 -0.0670  0.1178  0.1101
 3072poe    c2315262   6.325   2.042   2.271  0.3521 -0.0033 -0.5157
 3072poe     o215263   6.412   1.988   2.368 -0.0184  0.1814 -0.0804
 3072poe    c3115264   6.380   1.852   2.385 -0.5195  0.1752 -1.0253
 3073poe    c3115265   5.766   2.336   3.920  0.1215 -0.3237 -0.1359
 3073poe     o215266   5.876   2.270   3.978  0.3877  0.4298  0.2362
 3073poe    c2315267   5.842   2.151   4.046  0.4491  0.1961 -0.1361
 3073poe    c2315268   5.762   2.169   4.177 -0.4437  0.4115 -0.7064
 3073poe     o215269   5.815   2.232   4.291 -0.5104 -0.1824 -0.3450
 3073poe    c2315270   5.708   2.245   4.383 -0.3092 -0.2825 -0.0952
 3073poe    c2315271   5.605   2.358   4.362 -0.2314 -0.2722 -0.4366
 3073poe     o215272   5.662   2.484   4.390 -0.2006 -0.4315  0.2245
 3073poe    c2315273   5.576   2.587   4.435  0.9078  0.4554  0.3515
 3073poe    c2315274   5.513   2.564   4.573 -0.0432  0.6388 -0.0459
 3073poe     o215275   5.614   2.558   4.671  0.1669  0.4065 -0.2747
 3073poe    c3115276   5.564   2.579   4.801  0.0475  0.2862 -0.3004
 3074poe    c3115277   6.613   4.399   1.375  0.8233  1.0172 -0.0443
 3074poe     o215278   6.560   4.454   1.256 -0.2271  0.2599  0.0578
 3074poe    c2315279   6.518   4.336   1.192 -0.4411  0.0584  0.5606
 3074poe    c2315280   6.391   4.335   1.105  0.1011 -0.0324 -0.2399
 3074poe     o215281   6.392   4.428   0.999  0.1548  0.4322  0.1698
 3074poe    c2315282   6.310   4.539   1.028 -0.7629 -0.0511 -0.5653
 3074poe    c2315283   6.361   4.657   0.943 -0.2469  0.1393  0.0076
 3074poe     o215284   6.318   4.642   0.809 -0.3504  0.0154  0.0545
 3074poe    c2315285   6.362   4.758   0.741  0.5087 -0.1414  0.3341
 3074poe    c2315286   6.370   4.724   0.591 -0.3206  0.4846  0.1425
 3074poe     o215287   6.456   4.619   0.553 -0.0962  0.7186 -0.0034
 3074poe    c3115288   6.438   4.619   0.413 -0.9731  0.3747  0.1027
 3075poe    c3115289   1.667   4.040   5.045  0.1347 -0.0193 -0.2589
 3075poe     o215290   1.806   4.030   5.070  0.1034  0.2317  0.0160
 3075poe    c2315291   1.801   3.948   5.185 -0.3451 -0.0990 -0.2346
 3075poe    c2315292   1.932   3.921   5.261 -0.6416 -1.0886 -0.0584
 3075poe     o215293   2.021   3.854   5.174 -0.1369  0.0396 -0.4268
 3075poe    c2315294   2.082   3.743   5.236  0.3293  0.2768 -0.4560
 3075poe    c2315295   2.234   3.724   5.217  0.2901 -0.5895  0.0699
 3075poe     o215296   2.263   3.693   5.083 -0.1984  0.1019 -0.2058
 3075poe    c2315297   2.404   3.691   5.073 -0.1969  0.0838 -0.1815
 3075poe    c2315298   2.471   3.636   4.946  0.1398 -0.0325  0.0445
 3075poe     o215299   2.484   3.500   4.914 -0.6118 -0.2026  0.4458
 3075poe    c3115300   2.569   3.427   4.999  0.1150  0.5405  0.3638
 3076poe    c3115301   3.654   0.824   3.415 -0.1864  0.2834  0.1761
 3076poe     o215302   3.696   0.906   3.522  0.3854  0.3838 -0.1241
 3076poe    c2315303   3.650   1.038   3.506  0.3911  0.3097 -0.7539
 3076poe    c2315304   3.648   1.112   3.641 -0.1631  0.2346 -0.7216
 3076poe     o215305   3.590   1.036   3.745 -0.2775  0.3371 -0.7094
 3076poe    c2315306   3.573   1.105   3.866 -0.0148  0.0240 -0.4929
 3076poe    c2315307   3.525   1.010   3.978 -0.3673  0.4152 -0.3104
 3076poe     o215308   3.417   0.936   3.926 -0.3151  0.0993  0.0269
 3076poe    c2315309   3.365   0.852   4.027 -0.0502 -0.2737 -0.1439
 3076poe    c2315310   3.296   0.724   3.976 -0.1820 -0.1365 -0.3128
 3076poe     o215311   3.393   0.625   3.953  0.4057  0.2924  0.2666
 3076poe    c3115312   3.323   0.503   3.946  0.5748  0.1971  0.2224
 3077poe    c3115313   0.929   0.083   0.105  0.5511  0.8758 -0.3015
 3077poe     o215314   0.888   0.059  -0.028 -0.3369 -0.5798  0.2087
 3077poe    c2315315   0.761   0.105  -0.066  0.1735  0.6504 -0.0675
 3077poe    c2315316   0.741   0.074  -0.215  0.1955 -0.0528  0.0677
 3077poe     o215317   0.859   0.104  -0.285  0.4879 -0.4170  0.4065
 3077poe    c2315318   0.863   0.051  -0.416  0.0636  0.8322 -0.1281
 3077poe    c2315319   1.009   0.059  -0.464  0.0859  0.0593 -0.1976
 3077poe     o215320   1.105   0.047  -0.361 -0.0132 -0.1735 -0.1329
 3077poe    c2315321   1.215  -0.021  -0.417 -0.1978 -0.6045  0.0184
 3077poe    c2315322   1.320  -0.069  -0.315  0.1006  0.3430  0.1647
 3077poe     o215323   1.367   0.031  -0.227 -0.6138  0.5302  0.3388
 3077poe    c3115324   1.475  -0.009  -0.146 -0.4856  0.5030  0.1539
 3078poe    c3115325   5.987   5.675   0.691  0.3647  0.4543  0.3353
 3078poe     o215326   5.988   5.543   0.640 -0.3426  0.3860  0.4856
 3078poe    c2315327   5.954   5.447   0.737  0.2220  0.1973  0.4959
 3078poe    c2315328   5.946   5.305   0.677 -0.2423  0.3688  0.1483
 3078poe     o215329   6.059   5.281   0.597 -0.2336 -0.0039  0.2719
 3078poe    c2315330   6.060   5.143   0.566 -0.3162  0.0087  0.2128
 3078poe    c2315331   6.162   5.081   0.468 -0.0591  0.6880  0.0421
 3078poe     o215332   6.289   5.141   0.468  0.4420 -0.3624  0.0230
 3078poe    c2315333   6.376   5.066   0.385  0.4005 -0.6291  0.2171
 3078poe    c2315334   6.524   5.062   0.426  0.3565  0.1778  0.4727
 3078poe     o215335   6.571   4.974   0.525  0.0918  0.3676  0.7705
 3078poe    c3115336   6.708   4.998   0.552  0.2489  0.9256 -0.4603
 3079poe    c3115337   6.971   4.599   4.244 -0.0316  0.5577  0.3349
 3079poe     o215338   6.994   4.468   4.289  0.0242  0.4533  0.0068
 3079poe    c2315339   6.884   4.450   4.376 -0.0533 -0.1994 -0.2227
 3079poe    c2315340   6.904   4.334   4.475  0.0213 -0.0427 -0.0531
 3079poe     o215341   6.922   4.211   4.408 -0.1459  0.0022 -0.1829
 3079poe    c2315342   6.956   4.112   4.504  0.8073  0.3248 -0.1826
 3079poe    c2315343   7.001   3.983   4.434  0.2179  0.1781 -0.2944
 3079poe     o215344   7.094   4.023   4.336  0.4446  0.1902 -0.0733
 3079poe    c2315345   7.114   3.906   4.260 -0.0147 -0.0675  0.1988
 3079poe    c2315346   7.202   3.930   4.136  0.5378  0.4884  0.6905
 3079poe     o215347   7.176   4.060   4.088 -0.0242  0.2066  0.2254
 3079poe    c3115348   7.240   4.063   3.962  0.3807 -0.0534  0.4226
 3080poe    c3115349   3.299   3.620   4.529  0.0976 -0.0720  0.0198
 3080poe     o215350   3.229   3.511   4.584  0.0289  0.0112  0.0963
 3080poe    c2315351   3.105   3.566   4.622  0.0602 -0.1235  0.4021
 3080poe    c2315352   3.041   3.458   4.711  0.0206 -0.3209  0.1339
 3080poe     o215353   3.081   3.330   4.668  0.2351 -0.2918  0.2469
 3080poe    c2315354   3.039   3.228   4.756  0.0151 -0.4923 -0.0872
 3080poe    c2315355   3.089   3.088   4.716 -0.2475 -0.4866 -0.4376
 3080poe     o215356   3.230   3.082   4.721 -0.2537 -0.1491  0.1774
 3080poe    c2315357   3.274   2.960   4.665 -0.1431 -0.0022 -0.0546
 3080poe    c2315358   3.412   2.937   4.729  0.0526 -0.1412 -0.5260
 3080poe     o215359   3.493   3.047   4.693 -0.2896  0.5472  0.7428
 3080poe    c3115360   3.628   3.006   4.690 -0.6098 -0.5545  0.6627
 3081poe    c3115361   5.839   1.934   3.103  0.1966 -0.4749  0.1166
 3081poe     o215362   5.864   1.796   3.118  0.1373 -0.4854  0.1203
 3081poe    c2315363   5.762   1.705   3.083  0.2544 -0.6879  0.3030
 3081poe    c2315364   5.777   1.660   2.937 -0.4768 -0.0786  0.0282
 3081poe     o215365   5.887   1.575   2.909 -0.3428  0.1210 -0.0533
 3081poe    c2315366   5.842   1.500   2.798 -0.6463 -0.8034  0.6774
 3081poe    c2315367   5.899   1.357   2.800  0.6569 -0.3042  0.4996
 3081poe     o215368   6.038   1.338   2.787  0.6394 -0.1432  0.0266
 3081poe    c2315369   6.095   1.379   2.665  0.0286 -0.2532 -0.3001
 3081poe    c2315370   6.248   1.383   2.682 -0.0315  0.6213  0.0982
 3081poe     o215371   6.297   1.488   2.763  0.4941  0.2441  0.2720
 3081poe    c3115372   6.435   1.460   2.774  0.4987  0.0719 -0.2035
 3082poe    c3115373   6.516   2.542   0.239 -0.1897 -0.3697 -0.2855
 3082poe     o215374   6.481   2.501   0.369 -0.6174  0.6260 -0.0794
 3082poe    c2315375   6.400   2.386   0.368  0.2680 -0.0026 -0.3493
 3082poe    c2315376   6.377   2.351   0.516 -0.1213  0.6460 -0.2512
 3082poe     o215377   6.306   2.460   0.571 -0.5670  0.1371  0.1981
 3082poe    c2315378   6.227   2.436   0.685 -0.5480  0.4845  0.2847
 3082poe    c2315379   6.170   2.577   0.709 -0.2810  0.6811 -0.2339
 3082poe     o215380   6.273   2.673   0.691  0.6552 -0.2382  0.1071
 3082poe    c2315381   6.286   2.754   0.806  0.4094 -0.0591  0.0106
 3082poe    c2315382   6.387   2.870   0.802  0.2171  0.1156  0.2321
 3082poe     o215383   6.518   2.820   0.789 -0.1066 -0.5325 -0.6890
 3082poe    c3115384   6.615   2.914   0.830 -0.0995 -0.8683  0.0850
 3083poe    c3115385   2.780   7.115   0.035  0.4849  0.0222  0.4703
 3083poe     o215386   2.767   7.233   0.111  0.1353 -0.0004  0.4463
 3083poe    c2315387   2.671   7.304   0.035  0.0954 -0.0331  0.4662
 3083poe    c2315388   2.644   7.436   0.109  0.7362  0.1100  0.4493
 3083poe     o215389   2.758   7.506   0.154  0.6890 -0.1702  1.0161
 3083poe    c2315390   2.735   7.634   0.208  0.7825  0.1780  0.2386
 3083poe    c2315391   2.697   7.619   0.356 -0.1632  0.8421  0.0720
 3083poe     o215392   2.795   7.566   0.443 -0.5134 -0.5958 -0.3740
 3083poe    c2315393   2.738   7.563   0.572 -0.2860  0.2980 -0.2474
 3083poe    c2315394   2.799   7.668   0.667  0.2539 -0.0900 -0.1591
 3083poe     o215395   2.933   7.639   0.699  0.1220 -0.5833 -0.0423
 3083poe    c3115396   2.965   7.709   0.817 -0.5324  0.0211 -0.2111
 3084poe    c3115397   5.526   1.779   1.616  0.0659  0.3575 -0.3109
 3084poe     o215398   5.425   1.830   1.532 -0.6421 -0.5603 -0.0271
 3084poe    c2315399   5.468   1.797   1.402 -0.0554  0.1669 -0.0221
 3084poe    c2315400   5.359   1.819   1.296  0.0030 -0.6623 -0.2612
 3084poe     o215401   5.364   1.954   1.256 -0.2499 -0.6403 -0.2234
 3084poe    c2315402   5.300   1.985   1.135  0.1738 -0.0504 -0.3044
 3084poe    c2315403   5.360   2.113   1.074 -0.0524 -0.0196 -0.4660
 3084poe     o215404   5.331   2.242   1.124  0.4888 -0.0540 -0.0535
 3084poe    c2315405   5.407   2.345   1.067  0.4608 -0.0144 -0.0198
 3084poe    c2315406   5.344   2.400   0.937 -0.1351 -0.6490 -0.0028
 3084poe     o215407   5.231   2.482   0.955  0.2126 -0.1988  0.1342
 3084poe    c3115408   5.169   2.522   0.835 -0.2414  0.1173  0.4711
 3085poe    c3115409   2.444   5.230   6.185  0.0398 -0.6721 -0.8746
 3085poe     o215410   2.323   5.260   6.118  0.2681  0.6709 -0.7209
 3085poe    c2315411   2.238   5.149   6.096  0.5844  0.2474  0.1212
 3085poe    c2315412   2.101   5.205   6.053  0.1559 -0.7750  0.1351
 3085poe     o215413   2.039   5.264   6.165  0.4929  0.3173 -0.2367
 3085poe    c2315414   1.970   5.376   6.114  0.4027  0.3958  0.0577
 3085poe    c2315415   1.825   5.381   6.165  0.3453  0.8477 -0.1479
 3085poe     o215416   1.830   5.388   6.306  0.3665  0.3381 -0.1217
 3085poe    c2315417   1.701   5.396   6.362  0.1691  0.3735 -0.5720
 3085poe    c2315418   1.723   5.389   6.515 -0.0396 -0.1149 -0.5606
 3085poe     o215419   1.813   5.284   6.541  0.5028  0.5618  0.3739
 3085poe    c3115420   1.827   5.219   6.665  0.2570 -0.2398 -0.0050
 3086poe    c3115421   2.941   7.197   1.807  0.2152 -0.4498  0.6342
 3086poe     o215422   2.903   7.329   1.777 -0.2098 -0.7554 -0.2085
 3086poe    c2315423   2.790   7.377   1.847 -0.1311  0.0810 -0.6493
 3086poe    c2315424   2.807   7.530   1.845  0.0856  0.0656 -0.0532
 3086poe     o215425   2.839   7.544   1.709 -0.4256 -0.5199 -0.2348
 3086poe    c2315426   2.853   7.678   1.666  0.0557 -0.3042  0.5798
 3086poe    c2315427   2.867   7.683   1.513  0.3788  0.1378  0.6235
 3086poe     o215428   2.980   7.606   1.480  0.0137 -0.1528  0.0408
 3086poe    c2315429   3.018   7.643   1.349 -0.7868  0.1896 -0.1000
 3086poe    c2315430   3.151   7.571   1.319 -1.0829 -0.4657  0.1525
 3086poe     o215431   3.139   7.430   1.318  0.4416 -0.6102 -0.0766
 3086poe    c3115432   3.229   7.393   1.216  0.3343  0.2686 -0.5070
 3087poe    c3115433   0.243   0.728   5.394  0.0917  0.5580  0.0223
 3087poe     o215434   0.309   0.662   5.289  0.1437 -0.0188  0.4116
 3087poe    c2315435   0.242   0.547   5.244 -0.1944  0.4161 -0.2223
 3087poe    c2315436   0.284   0.506   5.102 -0.3080  0.0208 -0.1435
 3087poe     o215437   0.420   0.478   5.076 -0.3046 -0.3354  0.2409
 3087poe    c2315438   0.460   0.465   4.942  0.0383 -0.4239  0.3523
 3087poe    c2315439   0.569   0.562   4.891 -0.5892  0.3436  0.4615
 3087poe     o215440   0.544   0.700   4.890 -0.2918  0.4032 -0.7136
 3087poe    c2315441   0.651   0.779   4.843  0.4493 -0.0341  0.1973
 3087poe    c2315442   0.615   0.927   4.819 -0.1791 -0.1921  0.1448
 3087poe     o215443   0.647   1.012   4.926  0.1926 -0.0377 -0.0868
 3087poe    c3115444   0.619   1.147   4.896  0.2587 -0.0203 -0.0715
 3088poe    c3115445   4.527   7.009   1.938  0.1213 -0.5311 -0.5000
 3088poe     o215446   4.654   7.068   1.927 -0.1495  0.1433 -0.0493
 3088poe    c2315447   4.713   7.020   1.808  0.2421  0.3678  0.0500
 3088poe    c2315448   4.865   7.034   1.790  0.1774  0.6309 -0.2963
 3088poe     o215449   4.928   7.160   1.793 -0.2792  0.8580 -0.1477
 3088poe    c2315450   5.069   7.163   1.800 -0.2526 -0.1357 -0.0228
 3088poe    c2315451   5.112   7.267   1.905  0.1394  0.0079 -0.3234
 3088poe     o215452   5.123   7.401   1.864 -0.2781  0.3168  0.5481
 3088poe    c2315453   5.142   7.497   1.965  0.1360  0.3087  0.4804
 3088poe    c2315454   5.201   7.631   1.917 -0.3925  0.3248 -0.1387
 3088poe     o215455   5.334   7.619   1.874 -0.4171 -0.1021 -0.0942
 3088poe    c3115456   5.400   7.743   1.860 -0.8397  0.0933 -0.3742
 3089poe    c3115457   2.914   5.163   0.444  0.4585 -0.0075  0.0573
 3089poe     o215458   2.922   5.023   0.432 -0.1610 -0.0207 -0.2217
 3089poe    c2315459   2.922   4.979   0.566 -0.4667  0.7821  0.0473
 3089poe    c2315460   2.892   4.828   0.577  0.8808  0.5037  0.0088
 3089poe     o215461   2.995   4.738   0.542  0.3667 -0.0416 -0.1170
 3089poe    c2315462   2.965   4.609   0.591  0.6428 -0.1603 -0.2552
 3089poe    c2315463   3.075   4.560   0.687  0.6137  0.4612  0.0996
 3089poe     o215464   3.034   4.455   0.772  0.1068  0.6287  0.0666
 3089poe    c2315465   3.118   4.434   0.884 -0.4707  1.0107  0.5808
 3089poe    c2315466   3.096   4.288   0.928  0.0290  0.5312 -0.6902
 3089poe     o215467   2.978   4.279   1.006  0.2381  0.6512 -0.3572
 3089poe    c3115468   2.871   4.255   0.917 -0.2153  0.0368  0.3461
 3090poe    c3115469   5.509   1.983   0.725 -0.0467  0.6214 -0.5746
 3090poe     o215470   5.408   1.902   0.668  0.2102 -0.2057  0.1185
 3090poe    c2315471   5.347   1.974   0.563  0.3334 -0.4690 -0.1344
 3090poe    c2315472   5.222   1.889   0.530 -0.3073  0.3958  0.0093
 3090poe     o215473   5.274   1.776   0.462 -0.2460  0.4753 -0.0780
 3090poe    c2315474   5.168   1.728   0.383 -0.2453  0.1770  0.0992
 3090poe    c2315475   5.185   1.577   0.357 -0.7781  0.2661 -0.8168
 3090poe     o215476   5.305   1.556   0.286 -0.3728 -0.6635  0.1123
 3090poe    c2315477   5.316   1.418   0.259 -0.2520 -0.7194  0.4422
 3090poe    c2315478   5.419   1.333   0.336  0.1091 -0.5750  0.1219
 3090poe     o215479   5.366   1.282   0.456 -0.5157  0.0790  0.1314
 3090poe    c3115480   5.370   1.141   0.463 -0.5499  0.0755  0.0849
 3091poe    c3115481   3.270   6.433   5.664 -0.2226  0.6352 -0.3554
 3091poe     o215482   3.248   6.410   5.801  0.1763  0.0736 -0.3811
 3091poe    c2315483   3.214   6.533   5.862 -0.5838  0.0616 -0.7683
 3091poe    c2315484   3.094   6.505   5.955  0.3965  0.4946  0.6506
 3091poe     o215485   3.138   6.397   6.036  0.4430 -0.2068 -0.2891
 3091poe    c2315486   3.053   6.355   6.141  0.4173  0.4951 -0.0179
 3091poe    c2315487   3.133   6.302   6.262  0.1666  0.3005  0.0625
 3091poe     o215488   3.217   6.197   6.220 -0.0887  0.2299 -0.2806
 3091poe    c2315489   3.299   6.139   6.319  0.0121 -0.1698 -0.5917
 3091poe    c2315490   3.371   6.019   6.257  0.0558 -0.5330  0.1469
 3091poe     o215491   3.395   6.046   6.120  0.4566  0.0341  0.3260
 3091poe    c3115492   3.426   5.937   6.036  0.1457 -0.2905  0.6240
 3092poe    c3115493   1.517   5.624   0.468  0.6551  0.2080  0.5673
 3092poe     o215494   1.616   5.578   0.378  0.2380 -0.0140  0.2188
 3092poe    c2315495   1.676   5.693   0.322 -0.4367  0.1068 -0.2710
 3092poe    c2315496   1.813   5.648   0.268 -0.1431  0.4380  0.1935
 3092poe     o215497   1.885   5.564   0.356 -0.3987 -0.0822 -0.0906
 3092poe    c2315498   2.019   5.551   0.314 -0.2514 -0.0424  0.3627
 3092poe    c2315499   2.099   5.491   0.431 -0.3866 -0.6445  0.1471
 3092poe     o215500   2.068   5.355   0.455 -0.7141 -0.5695  0.1527
 3092poe    c2315501   2.146   5.303   0.559  0.6286 -0.1883 -0.6426
 3092poe    c2315502   2.107   5.154   0.565 -0.5341  0.1244 -0.3416
 3092poe     o215503   1.966   5.164   0.569 -0.5244  0.1875 -0.0842
 3092poe    c3115504   1.920   5.105   0.688 -1.0253  0.0567 -0.3392
 3093poe    c3115505   1.293   2.324   6.317  0.2623 -0.0172  0.1600
 3093poe     o215506   1.217   2.443   6.310  0.3601  0.0307 -0.0989
 3093poe    c2315507   1.133   2.480   6.417  0.1838  0.0725 -0.2514
 3093poe    c2315508   1.071   2.621   6.415  0.3029  0.1378  0.2946
 3093poe     o215509   1.173   2.711   6.450  0.0583  0.3865  0.3700
 3093poe    c2315510   1.158   2.847   6.414 -0.3369  0.2567  0.0397
 3093poe    c2315511   1.267   2.946   6.458  0.0145 -0.1140  0.0054
 3093poe     o215512   1.387   2.914   6.390  0.3845 -0.0191  0.6064
 3093poe    c2315513   1.452   3.034   6.355 -0.1071  0.1266  0.1720
 3093poe    c2315514   1.605   3.017   6.346 -0.1235 -0.0488  0.2149
 3093poe     o215515   1.664   2.958   6.459  0.6353 -0.0423 -0.1709
 3093poe    c3115516   1.803   2.978   6.448  0.6473  0.3671  0.6452
 3094poe    c3115517   5.508   1.630   2.176 -0.3873  0.3362 -0.3826
 3094poe     o215518   5.489   1.495   2.144  0.1629  0.0519  0.4475
 3094poe    c2315519   5.508   1.411   2.256 -0.0529 -0.3370  0.1971
 3094poe    c2315520   5.545   1.263   2.237 -0.0356 -0.3481  0.3155
 3094poe     o215521   5.450   1.187   2.166 -0.2482 -0.0147  0.2396
 3094poe    c2315522   5.492   1.053   2.179 -0.2293  0.0333  0.6745
 3094poe    c2315523   5.367   0.971   2.216 -0.4128  0.0637  0.1275
 3094poe     o215524   5.283   1.011   2.110 -0.3300  0.5961  0.2613
 3094poe    c2315525   5.160   0.944   2.124 -0.3231  0.6031  0.3539
 3094poe    c2315526   5.099   0.906   1.988 -0.8908  0.1632  0.7236
 3094poe     o215527   5.043   1.018   1.924  0.4908  0.1105 -0.6489
 3094poe    c3115528   4.943   0.994   1.827  0.4169 -0.1055 -0.5197
 3095poe    c3115529   1.161   2.826   5.408  0.3422 -0.1349  0.4888
 3095poe     o215530   1.190   2.699   5.353  0.3129 -0.3054  0.8646
 3095poe    c2315531   1.320   2.701   5.299 -0.0266 -0.1017  0.0458
 3095poe    c2315532   1.377   2.575   5.230 -0.2480 -0.0137 -0.3026
 3095poe     o215533   1.320   2.546   5.105 -0.2290 -0.2323 -0.2614
 3095poe    c2315534   1.355   2.412   5.077  0.1538 -0.1707 -0.0774
 3095poe    c2315535   1.263   2.334   4.981  0.0804  0.1507 -0.2703
 3095poe     o215536   1.159   2.276   5.056 -0.0452  0.4069 -0.2465
 3095poe    c2315537   1.074   2.210   4.966 -0.1051  0.2094 -0.0457
 3095poe    c2315538   0.945   2.152   5.028  0.1551 -0.2534  0.0636
 3095poe     o215539   0.870   2.245   5.102 -0.1010 -0.4126  0.0047
 3095poe    c3115540   0.733   2.214   5.088 -0.2574  0.1512  0.2273
 3096poe    c3115541   4.239   6.099   6.421 -0.0579 -0.2921 -0.1550
 3096poe     o215542   4.279   5.999   6.511  0.4231 -0.1164 -0.1687
 3096poe    c2315543   4.360   5.904   6.445  0.8590  0.0094  0.1811
 3096poe    c2315544   4.362   5.774   6.528  0.3065  0.0746  0.3014
 3096poe     o215545   4.231   5.761   6.578  0.1591  0.4104  0.0120
 3096poe    c2315546   4.219   5.634   6.639  0.2280  0.1620 -0.4840
 3096poe    c2315547   4.102   5.625   6.739  0.3865 -0.0959 -0.3228
 3096poe     o215548   4.119   5.713   6.847 -0.1596 -0.3314 -0.0390
 3096poe    c2315549   4.002   5.694   6.923 -0.0981 -0.0001  0.1436
 3096poe    c2315550   4.000   5.787   7.046 -0.7922 -0.2350  0.3152
 3096poe     o215551   4.003   5.922   7.007 -0.4762 -0.2002  0.4568
 3096poe    c3115552   4.014   6.007   7.119 -0.0548  0.4219 -0.0451
 3097poe    c3115553   5.169   0.927   4.573  0.3194 -0.0988  0.0160
 3097poe     o215554   5.057   0.872   4.639 -0.1084  0.3893 -0.2948
 3097poe    c2315555   4.971   0.981   4.662 -0.3115  0.3468 -0.8239
 3097poe    c2315556   4.864   0.968   4.772  0.3478 -0.4987 -0.2779
 3097poe     o215557   4.920   0.986   4.901 -0.0646 -0.1260 -0.1498
 3097poe    c2315558   4.845   1.069   4.987  0.3563  0.0614  0.0372
 3097poe    c2315559   4.918   1.097   5.120 -0.5394 -0.2491  0.6020
 3097poe     o215560   5.042   1.162   5.100 -0.7069 -0.1538 -0.1823
 3097poe    c2315561   5.040   1.290   5.159  0.2912 -0.3828  0.3780
 3097poe    c2315562   5.047   1.412   5.065  0.6288 -0.4118  0.3631
 3097poe     o215563   5.162   1.426   4.986  0.4413  0.8192  0.2863
 3097poe    c3115564   5.156   1.559   4.939  0.3373  0.6953 -0.0545
 3098poe    c3115565   5.486   1.423   5.036 -0.1862 -0.0498  1.1629
 3098poe     o215566   5.579   1.408   5.141  0.4417 -0.6712  0.5280
 3098poe    c2315567   5.672   1.311   5.099 -0.3198 -1.1594 -0.0602
 3098poe    c2315568   5.765   1.272   5.215 -0.3378 -0.3188  0.2420
 3098poe     o215569   5.833   1.384   5.267 -0.2055 -0.4690  0.3939
 3098poe    c2315570   5.869   1.386   5.403 -0.5307 -0.0352  0.4783
 3098poe    c2315571   5.939   1.516   5.446  0.0544 -0.0567 -0.3741
 3098poe     o215572   5.853   1.627   5.430 -0.0344 -0.0810 -0.0832
 3098poe    c2315573   5.939   1.738   5.420 -0.1858  0.0741  0.3156
 3098poe    c2315574   5.869   1.863   5.363 -0.2643  0.0678  0.3983
 3098poe     o215575   5.832   1.847   5.228 -0.1073  0.3732  0.3189
 3098poe    c3115576   5.793   1.977   5.192  0.4907  0.5785  0.3905
 3099poe    c3115577   3.584   2.246   1.125  0.3235 -0.5137 -0.0145
 3099poe     o215578   3.564   2.152   1.229  0.4792  0.1906  0.6661
 3099poe    c2315579   3.537   2.029   1.166 -0.0801  0.7089 -0.1396
 3099poe    c2315580   3.596   1.926   1.265  0.3382  0.8897 -0.1998
 3099poe     o215581   3.683   1.979   1.363 -0.1765 -0.1361  0.8372
 3099poe    c2315582   3.757   1.873   1.419 -0.2988 -0.5579  0.2164
 3099poe    c2315583   3.873   1.913   1.512 -0.1485 -0.7585  0.1150
 3099poe     o215584   3.980   1.960   1.433 -0.1674 -0.1859  0.4230
 3099poe    c2315585   4.063   2.049   1.503 -0.1690 -0.2004  0.4435
 3099poe    c2315586   4.154   2.133   1.411  0.0498 -0.1009  0.7504
 3099poe     o215587   4.080   2.248   1.376  0.5981  0.1112  0.2705
 3099poe    c3115588   4.173   2.340   1.324  0.2354  0.8530  0.9117
 3100poe    c3115589   1.184   6.814   6.397  0.0140 -0.1203 -0.4586
 3100poe     o215590   1.245   6.814   6.525 -0.5105  0.1025 -0.2062
 3100poe    c2315591   1.381   6.849   6.523 -0.2009 -1.0573 -0.2378
 3100poe    c2315592   1.449   6.780   6.643 -0.1427 -0.1350  0.2658
 3100poe     o215593   1.368   6.803   6.756 -0.1936  0.0547  0.1914
 3100poe    c2315594   1.428   6.748   6.871 -0.1266 -0.7094 -0.2009
 3100poe    c2315595   1.332   6.771   6.988  0.6820 -0.8240  0.4952
 3100poe     o215596   1.209   6.702   6.997 -0.0186  0.2500 -0.5189
 3100poe    c2315597   1.147   6.732   7.120  0.5577  0.2409 -0.2244
 3100poe    c2315598   0.998   6.697   7.109  0.5634  0.3832 -0.7574
 3100poe     o215599   0.987   6.557   7.126  0.0044  0.4327 -0.6805
 3100poe    c3115600   0.911   6.497   7.024 -0.3447 -0.3558  0.0383
 3101poe    c3115601   4.383   6.710   5.624  0.3031  0.2979 -0.2082
 3101poe     o215602   4.280   6.800   5.590  0.0478  0.1522  0.1756
 3101poe    c2315603   4.156   6.763   5.646  0.6301 -0.5636  1.0215
 3101poe    c2315604   4.098   6.859   5.752  0.1884 -0.1002  0.3691
 3101poe     o215605   4.060   6.972   5.677  0.4807 -0.0875  0.2391
 3101poe    c2315606   4.010   7.078   5.754 -0.2872 -0.2335 -0.0463
 3101poe    c2315607   3.860   7.057   5.782 -0.0647 -1.2495  0.4047
 3101poe     o215608   3.795   7.047   5.658  0.2196 -0.0729  0.1466
 3101poe    c2315609   3.683   6.961   5.667 -0.1489  0.4017  0.0897
 3101poe    c2315610   3.607   6.930   5.536  0.0734  0.1114  0.0311
 3101poe     o215611   3.474   6.897   5.570 -0.0878  0.8131  0.0786
 3101poe    c3115612   3.424   6.818   5.465  0.4147  0.8099 -0.1602
 3102poe    c3115613   0.670   5.123   5.092 -0.4628  0.1861 -0.2903
 3102poe     o215614   0.709   5.035   5.194 -0.1877  0.8253  0.1616
 3102poe    c2315615   0.618   4.927   5.198  0.6405  0.0843 -0.3993
 3102poe    c2315616   0.680   4.811   5.278 -0.4740  0.0496  0.4488
 3102poe     o215617   0.805   4.781   5.218 -0.7092  0.5963 -0.3422
 3102poe    c2315618   0.810   4.667   5.135  0.3136  0.0627  0.4315
 3102poe    c2315619   0.958   4.646   5.097  0.1953  0.0827 -0.0424
 3102poe     o215620   1.005   4.740   5.003 -0.6725  0.4242 -0.1439
 3102poe    c2315621   0.982   4.693   4.872 -0.2062 -0.7929  0.1944
 3102poe    c2315622   1.075   4.754   4.765 -0.7964 -0.2801 -0.0275
 3102poe     o215623   1.053   4.892   4.745  0.3921  0.0053  0.5776
 3102poe    c3115624   1.157   4.956   4.675  0.2518  0.1403  0.4914
 3103poe    c3115625   6.527   4.326   2.511  0.0882  0.5882  0.1081
 3103poe     o215626   6.488   4.446   2.448  0.1535  0.5844  0.0608
 3103poe    c2315627   6.455   4.416   2.314 -0.7177 -0.4547  0.4939
 3103poe    c2315628   6.386   4.530   2.235 -0.1348 -0.5051 -0.0946
 3103poe     o215629   6.253   4.544   2.280 -0.0881  0.8346 -0.3609
 3103poe    c2315630   6.149   4.508   2.192  0.1628  0.2274 -0.4075
 3103poe    c2315631   6.140   4.354   2.199 -0.5335  0.3240  1.0448
 3103poe     o215632   6.129   4.298   2.328  0.3825 -0.1169  0.9375
 3103poe    c2315633   6.095   4.161   2.334 -0.1658 -0.0105  0.3347
 3103poe    c2315634   6.158   4.077   2.446 -0.1633 -0.5039 -0.0304
 3103poe     o215635   6.120   4.116   2.576 -0.1907 -0.6089 -0.0071
 3103poe    c3115636   6.193   4.062   2.685 -0.6559 -0.4727  0.3742
 3104poe    c3115637   4.058   4.549   4.021  0.1529 -0.5255 -0.1056
 3104poe     o215638   3.939   4.611   3.979  0.3889  0.2766  0.3792
 3104poe    c2315639   3.863   4.665   4.085 -0.5358 -0.2767  0.0076
 3104poe    c2315640   3.738   4.744   4.043 -0.6217 -0.5782 -0.3094
 3104poe     o215641   3.766   4.846   3.950 -0.5062 -0.1538  0.1899
 3104poe    c2315642   3.649   4.921   3.925 -0.2571  0.1631 -0.0402
 3104poe    c2315643   3.669   5.015   3.805  0.5408  0.5699  0.4007
 3104poe     o215644   3.577   5.122   3.806 -0.0881  0.0829 -1.2628
 3104poe    c2315645   3.656   5.235   3.775  0.3820  0.1902  0.2471
 3104poe    c2315646   3.581   5.368   3.754  0.2438  0.0835  0.0677
 3104poe     o215647   3.563   5.421   3.624  0.3062  0.1316  0.0790
 3104poe    c3115648   3.665   5.506   3.576  0.7510 -0.5910 -0.2685
 3105poe    c3115649   5.672   4.811   1.972 -0.3209 -0.3635 -0.4001
 3105poe     o215650   5.598   4.860   1.862 -0.3339 -0.9284 -0.6474
 3105poe    c2315651   5.460   4.851   1.889 -0.3698  0.2001 -0.4071
 3105poe    c2315652   5.383   4.717   1.886 -0.1439  0.0702 -0.4188
 3105poe     o215653   5.432   4.652   1.771  0.4365 -0.2351 -0.0046
 3105poe    c2315654   5.349   4.542   1.745  0.0740 -0.1039  0.5849
 3105poe    c2315655   5.431   4.450   1.652 -0.5155  0.3324 -0.3675
 3105poe     o215656   5.490   4.509   1.538  0.4939 -0.2927 -0.1719
 3105poe    c2315657   5.584   4.423   1.476  0.1065 -0.7499 -0.1275
 3105poe    c2315658   5.731   4.412   1.520  0.0954  0.1117  0.1479
 3105poe     o215659   5.792   4.530   1.566  0.0455 -0.0459  0.6286
 3105poe    c3115660   5.931   4.511   1.578  0.0947  0.3596  0.7088
 3106poe    c3115661   2.428   6.625   3.475  0.3718  0.4007  0.2940
 3106poe     o215662   2.339   6.517   3.493  0.2588  0.4108 -0.1905
 3106poe    c2315663   2.400   6.425   3.580  0.0642 -0.0581 -0.5473
 3106poe    c2315664   2.337   6.285   3.591 -0.1809  0.0788 -0.1642
 3106poe     o215665   2.319   6.228   3.463  0.3450 -0.0331 -0.1903
 3106poe    c2315666   2.279   6.094   3.452  0.4055 -0.0808  0.1720
 3106poe    c2315667   2.218   6.079   3.311 -0.4601 -0.0542  0.5376
 3106poe     o215668   2.103   6.160   3.301 -0.4719 -0.0707  0.5374
 3106poe    c2315669   2.049   6.131   3.174  0.0756 -0.1518  0.3202
 3106poe    c2315670   1.922   6.218   3.176  0.1882  0.0436 -0.5080
 3106poe     o215671   1.941   6.344   3.237  0.0007  0.0477 -0.4571
 3106poe    c3115672   1.817   6.412   3.227 -0.1405 -0.0855  0.3499
 3107poe    c3115673   0.845   1.732   1.234  0.2156 -0.4995 -0.5134
 3107poe     o215674   0.971   1.671   1.220  0.2789 -0.5212  0.1066
 3107poe    c2315675   1.065   1.749   1.150  0.2952  0.5264  1.2674
 3107poe    c2315676   1.208   1.692   1.142  0.0869  0.2087 -0.5885
 3107poe     o215677   1.214   1.590   1.044  0.6284 -0.2214 -0.1147
 3107poe    c2315678   1.255   1.478   1.119  0.7394 -0.1258 -0.0320
 3107poe    c2315679   1.291   1.361   1.026  0.1028 -0.1236 -0.2851
 3107poe     o215680   1.168   1.323   0.968  0.1392 -0.4713 -0.1354
 3107poe    c2315681   1.171   1.184   0.944  0.2796 -0.4788 -0.0724
 3107poe    c2315682   1.090   1.129   0.826 -0.1010 -0.2934  0.1014
 3107poe     o215683   0.968   1.192   0.859  0.0271 -0.1428  0.2904
 3107poe    c3115684   0.883   1.179   0.747  0.6515 -0.8493 -0.1148
 3108poe    c3115685   6.193   1.945   3.738  0.2036 -0.6260 -0.8181
 3108poe     o215686   6.320   2.004   3.725  0.0878 -0.2585 -0.3267
 3108poe    c2315687   6.310   2.140   3.687 -0.2870 -0.3303 -0.4883
 3108poe    c2315688   6.436   2.182   3.609  0.2110 -0.9222 -0.0219
 3108poe     o215689   6.444   2.124   3.481  0.1603 -0.3299 -0.2997
 3108poe    c2315690   6.410   2.210   3.374  0.0743  0.0799  0.0542
 3108poe    c2315691   6.473   2.347   3.343  0.7786 -0.1569  0.4142
 3108poe     o215692   6.606   2.340   3.296  0.4573 -0.3496 -0.4724
 3108poe    c2315693   6.679   2.451   3.344 -0.3933  0.1417 -0.2948
 3108poe    c2315694   6.725   2.440   3.490 -0.1303  0.0606 -0.3844
 3108poe     o215695   6.779   2.560   3.539 -0.0233 -0.2938  0.3892
 3108poe    c3115696   6.791   2.562   3.679  0.1050  1.3988  0.3779
 3109poe    c3115697   4.823   4.429   2.626  0.0077  0.2111 -0.3063
 3109poe     o215698   4.946   4.490   2.596  0.2851  0.0216  0.4221
 3109poe    c2315699   4.971   4.593   2.689  0.2687  0.5192 -0.1157
 3109poe    c2315700   5.077   4.690   2.634  0.2441  0.1706 -0.7821
 3109poe     o215701   5.198   4.620   2.619  0.2024 -0.0126 -0.2839
 3109poe    c2315702   5.294   4.716   2.580  0.0873  0.2512  0.0896
 3109poe    c2315703   5.407   4.651   2.499 -0.3202 -0.2130 -0.1140
 3109poe     o215704   5.472   4.567   2.592  0.3604  0.0130 -0.3827
 3109poe    c2315705   5.561   4.487   2.517  0.0099 -0.3805 -0.3801
 3109poe    c2315706   5.627   4.372   2.595  0.7123  0.1645 -0.1591
 3109poe     o215707   5.704   4.427   2.700  0.0962  0.1341  0.3140
 3109poe    c3115708   5.745   4.332   2.796  0.2584 -0.0127  0.0993
 3110poe    c3115709   0.210   2.391   0.738 -0.1311  0.8138  0.6286
 3110poe     o215710   0.301   2.470   0.665  0.6868 -0.1041  0.6490
 3110poe    c2315711   0.307   2.599   0.721  0.3798  0.0744  0.2773
 3110poe    c2315712   0.361   2.697   0.615 -0.3291  0.5470  0.3479
 3110poe     o215713   0.488   2.639   0.599 -0.5062  0.2091  0.1600
 3110poe    c2315714   0.562   2.700   0.495 -0.4394 -0.4169 -0.1695
 3110poe    c2315715   0.712   2.668   0.491 -0.3534 -0.0552  0.1160
 3110poe     o215716   0.783   2.716   0.604  0.2868 -0.1976 -0.2243
 3110poe    c2315717   0.924   2.712   0.591  0.3204 -0.3679  0.1798
 3110poe    c2315718   0.984   2.737   0.730 -0.1435 -0.2227  0.3560
 3110poe     o215719   0.938   2.654   0.835 -0.6028 -0.3105  0.0876
 3110poe    c3115720   1.035   2.644   0.937  0.1069 -0.2569 -0.5654
 3111poe    c3115721   6.385   0.879   2.985  0.5024  0.2305  0.6526
 3111poe     o215722   6.275   0.958   2.947  0.5710  0.2724  0.5408
 3111poe    c2315723   6.315   1.049   2.846 -0.0734 -0.4942 -0.4189
 3111poe    c2315724   6.286   1.008   2.701 -1.2053 -0.4654 -0.2117
 3111poe     o215725   6.148   1.019   2.673 -1.2396 -0.8056 -0.1774
 3111poe    c2315726   6.113   0.976   2.543  0.1555 -0.2017 -0.7771
 3111poe    c2315727   5.961   0.999   2.529  0.0280 -0.0819  0.6310
 3111poe     o215728   5.886   0.903   2.600  0.5078 -0.8184  0.1616
 3111poe    c2315729   5.747   0.924   2.582  0.5565 -0.1361  0.5751
 3111poe    c2315730   5.682   0.805   2.654 -0.0754 -0.0944  0.0734
 3111poe     o215731   5.658   0.802   2.793  0.0452  0.4505  0.1084
 3111poe    c3115732   5.540   0.871   2.823 -0.0087  0.1698  0.5525
 3112poe    c3115733   6.054   0.514   4.442 -0.2757 -0.5229 -0.7140
 3112poe     o215734   6.038   0.611   4.341  0.4789  0.3642 -0.0054
 3112poe    c2315735   5.958   0.578   4.229 -0.5384  0.5171  0.6698
 3112poe    c2315736   5.940   0.702   4.140  0.2937  0.1842  0.0329
 3112poe     o215737   6.073   0.749   4.129  0.2644  0.2158 -0.1990
 3112poe    c2315738   6.098   0.817   4.008  0.2485  0.4705 -0.0619
 3112poe    c2315739   6.251   0.836   4.017  0.3493 -0.5198  0.5352
 3112poe     o215740   6.275   0.878   4.150  0.7285 -0.2280  0.3746
 3112poe    c2315741   6.409   0.919   4.170  0.4573  1.0155 -0.2408
 3112poe    c2315742   6.430   1.028   4.276  0.6859  0.3613  0.3959
 3112poe     o215743   6.346   1.008   4.387 -0.8128 -0.4568 -0.8397
 3112poe    c3115744   6.411   1.074   4.494 -0.2831 -0.3776 -1.2075
 3113poe    c3115745   2.844   0.116   5.743  0.0930 -0.4735 -0.0342
 3113poe     o215746   2.883   0.046   5.859  0.1931 -0.3193  0.0242
 3113poe    c2315747   2.779  -0.029   5.918 -0.0175 -0.5757 -0.6646
 3113poe    c2315748   2.806  -0.108   6.047 -0.2036  0.4611  0.0238
 3113poe     o215749   2.912  -0.201   6.050 -0.2731  0.3795 -0.0617
 3113poe    c2315750   2.871  -0.292   6.149 -0.2615  0.1252 -0.2891
 3113poe    c2315751   2.784  -0.410   6.102 -0.3300  0.1132 -0.1337
 3113poe     o215752   2.855  -0.509   6.030 -0.3172  0.0773 -0.0718
 3113poe    c2315753   2.771  -0.592   5.954 -0.7405  0.3021  0.1488
 3113poe    c2315754   2.802  -0.567   5.805 -0.2917  0.5377  0.2794
 3113poe     o215755   2.933  -0.552   5.757 -0.3268 -0.3875 -0.1269
 3113poe    c3115756   2.942  -0.543   5.617  0.5462 -0.3899 -0.0804
 3114poe    c3115757   7.192   6.767   5.085 -0.4244  0.0375 -0.2943
 3114poe     o215758   7.291   6.729   4.992 -0.5691 -0.0994 -0.3916
 3114poe    c2315759   7.418   6.783   5.020 -0.3742 -0.3197 -0.8262
 3114poe    c2315760   7.506   6.713   4.915  1.2291 -0.7205  0.7241
 3114poe     o215761   7.447   6.585   4.903  0.0107 -0.1435  0.3623
 3114poe    c2315762   7.515   6.518   4.799 -0.2116  0.1608  0.0162
 3114poe    c2315763   7.426   6.394   4.781  0.0255 -0.0336  0.1675
 3114poe     o215764   7.299   6.445   4.746  0.0427 -0.1583 -0.0798
 3114poe    c2315765   7.234   6.370   4.646 -0.6238  0.2254  0.0608
 3114poe    c2315766   7.099   6.316   4.696 -0.2174 -0.7553  0.1174
 3114poe     o215767   6.981   6.392   4.684  0.1633 -0.2003 -0.1394
 3114poe    c3115768   6.930   6.396   4.552  0.0674 -0.2788 -0.1048
 3115poe    c3115769   2.174   4.681   5.774  0.3615  0.1332  0.1684
 3115poe     o215770   2.162   4.616   5.899  0.6023 -0.7912 -0.2773
 3115poe    c2315771   2.084   4.678   5.999 -0.3734 -1.0134 -0.8903
 3115poe    c2315772   1.931   4.679   5.984 -0.4348  0.2113 -0.3525
 3115poe     o215773   1.868   4.554   5.962 -0.1201 -0.0142  0.0286
 3115poe    c2315774   1.744   4.577   5.900 -0.4317 -0.0938  0.6115
 3115poe    c2315775   1.629   4.565   6.002 -0.8553  0.1889  0.1696
 3115poe     o215776   1.590   4.431   6.023 -0.5691 -0.0445 -0.7273
 3115poe    c2315777   1.480   4.438   6.111  0.5468  0.4135  0.6808
 3115poe    c2315778   1.452   4.292   6.150  0.1610  0.3255  0.0966
 3115poe     o215779   1.383   4.227   6.045  0.6332  0.3219 -0.2162
 3115poe    c3115780   1.387   4.087   6.054 -0.7817  0.2686 -0.1246
 3116poe    c3115781   5.374   0.130   4.285  0.1257 -0.3286 -0.5205
 3116poe     o215782   5.290   0.219   4.215 -0.2560  0.3098  0.7195
 3116poe    c2315783   5.364   0.257   4.101 -0.4536  0.0045  0.4869
 3116poe    c2315784   5.297   0.344   3.993  0.6540 -0.1258 -0.3140
 3116poe     o215785   5.205   0.272   3.914  0.2095 -0.2275  0.2921
 3116poe    c2315786   5.111   0.346   3.841  0.2441 -0.3589  0.1147
 3116poe    c2315787   5.036   0.252   3.745  0.3631  0.2069 -0.5444
 3116poe     o215788   4.989   0.137   3.811 -0.5581  0.6093 -0.4836
 3116poe    c2315789   4.935   0.038   3.727  0.4001  0.0386 -0.4401
 3116poe    c2315790   4.889  -0.085   3.808 -0.2562  0.5721  0.0087
 3116poe     o215791   4.984  -0.095   3.912 -0.0873 -0.1161 -0.2090
 3116poe    c3115792   4.954  -0.211   3.987 -0.1237  0.3132  0.4436
 3117poe    c3115793   1.927   1.399   0.860 -0.4828  0.5985 -0.2728
 3117poe     o215794   2.018   1.408   0.753 -0.6256  0.0608 -0.4405
 3117poe    c2315795   2.004   1.544   0.717 -0.5892  0.1050 -0.2900
 3117poe    c2315796   2.126   1.573   0.628 -0.0628 -0.3213  0.2819
 3117poe     o215797   2.163   1.458   0.556 -0.0019 -0.0893 -0.0623
 3117poe    c2315798   2.294   1.487   0.513 -0.1189  0.2687 -0.1779
 3117poe    c2315799   2.348   1.379   0.418 -0.9290  0.2761 -0.6525
 3117poe     o215800   2.360   1.267   0.503  0.3627  0.2064 -0.9076
 3117poe    c2315801   2.458   1.182   0.448  0.8984  0.1828  0.0626
 3117poe    c2315802   2.519   1.092   0.557  0.1315 -0.8772 -0.3600
 3117poe     o215803   2.428   0.987   0.578 -0.2316 -0.4024  0.4907
 3117poe    c3115804   2.466   0.889   0.672  0.3599 -0.3540  0.3056
 3118poe    c3115805   4.000   7.221   2.863 -0.3156  0.1672  0.4291
 3118poe     o215806   3.978   7.326   2.771  0.4826  0.1080  0.1685
 3118poe    c2315807   4.084   7.419   2.756  0.2528  0.3575  0.0879
 3118poe    c2315808   4.097   7.457   2.608 -0.3666 -0.1155 -0.0940
 3118poe     o215809   3.994   7.537   2.554 -0.4489 -0.4779 -0.4779
 3118poe    c2315810   4.060   7.636   2.479  0.0094  0.3255  0.9491
 3118poe    c2315811   3.964   7.713   2.386  0.5885 -0.1264 -0.0503
 3118poe     o215812   3.891   7.621   2.308 -0.2083 -0.0092  0.5414
 3118poe    c2315813   3.796   7.684   2.224 -0.2239 -0.9219 -0.1413
 3118poe    c2315814   3.838   7.711   2.079 -0.0165  0.9136  0.2276
 3118poe     o215815   3.832   7.844   2.032 -0.3574  0.9014  0.2308
 3118poe    c3115816   3.873   7.856   1.898  0.0888  1.3051  0.3988
 3119poe    c3115817   1.002   2.888   1.872 -0.5525 -0.0027  0.0770
 3119poe     o215818   0.892   2.960   1.821 -0.2926  0.1193 -0.3192
 3119poe    c2315819   0.771   2.894   1.852  0.0257 -0.1686  0.3245
 3119poe    c2315820   0.662   2.906   1.745  0.0541  0.2128  0.3357
 3119poe     o215821   0.655   3.041   1.705  0.5023  0.0279 -0.3942
 3119poe    c2315822   0.559   3.046   1.602  0.3144  0.4561 -0.2012
 3119poe    c2315823   0.529   3.191   1.560 -0.5693  0.2763 -0.1989
 3119poe     o215824   0.652   3.246   1.519 -0.2444 -0.5455 -0.3310
 3119poe    c2315825   0.633   3.351   1.427 -0.1641 -0.7663 -0.6012
 3119poe    c2315826   0.739   3.387   1.321  0.4686 -0.0169  0.2747
 3119poe     o215827   0.747   3.280   1.231  0.2608 -0.2679  0.5533
 3119poe    c3115828   0.797   3.307   1.102 -0.8384  0.4904  0.2776
 3120poe    c3115829   1.594   6.350   6.913  0.1135 -0.3167  0.0529
 3120poe     o215830   1.491   6.259   6.943 -0.1748 -0.1629 -0.4631
 3120poe    c2315831   1.406   6.303   7.046  0.2436  0.4145 -0.3609
 3120poe    c2315832   1.279   6.217   7.050  0.3501  0.2704 -0.0373
 3120poe     o215833   1.305   6.084   7.091 -0.2672  0.1845  0.0907
 3120poe    c2315834   1.265   5.991   6.994 -0.3392  0.3127 -0.0031
 3120poe    c2315835   1.296   5.842   7.022  0.2374  0.4501  0.0906
 3120poe     o215836   1.232   5.798   7.140 -0.1354 -0.2517 -0.3698
 3120poe    c2315837   1.260   5.661   7.155 -0.6676 -0.3088  0.1137
 3120poe    c2315838   1.200   5.582   7.273 -0.1573 -0.7173  0.1037
 3120poe     o215839   1.256   5.616   7.398  0.2633 -0.3824 -0.1741
 3120poe    c3115840   1.223   5.541   7.513  0.3026  0.1666  0.1969
 3121poe    c3115841   0.842   3.167   6.479  0.1596 -0.3121 -0.5242
 3121poe     o215842   0.966   3.230   6.504  0.0427 -0.0996 -0.4782
 3121poe    c2315843   1.004   3.337   6.422 -0.0928  0.8441  0.6651
 3121poe    c2315844   1.157   3.351   6.432  0.0474  0.2027 -0.4051
 3121poe     o215845   1.195   3.369   6.566  0.1606  0.5097 -0.4757
 3121poe    c2315846   1.335   3.355   6.576  0.0631 -0.4784 -0.3783
 3121poe    c2315847   1.396   3.309   6.710 -0.1662 -0.4994 -0.2801
 3121poe     o215848   1.324   3.199   6.760 -0.3595 -0.4195 -0.3815
 3121poe    c2315849   1.385   3.159   6.880 -0.1480 -0.2671 -0.4384
 3121poe    c2315850   1.450   3.019   6.873 -0.2744 -0.3780  0.5022
 3121poe     o215851   1.369   2.908   6.843  0.2462 -0.4424 -0.7220
 3121poe    c3115852   1.426   2.780   6.862 -0.0514 -0.4921 -0.1339
 3122poe    c3115853   5.948   6.007   2.092  0.0301 -0.0708  0.3436
 3122poe     o215854   5.917   6.142   2.116 -0.4480 -0.1619  0.2529
 3122poe    c2315855   5.973   6.199   2.232 -0.5470 -0.2990  0.3675
 3122poe    c2315856   5.971   6.353   2.221 -0.2799 -0.3607 -0.5959
 3122poe     o215857   5.840   6.381   2.175 -0.4599 -0.0788  0.0841
 3122poe    c2315858   5.785   6.496   2.234  0.0723 -0.1537  0.7429
 3122poe    c2315859   5.653   6.527   2.161  0.5926 -0.0288 -0.1612
 3122poe     o215860   5.557   6.432   2.201 -0.0301  0.3858 -0.6580
 3122poe    c2315861   5.438   6.423   2.125 -0.1132 -0.7329 -0.4110
 3122poe    c2315862   5.341   6.310   2.165  0.0886 -0.5915  0.4946
 3122poe     o215863   5.393   6.185   2.125  0.0467 -0.3221 -0.4186
 3122poe    c3115864   5.299   6.082   2.143  0.0058 -0.2459 -0.1999
 3123poe    c3115865   5.101   4.121   3.645 -0.5564 -0.1792  0.4357
 3123poe     o215866   4.962   4.136   3.656 -0.5427  0.3727 -0.0993
 3123poe    c2315867   4.901   4.025   3.718  0.0730  0.3189  0.4120
 3123poe    c2315868   4.750   4.030   3.691  0.1611  0.3376 -0.1012
 3123poe     o215869   4.705   4.152   3.637  0.1900  0.3195 -0.1655
 3123poe    c2315870   4.566   4.147   3.613  0.1874 -0.0867 -0.0723
 3123poe    c2315871   4.521   4.288   3.571 -0.7535 -0.3698 -0.0297
 3123poe     o215872   4.566   4.327   3.443  0.1376 -0.0079  0.3838
 3123poe    c2315873   4.527   4.459   3.412 -0.2460 -0.3544 -0.6538
 3123poe    c2315874   4.625   4.560   3.473 -0.2529 -0.8486  0.1905
 3123poe     o215875   4.756   4.562   3.421 -0.3632  0.2112 -0.0736
 3123poe    c3115876   4.780   4.647   3.311  0.0210 -0.5303 -0.5721
 3124poe    c3115877   0.535   5.563   2.032  0.0677  0.1606  0.0922
 3124poe     o215878   0.478   5.686   2.070  0.0895  0.1812  0.0572
 3124poe    c2315879   0.407   5.670   2.190  0.1226 -0.4969 -0.0142
 3124poe    c2315880   0.419   5.793   2.281 -0.5853 -0.3659 -0.0943
 3124poe     o215881   0.530   5.805   2.368 -0.6928  0.3082 -0.0445
 3124poe    c2315882   0.533   5.927   2.439 -0.1879 -0.0626  0.5760
 3124poe    c2315883   0.667   5.937   2.515 -0.1213 -0.0795  0.4619
 3124poe     o215884   0.694   5.808   2.566 -0.0578 -0.0873  0.4063
 3124poe    c2315885   0.810   5.808   2.646  0.4966  0.1327 -0.3782
 3124poe    c2315886   0.843   5.666   2.697  0.4329  0.2480 -0.0074
 3124poe     o215887   0.852   5.590   2.579  0.3595  0.3207 -0.0600
 3124poe    c3115888   0.894   5.458   2.606 -0.1456 -0.0084 -0.8327
 3125poe    c3115889   4.551   3.003   5.702 -0.0045  0.8701  0.2658
 3125poe     o215890   4.660   3.005   5.611 -0.0750 -0.3519  0.1362
 3125poe    c2315891   4.663   2.882   5.543 -0.2403  0.1825 -0.8544
 3125poe    c2315892   4.748   2.903   5.417  0.4079  0.2266 -0.4140
 3125poe     o215893   4.888   2.914   5.422  0.4139  0.2099 -0.5520
 3125poe    c2315894   4.951   2.790   5.445 -0.0406  0.1770  0.5482
 3125poe    c2315895   5.099   2.795   5.490  0.1248  0.7465 -0.0455
 3125poe     o215896   5.139   2.816   5.623  0.2101 -0.3567  0.1135
 3125poe    c2315897   5.269   2.870   5.623  0.1166 -0.1313  0.1258
 3125poe    c2315898   5.391   2.779   5.644  0.1072 -0.2118 -0.1604
 3125poe     o215899   5.383   2.656   5.576  0.3568 -0.4431  0.2199
 3125poe    c3115900   5.510   2.610   5.534  0.2036 -0.3627 -0.3467
 3126poe    c3115901   6.403   5.414   2.854  0.3331  0.2218  0.6333
 3126poe     o215902   6.402   5.505   2.746  0.2965  0.2851  0.6870
 3126poe    c2315903   6.338   5.625   2.784 -0.6276  0.0565 -0.1138
 3126poe    c2315904   6.312   5.714   2.660  0.3849 -0.0977 -0.4418
 3126poe     o215905   6.415   5.805   2.630  0.5040 -0.2089 -0.3721
 3126poe    c2315906   6.353   5.924   2.587  0.1341 -0.1755  0.2405
 3126poe    c2315907   6.424   6.010   2.481 -0.6517  0.1041 -0.0611
 3126poe     o215908   6.532   6.080   2.540 -0.3525  0.1343 -0.6387
 3126poe    c2315909   6.603   6.173   2.461 -0.2982  0.6150 -0.0264
 3126poe    c2315910   6.726   6.104   2.399 -0.1199  0.3521  0.6077
 3126poe     o215911   6.828   6.053   2.482 -0.1116 -0.4708  0.1037
 3126poe    c3115912   6.791   5.925   2.530 -0.5500 -0.3080  0.2029
 3127poe    c3115913   2.717   5.844   5.617 -0.2849 -0.0677 -0.2553
 3127poe     o215914   2.716   5.715   5.559 -0.4476 -0.1264 -0.1243
 3127poe    c2315915   2.843   5.668   5.518 -0.2910 -0.1883  0.4302
 3127poe    c2315916   2.839   5.557   5.411 -0.0557  0.0642  0.1584
 3127poe     o215917   2.763   5.460   5.480  0.1446 -0.4853 -0.3946
 3127poe    c2315918   2.704   5.358   5.402 -0.2049 -0.4630 -0.1606
 3127poe    c2315919   2.643   5.244   5.486 -0.1846 -0.8379 -0.6494
 3127poe     o215920   2.535   5.299   5.559  0.1170 -0.2825 -0.6145
 3127poe    c2315921   2.421   5.217   5.565 -0.2976  0.3323  0.0623
 3127poe    c2315922   2.283   5.282   5.587 -0.6114 -0.3103  0.0511
 3127poe     o215923   2.286   5.372   5.695  0.1288  0.0086 -0.2219
 3127poe    c3115924   2.153   5.404   5.732 -0.0284 -0.3416 -0.4812
 3128poe    c3115925   2.641   6.287   5.521 -0.3074 -0.2315 -0.6885
 3128poe     o215926   2.705   6.378   5.434  0.0053  0.1186 -0.0995
 3128poe    c2315927   2.811   6.445   5.498  0.0522  0.4309 -0.5052
 3128poe    c2315928   2.944   6.367   5.501  0.2877  0.8209 -0.5455
 3128poe     o215929   2.964   6.318   5.371 -0.9021 -0.8349 -0.1496
 3128poe    c2315930   3.030   6.193   5.374  0.7716  0.0233 -0.0476
 3128poe    c2315931   2.992   6.112   5.249 -0.7080  0.7513 -0.0937
 3128poe     o215932   2.851   6.102   5.253 -0.6267 -0.3322  0.5275
 3128poe    c2315933   2.806   5.980   5.199  0.6532 -0.5060 -0.1961
 3128poe    c2315934   2.652   5.972   5.200  0.6312 -0.0644  0.3759
 3128poe     o215935   2.584   6.025   5.088 -0.3320 -0.5503  0.7226
 3128poe    c3115936   2.451   5.979   5.098 -0.4069 -0.4806  0.0739
 3129poe    c3115937   7.037   6.039   6.247 -0.2840  0.2636 -0.1223
 3129poe     o215938   6.914   6.092   6.201 -0.0763 -0.0256 -1.0388
 3129poe    c2315939   6.848   6.165   6.302 -0.1562 -0.6590 -0.6262
 3129poe    c2315940   6.699   6.124   6.294 -0.4858  0.4059 -0.1204
 3129poe     o215941   6.667   6.169   6.164  0.2309 -0.0346 -0.4611
 3129poe    c2315942   6.539   6.143   6.109  0.2269 -0.7262 -0.1368
 3129poe    c2315943   6.543   6.187   5.962 -0.9108  0.1309  0.0756
 3129poe     o215944   6.623   6.097   5.889 -0.7457  0.0787  0.3204
 3129poe    c2315945   6.582   6.094   5.754 -0.2021 -0.4596  0.1645
 3129poe    c2315946   6.617   5.954   5.699  0.1862 -0.4228  0.3137
 3129poe     o215947   6.755   5.926   5.692  0.2838  0.1371 -0.1697
 3129poe    c3115948   6.768   5.788   5.667 -0.1586  0.0508  0.0645
 3130poe    c3115949   6.736   0.839   5.985  0.6513  0.6398 -0.0360
 3130poe     o215950   6.707   0.800   5.852 -0.2798  0.3448  0.2451
 3130poe    c2315951   6.800   0.851   5.759  0.2200  0.2101  0.6623
 3130poe    c2315952   6.843   0.998   5.751  0.2470  0.1577 -0.3804
 3130poe     o215953   6.944   1.014   5.654  0.2411 -0.3708 -0.4735
 3130poe    c2315954   6.977   1.145   5.614 -0.4402  0.0360  0.2588
 3130poe    c2315955   7.113   1.201   5.661 -0.2335 -0.4389  0.2384
 3130poe     o215956   7.236   1.170   5.600 -0.3064  0.1013 -0.1900
 3130poe    c2315957   7.258   1.030   5.596  0.4190  0.2079 -0.0677
 3130poe    c2315958   7.381   1.012   5.506  0.5779  0.0771  0.1771
 3130poe     o215959   7.460   1.124   5.540  0.4038  0.1446  0.3651
 3130poe    c3115960   7.587   1.096   5.485  0.0801 -0.6898  0.0304
 3131poe    c3115961   1.324   2.109   6.999 -0.2029 -0.2974  0.0040
 3131poe     o215962   1.353   2.245   7.023 -0.2815 -0.3285  0.2814
 3131poe    c2315963   1.268   2.309   7.115 -0.2420  0.7993 -0.4498
 3131poe    c2315964   1.334   2.398   7.223 -0.2050  0.1303  0.0814
 3131poe     o215965   1.383   2.515   7.162 -0.8036  0.2629 -0.1533
 3131poe    c2315966   1.513   2.546   7.206 -0.4364  0.2717 -1.1980
 3131poe    c2315967   1.550   2.695   7.224 -0.7252  0.2552 -0.4104
 3131poe     o215968   1.486   2.747   7.338 -0.6214 -0.5231  0.0099
 3131poe    c2315969   1.399   2.852   7.300  0.5150  0.0415 -1.0968
 3131poe    c2315970   1.340   2.929   7.420  0.8714 -1.1686 -0.1235
 3131poe     o215971   1.250   2.872   7.513  0.0104  0.2438 -0.0651
 3131poe    c3115972   1.202   2.969   7.603 -0.1661 -0.1271  0.2412
 3132poe    c3115973   0.838   5.407   6.961 -0.0047  0.5319  0.2652
 3132poe     o215974   0.722   5.355   6.899 -0.0000  0.5712  0.2223
 3132poe    c2315975   0.743   5.362   6.759 -0.2806 -0.0287  0.1501
 3132poe    c2315976   0.621   5.366   6.666  0.1239  0.1901 -0.3742
 3132poe     o215977   0.552   5.489   6.661 -0.2256 -0.0172 -0.7363
 3132poe    c2315978   0.454   5.488   6.560 -0.4679  0.2326 -0.5052
 3132poe    c2315979   0.374   5.619   6.575 -0.4801  0.1889 -0.1690
 3132poe     o215980   0.309   5.622   6.700  0.5712  0.1613  0.3845
 3132poe    c2315981   0.247   5.746   6.724 -0.1089 -0.1274  0.1306
 3132poe    c2315982   0.126   5.724   6.817 -0.1499 -0.3902  0.0178
 3132poe     o215983   0.182   5.678   6.938 -0.4568  0.1297  0.3607
 3132poe    c3115984   0.099   5.721   7.044 -0.0724  0.4199  0.5449
 3133poe    c3115985   7.286   0.932   1.582 -0.2821  0.7877  0.9788
 3133poe     o215986   7.216   0.810   1.571  0.1750  0.5773  0.2821
 3133poe    c2315987   7.279   0.710   1.647  0.2548  0.2377 -0.2292
 3133poe    c2315988   7.190   0.585   1.655  0.1158  0.3228 -0.4626
 3133poe     o215989   7.164   0.505   1.542 -0.4140  0.2189 -0.2736
 3133poe    c2315990   7.080   0.398   1.580 -0.3601  0.2481 -0.0737
 3133poe    c2315991   7.059   0.293   1.470  0.4815  0.2720 -0.2660
 3133poe     o215992   7.002   0.347   1.353 -0.2268  0.5864  0.2200
 3133poe    c2315993   6.959   0.250   1.260  0.6878  0.5987 -0.2230
 3133poe    c2315994   7.043   0.161   1.165 -0.0948  0.1808 -0.5330
 3133poe     o215995   7.082   0.228   1.048 -0.1680  0.8533 -0.1819
 3133poe    c3115996   7.186   0.160   0.982 -0.2342  0.8472 -0.2810
 3134poe    c3115997   5.656   5.255   0.034  0.0346  0.1724 -0.2818
 3134poe     o215998   5.634   5.358   0.127  0.0923  0.1881 -0.2851
 3134poe    c2315999   5.728   5.334   0.230 -0.4327  0.4099  0.2481
 3134poe    c2316000   5.666   5.399   0.355 -0.5056  0.1159  0.3642
 3134poe     o216001   5.659   5.538   0.334 -0.1466  0.0463 -0.2131
 3134poe    c2316002   5.668   5.605   0.458  0.5155 -0.0623 -0.1990
 3134poe    c2316003   5.629   5.753   0.463 -0.8040 -0.3606 -1.0489
 3134poe     o216004   5.707   5.858   0.408 -0.1740 -0.4117 -0.2742
 3134poe    c2316005   5.653   5.985   0.434  0.7606 -0.1076  0.2148
 3134poe    c2316006   5.721   6.117   0.392  0.0469  0.2285  0.1020
 3134poe     o216007   5.708   6.122   0.251  0.2537 -0.4327  0.0570
 3134poe    c3116008   5.620   6.219   0.199  0.9181 -0.3685 -0.9626
 3135poe    c3116009   6.738   2.827   3.999  0.0284  0.0138 -0.1566
 3135poe     o216010   6.751   2.965   3.977  0.4264 -0.0122 -0.0793
 3135poe    c2316011   6.680   3.004   3.862  0.0737 -0.0978  0.1100
 3135poe    c2316012   6.737   3.132   3.798  0.1660  0.1948  0.7699
 3135poe     o216013   6.858   3.128   3.726 -0.2583 -0.2933  0.0679
 3135poe    c2316014   6.911   3.236   3.654 -0.6470 -0.3285 -0.2739
 3135poe    c2316015   7.057   3.218   3.606 -0.5441  0.7830 -0.4075
 3135poe     o216016   7.065   3.119   3.507  0.2661  0.3602  0.0770
 3135poe    c2316017   7.198   3.123   3.459  0.3175 -0.3087  0.1462
 3135poe    c2316018   7.211   3.001   3.367 -0.1228 -0.5004  0.3341
 3135poe     o216019   7.118   3.004   3.261  0.4152  0.3967 -0.1277
 3135poe    c3116020   7.179   2.995   3.134 -0.0995 -0.9894 -0.2911
 3136poe    c3116021   4.663   6.471   4.230 -0.3901 -0.2693  0.1850
 3136poe     o216022   4.587   6.576   4.173 -0.0694 -0.3528 -0.4046
 3136poe    c2316023   4.632   6.616   4.045  0.7523  0.2904  0.0729
 3136poe    c2316024   4.543   6.734   4.002 -0.1622 -0.4702 -0.1470
 3136poe     o216025   4.406   6.723   4.037 -0.2305  0.1567 -0.2118
 3136poe    c2316026   4.343   6.685   3.917 -0.3469 -0.7309  0.1270
 3136poe    c2316027   4.190   6.665   3.918 -0.4397 -0.0785 -0.3982
 3136poe     o216028   4.107   6.779   3.917 -0.5154 -0.1270  0.0892
 3136poe    c2316029   4.083   6.831   3.788  0.5542 -0.4259 -0.2439
 3136poe    c2316030   4.028   6.975   3.787  0.4538 -0.4659 -0.7865
 3136poe     o216031   4.022   7.031   3.658 -0.1527  0.4968 -0.3415
 3136poe    c3116032   4.147   7.081   3.617  0.2689 -0.5115 -0.2874
 3137poe    c3116033   0.167   6.041   5.648 -1.0074 -0.0227 -0.7483
 3137poe     o216034   0.185   6.180   5.662  0.5863 -0.3284  0.4969
 3137poe    c2316035   0.083   6.234   5.743  0.7078 -0.2187  0.5761
 3137poe    c2316036   0.103   6.380   5.789 -0.1683 -0.0214  0.3494
 3137poe     o216037   0.213   6.410   5.872 -0.0007  0.4411 -0.0373
 3137poe    c2316038   0.242   6.548   5.875  0.0868  0.4314 -0.3575
 3137poe    c2316039   0.364   6.584   5.962 -0.0547  0.4334 -0.1586
 3137poe     o216040   0.488   6.535   5.915  0.0406  0.5300 -0.0124
 3137poe    c2316041   0.606   6.586   5.972  0.3230 -0.2577  0.1278
 3137poe    c2316042   0.730   6.509   5.924  0.1233  0.0336 -0.8935
 3137poe     o216043   0.723   6.371   5.954 -0.2374  0.3498  0.5853
 3137poe    c3116044   0.728   6.284   5.843 -0.2765  0.1275  0.7571
 3138poe    c3116045   4.571   1.237   0.351  0.0593  0.3312  0.5381
 3138poe     o216046   4.458   1.235   0.266  0.5234  0.0914 -0.0792
 3138poe    c2316047   4.407   1.110   0.226  0.1888  0.2815 -0.2487
 3138poe    c2316048   4.456   1.057   0.089 -0.0548 -0.0639 -0.2046
 3138poe     o216049   4.433   1.161  -0.004  0.3730  0.3468  0.1401
 3138poe    c2316050   4.495   1.137  -0.128  0.9204  0.2486  0.4291
 3138poe    c2316051   4.497   1.261  -0.220 -0.0417 -0.2468 -0.2709
 3138poe     o216052   4.379   1.278  -0.296 -0.2194 -0.0556  0.0458
 3138poe    c2316053   4.381   1.395  -0.375 -0.3290 -0.1476 -0.0925
 3138poe    c2316054   4.277   1.394  -0.489 -0.4937 -0.5533  0.0546
 3138poe     o216055   4.143   1.384  -0.448 -0.4176 -0.4933  0.3172
 3138poe    c3116056   4.062   1.396  -0.563  0.0322 -0.6264 -0.0157
 3139poe    c3116057   1.667   0.007   0.229 -0.1366  0.6305  0.5452
 3139poe     o216058   1.612  -0.053   0.344  0.0392  0.3684  0.4933
 3139poe    c2316059   1.715  -0.087   0.435 -0.4583 -0.4483  0.7576
 3139poe    c2316060   1.695  -0.040   0.580  0.3767  0.1998  0.6685
 3139poe     o216061   1.569  -0.078   0.630  0.4431 -0.1250  0.5918
 3139poe    c2316062   1.522  -0.007   0.742  0.6302 -0.3602  0.8200
 3139poe    c2316063   1.409  -0.084   0.814 -0.0148  0.2505  0.4747
 3139poe     o216064   1.435  -0.198   0.893 -0.3603 -0.0204  0.1982
 3139poe    c2316065   1.450  -0.325   0.834  0.6745  0.4157 -0.5120
 3139poe    c2316066   1.324  -0.372   0.758  0.0832 -0.1771  0.7954
 3139poe     o216067   1.212  -0.342   0.837 -0.3618 -0.1021  0.1466
 3139poe    c3116068   1.089  -0.359   0.770 -0.4696  0.2437  0.2525
 3140poe    c3116069   2.434   6.371   6.253 -0.1397  0.4209  0.0035
 3140poe     o216070   2.479   6.238   6.266  0.3354  0.6161  0.4009
 3140poe    c2316071   2.591   6.218   6.350  0.2822  0.1085  0.3508
 3140poe    c2316072   2.681   6.094   6.337  0.2779  0.1955 -0.5885
 3140poe     o216073   2.629   5.967   6.370 -0.1596  0.5926  0.2897
 3140poe    c2316074   2.532   5.920   6.279  0.2485 -0.2872  0.2937
 3140poe    c2316075   2.500   5.771   6.297  0.4241 -0.3212  0.3230
 3140poe     o216076   2.396   5.752   6.390 -0.3744 -0.1389 -0.5238
 3140poe    c2316077   2.359   5.617   6.396  0.1071 -0.2420  0.3422
 3140poe    c2316078   2.239   5.582   6.486  0.2240 -0.4432  0.4196
 3140poe     o216079   2.113   5.584   6.422  0.3605  0.2480  0.1648
 3140poe    c3116080   2.010   5.623   6.510 -0.0628 -0.0505 -0.1903
 3141poe    c3116081   0.966   5.087   1.891 -0.4118  0.5242  0.1336
 3141poe     o216082   1.054   5.089   1.781 -0.2607  0.3199  0.2513
 3141poe    c2316083   1.154   5.188   1.777  0.4503 -0.3965  0.0166
 3141poe    c2316084   1.274   5.156   1.869 -0.0100  0.3302  0.8895
 3141poe     o216085   1.391   5.234   1.851  0.1233 -0.0048  0.2697
 3141poe    c2316086   1.385   5.363   1.908 -0.5445  0.0154  0.1632
 3141poe    c2316087   1.507   5.442   1.859 -0.1340 -0.7771 -0.1142
 3141poe     o216088   1.488   5.457   1.720 -0.0916 -0.2429 -0.0669
 3141poe    c2316089   1.574   5.556   1.668 -0.3014  0.0908  0.2275
 3141poe    c2316090   1.558   5.599   1.521  0.0431  0.0845  0.1878
 3141poe     o216091   1.624   5.517   1.427  0.8751  0.3840  0.4989
 3141poe    c3116092   1.574   5.534   1.296  0.2936  0.9952  0.7922
 3142poe    c3116093   4.644   6.742   2.241  0.8529  0.0471 -0.1210
 3142poe     o216094   4.579   6.617   2.241  0.2638  0.3454  0.1175
 3142poe    c2316095   4.625   6.525   2.144 -0.3849  0.0288  0.1099
 3142poe    c2316096   4.549   6.392   2.157 -0.2817 -0.0934 -0.4989
 3142poe     o216097   4.410   6.398   2.133 -0.3179  0.3966 -0.1713
 3142poe    c2316098   4.337   6.288   2.182  0.1508  0.1228 -0.0837
 3142poe    c2316099   4.196   6.286   2.121  0.1198 -0.3460 -0.0058
 3142poe     o216100   4.206   6.269   1.981 -0.0662  0.7918 -0.1721
 3142poe    c2316101   4.093   6.217   1.915  0.1162  0.0949  0.0555
 3142poe    c2316102   4.084   6.258   1.767 -0.4593  0.1197  0.0957
 3142poe     o216103   4.059   6.396   1.757  0.0775  0.1736 -0.6059
 3142poe    c3116104   3.926   6.422   1.721 -0.0918 -0.2263 -0.2746
 3143poe    c3116105   3.889   1.918   5.529  0.2190  0.5672  0.2924
 3143poe     o216106   3.976   1.812   5.565 -0.2589  0.1213  0.1378
 3143poe    c2316107   4.098   1.882   5.572 -0.0778 -0.2221  0.4372
 3143poe    c2316108   4.227   1.810   5.614 -0.0094 -0.2653  0.1589
 3143poe     o216109   4.223   1.768   5.749  0.6251 -0.4390  0.1258
 3143poe    c2316110   4.347   1.719   5.795  0.6343 -0.4241  0.1169
 3143poe    c2316111   4.372   1.750   5.944  0.5932  0.2185 -0.0061
 3143poe     o216112   4.387   1.888   5.970 -0.7947  0.3523  0.1662
 3143poe    c2316113   4.417   1.914   6.105  0.3063 -0.9069  0.1796
 3143poe    c2316114   4.554   1.868   6.159  0.5101 -1.2426 -0.6039
 3143poe     o216115   4.657   1.942   6.098  0.3558 -0.0015  0.6057
 3143poe    c3116116   4.781   1.898   6.149  0.2250  0.3238  1.2233
 3144poe    c3116117   4.279   5.134   1.504 -0.1449 -0.2815  0.3060
 3144poe     o216118   4.293   5.191   1.376  0.4658 -0.2631  0.3742
 3144poe    c2316119   4.426   5.188   1.329  0.1769  0.0854 -0.4856
 3144poe    c2316120   4.436   5.273   1.202 -0.3828  0.3609 -0.3495
 3144poe     o216121   4.321   5.259   1.121 -0.4882  0.3725 -0.2020
 3144poe    c2316122   4.324   5.341   1.006 -0.3262 -0.0404 -0.4966
 3144poe    c2316123   4.200   5.329   0.916 -0.2433 -0.7347 -0.5238
 3144poe     o216124   4.090   5.360   0.999  0.2284 -0.3544 -0.0348
 3144poe    c2316125   3.976   5.380   0.918  0.0178 -0.7355  0.1682
 3144poe    c2316126   3.863   5.421   1.013  0.1489  0.2314 -0.0779
 3144poe     o216127   3.823   5.318   1.102 -0.0427  0.3514 -0.0249
 3144poe    c3116128   3.785   5.389   1.218 -0.0848  0.6233 -0.2036
 3145poe    c3116129   7.000   6.090   0.812 -0.6510  0.8122 -0.8378
 3145poe     o216130   6.897   6.044   0.896 -0.0661  0.5007 -0.2768
 3145poe    c2316131   6.801   5.986   0.811  0.0880  0.3174 -0.3241
 3145poe    c2316132   6.667   5.993   0.887  0.3450  0.5041  0.1103
 3145poe     o216133   6.674   5.920   1.007  0.1716  0.5125  0.1259
 3145poe    c2316134   6.552   5.940   1.075  0.1806 -0.1680  0.3528
 3145poe    c2316135   6.553   5.885   1.219 -0.0828 -0.4000  0.2673
 3145poe     o216136   6.661   5.945   1.286 -0.4450 -0.0097  0.5000
 3145poe    c2316137   6.718   5.847   1.370  0.1802 -0.2972 -0.2539
 3145poe    c2316138   6.838   5.884   1.459  0.2137 -0.7234 -0.1200
 3145poe     o216139   6.959   5.889   1.387  0.0997  0.0510 -0.2643
 3145poe    c3116140   7.067   5.910   1.475  0.0490 -0.0760 -0.1720
 3146poe    c3116141   5.636   0.037   6.872 -0.1437 -0.0115  0.0965
 3146poe     o216142   5.763  -0.020   6.895 -0.2951 -0.5357 -0.3563
 3146poe    c2316143   5.775  -0.093   7.015 -0.4872 -0.1171 -0.0803
 3146poe    c2316144   5.882  -0.200   6.989 -0.0918 -0.0199  1.0958
 3146poe     o216145   6.005  -0.134   6.968 -0.0840 -0.4322 -0.2716
 3146poe    c2316146   6.095  -0.241   6.987  0.4058  0.1104  0.5226
 3146poe    c2316147   6.234  -0.175   6.997  0.6442 -0.2756 -0.1349
 3146poe     o216148   6.262  -0.086   6.891 -0.3100  0.2364  0.0267
 3146poe    c2316149   6.369   0.004   6.909 -0.1295  0.0040  0.1268
 3146poe    c2316150   6.398   0.081   6.779  0.4096 -0.4533 -0.0264
 3146poe     o216151   6.266   0.100   6.733  0.4215  0.4530  0.2875
 3146poe    c3116152   6.269   0.147   6.601 -0.3134  0.1301  0.1523
 3147poe    c3116153   0.465   1.648   4.938 -0.1636 -0.2154  0.1693
 3147poe     o216154   0.496   1.772   4.878 -0.4633  0.0372  0.5304
 3147poe    c2316155   0.444   1.885   4.944  0.2641  0.5690  0.2061
 3147poe    c2316156   0.508   2.012   4.886  0.2523  0.4542 -0.0580
 3147poe     o216157   0.439   2.049   4.769 -0.1426  0.2747  0.1152
 3147poe    c2316158   0.477   2.162   4.692  0.3156  0.1420  0.1435
 3147poe    c2316159   0.569   2.139   4.571  0.2792  0.5263  0.0425
 3147poe     o216160   0.496   2.147   4.450  0.1413  0.0700  0.0947
 3147poe    c2316161   0.543   2.244   4.360  0.2629  0.3083  0.4143
 3147poe    c2316162   0.430   2.289   4.265  0.0192  0.3287  0.7133
 3147poe     o216163   0.363   2.177   4.211  0.1092  0.4594  0.3318
 3147poe    c3116164   0.273   2.225   4.113 -0.1529 -0.7940 -0.0571
 3148poe    c3116165   6.138   3.342   3.242  0.0747 -0.3088 -0.0514
 3148poe     o216166   6.254   3.343   3.162  0.3883 -0.0250  0.4053
 3148poe    c2316167   6.286   3.217   3.108 -0.0247  0.0673 -0.0636
 3148poe    c2316168   6.357   3.240   2.973  0.2292 -0.6290 -0.0555
 3148poe     o216169   6.273   3.314   2.888  0.6068 -0.0607  0.0539
 3148poe    c2316170   6.339   3.395   2.794 -0.3874  0.6312 -0.0601
 3148poe    c2316171   6.263   3.436   2.666 -1.0011 -0.5600 -0.0911
 3148poe     o216172   6.171   3.536   2.705 -0.4054 -0.0050 -0.0909
 3148poe    c2316173   6.116   3.585   2.585  0.5231  0.6827 -0.2449
 3148poe    c2316174   6.046   3.713   2.633 -0.4350  0.2467 -0.4473
 3148poe     o216175   5.980   3.695   2.756 -0.0278 -0.5294 -0.3416
 3148poe    c3116176   5.898   3.805   2.787  0.2676 -0.5073  0.3824
 3149poe    c3116177   3.994   2.725   4.347  0.1901  0.3174 -0.0622
 3149poe     o216178   3.948   2.839   4.279  0.2170  0.4269  0.1020
 3149poe    c2316179   3.892   2.914   4.384  0.5156 -0.1310  0.6600
 3149poe    c2316180   3.879   3.066   4.363 -0.3331 -0.3699 -0.6381
 3149poe     o216181   3.778   3.126   4.284 -0.1371  0.0534 -0.5692
 3149poe    c2316182   3.769   3.262   4.319 -0.1401 -0.0118 -0.3103
 3149poe    c2316183   3.622   3.302   4.293 -0.3497 -0.6010 -0.0487
 3149poe     o216184   3.590   3.296   4.156  0.0324  0.0698 -0.1697
 3149poe    c2316185   3.641   3.397   4.071  0.8195 -0.6677 -0.5861
 3149poe    c2316186   3.568   3.369   3.938 -0.4159 -0.3273  0.0109
 3149poe     o216187   3.597   3.233   3.916 -0.0196 -0.2969  0.3358
 3149poe    c3116188   3.562   3.212   3.781  0.2978  0.5372  0.1166
 3150poe    c3116189   0.207   0.552   0.715  0.6632 -0.0509  0.2438
 3150poe     o216190   0.193   0.489   0.840 -0.8058  0.2467  0.2471
 3150poe    c2316191   0.150   0.357   0.815 -0.1841  0.1126 -0.1278
 3150poe    c2316192   0.191   0.292   0.949 -0.3584 -0.3012 -0.2717
 3150poe     o216193   0.134   0.373   1.050  0.2003  0.4931 -0.5822
 3150poe    c2316194   0.173   0.350   1.183 -0.0414  0.0237 -0.5904
 3150poe    c2316195   0.098   0.435   1.288 -0.0729 -0.2821 -0.3653
 3150poe     o216196   0.118   0.565   1.239  0.4594 -0.1876  0.0858
 3150poe    c2316197   0.090   0.650   1.348  0.7275  0.0397 -0.0224
 3150poe    c2316198   0.093   0.800   1.312  0.3017  0.0835  0.1231
 3150poe     o216199  -0.019   0.823   1.229  0.1607 -0.1651  0.2418
 3150poe    c3116200  -0.032   0.959   1.193  0.2788 -0.3442 -0.4946
 3151poe    c3116201   6.938   6.245   2.074 -0.0828  0.2066 -0.3435
 3151poe     o216202   6.962   6.366   2.143  0.1109 -0.1388  0.1993
 3151poe    c2316203   6.848   6.391   2.222  0.1009  0.2863  0.0522
 3151poe    c2316204   6.831   6.535   2.273  0.1970  0.4367 -0.3407
 3151poe     o216205   6.927   6.577   2.368 -0.2838 -0.5363  0.5966
 3151poe    c2316206   6.873   6.677   2.453 -0.5710 -0.4811  0.3514
 3151poe    c2316207   6.956   6.728   2.572 -0.0946  0.3045 -0.3053
 3151poe     o216208   7.054   6.808   2.511 -0.1815  0.5050 -0.1811
 3151poe    c2316209   7.153   6.843   2.605 -0.4555  0.2082  0.2182
 3151poe    c2316210   7.276   6.906   2.538 -0.6284 -0.1684 -0.4601
 3151poe     o216211   7.346   6.820   2.451 -0.4325 -0.7005  0.2141
 3151poe    c3116212   7.483   6.846   2.425 -0.4581  0.1231  0.8402
 3152poe    c3116213   0.933   5.972   0.973  0.1674  0.3048 -0.6595
 3152poe     o216214   0.796   5.940   0.962  0.2111 -0.0535 -0.1844
 3152poe    c2316215   0.756   5.939   0.827  0.0115  0.3544 -0.1318
 3152poe    c2316216   0.607   5.979   0.826  0.1218  0.7698 -0.0961
 3152poe     o216217   0.555   5.909   0.937  0.6262 -0.4986 -0.6434
 3152poe    c2316218   0.416   5.919   0.955  0.7615 -0.0466  0.1911
 3152poe    c2316219   0.358   5.880   1.093 -0.2011 -0.1173 -0.2234
 3152poe     o216220   0.426   5.957   1.190 -0.0717 -0.2900 -0.1762
 3152poe    c2316221   0.376   5.955   1.322  0.3469 -0.0017 -0.0110
 3152poe    c2316222   0.450   6.050   1.417  0.4925  0.3395 -0.4651
 3152poe     o216223   0.589   6.026   1.426  0.4269  0.1430  0.0411
 3152poe    c3116224   0.627   5.972   1.551  0.2766  0.2805  0.1467
 3153poe    c3116225   2.414   2.606   1.967 -0.2305  0.2531 -0.4886
 3153poe     o216226   2.300   2.654   2.036  0.0185 -0.1031  0.1757
 3153poe    c2316227   2.278   2.790   2.008  0.2646  0.0640  0.7785
 3153poe    c2316228   2.126   2.808   1.985  0.4513  0.6099 -0.0843
 3153poe     o216229   2.065   2.767   2.105 -0.1812  0.5666 -0.4201
 3153poe    c2316230   1.961   2.858   2.133 -0.3850  0.3024 -0.3114
 3153poe    c2316231   1.910   2.853   2.278  0.3426 -0.0304 -0.0658
 3153poe     o216232   1.851   2.728   2.309 -0.6311  0.3820 -0.2170
 3153poe    c2316233   1.798   2.721   2.439  0.9644  0.4866  0.4670
 3153poe    c2316234   1.898   2.646   2.529  0.3841 -0.6588  0.1857
 3153poe     o216235   2.002   2.730   2.576  0.1068 -0.1847 -0.0356
 3153poe    c3116236   2.068   2.685   2.692  0.4622  0.0706 -0.1387
 3154poe    c3116237   6.603   6.019   5.283  0.9523  0.1492  0.1544
 3154poe     o216238   6.624   5.899   5.212 -0.0872  0.0044  0.0701
 3154poe    c2316239   6.592   5.779   5.277 -0.4078  0.1307  0.1434
 3154poe    c2316240   6.609   5.648   5.198  0.2752  0.3987 -0.1589
 3154poe     o216241   6.513   5.638   5.094 -0.0853 -0.1497  0.2235
 3154poe    c2316242   6.508   5.730   4.988 -0.1713 -0.5124 -0.0883
 3154poe    c2316243   6.435   5.688   4.859  0.5438  0.4860 -0.8352
 3154poe     o216244   6.467   5.556   4.821 -1.2827 -0.3036  0.2246
 3154poe    c2316245   6.435   5.537   4.685 -0.4074  0.4573 -0.0980
 3154poe    c2316246   6.297   5.472   4.666 -0.1514 -0.0825 -0.1271
 3154poe     o216247   6.292   5.334   4.694  0.1347  0.0291  0.5123
 3154poe    c3116248   6.185   5.281   4.619  0.1225 -0.2287  0.7087
 3155poe    c3116249   1.522   3.534   0.515 -0.5755  0.0406 -0.3502
 3155poe     o216250   1.405   3.598   0.468 -0.3749  0.3076 -0.4911
 3155poe    c2316251   1.310   3.507   0.519  0.6097 -0.3473  0.2379
 3155poe    c2316252   1.171   3.537   0.458  0.6874  0.6361  0.5213
 3155poe     o216253   1.109   3.641   0.529 -0.3675  0.2255  0.2212
 3155poe    c2316254   0.968   3.640   0.522 -0.3290  0.1295 -0.5977
 3155poe    c2316255   0.924   3.752   0.618 -0.5130 -0.5246  0.0906
 3155poe     o216256   0.974   3.877   0.575 -0.6831 -0.3159  0.4965
 3155poe    c2316257   0.976   3.966   0.685  0.9008  0.5992 -0.2377
 3155poe    c2316258   1.004   4.112   0.644 -0.1296  0.8201 -0.1824
 3155poe     o216259   1.071   4.092   0.522 -0.2557 -0.4568 -0.0647
 3155poe    c3116260   1.187   4.172   0.518 -0.0926 -0.6688  0.4105
 3156poe    c3116261   2.213   6.218   2.535  0.1662 -0.0866  0.2697
 3156poe     o216262   2.251   6.257   2.405 -0.5640 -0.2874 -0.0115
 3156poe    c2316263   2.383   6.219   2.375 -0.5419  0.3083 -0.6899
 3156poe    c2316264   2.421   6.259   2.231 -0.1037  0.0072 -0.6604
 3156poe     o216265   2.385   6.393   2.209  0.5488  0.3397  0.2345
 3156poe    c2316266   2.408   6.416   2.072 -0.1187 -0.0524  0.0507
 3156poe    c2316267   2.346   6.538   2.000 -0.3192  0.0588  0.4124
 3156poe     o216268   2.205   6.552   1.994 -0.3275 -0.1715  0.0136
 3156poe    c2316269   2.155   6.675   1.947  0.2622 -0.1335 -0.5271
 3156poe    c2316270   2.017   6.683   2.015  0.4077 -0.4207 -0.1928
 3156poe     o216271   2.026   6.648   2.151 -0.3664  0.7956  0.1877
 3156poe    c3116272   1.923   6.719   2.215 -0.9398 -0.7717  1.0473
 3157poe    c3116273   4.333   4.662   2.342 -0.4139 -1.0937  1.0883
 3157poe     o216274   4.194   4.680   2.331 -0.2209  0.5571  1.1654
 3157poe    c2316275   4.148   4.556   2.282 -0.1859  1.0406 -0.1341
 3157poe    c2316276   4.000   4.535   2.246 -0.1355  0.0210  0.2225
 3157poe     o216277   3.950   4.595   2.129 -0.7314 -0.1970  0.3641
 3157poe    c2316278   3.925   4.734   2.124 -0.5170 -0.1547  0.4870
 3157poe    c2316279   3.837   4.806   2.229  0.0135  0.0045  0.8315
 3157poe     o216280   3.698   4.822   2.210  0.0630 -0.3137  0.1624
 3157poe    c2316281   3.610   4.713   2.226 -0.1800 -0.1094  0.2291
 3157poe    c2316282   3.489   4.753   2.140 -0.0073  0.2275  0.1430
 3157poe     o216283   3.497   4.725   2.002 -0.0852 -0.1447  0.2131
 3157poe    c3116284   3.386   4.778   1.933 -0.0549 -0.1829  0.1358
 3158poe    c3116285   2.709   0.406   6.930 -0.3564  0.4345 -0.6317
 3158poe     o216286   2.767   0.322   6.833 -0.3716  0.1347 -0.3848
 3158poe    c2316287   2.665   0.233   6.793 -0.5144  0.1507 -0.0582
 3158poe    c2316288   2.705   0.180   6.654 -0.3007 -0.3149  0.1801
 3158poe     o216289   2.839   0.137   6.658 -0.4038 -0.6040  0.6233
 3158poe    c2316290   2.873   0.057   6.547 -0.1149  0.8068 -0.3322
 3158poe    c2316291   3.026   0.045   6.540 -0.1230  0.3128  0.2524
 3158poe     o216292   3.081   0.175   6.544  0.1397  0.1987  0.3703
 3158poe    c2316293   3.205   0.180   6.477  0.0372  0.2468  0.1854
 3158poe    c2316294   3.253   0.317   6.423  0.5948  0.1370  0.3997
 3158poe     o216295   3.252   0.410   6.529  0.6079  0.2116  0.3338
 3158poe    c3116296   3.287   0.540   6.488 -0.4787  0.4053 -0.0332
 3159poe    c3116297   1.461   6.341   6.021 -0.9644  0.7635  0.3167
 3159poe     o216298   1.550   6.273   6.107 -0.9851  0.7899  0.3593
 3159poe    c2316299   1.496   6.256   6.236 -0.3530 -0.5228  0.4684
 3159poe    c2316300   1.576   6.149   6.313 -0.4319 -0.5342  0.5349
 3159poe     o216301   1.717   6.156   6.308 -0.4326 -0.6983  0.2948
 3159poe    c2316302   1.784   6.109   6.422  0.1342 -0.0205  0.2476
 3159poe    c2316303   1.932   6.128   6.382  0.1664 -0.2626  0.2465
 3159poe     o216304   1.976   6.038   6.283  0.3512  0.1071 -0.0103
 3159poe    c2316305   2.115   6.059   6.273  0.2954  0.2382 -0.5018
 3159poe    c2316306   2.173   5.987   6.150 -0.7439 -0.5934 -0.5153
 3159poe     o216307   2.148   6.052   6.027 -0.0881  0.1210 -0.2732
 3159poe    c3116308   2.201   5.969   5.927  0.1761  0.4395 -0.4000
 3160poe    c3116309   2.060   2.297   1.782  0.2557  1.1400  0.0564
 3160poe     o216310   2.101   2.222   1.894 -0.2656  0.0485 -0.4671
 3160poe    c2316311   2.011   2.119   1.927 -0.5185  0.4823  0.2089
 3160poe    c2316312   2.039   2.088   2.075 -0.7872 -0.8048  0.0015
 3160poe     o216313   1.967   2.184   2.148 -0.0535 -0.2339 -0.0174
 3160poe    c2316314   1.920   2.158   2.278 -0.1862 -0.1018 -0.0388
 3160poe    c2316315   1.810   2.263   2.304 -0.3877 -0.2808 -0.1671
 3160poe     o216316   1.701   2.287   2.217 -0.0615  0.2644 -0.4281
 3160poe    c2316317   1.597   2.195   2.240  0.3878 -0.1035  0.1918
 3160poe    c2316318   1.479   2.207   2.141  0.1498  0.3251  0.5204
 3160poe     o216319   1.402   2.319   2.177 -0.0818  0.3062  0.0937
 3160poe    c3116320   1.288   2.296   2.098 -0.0107  0.5848 -0.0916
 3161poe    c3116321   3.890   4.373   0.527  1.0706  0.1124 -0.1597
 3161poe     o216322   3.890   4.435   0.653 -0.1701  0.3158 -0.2478
 3161poe    c2316323   3.890   4.339   0.756  0.4410  0.4697 -0.1030
 3161poe    c2316324   3.869   4.401   0.896  0.2967 -0.1265  0.1404
 3161poe     o216325   3.978   4.480   0.937  0.2090  0.2173 -0.2836
 3161poe    c2316326   3.934   4.600   0.995  0.1016 -0.2410  0.6057
 3161poe    c2316327   4.053   4.664   1.069  0.0203  0.1812  0.3798
 3161poe     o216328   4.159   4.723   0.997 -0.0670 -0.0378  0.0711
 3161poe    c2316329   4.249   4.780   1.089  0.3379 -0.2329 -0.1993
 3161poe    c2316330   4.339   4.888   1.027  0.6099 -0.4355 -0.1575
 3161poe     o216331   4.418   4.857   0.914  0.5500 -0.6498 -0.1410
 3161poe    c3116332   4.540   4.927   0.923  0.5373 -0.5866 -0.4762
 3162poe    c3116333   6.669   0.485   1.666 -0.6907 -0.4628 -0.0306
 3162poe     o216334   6.665   0.427   1.794 -0.2970 -0.4523 -0.0102
 3162poe    c2316335   6.645   0.532   1.886  0.6390 -0.2726 -0.0054
 3162poe    c2316336   6.677   0.507   2.035  0.1754  0.6292  0.2540
 3162poe     o216337   6.811   0.468   2.051 -0.0155 -0.0947  0.1407
 3162poe    c2316338   6.855   0.459   2.185  0.2064 -0.1223  0.0676
 3162poe    c2316339   6.969   0.357   2.186  0.2587 -0.0687 -0.1739
 3162poe     o216340   6.938   0.228   2.138 -0.2068  0.0172 -0.1015
 3162poe    c2316341   7.039   0.135   2.170  0.2114  0.4920 -0.0266
 3162poe    c2316342   7.031  -0.000   2.096  0.1546 -0.0821  1.0191
 3162poe     o216343   6.920  -0.080   2.132 -0.3057  0.1141  0.0555
 3162poe    c3116344   6.893  -0.179   2.035 -0.3797 -0.4739  0.6673
 3163poe    c3116345   0.191   7.281   1.286  0.7304 -0.0009  0.1724
 3163poe     o216346   0.253   7.262   1.411 -0.0494 -0.3423  0.5158
 3163poe    c2316347   0.334   7.372   1.448 -0.1239 -0.1182  0.0227
 3163poe    c2316348   0.411   7.338   1.577  0.5210 -0.2074 -0.3840
 3163poe     o216349   0.473   7.212   1.564  0.3183 -0.3085 -0.3710
 3163poe    c2316350   0.545   7.190   1.683  0.1123  0.1787 -0.1543
 3163poe    c2316351   0.534   7.048   1.743  0.4720  0.0093 -0.4835
 3163poe     o216352   0.583   6.966   1.639  0.5802 -0.0257 -0.4059
 3163poe    c2316353   0.580   6.827   1.659  0.1898  0.0146 -0.1704
 3163poe    c2316354   0.619   6.746   1.534  0.6494  0.2355 -0.1727
 3163poe     o216355   0.559   6.816   1.427 -0.0467  0.2142  0.1935
 3163poe    c3116356   0.558   6.733   1.313 -0.4523 -0.2887  0.5577
 3164poe    c3116357   0.898   5.811   3.764 -0.1793  0.3100 -0.6029
 3164poe     o216358   0.771   5.813   3.703 -0.4012  0.6764 -0.1283
 3164poe    c2316359   0.774   5.884   3.582  0.3233  0.4584 -0.2434
 3164poe    c2316360   0.650   5.882   3.490 -0.3268 -0.1580  0.6280
 3164poe     o216361   0.602   5.750   3.477  0.0524 -0.1670 -0.8524
 3164poe    c2316362   0.569   5.728   3.342  0.0598 -0.0239 -0.8781
 3164poe    c2316363   0.420   5.704   3.312 -0.2064  0.1703  0.2600
 3164poe     o216364   0.374   5.587   3.377 -0.5775  0.0971 -0.1264
 3164poe    c2316365   0.238   5.573   3.345 -0.7944  0.4784  0.6124
 3164poe    c2316366   0.180   5.430   3.350  0.0566  0.1148  0.2888
 3164poe     o216367   0.220   5.343   3.246  0.0372  0.4887 -0.0345
 3164poe    c3116368   0.156   5.363   3.123  0.4772 -0.2131 -0.3841
 3165poe    c3116369   0.850   0.179   0.877  0.0103  0.3205  0.6342
 3165poe     o216370   0.900   0.307   0.909 -0.2241  0.3616  0.8323
 3165poe    c2316371   0.815   0.382   0.993 -0.6555  0.4786  0.2932
 3165poe    c2316372   0.910   0.417   1.109  0.3995  0.0690 -0.4403
 3165poe     o216373   1.039   0.460   1.071  0.6000 -0.0774  0.0673
 3165poe    c2316374   1.132   0.465   1.177 -0.2414  0.0630  0.8061
 3165poe    c2316375   1.259   0.533   1.122 -0.2198 -0.6982 -0.1176
 3165poe     o216376   1.295   0.464   1.005 -0.2164 -0.2888 -0.3615
 3165poe    c2316377   1.415   0.514   0.950 -0.0967  0.2643  0.3826
 3165poe    c2316378   1.405   0.648   0.874 -0.5353  0.0758  0.1017
 3165poe     o216379   1.322   0.644   0.760 -0.2064  0.5370 -0.1566
 3165poe    c3116380   1.373   0.725   0.657  0.8758 -0.8129 -0.7198
 3166poe    c3116381   6.510   3.498   3.822  0.5907 -0.1363  0.4403
 3166poe     o216382   6.560   3.469   3.950  0.4366  0.1187  0.5576
 3166poe    c2316383   6.693   3.516   3.949  0.2837  0.5512 -0.0309
 3166poe    c2316384   6.729   3.531   4.098  0.4528  0.5000 -0.0657
 3166poe     o216385   6.707   3.403   4.152  0.0880  0.4313 -0.3669
 3166poe    c2316386   6.704   3.412   4.293  0.3922  0.1069 -0.3376
 3166poe    c2316387   6.671   3.276   4.358  0.4180  0.3777  0.2531
 3166poe     o216388   6.551   3.223   4.305  0.6723  0.4071 -0.3707
 3166poe    c2316389   6.529   3.088   4.340 -0.2866  0.6501  0.0103
 3166poe    c2316390   6.410   3.020   4.270  0.0585 -0.4796  0.4961
 3166poe     o216391   6.287   3.084   4.294  0.1939  0.2132 -0.6323
 3166poe    c3116392   6.174   3.026   4.232 -0.1544  0.2260 -0.0115
 3167poe    c3116393   0.117   6.290   0.242 -0.1268  0.4987  0.1739
 3167poe     o216394   0.006   6.307   0.327 -0.4362 -0.3579 -0.0448
 3167poe    c2316395   0.055   6.310   0.459 -0.8294 -0.6551  0.1099
 3167poe    c2316396  -0.028   6.405   0.548  0.2072  0.1745  0.2124
 3167poe     o216397  -0.145   6.335   0.583  0.3744 -0.0471  0.3255
 3167poe    c2316398  -0.254   6.423   0.577  0.1486 -0.3650 -0.3034
 3167poe    c2316399  -0.395   6.369   0.547  0.1723 -0.6567  0.1047
 3167poe     o216400  -0.403   6.296   0.426 -0.1834 -0.1997 -0.1508
 3167poe    c2316401  -0.516   6.215   0.452 -0.1752 -0.0648  0.3260
 3167poe    c2316402  -0.555   6.135   0.326 -0.0648  0.3718  0.0093
 3167poe     o216403  -0.641   6.027   0.357  0.0286  0.3469  0.1829
 3167poe    c3116404  -0.767   6.021   0.295 -0.0722  0.4095  0.3794
 3168poe    c3116405   3.086   2.251   3.987 -0.0879 -0.0448  0.0104
 3168poe     o216406   3.065   2.363   3.904  0.3555  0.2409  0.2831
 3168poe    c2316407   2.930   2.388   3.874  0.3455 -0.1955 -0.0413
 3168poe    c2316408   2.890   2.528   3.822  0.9136  0.3159  0.8703
 3168poe     o216409   2.961   2.549   3.702 -0.6927 -0.6276 -0.2843
 3168poe    c2316410   2.913   2.672   3.653 -0.7560 -0.3970  0.3448
 3168poe    c2316411   2.958   2.690   3.507 -0.7009  0.3269  0.4443
 3168poe     o216412   2.896   2.610   3.408  0.1908  0.0433  0.0997
 3168poe    c2316413   2.971   2.642   3.293  0.0625  0.3542  0.1021
 3168poe    c2316414   2.898   2.588   3.168 -0.4501 -0.1654  0.6209
 3168poe     o216415   2.773   2.649   3.146  0.0061  0.5514 -0.0453
 3168poe    c3116416   2.695   2.577   3.054  0.0592  0.5543 -0.0924
 3169poe    c3116417   7.111   5.859   2.584 -0.6518  0.4923  0.3477
 3169poe     o216418   7.207   5.962   2.595 -0.4500  0.2861  0.5249
 3169poe    c2316419   7.166   6.054   2.496 -0.3210 -0.0616  0.1461
 3169poe    c2316420   7.219   6.196   2.526 -0.5623  0.1038 -0.2053
 3169poe     o216421   7.145   6.239   2.637 -0.1001 -0.3095  0.2677
 3169poe    c2316422   7.183   6.371   2.667 -0.0843 -0.3174  0.2845
 3169poe    c2316423   7.084   6.442   2.761  0.1615 -0.1858  0.4445
 3169poe     o216424   7.060   6.351   2.865 -1.0078 -0.1542  0.2114
 3169poe    c2316425   7.049   6.424   2.985  0.5119  0.0560  0.2373
 3169poe    c2316426   7.017   6.332   3.104  0.0933  0.2576  0.2823
 3169poe     o216427   7.124   6.242   3.124  0.0155  0.1005 -0.0072
 3169poe    c3116428   7.148   6.185   3.250  0.2441 -0.1674 -0.1716
 3170poe    c3116429   0.865   1.752   7.216  0.2150 -0.7846  0.5954
 3170poe     o216430   0.727   1.751   7.244  0.1790  0.0724  0.4839
 3170poe    c2316431   0.690   1.860   7.325  0.2595  0.3758  0.1155
 3170poe    c2316432   0.545   1.901   7.292  0.2797 -0.0733 -0.5313
 3170poe     o216433   0.498   1.936   7.163  0.0640  0.1562 -0.3891
 3170poe    c2316434   0.358   1.928   7.162  0.0491  0.2310  0.2474
 3170poe    c2316435   0.324   1.930   7.012  0.1863 -0.4806  0.2015
 3170poe     o216436   0.372   1.820   6.937  0.0080 -0.4408  0.0269
 3170poe    c2316437   0.327   1.829   6.804 -0.5600 -0.2159  0.2299
 3170poe    c2316438   0.379   1.698   6.742  0.2227  0.2560 -0.1217
 3170poe     o216439   0.500   1.709   6.671  0.1210  0.2123 -0.3038
 3170poe    c3116440   0.534   1.606   6.581  0.8232  0.3382 -0.1946
 3171poe    c3116441   0.050   1.148   6.502  1.1053 -0.5481  0.1886
 3171poe     o216442   0.137   1.249   6.457  0.0186  0.3887  0.1470
 3171poe    c2316443   0.161   1.228   6.320 -0.8243  0.0930  0.0367
 3171poe    c2316444   0.257   1.329   6.253 -0.2386 -0.4913 -0.0199
 3171poe     o216445   0.386   1.322   6.310 -0.2207  0.1383  0.0272
 3171poe    c2316446   0.477   1.399   6.235  0.1269  0.0035  0.3096
 3171poe    c2316447   0.623   1.352   6.246  0.0478 -0.3899 -0.3161
 3171poe     o216448   0.662   1.286   6.364 -0.1445  0.1777  0.0687
 3171poe    c2316449   0.792   1.310   6.413 -0.2284 -0.1548  0.4581
 3171poe    c2316450   0.827   1.258   6.554  0.5308 -0.5330  0.1353
 3171poe     o216451   0.875   1.126   6.544 -0.1823 -0.7945  0.1269
 3171poe    c3116452   0.914   1.104   6.677 -0.3965  0.2271  0.3661
 3172poe    c3116453   6.014   6.552   3.180  0.1341 -0.0115 -0.0750
 3172poe     o216454   6.036   6.457   3.078  0.3578 -0.0193 -0.0186
 3172poe    c2316455   6.112   6.353   3.136  0.4523 -0.2198 -0.5015
 3172poe    c2316456   6.167   6.288   3.008  0.5794  0.3707 -0.7494
 3172poe     o216457   6.055   6.286   2.922  0.1869  0.5972 -0.2469
 3172poe    c2316458   6.084   6.220   2.800  0.2252 -0.0648  0.1127
 3172poe    c2316459   6.122   6.332   2.702 -0.1680  0.2906  0.3622
 3172poe     o216460   6.028   6.433   2.733 -0.6065 -0.1560  0.4944
 3172poe    c2316461   6.095   6.554   2.706 -0.7973 -0.1806 -0.1068
 3172poe    c2316462   5.992   6.667   2.721 -0.1474  0.3824  0.1585
 3172poe     o216463   5.918   6.638   2.837 -0.4569  0.0050 -0.1277
 3172poe    c3116464   5.824   6.742   2.852  0.0330  0.5315 -0.6707
 3173poe    c3116465   1.011   0.775   7.238  0.7166 -1.1285  0.2726
 3173poe     o216466   1.047   0.807   7.370 -0.1163  0.2888  0.1783
 3173poe    c2316467   1.183   0.844   7.375 -0.1563  0.3991  0.4732
 3173poe    c2316468   1.217   0.877   7.522  0.2805  0.2097  0.4146
 3173poe     o216469   1.170   0.999   7.572 -0.1954 -0.0495  0.6011
 3173poe    c2316470   1.198   1.019   7.709  0.5399  0.6190  0.3563
 3173poe    c2316471   1.134   1.156   7.740 -0.2905  0.2244  0.3922
 3173poe     o216472   1.231   1.256   7.725  0.2313 -0.2812  0.3510
 3173poe    c2316473   1.183   1.387   7.700  0.0633 -0.2347  0.9110
 3173poe    c2316474   1.297   1.490   7.702 -0.2732  0.1764 -0.4090
 3173poe     o216475   1.321   1.528   7.835  0.3483 -0.2367 -0.3957
 3173poe    c3116476   1.460   1.554   7.837  0.2957  0.0294  0.3186
 3174poe    c3116477   0.156   7.071   6.308 -0.1138  0.3110  0.7815
 3174poe     o216478   0.227   7.181   6.255  0.6074 -0.4084  0.2324
 3174poe    c2316479   0.259   7.162   6.119  0.1936  0.9252 -0.0625
 3174poe    c2316480   0.406   7.193   6.086  0.2234  0.2666 -0.5751
 3174poe     o216481   0.440   7.327   6.115 -0.1368  0.1520  0.4001
 3174poe    c2316482   0.521   7.398   6.024  0.4962 -0.4156  0.5142
 3174poe    c2316483   0.558   7.538   6.077 -0.0732 -0.2114  0.3896
 3174poe     o216484   0.445   7.614   6.113  0.0605  0.1520  0.0485
 3174poe    c2316485   0.464   7.727   6.194  0.2099  0.0584  0.1450
 3174poe    c2316486   0.342   7.814   6.231 -0.0435 -0.2608  0.0535
 3174poe     o216487   0.253   7.743   6.313  0.0986 -0.4795  0.0204
 3174poe    c3116488   0.132   7.810   6.341  0.4188  0.1273 -0.0531
 3175poe    c3116489   2.638   4.463   6.382 -0.3692 -0.4159 -0.3126
 3175poe     o216490   2.691   4.359   6.303  0.3852 -0.3009  0.0327
 3175poe    c2316491   2.727   4.412   6.178 -0.4235  0.3875  0.0794
 3175poe    c2316492   2.785   4.310   6.078 -0.4880  0.2552  0.1777
 3175poe     o216493   2.698   4.201   6.055  0.2766 -0.3157 -0.0510
 3175poe    c2316494   2.719   4.156   5.923 -0.1704  0.0942 -0.2659
 3175poe    c2316495   2.586   4.093   5.877 -0.0369 -0.2901 -0.1281
 3175poe     o216496   2.552   3.979   5.953 -0.4367 -0.0585  0.0452
 3175poe    c2316497   2.431   3.994   6.022 -0.1396  0.3837  0.4754
 3175poe    c2316498   2.333   3.875   6.018  0.0181  0.2438  0.6900
 3175poe     o216499   2.202   3.873   6.071 -0.0162 -0.9838  0.5886
 3175poe    c3116500   2.126   3.764   6.024 -0.5357 -0.3268 -0.1143
 3176poe    c3116501   1.768   0.377   2.897 -0.1240 -1.1091 -0.7437
 3176poe     o216502   1.649   0.381   2.820 -0.3771 -0.8850 -0.3446
 3176poe    c2316503   1.614   0.516   2.802  0.1686 -0.6195  0.4955
 3176poe    c2316504   1.480   0.519   2.726  0.6930  1.1925 -0.4019
 3176poe     o216505   1.499   0.461   2.598  0.2819  0.4413 -0.1277
 3176poe    c2316506   1.373   0.482   2.538 -0.0175  0.5926  0.5437
 3176poe    c2316507   1.362   0.427   2.395 -0.3901  0.2271  0.7092
 3176poe     o216508   1.416   0.297   2.390  0.3053  0.5240  0.2858
 3176poe    c2316509   1.397   0.242   2.262  0.1301  0.9355  0.1319
 3176poe    c2316510   1.481   0.314   2.155 -0.2450  0.1318 -0.7188
 3176poe     o216511   1.610   0.259   2.139 -0.1929 -0.3349  1.0582
 3176poe    c3116512   1.660   0.302   2.014 -0.6148  0.0927  1.0317
 3177poe    c3116513   0.349   1.117   1.116 -0.4165  0.1888  0.4855
 3177poe     o216514   0.440   1.124   1.223  0.6854  0.5001 -0.4525
 3177poe    c2316515   0.564   1.191   1.219  0.7504  0.4295  0.1551
 3177poe    c2316516   0.576   1.341   1.185  0.1704  0.3566 -0.4100
 3177poe     o216517   0.521   1.437   1.274 -0.3699 -0.1703 -0.1672
 3177poe    c2316518   0.593   1.441   1.395 -0.9100  0.4140  0.1400
 3177poe    c2316519   0.561   1.557   1.491  0.0789  0.1424  0.8148
 3177poe     o216520   0.623   1.678   1.454  0.3697 -0.2460  0.0008
 3177poe    c2316521   0.577   1.795   1.518 -0.0174 -0.2163 -0.3294
 3177poe    c2316522   0.598   1.817   1.669  0.0389  0.1423 -0.3899
 3177poe     o216523   0.690   1.916   1.709  0.3883 -0.4068  0.1662
 3177poe    c3116524   0.724   1.908   1.846 -0.1262  0.1831  0.3297
 3178poe    c3116525   2.059   5.060   5.349  0.3780 -0.2814 -0.8170
 3178poe     o216526   2.145   4.948   5.358  0.2619 -0.3169 -0.0137
 3178poe    c2316527   2.138   4.858   5.249 -0.4107  0.4277 -0.6024
 3178poe    c2316528   2.244   4.855   5.137 -0.1598 -0.6168 -0.3422
 3178poe     o216529   2.352   4.774   5.178 -0.0195 -0.4878 -0.4572
 3178poe    c2316530   2.465   4.842   5.228 -0.6877  0.4936 -0.2491
 3178poe    c2316531   2.592   4.815   5.144 -0.5799 -0.1431  0.1079
 3178poe     o216532   2.638   4.684   5.125  0.2644  0.1438  0.1578
 3178poe    c2316533   2.710   4.675   5.004  0.3583  0.0378  0.2198
 3178poe    c2316534   2.764   4.531   4.999 -0.0038 -0.0779 -0.6173
 3178poe     o216535   2.852   4.499   5.105 -0.2255  0.6453 -0.2077
 3178poe    c3116536   2.883   4.362   5.111  0.6862  0.8416 -0.3926
 3179poe    c3116537   0.002   7.013   1.549 -0.3543 -0.1242  0.0513
 3179poe     o216538   0.076   6.931   1.463  0.1798  0.2441  0.1566
 3179poe    c2316539  -0.005   6.846   1.385  0.2294 -0.0979  0.4738
 3179poe    c2316540   0.073   6.727   1.327  0.0886 -0.0496  0.1819
 3179poe     o216541   0.136   6.647   1.424  0.1132  0.0371  0.2376
 3179poe    c2316542   0.194   6.540   1.352 -0.1608 -0.0078  0.0853
 3179poe    c2316543   0.257   6.438   1.449 -0.1051 -0.2656 -0.2207
 3179poe     o216544   0.311   6.513   1.555 -1.0603  0.0036  0.0815
 3179poe    c2316545   0.289   6.443   1.675 -0.6266  0.5544  0.4867
 3179poe    c2316546   0.333   6.539   1.788 -0.0361  0.7604  0.0853
 3179poe     o216547   0.272   6.666   1.783 -0.8553  0.3719  0.0664
 3179poe    c3116548   0.305   6.742   1.897  0.3846 -0.6879  0.4493
 3180poe    c3116549   2.815   3.199   3.582  0.3041 -0.0387  0.3802
 3180poe     o216550   2.712   3.289   3.546  0.3619 -0.1409 -0.0447
 3180poe    c2316551   2.712   3.399   3.634  0.0791  0.0447 -0.2759
 3180poe    c2316552   2.687   3.529   3.555 -0.1496  0.4870  0.5113
 3180poe     o216553   2.558   3.550   3.501  0.0460 -0.1952 -0.2325
 3180poe    c2316554   2.555   3.671   3.429  0.5327 -0.0510 -0.0157
 3180poe    c2316555   2.435   3.660   3.333  0.3695  0.0159  0.1792
 3180poe     o216556   2.329   3.593   3.398  0.0701 -0.2027 -0.5276
 3180poe    c2316557   2.212   3.580   3.320  0.2457 -0.4576 -0.7523
 3180poe    c2316558   2.134   3.477   3.405  0.5626  0.3763  0.5918
 3180poe     o216559   2.219   3.366   3.425  0.4261  0.0822 -0.3777
 3180poe    c3116560   2.150   3.256   3.480  0.5369 -0.2370 -0.8737
 3181poe    c3116561   5.140   3.690   2.937 -0.3013 -1.0208 -0.1620
 3181poe     o216562   5.089   3.708   3.067  0.1873  0.2545 -0.1413
 3181poe    c2316563   5.003   3.820   3.069  0.2191  0.2774 -0.0335
 3181poe    c2316564   4.970   3.842   3.218  0.1142  0.1651 -0.0397
 3181poe     o216565   4.888   3.747   3.282 -0.0712  0.2817 -0.1056
 3181poe    c2316566   4.925   3.726   3.416 -0.3419  0.0378 -0.0679
 3181poe    c2316567   4.848   3.603   3.469 -0.0286 -0.3347 -0.4698
 3181poe     o216568   4.852   3.482   3.397  0.0016 -0.2720 -0.5748
 3181poe    c2316569   4.769   3.382   3.452 -0.8962  0.3985 -0.6822
 3181poe    c2316570   4.811   3.245   3.396 -0.1426  0.4236 -0.1903
 3181poe     o216571   4.846   3.248   3.259  0.1932  0.0013 -0.1176
 3181poe    c3116572   4.838   3.128   3.186  0.3311 -0.3333  0.4140
 3182poe    c3116573   5.841   3.031   4.517  0.9015  0.8375 -0.5613
 3182poe     o216574   5.846   3.095   4.642 -0.1946 -0.3092  0.0930
 3182poe    c2316575   5.764   3.209   4.658  0.1545 -0.0954  0.3765
 3182poe    c2316576   5.783   3.268   4.799 -0.4831 -0.0082  0.4301
 3182poe     o216577   5.791   3.164   4.895 -0.1452  0.0476  0.4665
 3182poe    c2316578   5.796   3.210   5.028  0.0354  0.6150  0.2650
 3182poe    c2316579   5.712   3.124   5.124  0.4284  0.1471  0.1917
 3182poe     o216580   5.764   2.995   5.145 -0.7008 -0.3279  0.1230
 3182poe    c2316581   5.662   2.898   5.153 -0.5893 -0.4700 -0.1390
 3182poe    c2316582   5.716   2.755   5.175 -0.4153 -0.3847 -0.0072
 3182poe     o216583   5.764   2.717   5.048  0.2904  0.0751  0.1112
 3182poe    c3116584   5.826   2.591   5.063 -0.1226 -0.1393  0.0422
 3183poe    c3116585   2.674   2.097   0.791 -0.0283 -0.0343  0.2481
 3183poe     o216586   2.544   2.048   0.767 -0.2828  0.5903  0.3245
 3183poe    c2316587   2.474   1.984   0.871 -0.0038 -0.1180  0.0827
 3183poe    c2316588   2.337   1.920   0.840 -0.1845  0.3007  0.0142
 3183poe     o216589   2.239   2.018   0.816 -0.2240  0.3360  0.3176
 3183poe    c2316590   2.115   1.955   0.793 -0.0753  0.3788 -0.6486
 3183poe    c2316591   2.022   2.051   0.716  0.0918  0.3896 -0.8370
 3183poe     o216592   2.006   2.177   0.779 -0.0099  0.3139 -0.7111
 3183poe    c2316593   1.894   2.235   0.715  0.0320  0.6854 -0.4473
 3183poe    c2316594   1.829   2.341   0.806  0.6228  0.3550  0.3707
 3183poe     o216595   1.764   2.283   0.917  0.6753 -0.0933  0.1693
 3183poe    c3116596   1.703   2.377   1.002  0.2605  0.0491 -0.2858
 3184poe    c3116597   4.995   4.959   0.599  0.3055  0.2186  0.1068
 3184poe     o216598   5.044   4.853   0.520  0.1664 -0.0216  0.3434
 3184poe    c2316599   4.935   4.780   0.468  0.4265 -0.5425  0.5180
 3184poe    c2316600   4.986   4.665   0.379 -0.4943 -0.1431 -0.5449
 3184poe     o216601   5.060   4.561   0.438 -0.5112  0.1749  0.0411
 3184poe    c2316602   5.112   4.474   0.340  0.0177  0.0760  0.4052
 3184poe    c2316603   5.134   4.331   0.393  0.0075 -0.0320  0.1154
 3184poe     o216604   5.240   4.353   0.483  0.2387  0.2757 -0.2256
 3184poe    c2316605   5.271   4.224   0.530 -0.1180  0.2716  0.0111
 3184poe    c2316606   5.411   4.223   0.594 -0.0943 -0.9017 -0.0375
 3184poe     o216607   5.393   4.268   0.727  0.0459  0.8932 -0.5992
 3184poe    c3116608   5.508   4.298   0.802 -0.2689  0.5144  0.0406
 3185poe    c3116609   7.104   2.271   7.147  0.2485 -0.7031  0.0128
 3185poe     o216610   7.243   2.299   7.150  0.1738 -0.3505  0.2939
 3185poe    c2316611   7.306   2.369   7.045  0.1430 -0.0580  0.4691
 3185poe    c2316612   7.319   2.520   7.073 -0.6706  0.0466  0.3304
 3185poe     o216613   7.393   2.552   7.189 -0.2183  0.1982  0.0031
 3185poe    c2316614   7.326   2.659   7.251  0.5218  0.5564  0.1985
 3185poe    c2316615   7.412   2.696   7.373  1.2719 -0.0152 -0.1541
 3185poe     o216616   7.436   2.599   7.473 -0.3431  0.1166  0.3819
 3185poe    c2316617   7.513   2.639   7.584 -0.3056  0.1365  0.3488
 3185poe    c2316618   7.493   2.525   7.687  0.2831 -0.2811  0.0074
 3185poe     o216619   7.507   2.410   7.607  0.5554 -0.1950 -0.0706
 3185poe    c3116620   7.546   2.299   7.686  0.1049 -0.3162 -0.0155
 3186poe    c3116621   4.009   0.400   0.470 -0.2461 -0.6952 -0.2869
 3186poe     o216622   3.927   0.509   0.437  0.0579 -0.2352  0.4474
 3186poe    c2316623   3.956   0.619   0.520 -0.0558 -0.3901  0.6944
 3186poe    c2316624   3.906   0.741   0.440  0.3996 -0.9699 -0.5033
 3186poe     o216625   3.772   0.712   0.405  0.1680 -0.2812 -0.2014
 3186poe    c2316626   3.713   0.801   0.313 -0.0552 -0.1034  0.1101
 3186poe    c2316627   3.572   0.741   0.295 -0.1778  0.1708  0.1511
 3186poe     o216628   3.593   0.606   0.261 -0.1746  0.2430 -0.1354
 3186poe    c2316629   3.488   0.518   0.295  0.3940 -0.2944  0.2474
 3186poe    c2316630   3.548   0.386   0.347 -0.1825 -0.5755  0.2070
 3186poe     o216631   3.669   0.414   0.414 -0.2379 -0.2517  0.1735
 3186poe    c3116632   3.649   0.395   0.552 -0.1112 -1.1974  0.0664
 3187poe    c3116633   4.059   4.974   3.837  0.0976 -0.0427 -0.3110
 3187poe     o216634   4.033   4.916   3.711  0.4321 -0.5786 -0.1358
 3187poe    c2316635   4.128   4.968   3.622  0.7441 -0.0602  0.4935
 3187poe    c2316636   4.105   4.933   3.474 -0.2935 -0.0080  0.6374
 3187poe     o216637   4.083   4.793   3.469 -0.1951 -0.0088  0.2094
 3187poe    c2316638   4.100   4.741   3.339  0.0992  0.4789  0.0490
 3187poe    c2316639   4.123   4.589   3.350  0.1000  0.5276  0.7396
 3187poe     o216640   4.061   4.533   3.464 -0.6909  0.2143  0.1665
 3187poe    c2316641   4.073   4.394   3.481  0.3482  0.2801  0.0255
 3187poe    c2316642   4.018   4.370   3.623 -0.0120  0.0526 -0.1497
 3187poe     o216643   4.084   4.449   3.720 -0.4933 -0.0129  0.2359
 3187poe    c3116644   4.187   4.373   3.777 -0.4741  0.3208  0.6501
 3188poe    c3116645   0.722   6.866   5.454 -0.0394 -0.3774 -0.1242
 3188poe     o216646   0.802   6.976   5.490 -0.0966 -0.3896  0.0445
 3188poe    c2316647   0.739   7.087   5.551  0.2747 -0.3410  0.3396
 3188poe    c2316648   0.815   7.220   5.534 -0.0524 -0.2408 -0.3840
 3188poe     o216649   0.792   7.278   5.408  0.7215  0.5371 -0.1724
 3188poe    c2316650   0.802   7.419   5.419 -0.2298  0.5656  0.4602
 3188poe    c2316651   0.773   7.496   5.290  0.4165  0.4260  0.2296
 3188poe     o216652   0.869   7.455   5.195  0.1819  0.2860  0.0509
 3188poe    c2316653   0.836   7.510   5.070  0.8393  0.8303  0.1119
 3188poe    c2316654   0.909   7.435   4.956  0.4215 -0.3736  0.6245
 3188poe     o216655   0.863   7.302   4.941  0.1947 -0.1836 -0.3751
 3188poe    c3116656   0.963   7.232   4.870  0.1698 -0.0725 -0.5225
 3189poe    c3116657   6.153   2.800   5.095  0.2993  0.0769  0.4061
 3189poe     o216658   6.185   2.830   4.961  0.1191  0.3021  0.4120
 3189poe    c2316659   6.313   2.776   4.937 -0.1341 -0.0430 -0.1918
 3189poe    c2316660   6.313   2.738   4.787  1.0890 -0.1603 -0.1721
 3189poe     o216661   6.225   2.635   4.748  0.5522  0.1391  0.2293
 3189poe    c2316662   6.211   2.614   4.610  0.3933 -0.1993  0.2948
 3189poe    c2316663   6.167   2.469   4.584  0.2525 -0.0336 -0.4206
 3189poe     o216664   6.036   2.466   4.635  0.5773 -0.3748  0.4022
 3189poe    c2316665   6.004   2.329   4.620 -0.0615 -0.1605 -0.2548
 3189poe    c2316666   5.907   2.278   4.728 -0.0480 -0.1399 -0.2331
 3189poe     o216667   5.976   2.299   4.849 -0.0449 -0.0382 -0.2522
 3189poe    c3116668   5.900   2.240   4.952  0.4192 -0.3957 -0.1090
 3190poe    c3116669   4.465   2.770   3.650 -0.4044 -0.3602  0.2115
 3190poe     o216670   4.440   2.666   3.558  0.3295 -0.7344  0.4256
 3190poe    c2316671   4.315   2.695   3.500  0.4959  0.3562  0.5970
 3190poe    c2316672   4.263   2.567   3.434  0.5582  0.3412  0.5774
 3190poe     o216673   4.347   2.515   3.333 -0.5413  0.5121 -0.4479
 3190poe    c2316674   4.274   2.415   3.266 -0.2098 -0.2705  0.3473
 3190poe    c2316675   4.356   2.348   3.155 -0.5558  0.0770 -0.1229
 3190poe     o216676   4.463   2.262   3.187 -0.5018  0.2502  0.1626
 3190poe    c2316677   4.441   2.146   3.264  0.2451  0.5040  0.7685
 3190poe    c2316678   4.584   2.097   3.296  0.2760  0.0338 -0.0628
 3190poe     o216679   4.639   2.039   3.180  0.4338  0.3269 -0.1337
 3190poe    c3116680   4.738   1.940   3.199 -0.4493 -0.5080  0.1794
 3191poe    c3116681   6.750   5.223   6.808 -0.3560 -0.4201 -0.1498
 3191poe     o216682   6.855   5.147   6.752  0.0140 -0.0461  0.0383
 3191poe    c2316683   6.804   5.083   6.638  0.0498 -0.3782  0.2072
 3191poe    c2316684   6.910   4.986   6.581  0.1171  0.0238 -0.3721
 3191poe     o216685   7.022   5.051   6.527  0.2819 -0.1765 -0.2751
 3191poe    c2316686   7.084   4.953   6.448 -0.4602 -0.2806 -0.7341
 3191poe    c2316687   7.187   5.000   6.343 -0.2020 -0.1516 -0.4216
 3191poe     o216688   7.289   5.083   6.395 -0.4285  0.1186 -0.4065
 3191poe    c2316689   7.362   5.129   6.284 -0.2483  0.1522 -0.2749
 3191poe    c2316690   7.468   5.221   6.346 -0.4898  0.3504 -0.1527
 3191poe     o216691   7.433   5.357   6.335 -0.0187  0.5456  0.6229
 3191poe    c3116692   7.502   5.415   6.226 -0.1063  0.5328  0.5597
 3192poe    c3116693   2.803   5.995   1.495  0.3899 -0.0026 -0.5709
 3192poe     o216694   2.914   6.042   1.568  0.1023 -0.1700 -0.0119
 3192poe    c2316695   2.883   6.135   1.669  0.0268 -0.0360 -0.1582
 3192poe    c2316696   2.930   6.280   1.651  0.4398 -0.0674  0.6379
 3192poe     o216697   3.070   6.262   1.658  0.5572  0.2206 -0.6827
 3192poe    c2316698   3.142   6.365   1.722  0.3180  0.2412 -0.4408
 3192poe    c2316699   3.294   6.342   1.735  0.2478  0.0120 -0.0257
 3192poe     o216700   3.344   6.215   1.772  0.7855  0.0812 -0.4947
 3192poe    c2316701   3.483   6.204   1.750  0.8716  0.2171 -0.0387
 3192poe    c2316702   3.545   6.092   1.837 -0.2373 -0.2679  0.1518
 3192poe     o216703   3.521   5.961   1.792 -0.0266 -0.2173 -0.1107
 3192poe    c3116704   3.553   5.854   1.877  0.7663  0.3405  0.3022
 3193poe    c3116705   2.077   3.853   3.565 -0.2267 -0.5945 -0.1729
 3193poe     o216706   2.173   3.790   3.646  0.0264 -0.5172 -0.4144
 3193poe    c2316707   2.097   3.754   3.759  0.2073 -0.3820 -0.2475
 3193poe    c2316708   2.184   3.707   3.876 -0.6220 -0.3525  0.3930
 3193poe     o216709   2.245   3.582   3.858 -0.0742 -0.0644  0.2203
 3193poe    c2316710   2.340   3.591   3.962 -0.0803 -0.0338  0.2227
 3193poe    c2316711   2.422   3.468   4.007 -0.0524 -0.4843 -1.0161
 3193poe     o216712   2.331   3.369   4.048 -0.1118  0.2018  0.5786
 3193poe    c2316713   2.392   3.242   4.060  0.4322  0.4314  0.2557
 3193poe    c2316714   2.355   3.160   3.936  0.7154 -0.4814  0.7636
 3193poe     o216715   2.422   3.203   3.819  0.3014 -0.1205  0.6554
 3193poe    c3116716   2.419   3.107   3.717 -0.5022  0.3496  0.2238
 3194poe    c3116717   5.406   1.803   4.219 -0.1269  0.2220  0.5945
 3194poe     o216718   5.363   1.745   4.098 -0.0311  0.0740  0.6315
 3194poe    c2316719   5.473   1.734   4.010 -0.7861 -0.1102 -0.3085
 3194poe    c2316720   5.432   1.670   3.876 -0.5184 -0.1851 -0.3529
 3194poe     o216721   5.401   1.532   3.885 -0.0987 -0.2557  0.0925
 3194poe    c2316722   5.368   1.484   3.756  0.9256 -0.3803 -0.1307
 3194poe    c2316723   5.309   1.343   3.772  0.2500 -0.0387  0.4355
 3194poe     o216724   5.259   1.301   3.897 -0.1072  0.0586  0.3287
 3194poe    c2316725   5.234   1.163   3.905 -0.1636  0.0574  0.1249
 3194poe    c2316726   5.157   1.123   4.032  0.1524 -0.3381  0.1946
 3194poe     o216727   5.227   1.165   4.147  0.2134 -0.1686  0.0955
 3194poe    c3116728   5.146   1.144   4.260 -0.4318 -0.3775 -0.4043
 3195poe    c3116729   7.304   3.666   1.880  0.0698 -0.5869 -0.4778
 3195poe     o216730   7.406   3.764   1.887 -0.5456  0.0132  0.3094
 3195poe    c2316731   7.508   3.712   1.969 -0.1110 -0.7247 -0.6813
 3195poe    c2316732   7.650   3.764   1.943  0.0275 -0.4391  0.5613
 3195poe     o216733   7.662   3.878   2.025  0.4039 -0.4126  0.4748
 3195poe    c2316734   7.749   3.966   1.957  0.0574 -0.4788 -0.0579
 3195poe    c2316735   7.754   4.111   2.007 -0.6742 -0.4409 -0.0789
 3195poe     o216736   7.672   4.197   1.930  0.3892  0.2283 -0.4904
 3195poe    c2316737   7.688   4.329   1.977 -0.1630  0.2299 -0.2952
 3195poe    c2316738   7.587   4.430   1.920 -0.1864  0.4016  0.0520
 3195poe     o216739   7.602   4.479   1.789  0.9221 -0.0679 -0.0025
 3195poe    c3116740   7.711   4.569   1.778  0.6886  0.2165  0.0020
 3196poe    c3116741   0.711   2.425   2.774 -1.3438  0.2675  0.0428
 3196poe     o216742   0.666   2.559   2.779 -0.0660  0.6995  0.2923
 3196poe    c2316743   0.773   2.650   2.790  0.2614  0.3115  0.3433
 3196poe    c2316744   0.838   2.672   2.651 -0.4999 -1.0146 -0.2414
 3196poe     o216745   0.748   2.736   2.564 -0.3069 -0.2312  0.1292
 3196poe    c2316746   0.809   2.788   2.448 -0.6186 -0.3307 -0.0809
 3196poe    c2316747   0.703   2.859   2.361 -0.5461  0.0174  0.1126
 3196poe     o216748   0.639   2.959   2.437 -0.0958  0.2803  0.1506
 3196poe    c2316749   0.550   3.047   2.373 -0.2703 -0.0116 -0.0108
 3196poe    c2316750   0.540   3.176   2.457 -0.2520  0.1953 -0.3243
 3196poe     o216751   0.494   3.132   2.583 -0.0570  0.1949 -0.2525
 3196poe    c3116752   0.506   3.239   2.674 -0.3769 -0.0381  0.0694
 3197poe    c3116753   3.089   6.796   5.275  0.2528 -0.4169  0.1715
 3197poe     o216754   2.978   6.714   5.246  0.3529 -0.6060  0.3193
 3197poe    c2316755   2.898   6.788   5.156  0.5887  0.0327  0.6271
 3197poe    c2316756   2.805   6.693   5.078  0.4347  0.0820  0.7503
 3197poe     o216757   2.857   6.623   4.967 -0.0157  0.4027  0.3336
 3197poe    c2316758   2.890   6.702   4.856 -0.7679  0.3794  0.0832
 3197poe    c2316759   2.903   6.600   4.741  0.0448  0.4556  0.1013
 3197poe     o216760   2.952   6.476   4.789 -0.6854  0.0159 -0.2775
 3197poe    c2316761   3.001   6.382   4.697  0.1791  0.1322  0.0574
 3197poe    c2316762   3.084   6.272   4.766 -0.2629 -0.0219  0.3506
 3197poe     o216763   3.030   6.196   4.871 -0.4675 -0.3288  0.0262
 3197poe    c3116764   3.063   6.059   4.870 -0.0000 -0.2196  0.2588
 3198poe    c3116765   6.902   5.019   2.194 -0.4105 -0.2045 -0.4630
 3198poe     o216766   6.770   5.051   2.157 -0.4073  0.2848 -0.0571
 3198poe    c2316767   6.694   4.944   2.104  0.1382 -0.0524 -0.1656
 3198poe    c2316768   6.550   4.997   2.089  0.2632  0.2126 -0.4388
 3198poe     o216769   6.565   5.109   2.005  0.5243  0.3806 -0.1680
 3198poe    c2316770   6.443   5.177   1.987 -0.0965 -0.6260  0.1902
 3198poe    c2316771   6.367   5.234   2.109  0.2716  0.1043  0.0825
 3198poe     o216772   6.424   5.339   2.183  0.6080  0.3406 -0.5018
 3198poe    c2316773   6.388   5.461   2.123  0.3730  0.5492  0.0596
 3198poe    c2316774   6.416   5.573   2.225  0.2298  0.5872  0.0566
 3198poe     o216775   6.553   5.560   2.257  0.0533 -0.1363  0.5244
 3198poe    c3116776   6.618   5.684   2.267  0.0013 -0.0476 -0.2053
 3199poe    c3116777   5.814   3.507   3.377 -0.8148  0.3061 -0.9227
 3199poe     o216778   5.900   3.602   3.319  0.4622 -0.2684 -0.0248
 3199poe    c2316779   5.944   3.710   3.398  0.8948 -0.3085 -0.2075
 3199poe    c2316780   6.060   3.677   3.495  0.3262 -0.0367  0.5725
 3199poe     o216781   6.188   3.698   3.440  0.4072  0.4014  0.9226
 3199poe    c2316782   6.286   3.653   3.531  0.1863  0.1984  1.0602
 3199poe    c2316783   6.425   3.639   3.465 -0.4522 -0.1915 -0.2431
 3199poe     o216784   6.451   3.518   3.399  0.1053 -0.1173 -0.1590
 3199poe    c2316785   6.590   3.515   3.375  0.1873  0.3801  0.2623
 3199poe    c2316786   6.639   3.383   3.313 -0.2368  0.3321  0.0323
 3199poe     o216787   6.642   3.276   3.404  0.3223  0.0846 -0.2719
 3199poe    c3116788   6.512   3.235   3.438  0.1008  0.7103 -0.3428
 3200poe    c3116789   0.057   1.540   4.548 -0.4687 -0.1023 -0.0129
 3200poe     o216790  -0.006   1.502   4.668 -0.1749  0.4920  0.3347
 3200poe    c2316791   0.053   1.557   4.783  0.0886  0.0493  0.4155
 3200poe    c2316792   0.017   1.482   4.913 -0.3542 -0.1313  0.1919
 3200poe     o216793  -0.106   1.417   4.892 -0.3713 -0.0431  0.0190
 3200poe    c2316794  -0.075   1.282   4.920  0.0393  0.0345 -0.0489
 3200poe    c2316795  -0.200   1.217   4.859  0.1443  0.0036 -0.2305
 3200poe     o216796  -0.316   1.280   4.910 -0.1343 -0.6527 -0.0365
 3200poe    c2316797  -0.429   1.217   4.855 -0.6679  0.2456  0.0185
 3200poe    c2316798  -0.530   1.331   4.878 -0.7578  0.1634  0.0384
 3200poe     o216799  -0.477   1.448   4.819 -0.0622 -0.3650 -0.3991
 3200poe    c3116800  -0.581   1.543   4.809  0.2109 -0.0053  0.1177
 3201poe    c3116801   4.283   4.491   0.380  0.4475 -0.0451 -0.1475
 3201poe     o216802   4.233   4.415   0.273  0.4293 -0.3134  0.0521
 3201poe    c2316803   4.320   4.312   0.231 -0.0721 -0.6199 -0.2470
 3201poe    c2316804   4.447   4.345   0.151 -0.3328 -0.0414 -0.4328
 3201poe     o216805   4.408   4.400   0.028 -0.0816  0.3455 -0.3408
 3201poe    c2316806   4.519   4.459  -0.036 -0.0281  0.4006 -0.1974
 3201poe    c2316807   4.496   4.502  -0.182  0.2886  0.0843 -0.3435
 3201poe     o216808   4.394   4.599  -0.192  0.1604  0.0188  0.2561
 3201poe    c2316809   4.430   4.709  -0.274  0.2377 -0.2858 -0.1216
 3201poe    c2316810   4.512   4.822  -0.209 -0.1951 -0.0558  0.0296
 3201poe     o216811   4.432   4.898  -0.122 -0.0850  0.1666 -0.0633
 3201poe    c3116812   4.478   5.031  -0.127  0.1151  0.0948 -0.1123
 3202poe    c3116813   2.365   4.454   4.113 -0.2805 -0.2436  0.1012
 3202poe     o216814   2.429   4.571   4.158  0.4170 -0.4269 -0.4095
 3202poe    c2316815   2.343   4.681   4.170  0.3677 -0.5858  0.9605
 3202poe    c2316816   2.397   4.769   4.284  0.4636  0.7571 -0.0846
 3202poe     o216817   2.361   4.720   4.412  0.2218  0.3139 -0.3185
 3202poe    c2316818   2.404   4.594   4.458 -0.7427  0.1930  0.2884
 3202poe    c2316819   2.403   4.581   4.611 -0.0535 -0.2423  0.2623
 3202poe     o216820   2.272   4.574   4.663 -0.1507 -0.0599  0.0458
 3202poe    c2316821   2.258   4.576   4.804  0.0469 -0.9018  0.0830
 3202poe    c2316822   2.119   4.635   4.834  0.4064 -0.0234  0.0509
 3202poe     o216823   2.082   4.751   4.763 -0.0666 -0.4866 -0.4739
 3202poe    c3116824   1.983   4.834   4.821  0.4713 -0.2029  0.0498
 3203poe    c3116825   2.406   2.352   3.806  0.0945 -0.0406  0.1529
 3203poe     o216826   2.410   2.325   3.667  0.2709  0.0250  0.1457
 3203poe    c2316827   2.280   2.330   3.613  0.3519 -0.1109 -0.0632
 3203poe    c2316828   2.285   2.373   3.465  0.4538  0.4786  0.1083
 3203poe     o216829   2.377   2.291   3.396 -0.0796  0.0520 -0.1004
 3203poe    c2316830   2.370   2.317   3.258  0.2609  0.1328 -0.1020
 3203poe    c2316831   2.474   2.223   3.193  0.2849  0.1874 -0.1423
 3203poe     o216832   2.601   2.241   3.252  0.1481 -0.2977  0.2994
 3203poe    c2316833   2.692   2.135   3.231  0.3045 -0.1475  0.2216
 3203poe    c2316834   2.823   2.195   3.284  0.4325 -0.0979 -0.1446
 3203poe     o216835   2.785   2.225   3.417  0.2915 -0.2823 -0.1427
 3203poe    c3116836   2.902   2.245   3.493  0.4829  0.0974 -0.5278
 3204poe    c3116837   6.226   2.061   0.860  0.0434  0.8061  0.1803
 3204poe     o216838   6.102   2.041   0.924  0.2891 -0.0368  0.4096
 3204poe    c2316839   5.993   2.062   0.837  0.3701 -0.3188  0.2393
 3204poe    c2316840   5.868   2.057   0.928  0.1088  0.3252 -0.0744
 3204poe     o216841   5.893   1.947   1.013 -0.2866  0.7672  0.6241
 3204poe    c2316842   5.782   1.886   1.074 -0.2215 -0.0718 -0.0732
 3204poe    c2316843   5.817   1.768   1.166 -0.2944  0.1996  0.3046
 3204poe     o216844   5.895   1.829   1.266 -0.1168  0.2377  0.1432
 3204poe    c2316845   5.940   1.731   1.357  0.3417 -0.0748 -0.4118
 3204poe    c2316846   6.017   1.779   1.481 -0.3998 -0.1163  0.0754
 3204poe     o216847   6.150   1.811   1.445 -0.6203  0.3356 -0.3464
 3204poe    c3116848   6.249   1.790   1.544 -0.2688  0.5162 -0.6566
 3205poe    c3116849   3.822   3.812   2.833 -0.1659 -0.4990 -0.1298
 3205poe     o216850   3.772   3.938   2.874 -0.0644 -0.5857  0.2632
 3205poe    c2316851   3.631   3.937   2.882 -0.0998  0.0992 -0.2509
 3205poe    c2316852   3.571   4.077   2.903 -0.1921 -0.0433  0.4751
 3205poe     o216853   3.442   4.092   2.957 -0.2693  0.1575  0.2390
 3205poe    c2316854   3.421   4.211   3.030 -0.3011  0.3446 -0.0754
 3205poe    c2316855   3.273   4.251   3.016 -0.3800 -0.1206 -0.6189
 3205poe     o216856   3.184   4.240   3.125  0.3593  0.4695  0.0578
 3205poe    c2316857   3.072   4.325   3.108  0.0399  0.0576  0.0943
 3205poe    c2316858   2.946   4.276   3.034  0.0866 -0.4819  0.3625
 3205poe     o216859   2.889   4.154   3.076 -0.0805 -0.5511 -0.0597
 3205poe    c3116860   2.751   4.139   3.052 -0.2677  0.2200  0.4985
 3206poe    c3116861   3.268   4.749   3.197  0.4849 -0.0495  0.3214
 3206poe     o216862   3.224   4.882   3.202 -0.2924 -0.2962  0.2442
 3206poe    c2316863   3.086   4.913   3.198 -0.3076 -0.3622  0.2567
 3206poe    c2316864   3.030   5.048   3.246 -0.1357  0.0255 -0.6078
 3206poe     o216865   3.026   5.075   3.384 -0.0176 -0.3966 -0.5196
 3206poe    c2316866   3.001   5.213   3.399 -0.1281 -0.4637 -0.0771
 3206poe    c2316867   3.000   5.275   3.540  0.2373 -0.1136 -0.2258
 3206poe     o216868   3.122   5.326   3.589 -0.0478  0.6306 -0.2924
 3206poe    c2316869   3.097   5.400   3.707 -0.1017 -0.2065  0.2316
 3206poe    c2316870   3.215   5.398   3.805  0.3886  0.3897 -0.3353
 3206poe     o216871   3.251   5.274   3.862  0.7734  0.4258 -0.4940
 3206poe    c3116872   3.334   5.286   3.975 -0.5932 -0.0030  0.5797
 3207poe    c3116873   5.044   3.474   2.259  0.3554 -0.2009 -0.1540
 3207poe     o216874   4.961   3.369   2.304 -0.3334 -0.0387 -1.0031
 3207poe    c2316875   4.841   3.430   2.344 -0.0981  0.1748 -0.6123
 3207poe    c2316876   4.714   3.348   2.312 -0.0416 -0.1381 -0.0519
 3207poe     o216877   4.702   3.241   2.403  0.2296 -0.3269 -0.2370
 3207poe    c2316878   4.604   3.146   2.368  0.2601 -0.4401 -0.0123
 3207poe    c2316879   4.535   3.137   2.506  0.0397  0.4811 -0.0590
 3207poe     o216880   4.621   3.126   2.617 -0.1178  0.7029  0.0861
 3207poe    c2316881   4.536   3.097   2.726  0.0157 -0.2776 -0.0560
 3207poe    c2316882   4.605   3.077   2.863  0.1587  0.3407 -0.0334
 3207poe     o216883   4.649   3.189   2.935  0.0304  0.1932  0.2764
 3207poe    c3116884   4.547   3.243   3.016 -0.7543 -0.5112 -0.2351
 3208poe    c3116885   6.979   6.580   7.189  0.0221  0.0076 -0.0734
 3208poe     o216886   6.981   6.446   7.143  0.4650  0.0242 -0.1051
 3208poe    c2316887   6.975   6.364   7.258 -0.5305 -0.0852 -0.2284
 3208poe    c2316888   6.978   6.210   7.246 -0.3641 -0.0618 -0.5299
 3208poe     o216889   7.078   6.188   7.150  0.3077 -0.2806  0.2079
 3208poe    c2316890   7.118   6.053   7.139 -0.0072 -0.3491 -0.1220
 3208poe    c2316891   7.262   6.067   7.088  0.0457  0.5138  0.2533
 3208poe     o216892   7.278   6.101   6.952 -0.1209  0.3154  0.1845
 3208poe    c2316893   7.414   6.114   6.917 -0.2408  0.3128 -0.2832
 3208poe    c2316894   7.442   6.211   6.800  0.0925 -0.0438 -0.5017
 3208poe     o216895   7.551   6.299   6.820 -0.1789  0.2364 -0.2410
 3208poe    c3116896   7.565   6.379   6.705 -0.3629  0.5843 -0.0232
 3209poe    c3116897   3.757   3.897   5.733 -0.2593 -0.5509  0.1443
 3209poe     o216898   3.760   3.846   5.602 -0.0434  0.4993 -0.2682
 3209poe    c2316899   3.768   3.705   5.596  0.1743  0.5063 -0.1482
 3209poe    c2316900   3.841   3.648   5.473 -0.2783  0.2418 -0.2939
 3209poe     o216901   3.806   3.693   5.344 -0.2373 -0.0419 -0.4063
 3209poe    c2316902   3.923   3.684   5.267 -0.1786  0.2058 -0.3459
 3209poe    c2316903   3.868   3.735   5.133 -0.1162  0.3758 -0.3074
 3209poe     o216904   3.798   3.857   5.134 -0.1324  0.3636 -0.0356
 3209poe    c2316905   3.758   3.893   5.004  0.0367  0.2839 -0.1094
 3209poe    c2316906   3.684   4.028   5.006  0.1313  0.3344  0.0292
 3209poe     o216907   3.558   4.007   5.066  0.1414 -0.0920 -0.0899
 3209poe    c3116908   3.482   4.126   5.065  0.7677  0.3088 -0.5761
 3210poe    c3116909   7.283   0.660   7.007 -0.5799 -0.3680  0.2098
 3210poe     o216910   7.418   0.687   6.976 -0.7942  0.6692  0.1546
 3210poe    c2316911   7.496   0.702   7.092 -0.3612  0.3148 -0.0850
 3210poe    c2316912   7.644   0.703   7.049 -0.4394 -0.0162 -0.3656
 3210poe     o216913   7.651   0.775   6.928 -0.2864  0.4945 -0.0563
 3210poe    c2316914   7.788   0.808   6.921  0.0648 -0.9958 -0.6795
 3210poe    c2316915   7.819   0.901   6.802 -0.0115 -0.2041 -0.0901
 3210poe     o216916   7.806   0.835   6.678 -0.2027 -0.4112  0.0388
 3210poe    c2316917   7.695   0.886   6.608 -0.0572  0.3559  0.3525
 3210poe    c2316918   7.669   0.811   6.476 -0.5214  0.5807  0.3157
 3210poe     o216919   7.776   0.836   6.388 -0.6117 -0.0684  0.0136
 3210poe    c3116920   7.751   0.799   6.255  0.2295 -0.2940 -0.0920
 3211poe    c3116921   4.025   2.801   7.259  0.1629 -0.5419 -0.0304
 3211poe     o216922   4.069   2.926   7.212 -0.7608 -0.1644  0.0792
 3211poe    c2316923   4.083   3.021   7.316  0.3299  0.5104 -0.6645
 3211poe    c2316924   4.124   3.159   7.262 -0.2450  1.0479  0.2617
 3211poe     o216925   4.038   3.211   7.163 -0.8736 -0.0593  0.2204
 3211poe    c2316926   4.086   3.334   7.114  0.5101 -0.6099  0.1273
 3211poe    c2316927   3.979   3.400   7.025  0.6426 -0.5662  0.0023
 3211poe     o216928   3.972   3.323   6.907 -0.7690 -0.9126  0.2970
 3211poe    c2316929   3.956   3.400   6.790 -0.0138 -0.4215  0.5120
 3211poe    c2316930   3.942   3.323   6.658  0.1618 -0.1942  0.3599
 3211poe     o216931   3.816   3.276   6.616 -0.0683  0.0452  0.7765
 3211poe    c3116932   3.797   3.139   6.646 -0.1935 -0.0347  0.3343
 3212poe    c3116933   0.845   5.097   4.138  0.2678  0.1753  0.0917
 3212poe     o216934   0.857   5.001   4.241 -0.4530  0.6315  0.6143
 3212poe    c2316935   0.980   4.934   4.229 -0.9562 -0.1430 -0.3253
 3212poe    c2316936   0.943   4.796   4.287 -0.0679 -0.3306 -0.1923
 3212poe     o216937   0.856   4.804   4.398  0.5798 -0.3317  0.3257
 3212poe    c2316938   0.790   4.680   4.412 -0.4858  0.1734 -0.1349
 3212poe    c2316939   0.725   4.677   4.552 -0.1785  0.2528  0.0101
 3212poe     o216940   0.681   4.809   4.578 -0.1531  0.1895  0.3719
 3212poe    c2316941   0.589   4.789   4.683  0.1961 -0.2582  0.6021
 3212poe    c2316942   0.525   4.928   4.703  0.8213  0.2532 -0.8080
 3212poe     o216943   0.608   5.039   4.730  0.4161  0.2933  0.3133
 3212poe    c3116944   0.524   5.152   4.727 -0.2785 -0.2221 -0.1790
 3213poe    c3116945   3.104   6.343   0.566 -0.5010  0.1508  0.0597
 3213poe     o216946   3.136   6.425   0.676  0.6537 -0.1943 -0.0035
 3213poe    c2316947   3.020   6.427   0.755  0.6558  0.0024 -0.0034
 3213poe    c2316948   3.031   6.519   0.878 -0.1348  0.0344  0.0482
 3213poe     o216949   3.122   6.468   0.972  0.0479 -0.0769 -0.1881
 3213poe    c2316950   3.187   6.568   1.047 -0.1779 -0.2990  0.3150
 3213poe    c2316951   3.245   6.504   1.174  0.3747  0.5951  0.5237
 3213poe     o216952   3.359   6.423   1.155 -0.4642 -0.5558  0.3090
 3213poe    c2316953   3.404   6.359   1.272 -0.7972  0.1766  0.8410
 3213poe    c2316954   3.474   6.428   1.391 -0.1650  0.4467  0.3192
 3213poe     o216955   3.577   6.521   1.366 -0.2607  0.4890  0.0801
 3213poe    c3116956   3.637   6.540   1.492 -0.1505  0.3384  0.0512
 3214poe    c3116957   0.559   5.536   7.231 -0.4062  0.1943  0.7505
 3214poe     o216958   0.564   5.667   7.180  0.6792 -0.2596 -0.3653
 3214poe    c2316959   0.666   5.734   7.251  0.2392  0.4883 -0.4317
 3214poe    c2316960   0.630   5.838   7.359  0.0382  0.6197 -0.6238
 3214poe     o216961   0.738   5.920   7.397 -0.1482  0.4592  0.2879
 3214poe    c2316962   0.767   5.889   7.532  0.0372 -0.1758  0.1058
 3214poe    c2316963   0.803   6.012   7.616  0.5476  0.1175 -0.5315
 3214poe     o216964   0.695   6.102   7.615  0.5431  0.1186 -0.0758
 3214poe    c2316965   0.741   6.210   7.693  0.5345 -0.1809  0.3470
 3214poe    c2316966   0.627   6.273   7.776  0.2092 -0.3438  0.0292
 3214poe     o216967   0.525   6.333   7.700  0.2608  0.5561  0.6406
 3214poe    c3116968   0.428   6.402   7.776 -0.6081 -0.0860  0.1424
 3215poe    c3116969   5.398   5.640   5.667  0.0061  0.2638 -0.0688
 3215poe     o216970   5.453   5.516   5.630  0.0376 -0.0192  0.9089
 3215poe    c2316971   5.579   5.529   5.567 -0.4095 -0.2178 -0.0358
 3215poe    c2316972   5.698   5.450   5.623 -0.2764 -0.2204 -0.3199
 3215poe     o216973   5.676   5.313   5.602 -0.2742 -0.2409 -0.1907
 3215poe    c2316974   5.777   5.231   5.658 -0.2413  0.0432  0.1692
 3215poe    c2316975   5.740   5.082   5.651 -0.3570  0.1149 -0.9157
 3215poe     o216976   5.620   5.057   5.720  0.4377 -0.5351  0.2752
 3215poe    c2316977   5.600   4.918   5.711  0.0969 -0.4858  0.2375
 3215poe    c2316978   5.469   4.877   5.782 -0.2769  0.1166 -0.1008
 3215poe     o216979   5.365   4.938   5.708 -0.4155  0.1491  0.1234
 3215poe    c3116980   5.256   4.859   5.752 -0.4921  0.0032 -0.3320
 3216poe    c3116981   0.865   4.252   6.904  0.1674 -0.1802  0.0543
 3216poe     o216982   0.787   4.361   6.860  0.3224 -0.0470  0.1103
 3216poe    c2316983   0.677   4.315   6.786  0.0653  0.4539  0.1746
 3216poe    c2316984   0.577   4.414   6.723 -0.0019  0.0972 -0.2876
 3216poe     o216985   0.450   4.404   6.782 -0.0640 -0.4729 -0.5123
 3216poe    c2316986   0.379   4.501   6.708 -0.8758 -0.4391  0.2984
 3216poe    c2316987   0.241   4.552   6.754 -0.4491  0.3184  0.7617
 3216poe     o216988   0.154   4.441   6.757 -0.5851  0.4155  0.4538
 3216poe    c2316989   0.018   4.478   6.758 -0.7577 -0.2116  0.7453
 3216poe    c2316990  -0.064   4.351   6.788 -0.3010 -0.6177  0.2990
 3216poe     o216991  -0.004   4.251   6.710 -0.2021  0.1048 -0.5613
 3216poe    c3116992  -0.063   4.125   6.735 -0.3968  0.3117  0.0311
 3217poe    c3116993   6.141   3.193   0.682  0.4136 -0.2105  0.4437
 3217poe     o216994   6.123   3.285   0.787  0.5489  0.0399  0.2493
 3217poe    c2316995   6.069   3.233   0.906 -0.0016 -1.1329 -0.4941
 3217poe    c2316996   6.021   3.349   0.995  0.0701 -0.8628 -0.8054
 3217poe     o216997   5.893   3.378   0.944  0.1347 -0.0519 -0.5107
 3217poe    c2316998   5.831   3.476   1.025  0.3830 -0.0007 -0.3816
 3217poe    c2316999   5.708   3.550   0.970  0.4134  0.1789 -0.2083
 3217poe     o217000   5.741   3.587   0.837  0.4053 -0.1720 -0.3073
 3217poe    c2317001   5.623   3.645   0.787 -0.2147 -0.4155  0.8387
 3217poe    c2317002   5.645   3.665   0.636 -0.4663 -0.6503  0.7689
 3217poe     o217003   5.724   3.558   0.589  0.4592  0.1031  0.5697
 3217poe    c3117004   5.752   3.561   0.451 -1.4001 -0.2423  0.1461
 3218poe    c3117005   3.459   3.727   1.153 -0.2439 -0.2456 -0.3277
 3218poe     o217006   3.325   3.755   1.119 -0.0585  0.5116 -0.4458
 3218poe    c2317007   3.310   3.895   1.132 -0.3809  0.4548 -0.1932
 3218poe    c2317008   3.187   3.941   1.051 -0.1223  0.0258 -0.8404
 3218poe     o217009   3.070   3.911   1.123  0.2049  0.1132 -0.2604
 3218poe    c2317010   3.011   4.025   1.181 -0.1426  0.1392 -0.6570
 3218poe    c2317011   2.925   3.963   1.293  0.9455 -0.1648  0.0323
 3218poe     o217012   2.841   3.878   1.218 -0.6023  0.6619  0.7701
 3218poe    c2317013   2.758   3.806   1.306 -0.1865 -0.3660  0.3437
 3218poe    c2317014   2.684   3.708   1.213 -0.2237 -0.1205  0.1129
 3218poe     o217015   2.780   3.635   1.139 -0.4004  0.2653 -0.5013
 3218poe    c3117016   2.721   3.536   1.059  0.6741  0.1988 -1.2295
 3219poe    c3117017   4.919   1.682   7.287  0.2497  0.5948 -1.0823
 3219poe     o217018   4.862   1.558   7.250  0.1852  0.4903 -0.6372
 3219poe    c2317019   4.920   1.525   7.126 -0.0621 -0.3253 -0.5388
 3219poe    c2317020   4.866   1.385   7.089 -0.2481 -0.5100  0.4047
 3219poe     o217021   4.909   1.283   7.176  0.3259 -0.3892  0.2692
 3219poe    c2317022   4.854   1.154   7.159 -0.4815  0.0400 -0.4684
 3219poe    c2317023   4.878   1.052   7.272  0.1651  0.5268 -0.1572
 3219poe     o217024   4.816   1.094   7.391  0.8556  0.4185  0.2445
 3219poe    c2317025   4.840   1.010   7.502  0.0276 -0.6233 -0.3402
 3219poe    c2317026   4.940   1.081   7.595 -0.3509 -0.3005 -0.1775
 3219poe     o217027   4.908   1.210   7.641  0.0584 -0.1173 -0.4011
 3219poe    c3117028   4.986   1.238   7.755 -0.0234 -0.5813 -0.2296
 3220poe    c3117029   0.815   6.443   5.460  0.3819 -0.7376  0.9853
 3220poe     o217030   0.890   6.391   5.351 -0.1453  0.3679  0.0766
 3220poe    c2317031   1.023   6.434   5.337  0.0507 -0.3689 -0.3205
 3220poe    c2317032   1.098   6.402   5.206 -0.1580 -1.3560 -0.2085
 3220poe     o217033   1.068   6.479   5.092 -0.4408 -0.9610  0.1299
 3220poe    c2317034   1.135   6.439   4.975 -0.0986  0.3960 -0.1536
 3220poe    c2317035   1.037   6.371   4.878  0.3847 -0.3753 -0.1110
 3220poe     o217036   1.100   6.266   4.808 -0.3540 -0.3640 -0.8166
 3220poe    c2317037   1.200   6.298   4.714 -0.3458 -0.1970 -0.7509
 3220poe    c2317038   1.265   6.164   4.673  0.0605 -0.1579 -0.2467
 3220poe     o217039   1.174   6.079   4.608  0.0952 -0.5275  0.1829
 3220poe    c3117040   1.242   5.991   4.521  0.5632 -0.5294  0.5473
 3221poe    c3117041   2.291   4.464   6.304  0.1011 -0.6367 -0.3840
 3221poe     o217042   2.342   4.360   6.386 -0.3380 -0.4452  0.1402
 3221poe    c2317043   2.244   4.327   6.481 -0.2903  0.2135  0.4251
 3221poe    c2317044   2.176   4.191   6.459 -0.1281  0.2383 -0.2287
 3221poe     o217045   2.060   4.168   6.381  0.1267 -0.2293 -0.4789
 3221poe    c2317046   1.937   4.228   6.417  0.2195 -0.5283  0.3549
 3221poe    c2317047   1.831   4.150   6.336 -0.0771 -0.2526  0.4777
 3221poe     o217048   1.845   4.184   6.200  0.0998 -0.3156  0.4802
 3221poe    c2317049   1.810   4.080   6.112 -0.0289  0.1527 -0.0277
 3221poe    c2317050   1.802   4.131   5.967 -0.0335 -0.0063 -0.0836
 3221poe     o217051   1.934   4.172   5.938  0.0112  0.1027  0.2590
 3221poe    c3117052   1.973   4.149   5.804 -0.2706 -0.2934  0.2418
 3222poe    c3117053   4.618   0.046   3.027  0.2753  0.2181  0.7404
 3222poe     o217054   4.605  -0.071   3.105  0.4584 -0.0791  0.3312
 3222poe    c2317055   4.529  -0.175   3.047  0.6531 -0.0022 -0.0659
 3222poe    c2317056   4.539  -0.315   3.110 -0.1263 -0.0415 -0.0220
 3222poe     o217057   4.463  -0.348   3.225 -0.2866  0.3024 -0.0294
 3222poe    c2317058   4.350  -0.431   3.207 -0.0267  0.0270 -0.4118
 3222poe    c2317059   4.383  -0.576   3.245 -0.4680 -0.0195 -0.2093
 3222poe     o217060   4.265  -0.653   3.241 -0.1957 -0.4439 -0.1404
 3222poe    c2317061   4.229  -0.695   3.371 -0.4975 -0.0456 -0.0950
 3222poe    c2317062   4.287  -0.833   3.405  0.1658  0.2194 -0.1225
 3222poe     o217063   4.292  -0.853   3.545  0.1764 -0.4208 -0.2105
 3222poe    c3117064   4.313  -0.990   3.574  0.3634 -0.2365  0.5287
 3223poe    c3117065   0.101   0.013   3.149  0.9173 -0.3326  0.4982
 3223poe     o217066  -0.001  -0.036   3.233 -0.0486  0.4547 -0.1843
 3223poe    c2317067   0.035  -0.164   3.279 -0.3600  0.4750  0.1199
 3223poe    c2317068  -0.083  -0.219   3.361 -0.4468  0.2042 -0.1837
 3223poe     o217069  -0.127  -0.145   3.473 -0.4213  0.0036 -0.0411
 3223poe    c2317070  -0.113  -0.227   3.587 -0.0096  0.3249  0.1379
 3223poe    c2317071  -0.110  -0.164   3.727 -0.4355  0.6541  0.0001
 3223poe     o217072   0.000  -0.079   3.751  0.4756 -0.4954 -0.0371
 3223poe    c2317073   0.002  -0.050   3.889  0.2958  0.3312 -0.2054
 3223poe    c2317074   0.023   0.095   3.938 -0.0443  0.0531  0.7810
 3223poe     o217075  -0.069   0.185   3.881  0.0139 -0.3109  0.0988
 3223poe    c3117076  -0.037   0.310   3.937  0.3760 -0.2853 -0.1626
 3224poe    c3117077   4.910   2.496   7.289 -0.0616 -0.2919  0.0848
 3224poe     o217078   4.967   2.621   7.322 -0.6266 -0.1342  0.4725
 3224poe    c2317079   4.923   2.734   7.250  0.1703 -0.0157  0.1583
 3224poe    c2317080   4.977   2.853   7.331 -0.2005  0.5610 -0.4343
 3224poe     o217081   4.944   2.833   7.467  0.1841  0.0066 -0.4181
 3224poe    c2317082   5.033   2.913   7.541  0.1373 -0.3989  0.0768
 3224poe    c2317083   4.985   2.919   7.687  0.3430  0.7102  0.1085
 3224poe     o217084   4.952   2.787   7.723  0.1819  0.5192 -0.7233
 3224poe    c2317085   4.967   2.752   7.859 -0.8243  0.0830 -0.7096
 3224poe    c2317086   4.833   2.739   7.933 -0.4925  0.4952 -0.0204
 3224poe     o217087   4.766   2.619   7.900 -0.3345  0.3380  0.2302
 3224poe    c3117088   4.643   2.591   7.961 -0.4209 -0.2061 -0.1849
 3225poe    c3117089   5.087   0.229   3.126  0.5148 -0.6512 -0.1179
 3225poe     o217090   4.953   0.231   3.084  0.3808  0.1593  0.3410
 3225poe    c2317091   4.917   0.361   3.042 -0.0164 -0.0218  0.1098
 3225poe    c2317092   4.766   0.393   3.048 -0.0729 -0.2738  0.0138
 3225poe     o217093   4.744   0.433   3.181 -0.1294  0.8131 -0.3170
 3225poe    c2317094   4.608   0.444   3.218 -0.1339 -0.3726  0.0557
 3225poe    c2317095   4.583   0.468   3.368  0.2179  0.2404  0.0165
 3225poe     o217096   4.610   0.364   3.459  0.6494 -0.3046 -0.7252
 3225poe    c2317097   4.745   0.351   3.499  0.4557  0.2791  0.1407
 3225poe    c2317098   4.825   0.243   3.424  0.1351  0.0723  0.0960
 3225poe     o217099   4.769   0.123   3.472 -0.0319  0.1527  0.1047
 3225poe    c3117100   4.758   0.028   3.368  0.2922  0.3799 -0.1394
 3226poe    c3117101   2.188   0.976   0.286  0.3833  0.1622 -0.4326
 3226poe     o217102   2.092   0.884   0.241  0.0912 -0.0011  0.4865
 3226poe    c2317103   2.016   0.946   0.140  0.0447 -1.3075 -0.3146
 3226poe    c2317104   1.897   0.856   0.102 -0.5730 -0.5896 -0.1062
 3226poe     o217105   1.932   0.721   0.119 -0.3231 -0.4662  0.3780
 3226poe    c2317106   1.847   0.617   0.078 -0.2251 -0.3637 -0.0907
 3226poe    c2317107   1.906   0.491   0.144  0.3155  0.0356  0.1945
 3226poe     o217108   1.909   0.518   0.282  0.2639  0.6848  0.0710
 3226poe    c2317109   1.811   0.455   0.361  0.0764  0.5211 -0.2946
 3226poe    c2317110   1.880   0.427   0.496  0.2618  0.3973 -0.4133
 3226poe     o217111   1.933   0.538   0.565 -0.1872  0.2130  0.2399
 3226poe    c3117112   1.976   0.488   0.690 -0.1907  0.4296  0.3277
 3227poe    c3117113   3.404   3.345   5.606 -0.1348 -0.6072  0.2354
 3227poe     o217114   3.340   3.349   5.480 -0.0319  0.5653  0.2114
 3227poe    c2317115   3.202   3.321   5.479  0.0516  0.1610 -0.1355
 3227poe    c2317116   3.144   3.325   5.336  0.0466 -0.0806 -0.1413
 3227poe     o217117   3.127   3.458   5.292  0.2216 -0.1633 -0.4626
 3227poe    c2317118   3.108   3.467   5.152  0.2529  0.5673 -0.4251
 3227poe    c2317119   3.221   3.430   5.054  0.5228 -0.1074  0.1263
 3227poe     o217120   3.229   3.291   5.035  0.0474 -0.0502 -0.5347
 3227poe    c2317121   3.344   3.225   5.085 -0.0420  0.0223 -0.2313
 3227poe    c2317122   3.481   3.287   5.051  0.2910 -0.6190 -0.0710
 3227poe     o217123   3.552   3.334   5.163  0.1928  0.0823 -0.2928
 3227poe    c3117124   3.634   3.447   5.146  0.2555  0.2419  0.9296
 3228poe    c3117125   3.116   2.780   1.645 -0.4375 -0.9674 -0.0536
 3228poe     o217126   3.050   2.802   1.768  0.2963  0.0615  0.1730
 3228poe    c2317127   2.987   2.679   1.797 -0.2891  0.2293 -0.3614
 3228poe    c2317128   2.864   2.687   1.889 -0.1818  0.6583 -0.2541
 3228poe     o217129   2.878   2.758   2.010  0.3583  0.4231 -0.1760
 3228poe    c2317130   2.966   2.719   2.113 -0.2954 -0.6153 -0.0039
 3228poe    c2317131   2.895   2.623   2.211  0.0245 -0.1177  0.7280
 3228poe     o217132   2.864   2.501   2.148  0.0607  0.5404 -0.6092
 3228poe    c2317133   2.761   2.429   2.213  0.9222 -0.0341  0.1318
 3228poe    c2317134   2.791   2.360   2.347 -0.1545  0.1562  0.4803
 3228poe     o217135   2.903   2.277   2.322 -0.2452  0.0781  0.3349
 3228poe    c3117136   2.926   2.184   2.426 -0.3733 -0.6268 -0.2582
 3229poe    c3117137   4.981   3.399   0.465  0.2199 -0.6735  0.4362
 3229poe     o217138   4.843   3.387   0.443  0.2051 -0.0955  0.2068
 3229poe    c2317139   4.796   3.257   0.474 -0.2935 -0.0525 -0.3362
 3229poe    c2317140   4.748   3.224   0.616 -0.2525 -0.3168 -0.3833
 3229poe     o217141   4.854   3.229   0.709 -0.1823 -0.3220 -0.4635
 3229poe    c2317142   4.831   3.184   0.841 -0.2877 -0.3352 -0.4857
 3229poe    c2317143   4.948   3.178   0.940 -0.3841  0.0407 -0.3455
 3229poe     o217144   5.021   3.057   0.946 -0.7310 -0.1770 -0.5054
 3229poe    c2317145   5.136   3.054   0.865  0.1838 -0.0637  0.7531
 3229poe    c2317146   5.236   2.944   0.906 -0.1928 -0.6413  0.1378
 3229poe     o217147   5.298   2.975   1.028  0.0305 -0.4700 -0.0188
 3229poe    c3117148   5.385   2.868   1.058 -0.3742 -0.7910  0.0250
 3230poe    c3117149   4.987   6.731   7.062  0.6971  0.7569  0.4105
 3230poe     o217150   4.950   6.651   7.172 -0.1145 -0.6021 -0.8080
 3230poe    c2317151   5.063   6.658   7.257 -0.5008 -0.2035 -0.3200
 3230poe    c2317152   5.073   6.548   7.364 -0.1689 -0.0156 -0.1568
 3230poe     o217153   5.127   6.428   7.314  0.1458 -0.1367  0.4628
 3230poe    c2317154   5.112   6.326   7.410 -0.0180 -0.3656  0.1955
 3230poe    c2317155   5.195   6.203   7.365  1.1834  0.8327 -0.9681
 3230poe     o217156   5.142   6.153   7.244 -0.1297  0.4387 -0.2502
 3230poe    c2317157   5.211   6.042   7.192 -0.3728  0.0167  0.3207
 3230poe    c2317158   5.137   6.005   7.062  0.0064  0.1332  0.0686
 3230poe     o217159   5.072   6.117   7.005  0.0584 -0.1108 -0.4709
 3230poe    c3117160   5.005   6.066   6.892 -0.1887 -0.5916 -0.1098
 3231poe    c3117161   6.465   2.374   7.318  0.5370 -0.1862  0.9646
 3231poe     o217162   6.336   2.323   7.341  0.4207  0.0420  0.8192
 3231poe    c2317163   6.234   2.420   7.346  0.2654 -0.0835  0.1738
 3231poe    c2317164   6.098   2.360   7.385  0.0839  0.1897 -0.0292
 3231poe     o217165   6.083   2.364   7.525  0.1865  0.5102 -0.0284
 3231poe    c2317166   5.977   2.286   7.576  0.1924  0.3823 -0.2133
 3231poe    c2317167   6.030   2.192   7.686 -0.0705  0.1256 -0.3027
 3231poe     o217168   6.100   2.075   7.651  0.0466 -0.0671  0.5388
 3231poe    c2317169   6.110   1.976   7.750  0.1462 -0.5307  0.0698
 3231poe    c2317170   6.119   1.847   7.666  0.3898 -0.3597 -0.1645
 3231poe     o217171   6.243   1.831   7.601  0.6746  0.0841  0.2568
 3231poe    c3117172   6.231   1.722   7.511  0.1326  0.1147  0.2880
 3232poe    c3117173   2.483   1.219   4.091  0.0420  0.0052 -0.0669
 3232poe     o217174   2.616   1.182   4.062  0.2043  0.5847 -0.0689
 3232poe    c2317175   2.618   1.088   3.957  0.3175  0.5217 -0.0097
 3232poe    c2317176   2.756   1.020   3.946  0.0242 -0.1020  0.1219
 3232poe     o217177   2.855   1.114   3.914 -0.5190  0.3123 -0.3668
 3232poe    c2317178   2.975   1.043   3.892 -0.4847  0.4253 -0.5527
 3232poe    c2317179   3.107   1.106   3.845 -0.0814 -0.6222 -0.8647
 3232poe     o217180   3.081   1.171   3.723  0.0558 -0.0562 -0.5988
 3232poe    c2317181   3.207   1.197   3.665  0.2766 -0.1796 -0.1777
 3232poe    c2317182   3.184   1.279   3.536  0.0469 -0.3678 -0.2578
 3232poe     o217183   3.122   1.401   3.571 -0.1851 -0.3500 -0.7367
 3232poe    c3117184   3.134   1.497   3.468  0.4772  0.3951  0.0290
 3233poe    c3117185   1.358   4.337   3.961  0.0490  0.3117 -0.1417
 3233poe     o217186   1.431   4.359   4.080 -0.4904  0.1010  0.2284
 3233poe    c2317187   1.485   4.240   4.133 -0.0528  0.0098 -0.4130
 3233poe    c2317188   1.628   4.207   4.086  0.1310  0.0846  0.0857
 3233poe     o217189   1.727   4.283   4.151  0.2263  0.1531 -0.1351
 3233poe    c2317190   1.840   4.200   4.163  0.1046  0.0472  0.3027
 3233poe    c2317191   1.952   4.305   4.171  0.2810 -0.1170  0.0016
 3233poe     o217192   1.908   4.380   4.282  0.4128 -0.3116  0.1850
 3233poe    c2317193   2.005   4.459   4.346  0.1921 -0.1437  0.3142
 3233poe    c2317194   1.943   4.517   4.475  0.2836 -0.2493  0.4069
 3233poe     o217195   1.819   4.569   4.433  0.3329  0.2780  0.9060
 3233poe    c3117196   1.775   4.669   4.522 -0.2343  1.1282 -0.3019
 3234poe    c3117197   0.237   1.713   6.288 -0.1979 -0.0449  0.1981
 3234poe     o217198   0.351   1.713   6.204 -0.2697 -0.1124  0.1001
 3234poe    c2317199   0.433   1.827   6.217 -0.3008 -0.1204  0.3801
 3234poe    c2317200   0.523   1.837   6.092 -0.0951  0.2739  0.5598
 3234poe     o217201   0.458   1.894   5.980 -0.3377 -0.0259  0.5482
 3234poe    c2317202   0.383   1.801   5.905  0.2819  0.3139 -0.5056
 3234poe    c2317203   0.360   1.840   5.758  0.1777  0.9759 -0.3175
 3234poe     o217204   0.253   1.931   5.767  0.0161  0.7624 -0.0955
 3234poe    c2317205   0.210   1.978   5.641 -0.0255 -0.5270 -0.5782
 3234poe    c2317206   0.091   2.076   5.646 -0.0698 -0.5915 -0.3092
 3234poe     o217207  -0.040   2.032   5.674 -0.2095  0.1096  0.1649
 3234poe    c3117208  -0.062   2.029   5.813  0.3896 -0.9333  0.2505
 3235poe    c3117209   5.917   6.455   7.140 -0.2013 -0.4817  0.3784
 3235poe     o217210   5.792   6.505   7.182 -0.0214 -0.1802  0.5593
 3235poe    c2317211   5.810   6.636   7.231  0.4658 -0.2617  0.6048
 3235poe    c2317212   5.689   6.731   7.218  0.5632 -0.2945 -0.7254
 3235poe     o217213   5.631   6.721   7.090 -0.3043 -0.2547 -0.3435
 3235poe    c2317214   5.589   6.845   7.039  0.0114  0.1623  0.3983
 3235poe    c2317215   5.480   6.806   6.938  0.1472  0.8469 -0.0199
 3235poe     o217216   5.535   6.736   6.830  0.2044  0.0915  0.4913
 3235poe    c2317217   5.455   6.697   6.720  0.2737 -0.3343  0.5876
 3235poe    c2317218   5.474   6.773   6.587 -0.0484 -0.3919  0.5066
 3235poe     o217219   5.598   6.746   6.524 -0.3122  0.3737 -0.3564
 3235poe    c3117220   5.595   6.792   6.391  0.2189  1.5513  0.0210
 3236poe    c3117221   6.038   7.299   3.422  0.2086  0.5044 -0.2633
 3236poe     o217222   5.986   7.394   3.511 -0.4569  0.1801 -0.2966
 3236poe    c2317223   6.076   7.444   3.607 -0.9038  0.2994  0.0682
 3236poe    c2317224   6.052   7.380   3.745 -0.3785  0.0839  0.0650
 3236poe     o217225   6.075   7.241   3.747  0.0108  0.1432 -0.2138
 3236poe    c2317226   6.017   7.174   3.857  0.1490  0.3486 -0.0161
 3236poe    c2317227   6.011   7.021   3.867  0.0232  0.3889  0.5245
 3236poe     o217228   5.989   6.993   4.004 -0.5110 -0.4470  0.2742
 3236poe    c2317229   5.957   6.858   4.028  0.4494 -0.7149  0.0975
 3236poe    c2317230   5.876   6.865   4.160  0.4356  0.3531  0.0424
 3236poe     o217231   5.754   6.927   4.127  0.3682  0.2705  0.1389
 3236poe    c3117232   5.650   6.831   4.129  0.5808  0.0322 -0.0968
 3237poe    c3117233   7.117   3.609   5.950  0.2846  0.1254  0.4266
 3237poe     o217234   7.194   3.617   6.068  0.3404  0.0447  0.3956
 3237poe    c2317235   7.310   3.697   6.056  0.4026 -0.0764  0.1692
 3237poe    c2317236   7.370   3.715   6.197 -0.3940 -0.4036  0.5570
 3237poe     o217237   7.453   3.826   6.224 -0.5626 -0.0382 -0.3891
 3237poe    c2317238   7.484   3.860   6.357 -0.2335 -0.0869 -0.4531
 3237poe    c2317239   7.365   3.899   6.447  0.2072 -0.2405  0.2032
 3237poe     o217240   7.303   4.016   6.398  0.8581  0.0760  0.1254
 3237poe    c2317241   7.189   3.984   6.321  0.4937  0.7145  0.3902
 3237poe    c2317242   7.140   4.083   6.215 -0.1009 -0.5645 -0.5507
 3237poe     o217243   7.218   4.085   6.098  0.7919  0.2239  0.0438
 3237poe    c3117244   7.151   4.147   5.990  0.2016 -0.6835 -0.1290
 3238poe    c3117245   2.303   0.821   2.973 -0.2153 -0.2053  0.1323
 3238poe     o217246   2.416   0.744   3.008  0.0877 -0.1927 -0.7972
 3238poe    c2317247   2.406   0.698   3.141 -0.4315 -0.0787 -0.7963
 3238poe    c2317248   2.526   0.609   3.177 -0.1013  0.4762 -0.5121
 3238poe     o217249   2.647   0.678   3.157  0.0235  0.3590 -0.1675
 3238poe    c2317250   2.763   0.606   3.189 -0.0148  0.3004 -0.1608
 3238poe    c2317251   2.878   0.708   3.207 -0.1594  0.3394  0.5676
 3238poe     o217252   2.868   0.802   3.103 -0.3856 -0.2504  0.0538
 3238poe    c2317253   2.981   0.884   3.109 -0.4330 -0.1644 -0.2005
 3238poe    c2317254   2.974   0.982   2.991  0.3780  0.2106  0.0457
 3238poe     o217255   2.845   1.038   3.001 -0.0855 -0.6529 -0.8664
 3238poe    c3117256   2.851   1.167   2.943 -0.2058 -0.1160  0.2939
 3239poe    c3117257   5.271   5.011   3.921  0.5601  0.2759  0.1306
 3239poe     o217258   5.374   4.924   3.880  0.1600 -0.3640  0.4847
 3239poe    c2317259   5.434   4.861   3.991 -0.0743 -0.4608  0.5592
 3239poe    c2317260   5.445   4.707   4.002 -0.3202 -0.5324 -0.1601
 3239poe     o217261   5.321   4.643   4.024 -0.1530 -0.7213  0.2350
 3239poe    c2317262   5.356   4.509   4.050  0.1888 -0.6293  0.2487
 3239poe    c2317263   5.241   4.425   4.109 -0.4689  0.1920  0.1496
 3239poe     o217264   5.174   4.485   4.217  0.1463  0.1711  0.5467
 3239poe    c2317265   5.087   4.398   4.286 -0.4715  0.2189 -0.1597
 3239poe    c2317266   5.019   4.485   4.392  0.1359  0.1005  0.3314
 3239poe     o217267   4.941   4.593   4.346  0.7272  0.3505 -0.0962
 3239poe    c3117268   4.881   4.670   4.448  0.3003 -0.1398  0.0219
 3240poe    c3117269   5.315   6.400   5.651  0.3353 -0.0513  0.1168
 3240poe     o217270   5.401   6.470   5.739 -0.0029  0.6301 -0.0833
 3240poe    c2317271   5.343   6.474   5.867  0.0399 -0.5131 -0.0177
 3240poe    c2317272   5.453   6.530   5.959 -0.3920 -0.3011  0.3699
 3240poe     o217273   5.563   6.449   5.928 -0.2825 -0.2687  0.6708
 3240poe    c2317274   5.682   6.465   6.003  0.3490 -0.0092 -0.3692
 3240poe    c2317275   5.776   6.343   5.990  1.0927  0.4660  0.4981
 3240poe     o217276   5.784   6.300   5.856  0.4938  0.3115  0.5096
 3240poe    c2317277   5.873   6.194   5.829  0.1842 -0.0029  0.7098
 3240poe    c2317278   5.891   6.128   5.691 -0.2640  0.4135  0.4471
 3240poe     o217279   5.782   6.038   5.689  0.1881 -0.1351  0.0547
 3240poe    c3117280   5.801   5.952   5.579  0.2861  0.4716 -0.4131
 3241lim     li17281   2.935   0.097   0.381 -0.6895  0.2166  0.7990
 3242lim     li17282   5.438   6.538   2.668  1.2069 -0.4852 -0.3390
 3243lim     li17283   1.569   2.599   4.350 -0.4393  0.1457 -0.5315
 3244lim     li17284   4.385   1.998   4.661 -0.0992  0.6943  0.0499
 3245lim     li17285   0.841   4.113   3.368  0.8466  0.3098 -0.0857
 3246lim     li17286   5.398   1.727   0.564  0.0721  0.1472  0.7091
 3247lim     li17287   6.380   3.536   5.213  0.0612  0.2126  0.0010
 3248lim     li17288   3.065   7.085   5.965 -0.5502  1.1446  0.2021
 3249lim     li17289   6.829   5.977   1.106  0.0736  0.0096 -0.7522
 3250lim     li17290   3.312   6.214   6.065 -0.3807 -0.7897 -1.2777
 3251lim     li17291   4.328   1.266   2.959 -0.6871 -0.1127 -1.2008
 3252lim     li17292   6.911   1.707   3.500  0.3258 -0.5877 -0.2145
 3253lim     li17293   5.019   0.839   6.086 -0.5065 -0.4774 -0.1208
 3254lim     li17294   4.982   4.076   7.186 -0.6342  0.2088  0.5218
 3255lim     li17295   5.581   1.427   1.656  0.5125  0.1781 -0.7094
 3256lim     li17296   6.638   1.841   0.247  0.6266  0.9712  0.3003
 3257lim     li17297   1.994   6.295   1.242  0.0009 -1.4769 -1.4591
 3258lim     li17298   0.758   2.691   0.820  0.6764 -0.3902 -0.1018
 3259lim     li17299   3.846   4.203   6.381 -0.7831  0.8159  0.0873
 3260lim     li17300   6.434   5.454   0.931 -1.5284  1.1607 -0.4082
 3261lim     li17301   3.261   0.410   2.886 -0.5465 -0.5199  0.2277
 3262lim     li17302   5.835   2.780   3.554  0.0251  0.0733  0.2435
 3263lim     li17303   7.271   4.852   2.368 -0.4434 -0.3442 -0.4294
 3264lim     li17304   5.642   0.046   2.038 -0.9128 -0.6666 -0.6484
 3265lim     li17305   6.000   4.269   5.872 -0.3879 -0.4347  0.7396
 3266lim     li17306   1.834   4.398   3.475 -0.1651  0.0931  0.7864
 3267lim     li17307   1.990   2.382   3.055  0.4667 -0.1495 -1.0462
 3268lim     li17308   4.610   5.745   0.167 -0.0950  0.3220  1.8255
 3269lim     li17309   1.950   3.336   0.582 -0.1134 -0.6088 -0.6534
 3270lim     li17310   1.737   4.420   4.298  0.1259  0.2839  0.1319
 3271lim     li17311   0.279   5.013   7.346  0.4252 -0.7068  0.6631
 3272lim     li17312   3.829   6.168   3.093 -1.2471 -0.8703 -0.0093
 3273lim     li17313   2.561   5.529   1.241  0.2657  0.5482  0.0013
 3274lim     li17314   2.142   6.491   2.154  0.2142 -0.2757 -0.6650
 3275lim     li17315   3.024   4.386   4.386  0.0664 -0.6722 -0.7269
 3276lim     li17316   1.797   1.270   5.742 -0.2857 -0.5759 -0.8065
 3277lim     li17317   6.151   0.585   2.815  1.1834 -0.6049  0.9106
 3278lim     li17318   5.841   0.342   1.203 -0.2279  0.2092  0.2360
 3279lim     li17319   4.147   2.347   2.267 -0.4380  1.2177 -0.2170
 3280lim     li17320   3.221   3.428   1.884 -0.6223  0.4640 -0.4735
 3281lim     li17321   7.210   2.302   1.124  0.2637 -0.3598  0.0358
 3282lim     li17322   4.564   2.051   1.910  0.3914  0.1136  0.5233
 3283lim     li17323   1.738   0.458   3.635  0.1837  0.0034  1.3540
 3284lim     li17324   1.397   0.263   3.077  0.1665  0.9035  1.2423
 3285lim     li17325   2.245   6.706   0.007  0.3912  0.3569  0.4974
 3286lim     li17326   4.145   1.073   4.724  1.0324 -0.3071  0.4248
 3287lim     li17327   1.141   1.567   0.885  0.6665  0.7373  1.5696
 3288lim     li17328   6.899   0.314   6.587 -0.7389 -0.8930  0.2624
 3289lim     li17329   0.718   6.123   1.901 -0.7658 -0.6840  0.1459
 3290lim     li17330   7.273   6.591   4.887  0.3128 -0.5286  0.3959
 3291lim     li17331   5.796   0.159   3.193  0.0656  0.2437  0.0262
 3292lim     li17332   2.572   3.668   5.804 -0.4490 -0.0840  0.1815
 3293lim     li17333   6.600   6.363   1.386  0.6317 -0.0888 -0.0760
 3294lim     li17334   5.576   5.676   2.440  0.8569  0.9677 -0.2525
 3295lim     li17335   6.302   7.013   1.322 -1.0684  0.5190 -0.1639
 3296lim     li17336   1.834   2.286   4.633 -0.0767 -0.3254 -0.3646
 3297lim     li17337   4.387   1.960   0.560  1.5088 -0.2931 -0.0781
 3298lim     li17338   6.180   0.715   4.277 -0.8407  0.1343 -0.8803
 3299lim     li17339   2.677   3.107   1.896 -0.3168 -0.2080  0.5551
 3300lim     li17340   0.095   4.722   3.809  0.4221  0.5640 -0.6247
 3301lim     li17341   6.970   3.994   2.595  0.0521  0.3610 -1.0066
 3302lim     li17342   6.263   4.428   3.557 -0.0917 -0.5010  0.4995
 3303lim     li17343   2.903   6.443   4.947  0.1177  1.2667 -0.3370
 3304lim     li17344   5.684   0.695   7.002 -0.0503  0.9517  0.2135
 3305lim     li17345   4.987   5.246   0.235 -0.1158  0.9356  1.8858
 3306lim     li17346   1.945   6.678   4.870 -0.2108  0.3317  0.5585
 3307lim     li17347   1.442   4.852   6.714 -0.8062  1.0286  0.3809
 3308lim     li17348   6.465   1.137   0.510  0.1363  0.7515  0.7946
 3309lim     li17349   1.047   3.968   4.744  0.3578 -0.1913 -0.1584
 3310lim     li17350   1.480   3.841   6.743 -0.0696 -1.1140  0.9039
 3311lim     li17351   1.130   1.376   4.456 -0.8713 -0.3914  0.0519
 3312lim     li17352   2.121   5.055   1.432  0.0130  0.9616  0.4000
 3313lim     li17353   6.879   4.680   1.283 -0.6781 -0.9604 -0.9058
 3314lim     li17354   0.429   1.784   4.273  1.5943  0.2176  0.6818
 3315lim     li17355   1.622   7.264   2.129  0.6262 -0.8274  0.3432
 3316lim     li17356   2.384   7.224   2.224  1.9753  0.8851  0.3029
 3317lim     li17357   5.988   0.898   1.100 -1.1015  0.4678  0.2839
 3318lim     li17358   6.213   6.812   5.088  0.0649  0.2884  0.7887
 3319lim     li17359   4.866   0.620   0.090  1.0575 -0.3822  0.2722
 3320lim     li17360   1.401   2.524   0.289 -0.6115  0.3277  0.1715
 3321lim     li17361   0.053   2.494   5.882  0.5455  0.3972  0.2008
 3322lim     li17362   2.917   0.278   6.752 -0.1270 -0.2704  1.0550
 3323lim     li17363   5.944   4.722   4.462  0.1846 -0.5791 -0.6587
 3324lim     li17364   7.245   0.328   3.119 -0.1007  0.6106  0.2652
 3325lim     li17365   1.384   6.218   1.707 -1.4665  0.4557  0.5428
 3326lim     li17366   0.817   5.308   0.779 -0.0610 -0.6066 -0.0830
 3327lim     li17367   5.511   2.582   7.348 -0.0624  0.1551  0.2537
 3328lim     li17368   4.795   3.140   2.567 -0.5789 -0.3130 -0.9306
 3329lim     li17369   0.775   0.830   6.350  0.0608  0.3683  0.5750
 3330lim     li17370   3.617   6.826   3.898 -0.2811 -0.3801  0.2620
 3331lim     li17371   4.551   7.169   5.602 -0.4037 -1.2009  0.3674
 3332lim     li17372   0.667   5.904   1.078  0.1159 -0.6077 -0.2810
 3333lim     li17373   4.886   3.414   3.224 -0.1807  0.0584 -0.0369
 3334lim     li17374   6.433   6.820   3.995  0.2282 -0.1452  0.4835
 3335lim     li17375   4.916   1.496   3.789 -1.2335  0.7601  0.4352
 3336lim     li17376   0.942   0.624   5.541  0.8512 -0.1140  0.2385
 3337lim     li17377   0.177   4.250   6.021 -2.0729  0.5157 -0.4775
 3338lim     li17378   6.395   2.122   2.486 -0.3003  0.2973 -0.5088
 3339lim     li17379   1.887   5.288   0.440  1.5461 -0.8740 -0.5131
 3340lim     li17380   2.424   0.840   6.712 -0.4025 -1.1954  1.2698
 3341lim     li17381   0.074   3.397   4.638  0.0448  0.8990  0.6015
 3342lim     li17382   3.017   1.097   1.425  0.7107  0.7641  1.3398
 3343lim     li17383   2.061   3.040   1.450 -0.4721  0.3958  0.4320
 3344lim     li17384   0.166   0.705   6.822  1.1318 -1.3248 -0.0507
 3345lim     li17385   1.634   0.893   2.496 -0.5282  1.2864  0.1687
 3346lim     li17386   0.093   4.185   3.335 -0.2576  0.3461  0.1117
 3347lim     li17387   6.770   3.405   1.941  0.1899  0.3392  0.5803
 3348lim     li17388   1.484   7.187   0.352  0.6561  0.7998 -0.1398
 3349lim     li17389   0.739   2.214   1.491 -0.9222 -0.9293  0.9190
 3350lim     li17390   5.680   3.532   5.920  0.2125 -0.3086 -0.3680
 3351lim     li17391   1.074   0.366   0.914 -0.1596  0.8421 -0.0640
 3352lim     li17392   1.939   1.640   3.944  1.2303  0.9602 -0.3122
 3353lim     li17393   4.519   0.474   2.175  0.1979  0.9902  0.1962
 3354lim     li17394   3.465   7.204   2.584 -0.9378  0.2899 -0.2839
 3355lim     li17395   1.512   4.283   1.302  0.7428  0.5034  1.6442
 3356lim     li17396   0.389   5.535   6.834 -0.6020 -0.0336 -0.2740
 3357lim     li17397   4.081   4.627   3.612 -0.3014  0.2680 -0.2234
 3358lim     li17398   1.082   3.901   0.450 -0.6246  0.5928 -1.4271
 3359lim     li17399   5.064   2.983   3.813 -0.4499 -0.6826  0.1818
 3360lim     li17400   0.344   3.673   0.494 -1.2491  0.1597 -0.4831
 3361lim     li17401   6.128   7.257   5.470  0.6641 -0.5492 -0.1707
 3362lim     li17402   0.878   5.039   5.210 -1.1408 -0.7036 -0.1575
 3363lim     li17403   3.895   3.268   3.238  0.1183 -1.0219 -0.5222
 3364lim     li17404   6.456   6.105   4.626  0.1393 -1.1965  0.3431
 3365lim     li17405   2.534   1.846   2.411 -0.9758  0.1518 -0.9280
 3366lim     li17406   4.173   0.299   3.703 -0.8789  0.9860  0.0632
 3367lim     li17407   1.749   0.221   5.818 -0.4077 -0.9990  0.4594
 3368lim     li17408   6.951   2.990   3.341  0.0078 -1.7192 -0.5695
 3369lim     li17409   2.163   5.661   4.623  0.3362  0.8812  0.5609
 3370lim     li17410   5.884   2.859   6.334 -1.0023  0.7261 -0.4419
 3371lim     li17411   2.663   5.295   3.112 -1.1361 -0.9285  0.7138
 3372lim     li17412   4.750   6.320   5.749  0.8762 -0.3381  0.7749
 3373lim     li17413   5.210   5.373   6.583 -0.0647 -0.2517 -0.0884
 3374lim     li17414   7.199   6.765   3.181 -0.8747 -0.6239  0.1243
 3375lim     li17415   2.315   1.258   2.397 -0.2846 -0.2806 -1.4867
 3376lim     li17416   3.757   1.657   3.085 -0.3820 -1.0872  0.6974
 3377lim     li17417   4.243   7.112   6.848 -1.2945 -0.2017 -0.7006
 3378lim     li17418   1.553   3.185   1.112  0.5222 -0.4442 -0.3498
 3379lim     li17419   6.720   0.459   0.656  0.4210 -0.0659 -0.5739
 3380lim     li17420   5.013   6.297   3.503 -0.5692 -0.8016 -0.9373
 3381lim     li17421   2.410   1.951   6.236 -0.1514  0.1409  0.4060
 3382lim     li17422   2.046   0.719   0.283 -0.1447 -0.5835 -1.2525
 3383lim     li17423   1.253   5.986   0.093 -1.0704  1.2847 -0.8771
 3384lim     li17424   0.164   5.535   4.544  0.0911 -0.1640  0.1484
 3385lim     li17425   3.391   1.289   5.699 -0.1288  0.2865  0.8491
 3386lim     li17426   4.936   0.849   3.128 -0.1050 -0.1919 -0.7241
 3387lim     li17427   4.472   1.940   6.709  0.2315  0.4906 -0.5099
 3388lim     li17428   5.292   1.189   2.081  0.4305  0.6770  0.3456
 3389lim     li17429   3.484   3.860   5.388  0.0538 -0.8767  0.1626
 3390lim     li17430   7.102   2.412   2.435  0.2440  0.0348  0.5231
 3391lim     li17431   3.886   1.605   5.900 -0.5303  1.3623  0.3006
 3392lim     li17432   1.708   5.624   5.095  0.4004  0.6901  0.2151
 3393lim     li17433   3.362   3.382   6.205 -0.8791 -0.1984  0.6259
 3394lim     li17434   6.415   1.814   3.376  0.3784  0.5368  0.3966
 3395lim     li17435   4.493   1.060   6.149 -0.8782 -0.9285  0.2798
 3396lim     li17436   3.801   0.883   6.730  0.9486 -0.3610  0.6698
 3397lim     li17437   0.749   4.954   4.397  0.6686  1.0526  0.3589
 3398lim     li17438   5.231   6.394   1.101 -0.4119  0.6709 -0.9727
 3399lim     li17439   0.619   1.094   5.300 -0.5652 -0.4058  0.7973
 3400lim     li17440   4.743   5.327   5.295 -0.2772 -1.0411 -0.3826
 3401lim     li17441   1.363   4.792   2.803 -0.1479 -0.1836  0.5670
 3402lim     li17442   6.471   2.805   5.782 -0.0717  0.3912  0.2036
 3403lim     li17443   2.486   4.750   2.447  1.5774 -0.3166  0.0337
 3404lim     li17444   3.998   1.244   2.014 -0.6495  0.0586  1.4567
 3405lim     li17445   5.690   4.903   1.719  0.7972  0.8099  0.2974
 3406lim     li17446   7.347   7.083   7.272  1.2464  1.2580  1.7826
 3407lim     li17447   3.821   4.264   2.684 -0.5682 -1.2179 -0.2095
 3408lim     li17448   6.054   2.600   4.095  0.0003  0.6021  0.4267
 3409lim     li17449   1.890   6.322   5.909 -0.8098 -0.1080  0.6841
 3410lim     li17450   0.339   3.596   1.077 -0.5513  0.1815  0.2058
 3411lim     li17451   3.189   2.170   0.363  0.0772  1.0124 -0.4160
 3412lim     li17452   0.585   3.491   3.501 -0.0251 -1.6032 -0.1493
 3413lim     li17453   6.850   2.200   4.266  0.1745  1.1801  0.0816
 3414lim     li17454   0.187   1.535   1.721 -0.5445  0.4664  0.1962
 3415lim     li17455   7.095   6.340   7.041 -0.1276  0.5953 -0.8506
 3416lim     li17456   2.788   5.816   6.733 -0.0354 -0.0838 -0.6147
 3417lim     li17457   2.737   0.990   5.259  0.1441 -0.1316 -1.1688
 3418lim     li17458   3.065   6.073   1.450  1.6391  0.4331  0.0303
 3419lim     li17459   1.826   3.274   2.783  0.2680 -0.0695  0.1342
 3420lim     li17460   1.006   7.261   3.302 -0.7800 -0.0776  0.2259
 3421lim     li17461   4.268   3.745   4.095  1.0723 -1.0485  0.6662
 3422lim     li17462   0.347   6.225   5.590 -0.1758 -1.4753 -1.1145
 3423lim     li17463   2.167   2.243   0.871  1.0691 -0.1867  0.2468
 3424lim     li17464   7.117   1.298   3.989  0.0761  0.6873  0.4694
 3425lim     li17465   7.282   6.325   4.049  0.3549 -0.9186  0.3069
 3426lim     li17466   3.609   5.103   4.798  0.3097  1.0609 -0.0765
 3427lim     li17467   2.038   0.008   4.981  1.0237 -0.3259  1.6188
 3428lim     li17468   5.751   3.333   7.256  0.3560  0.8632 -0.1579
 3429lim     li17469   6.066   1.909   1.056 -0.4408 -0.9248  0.2137
 3430lim     li17470   0.124   4.399   1.430  0.8584  0.8175  0.8810
 3431lim     li17471   0.316   1.948   0.718  0.1649  0.3631 -0.2506
 3432lim     li17472   0.778   6.803   4.410 -0.4981 -0.0054 -0.4170
 3433lim     li17473   1.184   2.151   5.453  0.4112  0.4720 -0.1226
 3434lim     li17474   2.188   7.040   0.845  0.3773  0.5819 -0.0488
 3435lim     li17475   3.277   4.471   0.260  0.8750  0.8526 -1.2020
 3436lim     li17476   3.194   5.635   2.117  0.5372 -0.1882 -0.1062
 3437lim     li17477   6.714   0.246   1.823 -0.5454 -0.0004  0.5871
 3438lim     li17478   4.823   5.519   2.029 -0.0544 -0.2313 -0.1953
 3439lim     li17479   1.203   6.832   6.695 -0.0601 -0.4956  0.2875
 3440lim     li17480   6.435   1.567   5.877  0.1115  0.1245  0.0164
 3441lim     li17481   4.811   2.634   4.853  0.3073 -0.4868 -0.0578
 3442lim     li17482   1.850   5.614   3.302 -0.1150  0.2781 -0.7458
 3443lim     li17483   4.024   4.393   5.762 -0.2379 -0.8544 -0.2263
 3444lim     li17484   1.329   4.374   2.433 -0.0996  0.4887 -0.9402
 3445lim     li17485   5.669   3.685   3.868  0.2435 -0.9654  0.7374
 3446lim     li17486   6.805   6.148   6.051 -2.0060 -0.6708 -0.0052
 3447lim     li17487   3.143   6.843   2.267  1.4532 -0.3601  0.5089
 3448lim     li17488   4.692   4.229   3.363 -1.2842  0.0616  1.2455
 3449lim     li17489   0.028   3.852   5.388  0.3525 -0.4960 -0.3902
 3450lim     li17490   4.688   2.481   2.938  0.7699 -0.9032  0.1800
 3451lim     li17491   2.609   2.721   6.794 -0.2987  0.5765  0.9423
 3452lim     li17492   3.367   5.545   0.339  0.7872 -0.0662 -0.4863
 3453lim     li17493   3.114   3.765   0.086  0.2963 -2.1007 -0.3770
 3454lim     li17494   0.531   2.657   2.670 -0.0866 -0.1476  0.7728
 3455lim     li17495   3.103   4.633   6.572  0.7312 -0.1704 -0.3864
 3456lim     li17496   7.214   5.349   1.432 -0.8775 -0.1093 -0.6050
 3457lim     li17497   2.992   3.623   2.500  0.3050 -0.9135  0.2326
 3458lim     li17498   6.051   1.495   3.178 -0.7492  1.0591  0.2635
 3459lim     li17499   7.053   6.167   2.793 -0.6556 -0.0707 -0.6013
 3460lim     li17500   1.002   0.063   7.194  0.4606  0.2305 -0.1164
 3461lim     li17501   5.910   1.442   7.352  0.5006  1.9377  0.1798
 3462lim     li17502   0.744   2.675   5.706 -0.9398 -0.1393 -0.8744
 3463lim     li17503   3.239   4.871   3.682 -0.5411  0.0280 -0.6225
 3464lim     li17504   1.812   4.565   0.688  0.0852  0.3710  0.9259
 3465lim     li17505   0.977   3.219   6.899  0.1728  0.6941  0.6715
 3466lim     li17506   2.687   0.834   3.075  1.4986 -0.7697  0.8355
 3467lim     li17507   7.147   1.207   2.596  0.0321  0.8473  0.5206
 3468lim     li17508   0.605   5.684   2.465 -0.0152  0.7011  0.1371
 3469lim     li17509   5.866   3.027   4.814 -0.8718 -0.3424  1.0185
 3470lim     li17510   4.584   2.916   6.754 -0.3581  0.7680  0.5758
 3471lim     li17511   5.080   0.051   3.932 -0.4004 -0.1139 -0.8132
 3472lim     li17512   5.939   6.438   2.923  0.8109 -0.0472  0.2757
 3473lim     li17513   1.984   0.767   1.587  0.4786 -0.8291 -0.1798
 3474lim     li17514   2.005   1.762   5.427  0.0752 -0.9635 -0.5571
 3475lim     li17515   3.574   6.343   0.839  0.2687  0.7545  0.0645
 3476lim     li17516   0.837   6.030   5.051  0.6703 -0.7653 -0.9045
 3477lim     li17517   4.381   6.026   1.071  0.0030 -0.5651  0.6002
 3478lim     li17518   6.494   2.945   6.933 -0.4394 -0.1637 -0.0197
 3479lim     li17519   1.498   7.154   4.464 -0.0198 -0.7819 -0.6863
 3480lim     li17520   2.228   6.143   7.031  0.1081 -0.5499 -0.1376
 3481lim     li17521   6.495   7.140   2.503  1.0543  0.3241 -0.2148
 3482lim     li17522   0.587   5.662   3.647  0.3215 -0.4484 -0.4678
 3483lim     li17523   5.623   4.649   7.039  1.0478  0.1219 -0.2254
 3484lim     li17524   6.409   2.596   0.528 -0.2514  0.2830 -0.7622
 3485lim     li17525   3.964   6.892   5.118 -0.5763  0.7653 -0.9400
 3486lim     li17526   3.622   2.282   5.197  0.6612 -0.9913 -0.2819
 3487lim     li17527   6.734   6.712   4.821  0.0445 -0.3560 -0.0621
 3488lim     li17528   2.068   4.262   6.036  0.2310 -0.0150 -0.7941
 3489lim     li17529   4.105   6.709   2.631 -0.4684  1.3567  0.1623
 3490lim     li17530   4.341   2.410   7.264 -0.7941 -1.6451  0.5352
 3491lim     li17531   7.072   1.468   4.864 -0.0686 -0.0019  0.2568
 3492lim     li17532   0.107   0.544   0.987 -0.4035 -0.5404 -0.1536
 3493lim     li17533   0.172   4.270   6.698  0.1563  0.0069 -0.0398
 3494lim     li17534   2.466   5.437   5.674  1.8758 -1.0425 -0.2160
 3495lim     li17535   4.457   2.437   5.887 -0.0995 -0.2551 -0.6799
 3496lim     li17536   5.089   4.256   2.288  0.9014 -0.5864  0.7932
 3497lim     li17537   5.162   0.489   4.640  0.0032 -1.1406  0.5545
 3498lim     li17538   5.339   5.372   5.603  0.8714 -0.9419 -1.4550
 3499lim     li17539   4.189   5.247   1.256 -0.2436 -0.9432  1.3618
 3500lim     li17540   0.873   6.765   0.969 -0.7483 -0.0976 -1.5711
 3501lim     li17541   6.258   3.866   1.574  0.7216  0.7794 -1.0026
 3502lim     li17542   6.864   3.443   6.264 -0.1259 -0.1870 -0.5235
 3503lim     li17543   0.110   2.426   0.076 -0.2242  0.8016 -1.2698
 3504lim     li17544   4.712   0.954   0.956 -0.6215  0.7012 -0.8442
 3505lim     li17545   0.837   2.715   4.686 -0.4078  0.7845 -0.0197
 3506lim     li17546   3.490   0.038   0.145  1.1447 -0.5447  0.4157
 3507lim     li17547   0.009   1.274   5.570  0.3847  0.0108  0.2256
 3508lim     li17548   0.529   1.772   3.417  0.7836  0.4111 -1.2352
 3509lim     li17549   3.686   5.104   2.496  0.8269 -0.6760 -1.1707
 3510lim     li17550   7.154   3.042   0.584 -0.2485  0.9065  1.0992
 3511lim     li17551   4.958   3.335   4.610  0.6871  0.4536 -0.9506
 3512lim     li17552   1.003   0.928   3.621  0.5764  0.5844  0.2371
 3513lim     li17553   1.307   0.004   1.255  0.5361  0.4033 -0.5577
 3514lim     li17554   2.182   1.276   1.525  0.2899 -0.4117 -0.0711
 3515lim     li17555   1.523   6.608   2.334  0.5619 -0.3722 -0.3090
 3516lim     li17556   5.527   2.359   6.575  0.0502  0.1800  0.6261
 3517lim     li17557   3.479   5.668   6.982 -0.0502  0.7782  0.7730
 3518lim     li17558   5.513   4.123   6.845  0.4290  0.0923 -0.2327
 3519lim     li17559   3.440   0.239   4.875 -1.3424  0.1213  1.6414
 3520lim     li17560   0.325   1.310   6.751  0.1611 -0.4570 -0.5132
 3521lim     li17561   1.425   5.698   4.024 -1.2879  0.7707  0.8652
 3522lim     li17562   1.574   4.893   3.430 -0.2158  0.0490 -0.3924
 3523lim     li17563   1.613   0.768   2.028 -0.5198  0.4792 -0.5622
 3524lim     li17564   6.136   5.808   0.278  0.2657 -0.1515 -0.4293
 3525lim     li17565   6.465   2.255   5.255 -0.0998  0.2940 -1.1092
 3526lim     li17566   2.553   6.883   1.203  1.7208 -0.1582  0.6715
 3527lim     li17567   5.507   3.190   1.304 -0.0189  0.2269  1.5247
 3528lim     li17568   2.587   6.478   2.797 -0.9062  0.1599  0.2661
 3529lim     li17569   4.047   4.362   7.130  0.3864  0.9052 -0.7913
 3530lim     li17570   1.124   4.476   1.195 -0.4243 -0.2662 -0.6552
 3531lim     li17571   5.503   3.759   1.881 -0.5903  0.0666  0.3181
 3532lim     li17572   0.837   3.104   1.702 -1.2415  0.3043  0.8829
 3533lim     li17573   4.612   6.826   0.601 -0.6332 -0.6101 -1.1566
 3534lim     li17574   6.968   1.804   1.765 -1.8314  0.4998  0.8467
 3535lim     li17575   6.205   0.811   2.001 -0.2225 -0.1727 -0.5550
 3536lim     li17576   5.577   5.497   0.020 -1.3940  0.0314 -0.8386
 3537lim     li17577   5.073   6.256   7.120  0.4482  0.4608  0.2390
 3538lim     li17578   6.973   0.234   3.721 -0.5579  0.0261 -0.7025
 3539lim     li17579   5.338   1.767   5.861 -0.2428 -0.3011  0.3259
 3540lim     li17580   5.312   6.698   4.563  0.4289  0.6410  0.6674
 3541lim     li17581   4.187   4.650   0.828  0.6183  1.2578  1.0492
 3542lim     li17582   5.847   4.887   3.044  0.6509  0.2822 -1.3208
 3543lim     li17583   3.570   1.006   1.346  0.2999 -0.3516 -0.0202
 3544lim     li17584   4.086   2.801   3.895  0.3886 -0.4552 -0.8715
 3545lim     li17585   5.890   6.188   6.371  0.8276  0.1286  0.6312
 3546lim     li17586   0.078   0.081   5.670  0.0585  0.0719  0.5597
 3547lim     li17587   2.114   4.172   4.919  0.0324  0.0438  0.5771
 3548lim     li17588   2.416   4.747   0.205  0.6862 -0.2696  0.3212
 3549lim     li17589   0.068   2.579   3.526 -0.5749 -0.1174  0.9639
 3550lim     li17590   0.831   0.732   0.265 -0.7082 -1.1711  0.0684
 3551lim     li17591   2.541   5.884   3.946 -0.2217 -0.0514 -1.1651
 3552lim     li17592   6.572   5.378   2.275 -0.4459 -0.3737 -0.9240
 3553lim     li17593   4.957   4.071   5.046  0.8729  1.3135  0.0413
 3554lim     li17594   6.397   2.521   1.596 -1.3783  0.5649  0.3758
 3555lim     li17595   1.397   2.705   2.191  0.5384  1.2497  0.6746
 3556lim     li17596   0.598   3.234   6.069  1.1185 -0.2046  0.2812
 3557lim     li17597   6.705   5.417   3.626 -0.8089  0.4502 -0.5377
 3558lim     li17598   2.716   2.073   4.966  0.5902 -1.0029 -0.4479
 3559lim     li17599   3.749   3.402   0.196  0.3707 -0.3352 -1.0900
 3560lim     li17600   1.601   6.074   0.830 -0.4014  0.0997 -0.2507
 3561lim     li17601   3.764   0.775   4.555 -0.6691 -0.6016  0.4839
 3562lim     li17602   7.305   5.311   6.688 -0.4163  1.3203  0.5208
 3563lim     li17603   6.665   4.713   4.953 -0.1481  0.2437  0.5171
 3564lim     li17604   6.466   1.123   7.044 -0.7209  0.9437  1.2411
 3565lim     li17605   5.209   1.120   5.035  0.6614 -0.1332 -0.2243
 3566lim     li17606   5.084   1.925   5.259  0.8681 -0.7288  0.0336
 3567lim     li17607   1.397   3.315   5.637 -1.5562 -0.2205 -0.9028
 3568lim     li17608   3.402   5.281   5.886 -0.4263  0.0804 -0.5842
 3569lim     li17609   2.057   4.015   2.294 -0.2896  0.4672  0.3404
 3570lim     li17610   5.440   6.770   1.742 -0.1729 -0.9220 -0.0849
 3571lim     li17611   1.040   1.500   2.720  0.1786 -0.2400 -0.6363
 3572lim     li17612   7.067   6.746   0.180 -0.6933  0.1214 -0.7610
 3573lim     li17613   2.710   6.963   6.765 -0.3384  0.6151 -0.1088
 3574lim     li17614   3.761   6.754   6.730 -0.2075 -1.1937 -0.2084
 3575lim     li17615   4.782   4.602   6.365  0.2872  0.3188 -0.2711
 3576lim     li17616   1.286   5.231   1.387 -0.7561 -0.2836 -0.1146
 3577lim     li17617   4.769   1.521   0.041 -1.2205  1.1020  0.0160
 3578lim     li17618   6.482   3.702   6.892 -0.0559 -0.6773  0.1573
 3579lim     li17619   2.380   3.432   3.484 -0.5492 -0.1265 -0.1337
 3580lim     li17620   5.015   5.789   4.819 -0.1520  0.3404  0.1154
 3581lim     li17621   4.844   5.028   3.308 -0.0047  0.6174 -0.9041
 3582lim     li17622   1.628   4.319   5.472 -0.1520  0.6940 -0.3607
 3583lim     li17623   5.421   7.346   0.217  0.8164 -0.4709 -0.1405
 3584lim     li17624   7.265   2.631   4.959 -0.2446  0.8684 -0.6531
 3585lim     li17625   3.598   2.016   4.670 -0.1369 -0.4018  0.4640
 3586lim     li17626   4.056   1.775   4.164 -0.3138  0.6005 -0.5487
 3587lim     li17627   3.725   1.447   0.855 -0.2966 -0.3969  0.7874
 3588lim     li17628   4.052   1.416   7.311 -0.9978  0.3306 -0.1787
 3589lim     li17629   7.057   2.430   6.623 -0.6319  0.2035  1.0026
 3590lim     li17630   3.663   6.834   0.573 -0.9429  1.2715  0.7989
 3591lim     li17631   5.271   5.057   1.537  0.0898 -0.2900 -0.3316
 3592lim     li17632   7.093   5.268   5.232  0.0850  0.2790 -0.4358
 3593lim     li17633   5.637   3.693   4.422  1.1167  0.2478  0.2014
 3594lim     li17634   0.730   2.815   6.831 -0.9677  0.6249 -1.1992
 3595lim     li17635   6.794   3.616   0.900  0.5119  0.7305  0.8904
 3596lim     li17636   2.753   5.875   4.492 -0.3954 -0.6313  1.2516
 3597lim     li17637   2.156   2.164   0.329  0.2457 -0.8938  0.8953
 3598lim     li17638   6.345   1.975   6.448  0.8303 -0.9759  0.0340
 3599lim     li17639   4.609   4.642   5.085  0.1138 -0.2692  0.8371
 3600lim     li17640   5.059   2.974   2.000  0.1714 -0.7642 -0.5014
 3601lim     li17641   6.608   2.704   2.502 -0.3048  0.0922  0.1281
 3602lim     li17642   4.354   1.610   1.214  0.9767 -0.8449 -0.7389
 3603lim     li17643   5.776   6.486   6.761  1.0382 -0.9747  0.6723
 3604lim     li17644   1.494   1.917   1.585 -1.0219  0.8639  0.1475
 3605lim     li17645   4.181   6.531   1.792  0.9449 -0.0588 -1.2941
 3606lim     li17646   2.887   2.974   2.691 -0.0090  0.6211 -0.1989
 3607lim     li17647   2.190   4.019   0.477 -0.2840  0.2494 -0.5160
 3608lim     li17648   6.430   0.731   5.063 -0.1603  0.5051  0.0448
 3609lim     li17649   0.954   0.634   4.177 -0.0270  1.1574 -0.5147
 3610lim     li17650   4.422   6.801   4.898 -0.3785  0.4350 -0.8369
 3611lim     li17651   5.193   2.097   1.927  0.4888  1.3167 -0.6672
 3612lim     li17652   0.786   2.006   6.837  0.0319  1.4036  0.0802
 3613lim     li17653   5.171   2.330   1.353  0.1158  1.0303 -0.6189
 3614lim     li17654   6.419   5.632   6.426 -0.5558 -0.5721 -0.7729
 3615lim     li17655   3.772   6.125   5.035 -0.5547 -0.4749  0.0457
 3616lim     li17656   2.625   2.294   3.430 -0.6200 -0.4650 -0.2022
 3617lim     li17657   3.952   3.081   2.052  0.1753 -0.4471  0.1341
 3618lim     li17658   2.344   5.005   6.991  1.1413 -0.6007  0.3873
 3619lim     li17659   2.080   1.300   0.639  0.5636 -0.1475 -0.2414
 3620lim     li17660   4.701   5.410   2.996  1.6744  0.0080 -0.4668
 3621lim     li17661   2.851   0.658   2.257  1.2425  0.6566 -0.5458
 3622lim     li17662   3.423   4.764   1.208 -1.9115 -0.1997 -0.8965
 3623lim     li17663   7.338   3.379   5.677 -0.6094  0.5552 -1.1773
 3624lim     li17664   2.849   7.333   3.456 -0.9634 -0.2225  0.4080
 3625lim     li17665   5.421   2.439   2.937 -1.0145 -0.5750  0.6063
 3626lim     li17666   5.395   5.320   4.799 -0.0982  0.2950  0.6273
 3627lim     li17667   3.697   4.377   1.862 -1.1987 -0.1962  0.0603
 3628lim     li17668   4.330   5.395   5.729 -0.4378  0.0569  0.3226
 3629lim     li17669   1.711   5.831   6.112  0.5797  1.1372 -0.2304
 3630lim     li17670   2.864   2.732   5.658 -0.5431  0.5063 -0.9202
 3631lim     li17671   6.065   6.714   0.562  0.3628  0.9098 -0.4572
 3632lim     li17672   3.286   7.360   3.642 -0.2898  1.0265  0.7629
 3633lim     li17673   1.468   5.960   2.674  0.5656  0.4787 -0.0420
 3634lim     li17674   6.841   5.665   4.269 -0.1989  1.0128 -0.5731
 3635lim     li17675   3.328   6.046   2.662  0.1525  0.5595  0.0403
 3636lim     li17676   2.184   1.337   6.541 -0.5918 -0.4547 -0.2781
 3637lim     li17677   1.956   0.869   4.887  0.1578 -0.5906 -1.0475
 3638lim     li17678   2.537   0.435   5.969  0.6428 -0.0578  1.6926
 3639lim     li17679   0.501   6.283   6.269 -0.1208  0.3300 -0.0300
 3640lim     li17680   2.781   4.626   1.592  0.5531  1.5539 -0.3358
 3641lim     li17681   7.302   6.598   2.150  0.5206 -1.1645  0.1381
 3642lim     li17682   4.084   4.749   0.081  0.1278 -0.0192 -0.7421
 3643lim     li17683   1.212   3.385   2.028  0.8857  0.3615 -0.4638
 3644lim     li17684   1.281   1.803   6.485  0.7571  1.2260 -0.7084
 3645lim     li17685   2.812   4.644   5.464 -0.0937 -0.4227 -0.3728
 3646lim     li17686   2.198   3.524   4.605  0.7531  0.4948  0.0885
 3647lim     li17687   3.697   0.384   5.647 -0.3450 -1.4794  0.1857
 3648lim     li17688   4.314   6.793   4.174 -0.8031 -0.5993 -0.9192
 3649lim     li17689   0.306   3.562   7.149 -0.3779 -0.3761  0.0013
 3650lim     li17690   1.947   5.258   6.361  0.3022 -0.0120 -1.1101
 3651lim     li17691   0.517   3.083   4.482  1.2869  0.5022  0.2719
 3652lim     li17692   5.405   4.650   0.539 -0.4485 -0.0763  0.8546
 3653lim     li17693   3.964   7.094   1.701 -1.0881  0.4222 -0.3092
 3654lim     li17694   3.367   3.204   1.008 -1.0724  1.4915 -0.8439
 3655lim     li17695   0.154   1.521   0.139  0.3334  0.2957  0.3991
 3656lim     li17696   1.193   7.126   5.482 -0.5063  0.3150  0.2940
 3657lim     li17697   1.631   6.756   3.624 -0.4289  0.3095 -0.7804
 3658lim     li17698   7.083   4.472   0.276 -0.1244  0.9822 -0.3019
 3659lim     li17699   6.096   5.176   6.085  0.0975  0.5900 -0.2283
 3660lim     li17700   4.368   4.398   1.257  0.4030 -0.1601  0.5027
 3661lim     li17701   6.087   4.520   2.605  0.1213 -0.2856  0.8578
 3662lim     li17702   6.609   6.401   3.373 -0.3110 -0.4901 -0.1788
 3663lim     li17703   1.528   2.601   6.510  0.7569  0.7464  0.5348
 3664lim     li17704   5.710   2.802   1.970 -0.3538 -0.3908  1.3246
 3665lim     li17705   6.125   7.357   6.792 -0.0085 -0.1880 -0.1531
 3666lim     li17706   5.788   6.249   2.062  0.1151 -0.9868  0.0095
 3667lim     li17707   0.203   2.711   1.835 -0.1613  0.1557 -1.0011
 3668lim     li17708   3.571   5.556   1.500 -0.7085 -0.4009  0.4870
 3669lim     li17709   7.077   3.174   4.191 -1.1351  0.1990 -0.4274
 3670lim     li17710   6.785   6.948   5.923  0.3187 -0.0375  0.2165
 3671lim     li17711   4.152   5.910   6.621  0.6004 -0.2659  0.8015
 3672lim     li17712   3.635   5.116   6.457  0.7751  0.5609  0.6586
 3673lim     li17713   6.564   6.253   6.971 -0.7253 -0.1597  0.8582
 3674lim     li17714   5.776   6.154   3.868  0.8676  0.1388 -0.3218
 3675lim     li17715   0.499   7.325   3.469 -1.1141 -0.2408 -0.8053
 3676lim     li17716   2.153   3.028   5.105 -0.2137 -0.0993 -0.4594
 3677lim     li17717   0.819   5.447   5.621 -0.0341 -0.9649  0.3540
 3678lim     li17718   3.682   2.165   1.366 -0.1415 -0.6017 -0.5432
 3679lim     li17719   3.506   2.286   2.651 -0.8886 -0.9458  1.6813
 3680lim     li17720   0.571   0.114   2.122 -0.9513 -0.7915 -0.6346
 3681lim     li17721   6.359   0.873   6.291  0.4071  0.4831  0.0334
 3682lim     li17722   0.530   7.005   1.469  0.2434  0.2220  0.8241
 3683lim     li17723   2.722   4.004   6.358  0.2009 -0.0502  0.2039
 3684lim     li17724   4.981   6.831   3.018  0.1087  0.1257 -0.1306
 3685lim     li17725   0.473   0.636   2.830 -0.4593 -0.0524  0.0283
 3686lim     li17726   0.545   6.287   3.367 -0.0761  0.6817 -0.4367
 3687lim     li17727   2.651   1.393   6.063 -0.3049 -0.7523 -0.2858
 3688lim     li17728   5.785   1.696   5.132 -0.7761 -1.2232 -0.7231
 3689lim     li17729   2.867   3.962   4.112  0.2453  0.5868 -0.3597
 3690lim     li17730   4.710   6.014   4.001  0.2955  0.7377  0.3797
 3691lim     li17731   0.975   4.518   0.027 -0.0444 -0.0152  0.2702
 3692lim     li17732   7.090   4.178   4.196 -0.7877 -0.5343  1.1936
 3693lim     li17733   5.829   3.503   0.710  0.0391 -1.0028 -0.8006
 3694lim     li17734   5.284   4.403   3.146  1.0139  0.2439 -0.6555
 3695lim     li17735   5.792   1.168   4.734 -0.6093  0.1046 -0.6060
 3696lim     li17736   5.632   3.166   3.127 -0.1377  0.6817 -0.2039
 3697lim     li17737   4.721   3.484   0.339 -0.1030  1.5511 -0.7452
 3698lim     li17738   3.218   3.340   4.543 -0.5412 -0.3258  0.2024
 3699lim     li17739   3.585   2.018   6.950 -0.5000  0.8108  0.7228
 3700lim     li17740   5.583   6.400   5.746 -0.1986 -0.6981  0.4674
 3701lim     li17741   5.322   2.185   3.474  0.3273 -0.7064  0.6611
 3702lim     li17742   5.082   4.650   4.224  0.7155 -0.4158  0.7704
 3703lim     li17743   4.954   0.267   5.425 -0.5690  0.3039  1.2331
 3704lim     li17744   2.814   5.963   0.770 -0.6924 -0.3598  0.2057
 3705lim     li17745   1.092   6.324   6.263  0.3066  1.2648  0.1256
 3706lim     li17746   5.350   1.417   4.011  0.3536  1.0453  0.2839
 3707lim     li17747   4.200   3.079   5.162 -0.2784 -0.6039 -0.7008
 3708lim     li17748   4.910   2.675   0.199  0.3937 -0.4233  0.1413
 3709lim     li17749   3.337   5.323   3.156  1.6016  0.5226 -0.3809
 3710lim     li17750   0.999   1.422   1.693  0.1014  0.8613 -0.5898
 3711lim     li17751   1.521   1.206   7.328 -0.7496 -0.2602 -0.5250
 3712lim     li17752   0.661   5.625   4.242 -0.2494  0.3035  0.9233
 3713lim     li17753   3.763   0.547   0.323 -0.5010 -0.8273 -1.1277
 3714lim     li17754   2.782   1.502   4.222 -1.0004 -0.3105 -0.0890
 3715lim     li17755   6.030   3.604   2.900 -0.4440  0.9128  0.0730
 3716lim     li17756   4.376   3.994   6.056 -0.6149 -0.2436 -0.1991
 3717lim     li17757   2.905   2.687   4.255  0.1898 -0.6579  0.4156
 3718lim     li17758   5.005   4.366   0.826  0.0366 -0.6099  1.0262
 3719lim     li17759   5.148   0.184   1.480  1.9958 -0.5674  0.1775
 3720lim     li17760   1.093   2.766   3.918  0.8845 -1.0284 -1.9389
 3721lim     li17761   6.665   4.679   7.068 -0.9863 -0.2417  0.2547
 3722lim     li17762   6.950   5.417   0.423  0.5916  0.8361  0.0597
 3723lim     li17763   6.194   3.493   4.335  1.4298  1.0294  1.3572
 3724lim     li17764   4.427   2.941   1.206 -0.3697  0.7946  0.0205
 3725lim     li17765   7.321   0.292   4.497  0.1507 -0.0808  0.8222
 3726lim     li17766   6.405   4.245   0.659  1.5079  0.3832 -1.1225
 3727lim     li17767   6.113   0.910   3.287 -0.3512 -0.0750  0.3176
 3728lim     li17768   2.734   1.566   7.152  1.7022 -0.3118 -0.4654
 3729lim     li17769   5.478   5.514   1.431 -1.4290  1.6200 -1.2329
 3730lim     li17770   4.988   3.275   5.590 -0.2149  0.7359  0.1917
 3731lim     li17771   3.220   2.091   1.744 -0.0015 -0.4618 -0.5554
 3732lim     li17772   1.297   2.119   3.130 -1.0402 -0.7974 -0.4769
 3733lim     li17773   4.483   0.004   1.186 -0.0288 -0.3001  0.5319
 3734lim     li17774   0.974   4.575   6.519  0.9724  0.8780  0.5481
 3735lim     li17775   2.017   2.816   6.039  0.4605 -0.9109 -0.6440
 3736lim     li17776   0.037   4.182   4.939  0.0180  0.1579 -1.3205
 3737lim     li17777   2.019   3.695   6.980 -0.0894 -1.0459 -0.2991
 3738lim     li17778   6.110   5.541   5.166  0.3236 -1.6118 -0.3780
 3739lim     li17779   0.285   4.527   5.681  0.1575 -0.6761 -0.8888
 3740lim     li17780   2.333   5.574   2.392 -1.1481  0.3428 -0.1145
 3741lim     li17781   6.654   4.801   5.688  0.3112 -0.6837  0.1919
 3742lim     li17782   3.010   1.456   3.704 -0.2849  0.0296  1.1995
 3743lim     li17783   3.823   4.207   4.443 -0.0065 -0.1724 -0.3328
 3744lim     li17784   4.101   0.905   5.478 -0.1455  1.1349 -0.5680
 3745lim     li17785   1.262   1.442   5.951  0.1019 -0.2240  0.0787
 3746lim     li17786   6.475   7.241   0.277  0.3484 -0.0704  0.2734
 3747lim     li17787   4.406   3.246   6.157 -0.5602 -0.1313  0.0106
 3748lim     li17788   3.537   2.263   6.082  0.4394  0.3290  0.4116
 3749lim     li17789   2.049   6.296   3.383  1.0980 -0.4827 -1.0960
 3750lim     li17790   3.644   0.870   3.693  0.1319  0.3017  0.1068
 3751lim     li17791   5.622   0.591   6.277 -0.0198 -0.3412  0.0392
 3752lim     li17792   3.468   3.739   3.434 -1.4378 -0.0797  0.2525
 3753lim     li17793   1.614   1.986   4.058  0.7748 -0.5283 -1.7394
 3754lim     li17794   5.040   5.004   6.602  0.3231 -1.2802 -0.8679
 3755lim     li17795   4.345   3.566   1.662  0.4036  0.1195  0.0132
 3756lim     li17796   2.483   3.035   7.321 -1.3425 -1.6291  0.9840
 3757lim     li17797   0.725   4.907   3.183  0.2672 -0.9161 -1.0165
 3758lim     li17798   3.684   3.031   7.001 -0.5365 -0.5857 -0.0191
 3759lim     li17799   2.166   2.622   2.179 -0.5857 -0.2270 -0.7740
 3760lim     li17800   5.138   7.070   6.260  1.5187 -0.6028 -1.7585
 3761lim     li17801   2.982   0.069   1.653  0.4518  1.2866 -0.6743
 3762lim     li17802   6.028   5.454   3.704 -0.1965  0.0510 -0.4978
 3763lim     li17803   3.822   5.767   4.312 -0.3037  0.0579 -0.7320
 3764lim     li17804   0.017   1.018   0.417  0.3381  0.1051  1.0790
 3765lim     li17805   3.305   6.158   3.936 -0.2564  0.5383 -0.0962
 3766lim     li17806   3.486   2.387   3.750 -0.6549 -0.1645 -0.4018
 3767lim     li17807   6.570   0.681   5.866 -0.5326  1.5876 -1.2435
 3768lim     li17808   0.597   0.580   2.088  0.5028  0.6720  0.2958
 3769lim     li17809   2.720   0.131   4.061  1.6685  0.5356 -0.0863
 3770lim     li17810   0.601   6.342   7.248  0.0127  1.7050 -0.6719
 3771lim     li17811   1.890   1.384   3.275 -0.6638 -0.1728 -1.1191
 3772lim     li17812   6.330   4.308   6.386  0.5314  0.0240  0.8917
 3773lim     li17813   1.744   0.203   6.774  0.3858 -1.3823  1.1819
 3774lim     li17814   2.921   3.774   1.090  0.1297 -0.7112 -0.6371
 3775lim     li17815   0.615   3.688   2.504 -0.3875 -0.4624 -0.1635
 3776lim     li17816   4.626   6.556   6.674  0.4458 -0.7066  0.1723
 3777lim     li17817   0.299   7.297   6.365  0.3392 -0.0320  0.5508
 3778lim     li17818   2.061   4.936   4.394 -1.0532  0.0575 -1.1993
 3779lim     li17819   5.395   1.800   6.834 -0.1114 -0.3134  0.0343
 3780lim     li17820   2.628   1.702   1.291  1.1807 -0.7588  0.4922
 3781ntf    cn117821   2.256   0.903   5.545  0.5584 -0.1299  0.4034
 3781ntf    sn217822   2.391   1.004   5.615  0.5830  0.0254  0.1333
 3781ntf    nn317823   2.308   1.025   5.747 -0.0305 -0.0444 -0.2371
 3781ntf    sn217824   2.235   1.158   5.785  0.2804  0.0101  0.1709
 3781ntf    cn117825   2.379   1.259   5.831  0.3245 -0.2108  0.5198
 3781ntf    fn417826   2.140   0.958   5.578  0.7516  0.3021  0.3713
 3781ntf    fn417827   2.267   0.895   5.414 -0.1052  0.6461  0.2925
 3781ntf    fn417828   2.249   0.781   5.595 -0.1696 -0.1467  0.2651
 3781ntf    on517829   2.501   0.915   5.639  0.4276 -0.1776  0.0968
 3781ntf    on517830   2.412   1.119   5.531  0.3274  0.2041  0.3130
 3781ntf    on517831   2.164   1.146   5.910  0.0192 -0.1716  0.0053
 3781ntf    on517832   2.173   1.232   5.678 -0.0175  0.0289  0.3534
 3781ntf    fn417833   2.456   1.306   5.734  0.0883 -0.5250  0.1747
 3781ntf    fn417834   2.328   1.361   5.898 -0.1791 -0.0363 -0.1206
 3781ntf    fn417835   2.443   1.183   5.919  0.0456 -0.3138  0.6350
 3782ntf    cn117836   0.907   2.171   0.557  0.0081 -0.3318 -0.3662
 3782ntf    sn217837   0.837   2.261   0.699  0.3214 -0.2096 -0.2866
 3782ntf    nn317838   0.919   2.193   0.814 -0.0804 -0.3835 -0.0984
 3782ntf    sn217839   0.874   2.084   0.918  0.0868 -0.2251  0.1406
 3782ntf    cn117840   0.845   2.181   1.069 -0.1802  0.0559 -0.0904
 3782ntf    fn417841   1.015   2.232   0.510  0.2023 -0.0919  0.3724
 3782ntf    fn417842   0.928   2.047   0.596  0.1299 -0.1663  0.0980
 3782ntf    fn417843   0.834   2.171   0.447 -0.4567 -0.4778 -0.0619
 3782ntf    on517844   0.882   2.395   0.673 -0.1139  0.0204  0.1444
 3782ntf    on517845   0.695   2.233   0.704  0.3548 -0.3404 -0.0385
 3782ntf    on517846   0.987   2.001   0.951  0.7465  0.2692 -0.8180
 3782ntf    on517847   0.748   2.019   0.893 -0.0050 -0.1775  0.4741
 3782ntf    fn417848   0.779   2.294   1.048 -0.2299 -0.0001 -0.2422
 3782ntf    fn417849   0.756   2.110   1.136  0.2298  0.0031  0.3994
 3782ntf    fn417850   0.949   2.211   1.144  0.4055 -0.3209 -0.7416
 3783ntf    cn117851   6.807   3.913   0.196 -0.0667 -0.6713  0.2775
 3783ntf    sn217852   6.629   3.951   0.205  0.0472 -0.1833  0.4674
 3783ntf    nn317853   6.579   3.958   0.056  0.8905  0.4680  0.2053
 3783ntf    sn217854   6.550   4.080  -0.038  0.2147 -0.1867 -0.4478
 3783ntf    cn117855   6.374   4.109  -0.004  0.3496 -0.1274  0.1972
 3783ntf    fn417856   6.877   4.003   0.129 -1.0338 -0.3341 -0.3160
 3783ntf    fn417857   6.858   3.898   0.317  0.0195  0.4167  0.3797
 3783ntf    fn417858   6.829   3.802   0.127  0.3655 -0.6027  0.3024
 3783ntf    on517859   6.576   3.843   0.283 -0.2068  0.1634  0.7780
 3783ntf    on517860   6.619   4.078   0.272  0.3212  0.2122 -0.2252
 3783ntf    on517861   6.538   4.037  -0.175  0.1151  0.3227 -0.6033
 3783ntf    on517862   6.627   4.198  -0.006  0.4626 -0.4557 -0.0532
 3783ntf    fn417863   6.334   4.216  -0.070  0.3187  0.1437  0.6477
 3783ntf    fn417864   6.287   4.019  -0.046  0.2885  0.1182 -0.2074
 3783ntf    fn417865   6.357   4.123   0.127 -0.2342 -0.6097  0.1737
 3784ntf    cn117866   1.064   1.862   4.133  0.6730 -0.0453  0.1487
 3784ntf    sn217867   1.081   1.682   4.111 -0.0998 -0.1620  0.4769
 3784ntf    nn317868   1.106   1.686   3.957 -0.3490 -0.0345  0.4381
 3784ntf    sn217869   1.233   1.687   3.864 -0.4940 -0.0475  0.2377
 3784ntf    cn117870   1.235   1.512   3.815  0.2590 -0.0631  0.3034
 3784ntf    fn417871   0.964   1.908   4.060  0.6502 -0.3315 -0.0045
 3784ntf    fn417872   1.041   1.901   4.258 -0.4611 -0.2055 -0.0002
 3784ntf    fn417873   1.174   1.925   4.095  0.6147  0.1679  0.3313
 3784ntf    on517874   1.195   1.644   4.191  0.2362  0.8134  0.4733
 3784ntf    on517875   0.951   1.635   4.154 -0.0494 -0.3869  0.3861
 3784ntf    on517876   1.362   1.719   3.920 -0.5568 -0.1578  0.4471
 3784ntf    on517877   1.205   1.744   3.735  0.1505 -0.4529 -0.0865
 3784ntf    fn417878   1.332   1.481   3.731 -0.0889 -0.4745  0.0497
 3784ntf    fn417879   1.261   1.421   3.908  0.0027 -0.5218 -0.0723
 3784ntf    fn417880   1.117   1.495   3.757  0.0818  0.3280  0.5436
 3785ntf    cn117881   2.339   2.384   2.288  0.0339 -1.2014 -0.3081
 3785ntf    sn217882   2.269   2.296   2.431 -0.1750 -0.4101  0.0793
 3785ntf    nn317883   2.335   2.355   2.561  0.2909 -0.1937 -0.2496
 3785ntf    sn217884   2.418   2.286   2.675 -0.0300  0.4306  0.3750
 3785ntf    cn117885   2.538   2.419   2.703  0.1898  0.2185  0.4481
 3785ntf    fn417886   2.433   2.314   2.225  0.6467 -0.4795 -0.2017
 3785ntf    fn417887   2.249   2.412   2.195  0.6227 -0.4883 -0.6762
 3785ntf    fn417888   2.388   2.502   2.319 -0.1954 -1.0796 -0.4062
 3785ntf    on517889   2.126   2.314   2.424 -0.0771  0.3584  0.0019
 3785ntf    on517890   2.303   2.159   2.401 -0.5167 -0.5956  0.5251
 3785ntf    on517891   2.490   2.167   2.636  0.1405  0.6118  0.1356
 3785ntf    on517892   2.345   2.281   2.799  0.4064 -0.2041  0.6066
 3785ntf    fn417893   2.480   2.538   2.696  0.0730  0.1226 -0.2470
 3785ntf    fn417894   2.583   2.411   2.827 -0.2260 -0.3614  0.5658
 3785ntf    fn417895   2.641   2.412   2.620 -0.0293  0.5277  0.1485
 3786ntf    cn117896   6.262   4.847   1.393  0.1094  0.1647 -0.0172
 3786ntf    sn217897   6.327   4.922   1.545  0.2365 -0.2456  0.1325
 3786ntf    nn317898   6.339   4.800   1.643  0.4244 -0.3145  0.0230
 3786ntf    sn217899   6.249   4.754   1.763  0.2198  0.2265  0.0786
 3786ntf    cn117900   6.258   4.573   1.756 -0.1987  0.2029  0.0990
 3786ntf    fn417901   6.132   4.820   1.399  0.0323  0.4141 -0.4734
 3786ntf    fn417902   6.278   4.918   1.282 -0.0078 -0.6081 -0.5429
 3786ntf    fn417903   6.322   4.734   1.360  0.3054 -0.0051  0.9115
 3786ntf    on517904   6.456   4.970   1.502  0.0332  0.0701 -0.1361
 3786ntf    on517905   6.225   5.021   1.573  0.1365 -0.2442 -0.2299
 3786ntf    on517906   6.109   4.785   1.746  0.0742 -0.3399  0.2193
 3786ntf    on517907   6.316   4.775   1.889  0.3898  0.5712 -0.0668
 3786ntf    fn417908   6.223   4.515   1.870 -0.4859  0.2498  0.0338
 3786ntf    fn417909   6.190   4.520   1.656  0.0384  0.1064 -0.0142
 3786ntf    fn417910   6.379   4.523   1.736 -0.3800 -0.0848 -0.2914
 3787ntf    cn117911   6.137   4.712   5.401 -0.1621 -0.0415 -0.0229
 3787ntf    sn217912   6.274   4.759   5.291 -0.0346  0.4932  0.3609
 3787ntf    nn317913   6.218   4.894   5.234 -0.4681  0.2754  0.2622
 3787ntf    sn217914   6.241   4.959   5.093 -0.1601 -0.2563  0.0666
 3787ntf    cn117915   6.102   4.893   4.997 -0.1675  0.1749 -0.2195
 3787ntf    fn417916   6.021   4.723   5.338 -0.1921  0.1541  0.0662
 3787ntf    fn417917   6.141   4.584   5.436  0.5362  0.0242  0.1432
 3787ntf    fn417918   6.131   4.778   5.515  0.0680 -0.0732  0.0079
 3787ntf    on517919   6.380   4.773   5.387 -0.1687  0.0978  0.5711
 3787ntf    on517920   6.291   4.659   5.188  0.3560  0.3674  0.5447
 3787ntf    on517921   6.357   4.910   5.022 -0.0273  0.1268  0.0192
 3787ntf    on517922   6.220   5.101   5.104  0.9870 -0.0288 -0.4516
 3787ntf    fn417923   6.133   4.773   4.949  0.1872  0.0823  0.2392
 3787ntf    fn417924   5.990   4.878   5.066  0.0488 -0.4751 -0.0040
 3787ntf    fn417925   6.082   4.956   4.882 -0.5765  0.1412 -0.1689
 3788ntf    cn117926   2.103   2.493   6.534 -0.1477 -0.3391  0.2328
 3788ntf    sn217927   1.974   2.605   6.597 -0.1345 -0.2063  0.0252
 3788ntf    nn317928   2.046   2.674   6.718 -0.0140 -0.3465  0.0346
 3788ntf    sn217929   2.052   2.642   6.872  0.3383  0.3696  0.1766
 3788ntf    cn117930   1.948   2.774   6.941  0.0193  0.3214 -0.2062
 3788ntf    fn417931   2.124   2.397   6.622  0.2074 -0.3285  0.1599
 3788ntf    fn417932   2.079   2.444   6.413 -0.2802  0.1843  0.0415
 3788ntf    fn417933   2.220   2.556   6.529 -0.2763 -0.1331 -0.3370
 3788ntf    on517934   1.955   2.702   6.492 -0.2854 -0.2175  0.0428
 3788ntf    on517935   1.869   2.515   6.635  0.2572 -0.3778  0.7108
 3788ntf    on517936   2.182   2.670   6.927  0.3700 -0.0266  0.3020
 3788ntf    on517937   1.986   2.520   6.913 -0.0592  0.3632 -0.4519
 3788ntf    fn417938   1.848   2.729   7.016 -0.1313  0.8489 -0.0879
 3788ntf    fn417939   2.015   2.862   7.013  0.3490  0.2887 -0.4705
 3788ntf    fn417940   1.892   2.837   6.839 -0.3347  0.1962 -0.0920
 3789ntf    cn117941   5.593   5.365   0.866 -0.2911 -0.0156 -0.6778
 3789ntf    sn217942   5.418   5.375   0.819 -0.4136 -0.1316 -0.2563
 3789ntf    nn317943   5.377   5.238   0.883  0.3027  0.0182  0.5416
 3789ntf    sn217944   5.292   5.217   1.013  0.1282 -0.0454  0.4179
 3789ntf    cn117945   5.123   5.228   0.947  0.3186 -0.1061 -0.0838
 3789ntf    fn417946   5.647   5.248   0.836  0.3496  0.0398  0.2263
 3789ntf    fn417947   5.673   5.455   0.812 -0.2702  0.0361 -0.5621
 3789ntf    fn417948   5.612   5.381   0.996 -0.2036 -0.9244 -0.5727
 3789ntf    on517949   5.351   5.486   0.882 -0.0000 -0.0320  0.0100
 3789ntf    on517950   5.423   5.367   0.675  0.3840  0.7679 -0.2873
 3789ntf    on517951   5.302   5.314   1.119  0.2467  0.5683 -0.1559
 3789ntf    on517952   5.293   5.082   1.064 -0.1914 -0.2729 -0.1699
 3789ntf    fn417953   5.115   5.349   0.894 -0.3168 -0.0512  0.1188
 3789ntf    fn417954   5.109   5.144   0.846 -0.3561 -0.3595  0.2109
 3789ntf    fn417955   5.033   5.203   1.041  0.4934  0.3248  0.2036
 3790ntf    cn117956   3.984   6.086   2.431  0.3402 -0.1122  0.3408
 3790ntf    sn217957   4.039   6.187   2.572 -0.2369  0.1975  0.3482
 3790ntf    nn317958   4.194   6.173   2.551 -0.3040  0.2407 -0.1861
 3790ntf    sn217959   4.308   6.234   2.640 -0.4009 -0.1020  0.1747
 3790ntf    cn117960   4.400   6.091   2.704  0.0762  0.1394  0.0329
 3790ntf    fn417961   3.852   6.075   2.422  0.3952 -0.4835 -0.0445
 3790ntf    fn417962   4.018   6.144   2.318 -0.4725 -0.1438  0.0744
 3790ntf    fn417963   4.030   5.962   2.437 -0.1135 -0.3010 -0.0323
 3790ntf    on517964   3.992   6.317   2.532 -0.4847 -0.0447 -0.1643
 3790ntf    on517965   3.980   6.119   2.685 -0.6520  0.4959  0.3133
 3790ntf    on517966   4.269   6.310   2.757 -0.3414  0.5451 -0.2243
 3790ntf    on517967   4.398   6.302   2.551 -0.1001 -0.0360  0.5232
 3790ntf    fn417968   4.513   6.126   2.764  0.3548 -0.4121 -0.1557
 3790ntf    fn417969   4.333   6.023   2.797  0.1037 -0.1811 -0.1797
 3790ntf    fn417970   4.432   6.003   2.611  0.1241  0.2001 -0.0067
 3791ntf    cn117971   6.114   6.780   2.366  0.0437 -0.0529  0.1377
 3791ntf    sn217972   6.009   6.848   2.235  0.0391 -0.3008  0.0125
 3791ntf    nn317973   6.042   6.739   2.126  0.4635  0.2173 -0.3811
 3791ntf    sn217974   5.977   6.698   1.990 -0.1649  0.2910 -0.1062
 3791ntf    cn117975   6.086   6.799   1.886  0.3139 -0.0233  0.0838
 3791ntf    fn417976   6.074   6.671   2.429  0.4401 -0.3591 -0.1278
 3791ntf    fn417977   6.234   6.747   2.322  0.1638  0.6930 -0.1016
 3791ntf    fn417978   6.146   6.866   2.461  0.7936 -0.1381 -0.0261
 3791ntf    on517979   5.882   6.837   2.303  0.1488 -0.0818  0.2529
 3791ntf    on517980   6.063   6.981   2.222 -1.4217  0.3932  0.7837
 3791ntf    on517981   5.851   6.755   1.947 -0.0645  0.1886 -0.5477
 3791ntf    on517982   6.009   6.570   1.930  0.4177  0.3897 -0.0033
 3791ntf    fn417983   6.067   6.925   1.923 -0.0457 -0.0471 -0.0118
 3791ntf    fn417984   6.214   6.774   1.905  0.3377  0.0502  0.0207
 3791ntf    fn417985   6.050   6.790   1.759 -0.0452  0.0070  0.1813
 3792ntf    cn117986   4.880   1.212   6.663 -0.1557 -0.1492 -0.0777
 3792ntf    sn217987   4.854   1.391   6.678 -0.0398 -0.1469  0.0997
 3792ntf    nn317988   4.847   1.436   6.528  0.5660  0.0029  0.1136
 3792ntf    sn217989   4.774   1.562   6.469  0.4358 -0.1271 -0.0049
 3792ntf    cn117990   4.647   1.493   6.359  0.1431  0.4390 -0.0274
 3792ntf    fn417991   4.848   1.149   6.775  0.7537 -0.3906  0.0544
 3792ntf    fn417992   4.803   1.162   6.569 -0.1316 -0.1193 -0.1133
 3792ntf    fn417993   5.005   1.176   6.639 -0.0072  0.3076  0.0072
 3792ntf    on517994   4.733   1.374   6.754  0.0565  0.3691  0.3760
 3792ntf    on517995   4.967   1.432   6.758 -0.2705 -0.3783  0.5469
 3792ntf    on517996   4.854   1.626   6.367  0.2985 -0.0063 -0.0365
 3792ntf    on517997   4.714   1.644   6.571  0.7916  0.4995 -0.2922
 3792ntf    fn417998   4.699   1.441   6.249 -0.3055  0.0896 -0.0741
 3792ntf    fn417999   4.578   1.393   6.412 -0.1240  0.4969 -0.2666
 3792ntf    fn418000   4.562   1.584   6.316 -0.0264  0.2843 -0.0241
 3793ntf    cn118001   6.555   0.119   6.395  0.6333 -0.5631  0.1110
 3793ntf    sn218002   6.539   0.224   6.248 -0.0864 -0.2918  0.3795
 3793ntf    nn318003   6.559   0.114   6.138 -0.2311 -0.0628  0.1221
 3793ntf    sn218004   6.684   0.101   6.044 -0.2640  0.2619  0.0342
 3793ntf    cn118005   6.600   0.021   5.904  0.3437 -0.4386  0.0660
 3793ntf    fn418006   6.455   0.034   6.411 -0.2218  0.3975 -0.0160
 3793ntf    fn418007   6.663   0.043   6.397  0.8975 -0.1841  0.5688
 3793ntf    fn418008   6.553   0.194   6.504  0.2103 -0.5455  0.0927
 3793ntf    on518009   6.410   0.289   6.242 -0.0559 -0.2503  0.1446
 3793ntf    on518010   6.647   0.319   6.253 -0.0209 -0.3606  0.2689
 3793ntf    on518011   6.775  -0.001   6.089  0.4381  0.9608  0.2220
 3793ntf    on518012   6.739   0.222   5.987  0.0602  0.0665 -0.0670
 3793ntf    fn418013   6.674  -0.006   5.797  0.3721 -0.0064 -0.0284
 3793ntf    fn418014   6.540  -0.093   5.932 -0.4330 -0.0057  0.2089
 3793ntf    fn418015   6.504   0.101   5.859  0.1628 -0.8195 -0.2313
 3794ntf    cn118016   2.538   4.906   5.879 -0.7347  0.4476 -0.2983
 3794ntf    sn218017   2.696   4.990   5.846 -0.1181 -0.5698  0.0104
 3794ntf    nn318018   2.778   4.966   5.978 -0.0719  0.3262  0.1567
 3794ntf    sn218019   2.873   4.855   6.034  0.0962  0.1265 -0.5093
 3794ntf    cn118020   2.773   4.783   6.168  0.2437  0.1579 -0.3829
 3794ntf    fn418021   2.457   4.905   5.774 -0.1089 -0.1623 -0.7806
 3794ntf    fn418022   2.550   4.776   5.898 -0.9349  0.5302  0.4321
 3794ntf    fn418023   2.465   4.950   5.980 -0.0520 -0.2298  0.4983
 3794ntf    on518024   2.731   4.918   5.727 -0.3143 -0.8197  0.1026
 3794ntf    on518025   2.653   5.128   5.834  0.2077 -0.4453  0.2530
 3794ntf    on518026   2.984   4.914   6.105 -0.2464  0.0400  0.1094
 3794ntf    on518027   2.899   4.740   5.950  0.3175  0.0307 -0.3125
 3794ntf    fn418028   2.655   4.740   6.128  0.2282 -0.3443  0.1859
 3794ntf    fn418029   2.829   4.673   6.216  0.2688  0.2296 -0.2449
 3794ntf    fn418030   2.759   4.867   6.270  0.0899 -0.2399 -0.0719
 3795ntf    cn118031   1.472   6.892   5.978  0.2332 -0.0587 -0.2614
 3795ntf    sn218032   1.526   6.767   6.097 -0.1338  0.0786  0.0497
 3795ntf    nn318033   1.587   6.854   6.212  0.2820  0.2543 -0.3004
 3795ntf    sn218034   1.712   6.821   6.301  0.1273  0.1515 -0.1209
 3795ntf    cn118035   1.847   6.900   6.210  0.4090  0.0844  0.2373
 3795ntf    fn418036   1.397   6.987   6.032  0.1525  0.0405 -0.5441
 3795ntf    fn418037   1.564   6.961   5.911 -0.0602  0.3596 -0.2366
 3795ntf    fn418038   1.398   6.832   5.886  0.1278  0.2183 -0.3616
 3795ntf    on518039   1.403   6.707   6.142  0.1674 -0.7827 -0.2577
 3795ntf    on518040   1.620   6.683   6.027 -0.1015  0.2563 -0.1202
 3795ntf    on518041   1.754   6.684   6.322 -0.3654  0.0076 -0.0549
 3795ntf    on518042   1.716   6.901   6.421 -0.1074 -0.5456  0.3620
 3795ntf    fn418043   1.964   6.855   6.254  0.3437 -0.3805 -0.0520
 3795ntf    fn418044   1.842   6.865   6.082  0.2573  0.5313  0.1214
 3795ntf    fn418045   1.843   7.032   6.215 -0.1297  0.1095 -0.6265
 3796ntf    cn118046   5.446   4.340   4.447  0.1363  0.1716  0.3073
 3796ntf    sn218047   5.406   4.471   4.567 -0.0032  0.0894  0.3516
 3796ntf    nn318048   5.286   4.403   4.643 -0.2695 -0.1239 -0.2514
 3796ntf    sn218049   5.293   4.314   4.772 -0.1556 -0.1914 -0.3038
 3796ntf    cn118050   5.295   4.440   4.904 -0.1631 -0.1072 -0.3840
 3796ntf    fn418051   5.350   4.248   4.441  0.2490  0.0904 -0.2227
 3796ntf    fn418052   5.462   4.375   4.321 -0.0728  0.0679  0.2516
 3796ntf    fn418053   5.557   4.273   4.473  0.0348 -0.0615  0.1417
 3796ntf    on518054   5.523   4.487   4.650 -0.1187  0.4916  0.4355
 3796ntf    on518055   5.358   4.584   4.492 -0.6154 -0.1805  0.3243
 3796ntf    on518056   5.416   4.238   4.777 -0.3918 -0.5172  0.7338
 3796ntf    on518057   5.167   4.251   4.803 -0.0947 -0.0395  0.2649
 3796ntf    fn418058   5.294   4.376   5.020  0.4343 -0.1022 -0.3720
 3796ntf    fn418059   5.407   4.510   4.901 -0.4019  0.3183  0.5130
 3796ntf    fn418060   5.197   4.529   4.900 -0.1924 -0.1110  0.1412
 3797ntf    cn118061   4.016   3.010   2.695  0.1105  0.0371 -0.0856
 3797ntf    sn218062   4.107   2.980   2.849 -0.2457  0.2308  0.1643
 3797ntf    nn318063   4.050   2.840   2.893 -0.1419  0.0141 -0.3827
 3797ntf    sn218064   4.071   2.774   3.033 -0.2288  0.1934 -0.2850
 3797ntf    cn118065   3.903   2.783   3.101  0.0382 -0.2767  0.4616
 3797ntf    fn418066   3.892   3.046   2.723  0.0027 -0.4174  0.0152
 3797ntf    fn418067   4.074   3.108   2.626 -0.1979  0.3725  0.1258
 3797ntf    fn418068   4.001   2.902   2.621 -0.0434  0.1340 -0.1971
 3797ntf    on518069   4.243   2.973   2.802 -0.5657 -0.2337 -0.7242
 3797ntf    on518070   4.067   3.087   2.936 -0.5338  0.1418  0.1433
 3797ntf    on518071   4.147   2.843   3.135 -0.2359 -0.6312  0.2891
 3797ntf    on518072   4.093   2.632   3.028  0.0854  0.2422 -0.3040
 3797ntf    fn418073   3.863   2.909   3.107 -0.2746 -0.3595  0.1867
 3797ntf    fn418074   3.806   2.734   3.025  0.1355  0.0015  0.1532
 3797ntf    fn418075   3.888   2.730   3.221  0.4551 -0.2688  0.5179
 3798ntf    cn118076   6.732   1.131   3.518 -0.1799  0.3026  0.1047
 3798ntf    sn218077   6.752   1.288   3.429 -0.2002  0.4943  0.4360
 3798ntf    nn318078   6.713   1.246   3.283 -0.6205 -0.1798  0.7392
 3798ntf    sn218079   6.591   1.283   3.192  0.0378 -0.1605 -0.1521
 3798ntf    cn118080   6.633   1.208   3.033 -0.0269 -0.0326 -0.2304
 3798ntf    fn418081   6.627   1.056   3.488 -0.2376  0.0740  0.8480
 3798ntf    fn418082   6.829   1.047   3.489  0.0003  0.5227  0.0656
 3798ntf    fn418083   6.726   1.135   3.651 -1.0410 -0.4139  0.0970
 3798ntf    on518084   6.664   1.381   3.495 -0.3259  0.8778 -0.2655
 3798ntf    on518085   6.891   1.324   3.448 -0.1348  0.6374 -0.2818
 3798ntf    on518086   6.584   1.424   3.159 -0.0709 -0.0887  0.1681
 3798ntf    on518087   6.464   1.222   3.221 -0.1058 -0.2591 -0.9745
 3798ntf    fn418088   6.755   1.244   2.995  0.1609 -0.1975  0.2110
 3798ntf    fn418089   6.639   1.075   3.031  0.4004 -0.0153 -0.3308
 3798ntf    fn418090   6.550   1.245   2.937 -0.5757  0.4932  0.4496
 3799ntf    cn118091   4.779   1.496   0.781 -0.2683 -0.1446 -0.1831
 3799ntf    sn218092   4.909   1.570   0.677 -0.0378 -0.2524  0.0271
 3799ntf    nn318093   4.919   1.705   0.756  0.0468 -0.4082  0.2850
 3799ntf    sn218094   5.027   1.778   0.843 -0.0543 -0.0007  0.0741
 3799ntf    cn118095   4.926   1.795   0.994  0.0284 -0.2717  0.1618
 3799ntf    fn418096   4.820   1.456   0.901 -0.2182  0.3892 -0.0172
 3799ntf    fn418097   4.667   1.564   0.795  0.0081  0.1338  0.7371
 3799ntf    fn418098   4.748   1.380   0.725 -0.1712 -0.3343  0.1529
 3799ntf    on518099   5.020   1.478   0.690  0.4294  0.3355  0.2205
 3799ntf    on518100   4.846   1.591   0.549  0.7252  0.3322 -0.2597
 3799ntf    on518101   5.052   1.917   0.815  0.8083 -0.0648  0.4777
 3799ntf    on518102   5.132   1.693   0.893 -0.3623 -0.2255  0.3443
 3799ntf    fn418103   4.818   1.871   0.990  0.8567  0.9033 -0.8252
 3799ntf    fn418104   4.884   1.677   1.037  0.2740 -0.3726  0.1279
 3799ntf    fn418105   5.004   1.844   1.089  0.1208  0.2306 -0.1707
 3800ntf    cn118106   6.394   3.911   5.873 -0.3665 -0.3423 -0.4865
 3800ntf    sn218107   6.367   4.012   6.021  0.0322 -0.5296 -0.2857
 3800ntf    nn318108   6.511   4.037   6.078  0.0231 -0.2798 -0.3713
 3800ntf    sn218109   6.586   3.981   6.204 -0.1763 -0.1130 -0.1787
 3800ntf    cn118110   6.651   4.133   6.281 -0.3621 -0.1494  0.0481
 3800ntf    fn418111   6.490   3.957   5.795 -0.5325  0.5158 -0.1911
 3800ntf    fn418112   6.415   3.783   5.898 -0.6930 -0.3062 -0.0199
 3800ntf    fn418113   6.282   3.923   5.803 -0.2071  0.2122 -0.6478
 3800ntf    on518114   6.318   4.139   5.975 -0.4309 -0.6841 -0.2227
 3800ntf    on518115   6.270   3.931   6.090 -0.6104  0.0585 -0.4927
 3800ntf    on518116   6.703   3.902   6.174 -0.0521 -0.1972  0.5207
 3800ntf    on518117   6.510   3.932   6.316  0.1124 -0.5153 -0.1557
 3800ntf    fn418118   6.705   4.106   6.399  0.0896 -0.1510 -0.1608
 3800ntf    fn418119   6.731   4.201   6.202 -0.2923 -0.0808  0.1773
 3800ntf    fn418120   6.545   4.210   6.298 -0.5717 -0.5215  0.4748
 3801ntf    cn118121   6.163   2.856   2.635 -0.2935 -0.5078 -0.4968
 3801ntf    sn218122   6.176   2.860   2.454  0.1529 -0.5367 -0.4653
 3801ntf    nn318123   6.097   2.728   2.423 -0.5006 -0.3970  0.5641
 3801ntf    sn218124   5.968   2.705   2.337 -0.1640  0.1689 -0.0971
 3801ntf    cn118125   5.846   2.711   2.472  0.0725  0.0295  0.1238
 3801ntf    fn418126   6.180   2.737   2.690  0.0983 -0.3895 -0.3604
 3801ntf    fn418127   6.247   2.941   2.693 -0.7174 -0.2030 -0.3219
 3801ntf    fn418128   6.046   2.904   2.676  0.5361  0.4948  0.8134
 3801ntf    on518129   6.117   2.988   2.424  0.1424 -0.4076  0.0916
 3801ntf    on518130   6.320   2.854   2.451  0.2127  0.3082  0.3254
 3801ntf    on518131   5.949   2.580   2.269  0.3077  0.2467 -0.3741
 3801ntf    on518132   5.922   2.820   2.263 -0.2733 -0.1330 -0.5017
 3801ntf    fn418133   5.725   2.709   2.418 -0.0895  0.0002  0.4869
 3801ntf    fn418134   5.855   2.603   2.547 -0.0397 -0.1916 -0.1764
 3801ntf    fn418135   5.865   2.824   2.538 -0.7631  0.1298  0.2090
 3802ntf    cn118136   2.966   3.117   5.879 -0.2317 -0.2232  0.1269
 3802ntf    sn218137   2.890   3.279   5.908 -0.0157 -0.1010  0.0096
 3802ntf    nn318138   2.779   3.233   6.010  0.2317 -0.3328  0.1748
 3802ntf    sn218139   2.635   3.177   5.982  0.0282  0.1585  0.2346
 3802ntf    cn118140   2.597   3.104   6.144 -0.1377 -0.1329  0.0634
 3802ntf    fn418141   3.095   3.124   5.855 -0.2605 -0.2873 -0.0473
 3802ntf    fn418142   2.962   3.033   5.981 -0.0438  0.2747  0.5481
 3802ntf    fn418143   2.901   3.052   5.784  0.0262  0.1542 -0.3060
 3802ntf    on518144   3.006   3.340   5.968  0.3098 -0.3661 -0.3472
 3802ntf    on518145   2.858   3.334   5.779  1.0874  0.3998 -0.0558
 3802ntf    on518146   2.628   3.072   5.883  0.3488 -0.0067  0.3851
 3802ntf    on518147   2.532   3.277   5.966  0.1669  0.2053 -0.3864
 3802ntf    fn418148   2.676   2.998   6.147  0.2014  0.1169  0.0419
 3802ntf    fn418149   2.631   3.181   6.246 -0.1921 -0.2381  0.1615
 3802ntf    fn418150   2.474   3.057   6.156 -0.0027 -0.4520  0.2243
 3803ntf    cn118151   7.335   5.910   1.148 -0.6780 -0.2802  0.1302
 3803ntf    sn218152   7.309   6.090   1.136  0.1230 -0.1890 -0.3107
 3803ntf    nn318153   7.414   6.113   1.022  0.0237 -0.1234 -0.3886
 3803ntf    sn218154   7.503   6.242   1.004  0.1122 -0.0944  0.2301
 3803ntf    cn118155   7.380   6.324   0.898  0.2452  0.1822  0.2896
 3803ntf    fn418156   7.446   5.866   1.205 -0.4424  0.0217 -0.0886
 3803ntf    fn418157   7.244   5.863   1.231 -0.0233 -0.3141  0.8367
 3803ntf    fn418158   7.320   5.846   1.033 -0.2470 -0.2934  0.0786
 3803ntf    on518159   7.172   6.093   1.091 -0.1272  1.0093  0.5000
 3803ntf    on518160   7.346   6.122   1.271 -0.8575 -0.4486  0.0248
 3803ntf    on518161   7.617   6.225   0.917 -0.3994 -0.3426 -0.4068
 3803ntf    on518162   7.511   6.330   1.118  0.3069 -0.1309  0.2439
 3803ntf    fn418163   7.264   6.318   0.961  0.2141  0.1757  0.2324
 3803ntf    fn418164   7.407   6.450   0.869 -0.0718  0.2861  0.4417
 3803ntf    fn418165   7.372   6.251   0.788 -0.2425  0.5751  0.0592
 3804ntf    cn118166   0.711   0.493   3.405 -0.0392  0.0061 -0.2114
 3804ntf    sn218167   0.890   0.461   3.403 -0.0435 -0.0486  0.1980
 3804ntf    nn318168   0.910   0.315   3.456  0.2839  0.0580  0.3713
 3804ntf    sn218169   1.034   0.219   3.453  0.0589 -0.2295  0.1039
 3804ntf    cn118170   1.063   0.221   3.633  0.2032 -0.1129  0.0801
 3804ntf    fn418171   0.677   0.607   3.347 -0.6160 -0.0846 -0.0583
 3804ntf    fn418172   0.644   0.400   3.339 -0.0913  0.0058 -0.1580
 3804ntf    fn418173   0.658   0.502   3.526 -0.2012  0.2881 -0.3026
 3804ntf    on518174   0.921   0.471   3.262  0.7637 -0.0080  0.3712
 3804ntf    on518175   0.954   0.555   3.492 -0.6313  0.5144  0.0353
 3804ntf    on518176   1.156   0.268   3.394 -0.4041  0.3900 -0.3449
 3804ntf    on518177   1.000   0.082   3.423 -0.4277  0.0223 -0.5013
 3804ntf    fn418178   0.964   0.158   3.693  0.1412 -0.1121 -0.0211
 3804ntf    fn418179   1.180   0.168   3.664  0.1551 -0.3382 -0.1198
 3804ntf    fn418180   1.073   0.344   3.681  0.0790 -0.0141 -0.1469
 3805ntf    cn118181   6.813   4.162   5.044 -0.1596 -0.0156  0.2774
 3805ntf    sn218182   6.934   4.294   5.019  0.2339 -0.4414 -0.0808
 3805ntf    nn318183   6.934   4.372   5.155  0.4548 -0.3854 -0.1115
 3805ntf    sn218184   7.044   4.386   5.266  0.2360 -0.0441  0.0667
 3805ntf    cn118185   6.974   4.308   5.414 -0.1813 -0.1806 -0.2028
 3805ntf    fn418186   6.698   4.219   5.078 -0.0967  0.0956  0.3031
 3805ntf    fn418187   6.794   4.096   4.930 -0.6919  0.5816  0.0113
 3805ntf    fn418188   6.842   4.074   5.138 -0.1827  0.0017  0.3000
 3805ntf    on518189   7.059   4.224   4.996  0.6819  0.4363 -0.3878
 3805ntf    on518190   6.877   4.365   4.907 -0.3559  0.4578  0.7834
 3805ntf    on518191   7.054   4.517   5.323 -0.1258 -0.2265  0.5507
 3805ntf    on518192   7.173   4.323   5.247 -0.0635 -0.4722 -0.5688
 3805ntf    fn418193   6.933   4.186   5.381  0.0477 -0.2535 -0.2173
 3805ntf    fn418194   7.067   4.304   5.508  0.2625 -0.5259 -0.6502
 3805ntf    fn418195   6.875   4.366   5.480  0.4414  0.0157  0.5811
 3806ntf    cn118196   4.092   2.767   0.429 -0.2769  0.1918  0.1767
 3806ntf    sn218197   4.208   2.779   0.289 -0.3454 -0.0801  0.0959
 3806ntf    nn318198   4.239   2.932   0.304  0.4802 -0.2019 -0.3056
 3806ntf    sn218199   4.364   3.009   0.249  0.3782  0.0982 -0.1184
 3806ntf    cn118200   4.472   3.011   0.395  0.5329 -0.1852 -0.2302
 3806ntf    fn418201   4.142   2.779   0.551  0.3869 -0.1816 -0.0547
 3806ntf    fn418202   3.990   2.851   0.433  0.3292  0.9342  0.3543
 3806ntf    fn418203   4.034   2.648   0.436  0.2785 -0.0939 -0.0192
 3806ntf    on518204   4.317   2.695   0.333 -0.2678  0.1181  0.2873
 3806ntf    on518205   4.124   2.742   0.178  0.1647 -0.6289 -0.1136
 3806ntf    on518206   4.335   3.150   0.232 -0.4780 -0.0007  0.4464
 3806ntf    on518207   4.445   2.945   0.149  0.0856  0.3302 -0.5063
 3806ntf    fn418208   4.446   2.910   0.476 -0.5500 -0.1091 -0.4744
 3806ntf    fn418209   4.600   2.995   0.364  0.5620 -0.0318 -0.1931
 3806ntf    fn418210   4.458   3.126   0.459 -0.8431 -0.1642 -0.5406
 3807ntf    cn118211   2.637   4.093   4.838  0.0989 -0.0727 -0.3972
 3807ntf    sn218212   2.599   4.226   4.720 -0.1745  0.0893 -0.1272
 3807ntf    nn318213   2.466   4.161   4.668 -0.2436 -0.1984  0.3974
 3807ntf    sn218214   2.403   4.154   4.525  0.3773 -0.0433  0.1137
 3807ntf    cn118215   2.367   3.975   4.525  0.1922 -0.0068 -0.1936
 3807ntf    fn418216   2.763   4.092   4.881 -0.2487  0.1472  0.6613
 3807ntf    fn418217   2.563   4.085   4.948  0.3896  0.4298 -0.1615
 3807ntf    fn418218   2.622   3.978   4.775 -0.1496  0.2388 -0.9056
 3807ntf    on518219   2.578   4.351   4.789  0.8875  0.3675 -0.2955
 3807ntf    on518220   2.712   4.204   4.633 -0.1345 -0.6532  0.1038
 3807ntf    on518221   2.492   4.186   4.415 -0.2911  0.5309 -0.2695
 3807ntf    on518222   2.272   4.215   4.521 -0.0350 -0.9210 -0.0886
 3807ntf    fn418223   2.328   3.927   4.408 -0.2650 -0.7567  0.2588
 3807ntf    fn418224   2.476   3.911   4.561 -0.1099 -0.4638 -0.0875
 3807ntf    fn418225   2.265   3.942   4.602  0.2913 -0.7327 -0.3662
 3808ntf    cn118226   5.715   7.328   2.599 -0.1067 -0.1987 -0.1511
 3808ntf    sn218227   5.674   7.240   2.752 -0.1390  0.3946  0.1848
 3808ntf    nn318228   5.526   7.287   2.768 -0.2930  0.1008 -0.3525
 3808ntf    sn218229   5.438   7.343   2.886  0.0632  0.0964 -0.0821
 3808ntf    cn118230   5.310   7.433   2.793 -0.0664  0.0427  0.0442
 3808ntf    fn418231   5.697   7.459   2.606 -0.8587 -0.2943 -0.1954
 3808ntf    fn418232   5.839   7.304   2.560 -0.1313  0.2014 -0.4906
 3808ntf    fn418233   5.636   7.296   2.498 -0.3151 -0.0081 -0.0496
 3808ntf    on518234   5.682   7.102   2.710  0.6686  0.4166  0.2505
 3808ntf    on518235   5.764   7.288   2.854 -0.6377  0.4586  0.5993
 3808ntf    on518236   5.504   7.443   2.966  0.9096 -0.3376 -0.2229
 3808ntf    on518237   5.363   7.247   2.963  0.3857 -0.2893 -0.2489
 3808ntf    fn418238   5.364   7.529   2.721  0.3869 -0.2913 -0.0645
 3808ntf    fn418239   5.244   7.357   2.706  0.0936  0.2844 -0.2911
 3808ntf    fn418240   5.222   7.500   2.865 -0.2206  0.0334 -0.1344
 3809ntf    cn118241   6.337   3.965   2.092  0.2457  0.0833  0.3984
 3809ntf    sn218242   6.432   3.810   2.099  0.2013  0.0276 -0.1906
 3809ntf    nn318243   6.452   3.788   2.254  0.2702 -0.3722 -0.2542
 3809ntf    sn218244   6.574   3.744   2.341  0.3028 -0.2598 -0.2430
 3809ntf    cn118245   6.469   3.673   2.472  0.5983  0.3688  0.3446
 3809ntf    fn418246   6.277   3.984   1.976  0.3639 -0.0699  0.3115
 3809ntf    fn418247   6.237   3.961   2.179  0.0456 -0.6871  0.1400
 3809ntf    fn418248   6.411   4.069   2.127  0.7740 -0.2933  0.4139
 3809ntf    on518249   6.329   3.727   2.042 -0.1605  0.5129 -0.2514
 3809ntf    on518250   6.547   3.830   2.015 -0.1845  0.1357 -0.6971
 3809ntf    on518251   6.645   3.853   2.405  0.3965 -0.1547 -0.5226
 3809ntf    on518252   6.654   3.638   2.286  0.2095 -0.4058 -0.1004
 3809ntf    fn418253   6.403   3.566   2.432 -0.3601  0.9632  0.2850
 3809ntf    fn418254   6.531   3.640   2.584  0.3919  0.3676  0.4592
 3809ntf    fn418255   6.374   3.757   2.510  0.2345  0.0447  0.1503
 3810ntf    cn118256   2.482   0.601   7.203 -0.0585  0.2229  0.3461
 3810ntf    sn218257   2.468   0.738   7.322  0.1569  0.1789  0.4235
 3810ntf    nn318258   2.617   0.784   7.341  0.3790 -0.5604  0.5107
 3810ntf    sn218259   2.723   0.802   7.226 -0.1272  0.3716  0.1722
 3810ntf    cn118260   2.857   0.886   7.315  0.2377 -0.2745  0.2353
 3810ntf    fn418261   2.561   0.505   7.248 -0.1236 -0.0136 -0.0481
 3810ntf    fn418262   2.365   0.544   7.178  0.1076 -0.3553  0.8607
 3810ntf    fn418263   2.537   0.638   7.089 -0.3261  1.0602  0.4771
 3810ntf    on518264   2.379   0.834   7.259  0.4415  0.0447 -0.1904
 3810ntf    on518265   2.419   0.668   7.438 -0.7301 -0.2158 -0.1727
 3810ntf    on518266   2.687   0.890   7.118  0.4109 -0.1684 -0.4530
 3810ntf    on518267   2.795   0.681   7.194 -0.3220  0.1779  0.4588
 3810ntf    fn418268   2.830   1.002   7.372  0.1294 -0.3543  0.3497
 3810ntf    fn418269   2.903   0.812   7.415 -0.3944 -0.0624  0.6856
 3810ntf    fn418270   2.956   0.928   7.238 -0.0489  0.5492  0.3113
 3811ntf    cn118271   1.601   1.832   4.987 -0.1373 -0.0029 -0.2767
 3811ntf    sn218272   1.738   1.945   4.946  0.2522 -0.3647  0.0212
 3811ntf    nn318273   1.775   1.996   5.090  1.0273 -0.5277 -0.1148
 3811ntf    sn218274   1.863   2.122   5.121  0.0553  0.0690  0.2774
 3811ntf    cn118275   1.740   2.226   5.205 -0.0985  0.0082  0.1279
 3811ntf    fn418276   1.544   1.871   5.100  0.5518 -0.8206  0.3692
 3811ntf    fn418277   1.501   1.830   4.901 -0.3314  0.6510 -0.0715
 3811ntf    fn418278   1.638   1.708   5.012 -0.6419 -0.2512 -0.7568
 3811ntf    on518279   1.841   1.861   4.890  0.2140  0.1971 -0.9200
 3811ntf    on518280   1.673   2.042   4.862  0.1807 -0.5065 -0.0867
 3811ntf    on518281   1.905   2.202   5.008  0.0374  0.1889  0.3550
 3811ntf    on518282   1.960   2.081   5.220  0.6592 -0.2183 -0.4237
 3811ntf    fn418283   1.634   2.238   5.127 -0.2451  0.1728  0.3507
 3811ntf    fn418284   1.693   2.163   5.311 -0.1767  0.2074  0.2127
 3811ntf    fn418285   1.763   2.349   5.248 -0.2285 -0.0691  0.4231
 3812ntf    cn118286   1.370   3.462   4.957  0.2547 -0.0273  0.3792
 3812ntf    sn218287   1.426   3.574   5.088  0.2432  0.0679  0.3031
 3812ntf    nn318288   1.293   3.582   5.171  0.2379  0.4813  0.2568
 3812ntf    sn218289   1.193   3.703   5.172  0.0103  0.2957 -0.0870
 3812ntf    cn118290   1.040   3.628   5.237 -0.0631  0.2027 -0.3634
 3812ntf    fn418291   1.456   3.443   4.858  0.4163  0.0493  0.5048
 3812ntf    fn418292   1.351   3.348   5.022  0.6030 -0.3239 -0.0314
 3812ntf    fn418293   1.258   3.501   4.899  0.1204 -0.6044  0.2462
 3812ntf    on518294   1.535   3.508   5.156 -0.0213 -0.2904  0.3828
 3812ntf    on518295   1.469   3.693   5.019  0.2491 -0.0228  0.1503
 3812ntf    on518296   1.158   3.759   5.043  0.1526  0.4072 -0.0766
 3812ntf    on518297   1.227   3.797   5.276  0.4514 -0.2351  0.2547
 3812ntf    fn418298   1.041   3.587   5.363  0.4546 -0.1029 -0.4638
 3812ntf    fn418299   0.940   3.713   5.222 -0.1393  0.1669 -0.0589
 3812ntf    fn418300   1.003   3.523   5.166  0.5910 -0.3489  0.0998
 3813ntf    cn118301   4.175   2.206   3.628  0.1912  0.4511 -0.2496
 3813ntf    sn218302   4.036   2.123   3.546  0.0959 -0.1100  0.4734
 3813ntf    nn318303   3.992   2.241   3.452 -0.2766 -0.5997  0.0237
 3813ntf    sn218304   3.901   2.359   3.501  0.1901  0.0108 -0.5605
 3813ntf    cn118305   3.821   2.387   3.340 -0.3113 -0.0025 -0.3135
 3813ntf    fn418306   4.227   2.137   3.727  0.0562  0.4479 -0.1799
 3813ntf    fn418307   4.274   2.230   3.544  0.2355  0.0124 -0.3204
 3813ntf    fn418308   4.141   2.313   3.698 -0.1816  0.2206 -0.0721
 3813ntf    on518309   4.099   2.024   3.463 -0.1396 -0.0627  0.2361
 3813ntf    on518310   3.956   2.062   3.649  0.3201 -0.6470  0.3300
 3813ntf    on518311   3.978   2.478   3.528 -0.2482  0.2880 -0.5235
 3813ntf    on518312   3.792   2.331   3.591  0.7968 -0.0180  0.1803
 3813ntf    fn418313   3.905   2.435   3.250 -0.1778  0.3711  0.0078
 3813ntf    fn418314   3.766   2.278   3.289 -0.2466 -0.3045  0.2553
 3813ntf    fn418315   3.725   2.478   3.349 -0.0833  0.1790  0.3395
 3814ntf    cn118316   7.047   3.908   5.627 -0.0081  0.1497 -0.1836
 3814ntf    sn218317   6.992   3.786   5.504 -0.3811  0.0642  0.0635
 3814ntf    nn318318   6.849   3.748   5.556 -0.4046  0.0222 -0.0309
 3814ntf    sn218319   6.797   3.605   5.595  0.0177 -0.0918  0.1204
 3814ntf    cn118320   6.730   3.631   5.762 -0.1740  0.2815 -0.0141
 3814ntf    fn418321   7.176   3.933   5.619 -0.0329  0.3554  0.0420
 3814ntf    fn418322   6.982   4.023   5.618 -0.0473  0.1321 -0.1270
 3814ntf    fn418323   7.026   3.862   5.750  0.9919  0.3376  0.0634
 3814ntf    on518324   6.996   3.866   5.384 -0.4998  0.1251  0.0999
 3814ntf    on518325   7.089   3.681   5.525 -0.0854  0.3816  0.2912
 3814ntf    on518326   6.899   3.511   5.635  0.0012 -0.0277  0.3167
 3814ntf    on518327   6.679   3.561   5.526 -0.3815  0.4109  0.4722
 3814ntf    fn418328   6.828   3.691   5.829  0.7772 -0.8114 -0.3998
 3814ntf    fn418329   6.619   3.703   5.765 -0.2944  0.1020 -0.2019
 3814ntf    fn418330   6.716   3.514   5.822  0.5608 -0.1642 -0.6845
 3815ntf    cn118331   1.801   6.129   4.020  0.6098  0.1043 -0.4581
 3815ntf    sn218332   1.844   5.953   4.002 -0.2324 -0.1799  0.2697
 3815ntf    nn318333   1.999   5.968   3.986 -0.2862 -0.2358 -0.3175
 3815ntf    sn218334   2.078   5.988   3.851  0.0499  0.2790 -0.0474
 3815ntf    cn118335   2.128   5.816   3.822 -0.0679  0.2374 -0.0069
 3815ntf    fn418336   1.677   6.157   3.983  0.1890 -0.4549  0.5111
 3815ntf    fn418337   1.798   6.161   4.148  0.2503 -0.6414 -0.2767
 3815ntf    fn418338   1.886   6.208   3.957  0.1872  0.5731 -0.4433
 3815ntf    on518339   1.832   5.897   4.134 -0.2591 -0.3666  0.1879
 3815ntf    on518340   1.759   5.905   3.895 -0.2136 -0.2204  0.2731
 3815ntf    on518341   2.202   6.057   3.876 -0.0396  0.2913  0.3751
 3815ntf    on518342   2.003   6.030   3.736  0.3059  0.0073 -0.3131
 3815ntf    fn418343   2.184   5.793   3.705  0.0160 -0.2087  0.1156
 3815ntf    fn418344   2.210   5.774   3.918 -0.0245 -0.4359 -0.3305
 3815ntf    fn418345   2.019   5.741   3.823  0.1535 -0.0865  0.2050
 3816ntf    cn118346   1.544   3.140   4.552 -0.1418 -0.1816 -0.0936
 3816ntf    sn218347   1.717   3.093   4.524 -0.0052  0.2716 -0.0283
 3816ntf    nn318348   1.744   3.120   4.372  0.0775 -0.0684 -0.0756
 3816ntf    sn218349   1.719   3.026   4.248  0.1869 -0.0651 -0.1010
 3816ntf    cn118350   1.876   3.024   4.157  0.0101  0.0878 -0.4119
 3816ntf    fn418351   1.463   3.045   4.509 -0.2296 -0.0949 -0.1217
 3816ntf    fn418352   1.505   3.167   4.675 -0.4203 -0.1122 -0.1959
 3816ntf    fn418353   1.517   3.248   4.480  0.9874 -0.0699 -0.3611
 3816ntf    on518354   1.788   3.192   4.601  0.0646  0.5204 -0.4121
 3816ntf    on518355   1.725   2.957   4.573 -0.1793  0.2113 -0.1668
 3816ntf    on518356   1.639   3.091   4.147  0.2347  0.1098 -0.0264
 3816ntf    on518357   1.694   2.887   4.277  0.5527 -0.1495 -0.1921
 3816ntf    fn418358   1.889   3.132   4.083 -0.4291  0.5654  0.1981
 3816ntf    fn418359   1.984   3.015   4.234 -0.1099 -0.6652 -0.3182
 3816ntf    fn418360   1.884   2.929   4.066  0.3134  0.0174 -0.3141
 3817ntf    cn118361   3.193   1.451   4.513 -0.4070  0.2786  0.0384
 3817ntf    sn218362   3.129   1.282   4.533 -0.1455  0.1714 -0.0424
 3817ntf    nn318363   3.245   1.195   4.472 -0.8063 -0.9631  0.2791
 3817ntf    sn218364   3.234   1.133   4.328 -0.2144 -0.1991 -0.1072
 3817ntf    cn118365   3.182   0.961   4.359  0.1520 -0.3069 -0.0916
 3817ntf    fn418366   3.320   1.461   4.546 -0.2830  0.0047 -0.3585
 3817ntf    fn418367   3.194   1.483   4.385  0.1171  1.3242  0.2863
 3817ntf    fn418368   3.120   1.543   4.576 -0.5809  0.6389 -0.6810
 3817ntf    on518369   3.129   1.270   4.677  0.0393 -0.5255 -0.0938
 3817ntf    on518370   2.998   1.286   4.474 -0.2941 -0.8345  0.2024
 3817ntf    on518371   3.371   1.118   4.285 -0.3884 -0.1429 -0.6858
 3817ntf    on518372   3.154   1.199   4.228  0.0874  0.3999  0.0408
 3817ntf    fn418373   3.166   0.887   4.250  1.0472 -0.4417 -0.1424
 3817ntf    fn418374   3.263   0.887   4.433  0.9152  0.1030 -0.4924
 3817ntf    fn418375   3.069   0.959   4.426  0.2328 -0.5534  0.0379
 3818ntf    cn118376   5.959   0.430   5.218 -0.1409  0.3972  0.3217
 3818ntf    sn218377   5.834   0.439   5.087  0.3927 -0.0076 -0.2246
 3818ntf    nn318378   5.836   0.591   5.045  0.7282  0.0335 -0.0626
 3818ntf    sn218379   5.894   0.662   4.918  0.1108  0.0719 -0.3266
 3818ntf    cn118380   5.765   0.631   4.794  0.0166 -0.0130 -0.2063
 3818ntf    fn418381   6.085   0.458   5.189  0.0682  0.3062  1.0965
 3818ntf    fn418382   5.941   0.512   5.320  0.2478  0.6198  0.2147
 3818ntf    fn418383   5.961   0.306   5.266 -0.0997  0.1627 -0.2805
 3818ntf    on518384   5.884   0.354   4.982  0.4203  0.0808 -0.2842
 3818ntf    on518385   5.714   0.404   5.159  0.1593  0.6352 -0.2956
 3818ntf    on518386   6.015   0.604   4.865  0.3032  0.0414  0.1386
 3818ntf    on518387   5.894   0.805   4.937 -0.0886 -0.0524  0.6698
 3818ntf    fn418388   5.791   0.683   4.676  0.2544  0.1857 -0.0680
 3818ntf    fn418389   5.731   0.505   4.777  0.0340 -0.0393 -0.0496
 3818ntf    fn418390   5.663   0.702   4.841  0.2297  0.2735 -0.1764
 3819ntf    cn118391   2.018   2.624   3.885  0.2543  0.5388  0.1445
 3819ntf    sn218392   1.995   2.542   4.046  0.1039  0.3671  0.0351
 3819ntf    nn318393   2.138   2.557   4.108  0.3040 -0.4212 -0.2229
 3819ntf    sn218394   2.183   2.588   4.255  0.1583 -0.2301 -0.2184
 3819ntf    cn118395   2.297   2.448   4.275 -0.1067 -0.3530  0.4569
 3819ntf    fn418396   2.043   2.751   3.912 -0.6337  0.7941 -0.2239
 3819ntf    fn418397   2.120   2.569   3.821  0.2450  0.0137  0.5679
 3819ntf    fn418398   1.912   2.622   3.807  0.2772  0.5650  0.1125
 3819ntf    on518399   1.892   2.612   4.119  0.2599  0.2841  0.3358
 3819ntf    on518400   1.961   2.406   4.011 -0.3522  0.6053 -0.4521
 3819ntf    on518401   2.082   2.559   4.354  0.4243 -0.7568 -0.0999
 3819ntf    on518402   2.250   2.715   4.272 -0.3364 -0.0373  0.3267
 3819ntf    fn418403   2.369   2.453   4.386  0.4447  0.7523  0.0703
 3819ntf    fn418404   2.234   2.332   4.270 -0.1377 -0.2974 -0.8276
 3819ntf    fn418405   2.388   2.441   4.179 -0.6415  0.5464 -0.1361
 3820ntf    cn118406   5.768   6.933   3.256  0.1729  0.3246  0.0390
 3820ntf    sn218407   5.645   6.815   3.319  0.4770  0.0483  0.1187
 3820ntf    nn318408   5.705   6.788   3.461 -0.0671 -0.2588  0.2940
 3820ntf    sn218409   5.727   6.885   3.583 -0.3339  0.2107 -0.0286
 3820ntf    cn118410   5.630   6.800   3.711  0.2873 -0.0731  0.2602
 3820ntf    fn418411   5.718   7.006   3.158 -0.3929 -0.4882 -0.2855
 3820ntf    fn418412   5.818   7.012   3.350 -0.5041 -0.0627  0.7428
 3820ntf    fn418413   5.874   6.874   3.204  0.4428  0.2051  0.7176
 3820ntf    on518414   5.523   6.891   3.317  0.5281  0.1302  0.1157
 3820ntf    on518415   5.641   6.700   3.231 -0.2733 -0.1697  0.4260
 3820ntf    on518416   5.674   7.019   3.577 -0.1066  0.2787 -0.5504
 3820ntf    on518417   5.856   6.859   3.643 -0.3933 -0.5069 -0.2085
 3820ntf    fn418418   5.512   6.769   3.659  0.3859 -0.1362  0.0742
 3820ntf    fn418419   5.688   6.682   3.727 -0.8684 -0.7408 -0.3556
 3820ntf    fn418420   5.619   6.857   3.830 -0.5338  0.6007 -0.1308
 3821ntf    cn118421   2.608   4.980   0.837  0.0540 -0.2431  0.5904
 3821ntf    sn218422   2.449   4.959   0.752  0.1655  0.1048  0.2903
 3821ntf    nn318423   2.398   4.825   0.817  0.1465  0.1190  0.3043
 3821ntf    sn218424   2.361   4.694   0.740 -0.1586  0.3271  0.0943
 3821ntf    cn118425   2.446   4.559   0.826 -0.4183 -0.0838 -0.2918
 3821ntf    fn418426   2.592   4.988   0.968 -0.2267  0.5015  0.5131
 3821ntf    fn418427   2.697   4.889   0.800 -0.3821 -0.1271 -0.7945
 3821ntf    fn418428   2.656   5.097   0.797 -0.9553  0.0072  0.0916
 3821ntf    on518429   2.366   5.069   0.796  0.2351  0.3700 -0.2434
 3821ntf    on518430   2.496   4.955   0.616 -0.3243 -0.2428  0.1287
 3821ntf    on518431   2.424   4.685   0.610 -0.2851  0.1922  0.0417
 3821ntf    on518432   2.225   4.646   0.748  0.1506 -0.6796 -0.5610
 3821ntf    fn418433   2.426   4.440   0.772  0.6642 -0.3956 -0.0298
 3821ntf    fn418434   2.577   4.572   0.844 -0.5099  0.2250  0.1431
 3821ntf    fn418435   2.405   4.551   0.951  0.1734  0.5455 -0.0487
 3822ntf    cn118436   7.249   5.133   5.661 -0.1426 -0.0864  0.0053
 3822ntf    sn218437   7.129   5.053   5.772 -0.2406  0.1970  0.1056
 3822ntf    nn318438   7.107   5.177   5.866  0.5135  1.0525 -0.8193
 3822ntf    sn218439   6.990   5.278   5.893 -0.2188  0.0374 -0.0879
 3822ntf    cn118440   7.088   5.430   5.867 -0.1305 -0.0533 -0.2861
 3822ntf    fn418441   7.187   5.214   5.576  0.1733 -0.1861 -0.3236
 3822ntf    fn418442   7.329   5.207   5.737 -0.3597 -0.0294  0.1792
 3822ntf    fn418443   7.319   5.043   5.594  0.2903  0.6034 -0.4817
 3822ntf    on518444   7.026   5.000   5.686 -0.2578 -0.2167  0.3791
 3822ntf    on518445   7.206   4.951   5.839 -0.5350 -0.0308  0.0997
 3822ntf    on518446   6.946   5.280   6.030 -0.2962  0.6492 -0.1164
 3822ntf    on518447   6.895   5.277   5.785 -0.3145  0.4520 -0.0121
 3822ntf    fn418448   7.128   5.444   5.742  0.1753  0.0737 -0.1745
 3822ntf    fn418449   7.009   5.534   5.886  0.1994  0.1341  0.0508
 3822ntf    fn418450   7.189   5.443   5.951 -0.2301 -0.3868 -0.1101
 3823ntf    cn118451   6.828   2.499   7.260 -0.2997  0.0527  0.2761
 3823ntf    sn218452   6.770   2.671   7.251  0.1765  0.2202  0.3851
 3823ntf    nn318453   6.899   2.737   7.191  0.1656 -0.2916 -0.2062
 3823ntf    sn218454   6.908   2.810   7.052  0.3682  0.0074 -0.0379
 3823ntf    cn118455   7.079   2.872   7.047  0.2485  0.3417 -0.0246
 3823ntf    fn418456   6.753   2.424   7.339 -0.1324 -0.5587 -0.1437
 3823ntf    fn418457   6.843   2.437   7.144 -0.1066 -0.2043  0.4367
 3823ntf    fn418458   6.948   2.504   7.317  0.0020  0.1350 -0.3604
 3823ntf    on518459   6.649   2.673   7.172  0.6660  0.2662 -0.3720
 3823ntf    on518460   6.760   2.714   7.389 -0.2036 -0.0866  0.4556
 3823ntf    on518461   6.825   2.928   7.047  0.2951 -0.0554 -0.2991
 3823ntf    on518462   6.904   2.720   6.940  0.5077 -0.2567  0.1670
 3823ntf    fn418463   7.103   2.969   7.134  0.0787  0.2050  0.1787
 3823ntf    fn418464   7.166   2.775   7.071 -0.2810 -0.1960 -0.2300
 3823ntf    fn418465   7.105   2.922   6.928 -0.4040 -0.0812 -0.3551
 3824ntf    cn118466   5.116   5.716   0.801  0.2683 -0.2290 -0.3757
 3824ntf    sn218467   5.016   5.815   0.686  0.2577 -0.0373 -0.2020
 3824ntf    nn318468   5.102   5.945   0.667 -0.5104  0.4422 -0.4786
 3824ntf    sn218469   5.242   5.948   0.595 -0.3007 -0.0804 -0.1023
 3824ntf    cn118470   5.192   6.037   0.444  0.0794 -0.0447 -0.2066
 3824ntf    fn418471   5.097   5.751   0.927  0.2218 -0.9044 -0.1880
 3824ntf    fn418472   5.090   5.587   0.792 -0.5137 -0.1445  0.5484
 3824ntf    fn418473   5.246   5.733   0.787  0.3084  0.1176  0.3728
 3824ntf    on518474   5.003   5.739   0.564 -1.2119 -0.4458  0.1874
 3824ntf    on518475   4.894   5.847   0.757  0.2601 -1.0535  0.2840
 3824ntf    on518476   5.300   5.825   0.548  0.5993  0.4046 -0.2666
 3824ntf    on518477   5.334   6.045   0.649  0.2247 -0.3917 -0.4324
 3824ntf    fn418478   5.165   6.166   0.454  0.3123  0.0219 -0.4087
 3824ntf    fn418479   5.292   6.028   0.358  0.2369 -0.5631  0.0221
 3824ntf    fn418480   5.087   5.974   0.394  0.6325 -0.5380 -0.7660
 3825ntf    cn118481   3.801   6.170   1.472  0.0192 -0.3795  0.0371
 3825ntf    sn218482   3.738   6.014   1.403 -0.2293 -0.0816 -0.4151
 3825ntf    nn318483   3.865   5.980   1.315 -0.4322  0.4287 -0.9123
 3825ntf    sn218484   3.906   5.843   1.249 -0.3490  0.1289 -0.2473
 3825ntf    cn118485   4.030   5.796   1.373 -0.1063 -0.1863 -0.6117
 3825ntf    fn418486   3.833   6.261   1.381 -0.0490 -0.3779  0.0140
 3825ntf    fn418487   3.709   6.226   1.549 -0.3391 -0.2836 -0.4532
 3825ntf    fn418488   3.904   6.152   1.553  0.3427  0.1882 -0.2403
 3825ntf    on518489   3.720   5.934   1.521  0.2882  0.6751  0.1839
 3825ntf    on518490   3.621   6.061   1.334 -0.0418  0.2295 -0.5240
 3825ntf    on518491   3.971   5.873   1.124  0.2657  0.0824  0.0578
 3825ntf    on518492   3.805   5.741   1.248 -0.1259 -0.0976  0.1238
 3825ntf    fn418493   4.055   5.666   1.368  0.4883 -0.1121  0.1892
 3825ntf    fn418494   4.149   5.852   1.358  0.0329 -0.0685  0.7851
 3825ntf    fn418495   3.995   5.827   1.496  0.5096  0.4561 -0.5885
 3826ntf    cn118496   4.222   6.516   0.488 -0.5302  0.1007 -0.0465
 3826ntf    sn218497   4.089   6.392   0.479 -0.1579 -0.3104  0.0864
 3826ntf    nn318498   4.017   6.437   0.347  0.1543 -0.6972 -0.2181
 3826ntf    sn218499   3.864   6.462   0.325  0.2169  0.0967  0.1997
 3826ntf    cn118500   3.850   6.393   0.157  0.5236 -0.1693  0.2829
 3826ntf    fn418501   4.276   6.509   0.368 -0.4364 -0.4216  0.0226
 3826ntf    fn418502   4.172   6.636   0.512 -0.4476  0.1415 -0.0772
 3826ntf    fn418503   4.319   6.494   0.575 -0.1879  0.5066 -0.3210
 3826ntf    on518504   4.155   6.264   0.470  0.1062 -0.1752  0.1028
 3826ntf    on518505   4.006   6.433   0.590  0.4595 -0.0720  0.4648
 3826ntf    on518506   3.831   6.600   0.297  0.2776  0.0537 -0.0884
 3826ntf    on518507   3.775   6.379   0.401  0.1975 -0.3780 -0.3350
 3826ntf    fn418508   3.932   6.459   0.077 -0.5091  0.1159 -0.5631
 3826ntf    fn418509   3.880   6.265   0.145  0.3864 -0.2131  0.4095
 3826ntf    fn418510   3.726   6.401   0.111  0.2832 -0.3854  0.8904
 3827ntf    cn118511   2.436   6.929   4.775  0.0585  0.2835 -0.3161
 3827ntf    sn218512   2.288   6.990   4.689 -0.0902  0.2274 -0.1038
 3827ntf    nn318513   2.365   7.048   4.564 -0.0358  0.0666 -0.1445
 3827ntf    sn218514   2.396   7.198   4.532 -0.1440  0.0942 -0.1243
 3827ntf    cn118515   2.346   7.199   4.357  0.0111 -0.0935 -0.1700
 3827ntf    fn418516   2.496   6.825   4.721  0.3385  0.4627 -0.3495
 3827ntf    fn418517   2.526   7.025   4.794  1.0530 -0.7092  0.0588
 3827ntf    fn418518   2.408   6.882   4.896 -0.4800 -0.0620 -0.5712
 3827ntf    on518519   2.213   6.871   4.659  0.2019 -0.1152  0.5133
 3827ntf    on518520   2.233   7.083   4.784  0.7883  0.4860  0.1660
 3827ntf    on518521   2.536   7.229   4.514 -0.0247 -0.1401  0.3887
 3827ntf    on518522   2.312   7.303   4.584  0.0635  0.1425  0.1156
 3827ntf    fn418523   2.219   7.172   4.333 -0.2521  0.4077  0.6094
 3827ntf    fn418524   2.360   7.316   4.295 -1.0003  0.3859  0.4841
 3827ntf    fn418525   2.414   7.114   4.283  0.0972 -0.2251  0.0589
 3828ntf    cn118526   7.361   2.826   4.653 -0.3434  0.1760  0.0193
 3828ntf    sn218527   7.333   2.904   4.492 -0.0958  0.1047 -0.0592
 3828ntf    nn318528   7.478   2.896   4.432  0.1109 -0.7090  0.5387
 3828ntf    sn218529   7.527   2.836   4.296  0.1127  0.1892  0.1379
 3828ntf    cn118530   7.551   2.659   4.331 -0.1098  0.1849  0.2678
 3828ntf    fn418531   7.445   2.723   4.654 -0.4821  0.0598 -0.2671
 3828ntf    fn418532   7.387   2.911   4.752 -0.4051  0.3281 -0.0953
 3828ntf    fn418533   7.248   2.769   4.692 -0.2259  0.3373  0.6140
 3828ntf    on518534   7.234   2.827   4.420  0.3393  0.0421 -0.5949
 3828ntf    on518535   7.291   3.038   4.525 -0.2036  0.2784 -0.8777
 3828ntf    on518536   7.658   2.892   4.273  0.6115 -0.8097  0.4939
 3828ntf    on518537   7.434   2.846   4.187 -0.0870 -0.6822  0.2195
 3828ntf    fn418538   7.546   2.581   4.224  0.4428  0.4201  0.0688
 3828ntf    fn418539   7.669   2.630   4.383 -0.3377 -0.5322  0.4038
 3828ntf    fn418540   7.457   2.623   4.416 -0.4545  0.6021  0.0659
 3829ntf    cn118541   0.663   4.993   2.489  0.2150 -0.2015  0.3437
 3829ntf    sn218542   0.836   5.051   2.492  0.1297  0.0824 -0.2191
 3829ntf    nn318543   0.832   5.181   2.404 -0.5670  0.0589 -0.2341
 3829ntf    sn218544   0.845   5.197   2.249 -0.0296 -0.2622 -0.2237
 3829ntf    cn118545   1.021   5.238   2.227 -0.0461 -0.1340 -0.1178
 3829ntf    fn418546   0.627   4.930   2.378  0.0214  0.6245 -0.0635
 3829ntf    fn418547   0.637   4.903   2.583 -0.1146 -0.3329  0.1274
 3829ntf    fn418548   0.583   5.096   2.509  0.1740 -0.1135 -0.2493
 3829ntf    on518549   0.878   5.077   2.627  0.1645 -0.3058 -0.1530
 3829ntf    on518550   0.897   4.942   2.419 -0.6427 -0.3187 -0.2816
 3829ntf    on518551   0.782   5.322   2.216 -0.1941 -0.0653  0.8242
 3829ntf    on518552   0.818   5.081   2.167 -0.7379 -0.4195  0.2295
 3829ntf    fn418553   1.048   5.245   2.097 -0.1248  0.7375 -0.0895
 3829ntf    fn418554   1.043   5.362   2.267 -0.4457  0.0204 -0.3681
 3829ntf    fn418555   1.110   5.159   2.285  0.0760  0.0122 -0.1043
 3830ntf    cn118556   0.419   5.119   6.027  0.0305  0.1641 -0.3209
 3830ntf    sn218557   0.412   4.971   5.921 -0.0875 -0.0524 -0.0128
 3830ntf    nn318558   0.370   5.039   5.786  0.1786  0.6063  0.2317
 3830ntf    sn218559   0.443   5.063   5.649 -0.2612  0.1452 -0.0835
 3830ntf    cn118560   0.293   5.110   5.556 -0.3164 -0.2314 -0.1873
 3830ntf    fn418561   0.433   5.112   6.158 -0.2359  0.0281 -0.2981
 3830ntf    fn418562   0.530   5.176   5.983  0.1557  0.0116 -0.2053
 3830ntf    fn418563   0.323   5.206   6.002 -0.1266  0.1965  0.3716
 3830ntf    on518564   0.547   4.922   5.934 -0.0853 -0.0465 -0.0124
 3830ntf    on518565   0.316   4.881   5.980 -0.5146 -0.1946 -0.9022
 3830ntf    on518566   0.492   4.943   5.586 -0.6473  0.0819 -0.2670
 3830ntf    on518567   0.516   5.187   5.653 -0.4821  0.2532  0.7253
 3830ntf    fn418568   0.308   5.121   5.425 -0.1294  0.1314 -0.1355
 3830ntf    fn418569   0.196   5.022   5.574 -0.2285 -0.1886  0.5290
 3830ntf    fn418570   0.236   5.216   5.611 -0.0239 -0.1265 -0.0814
 3831ntf    cn118571   5.750   1.291   0.647 -0.1424 -0.6061  0.3410
 3831ntf    sn218572   5.715   1.455   0.716 -0.1748 -0.4645 -0.0080
 3831ntf    nn318573   5.772   1.541   0.598  0.0890 -0.1778  0.3259
 3831ntf    sn218574   5.922   1.583   0.579  0.0077  0.0164  0.1170
 3831ntf    cn118575   5.924   1.757   0.634 -0.0786  0.1020 -0.1475
 3831ntf    fn418576   5.674   1.202   0.710 -0.3705 -0.7389 -0.1169
 3831ntf    fn418577   5.716   1.289   0.519 -0.8096  0.3177  0.4962
 3831ntf    fn418578   5.879   1.262   0.647 -0.0733 -0.3375 -0.5680
 3831ntf    on518579   5.570   1.457   0.717 -0.1747 -0.4562  0.2497
 3831ntf    on518580   5.786   1.462   0.841  0.5015 -0.7093 -0.3745
 3831ntf    on518581   5.960   1.589   0.440  0.1634 -0.0227  0.1578
 3831ntf    on518582   6.018   1.518   0.665  0.2512  0.0614 -0.1172
 3831ntf    fn418583   5.893   1.744   0.762  0.2601  0.3394 -0.0425
 3831ntf    fn418584   6.044   1.811   0.637 -0.2054  0.3858 -0.1770
 3831ntf    fn418585   5.833   1.833   0.576 -0.1650 -0.0830 -0.2565
 3832ntf    cn118586   4.213   1.284   5.914  0.1813  0.3676  0.1123
 3832ntf    sn218587   4.108   1.147   5.973  0.3878  0.0964 -0.1505
 3832ntf    nn318588   4.161   1.135   6.120  0.1889  0.1659 -0.0736
 3832ntf    sn218589   4.081   1.147   6.255  0.0939  0.0152 -0.1154
 3832ntf    cn118590   4.079   0.972   6.305 -0.3424 -0.0512 -0.3606
 3832ntf    fn418591   4.203   1.380   6.005 -0.3081  0.4415 -0.0169
 3832ntf    fn418592   4.342   1.256   5.913  0.2500  0.6804  0.2548
 3832ntf    fn418593   4.178   1.332   5.796  0.1042  0.0209 -0.0095
 3832ntf    on518594   3.976   1.190   5.935  0.1784 -0.6547 -0.3004
 3832ntf    on518595   4.143   1.024   5.905  0.4407 -0.0328  0.1079
 3832ntf    on518596   3.941   1.176   6.240  0.1075 -0.2360 -0.7812
 3832ntf    on518597   4.158   1.214   6.357 -0.4648  0.9063 -0.2645
 3832ntf    fn418598   4.202   0.929   6.330 -0.3752  0.3864  0.6100
 3832ntf    fn418599   4.004   0.948   6.411  0.2120  0.7008  0.2176
 3832ntf    fn418600   4.042   0.895   6.204 -0.4162 -0.1001 -0.2955
 3833ntf    cn118601   0.313   4.568   4.580 -0.3136 -0.2243  0.3878
 3833ntf    sn218602   0.272   4.400   4.639  0.1643 -0.4285  0.1368
 3833ntf    nn318603   0.216   4.332   4.509  0.1919  0.1836 -0.1993
 3833ntf    sn218604   0.065   4.306   4.473  0.0984  0.1116  0.2412
 3833ntf    cn118605   0.089   4.177   4.348  0.1848 -0.2843  0.6636
 3833ntf    fn418606   0.412   4.557   4.493 -0.4781  0.0329  0.1680
 3833ntf    fn418607   0.207   4.628   4.528  0.3809  0.3221 -0.4034
 3833ntf    fn418608   0.357   4.655   4.669  0.5403 -0.3060  0.0553
 3833ntf    on518609   0.405   4.348   4.661  0.1285 -0.6856 -0.2389
 3833ntf    on518610   0.186   4.422   4.752  0.2346 -0.5311  0.2099
 3833ntf    on518611   0.010   4.404   4.382 -0.1179  0.4564  0.7399
 3833ntf    on518612  -0.027   4.243   4.564 -0.0380 -0.3316 -0.1999
 3833ntf    fn418613   0.094   4.060   4.408  0.5762 -0.5439  0.1390
 3833ntf    fn418614  -0.009   4.155   4.261  0.3848  0.3289  0.2790
 3833ntf    fn418615   0.202   4.197   4.283 -0.2044 -0.0518  0.0450
 3834ntf    cn118616   2.773   4.121   0.589 -0.4702 -0.0473  0.0982
 3834ntf    sn218617   2.714   4.061   0.428 -0.0546  0.1410 -0.1261
 3834ntf    nn318618   2.647   4.197   0.388 -0.2348  0.1212  0.1088
 3834ntf    sn218619   2.707   4.312   0.299  0.3329 -0.3556 -0.1309
 3834ntf    cn118620   2.650   4.267   0.132  0.0148 -0.3091 -0.0352
 3834ntf    fn418621   2.850   4.044   0.664  0.0363  0.2272 -0.1333
 3834ntf    fn418622   2.832   4.238   0.575 -0.1322 -0.1534  0.6494
 3834ntf    fn418623   2.669   4.145   0.666 -0.0637  0.1852  0.5776
 3834ntf    on518624   2.831   4.019   0.354 -0.3598 -0.2853 -0.3749
 3834ntf    on518625   2.610   3.965   0.457 -0.1547  0.1785 -0.3536
 3834ntf    on518626   2.850   4.316   0.286  0.3284 -0.3748 -0.1865
 3834ntf    on518627   2.636   4.434   0.326  0.2849 -0.3809 -0.1445
 3834ntf    fn418628   2.665   4.368   0.047 -0.0733  0.1235  0.4555
 3834ntf    fn418629   2.725   4.168   0.087  0.3393 -0.3026  0.4880
 3834ntf    fn418630   2.530   4.212   0.134  0.1886 -0.7222 -0.6798
 3835ntf    cn118631   1.617   0.896   4.227 -0.0307 -0.1904 -0.2631
 3835ntf    sn218632   1.679   0.967   4.071  0.3302  0.2736  0.0881
 3835ntf    nn318633   1.548   1.016   4.000  0.1146  0.1409  0.3930
 3835ntf    sn218634   1.477   0.998   3.861  0.4445 -0.3602  0.2879
 3835ntf    cn118635   1.420   1.169   3.834  0.5861 -0.3542  0.0288
 3835ntf    fn418636   1.545   0.984   4.294  0.1154  0.2500 -0.6775
 3835ntf    fn418637   1.535   0.794   4.208 -0.1713 -0.0419 -0.4547
 3835ntf    fn418638   1.716   0.860   4.307  0.2436  0.0794 -0.4744
 3835ntf    on518639   1.769   1.072   4.110  0.2774  0.4316 -0.2122
 3835ntf    on518640   1.741   0.848   4.018 -0.6495 -0.1511 -0.1205
 3835ntf    on518641   1.357   0.918   3.867  0.1086  0.1127 -0.0363
 3835ntf    on518642   1.560   0.984   3.744  0.0491  0.0980 -0.0529
 3835ntf    fn418643   1.374   1.192   3.712 -0.0418  0.5067  0.4257
 3835ntf    fn418644   1.325   1.196   3.921 -0.0999 -0.8444 -0.5516
 3835ntf    fn418645   1.509   1.263   3.860 -0.4927  0.5929  0.3595
 3836ntf    cn118646   2.596   4.207   3.442  0.0148  0.4052 -0.1710
 3836ntf    sn218647   2.414   4.219   3.440 -0.0184 -0.0606 -0.1363
 3836ntf    nn318648   2.408   4.375   3.452 -0.0064 -0.0789  0.1006
 3836ntf    sn218649   2.329   4.455   3.562  0.2526 -0.0355  0.2574
 3836ntf    cn118650   2.460   4.488   3.684  0.0827  0.2125  0.3736
 3836ntf    fn418651   2.642   4.083   3.443 -0.2900  0.2906 -0.2250
 3836ntf    fn418652   2.645   4.253   3.329  0.1981  0.1730 -0.1859
 3836ntf    fn418653   2.657   4.269   3.542  0.5226 -0.1330 -0.1385
 3836ntf    on518654   2.385   4.176   3.305 -0.5043 -0.1463 -0.0065
 3836ntf    on518655   2.366   4.133   3.545 -0.3667 -0.5439 -0.6842
 3836ntf    on518656   2.220   4.389   3.629 -0.3315  0.3957 -0.2579
 3836ntf    on518657   2.294   4.587   3.516 -0.0229 -0.0782  0.3428
 3836ntf    fn418658   2.561   4.563   3.645  0.1969 -0.1514 -0.0406
 3836ntf    fn418659   2.404   4.541   3.791 -0.8368 -0.4211  0.2193
 3836ntf    fn418660   2.509   4.371   3.723 -0.1720 -0.1128 -0.2632
 3837ntf    cn118661   0.485   6.965   2.928 -0.1513  0.2916 -0.1826
 3837ntf    sn218662   0.345   6.940   3.041  0.1354  0.2390  0.1615
 3837ntf    nn318663   0.403   6.836   3.144 -0.1600 -0.1913 -0.1024
 3837ntf    sn218664   0.328   6.728   3.230  0.3047 -0.5079 -0.0901
 3837ntf    cn118665   0.368   6.594   3.115  0.2046 -0.2830 -0.3875
 3837ntf    fn418666   0.543   6.852   2.893  0.1853  0.4902 -0.2721
 3837ntf    fn418667   0.455   7.038   2.822  1.1681  0.4563 -0.4629
 3837ntf    fn418668   0.582   7.030   2.991  0.0447 -0.2976  0.1281
 3837ntf    on518669   0.314   7.064   3.107 -0.3069  0.1648  0.0985
 3837ntf    on518670   0.243   6.875   2.962  0.5172 -0.1438 -0.0180
 3837ntf    on518671   0.184   6.718   3.235  0.2081  0.6255 -0.2385
 3837ntf    on518672   0.404   6.693   3.347  0.1318  0.2369  0.2553
 3837ntf    fn418673   0.489   6.543   3.130  0.0788 -0.6393 -0.5821
 3837ntf    fn418674   0.283   6.495   3.134 -0.5418  0.3705 -0.2885
 3837ntf    fn418675   0.349   6.632   2.990 -0.1609  0.1315 -0.2088
 3838ntf    cn118676   0.620   3.777   6.086  0.0964 -0.1704  0.3706
 3838ntf    sn218677   0.486   3.900   6.080  0.2236 -0.0511 -0.0944
 3838ntf    nn318678   0.460   3.903   5.925 -0.6936  0.7852  0.0678
 3838ntf    sn218679   0.345   3.841   5.838  0.1308  0.1422 -0.5743
 3838ntf    cn118680   0.447   3.740   5.726  0.3163 -0.2313 -0.0740
 3838ntf    fn418681   0.719   3.801   6.001 -0.1050  0.6082  0.3479
 3838ntf    fn418682   0.669   3.755   6.206  0.0701  0.4992  0.5111
 3838ntf    fn418683   0.569   3.660   6.053  0.2498 -0.3033  0.6036
 3838ntf    on518684   0.383   3.849   6.167  0.6475 -0.6630  0.0571
 3838ntf    on518685   0.560   4.019   6.111  0.0968 -0.0940  0.3738
 3838ntf    on518686   0.282   3.940   5.754  0.4534  0.6272 -0.2495
 3838ntf    on518687   0.253   3.745   5.893  0.5830  0.2682  0.4340
 3838ntf    fn418688   0.378   3.645   5.666 -0.2505  0.2176 -0.1479
 3838ntf    fn418689   0.519   3.812   5.641 -0.0074  0.4007  0.1734
 3838ntf    fn418690   0.534   3.671   5.797  0.0954 -0.1534  0.2721
 3839ntf    cn118691   1.920   1.710   2.247  0.1929 -0.3022 -0.4748
 3839ntf    sn218692   2.090   1.708   2.313  0.0396 -0.2843 -0.0774
 3839ntf    nn318693   2.151   1.622   2.197 -0.6363 -0.4851 -0.2932
 3839ntf    sn218694   2.231   1.668   2.069 -0.0890  0.1405  0.2644
 3839ntf    cn118695   2.103   1.692   1.943  0.4512 -0.4359 -0.4066
 3839ntf    fn418696   1.881   1.591   2.205 -0.5727 -0.3313  0.2965
 3839ntf    fn418697   1.832   1.759   2.332  0.1141 -0.5813 -0.3930
 3839ntf    fn418698   1.911   1.783   2.137 -0.5520 -0.5499 -0.5805
 3839ntf    on518699   2.132   1.846   2.321  0.1463 -0.3304  0.1459
 3839ntf    on518700   2.074   1.636   2.437 -0.6929  0.4880  0.2909
 3839ntf    on518701   2.296   1.554   2.009 -0.7179 -0.3682  0.5404
 3839ntf    on518702   2.309   1.788   2.079  0.2397 -0.0608  0.1440
 3839ntf    fn418703   2.029   1.800   1.963  0.2261 -0.6613  0.0025
 3839ntf    fn418704   2.151   1.711   1.821 -0.1807  0.0045 -0.5937
 3839ntf    fn418705   2.018   1.590   1.939 -0.4754  0.2930  0.1349
 3840ntf    cn118706   4.518   4.824   0.301 -0.0272  0.2959 -0.7734
 3840ntf    sn218707   4.480   5.002   0.305  0.0726  0.3064  0.0450
 3840ntf    nn318708   4.490   5.016   0.461 -0.1479  0.3262  0.0570
 3840ntf    sn218709   4.519   5.148   0.540  0.1750  0.3929 -0.1707
 3840ntf    cn118710   4.358   5.178   0.619  0.3799  0.2202  0.3200
 3840ntf    fn418711   4.427   4.747   0.358  0.7227  0.1370  0.2505
 3840ntf    fn418712   4.523   4.782   0.176 -0.7065 -0.0728 -0.6805
 3840ntf    fn418713   4.634   4.796   0.359 -0.3004  0.2914 -0.2225
 3840ntf    on518714   4.590   5.059   0.230  0.1606  0.0412 -0.0307
 3840ntf    on518715   4.347   5.021   0.254 -0.1244  0.0793  0.4691
 3840ntf    on518716   4.535   5.265   0.458  0.2372  0.1355 -0.5254
 3840ntf    on518717   4.621   5.118   0.637  0.2134 -0.2432 -0.4054
 3840ntf    fn418718   4.254   5.177   0.537  0.4264  0.1602  0.2612
 3840ntf    fn418719   4.332   5.101   0.724 -0.7343  0.0435 -0.0643
 3840ntf    fn418720   4.347   5.303   0.661  0.3620  0.2879  0.1173
 3841ntf    cn118721   0.216   2.789   1.205 -0.0483 -0.2786  0.1746
 3841ntf    sn218722   0.229   2.612   1.166  0.0475 -0.1469 -0.4034
 3841ntf    nn318723   0.383   2.607   1.137  0.1491  0.1904  0.0671
 3841ntf    sn218724   0.497   2.511   1.190 -0.3077 -0.3273  0.1229
 3841ntf    cn118725   0.560   2.594   1.339  0.0910  0.1688 -0.3175
 3841ntf    fn418726   0.279   2.805   1.320 -0.0632  0.2217  0.1161
 3841ntf    fn418727   0.273   2.867   1.114  0.1026 -0.4625  0.1116
 3841ntf    fn418728   0.090   2.828   1.209 -0.0703 -0.3681  0.3188
 3841ntf    on518729   0.186   2.559   1.293 -0.0611 -0.5115 -0.5937
 3841ntf    on518730   0.151   2.606   1.045 -0.3053  0.3280 -0.2041
 3841ntf    on518731   0.606   2.522   1.097  0.1800 -0.2034  0.7054
 3841ntf    on518732   0.457   2.380   1.235  0.0047 -0.3265  0.4051
 3841ntf    fn418733   0.684   2.563   1.371  0.0389  0.2607 -0.0247
 3841ntf    fn418734   0.555   2.726   1.329 -0.5298  0.1888  0.1584
 3841ntf    fn418735   0.483   2.569   1.444 -0.0377 -0.3353 -0.5295
 3842ntf    cn118736   5.902   1.551   2.375  0.1953 -0.0236  0.2041
 3842ntf    sn218737   5.919   1.714   2.297 -0.2122  0.1235  0.4185
 3842ntf    nn318738   5.838   1.803   2.397 -0.0653  0.6441  0.0816
 3842ntf    sn218739   5.899   1.888   2.515 -0.3520  0.0473  0.6692
 3842ntf    cn118740   5.909   2.048   2.429 -0.3565 -0.3828 -0.1398
 3842ntf    fn418741   5.989   1.460   2.336 -0.2866 -0.3054 -0.2230
 3842ntf    fn418742   5.910   1.548   2.507  0.5084 -0.3552  0.1814
 3842ntf    fn418743   5.790   1.488   2.342  0.3041 -0.1177  0.0119
 3842ntf    on518744   6.060   1.744   2.297 -0.2184  0.1592  0.1432
 3842ntf    on518745   5.853   1.698   2.170  0.4385 -0.2314  0.1179
 3842ntf    on518746   6.032   1.867   2.568  0.1911  0.0887 -0.6348
 3842ntf    on518747   5.805   1.925   2.617  0.0740  0.1283  1.0362
 3842ntf    fn418748   5.805   2.080   2.354 -0.0160  0.2010 -0.3702
 3842ntf    fn418749   5.938   2.155   2.501 -0.7419 -0.3047 -0.1019
 3842ntf    fn418750   6.011   2.033   2.345 -0.3782 -0.0027 -0.2341
 3843ntf    cn118751   3.692   2.850   2.327  0.0946  0.4280 -0.4792
 3843ntf    sn218752   3.647   2.693   2.246  0.2001  0.0866  0.1227
 3843ntf    nn318753   3.552   2.733   2.128 -0.1728 -0.4350  0.2390
 3843ntf    sn218754   3.401   2.706   2.095 -0.0882 -0.0170 -0.5031
 3843ntf    cn118755   3.403   2.589   1.955  0.5562 -0.4738 -0.1159
 3843ntf    fn418756   3.754   2.831   2.442 -0.0369  0.4650 -0.4011
 3843ntf    fn418757   3.777   2.918   2.252  0.5648  0.1466 -0.2046
 3843ntf    fn418758   3.588   2.928   2.353  0.2483  0.4910 -0.0489
 3843ntf    on518759   3.774   2.647   2.195 -0.2513  0.0771 -1.0206
 3843ntf    on518760   3.590   2.621   2.358  0.4953  0.2551  0.3843
 3843ntf    on518761   3.338   2.823   2.039 -0.2766  0.1506  0.0556
 3843ntf    on518762   3.327   2.637   2.197  0.4343 -0.2020 -0.2462
 3843ntf    fn418763   3.287   2.567   1.896  0.2598 -0.5064  0.4694
 3843ntf    fn418764   3.484   2.629   1.859  0.3925  0.0623 -0.0377
 3843ntf    fn418765   3.431   2.466   1.993 -0.1156 -0.5118  0.2779
 3844ntf    cn118766   6.851   5.168   0.886  0.1679 -0.0273 -0.2900
 3844ntf    sn218767   6.906   5.211   1.054  0.2624  0.1542 -0.3671
 3844ntf    nn318768   7.028   5.308   1.031  0.1635  0.4171  0.1945
 3844ntf    sn218769   7.044   5.459   0.992 -0.1563  0.3410 -0.2515
 3844ntf    cn118770   7.217   5.448   0.936 -0.1433  0.0107 -0.1465
 3844ntf    fn418771   6.947   5.112   0.815  0.2091 -0.4510  0.0955
 3844ntf    fn418772   6.745   5.089   0.892  0.0595  0.1295 -0.0974
 3844ntf    fn418773   6.808   5.280   0.830 -0.1012  0.1102  0.1816
 3844ntf    on518774   6.792   5.279   1.112  0.1665 -0.4851  0.2072
 3844ntf    on518775   6.945   5.088   1.118  0.3341  0.3063 -0.1166
 3844ntf    on518776   7.042   5.559   1.097  0.0991  0.4376 -0.3381
 3844ntf    on518777   6.970   5.497   0.875  0.6144  0.6182 -0.6547
 3844ntf    fn418778   7.228   5.374   0.826 -0.5281 -0.2227 -0.0323
 3844ntf    fn418779   7.275   5.562   0.904  0.4013 -0.2645 -0.1478
 3844ntf    fn418780   7.295   5.400   1.031 -0.1053 -0.0497 -0.2077
 3845ntf    cn118781   7.202   5.640   3.154 -0.0984 -0.4412 -0.4317
 3845ntf    sn218782   7.207   5.722   2.992  0.1117 -0.3157 -0.3629
 3845ntf    nn318783   7.053   5.709   2.962  0.1172 -0.1449 -0.4632
 3845ntf    sn218784   6.939   5.807   2.916  0.1006 -0.0170 -0.1475
 3845ntf    cn118785   6.834   5.806   3.064 -0.1266  0.0390 -0.3081
 3845ntf    fn418786   7.205   5.508   3.141  0.1483 -0.4367 -0.4286
 3845ntf    fn418787   7.306   5.667   3.232 -0.3714  0.6074 -0.4191
 3845ntf    fn418788   7.088   5.660   3.219  0.2522  0.0246  0.0483
 3845ntf    on518789   7.257   5.852   3.028  0.3346 -0.4635 -0.1380
 3845ntf    on518790   7.280   5.638   2.901 -0.0346 -0.3605 -0.4406
 3845ntf    on518791   6.845   5.747   2.824  0.0317  0.0686 -0.1328
 3845ntf    on518792   6.963   5.948   2.898 -0.0072  0.0381  0.1398
 3845ntf    fn418793   6.836   5.693   3.132  1.1080  0.2059 -0.0415
 3845ntf    fn418794   6.866   5.898   3.154  0.2842  0.3909 -0.8122
 3845ntf    fn418795   6.708   5.840   3.043 -0.1903  0.1356  0.2111
 3846ntf    cn118796   0.099   4.848   0.788 -0.0122  0.3927 -0.0011
 3846ntf    sn218797   0.104   5.030   0.795 -0.2822  0.4194 -0.4652
 3846ntf    nn318798   0.165   5.060   0.937 -0.2242  0.2077 -0.4449
 3846ntf    sn218799   0.284   5.156   0.971 -0.4294  0.2996  0.0128
 3846ntf    cn118800   0.287   5.145   1.153  0.2219 -0.1846 -0.0214
 3846ntf    fn418801   0.217   4.797   0.753 -0.0614  0.0890  0.2746
 3846ntf    fn418802   0.055   4.805   0.905 -0.0370 -0.0310 -0.1645
 3846ntf    fn418803   0.011   4.811   0.697  0.1221 -0.3018  0.1432
 3846ntf    on518804   0.184   5.067   0.681  0.8772 -0.1559  0.1420
 3846ntf    on518805  -0.035   5.068   0.785 -0.4354  0.1789  0.6542
 3846ntf    on518806   0.257   5.295   0.948  0.6765  0.4598 -0.3730
 3846ntf    on518807   0.419   5.116   0.939 -0.4333 -0.1315  0.5199
 3846ntf    fn418808   0.401   5.190   1.202  0.0387  0.2270  0.0335
 3846ntf    fn418809   0.188   5.210   1.213  0.1279 -0.1197 -0.2470
 3846ntf    fn418810   0.281   5.019   1.192 -0.5596 -0.1930 -0.1525
 3847ntf    cn118811   3.973   2.595   6.562  0.0248  0.3947  0.4504
 3847ntf    sn218812   3.812   2.673   6.592 -0.1694  0.2279 -0.1530
 3847ntf    nn318813   3.800   2.756   6.459  0.1062  0.1782 -0.2090
 3847ntf    sn218814   3.715   2.740   6.328  0.0692 -0.0803 -0.1526
 3847ntf    cn118815   3.548   2.791   6.377  0.1693 -0.0514  0.1625
 3847ntf    fn418816   4.030   2.538   6.668  0.0032 -0.0928  0.2052
 3847ntf    fn418817   3.954   2.490   6.484  0.1438  0.2136  0.6612
 3847ntf    fn418818   4.064   2.677   6.511 -0.0143  0.3963  0.3829
 3847ntf    on518819   3.722   2.563   6.616 -0.4031  0.3978 -0.2440
 3847ntf    on518820   3.834   2.773   6.693  0.5624 -0.2574  0.1770
 3847ntf    on518821   3.699   2.607   6.275  0.2967 -0.3542  0.4525
 3847ntf    on518822   3.747   2.844   6.234  0.4717  0.1411  0.2260
 3847ntf    fn418823   3.513   2.750   6.498 -0.2011  0.0728  0.0994
 3847ntf    fn418824   3.535   2.923   6.379  0.0438 -0.0629  0.1121
 3847ntf    fn418825   3.454   2.752   6.292 -0.0024 -0.0297  0.3409
 3848ntf    cn118826   3.124   6.889   4.656 -0.0216  0.2097 -0.0990
 3848ntf    sn218827   3.294   6.843   4.702 -0.0348  0.2094 -0.0499
 3848ntf    nn318828   3.265   6.702   4.765  0.4989  0.2606  0.3247
 3848ntf    sn218829   3.308   6.647   4.905 -0.1024 -0.3005  0.2955
 3848ntf    cn118830   3.445   6.548   4.837 -0.1447 -0.1688  0.0154
 3848ntf    fn418831   3.119   6.991   4.572  0.5807  0.4707  0.1775
 3848ntf    fn418832   3.062   6.787   4.599 -0.3036  0.4666 -0.2556
 3848ntf    fn418833   3.060   6.919   4.768 -0.5626  0.2309 -0.4113
 3848ntf    on518834   3.362   6.841   4.575  0.0630 -0.2488  0.0078
 3848ntf    on518835   3.339   6.946   4.792  0.0285 -0.2811  0.4848
 3848ntf    on518836   3.208   6.563   4.967 -0.5757  0.1801  0.1898
 3848ntf    on518837   3.378   6.732   4.998  0.6308 -0.3125 -0.2315
 3848ntf    fn418838   3.538   6.624   4.784 -0.3562  0.0327 -0.0685
 3848ntf    fn418839   3.510   6.487   4.935  0.1586 -0.0063 -0.0851
 3848ntf    fn418840   3.401   6.460   4.748 -0.2379 -0.1174  0.0094
 3849ntf    cn118841   0.461   4.097   0.338 -0.0058  0.1986  0.1185
 3849ntf    sn218842   0.616   4.005   0.309 -0.0631  0.1301  0.0262
 3849ntf    nn318843   0.639   4.038   0.158 -0.4030  0.0662 -0.0409
 3849ntf    sn218844   0.587   3.954   0.036  0.0472 -0.0282 -0.1695
 3849ntf    cn118845   0.744   3.941  -0.056 -0.0782 -0.0142 -0.3856
 3849ntf    fn418846   0.349   4.035   0.304 -0.3539  0.3017  1.0550
 3849ntf    fn418847   0.456   4.123   0.467 -0.0400 -0.1359  0.1849
 3849ntf    fn418848   0.457   4.213   0.274 -0.2510  0.2540  0.2340
 3849ntf    on518849   0.720   4.069   0.387  0.4203 -0.3274 -0.2394
 3849ntf    on518850   0.574   3.874   0.351 -0.0816  0.0324 -0.2972
 3849ntf    on518851   0.506   4.038  -0.048 -0.0316 -0.1854 -0.2509
 3849ntf    on518852   0.542   3.819   0.062 -0.0926  0.1160  0.3447
 3849ntf    fn418853   0.814   4.053  -0.063 -0.1397  0.0564  0.1032
 3849ntf    fn418854   0.821   3.844  -0.009 -0.6949 -0.1733  0.3295
 3849ntf    fn418855   0.725   3.903  -0.181  0.5056  0.4326 -0.6137
 3850ntf    cn118856   1.251   4.899   6.001 -0.3516 -0.2757 -0.0048
 3850ntf    sn218857   1.335   4.962   6.149 -0.3132 -0.2079 -0.0557
 3850ntf    nn318858   1.245   5.086   6.184 -0.0539 -0.1604  0.4472
 3850ntf    sn218859   1.172   5.133   6.315 -0.4630  0.0795  0.1355
 3850ntf    cn118860   1.310   5.192   6.418 -0.2014 -0.1534 -0.0785
 3850ntf    fn418861   1.275   4.989   5.907 -0.1490 -0.2225  0.0969
 3850ntf    fn418862   1.293   4.783   5.953 -0.1229  0.0297 -0.5571
 3850ntf    fn418863   1.119   4.898   6.012 -0.3346  0.1651  0.2509
 3850ntf    on518864   1.322   4.853   6.242 -0.2325 -0.1619  0.0100
 3850ntf    on518865   1.464   4.998   6.096 -0.4993  0.1339 -0.2830
 3850ntf    on518866   1.118   5.025   6.394 -0.0111 -0.1134  0.1895
 3850ntf    on518867   1.093   5.253   6.302 -0.4714  0.1554  0.8650
 3850ntf    fn418868   1.266   5.220   6.540  0.0859  0.1386 -0.0410
 3850ntf    fn418869   1.402   5.099   6.438 -0.1885 -0.2826 -0.7189
 3850ntf    fn418870   1.374   5.298   6.372 -0.6195  0.0680 -0.1540
 3851ntf    cn118871   2.525   7.078   0.368  0.1341 -0.5885  0.2729
 3851ntf    sn218872   2.515   7.204   0.500  0.2266 -0.3070  0.0128
 3851ntf    nn318873   2.621   7.152   0.604  0.8301  0.0357 -0.4266
 3851ntf    sn218874   2.624   7.188   0.756 -0.1721 -0.4064 -0.2919
 3851ntf    cn118875   2.805   7.177   0.758 -0.1268  0.2712 -0.2163
 3851ntf    fn418876   2.484   6.956   0.398  0.1361 -0.5836  0.2946
 3851ntf    fn418877   2.457   7.112   0.260 -0.1756  0.2131  0.7114
 3851ntf    fn418878   2.650   7.076   0.326  0.0449  0.3558 -0.0708
 3851ntf    on518879   2.563   7.320   0.429  0.5549 -0.5153 -0.1114
 3851ntf    on518880   2.377   7.203   0.543  0.3767  0.8494  0.5310
 3851ntf    on518881   2.579   7.081   0.841  0.8825 -0.2518  0.4900
 3851ntf    on518882   2.603   7.328   0.788 -0.3847 -0.4480 -0.2482
 3851ntf    fn418883   2.851   7.183   0.882  0.3944 -0.0816 -0.3878
 3851ntf    fn418884   2.852   7.065   0.706 -0.0399  0.4706 -0.5728
 3851ntf    fn418885   2.859   7.278   0.691 -0.1512  0.3935 -0.0503
 3852ntf    cn118886   3.933   2.075   6.350 -0.5699  0.2259 -0.3085
 3852ntf    sn218887   3.898   1.921   6.259 -0.0053 -0.2172  0.2145
 3852ntf    nn318888   3.904   1.824   6.382 -0.0481  0.2273  0.5686
 3852ntf    sn218889   4.034   1.798   6.467  0.2199 -0.1416  0.0445
 3852ntf    cn118890   4.063   1.619   6.448 -0.0081 -0.1850  0.0974
 3852ntf    fn418891   3.857   2.090   6.457  0.1005 -0.5286  0.2839
 3852ntf    fn418892   4.056   2.090   6.395 -0.2559  0.8711 -1.3284
 3852ntf    fn418893   3.918   2.182   6.273 -0.2802  0.4930  0.0066
 3852ntf    on518894   3.761   1.940   6.218  0.1563  0.1778 -0.1563
 3852ntf    on518895   3.997   1.905   6.156 -0.9538  0.1947 -0.7943
 3852ntf    on518896   4.001   1.818   6.606  0.4043 -0.0512  0.0750
 3852ntf    on518897   4.162   1.847   6.423  0.1195 -0.0407 -0.1367
 3852ntf    fn418898   4.120   1.586   6.562 -0.0592  0.4641  0.3119
 3852ntf    fn418899   3.950   1.551   6.445 -0.2498  0.1954  0.4602
 3852ntf    fn418900   4.132   1.586   6.340 -0.0611 -0.1659  0.0576
 3853ntf    cn118901   3.291   4.204   1.657 -0.2880  0.0980 -0.0508
 3853ntf    sn218902   3.139   4.249   1.568 -0.0827  0.5892 -0.1597
 3853ntf    nn318903   3.034   4.141   1.611 -0.1118  0.6475 -0.0835
 3853ntf    sn218904   2.919   4.133   1.718  0.4800  0.0314  0.5194
 3853ntf    cn118905   2.840   3.975   1.675  0.1492  0.3280  0.0322
 3853ntf    fn418906   3.367   4.118   1.591 -0.8555 -0.4820  0.0436
 3853ntf    fn418907   3.364   4.313   1.679 -0.4812  0.1644  0.2762
 3853ntf    fn418908   3.271   4.160   1.780  0.6518  0.1888  0.1420
 3853ntf    on518909   3.106   4.381   1.616 -0.4921  0.2994  0.3744
 3853ntf    on518910   3.178   4.240   1.430  0.0426  0.7145 -0.1332
 3853ntf    on518911   2.808   4.219   1.686  0.5014 -0.3819 -0.7553
 3853ntf    on518912   2.963   4.116   1.854  0.3224  0.3306  0.6081
 3853ntf    fn418913   2.708   3.975   1.663  0.1795 -0.5899 -0.3510
 3853ntf    fn418914   2.894   3.926   1.565  0.2481 -0.4534  0.4230
 3853ntf    fn418915   2.868   3.885   1.767 -0.4688 -0.0509 -0.1410
 3854ntf    cn118916   5.248   3.135   3.118  0.3449  0.1449 -0.1538
 3854ntf    sn218917   5.188   2.967   3.082  0.0460  0.1752  0.1937
 3854ntf    nn318918   5.144   2.925   3.227  0.2061  0.3629  0.2974
 3854ntf    sn218919   5.190   2.797   3.305  0.1957  0.0666 -0.1746
 3854ntf    cn118920   5.336   2.868   3.388  0.2610 -0.2091 -0.0516
 3854ntf    fn418921   5.147   3.214   3.152 -0.1478 -0.5053 -0.0818
 3854ntf    fn418922   5.321   3.118   3.227  0.4263  0.1654 -0.2051
 3854ntf    fn418923   5.318   3.196   3.025  0.3067  0.0807 -0.2248
 3854ntf    on518924   5.077   2.984   2.993  0.4144  0.1724 -0.2696
 3854ntf    on518925   5.303   2.900   3.026 -0.0093  0.1078  0.1610
 3854ntf    on518926   5.252   2.692   3.228 -0.0037 -0.0725 -0.1459
 3854ntf    on518927   5.103   2.759   3.413  0.2660 -0.1702 -0.1994
 3854ntf    fn418928   5.426   2.910   3.301  0.2408 -0.2868 -0.1107
 3854ntf    fn418929   5.306   2.961   3.478  0.2740 -0.3346  0.0839
 3854ntf    fn418930   5.399   2.769   3.449  0.0893 -0.2777  0.0170
 3855ntf    cn118931   1.299   3.759   6.117 -0.0104  0.1030 -0.1027
 3855ntf    sn218932   1.304   3.808   6.291  0.2092 -0.1303 -0.0430
 3855ntf    nn318933   1.179   3.903   6.292  0.0704 -0.3145 -0.0235
 3855ntf    sn218934   1.110   3.986   6.406  0.0441 -0.3885  0.0148
 3855ntf    cn118935   0.954   3.894   6.422 -0.2973  0.1511 -0.1798
 3855ntf    fn418936   1.286   3.629   6.096 -0.4462  0.0649  0.3851
 3855ntf    fn418937   1.194   3.815   6.058 -0.2806  0.1270  0.4001
 3855ntf    fn418938   1.405   3.797   6.048  0.0879 -0.1708 -0.1014
 3855ntf    on518939   1.297   3.687   6.369  0.8384 -0.0526  0.1475
 3855ntf    on518940   1.430   3.879   6.299  0.1858 -0.1896  1.0570
 3855ntf    on518941   1.069   4.116   6.360 -0.0244 -0.3757  0.1111
 3855ntf    on518942   1.163   3.966   6.539  0.3046  0.1021 -0.0149
 3855ntf    fn418943   0.978   3.766   6.447  0.1718  0.2612 -0.0584
 3855ntf    fn418944   0.878   3.940   6.520 -0.2499  0.0568 -0.0989
 3855ntf    fn418945   0.880   3.894   6.313 -0.3375  0.6314 -0.1556
 3856ntf    cn118946   5.358   3.791   3.313  0.1914  0.1861 -0.3487
 3856ntf    sn218947   5.538   3.797   3.286  0.3201 -0.0628  0.4348
 3856ntf    nn318948   5.541   3.933   3.208  0.2262 -0.4172 -0.1914
 3856ntf    sn218949   5.622   3.974   3.080  0.3607 -0.1283 -0.0141
 3856ntf    cn118950   5.786   3.995   3.156  0.1618  0.3427  0.2905
 3856ntf    fn418951   5.288   3.792   3.201  0.0356 -0.2883 -0.2587
 3856ntf    fn418952   5.329   3.674   3.367  0.7428 -0.2053 -0.8944
 3856ntf    fn418953   5.307   3.885   3.392 -0.2631  0.1031 -0.5425
 3856ntf    on518954   5.580   3.803   3.424 -0.0185 -0.8344  0.5794
 3856ntf    on518955   5.574   3.683   3.206 -0.1634 -0.0036  0.1309
 3856ntf    on518956   5.591   4.108   3.036  0.1663 -0.1360  0.0980
 3856ntf    on518957   5.644   3.878   2.975 -0.3083 -0.6052  0.2702
 3856ntf    fn418958   5.830   3.877   3.196 -0.5738  0.1278  0.4910
 3856ntf    fn418959   5.877   4.032   3.067 -0.2052  0.3345 -0.0957
 3856ntf    fn418960   5.781   4.077   3.260  0.2988 -0.0803  0.6343
 3857ntf    cn118961   0.213   2.279   6.559  0.3141  0.3418  0.1120
 3857ntf    sn218962   0.166   2.247   6.732  0.2177 -0.1663 -0.0075
 3857ntf    nn318963   0.238   2.363   6.809  0.2595  0.4214 -0.9155
 3857ntf    sn218964   0.375   2.359   6.885 -0.3079 -0.2940  0.1001
 3857ntf    cn118965   0.313   2.330   7.054 -0.3862  0.3870  0.1930
 3857ntf    fn418966   0.164   2.185   6.479 -0.4088  0.3434  0.5429
 3857ntf    fn418967   0.159   2.390   6.514 -0.0180  0.0612 -0.1886
 3857ntf    fn418968   0.343   2.284   6.534  0.2541  0.2603 -0.2248
 3857ntf    on518969   0.023   2.262   6.736  0.1667 -0.7555  0.5740
 3857ntf    on518970   0.227   2.119   6.758 -0.3733 -0.4254  0.1257
 3857ntf    on518971   0.437   2.488   6.903 -0.1773 -0.3424 -0.0043
 3857ntf    on518972   0.470   2.253   6.863 -0.1391 -0.1433  0.0911
 3857ntf    fn418973   0.222   2.235   7.053  0.1519 -0.1345 -0.4651
 3857ntf    fn418974   0.416   2.301   7.132 -0.0943 -0.0588 -0.3454
 3857ntf    fn418975   0.258   2.438   7.107 -0.2526  0.4548  0.1946
 3858ntf    cn118976   2.792   1.514   0.750  0.0292  0.1824 -0.3003
 3858ntf    sn218977   2.625   1.584   0.764  0.0690  0.1500  0.3612
 3858ntf    nn318978   2.536   1.458   0.795  0.0782  0.1170  0.2564
 3858ntf    sn218979   2.495   1.383   0.927  0.0225 -0.0703  0.1337
 3858ntf    cn118980   2.327   1.449   0.950  0.1886  0.3721  0.1039
 3858ntf    fn418981   2.836   1.501   0.874 -0.2526  0.1201 -0.2069
 3858ntf    fn418982   2.791   1.391   0.700 -0.1062 -0.1422  0.4849
 3858ntf    fn418983   2.885   1.584   0.687  0.0429  0.2565 -0.1984
 3858ntf    on518984   2.625   1.686   0.865  0.9308  0.3464  0.1712
 3858ntf    on518985   2.601   1.625   0.628 -0.1212 -0.3760  0.2326
 3858ntf    on518986   2.559   1.436   1.046 -0.2125 -0.1580  0.3006
 3858ntf    on518987   2.474   1.244   0.899  0.6850 -0.0881 -0.2891
 3858ntf    fn418988   2.336   1.559   1.023  0.1948  0.3170  0.1870
 3858ntf    fn418989   2.273   1.493   0.838  0.1952  0.0908 -0.0118
 3858ntf    fn418990   2.243   1.367   1.012  0.4023 -0.1667 -0.3097
 3859ntf    cn118991   6.664   5.639   1.854  0.1819 -0.2628 -0.2821
 3859ntf    sn218992   6.825   5.555   1.867  0.1523 -0.2733  0.0188
 3859ntf    nn318993   6.907   5.674   1.927 -0.1192  0.1048 -0.3531
 3859ntf    sn218994   7.014   5.765   1.857  0.0784  0.1373 -0.0133
 3859ntf    cn118995   7.080   5.848   2.005 -0.0041 -0.0857  0.1491
 3859ntf    fn418996   6.560   5.573   1.808  0.0304 -0.0814 -0.2028
 3859ntf    fn418997   6.627   5.691   1.970  0.5386  0.1212 -0.3356
 3859ntf    fn418998   6.666   5.745   1.775  0.2032  0.0405  0.1194
 3859ntf    on518999   6.803   5.447   1.959  0.1268 -0.3992 -0.1350
 3859ntf    on519000   6.860   5.527   1.730  0.0146  0.2003 -0.1147
 3859ntf    on519001   6.950   5.874   1.786 -0.0269  0.0554 -0.0435
 3859ntf    on519002   7.133   5.698   1.810  0.0146 -0.2323  0.3493
 3859ntf    fn419003   6.994   5.938   2.049  0.5705  0.2376  0.6260
 3859ntf    fn419004   7.117   5.771   2.106  0.2782 -0.5369 -0.2936
 3859ntf    fn419005   7.190   5.913   1.971  0.1018 -0.4961 -0.3170
 3860ntf    cn119006   0.423   7.005   4.849  0.3667  0.0576 -0.3201
 3860ntf    sn219007   0.561   6.917   4.769  0.3792 -0.0009 -0.2345
 3860ntf    nn319008   0.573   6.808   4.881 -0.0166 -0.5046 -0.6758
 3860ntf    sn219009   0.549   6.653   4.881 -0.1546 -0.4867  0.1566
 3860ntf    cn119010   0.716   6.585   4.905  0.0608  0.0091  0.0626
 3860ntf    fn419011   0.315   6.932   4.870  0.3021  0.1862 -0.2120
 3860ntf    fn419012   0.454   7.057   4.966  0.5433 -0.0325 -0.3264
 3860ntf    fn419013   0.377   7.107   4.779 -0.4590 -0.0808  0.0148
 3860ntf    on519014   0.508   6.880   4.640  0.2735 -0.0963 -0.1644
 3860ntf    on519015   0.676   7.004   4.773  0.2193  0.2170 -0.3475
 3860ntf    on519016   0.514   6.598   4.753 -0.3652  0.6519 -0.2793
 3860ntf    on519017   0.476   6.615   5.000  0.4545  0.0099  0.6981
 3860ntf    fn419018   0.758   6.627   5.023 -0.8523  0.1116  0.3543
 3860ntf    fn419019   0.717   6.453   4.896  0.3188  0.0212 -0.1135
 3860ntf    fn419020   0.796   6.642   4.816 -0.3821  1.0955  0.3478
 3861ntf    cn119021   3.728   2.648   4.714 -0.2620 -0.4407  0.2646
 3861ntf    sn219022   3.904   2.648   4.760 -0.2131 -0.3116  0.0805
 3861ntf    nn319023   3.952   2.516   4.690  0.7403  0.0845 -0.0305
 3861ntf    sn219024   3.956   2.370   4.746  0.0956  0.1127  0.0931
 3861ntf    cn119025   4.132   2.354   4.789  0.2081 -0.1755 -0.4727
 3861ntf    fn419026   3.717   2.672   4.584 -0.1408 -0.2748  0.2852
 3861ntf    fn419027   3.674   2.532   4.747 -0.0535 -0.6140  0.0038
 3861ntf    fn419028   3.669   2.746   4.780 -0.1717 -0.4124  0.3032
 3861ntf    on519029   3.950   2.770   4.697 -0.6447 -0.1331  0.1085
 3861ntf    on519030   3.907   2.647   4.905  0.1104  0.0815  0.0817
 3861ntf    on519031   3.941   2.267   4.646 -0.2430  0.5054 -0.2654
 3861ntf    on519032   3.896   2.353   4.877 -0.7036 -0.0755 -0.2922
 3861ntf    fn419033   4.173   2.460   4.857 -0.5832 -0.0324 -0.2102
 3861ntf    fn419034   4.157   2.243   4.856 -0.6608  0.2628  0.6211
 3861ntf    fn419035   4.206   2.340   4.680  0.3654  0.2095 -0.4181
 3862ntf    cn119036   4.580   1.854   2.457  0.0228 -0.1799  0.1574
 3862ntf    sn219037   4.498   1.959   2.334  0.3775 -0.0997 -0.0085
 3862ntf    nn319038   4.363   1.880   2.343  0.3807 -0.0955  0.0824
 3862ntf    sn219039   4.314   1.758   2.256  0.1494  0.0616 -0.0105
 3862ntf    cn119040   4.258   1.648   2.389  0.0195  0.0842 -0.0470
 3862ntf    fn419041   4.611   1.731   2.420 -0.0153 -0.1440  0.0038
 3862ntf    fn419042   4.688   1.923   2.487 -0.0742 -0.1594  0.4707
 3862ntf    fn419043   4.509   1.845   2.569 -0.1232  0.0076  0.0810
 3862ntf    on519044   4.487   2.086   2.402  0.4423  0.0140 -0.2077
 3862ntf    on519045   4.576   1.946   2.213  0.4511 -0.2137  0.0517
 3862ntf    on519046   4.416   1.682   2.188  0.0503 -0.3887  0.3373
 3862ntf    on519047   4.195   1.788   2.181  0.0322 -0.3087  0.0276
 3862ntf    fn419048   4.359   1.609   2.465 -0.0417  0.0919  0.0379
 3862ntf    fn419049   4.161   1.708   2.457 -0.0732 -0.4205  0.2747
 3862ntf    fn419050   4.201   1.546   2.327  0.0452  0.0797 -0.0627
 3863ntf    cn119051   0.187   0.833   4.838  0.1083  0.3426 -0.3550
 3863ntf    sn219052   0.150   0.888   5.007  0.2499  0.0369 -0.2249
 3863ntf    nn319053   0.054   0.777   5.062 -0.6321  0.9297  0.0781
 3863ntf    sn219054  -0.082   0.734   4.996 -0.3304 -0.1098  0.1150
 3863ntf    cn119055  -0.186   0.812   5.123 -0.5981  0.5242 -0.4905
 3863ntf    fn419056   0.089   0.850   4.750 -0.7705 -0.4052  0.4532
 3863ntf    fn419057   0.295   0.889   4.784  0.3772 -0.2359 -0.4171
 3863ntf    fn419058   0.212   0.703   4.836  0.2270  0.3520  0.3196
 3863ntf    on519059   0.279   0.899   5.071  0.1066  0.9255 -0.0685
 3863ntf    on519060   0.081   1.014   4.992 -0.2546 -0.2581 -0.4028
 3863ntf    on519061  -0.104   0.592   5.004 -0.1167 -0.1391  0.2101
 3863ntf    on519062  -0.132   0.800   4.879 -0.2728  0.0142  0.1596
 3863ntf    fn419063  -0.179   0.944   5.128  0.5019  0.4383  1.0695
 3863ntf    fn419064  -0.315   0.790   5.104 -0.6848  0.3640  0.2558
 3863ntf    fn419065  -0.163   0.763   5.244 -0.2367 -0.1010 -0.8072
 3864ntf    cn119066   0.068   5.904   6.369  0.0823  0.1564  0.0059
 3864ntf    sn219067   0.122   5.873   6.199  0.2143 -0.3568  0.1373
 3864ntf    nn319068  -0.001   5.930   6.120  0.3198 -0.8320 -0.3772
 3864ntf    sn219069  -0.070   5.890   5.984 -0.2598 -0.0778 -0.3157
 3864ntf    cn119070  -0.176   5.750   6.031 -0.1712 -0.1151 -0.2244
 3864ntf    fn419071   0.157   5.858   6.456  0.6105  0.6067 -0.2960
 3864ntf    fn419072   0.055   6.031   6.403  0.4697  0.2901 -0.3403
 3864ntf    fn419073  -0.042   5.836   6.399  0.1977  0.0704  0.2342
 3864ntf    on519074   0.248   5.942   6.186  0.3830 -0.5773  0.5884
 3864ntf    on519075   0.125   5.730   6.185  0.3278 -0.3211 -0.2137
 3864ntf    on519076   0.009   5.824   5.883  0.0853 -0.3048  0.0952
 3864ntf    on519077  -0.164   5.991   5.945  0.0233  0.1179 -0.4939
 3864ntf    fn419078  -0.211   5.678   5.926 -0.2366 -0.4162  0.0028
 3864ntf    fn419079  -0.114   5.661   6.105 -0.2888  0.0930  0.1297
 3864ntf    fn419080  -0.283   5.798   6.093 -0.0525  0.2204 -0.2724
 3865ntf    cn119081   4.712   3.632   1.064 -0.1238 -0.1315  0.1212
 3865ntf    sn219082   4.571   3.555   1.149 -0.4671  0.2653 -0.0830
 3865ntf    nn319083   4.584   3.409   1.094 -0.3721  0.2290  0.0365
 3865ntf    sn219084   4.491   3.339   0.989 -0.0670  0.1414 -0.1790
 3865ntf    cn119085   4.529   3.423   0.832  0.2152  0.3327 -0.0093
 3865ntf    fn419086   4.827   3.593   1.114 -0.1038  0.1482  0.2963
 3865ntf    fn419087   4.709   3.615   0.933 -0.4959 -0.1505  0.1294
 3865ntf    fn419088   4.695   3.761   1.088  0.1172 -0.1983  0.6556
 3865ntf    on519089   4.614   3.570   1.286  0.5216  0.2990 -0.3919
 3865ntf    on519090   4.462   3.640   1.107 -0.6159  0.2125  0.1938
 3865ntf    on519091   4.350   3.356   1.016 -0.0384 -0.2178  0.2016
 3865ntf    on519092   4.532   3.203   0.965  0.3644  0.1896  0.2672
 3865ntf    fn419093   4.655   3.440   0.798  0.1399  0.7720 -0.0717
 3865ntf    fn419094   4.475   3.358   0.730  0.5434 -0.6500  0.4291
 3865ntf    fn419095   4.465   3.539   0.829  0.4445  0.4636  0.1549
 3866ntf    cn119096   5.351   3.859   0.321  0.3557  0.0031  0.0598
 3866ntf    sn219097   5.502   3.941   0.263  0.2612 -0.1517 -0.4070
 3866ntf    nn319098   5.511   3.927   0.107  0.3401  0.1376 -0.4278
 3866ntf    sn219099   5.422   3.994  -0.004 -0.2340 -0.3764 -0.2801
 3866ntf    cn119100   5.497   4.156  -0.039  0.0624 -0.3687  0.3702
 3866ntf    fn419101   5.348   3.731   0.289 -0.5499 -0.0206  0.2067
 3866ntf    fn419102   5.324   3.873   0.450 -0.1227 -0.3609  0.0026
 3866ntf    fn419103   5.245   3.914   0.265  0.4394 -0.2017 -0.3021
 3866ntf    on519104   5.495   4.079   0.301 -0.1031 -0.2294 -0.1918
 3866ntf    on519105   5.608   3.870   0.332  0.2018  0.0497 -0.1067
 3866ntf    on519106   5.288   4.031   0.036 -0.1832 -0.4016 -0.0855
 3866ntf    on519107   5.427   3.935  -0.136  0.0613 -0.3707 -0.2727
 3866ntf    fn419108   5.431   4.249   0.028  0.3811  0.0812  0.0626
 3866ntf    fn419109   5.623   4.158  -0.001  0.0831 -0.0814  0.2892
 3866ntf    fn419110   5.505   4.196  -0.165  0.2711 -0.2198  0.4310
 3867ntf    cn119111   2.089   7.253   6.832 -0.1276  0.0232 -0.4848
 3867ntf    sn219112   2.068   7.263   7.013  0.1279 -0.1647 -0.4436
 3867ntf    nn319113   2.216   7.298   7.050 -0.0541  0.2930 -0.1453
 3867ntf    sn219114   2.264   7.339   7.194 -0.2358  0.1345 -0.0400
 3867ntf    cn119115   2.231   7.518   7.198 -0.3564  0.1083  0.1353
 3867ntf    fn419116   1.972   7.264   6.772  0.0360  0.3881 -0.7391
 3867ntf    fn419117   2.158   7.359   6.793  0.1489  0.5456  1.3164
 3867ntf    fn419118   2.156   7.150   6.783 -0.4133 -0.3639 -0.0636
 3867ntf    on519119   1.983   7.378   7.029 -0.2501 -0.4749 -0.1893
 3867ntf    on519120   2.029   7.128   7.047 -0.0363  0.0155  0.0773
 3867ntf    on519121   2.407   7.322   7.201 -0.1733  0.5493 -0.2807
 3867ntf    on519122   2.187   7.283   7.302 -0.1248  0.1895  0.0684
 3867ntf    fn419123   2.309   7.591   7.120 -0.2617 -0.0636  0.0668
 3867ntf    fn419124   2.103   7.538   7.172 -0.3207  0.0494 -0.0799
 3867ntf    fn419125   2.247   7.567   7.320  0.4282 -0.3093  0.2082
 3868ntf    cn119126   5.232   0.709   0.555  0.1419  0.3855  0.0667
 3868ntf    sn219127   5.155   0.765   0.710  0.1642  0.4224  0.0643
 3868ntf    nn319128   5.277   0.771   0.809  0.0842 -1.0492  0.2741
 3868ntf    sn219129   5.283   0.788   0.965  0.3518 -0.3639  0.1937
 3868ntf    cn119130   5.309   0.967   0.981  0.0635 -0.2574 -0.5008
 3868ntf    fn419131   5.296   0.595   0.579 -0.6570 -0.0703  0.0586
 3868ntf    fn419132   5.138   0.679   0.467  0.3275 -0.2355  0.0788
 3868ntf    fn419133   5.321   0.798   0.514  0.4936 -0.3242 -0.7238
 3868ntf    on519134   5.092   0.889   0.672 -0.2061  0.3228  0.3558
 3868ntf    on519135   5.066   0.654   0.731  0.6068  0.0953  0.2249
 3868ntf    on519136   5.409   0.747   1.021  0.3688  0.1288  0.5199
 3868ntf    on519137   5.165   0.746   1.038  0.1595  0.0911  0.1471
 3868ntf    fn419138   5.425   1.018   0.942  0.2839 -0.0091  0.4419
 3868ntf    fn419139   5.223   1.042   0.914  0.0689  0.1676 -0.0387
 3868ntf    fn419140   5.293   1.007   1.106 -0.0546 -0.6434 -0.3938
 3869ntf    cn119141   1.097   6.331   1.161 -0.1091 -0.3770  0.2985
 3869ntf    sn219142   1.225   6.454   1.202 -0.1913 -0.1796 -0.0339
 3869ntf    nn319143   1.137   6.575   1.249 -0.1857 -0.3030  0.3027
 3869ntf    sn219144   1.091   6.624   1.391  0.0499 -0.2824  0.3736
 3869ntf    cn119145   1.210   6.751   1.441 -0.1686  0.0194  0.1295
 3869ntf    fn419146   0.993   6.381   1.098  0.3674  0.0350 -0.1646
 3869ntf    fn419147   1.145   6.248   1.071 -0.6302 -0.1973 -0.1473
 3869ntf    fn419148   1.056   6.257   1.263  0.4817 -0.4311  0.5045
 3869ntf    on519149   1.313   6.394   1.300  0.0520  0.1528 -0.0506
 3869ntf    on519150   1.280   6.469   1.070  0.8565 -0.6582  0.3356
 3869ntf    on519151   1.107   6.526   1.496  0.9505 -0.6151 -0.0615
 3869ntf    on519152   0.964   6.693   1.387  0.3348  0.2101 -0.5289
 3869ntf    fn419153   1.336   6.711   1.433  0.1345  0.9903 -0.2116
 3869ntf    fn419154   1.195   6.855   1.361 -0.3046  0.1198  0.2846
 3869ntf    fn419155   1.195   6.794   1.565 -0.3097 -0.1361  0.1653
 3870ntf    cn119156   4.758   5.923   2.483  0.1509  0.2288  0.4584
 3870ntf    sn219157   4.931   5.875   2.454 -0.0936 -0.2914 -0.1715
 3870ntf    nn319158   4.990   5.947   2.581  0.2626 -0.4917 -0.2234
 3870ntf    sn219159   5.142   5.941   2.620  0.2543  0.2296 -0.0666
 3870ntf    cn119160   5.118   5.827   2.761 -0.7651  0.9564  0.3613
 3870ntf    fn419161   4.683   5.855   2.397  0.4586  0.4645  0.0056
 3870ntf    fn419162   4.731   5.891   2.609  0.0141  0.2551  0.4362
 3870ntf    fn419163   4.740   6.052   2.463  0.5237  0.2389  0.1740
 3870ntf    on519164   4.922   5.732   2.468  0.2628 -0.2641  0.3832
 3870ntf    on519165   4.977   5.930   2.329  0.3970 -0.2421  0.0321
 3870ntf    on519166   5.194   6.058   2.686 -0.1658  0.4552 -0.1318
 3870ntf    on519167   5.231   5.862   2.539  0.5154 -0.0054  0.4411
 3870ntf    fn419168   5.114   5.700   2.724 -0.0653  1.1293 -0.3609
 3870ntf    fn419169   5.216   5.842   2.849  0.2214  0.2308 -0.5738
 3870ntf    fn419170   5.003   5.840   2.823 -1.2438 -0.4475 -0.1971
 3871ntf    cn119171   7.321   5.942   4.809  0.0740 -0.2059  0.2768
 3871ntf    sn219172   7.218   5.859   4.685  0.1017  0.4158 -0.1707
 3871ntf    nn319173   7.082   5.928   4.725 -0.1150 -0.0947 -0.0144
 3871ntf    sn219174   6.939   5.870   4.754 -0.1940  0.0040 -0.2020
 3871ntf    cn119175   6.941   5.776   4.909  0.3714 -0.1455 -0.2985
 3871ntf    fn419176   7.275   5.949   4.933 -0.0895  0.2061  0.1958
 3871ntf    fn419177   7.444   5.894   4.802  0.1846  0.1517 -0.4118
 3871ntf    fn419178   7.322   6.072   4.785 -0.0554 -0.2436  0.0670
 3871ntf    on519179   7.280   5.897   4.561  0.0989 -0.5376 -0.4784
 3871ntf    on519180   7.238   5.723   4.729 -0.0016  0.5291  0.2335
 3871ntf    on519181   6.918   5.773   4.650  0.5422 -0.3641 -0.0165
 3871ntf    on519182   6.834   5.967   4.773  0.3313  0.4640  0.4307
 3871ntf    fn419183   6.830   5.705   4.910  0.1154  0.2608  0.1977
 3871ntf    fn419184   7.034   5.682   4.921  0.4522  0.0235  0.4445
 3871ntf    fn419185   6.948   5.853   5.017  0.6067 -0.4368 -0.1022
 3872ntf    cn119186   5.632   2.478   0.601 -0.0069  0.1418  0.3797
 3872ntf    sn219187   5.736   2.379   0.712  0.2193 -0.0383  0.0091
 3872ntf    nn319188   5.719   2.458   0.847 -0.0395  0.1087 -0.1102
 3872ntf    sn219189   5.835   2.517   0.934  0.0525 -0.1785 -0.0366
 3872ntf    cn119190   5.759   2.508   1.099  0.1535 -0.3489  0.0013
 3872ntf    fn419191   5.659   2.460   0.473 -0.5073 -0.0695  0.3011
 3872ntf    fn419192   5.503   2.450   0.600 -0.0400  0.3111 -0.2390
 3872ntf    fn419193   5.649   2.608   0.613 -0.1110  0.1673  0.2503
 3872ntf    on519194   5.687   2.243   0.719 -0.5725  0.2594  0.3702
 3872ntf    on519195   5.862   2.399   0.645  0.2563  0.4575  0.2245
 3872ntf    on519196   5.858   2.656   0.904 -0.3910 -0.2718 -0.8324
 3872ntf    on519197   5.946   2.426   0.951  0.2244  0.0012 -0.1953
 3872ntf    fn419198   5.638   2.561   1.112  0.1763 -0.2420 -0.2223
 3872ntf    fn419199   5.746   2.381   1.133  0.8169 -0.3339  0.3500
 3872ntf    fn419200   5.830   2.559   1.199 -1.0716  0.1344  0.6440
 3873ntf    cn119201   4.248   0.361   4.740  0.0016 -0.5819  0.1454
 3873ntf    sn219202   4.075   0.400   4.781  0.0048 -0.2013 -0.2004
 3873ntf    nn319203   4.087   0.402   4.937 -0.2618 -0.3525 -0.1765
 3873ntf    sn219204   4.039   0.517   5.032 -0.1276 -0.2452 -0.2380
 3873ntf    cn119205   4.183   0.627   5.015  0.0461 -0.4042  0.1823
 3873ntf    fn419206   4.274   0.232   4.747 -0.1850 -0.6319 -0.0753
 3873ntf    fn419207   4.286   0.408   4.622 -0.7495  0.4407  0.2915
 3873ntf    fn419208   4.327   0.419   4.829 -0.2459 -0.2211  0.1367
 3873ntf    on519209   4.051   0.526   4.715 -0.0744  0.0745  0.3532
 3873ntf    on519210   4.004   0.286   4.727 -0.1616 -0.4485  0.5342
 3873ntf    on519211   4.030   0.483   5.172 -0.2985 -0.0804 -0.2081
 3873ntf    on519212   3.942   0.612   4.982  0.0596  0.1814  0.1942
 3873ntf    fn419213   4.191   0.721   5.108  0.2271 -0.0938 -0.1453
 3873ntf    fn419214   4.296   0.561   5.034 -0.2168 -0.9568 -0.1395
 3873ntf    fn419215   4.191   0.679   4.894 -0.4174  0.0492  0.3412
 3874ntf    cn119216   2.461   5.632   7.258 -0.2545 -0.5844  0.0178
 3874ntf    sn219217   2.290   5.604   7.205 -0.3474 -0.3151  0.1760
 3874ntf    nn319218   2.317   5.520   7.075 -0.1107  0.2576 -0.1497
 3874ntf    sn219219   2.236   5.509   6.941  0.0162  0.1128 -0.2157
 3874ntf    cn119220   2.064   5.519   7.000 -0.0417  0.2365 -0.4059
 3874ntf    fn419221   2.534   5.700   7.170 -0.5598 -0.3518 -0.0552
 3874ntf    fn419222   2.467   5.704   7.368  0.3862  0.3555 -0.6103
 3874ntf    fn419223   2.538   5.527   7.280  0.5244 -0.1089 -0.3872
 3874ntf    on519224   2.242   5.529   7.318  0.6652 -0.1881  0.7034
 3874ntf    on519225   2.242   5.740   7.189 -0.3256 -0.3405 -0.1211
 3874ntf    on519226   2.238   5.375   6.887  0.0834 -0.1173  0.3416
 3874ntf    on519227   2.238   5.624   6.854  0.3362  0.5350  0.3423
 3874ntf    fn419228   2.016   5.641   7.020 -0.2037  0.1118 -0.0252
 3874ntf    fn419229   1.983   5.453   6.919 -0.1291 -0.1074 -0.0416
 3874ntf    fn419230   2.050   5.464   7.119 -0.1892 -0.0563 -0.5584
 3875ntf    cn119231   6.733   2.781   4.681  0.2631  0.2997 -0.3474
 3875ntf    sn219232   6.834   2.893   4.783 -0.1355  0.1992  0.1607
 3875ntf    nn319233   6.724   2.975   4.860  0.0267  0.0236  0.5840
 3875ntf    sn219234   6.661   3.114   4.824  0.5786  0.1050 -0.0976
 3875ntf    cn119235   6.749   3.226   4.936 -0.1284 -0.0168  0.5907
 3875ntf    fn419236   6.633   2.848   4.625 -0.0819 -0.0504 -0.1540
 3875ntf    fn419237   6.798   2.712   4.589 -0.5085 -0.2957 -0.4649
 3875ntf    fn419238   6.678   2.688   4.757  0.6427  0.9871  0.7863
 3875ntf    on519239   6.900   2.799   4.870  0.1909  0.6221  0.3706
 3875ntf    on519240   6.916   2.961   4.686 -0.0185 -0.1144  0.0394
 3875ntf    on519241   6.523   3.121   4.865  0.5865 -0.6867  0.0752
 3875ntf    on519242   6.688   3.174   4.695  0.7063  0.0376 -0.1020
 3875ntf    fn419243   6.711   3.191   5.058 -0.4679 -0.2418  0.4202
 3875ntf    fn419244   6.881   3.226   4.932 -0.1394  0.3068  0.1672
 3875ntf    fn419245   6.708   3.350   4.914  0.1887 -0.0500 -0.2292
 3876ntf    cn119246   2.147   5.888   1.173  0.6484 -0.0780 -0.0162
 3876ntf    sn219247   2.141   5.888   0.991  0.2664  0.0592 -0.0053
 3876ntf    nn319248   2.143   5.733   0.963 -0.5096 -0.0314  0.4042
 3876ntf    sn219249   2.274   5.649   0.941 -0.3136  0.3850 -0.0492
 3876ntf    cn119250   2.276   5.670   0.761  0.1378  0.1572 -0.0730
 3876ntf    fn419251   2.107   6.006   1.217 -0.0015 -0.1483 -0.4132
 3876ntf    fn419252   2.063   5.801   1.226  0.0433  0.5782  0.1308
 3876ntf    fn419253   2.269   5.861   1.215  0.8535  0.4694 -0.2420
 3876ntf    on519254   2.015   5.956   0.976  0.4311  0.3479 -0.0820
 3876ntf    on519255   2.262   5.961   0.962  0.0806  0.5080  0.3329
 3876ntf    on519256   2.248   5.509   0.960  0.0164  0.3664  0.2753
 3876ntf    on519257   2.402   5.696   0.989 -0.1468 -0.7498  0.6474
 3876ntf    fn419258   2.170   5.606   0.714  0.0626  0.2320 -0.0046
 3876ntf    fn419259   2.257   5.793   0.717 -0.7640  0.1113  0.1541
 3876ntf    fn419260   2.385   5.612   0.714 -0.2539  0.2765 -1.1610
 3877ntf    cn119261   0.479   2.750   3.898  0.4875  0.0121 -0.0411
 3877ntf    sn219262   0.573   2.674   4.033  0.2002  0.1094  0.2145
 3877ntf    nn319263   0.704   2.649   3.951  0.2823  0.2941  0.2877
 3877ntf    sn219264   0.839   2.591   4.006  0.2218  0.0671  0.1987
 3877ntf    cn119265   0.823   2.414   3.967  0.3665  0.2210 -0.5676
 3877ntf    fn419266   0.349   2.772   3.910  0.4361 -0.2818 -0.0637
 3877ntf    fn419267   0.532   2.869   3.874  0.0790  0.2125  0.0464
 3877ntf    fn419268   0.483   2.681   3.786  0.3898 -0.4722  0.2519
 3877ntf    on519269   0.589   2.777   4.133 -0.8575 -0.0669  0.5814
 3877ntf    on519270   0.498   2.556   4.069 -0.1908  0.3086  0.0573
 3877ntf    on519271   0.867   2.594   4.148  0.4048 -0.5731  0.1809
 3877ntf    on519272   0.942   2.631   3.914 -0.7170  0.3454 -0.7517
 3877ntf    fn419273   0.916   2.331   4.010  0.4709  0.4979 -0.2510
 3877ntf    fn419274   0.707   2.374   4.016  0.5968 -0.2508 -0.4007
 3877ntf    fn419275   0.821   2.393   3.836 -0.1249 -0.6646 -0.4257
 3878ntf    cn119276   0.464   4.973   1.449 -0.0558 -0.4362  0.0960
 3878ntf    sn219277   0.516   5.054   1.604 -0.1955  0.4461 -0.3120
 3878ntf    nn319278   0.512   5.204   1.559  0.2644  0.4926 -0.2078
 3878ntf    sn219279   0.382   5.291   1.578  0.2349  0.4827 -0.3626
 3878ntf    cn119280   0.423   5.399   1.718  0.2855 -0.0278  0.0223
 3878ntf    fn419281   0.340   5.002   1.415 -0.1135 -0.1770  0.5182
 3878ntf    fn419282   0.545   5.004   1.349 -0.2555  0.2139  0.1308
 3878ntf    fn419283   0.474   4.842   1.460  0.1401 -0.4404 -0.1297
 3878ntf    on519284   0.419   5.015   1.703 -0.1373  0.1506 -0.3691
 3878ntf    on519285   0.655   5.017   1.617 -0.1162  0.9972  0.4268
 3878ntf    on519286   0.263   5.232   1.635  0.4391 -0.1594 -0.5957
 3878ntf    on519287   0.361   5.372   1.461  0.3352  0.0073 -0.7136
 3878ntf    fn419288   0.331   5.494   1.735 -0.2826 -0.5384 -0.1554
 3878ntf    fn419289   0.434   5.333   1.832  0.0089  0.2386  0.2052
 3878ntf    fn419290   0.537   5.464   1.701  0.0528  0.3399 -0.1779
 3879ntf    cn119291   2.165   4.704   2.920  0.4269 -0.3204  0.5049
 3879ntf    sn219292   2.324   4.788   2.942  0.1396  0.3456  0.0747
 3879ntf    nn319293   2.265   4.932   2.920  0.0419  0.2824 -0.0753
 3879ntf    sn219294   2.214   5.031   3.031 -0.4606  0.0738 -0.1159
 3879ntf    cn119295   2.072   5.082   2.929 -0.4199  0.2845 -0.0684
 3879ntf    fn419296   2.167   4.583   2.973 -0.7749 -0.5196  0.1351
 3879ntf    fn419297   2.060   4.767   2.970  0.1913 -0.3232  0.0264
 3879ntf    fn419298   2.146   4.689   2.790  0.8908 -0.1426  0.4165
 3879ntf    on519299   2.373   4.747   3.071  0.4760 -0.6300 -0.3528
 3879ntf    on519300   2.396   4.746   2.824 -0.1943  0.2434 -0.0927
 3879ntf    on519301   2.295   5.149   3.049 -0.2775 -0.1417  0.4787
 3879ntf    on519302   2.145   4.969   3.141  0.2382 -0.6884 -0.0946
 3879ntf    fn419303   2.099   5.097   2.800  0.3181  0.3180  0.0854
 3879ntf    fn419304   1.977   4.989   2.936 -0.1920  0.0591  0.0659
 3879ntf    fn419305   2.021   5.195   2.973 -0.0686  0.5101 -0.2345
 3880ntf    cn119306   0.267   7.307   2.692  0.0351  0.3649 -0.7582
 3880ntf    sn219307   0.301   7.479   2.739 -0.2124  0.1484  0.2312
 3880ntf    nn319308   0.447   7.463   2.795 -0.2905 -0.1229  0.3559
 3880ntf    sn219309   0.584   7.507   2.734 -0.3416 -0.1567  0.2169
 3880ntf    cn119310   0.598   7.676   2.798  0.1246 -0.0509 -0.1537
 3880ntf    fn419311   0.307   7.230   2.791 -0.6067  0.1180 -0.6881
 3880ntf    fn419312   0.137   7.287   2.677 -0.0970  0.5315  0.1109
 3880ntf    fn419313   0.333   7.271   2.583  0.4086  0.1516 -0.4640
 3880ntf    on519314   0.288   7.541   2.609 -0.4413 -0.4487 -0.0357
 3880ntf    on519315   0.203   7.520   2.837 -0.2090  0.2301  0.2010
 3880ntf    on519316   0.589   7.514   2.590  0.4248 -0.3075  0.2338
 3880ntf    on519317   0.695   7.437   2.794 -0.0417 -0.1787 -0.3580
 3880ntf    fn419318   0.632   7.678   2.926 -0.3421  0.2447 -0.0303
 3880ntf    fn419319   0.696   7.742   2.738  0.1540  0.3003  0.2681
 3880ntf    fn419320   0.493   7.755   2.781 -0.1119 -0.5228 -0.9434
 3881ntf    cn119321   2.243   6.074   0.459  0.0989  0.1475 -0.9385
 3881ntf    sn219322   2.194   6.246   0.492  0.0857  0.0507 -0.4413
 3881ntf    nn319323   2.054   6.230   0.424 -0.1319  0.1741 -0.0230
 3881ntf    sn219324   1.980   6.318   0.316 -0.1956  0.2013  0.0427
 3881ntf    cn119325   1.836   6.352   0.422 -0.3400 -0.0450 -0.0751
 3881ntf    fn419326   2.368   6.061   0.500 -0.4009 -0.5454  0.4282
 3881ntf    fn419327   2.169   5.988   0.527  0.0303  0.2118 -0.9314
 3881ntf    fn419328   2.232   6.041   0.331 -0.5512 -0.5392 -0.7146
 3881ntf    on519329   2.192   6.245   0.636 -0.1882 -0.3526 -0.4487
 3881ntf    on519330   2.297   6.322   0.424 -0.5440  0.8655 -0.5045
 3881ntf    on519331   1.917   6.241   0.212 -0.0479  0.1284  0.0072
 3881ntf    on519332   2.042   6.442   0.275  0.0246  0.1779  0.2985
 3881ntf    fn419333   1.755   6.441   0.367  0.7054  0.6014 -0.6175
 3881ntf    fn419334   1.767   6.240   0.437 -0.0294 -0.2745 -0.3189
 3881ntf    fn419335   1.875   6.400   0.538 -0.2985 -0.1730 -0.0361
 3882ntf    cn119336   2.285   1.921   3.413  0.3347  0.0402 -0.1211
 3882ntf    sn219337   2.119   1.855   3.447  0.2288  0.3471 -0.0368
 3882ntf    nn319338   2.047   1.994   3.447  0.3214  0.3954  0.2342
 3882ntf    sn219339   1.988   2.071   3.323  0.0603 -0.2279 -0.0296
 3882ntf    cn119340   1.820   2.000   3.323 -0.0746  0.0922  0.0616
 3882ntf    fn419341   2.293   1.966   3.289  0.3395 -0.1371 -0.1853
 3882ntf    fn419342   2.306   2.022   3.496  0.4849  0.4459 -0.6556
 3882ntf    fn419343   2.377   1.829   3.437 -0.0770 -0.4749 -0.4729
 3882ntf    on519344   2.091   1.769   3.335 -0.4555 -0.4972  0.7617
 3882ntf    on519345   2.121   1.799   3.580  0.8217 -0.3607 -0.3339
 3882ntf    on519346   2.043   2.034   3.195  0.0692  0.0378 -0.1022
 3882ntf    on519347   1.968   2.211   3.346  0.3704 -0.2231  0.2190
 3882ntf    fn419348   1.727   2.084   3.281 -0.7797 -0.3274  0.7664
 3882ntf    fn419349   1.820   1.905   3.232  0.2220  0.4931 -0.3631
 3882ntf    fn419350   1.786   1.941   3.437 -0.5589  0.7415  0.2615
 3883ntf    cn119351   0.810   4.059   2.104 -0.0083 -0.0094  0.0557
 3883ntf    sn219352   0.829   3.930   2.231  0.0173  0.1255  0.1893
 3883ntf    nn319353   0.966   3.866   2.186 -0.0050  0.2517 -0.0569
 3883ntf    sn219354   1.104   3.901   2.252  0.1617 -0.0772 -0.2331
 3883ntf    cn119355   1.079   3.816   2.411  0.0305  0.1378 -0.1394
 3883ntf    fn419356   0.729   4.159   2.136 -0.1651 -0.2949  0.5703
 3883ntf    fn419357   0.930   4.105   2.074 -0.0524  0.0318 -0.0539
 3883ntf    fn419358   0.769   4.001   1.993  1.0446 -0.4657 -0.1013
 3883ntf    on519359   0.821   4.005   2.354  0.2010  0.5594 -0.0597
 3883ntf    on519360   0.724   3.836   2.205  0.1458  0.2219 -0.7071
 3883ntf    on519361   1.130   4.036   2.293 -0.2786 -0.1779  0.3798
 3883ntf    on519362   1.212   3.833   2.184 -0.0301 -0.7640  0.1420
 3883ntf    fn419363   1.177   3.831   2.498  0.3289 -0.1376 -0.4243
 3883ntf    fn419364   0.973   3.851   2.481  0.2643  0.6410 -0.0328
 3883ntf    fn419365   1.070   3.685   2.399  0.2729  0.0521  0.6184
 3884ntf    cn119366   6.659   0.490   3.261 -0.0427 -0.0981 -0.0896
 3884ntf    sn219367   6.490   0.425   3.249 -0.0008 -0.2549  0.1670
 3884ntf    nn319368   6.499   0.285   3.319  0.4300 -0.6516 -0.6670
 3884ntf    sn219369   6.380   0.198   3.374  0.0415  0.3137  0.0527
 3884ntf    cn119370   6.448   0.030   3.359  0.4040  0.4623  0.0267
 3884ntf    fn419371   6.744   0.419   3.189 -0.2909 -0.0519 -0.4258
 3884ntf    fn419372   6.681   0.616   3.226  0.0029 -0.2319 -0.5422
 3884ntf    fn419373   6.702   0.483   3.386 -0.0953  0.5081 -0.0352
 3884ntf    on519374   6.427   0.532   3.323  0.4648  0.0329  0.1528
 3884ntf    on519375   6.479   0.423   3.106 -0.0281 -1.1304  0.1724
 3884ntf    on519376   6.268   0.186   3.283  0.1061 -0.6846  0.0881
 3884ntf    on519377   6.366   0.226   3.515  0.3912 -0.5806  0.2738
 3884ntf    fn419378   6.357  -0.051   3.412  0.7692  0.0182 -0.0169
 3884ntf    fn419379   6.473  -0.018   3.238 -0.3682  0.5770 -0.1878
 3884ntf    fn419380   6.561   0.018   3.427  0.1230  0.1502  0.4447
 3885ntf    cn119381   3.739   1.956   1.996 -0.2085  0.3482  0.3504
 3885ntf    sn219382   3.684   2.129   1.997 -0.4763  0.2667 -0.0842
 3885ntf    nn319383   3.822   2.199   1.970 -0.4410  0.2158 -0.0322
 3885ntf    sn219384   3.886   2.248   1.836  0.0995  0.1002  0.1784
 3885ntf    cn119385   3.905   2.428   1.859  0.5261  0.0667  0.1051
 3885ntf    fn419386   3.628   1.886   2.010 -0.5566  0.8171 -0.0284
 3885ntf    fn419387   3.803   1.920   1.886  0.5203  0.8580  0.5997
 3885ntf    fn419388   3.823   1.933   2.095 -0.0392  0.3000  0.1965
 3885ntf    on519389   3.587   2.132   1.891 -0.3804  0.0771 -0.1785
 3885ntf    on519390   3.629   2.150   2.128  0.0125 -0.0886  0.1818
 3885ntf    on519391   3.802   2.241   1.719  0.3595 -0.8148  0.0431
 3885ntf    on519392   4.020   2.196   1.831  0.2215  0.3595  0.7043
 3885ntf    fn419393   3.787   2.476   1.894  0.3835  0.0456 -0.3305
 3885ntf    fn419394   3.986   2.471   1.954 -0.2560  0.3007  0.6733
 3885ntf    fn419395   3.942   2.486   1.746  0.1961 -0.4007 -0.2510
 3886ntf    cn119396   2.285   3.087   2.459 -0.1643 -0.1476  0.0861
 3886ntf    sn219397   2.458   3.130   2.426 -0.2422 -0.1032 -0.2631
 3886ntf    nn319398   2.539   3.007   2.482 -0.3329 -0.3011 -0.5619
 3886ntf    sn219399   2.670   2.940   2.429 -0.0620 -0.3804  0.1981
 3886ntf    cn119400   2.612   2.767   2.436 -0.0174 -0.4064 -0.0775
 3886ntf    fn419401   2.250   3.067   2.585  0.2128 -0.1628  0.1896
 3886ntf    fn419402   2.206   3.189   2.432  0.0632  0.1800  0.6419
 3886ntf    fn419403   2.237   2.984   2.391 -0.0042 -0.2347  0.1048
 3886ntf    on519404   2.460   3.127   2.282 -0.0125 -0.0783 -0.2615
 3886ntf    on519405   2.471   3.254   2.499  0.5984 -0.0948 -0.4138
 3886ntf    on519406   2.774   2.942   2.529 -0.1603 -0.0294  0.2930
 3886ntf    on519407   2.708   2.948   2.291 -0.6001 -0.4640  0.0416
 3886ntf    fn419408   2.716   2.685   2.431 -0.1540 -0.5942  0.1363
 3886ntf    fn419409   2.556   2.735   2.551  0.1154  0.0180  0.1097
 3886ntf    fn419410   2.535   2.733   2.334 -0.1459 -0.7062  0.1188
 3887ntf    cn119411   5.016   5.488   7.137 -0.0113  0.7810 -0.4305
 3887ntf    sn219412   5.194   5.449   7.146 -0.1596  0.1758 -0.1026
 3887ntf    nn319413   5.188   5.323   7.239 -0.1039  0.0996 -0.2018
 3887ntf    sn219414   5.157   5.180   7.183 -0.0067 -0.0845  0.2108
 3887ntf    cn119415   5.322   5.103   7.176 -0.0637 -0.2051  0.1831
 3887ntf    fn419416   4.939   5.391   7.091 -0.1172  0.9389 -0.5869
 3887ntf    fn419417   4.962   5.508   7.256  0.3395  0.2671 -0.1813
 3887ntf    fn419418   4.981   5.593   7.064 -0.2987  0.6588 -0.4690
 3887ntf    on519419   5.229   5.434   7.007 -0.2873 -0.4795 -0.0648
 3887ntf    on519420   5.244   5.566   7.214 -1.0659  0.1735  0.5901
 3887ntf    on519421   5.093   5.165   7.055  0.2660  0.0544  0.0591
 3887ntf    on519422   5.085   5.107   7.285 -0.4125  0.1603  0.1015
 3887ntf    fn419423   5.321   4.972   7.158  0.9678 -0.2390  0.2852
 3887ntf    fn419424   5.394   5.156   7.078 -0.0822  0.0714  0.3159
 3887ntf    fn419425   5.398   5.125   7.282 -0.0399 -0.1099  0.1473
 3888ntf    cn119426   1.221   2.766   2.836 -0.0410  0.1663 -0.1419
 3888ntf    sn219427   1.236   2.588   2.804 -0.2372  0.1065  0.0970
 3888ntf    nn319428   1.387   2.558   2.834 -0.2820 -0.1170  0.1045
 3888ntf    sn219429   1.498   2.541   2.724 -0.2546  0.5403  0.0242
 3888ntf    cn119430   1.472   2.371   2.663  0.1521  0.3572  0.3550
 3888ntf    fn419431   1.230   2.799   2.964 -0.3723 -0.0067 -0.0732
 3888ntf    fn419432   1.311   2.838   2.771  0.0147  0.2188 -0.0055
 3888ntf    fn419433   1.109   2.817   2.787 -0.2392  0.0432  0.1774
 3888ntf    on519434   1.152   2.530   2.907  0.2499 -0.2812  0.2806
 3888ntf    on519435   1.199   2.573   2.665  0.3779  0.3396 -0.0922
 3888ntf    on519436   1.632   2.523   2.772 -0.3563 -0.6929 -0.1040
 3888ntf    on519437   1.486   2.613   2.599  0.0623 -0.2391 -0.4644
 3888ntf    fn419438   1.529   2.282   2.742  0.1042 -0.0131 -0.0220
 3888ntf    fn419439   1.347   2.334   2.643  0.2879  0.1365 -0.1144
 3888ntf    fn419440   1.530   2.365   2.544 -0.3154  0.1237  0.1355
 3889ntf    cn119441   2.315   6.865   6.839 -0.1119  0.0806  0.3149
 3889ntf    sn219442   2.185   6.740   6.820 -0.2945  0.3349 -0.1193
 3889ntf    nn319443   2.238   6.665   6.693 -0.1287  0.1140  0.0810
 3889ntf    sn219444   2.251   6.511   6.666 -0.0229  0.1728 -0.2063
 3889ntf    cn119445   2.180   6.499   6.499  0.0619  0.0065 -0.2304
 3889ntf    fn419446   2.283   6.960   6.926 -0.6892  0.3261 -0.1585
 3889ntf    fn419447   2.425   6.804   6.879 -0.3110 -0.1199  0.5559
 3889ntf    fn419448   2.346   6.919   6.722  0.2322 -0.0015  0.3654
 3889ntf    on519449   2.196   6.661   6.940 -0.8666  0.3825 -0.0314
 3889ntf    on519450   2.057   6.805   6.802 -0.3078  0.3892  0.1699
 3889ntf    on519451   2.166   6.427   6.747 -0.2250  0.7144  0.1529
 3889ntf    on519452   2.384   6.459   6.648 -0.0060  0.2358 -0.2640
 3889ntf    fn419453   2.255   6.569   6.415 -0.1520  0.3676 -0.1242
 3889ntf    fn419454   2.184   6.378   6.447  0.8549 -0.3934  0.7336
 3889ntf    fn419455   2.054   6.540   6.498  0.0506 -0.0219 -0.0598
 3890ntf    cn119456   5.000   2.061   0.260 -0.0220  0.3892 -0.2073
 3890ntf    sn219457   4.822   2.047   0.228 -0.0190 -0.0039 -0.0569
 3890ntf    nn319458   4.768   2.084   0.371 -0.3640 -0.6290 -0.0228
 3890ntf    sn219459   4.750   2.232   0.420 -0.3029 -0.6629  0.0995
 3890ntf    cn119460   4.846   2.232   0.575 -0.1276 -0.1271 -0.0097
 3890ntf    fn419461   5.056   2.173   0.217  0.7033 -0.0841 -0.5152
 3890ntf    fn419462   5.034   2.054   0.388 -0.8874 -0.1440 -0.0021
 3890ntf    fn419463   5.063   1.967   0.192 -0.2242 -0.3103  0.5601
 3890ntf    on519464   4.797   2.143   0.124  0.5191 -0.0712 -0.2508
 3890ntf    on519465   4.791   1.910   0.195 -0.6729 -0.0792  0.8399
 3890ntf    on519466   4.612   2.262   0.448 -0.2128 -0.0568 -0.1060
 3890ntf    on519467   4.825   2.325   0.340 -0.3525 -0.1931  0.5894
 3890ntf    fn419468   4.795   2.149   0.664  0.1164 -0.7026 -0.4059
 3890ntf    fn419469   4.971   2.190   0.569 -0.1353 -0.1520  0.0036
 3890ntf    fn419470   4.843   2.350   0.634 -0.9292  0.0249 -0.3342
 3891ntf    cn119471   2.329   2.873   3.439  0.0139  0.0323  0.0947
 3891ntf    sn219472   2.460   2.832   3.320 -0.0140 -0.1259  0.1183
 3891ntf    nn319473   2.392   2.864   3.182 -0.1068 -0.2710  0.1305
 3891ntf    sn219474   2.282   2.779   3.109  0.2465 -0.2004 -0.4929
 3891ntf    cn119475   2.336   2.793   2.936  0.3667  0.2966 -0.4186
 3891ntf    fn419476   2.301   3.002   3.447 -0.8175 -0.1330 -0.0753
 3891ntf    fn419477   2.211   2.816   3.419 -0.1423  0.3013  0.2424
 3891ntf    fn419478   2.367   2.839   3.561 -0.1819  0.0398  0.1587
 3891ntf    on519479   2.557   2.934   3.353  0.3117 -0.3009 -0.2877
 3891ntf    on519480   2.505   2.698   3.345 -0.3724 -0.1834  0.4707
 3891ntf    on519481   2.158   2.852   3.093  0.5039  0.3097 -0.2109
 3891ntf    on519482   2.265   2.638   3.134 -0.2030 -0.2230 -0.8943
 3891ntf    fn419483   2.293   2.691   2.864 -0.1244  0.2696 -0.0931
 3891ntf    fn419484   2.300   2.904   2.876 -0.5730  0.0134 -0.3899
 3891ntf    fn419485   2.469   2.789   2.935  0.3746  0.4739 -0.1403
 3892ntf    cn119486   0.680   1.733   5.449  0.1491 -0.3735  0.1119
 3892ntf    sn219487   0.741   1.570   5.500  0.3329 -0.3912 -0.1612
 3892ntf    nn319488   0.638   1.567   5.619  0.2350 -0.0592 -0.2385
 3892ntf    sn219489   0.568   1.445   5.687  0.1552  0.0566 -0.1117
 3892ntf    cn119490   0.657   1.461   5.844  0.3728 -0.3637 -0.1920
 3892ntf    fn419491   0.730   1.827   5.527 -0.6583  0.4198 -0.3050
 3892ntf    fn419492   0.723   1.751   5.325 -0.2021 -0.0380  0.0364
 3892ntf    fn419493   0.549   1.755   5.447  0.2060 -0.0554 -0.4595
 3892ntf    on519494   0.719   1.486   5.385 -0.3368  0.4653 -0.6696
 3892ntf    on519495   0.876   1.600   5.540  0.1412  0.2930 -0.0181
 3892ntf    on519496   0.599   1.311   5.644  0.1111  0.2113 -0.6347
 3892ntf    on519497   0.434   1.468   5.737  0.3739 -0.0096  0.5059
 3892ntf    fn419498   0.659   1.345   5.909 -0.3996 -0.1615  0.2096
 3892ntf    fn419499   0.785   1.487   5.828  0.2846 -0.2748 -0.7733
 3892ntf    fn419500   0.607   1.554   5.923 -0.1822 -0.1184 -0.8241
 3893ntf    cn119501   4.340   1.466   0.639 -0.2042 -0.0722  0.3178
 3893ntf    sn219502   4.161   1.497   0.656 -0.1614  0.3387  0.0366
 3893ntf    nn319503   4.098   1.405   0.545  0.4586  0.0976 -0.1244
 3893ntf    sn219504   4.071   1.438   0.394  0.3563 -0.1575 -0.1613
 3893ntf    cn119505   3.934   1.555   0.420  0.3068 -0.2183 -0.1441
 3893ntf    fn419506   4.371   1.342   0.674 -0.3386 -0.0835  0.3998
 3893ntf    fn419507   4.386   1.487   0.517  0.3555 -0.3452  0.4815
 3893ntf    fn419508   4.405   1.544   0.723  0.3789 -0.3007  0.0848
 3893ntf    on519509   4.133   1.451   0.790 -0.4210 -0.1923 -0.1951
 3893ntf    on519510   4.148   1.633   0.612 -0.3853  0.0109 -0.9332
 3893ntf    on519511   4.003   1.328   0.329 -0.6490  0.0260  0.5579
 3893ntf    on519512   4.179   1.498   0.319  0.2626 -0.3375 -0.4435
 3893ntf    fn419513   3.872   1.528   0.533 -0.2656 -0.5825 -0.5455
 3893ntf    fn419514   3.958   1.685   0.431 -0.9902 -0.0196  0.4897
 3893ntf    fn419515   3.841   1.553   0.326  0.6109  0.0717 -0.4554
 3894ntf    cn119516   4.963   3.275   6.548  0.1187  0.0235  0.2007
 3894ntf    sn219517   5.128   3.287   6.474  0.1147  0.1206  0.2079
 3894ntf    nn319518   5.188   3.151   6.523 -0.6450 -0.1701  0.3388
 3894ntf    sn219519   5.214   3.020   6.441 -0.0731  0.1356  0.0287
 3894ntf    cn119520   5.262   3.062   6.270 -0.0769  0.0337  0.0026
 3894ntf    fn419521   4.972   3.279   6.680 -0.1885 -0.4150  0.2366
 3894ntf    fn419522   4.892   3.380   6.508 -0.0951 -0.2478 -0.1279
 3894ntf    fn419523   4.894   3.171   6.506  0.2844  0.0700 -0.1905
 3894ntf    on519524   5.104   3.303   6.333  0.2185  0.4131  0.2206
 3894ntf    on519525   5.191   3.401   6.538 -0.1564 -0.1610  0.9841
 3894ntf    on519526   5.091   2.948   6.422  0.0646 -0.0437 -0.2016
 3894ntf    on519527   5.319   2.934   6.492 -0.0240 -0.0453 -0.3671
 3894ntf    fn419528   5.164   3.109   6.195 -0.5797 -0.1165  0.5590
 3894ntf    fn419529   5.344   3.165   6.263 -0.0590  0.0216  0.0333
 3894ntf    fn419530   5.312   2.953   6.212  0.6276  0.0012  0.6557
 3895ntf    cn119531   4.621   3.720   6.206 -0.2855 -0.2665  0.3209
 3895ntf    sn219532   4.656   3.780   6.038  0.3627 -0.1799  0.4818
 3895ntf    nn319533   4.631   3.639   5.973 -0.0178  0.4236 -0.7039
 3895ntf    sn219534   4.749   3.541   5.939 -0.1052  0.0610  0.0325
 3895ntf    cn119535   4.792   3.599   5.773  0.0425 -0.0547  0.0301
 3895ntf    fn419536   4.695   3.616   6.242  0.2141  0.0220  0.1500
 3895ntf    fn419537   4.639   3.817   6.294 -0.7787  0.2059 -0.0969
 3895ntf    fn419538   4.496   3.680   6.218 -0.4868  0.3617  0.2989
 3895ntf    on519539   4.548   3.872   6.010  0.0515 -0.4849  0.6687
 3895ntf    on519540   4.789   3.834   6.046  0.2917  0.0680 -0.0128
 3895ntf    on519541   4.693   3.409   5.924  0.0731 -0.0042 -0.0597
 3895ntf    on519542   4.883   3.540   5.992 -0.1331 -0.4317  0.1008
 3895ntf    fn419543   4.723   3.533   5.681 -0.1047  0.3674 -0.1692
 3895ntf    fn419544   4.763   3.727   5.756 -0.1803 -0.1229 -0.1048
 3895ntf    fn419545   4.920   3.575   5.748 -0.0302 -0.1584 -0.2495
 3896ntf    cn119546   3.910   0.275   7.214 -0.2849  0.0122 -0.0684
 3896ntf    sn219547   3.857   0.418   7.116  0.4683  0.2011 -0.2117
 3896ntf    nn319548   3.701   0.401   7.125  0.4546  0.3548 -0.1582
 3896ntf    sn219549   3.611   0.413   7.253  0.3475  0.0598 -0.2054
 3896ntf    cn119550   3.553   0.582   7.223  0.1182 -0.0216 -0.2231
 3896ntf    fn419551   4.029   0.227   7.179 -0.5245 -0.7103  0.0739
 3896ntf    fn419552   3.911   0.304   7.343  0.2077 -0.3807  0.0235
 3896ntf    fn419553   3.820   0.178   7.205 -0.2828 -0.0359  0.4053
 3896ntf    on519554   3.918   0.530   7.182  0.1592  0.2132  0.0545
 3896ntf    on519555   3.906   0.381   6.985  0.5755  0.3558 -0.2144
 3896ntf    on519556   3.677   0.412   7.381  0.2636 -0.4684 -0.1614
 3896ntf    on519557   3.492   0.332   7.241  0.0391  0.5070 -0.2108
 3896ntf    fn419558   3.478   0.633   7.321  0.1397  0.2015 -0.3222
 3896ntf    fn419559   3.653   0.667   7.208 -0.0989  0.3504  0.3819
 3896ntf    fn419560   3.482   0.594   7.112 -0.3223  0.0010  0.0531
 3897ntf    cn119561   6.474   1.054   1.849 -0.0890 -0.1063  0.0563
 3897ntf    sn219562   6.483   1.001   2.023  0.3858  0.2410  0.1419
 3897ntf    nn319563   6.433   1.136   2.084  0.5336  0.4545 -0.2041
 3897ntf    sn219564   6.287   1.190   2.104  0.3303 -0.0534 -0.2942
 3897ntf    cn119565   6.264   1.171   2.284  0.2728 -0.3779 -0.3350
 3897ntf    fn419566   6.495   1.185   1.842 -0.2670 -0.0660  0.2616
 3897ntf    fn419567   6.566   0.990   1.779 -0.2381 -0.0383 -0.2014
 3897ntf    fn419568   6.357   1.025   1.796 -0.0889  0.3333 -0.1899
 3897ntf    on519569   6.394   0.888   2.033 -0.1179  0.6131 -0.0731
 3897ntf    on519570   6.623   0.975   2.045  0.2640 -0.6144 -0.0559
 3897ntf    on519571   6.181   1.105   2.057  0.3830 -0.3116  0.0504
 3897ntf    on519572   6.288   1.330   2.069 -0.2062  0.0538  0.0996
 3897ntf    fn419573   6.351   1.240   2.357 -0.2516  0.6936 -0.6899
 3897ntf    fn419574   6.142   1.193   2.330  0.5612  0.0989  0.2189
 3897ntf    fn419575   6.285   1.045   2.315  0.0680 -0.3407 -0.0478
 3898ntf    cn119576   0.172   0.759   0.094 -0.2992  0.2296 -0.0752
 3898ntf    sn219577   0.102   0.927   0.098  0.0967  0.3902  0.1924
 3898ntf    nn319578   0.024   0.935  -0.038  0.3923  0.0362  0.0020
 3898ntf    sn219579  -0.086   1.036  -0.086  0.1901 -0.0482  0.2860
 3898ntf    cn119580  -0.235   0.932  -0.085  0.1629 -0.0055  0.6056
 3898ntf    fn419581   0.217   0.734   0.216 -0.0944 -0.0050 -0.1976
 3898ntf    fn419582   0.083   0.670   0.055  0.1541 -0.1495 -0.2449
 3898ntf    fn419583   0.278   0.760   0.015  0.3219  0.5283  0.7469
 3898ntf    on519584   0.028   0.930   0.222 -0.0206 -0.3200  0.1429
 3898ntf    on519585   0.222   1.007   0.103  0.1819  0.2861 -0.1584
 3898ntf    on519586  -0.079   1.066  -0.227 -0.9120 -0.5779  0.1053
 3898ntf    on519587  -0.115   1.149  -0.002 -0.3330  0.3638 -0.4344
 3898ntf    fn419588  -0.350   0.997  -0.100 -0.1452 -0.7297 -0.2300
 3898ntf    fn419589  -0.234   0.848  -0.187  0.0672  0.3182  0.3349
 3898ntf    fn419590  -0.245   0.857   0.024 -0.7890 -0.2787  0.3396
 3899ntf    cn119591   2.114   0.297   5.430  0.1380 -0.6007  0.0768
 3899ntf    sn219592   2.076   0.309   5.253 -0.1119 -0.4250  0.1423
 3899ntf    nn319593   2.222   0.309   5.196 -0.1239  0.0596  0.1100
 3899ntf    sn219594   2.297   0.207   5.104  0.0265  0.1598  0.1200
 3899ntf    cn119595   2.402   0.121   5.225 -0.0377 -0.0298  0.0421
 3899ntf    fn419596   2.209   0.377   5.474 -0.0775 -0.2603 -0.0775
 3899ntf    fn419597   2.009   0.334   5.502  0.2499  0.2260 -0.1773
 3899ntf    fn419598   2.143   0.178   5.480 -0.0569 -0.4234  0.6181
 3899ntf    on519599   1.995   0.194   5.222  0.3067 -0.7654  0.3032
 3899ntf    on519600   2.015   0.439   5.241 -0.5058 -0.5936  0.2772
 3899ntf    on519601   2.391   0.273   5.016  0.2470  0.0200  0.2515
 3899ntf    on519602   2.204   0.109   5.054 -0.2642  0.3067  0.3677
 3899ntf    fn419603   2.475   0.205   5.297 -0.2473  0.2763 -0.0951
 3899ntf    fn419604   2.330   0.055   5.314  0.2221  0.1259  0.3699
 3899ntf    fn419605   2.484   0.037   5.164 -0.0648 -0.1783  0.2115
 3900ntf    cn119606   0.481   4.496   5.021 -0.1110  0.1958 -0.5189
 3900ntf    sn219607   0.445   4.340   5.107  0.2186  0.3100 -0.1676
 3900ntf    nn319608   0.561   4.329   5.212 -0.2647 -0.7333  0.2755
 3900ntf    sn219609   0.705   4.277   5.178 -0.1533 -0.2008 -0.0850
 3900ntf    cn119610   0.694   4.102   5.227  0.0991 -0.1985 -0.0161
 3900ntf    fn419611   0.519   4.589   5.107  0.1297 -0.2286 -0.1607
 3900ntf    fn419612   0.582   4.479   4.937  0.6254 -0.3159  0.4543
 3900ntf    fn419613   0.376   4.542   4.954 -0.2041  0.8099  0.0438
 3900ntf    on519614   0.317   4.354   5.172  0.0418 -0.1288 -0.4148
 3900ntf    on519615   0.444   4.242   5.001  0.3396  0.2404 -0.1042
 3900ntf    on519616   0.792   4.341   5.274  0.4230 -0.1837 -0.6191
 3900ntf    on519617   0.739   4.283   5.039  0.0858 -0.5059 -0.0396
 3900ntf    fn419618   0.597   4.028   5.175  0.1389 -0.0790 -0.2606
 3900ntf    fn419619   0.802   4.033   5.198 -0.0713 -0.2195 -0.6259
 3900ntf    fn419620   0.679   4.095   5.358  0.5481 -0.0878  0.0426
 3901ntf    cn119621   6.009   3.400   6.519 -0.2163  0.1915 -0.2495
 3901ntf    sn219622   5.922   3.256   6.588 -0.2603  0.2056 -0.2753
 3901ntf    nn319623   5.935   3.286   6.742  0.2670  0.6910 -0.4121
 3901ntf    sn219624   6.042   3.238   6.846 -0.5054  0.2175  0.1771
 3901ntf    cn119625   5.974   3.079   6.901  0.0110 -0.1008 -0.1038
 3901ntf    fn419626   5.939   3.511   6.540 -0.2692  0.1228 -0.0544
 3901ntf    fn419627   6.128   3.408   6.575 -0.4875 -0.1294  0.3905
 3901ntf    fn419628   6.032   3.391   6.389  0.1747  0.6698 -0.2165
 3901ntf    on519629   5.789   3.275   6.535 -0.3895  0.0204 -0.0212
 3901ntf    on519630   6.000   3.150   6.528  0.5551  0.6235  0.0378
 3901ntf    on519631   6.045   3.314   6.969  0.3433 -0.1837  0.4081
 3901ntf    on519632   6.168   3.201   6.787 -0.8666 -0.4170 -0.1969
 3901ntf    fn419633   6.061   3.000   6.962  0.3441  0.6814  0.4496
 3901ntf    fn419634   5.858   3.075   6.964  0.3686  0.1273  0.5767
 3901ntf    fn419635   5.947   3.006   6.794  0.3410  0.0744 -0.3109
 3902ntf    cn119636   6.030   0.386   0.650  0.0595 -0.1544 -0.3214
 3902ntf    sn219637   5.979   0.217   0.692 -0.1869 -0.0156 -0.0504
 3902ntf    nn319638   5.835   0.226   0.631 -0.1631 -0.5488 -0.1927
 3902ntf    sn219639   5.697   0.263   0.695  0.3438  0.2549  0.4596
 3902ntf    cn119640   5.653   0.416   0.608 -0.4394 -0.1084  0.2064
 3902ntf    fn419641   5.951   0.476   0.707 -0.1148 -0.5210  0.0222
 3902ntf    fn419642   6.155   0.416   0.679  0.1500  0.1696 -1.0338
 3902ntf    fn419643   6.016   0.390   0.519 -0.1564 -0.6378 -0.3148
 3902ntf    on519644   6.070   0.135   0.616 -0.5417  0.1452 -0.6521
 3902ntf    on519645   5.982   0.209   0.836 -0.6980 -0.0626 -0.0405
 3902ntf    on519646   5.691   0.312   0.831  0.4129  0.6581  0.3176
 3902ntf    on519647   5.587   0.178   0.654  0.4173 -0.1005  0.9929
 3902ntf    fn419648   5.640   0.403   0.477 -0.1346 -0.0719  0.1722
 3902ntf    fn419649   5.545   0.473   0.659 -0.2568  0.0347  0.4338
 3902ntf    fn419650   5.747   0.507   0.625 -0.0056 -0.6585  0.7909
 3903ntf    cn119651   7.241   6.741   6.397  0.2007  0.2761  0.4469
 3903ntf    sn219652   7.296   6.696   6.230  0.1152  0.1027  0.4637
 3903ntf    nn319653   7.229   6.555   6.214  0.1500  0.0917  0.4159
 3903ntf    sn219654   7.278   6.420   6.277  0.2332 -0.1591 -0.1796
 3903ntf    cn119655   7.242   6.298   6.147  0.6388 -0.1591 -0.2949
 3903ntf    fn419656   7.135   6.819   6.405 -0.1915 -0.2094  0.0203
 3903ntf    fn419657   7.215   6.635   6.473  0.0174 -0.0042 -0.0023
 3903ntf    fn419658   7.330   6.812   6.464  0.1979  0.5099  0.2019
 3903ntf    on519659   7.227   6.796   6.153 -0.8306 -0.4441  0.5907
 3903ntf    on519660   7.440   6.705   6.223  0.0744  0.6880  0.2776
 3903ntf    on519661   7.184   6.374   6.376  0.2562 -0.0241 -0.0954
 3903ntf    on519662   7.419   6.408   6.301  0.1564 -0.2253  0.2382
 3903ntf    fn419663   7.117   6.293   6.104  0.2280  0.1486  0.8273
 3903ntf    fn419664   7.313   6.316   6.037  0.5815  0.9034 -0.1719
 3903ntf    fn419665   7.268   6.173   6.180  0.5168  0.0219  0.5001
 3904ntf    cn119666   5.592   0.849   4.488 -0.1453 -0.2843 -0.2394
 3904ntf    sn219667   5.527   0.950   4.352  0.2501 -0.0078 -0.2257
 3904ntf    nn319668   5.431   0.840   4.293  0.0080  0.1642 -0.1536
 3904ntf    sn219669   5.394   0.813   4.143  0.4436 -0.1839 -0.1988
 3904ntf    cn119670   5.511   0.678   4.107  0.1822 -0.4584 -0.0213
 3904ntf    fn419671   5.693   0.907   4.551 -0.5021  0.3149 -0.2124
 3904ntf    fn419672   5.496   0.831   4.577 -0.2866  0.4625 -0.2327
 3904ntf    fn419673   5.643   0.734   4.448  0.7064 -0.0212  0.0597
 3904ntf    on519674   5.452   1.062   4.403 -0.7304 -0.7615  0.0242
 3904ntf    on519675   5.643   0.968   4.268  0.2705 -0.0715 -0.2114
 3904ntf    on519676   5.412   0.915   4.043  0.1834  0.1677  0.1105
 3904ntf    on519677   5.267   0.747   4.134  0.3648 -0.1546  0.5812
 3904ntf    fn419678   5.633   0.728   4.103  0.0048 -0.0093  0.0171
 3904ntf    fn419679   5.521   0.601   4.214 -0.0682  0.2694  0.5320
 3904ntf    fn419680   5.503   0.607   3.996  0.4259 -0.3640 -0.1006
 3905ntf    cn119681   4.534   1.510   4.668  0.1733  0.0990  0.0524
 3905ntf    sn219682   4.431   1.522   4.817  0.0682 -0.3946  0.0226
 3905ntf    nn319683   4.532   1.583   4.921 -0.5746 -0.1111  0.4880
 3905ntf    sn219684   4.617   1.486   5.011  0.1815  0.3069  0.2332
 3905ntf    cn119685   4.501   1.449   5.146 -0.1328  0.1674 -0.0738
 3905ntf    fn419686   4.482   1.455   4.559  0.0037  0.1615  0.1020
 3905ntf    fn419687   4.565   1.633   4.631 -0.2867  0.1605 -0.1334
 3905ntf    fn419688   4.647   1.444   4.690 -0.2386 -0.5322  0.3092
 3905ntf    on519689   4.337   1.628   4.790  0.2460 -0.3341 -0.3606
 3905ntf    on519690   4.378   1.389   4.833  0.5804 -0.6179 -0.0962
 3905ntf    on519691   4.716   1.566   5.080  1.0242 -0.1770 -0.4000
 3905ntf    on519692   4.658   1.359   4.957 -0.4103  0.1880  0.0568
 3905ntf    fn419693   4.484   1.318   5.158 -0.1090  0.1728  0.0231
 3905ntf    fn419694   4.560   1.482   5.260  0.2751  0.1334 -0.2739
 3905ntf    fn419695   4.382   1.506   5.133 -0.1121  0.2189 -0.0347
 3906ntf    cn119696   5.910   6.971   6.023  0.0989  0.1396 -0.1002
 3906ntf    sn219697   6.032   6.839   6.051 -0.0136  0.0915  0.1675
 3906ntf    nn319698   6.003   6.769   5.913 -0.3497  0.4973  0.0294
 3906ntf    sn219699   6.103   6.734   5.797 -0.0716 -0.1113  0.4470
 3906ntf    cn119700   6.036   6.576   5.738 -0.2896 -0.0003  0.3972
 3906ntf    fn419701   5.964   7.055   5.936 -0.2491 -0.1340 -0.5872
 3906ntf    fn419702   5.796   6.925   5.974  0.1111 -0.2326  0.2133
 3906ntf    fn419703   5.890   7.038   6.135 -0.3148 -0.3238  0.1093
 3906ntf    on519704   6.159   6.905   6.062  0.1666 -0.2783  0.3362
 3906ntf    on519705   5.978   6.765   6.162  0.1002  0.2150  0.3041
 3906ntf    on519706   6.229   6.690   5.851 -0.0507 -0.4004  0.1582
 3906ntf    on519707   6.100   6.825   5.686  0.0730 -0.0399  0.5005
 3906ntf    fn419708   5.904   6.582   5.729 -0.2522 -0.1113 -0.2126
 3906ntf    fn419709   6.080   6.543   5.618 -0.6628 -0.0741  0.2809
 3906ntf    fn419710   6.064   6.475   5.819  0.6873  0.2119  0.3309
 3907ntf    cn119711   6.061   3.179   0.292 -0.1937 -0.1594  0.2972
 3907ntf    sn219712   6.131   3.092   0.148  0.2911  0.3631  0.2132
 3907ntf    nn319713   6.240   3.198   0.109  0.5193  0.0055 -0.1216
 3907ntf    sn219714   6.239   3.320   0.010  0.0349  0.1552  0.0677
 3907ntf    cn119715   6.355   3.422   0.106 -0.1640  0.2318  0.2271
 3907ntf    fn419716   5.968   3.109   0.355  0.0151 -0.4121  0.3270
 3907ntf    fn419717   6.149   3.204   0.387  0.3780  0.1320 -0.3017
 3907ntf    fn419718   6.013   3.293   0.245  0.0864 -0.1892 -0.0703
 3907ntf    on519719   6.181   2.970   0.207  0.5005  0.0220 -0.6537
 3907ntf    on519720   6.022   3.080   0.055  0.1438  0.2360  0.4014
 3907ntf    on519721   6.115   3.394   0.011 -0.1164 -0.0981  0.1721
 3907ntf    on519722   6.310   3.297  -0.113  0.7385 -0.3283  0.5493
 3907ntf    fn419723   6.467   3.357   0.133 -0.2409 -0.0418 -0.1116
 3907ntf    fn419724   6.387   3.534   0.045 -0.0737  0.3466  0.4813
 3907ntf    fn419725   6.295   3.461   0.218  0.2422 -0.1586  0.5845
 3908ntf    cn119726   6.116   5.743   1.564  0.0349 -0.1238 -0.0421
 3908ntf    sn219727   6.028   5.585   1.544  0.0498 -0.0851 -0.4194
 3908ntf    nn319728   6.005   5.592   1.389 -0.2994  0.4729 -0.3438
 3908ntf    sn219729   5.965   5.482   1.285 -0.0581 -0.0506  0.1101
 3908ntf    cn119730   5.877   5.585   1.164 -0.0342  0.3259  0.4100
 3908ntf    fn419731   6.068   5.840   1.490  0.3618 -0.0687 -0.1819
 3908ntf    fn419732   6.093   5.793   1.684  0.7806  0.3861 -0.1037
 3908ntf    fn419733   6.248   5.745   1.557 -0.0028  0.4894 -0.6046
 3908ntf    on519734   6.129   5.485   1.573  0.1341  0.2445  0.4531
 3908ntf    on519735   5.911   5.595   1.628  0.0141 -0.4072 -0.4268
 3908ntf    on519736   5.851   5.401   1.324  0.4863 -0.3682  1.0596
 3908ntf    on519737   6.078   5.428   1.213 -0.0054 -0.0992  0.2296
 3908ntf    fn419738   5.953   5.684   1.120  0.1253  0.0963  0.1653
 3908ntf    fn419739   5.863   5.505   1.059  0.1401 -0.3161  0.8664
 3908ntf    fn419740   5.759   5.631   1.201 -0.5415 -0.0995 -0.6292
 3909ntf    cn119741   0.369   5.797   5.268 -0.5387  0.3843  0.2739
 3909ntf    sn219742   0.543   5.763   5.311 -0.5730 -0.0919  0.0358
 3909ntf    nn319743   0.590   5.672   5.192 -0.0064  0.2716 -0.0220
 3909ntf    sn219744   0.565   5.520   5.160  0.2617  0.1673  0.2542
 3909ntf    cn119745   0.667   5.483   5.014  0.0258  0.1155  0.1019
 3909ntf    fn419746   0.293   5.690   5.264  0.4190 -0.3016 -0.0712
 3909ntf    fn419747   0.305   5.887   5.341 -0.8299  0.2771  0.1508
 3909ntf    fn419748   0.366   5.849   5.146  0.6768 -0.5007 -0.1612
 3909ntf    on519749   0.604   5.893   5.303 -0.1617 -0.2695  0.2926
 3909ntf    on519750   0.543   5.693   5.437 -0.1366 -0.1495  0.0042
 3909ntf    on519751   0.437   5.484   5.104  0.2382  0.7264 -0.0622
 3909ntf    on519752   0.619   5.436   5.264 -0.2422 -0.4257  0.0428
 3909ntf    fn419753   0.663   5.573   4.917  0.1209  0.4126  0.3739
 3909ntf    fn419754   0.793   5.486   5.054  0.0132 -0.2072  0.1683
 3909ntf    fn419755   0.647   5.365   4.958 -0.3804 -0.1763  0.8521
 3910ntf    cn119756   1.399   0.887   1.166  0.1197 -0.2563 -0.0777
 3910ntf    sn219757   1.410   0.973   1.325  0.0815  0.0501 -0.2405
 3910ntf    nn319758   1.561   1.012   1.344  0.0717 -0.1303  0.2327
 3910ntf    sn219759   1.609   1.158   1.377  0.3098 -0.1635  0.0330
 3910ntf    cn119760   1.613   1.244   1.218  0.0615 -0.1998  0.0066
 3910ntf    fn419761   1.457   0.768   1.164  0.7749  0.0570  0.1460
 3910ntf    fn419762   1.272   0.870   1.132  0.0224  0.2427  0.0391
 3910ntf    fn419763   1.446   0.953   1.061  0.7386 -0.9865 -0.2703
 3910ntf    on519764   1.312   1.076   1.302 -0.0948 -0.1300 -0.2972
 3910ntf    on519765   1.365   0.880   1.426  0.5301  0.1545  0.0596
 3910ntf    on519766   1.746   1.166   1.422  0.1360 -0.3917  0.6254
 3910ntf    on519767   1.526   1.239   1.462 -0.4155 -0.6135 -0.2329
 3910ntf    fn419768   1.494   1.274   1.169  0.2897  0.6662 -0.0411
 3910ntf    fn419769   1.682   1.357   1.230  0.6267 -0.5430  0.0257
 3910ntf    fn419770   1.670   1.164   1.129  0.1116 -0.0898 -0.0621
 3911ntf    cn119771   0.221   3.216   3.020  0.0080 -0.1549  0.4165
 3911ntf    sn219772   0.313   3.166   3.169  0.0497 -0.1325  0.3983
 3911ntf    nn319773   0.328   3.015   3.128 -0.3292 -0.0313 -0.1366
 3911ntf    sn219774   0.427   2.942   3.030  0.0158  0.1764  0.0548
 3911ntf    cn119775   0.551   2.892   3.153  0.2327  0.1634 -0.1685
 3911ntf    fn419776   0.155   3.331   3.026  0.3211  0.0182  0.5720
 3911ntf    fn419777   0.308   3.229   2.921  0.0595 -0.1848  0.4576
 3911ntf    fn419778   0.135   3.125   2.977  0.3979 -0.1075 -0.4789
 3911ntf    on519779   0.434   3.243   3.179  0.0079  0.0064 -0.1016
 3911ntf    on519780   0.213   3.184   3.271 -0.0466 -0.1921  0.3150
 3911ntf    on519781   0.506   3.014   2.933 -0.1669 -0.6018 -0.6850
 3911ntf    on519782   0.374   2.816   2.985  0.2747 -0.0481  0.3731
 3911ntf    fn419783   0.662   2.841   3.103  0.3374  0.4237 -0.2028
 3911ntf    fn419784   0.584   2.990   3.236 -0.0107  0.2949 -0.2263
 3911ntf    fn419785   0.509   2.796   3.234 -0.2083  0.2364 -0.3063
 3912ntf    cn119786   1.820   4.045   1.019  0.2852  0.1982 -0.3730
 3912ntf    sn219787   1.788   4.098   0.848  0.1719 -0.1189 -0.4499
 3912ntf    nn319788   1.656   4.017   0.819 -0.2088  0.0661  0.7443
 3912ntf    sn219789   1.523   4.064   0.750  0.1191  0.0783  0.1160
 3912ntf    cn119790   1.421   4.125   0.887  0.1313 -0.2063  0.2518
 3912ntf    fn419791   1.927   4.100   1.074 -0.0814  0.3289  0.2071
 3912ntf    fn419792   1.712   4.075   1.088  0.3485 -0.3300 -0.0442
 3912ntf    fn419793   1.833   3.913   1.012 -0.3107  0.1639 -1.0440
 3912ntf    on519794   1.776   4.240   0.869  0.0594 -0.1343 -0.4084
 3912ntf    on519795   1.897   4.044   0.770  0.4919  0.1598 -0.1944
 3912ntf    on519796   1.443   3.954   0.702  0.5196  0.0143 -0.4109
 3912ntf    on519797   1.539   4.181   0.667  0.1645  0.0431  0.0753
 3912ntf    fn419798   1.410   4.037   0.986  0.0512 -0.3605  0.1071
 3912ntf    fn419799   1.475   4.227   0.951 -0.2397  0.0467  0.1646
 3912ntf    fn419800   1.299   4.168   0.858  0.2422  0.5253  0.8336
 3913ntf    cn119801   2.475   1.389   3.066  0.2809 -0.1267 -0.2477
 3913ntf    sn219802   2.407   1.221   3.066 -0.0776  0.0158  0.0374
 3913ntf    nn319803   2.444   1.181   3.213  0.2736 -0.6260 -0.2199
 3913ntf    sn219804   2.343   1.203   3.331  0.2745  0.0654 -0.3464
 3913ntf    cn119805   2.269   1.038   3.321  0.1671  0.0765  0.2662
 3913ntf    fn419806   2.416   1.475   3.148  0.4807 -0.3027  0.0805
 3913ntf    fn419807   2.599   1.388   3.111  0.2256 -0.7299 -0.1032
 3913ntf    fn419808   2.467   1.447   2.947 -0.1844  0.0315 -0.1391
 3913ntf    on519809   2.270   1.239   3.026  0.2817  0.3068 -1.1064
 3913ntf    on519810   2.501   1.148   2.983  0.1489  0.4079 -0.0535
 3913ntf    on519811   2.233   1.296   3.321  0.1744  0.0696  0.6811
 3913ntf    on519812   2.402   1.201   3.462  0.6001  0.0639 -0.4908
 3913ntf    fn419813   2.191   1.011   3.425 -0.0429 -0.0557  0.0765
 3913ntf    fn419814   2.194   1.033   3.213 -0.0940  0.2907  0.4363
 3913ntf    fn419815   2.351   0.935   3.311 -0.2954 -0.2644 -0.0588
 3914ntf    cn119816   4.706   5.866   6.627 -0.0536 -0.0594  0.0641
 3914ntf    sn219817   4.666   5.810   6.796  0.0941  0.1907  0.1816
 3914ntf    nn319818   4.634   5.953   6.852  0.3022  0.3298 -0.0502
 3914ntf    sn219819   4.607   6.004   6.998  0.0886  0.1613 -0.0307
 3914ntf    cn119820   4.430   6.020   6.960  0.1157  0.1008 -0.1842
 3914ntf    fn419821   4.812   5.945   6.629 -0.4597  0.4892 -0.0352
 3914ntf    fn419822   4.729   5.770   6.539 -0.2121 -0.2048  0.1788
 3914ntf    fn419823   4.614   5.947   6.577  0.0727  0.0652  0.0349
 3914ntf    on519824   4.563   5.710   6.783  0.0898  0.2659 -0.4242
 3914ntf    on519825   4.794   5.758   6.838  0.0253  0.2633  0.4841
 3914ntf    on519826   4.656   6.137   7.027 -0.5301  0.4815 -0.4244
 3914ntf    on519827   4.603   5.905   7.103 -0.4475  0.4639  0.2406
 3914ntf    fn419828   4.419   6.105   6.859  0.3122 -0.0667 -0.3457
 3914ntf    fn419829   4.381   5.901   6.930 -0.1298  0.1927 -0.1520
 3914ntf    fn419830   4.357   6.067   7.061 -0.1659  0.0633 -0.3681
 3915ntf    cn119831   7.139   0.970   0.784  0.3769 -0.3828 -0.2003
 3915ntf    sn219832   7.273   0.913   0.674  0.4353 -0.0790 -0.2859
 3915ntf    nn319833   7.193   0.811   0.586  0.6565  0.2790 -0.9101
 3915ntf    sn219834   7.193   0.654   0.595 -0.1153  0.3231  0.0600
 3915ntf    cn119835   7.284   0.609   0.444 -0.5317 -0.1245 -0.0594
 3915ntf    fn419836   7.055   0.878   0.829 -0.1650  0.4870  0.6029
 3915ntf    fn419837   7.184   1.026   0.895 -0.2997  0.1181 -0.1760
 3915ntf    fn419838   7.064   1.055   0.716  0.2411  0.1094  0.5561
 3915ntf    on519839   7.306   1.033   0.601 -0.3237  0.2311 -0.1407
 3915ntf    on519840   7.374   0.861   0.761  0.2269  0.2422  0.1559
 3915ntf    on519841   7.059   0.603   0.584 -0.1943  0.5290  0.0780
 3915ntf    on519842   7.277   0.585   0.690  0.4750  0.5252 -0.3096
 3915ntf    fn419843   7.214   0.596   0.332 -0.7389  0.2957  0.0211
 3915ntf    fn419844   7.372   0.700   0.407 -0.9119  0.3898  0.2931
 3915ntf    fn419845   7.356   0.497   0.444  0.5819  0.5756 -0.8762
 3916ntf    cn119846   5.975   2.259   3.575  0.3823 -0.2556  0.0069
 3916ntf    sn219847   5.939   2.109   3.480  0.1585 -0.0303 -0.2629
 3916ntf    nn319848   5.872   2.007   3.578 -0.1425 -0.0874 -0.5249
 3916ntf    sn219849   5.730   2.019   3.644  0.0302  0.4445 -0.2525
 3916ntf    cn119850   5.629   1.931   3.522 -0.0227  0.1400  0.0077
 3916ntf    fn419851   5.998   2.220   3.700 -0.8914 -0.5220  0.1713
 3916ntf    fn419852   6.084   2.328   3.545  0.5851 -0.2201  0.7869
 3916ntf    fn419853   5.869   2.338   3.574  0.3498 -0.3045 -0.6269
 3916ntf    on519854   5.837   2.164   3.393 -0.1494 -0.1425  0.0230
 3916ntf    on519855   6.063   2.056   3.429  0.6298  0.6271  0.1847
 3916ntf    on519856   5.665   2.147   3.662 -0.3806  0.1857  0.1370
 3916ntf    on519857   5.715   1.929   3.756 -0.2028  0.0228 -0.6210
 3916ntf    fn419858   5.505   1.908   3.561 -0.3186 -0.1047 -1.0356
 3916ntf    fn419859   5.617   2.007   3.414 -0.0703 -0.4287 -0.3900
 3916ntf    fn419860   5.686   1.817   3.486  0.3285  0.4519 -0.4319
 3917ntf    cn119861   2.505   5.500   0.320  0.0492  0.0736  0.0586
 3917ntf    sn219862   2.648   5.553   0.419 -0.0837  0.1453  0.2120
 3917ntf    nn319863   2.766   5.539   0.317 -0.1476  0.5850  0.0764
 3917ntf    sn219864   2.840   5.644   0.226  0.1240  0.1885 -0.1636
 3917ntf    cn119865   2.843   5.556   0.067  0.1807  0.4676 -0.3167
 3917ntf    fn419866   2.472   5.583   0.222  0.3244  0.3858  0.2313
 3917ntf    fn419867   2.531   5.390   0.250 -0.1077  0.3424 -0.4283
 3917ntf    fn419868   2.396   5.476   0.391  0.3365  0.2161  0.5449
 3917ntf    on519869   2.616   5.686   0.462  0.5859  0.1327  0.7558
 3917ntf    on519870   2.657   5.450   0.519  0.2496 -0.3736 -0.3458
 3917ntf    on519871   2.978   5.660   0.265 -0.0071 -0.8446  0.7946
 3917ntf    on519872   2.766   5.763   0.193  0.2651  0.3862  0.2279
 3917ntf    fn419873   2.885   5.623  -0.039  0.6696  0.5602 -0.0682
 3917ntf    fn419874   2.916   5.445   0.067  0.0635  0.3910  0.1424
 3917ntf    fn419875   2.720   5.516   0.042  0.1946  0.2287 -0.0087
 3918ntf    cn119876   6.266   2.733   3.074  0.3338  0.3397  0.3853
 3918ntf    sn219877   6.089   2.773   3.082  0.3031  0.2838  0.0361
 3918ntf    nn319878   6.032   2.643   3.014 -1.2096  0.4448  0.9302
 3918ntf    sn219879   5.983   2.512   3.084 -0.0671 -0.3557  0.2721
 3918ntf    cn119880   6.050   2.383   2.975 -0.3223 -0.4294  0.2020
 3918ntf    fn419881   6.338   2.825   3.135  0.4502  0.5023  0.0097
 3918ntf    fn419882   6.290   2.611   3.120  0.5564  0.0478 -0.4714
 3918ntf    fn419883   6.306   2.727   2.948 -0.4270  0.7767  0.1156
 3918ntf    on519884   6.046   2.796   3.218  0.6244 -0.3978  0.2612
 3918ntf    on519885   6.082   2.887   2.994  0.1165 -0.2146 -0.6012
 3918ntf    on519886   5.840   2.495   3.072 -0.2300  0.5815  0.8593
 3918ntf    on519887   6.042   2.488   3.213 -0.0496  0.0065  0.3318
 3918ntf    fn419888   6.182   2.376   2.984 -0.2786 -0.3183 -0.2899
 3918ntf    fn419889   5.998   2.266   3.009  0.2355 -0.7508 -0.0216
 3918ntf    fn419890   6.021   2.404   2.847  0.2530  0.5911  0.2298
 3919ntf    cn119891   1.048   6.188   0.662  0.2293 -0.0038  0.0363
 3919ntf    sn219892   1.148   6.277   0.539  0.2311  0.1818  0.1727
 3919ntf    nn319893   1.100   6.420   0.579 -0.0079  0.3244 -0.6158
 3919ntf    sn219894   1.175   6.549   0.629 -0.0111  0.1260 -0.0958
 3919ntf    cn119895   1.056   6.666   0.558  0.1377  0.2102 -0.2057
 3919ntf    fn419896   0.933   6.146   0.610  0.3141  0.1393 -0.2669
 3919ntf    fn419897   1.097   6.075   0.710  0.2278  0.1148  0.3175
 3919ntf    fn419898   1.022   6.255   0.772 -0.1701 -0.4319  0.2082
 3919ntf    on519899   1.283   6.240   0.575 -0.0368 -0.3844  0.6320
 3919ntf    on519900   1.092   6.236   0.413  0.3101 -0.0115  0.2004
 3919ntf    on519901   1.299   6.586   0.566  0.1107 -0.0198  0.0556
 3919ntf    on519902   1.158   6.581   0.768 -0.6360 -0.3931 -0.0478
 3919ntf    fn419903   0.934   6.651   0.608  0.4243 -0.7747  0.2152
 3919ntf    fn419904   1.083   6.795   0.571  0.4445  0.0949  0.3049
 3919ntf    fn419905   1.029   6.654   0.429 -0.2774  0.1598 -0.1163
 3920ntf    cn119906   3.693   1.865   0.188  0.1949  0.2900 -0.0487
 3920ntf    sn219907   3.528   1.847   0.114  0.3360  0.0465 -0.3056
 3920ntf    nn319908   3.512   1.692   0.092  0.0043  0.0450 -0.0670
 3920ntf    sn219909   3.546   1.593  -0.025  0.1155  0.2898 -0.2423
 3920ntf    cn119910   3.423   1.461   0.001  0.3771 -0.0177 -0.5581
 3920ntf    fn419911   3.731   1.990   0.208 -0.2947  0.5177 -0.5218
 3920ntf    fn419912   3.683   1.822   0.312 -0.6613  0.6193 -0.0013
 3920ntf    fn419913   3.793   1.796   0.135 -0.0916 -0.1007 -0.0856
 3920ntf    on519914   3.427   1.891   0.207  0.3707  0.0678 -0.2782
 3920ntf    on519915   3.536   1.922  -0.009  0.2780  0.0749 -0.2917
 3920ntf    on519916   3.673   1.527  -0.008  0.1063  0.5706  0.9589
 3920ntf    on519917   3.513   1.637  -0.159  0.0349  0.0656 -0.2958
 3920ntf    fn419918   3.301   1.509   0.016  0.2801 -0.4074 -0.1016
 3920ntf    fn419919   3.421   1.371  -0.096 -0.3497 -0.3308 -0.2588
 3920ntf    fn419920   3.454   1.398   0.113 -0.0283 -0.0005 -0.4364
 3921ntf    cn119921   6.863   6.855   1.545 -0.3014  0.4242  0.0074
 3921ntf    sn219922   6.781   6.977   1.653  0.1417  0.1582  0.6499
 3921ntf    nn319923   6.891   7.089   1.657  0.5603 -0.2561  0.8827
 3921ntf    sn219924   6.882   7.242   1.620 -0.2356 -0.5026 -0.0016
 3921ntf    cn119925   6.943   7.240   1.449 -0.3061 -0.2996 -0.0292
 3921ntf    fn419926   6.964   6.794   1.604 -1.0039 -0.4671  0.3168
 3921ntf    fn419927   6.786   6.753   1.513  0.2057  0.0765 -0.1078
 3921ntf    fn419928   6.916   6.910   1.437  0.4488  0.4917  0.4028
 3921ntf    on519929   6.666   7.008   1.572  0.4911 -0.4451 -0.0938
 3921ntf    on519930   6.745   6.903   1.771 -0.1281  0.1816  0.5817
 3921ntf    on519931   6.981   7.314   1.697 -0.7754  0.4992 -0.2349
 3921ntf    on519932   6.751   7.300   1.611 -0.3084 -0.6452  0.1242
 3921ntf    fn419933   6.858   7.164   1.382 -0.2303 -0.2978 -0.1266
 3921ntf    fn419934   6.925   7.358   1.392 -0.5369 -0.3098  0.0199
 3921ntf    fn419935   7.065   7.190   1.438 -0.3473 -0.2850 -0.5707
 3922ntf    cn119936   3.235   7.159   0.909  0.0421  0.2431  0.1228
 3922ntf    sn219937   3.314   7.244   0.769  0.0686 -0.2556 -0.1696
 3922ntf    nn319938   3.350   7.378   0.844 -0.8996 -0.0184 -0.1166
 3922ntf    sn219939   3.322   7.530   0.815 -0.1167  0.0751 -0.3942
 3922ntf    cn119940   3.492   7.584   0.851 -0.0482 -0.1813 -0.3292
 3922ntf    fn419941   3.185   7.041   0.876 -0.0276  0.3326 -0.0950
 3922ntf    fn419942   3.321   7.137   1.008  0.0729  0.1889  0.0845
 3922ntf    fn419943   3.138   7.237   0.952 -0.5407  0.0976 -0.9094
 3922ntf    on519944   3.436   7.171   0.745  0.1028 -0.2210 -0.1023
 3922ntf    on519945   3.218   7.252   0.662 -0.0318 -0.2257 -0.0778
 3922ntf    on519946   3.238   7.591   0.914  0.4652  1.1757 -0.5679
 3922ntf    on519947   3.305   7.564   0.676  0.4809 -0.2709 -0.5570
 3922ntf    fn419948   3.518   7.702   0.797 -0.3986  0.0986  0.1044
 3922ntf    fn419949   3.506   7.587   0.983 -0.2956 -0.1461 -0.3034
 3922ntf    fn419950   3.581   7.501   0.800  0.0717  0.2448 -0.8194
 3923ntf    cn119951   3.837   4.170   1.281  0.0303 -0.1249  0.0497
 3923ntf    sn219952   3.770   4.081   1.424  0.1659 -0.1941  0.0704
 3923ntf    nn319953   3.894   3.995   1.467 -0.0422 -0.4426  0.1721
 3923ntf    sn219954   3.975   3.995   1.602  0.0241 -0.3539  0.1320
 3923ntf    cn119955   4.102   4.114   1.551 -0.1404 -0.1489  0.2008
 3923ntf    fn419956   3.946   4.241   1.301  0.3052 -0.5381  0.0343
 3923ntf    fn419957   3.872   4.090   1.181 -0.7721 -0.7308  0.2488
 3923ntf    fn419958   3.750   4.258   1.232 -0.1528 -0.3514 -0.0356
 3923ntf    on519959   3.729   4.200   1.495  0.1381 -0.1280 -0.0561
 3923ntf    on519960   3.669   3.997   1.365  0.0685 -0.0297  0.0035
 3923ntf    on519961   4.063   3.883   1.626 -0.1782 -0.4271  0.5328
 3923ntf    on519962   3.920   4.063   1.716  0.3429  0.2109 -0.0489
 3923ntf    fn419963   4.192   4.129   1.647  0.0715 -0.2993  0.0269
 3923ntf    fn419964   4.167   4.080   1.441 -0.6169 -0.0771 -0.1038
 3923ntf    fn419965   4.051   4.234   1.531  0.2229  0.0210  0.2772
 3924ntf    cn119966   3.890   4.724   5.021 -0.2270 -0.0884 -0.1810
 3924ntf    sn219967   3.999   4.828   5.124 -0.1189 -0.4113  0.0306
 3924ntf    nn319968   3.946   4.757   5.254 -0.6330 -0.3741 -0.1539
 3924ntf    sn219969   3.956   4.804   5.403  0.0329 -0.2022 -0.2462
 3924ntf    cn119970   3.777   4.827   5.427  0.1162  0.0266  0.1720
 3924ntf    fn419971   3.870   4.768   4.898 -0.2668 -0.3171 -0.2567
 3924ntf    fn419972   3.929   4.598   5.011 -0.7174 -0.2721  0.2173
 3924ntf    fn419973   3.769   4.717   5.074 -0.4024 -0.0078 -0.5667
 3924ntf    on519974   4.133   4.800   5.079 -0.0849 -0.2239  0.0145
 3924ntf    on519975   3.944   4.959   5.099 -0.5238 -0.7470 -0.9060
 3924ntf    on519976   4.021   4.930   5.431 -0.2478 -0.2470  0.6350
 3924ntf    on519977   3.999   4.697   5.490 -0.3190 -0.0436  0.1290
 3924ntf    fn419978   3.738   4.934   5.359  0.1344 -0.1505 -0.1189
 3924ntf    fn419979   3.712   4.719   5.387  0.6997 -0.2416 -0.0654
 3924ntf    fn419980   3.759   4.846   5.557 -0.1140  0.5241  0.0706
 3925ntf    cn119981   6.515   2.467   3.952 -0.1114 -0.4272  0.4551
 3925ntf    sn219982   6.494   2.364   4.100  0.3263 -0.2993  0.6073
 3925ntf    nn319983   6.586   2.448   4.196  0.5159 -0.1078  0.2627
 3925ntf    sn219984   6.549   2.573   4.285 -0.1712 -0.0839 -0.0486
 3925ntf    cn119985   6.528   2.480   4.440  0.0281  0.1818  0.1368
 3925ntf    fn419986   6.637   2.516   3.930 -0.2845 -0.1676  0.0475
 3925ntf    fn419987   6.483   2.385   3.853  0.3495  0.2480 -0.2649
 3925ntf    fn419988   6.433   2.571   3.956  0.3601 -0.0710  0.9314
 3925ntf    on519989   6.351   2.364   4.117  0.1659  0.7527 -0.5826
 3925ntf    on519990   6.559   2.241   4.066 -0.5501 -0.6107  0.0227
 3925ntf    on519991   6.421   2.636   4.264  0.1339  0.4704 -0.2533
 3925ntf    on519992   6.666   2.655   4.302 -0.0612 -0.3354  0.4097
 3925ntf    fn419993   6.512   2.548   4.553 -0.8764 -0.2313  0.2591
 3925ntf    fn419994   6.421   2.405   4.424 -0.2759  0.6032  0.1784
 3925ntf    fn419995   6.626   2.392   4.449  0.1139  0.2514 -0.1121
 3926ntf    cn119996   3.868   4.548   1.571  0.1912 -0.2919 -0.3574
 3926ntf    sn219997   3.979   4.688   1.537 -0.1618  0.0868  0.0420
 3926ntf    nn319998   3.880   4.805   1.571  0.1295  0.2172  0.4464
 3926ntf    sn219999   3.810   4.897   1.465  0.4006 -0.3510 -0.2294
 3926ntf    cn120000   3.662   4.960   1.551  0.4938 -0.3960 -0.0359
 3926ntf    fn420001   3.901   4.433   1.515 -0.7353 -0.7204 -0.0456
 3926ntf    fn420002   3.855   4.527   1.701  0.6744 -0.4739 -0.3365
 3926ntf    fn420003   3.746   4.580   1.531  0.2765  0.2456 -0.2003
 3926ntf    on520004   4.074   4.676   1.644 -0.1534  0.3915  0.0692
 3926ntf    on520005   4.028   4.658   1.405  0.2217  0.3284  0.1264
 3926ntf    on520006   3.757   4.820   1.355 -0.0258 -0.2440 -0.1020
 3926ntf    on520007   3.886   5.013   1.424  0.4186 -0.2520  0.0807
 3926ntf    fn420008   3.594   5.039   1.470  1.2480  0.1267 -0.1777
 3926ntf    fn420009   3.578   4.864   1.582  0.0028  0.0581  0.0561
 3926ntf    fn420010   3.678   5.038   1.657 -0.8676  0.3055 -0.3248
 3927ntf    cn120011   2.498   4.321   6.778 -0.3339 -0.3264 -0.2757
 3927ntf    sn220012   2.586   4.311   6.936 -0.1810 -0.0372 -0.3416
 3927ntf    nn320013   2.655   4.175   6.900  0.0261 -0.1125  0.3118
 3927ntf    sn220014   2.809   4.153   6.879 -0.0020 -0.0757  0.0612
 3927ntf    cn120015   2.805   3.971   6.878 -0.7664 -0.0619 -0.0689
 3927ntf    fn420016   2.585   4.318   6.678  0.4526 -0.1727  0.3874
 3927ntf    fn420017   2.406   4.229   6.758 -0.5836 -0.2997  0.7255
 3927ntf    fn420018   2.451   4.445   6.773 -0.0259 -0.2055 -0.2564
 3927ntf    on520019   2.678   4.423   6.939 -0.1772 -0.0321 -0.6513
 3927ntf    on520020   2.481   4.305   7.035  0.1883  0.1558  0.0669
 3927ntf    on520021   2.895   4.177   6.992 -0.0433 -0.0927  0.0965
 3927ntf    on520022   2.864   4.177   6.747  0.5353 -0.2075  0.2570
 3927ntf    fn420023   2.920   3.916   6.843 -0.7332  0.2846 -0.5138
 3927ntf    fn420024   2.789   3.922   6.999 -0.0950 -0.3672 -0.0953
 3927ntf    fn420025   2.722   3.904   6.800 -0.9232 -0.8666  0.7769
 3928ntf    cn120026   4.520   4.085   2.645 -0.1382  0.0258 -0.1486
 3928ntf    sn220027   4.672   4.014   2.716 -0.0815  0.2042 -0.0924
 3928ntf    nn320028   4.613   3.894   2.797  0.5402  0.2079  0.3758
 3928ntf    sn220029   4.639   3.740   2.781  0.1451  0.1558  0.2279
 3928ntf    cn120030   4.540   3.705   2.632  0.4667  0.3890 -0.0419
 3928ntf    fn420031   4.428   4.104   2.737  0.0942 -0.4990  0.2005
 3928ntf    fn420032   4.539   4.194   2.573  0.7426 -0.2844 -0.4086
 3928ntf    fn420033   4.474   3.998   2.557 -0.3574 -0.4222  0.4047
 3928ntf    on520034   4.757   3.979   2.604 -0.7187 -0.2484 -0.4348
 3928ntf    on520035   4.733   4.117   2.798  0.1010 -0.3046  0.4128
 3928ntf    on520036   4.570   3.662   2.881  0.0846 -0.1870 -0.0790
 3928ntf    on520037   4.775   3.697   2.759 -0.0401 -0.2844 -0.0783
 3928ntf    fn420038   4.609   3.760   2.534 -0.0025  0.7547 -0.1698
 3928ntf    fn420039   4.520   3.576   2.610  0.2404  0.3791  0.2228
 3928ntf    fn420040   4.414   3.743   2.630  0.2204 -0.4013  0.0788
 3929ntf    cn120041   0.375   2.265   5.195 -0.2606  0.0116 -0.0576
 3929ntf    sn220042   0.360   2.445   5.216 -0.2165 -0.0075  0.1413
 3929ntf    nn320043   0.325   2.462   5.368  0.2406 -0.4082  0.2932
 3929ntf    sn220044   0.399   2.553   5.472 -0.0802 -0.1473  0.2971
 3929ntf    cn120045   0.337   2.710   5.404 -0.5320 -0.4159  0.0903
 3929ntf    fn420046   0.367   2.230   5.068 -0.1738  0.7847 -0.2829
 3929ntf    fn420047   0.485   2.210   5.242  0.0631  0.3347 -0.4320
 3929ntf    fn420048   0.282   2.198   5.262 -0.5481  0.0911 -0.3754
 3929ntf    on520049   0.489   2.495   5.175  0.2330 -0.6325  0.7726
 3929ntf    on520050   0.241   2.485   5.145 -0.2187 -0.3228 -0.0326
 3929ntf    on520051   0.543   2.560   5.465 -0.1019 -0.0878 -0.0839
 3929ntf    on520052   0.354   2.554   5.609  0.0283 -0.3305  0.3337
 3929ntf    fn420053   0.379   2.732   5.281 -0.3187  0.3977  0.3094
 3929ntf    fn420054   0.205   2.718   5.404 -0.5074  0.0587 -0.5036
 3929ntf    fn420055   0.376   2.815   5.474 -0.6196 -0.0818 -0.3586
 3930ntf    cn120056   3.333   1.904   3.678 -0.0561 -0.3880 -0.2321
 3930ntf    sn220057   3.435   1.877   3.826 -0.3092  0.1975  0.0519
 3930ntf    nn320058   3.507   1.748   3.774  0.1737  0.5032 -0.0364
 3930ntf    sn220059   3.475   1.598   3.806  0.2984  0.4362 -0.2239
 3930ntf    cn120060   3.639   1.528   3.769  0.1206  0.1106 -0.4024
 3930ntf    fn420061   3.411   1.915   3.572 -0.1728  0.5526 -0.2314
 3930ntf    fn420062   3.243   1.809   3.661  0.0683 -0.4103 -0.7954
 3930ntf    fn420063   3.266   2.018   3.691 -0.1291 -0.3616 -0.8125
 3930ntf    on520064   3.524   1.990   3.835 -0.5551  0.3875  0.1278
 3930ntf    on520065   3.326   1.866   3.920 -0.4498  0.2212 -0.1070
 3930ntf    on520066   3.391   1.533   3.708  0.0143 -0.5132  0.6350
 3930ntf    on520067   3.472   1.561   3.945 -1.0430  0.3896 -0.2560
 3930ntf    fn420068   3.728   1.569   3.858  0.1571 -0.4360 -0.1831
 3930ntf    fn420069   3.639   1.397   3.785  0.5487  0.1839  0.2454
 3930ntf    fn420070   3.687   1.558   3.649 -0.0492  0.5372 -0.3661
 3931ntf    cn120071   4.080   1.545   3.708  0.1526  0.1345 -0.0641
 3931ntf    sn220072   4.259   1.572   3.691  0.1368  0.2329 -0.0726
 3931ntf    nn320073   4.274   1.534   3.540  0.1127 -0.5764  0.1228
 3931ntf    sn220074   4.389   1.588   3.448 -0.1012 -0.0613  0.1513
 3931ntf    cn120075   4.327   1.746   3.382  0.5077 -0.0118 -0.3133
 3931ntf    fn420076   4.015   1.632   3.634  0.1558  0.3595  0.1945
 3931ntf    fn420077   4.038   1.426   3.669  0.0055  0.2600 -0.2874
 3931ntf    fn420078   4.047   1.562   3.835 -0.3336  0.1178 -0.1889
 3931ntf    on520079   4.277   1.707   3.738  0.7115  0.1136  0.0597
 3931ntf    on520080   4.304   1.467   3.779  0.0527  0.2271 -0.0363
 3931ntf    on520081   4.404   1.507   3.329  0.1761 -0.1401  0.2394
 3931ntf    on520082   4.512   1.617   3.517  0.0189 -0.2413  0.0159
 3931ntf    fn420083   4.279   1.811   3.487  0.1087 -0.3848 -0.2600
 3931ntf    fn420084   4.420   1.825   3.331 -0.1205  0.9826  0.0678
 3931ntf    fn420085   4.238   1.734   3.285  0.3953 -0.0004 -0.2120
 3932ntf    cn120086   5.338   1.254   2.739  0.5084 -0.0769  0.1628
 3932ntf    sn220087   5.290   1.153   2.596 -0.0969  0.1945  0.1694
 3932ntf    nn320088   5.180   1.069   2.670  0.0269 -0.0182  0.1146
 3932ntf    sn220089   5.060   1.001   2.595 -0.0879  0.0416  0.2436
 3932ntf    cn120090   4.937   1.132   2.623 -0.1795  0.0883 -0.3640
 3932ntf    fn420091   5.455   1.313   2.722  0.1117  0.6416 -0.0894
 3932ntf    fn420092   5.252   1.351   2.764  0.0148 -0.2538 -0.8121
 3932ntf    fn420093   5.334   1.191   2.856 -0.1243 -0.6374 -0.1564
 3932ntf    on520094   5.246   1.244   2.494  0.3099  0.4840  0.2502
 3932ntf    on520095   5.410   1.077   2.567  0.2654  0.8443 -0.0590
 3932ntf    on520096   5.002   0.888   2.663 -0.3299  0.2573  0.3964
 3932ntf    on520097   5.077   0.987   2.453  0.2969  0.0659  0.2865
 3932ntf    fn420098   4.825   1.089   2.568 -0.2021  0.0576 -0.2933
 3932ntf    fn420099   4.901   1.177   2.742 -0.5435 -0.8262 -0.1251
 3932ntf    fn420100   4.972   1.240   2.555 -0.2806  0.3460 -0.0107
 3933ntf    cn120101   1.048   7.222   3.846  0.4371  0.1074  0.0892
 3933ntf    sn220102   0.940   7.097   3.770 -0.2348  0.6438  0.1525
 3933ntf    nn320103   1.034   7.032   3.663 -1.0335 -0.8939  0.3550
 3933ntf    sn220104   1.154   6.932   3.682 -0.2258  0.0372  0.2343
 3933ntf    cn120105   1.061   6.777   3.665 -0.0362 -0.0935  0.3731
 3933ntf    fn420106   1.151   7.176   3.914  0.5350  0.2788  0.0573
 3933ntf    fn420107   1.091   7.296   3.745  0.1572  0.7134  0.4066
 3933ntf    fn420108   0.983   7.303   3.928 -0.0041 -0.3903  0.2370
 3933ntf    on520109   0.913   7.019   3.888  0.2210  0.0277 -0.1479
 3933ntf    on520110   0.835   7.174   3.706 -0.7196  0.3575  0.5955
 3933ntf    on520111   1.205   6.932   3.817  0.4590  0.5074 -0.0193
 3933ntf    on520112   1.246   6.938   3.571  0.0769 -0.2340  0.4684
 3933ntf    fn420113   1.138   6.673   3.692 -0.3339 -0.3017  0.4275
 3933ntf    fn420114   0.957   6.770   3.746 -0.0383  0.2620  0.4022
 3933ntf    fn420115   1.024   6.755   3.540  0.1030  0.2599  0.2692
 3934ntf    cn120116   7.296   3.951   1.090 -0.2189 -0.2137  0.1382
 3934ntf    sn220117   7.192   3.850   0.980  0.0779 -0.1198 -0.2322
 3934ntf    nn320118   7.275   3.717   0.993 -0.2952 -0.3135  0.2235
 3934ntf    sn220119   7.309   3.619   0.875  0.1420 -0.0426  0.1204
 3934ntf    cn120120   7.291   3.459   0.961 -0.2067 -0.1901 -0.2232
 3934ntf    fn420121   7.279   4.082   1.091 -0.0269 -0.1904  0.4218
 3934ntf    fn420122   7.300   3.905   1.214  0.0281  0.1490  0.2673
 3934ntf    fn420123   7.419   3.941   1.040 -0.3489 -0.1697 -0.1936
 3934ntf    on520124   7.067   3.838   1.050  0.3508 -0.2725  0.2360
 3934ntf    on520125   7.188   3.913   0.851 -0.2898  0.2739 -0.0312
 3934ntf    on520126   7.450   3.628   0.849  0.1052 -0.3998 -0.2115
 3934ntf    on520127   7.212   3.598   0.771 -0.0594  0.3091  0.2369
 3934ntf    fn420128   7.166   3.435   0.999 -0.0082 -0.1417  0.4840
 3934ntf    fn420129   7.332   3.361   0.883  0.7170  0.0513 -0.0553
 3934ntf    fn420130   7.359   3.457   1.075 -0.6613  0.5926  0.0700
 3935ntf    cn120131   4.986   4.867   2.182 -0.4581 -0.2262  0.5035
 3935ntf    sn220132   5.159   4.837   2.228 -0.1778  0.1953 -0.2524
 3935ntf    nn320133   5.185   4.934   2.348 -0.0003  0.0149 -0.1447
 3935ntf    sn220134   5.256   5.073   2.364 -0.1234  0.0656 -0.0389
 3935ntf    cn120135   5.428   5.022   2.390 -0.1831 -0.0022  0.2303
 3935ntf    fn420136   4.969   4.987   2.129  0.1514 -0.0670  0.6689
 3935ntf    fn420137   4.950   4.789   2.082  0.4195  0.0645 -0.0479
 3935ntf    fn420138   4.901   4.852   2.282 -0.3810 -0.9076  0.4689
 3935ntf    on520139   5.156   4.696   2.261 -0.0208  0.2506 -0.0018
 3935ntf    on520140   5.236   4.865   2.109 -0.5831  0.1154 -0.5369
 3935ntf    on520141   5.229   5.156   2.479 -0.7829  0.4144 -0.4422
 3935ntf    on520142   5.266   5.134   2.234  0.2481 -0.2722 -0.1691
 3935ntf    fn420143   5.441   4.964   2.508 -0.3857 -0.0434  0.2313
 3935ntf    fn420144   5.478   4.937   2.301 -0.5016 -0.3382  0.3735
 3935ntf    fn420145   5.516   5.121   2.385 -0.4696  0.2332 -0.1469
 3936ntf    cn120146   6.844   2.327   0.558 -0.0565 -0.0688  0.2637
 3936ntf    sn220147   7.010   2.390   0.517 -0.1831 -0.0187 -0.1803
 3936ntf    nn320148   7.060   2.442   0.657  0.2883 -0.3118 -0.2388
 3936ntf    sn220149   7.110   2.585   0.694  0.0101 -0.2660 -0.0343
 3936ntf    cn120150   6.948   2.654   0.737  0.2712  0.2605  0.1233
 3936ntf    fn420151   6.793   2.267   0.452 -0.3165  0.5686  0.0228
 3936ntf    fn420152   6.849   2.239   0.657  0.5706 -0.6349 -0.2657
 3936ntf    fn420153   6.753   2.418   0.589 -0.2079  0.1383 -0.7477
 3936ntf    on520154   7.081   2.270   0.481  0.1462  0.0939  0.0900
 3936ntf    on520155   6.986   2.487   0.413 -0.1159  0.7976  0.5543
 3936ntf    on520156   7.159   2.665   0.584  0.0927 -0.0556  0.1540
 3936ntf    on520157   7.182   2.585   0.820  0.8604 -0.1805 -0.5099
 3936ntf    fn420158   6.866   2.627   0.636 -0.1814 -0.8302  0.7641
 3936ntf    fn420159   6.895   2.607   0.849  0.0221  0.0452 -0.0842
 3936ntf    fn420160   6.958   2.784   0.758 -0.2696  0.3495 -0.1357
 3937ntf    cn120161   5.583   5.709   5.158  0.1999  0.3372 -0.1289
 3937ntf    sn220162   5.422   5.626   5.156  0.1690  0.3993 -0.2061
 3937ntf    nn320163   5.341   5.694   5.272  0.0076  0.0344 -0.1018
 3937ntf    sn220164   5.257   5.827   5.274 -0.1450 -0.0691  0.3210
 3937ntf    cn120165   5.347   5.933   5.392  0.0055 -0.2126  0.3350
 3937ntf    fn420166   5.640   5.699   5.277 -0.5919 -0.3157  0.2038
 3937ntf    fn420167   5.669   5.651   5.075 -0.4977  0.2275 -0.7826
 3937ntf    fn420168   5.580   5.840   5.139  0.0593  0.2354 -0.8339
 3937ntf    on520169   5.366   5.642   5.023 -0.1776 -0.5328 -0.1847
 3937ntf    on520170   5.456   5.491   5.192 -0.2110  0.3696  0.0459
 3937ntf    on520171   5.127   5.805   5.331 -0.0125 -0.0067  0.6506
 3937ntf    on520172   5.254   5.899   5.149 -0.1440 -0.3626  0.1508
 3937ntf    fn420173   5.462   5.977   5.344 -0.5439  0.1055 -0.7120
 3937ntf    fn420174   5.290   6.048   5.423  0.1014  0.0143 -0.3149
 3937ntf    fn420175   5.377   5.883   5.511 -0.2318  0.3071  0.6155
 3938ntf    cn120176   4.657   6.168   3.192 -0.0607 -0.5328  0.5351
 3938ntf    sn220177   4.548   6.249   3.313  0.2257  0.5855  0.0553
 3938ntf    nn320178   4.492   6.115   3.373  0.1725  0.6448  0.1361
 3938ntf    sn220179   4.558   6.034   3.490  0.0635  0.2511 -0.0756
 3938ntf    cn120180   4.489   5.875   3.436  0.2255  0.2304 -0.2228
 3938ntf    fn420181   4.659   6.227   3.074 -0.5154 -0.3936  0.5961
 3938ntf    fn420182   4.784   6.167   3.231  0.1757  0.2784 -0.1766
 3938ntf    fn420183   4.626   6.042   3.168 -0.1683 -0.3986 -0.0372
 3938ntf    on520184   4.633   6.322   3.405  0.5597 -0.2330  0.4087
 3938ntf    on520185   4.449   6.310   3.229  0.0920 -0.0159 -0.2310
 3938ntf    on520186   4.509   6.073   3.620  0.0303 -0.2838  0.0760
 3938ntf    on520187   4.700   6.013   3.478  0.0269  0.1555 -0.3576
 3938ntf    fn420188   4.513   5.843   3.310 -0.6631  0.5023 -0.4714
 3938ntf    fn420189   4.516   5.767   3.507 -0.2245 -0.1726 -0.6489
 3938ntf    fn420190   4.356   5.877   3.429  0.2397 -0.4155 -0.7573
 3939ntf    cn120191   2.664   2.015   5.735  0.1760  0.3225 -0.0229
 3939ntf    sn220192   2.516   1.922   5.683  0.2851  0.0673  0.1233
 3939ntf    nn320193   2.403   2.003   5.756  0.0411 -0.3103  0.1668
 3939ntf    sn220194   2.270   2.069   5.705  0.2912  0.4181  0.4456
 3939ntf    cn120195   2.323   2.243   5.693  0.5033  0.3274  0.0833
 3939ntf    fn420196   2.775   1.984   5.670  0.1505  0.3644 -0.0865
 3939ntf    fn420197   2.646   2.146   5.729 -1.1492  0.1470 -0.1355
 3939ntf    fn420198   2.671   1.993   5.865 -0.8419  0.0139 -0.0109
 3939ntf    on520199   2.509   1.918   5.539  0.0315  0.9564  0.1044
 3939ntf    on520200   2.526   1.793   5.747 -0.2368 -0.2573 -0.4440
 3939ntf    on520201   2.174   2.054   5.812 -0.4400 -0.4618 -0.3172
 3939ntf    on520202   2.224   2.043   5.571  0.0244  0.7930  0.4606
 3939ntf    fn420203   2.359   2.274   5.816 -0.5460 -0.2033  0.5360
 3939ntf    fn420204   2.428   2.248   5.613  0.3861  0.7133 -0.0472
 3939ntf    fn420205   2.227   2.330   5.666  0.6053  0.2882 -0.4283
 3940ntf    cn120206   4.151   4.031   3.012  0.4078 -0.0229  0.0858
 3940ntf    sn220207   4.096   4.125   3.159 -0.0842  0.1371 -0.1976
 3940ntf    nn320208   4.122   4.016   3.269 -0.0190  0.5524  0.1993
 3940ntf    sn220209   4.243   4.013   3.369  0.0648  0.2013  0.0889
 3940ntf    cn120210   4.172   3.904   3.495  0.3120  0.4333  0.4307
 3940ntf    fn420211   4.091   4.070   2.901 -0.7413 -0.1002  0.6656
 3940ntf    fn420212   4.282   4.039   2.997  0.3284 -0.0833 -0.6715
 3940ntf    fn420213   4.114   3.905   3.026 -0.4819  0.2097 -0.1255
 3940ntf    on520214   4.172   4.247   3.158  0.1036  0.0277  0.3818
 3940ntf    on520215   3.957   4.142   3.124 -0.0860 -0.1650 -0.3459
 3940ntf    on520216   4.263   4.133   3.446 -0.2762 -0.0447  0.5647
 3940ntf    on520217   4.362   3.943   3.329 -0.0974  0.0448 -0.1222
 3940ntf    fn420218   4.132   3.788   3.446 -0.1913  0.7162  0.1662
 3940ntf    fn420219   4.252   3.883   3.598 -0.1307  0.0060  0.6942
 3940ntf    fn420220   4.063   3.963   3.542  0.2257  0.2008  0.5297
 3941ntf    cn120221   6.352   6.569   6.284  0.1690 -0.3116 -0.1943
 3941ntf    sn220222   6.367   6.429   6.399 -0.1423 -0.1329  0.0613
 3941ntf    nn320223   6.357   6.508   6.535 -0.3433 -0.1720  0.0701
 3941ntf    sn220224   6.224   6.559   6.601 -0.0193  0.1794  0.4502
 3941ntf    cn120225   6.287   6.714   6.672  0.2484  0.2195  0.1298
 3941ntf    fn420226   6.426   6.550   6.176 -0.0595 -0.8345 -0.2636
 3941ntf    fn420227   6.227   6.590   6.246  0.1568 -0.0566 -0.0098
 3941ntf    fn420228   6.392   6.682   6.339 -0.0983 -0.3884  0.1577
 3941ntf    on520229   6.250   6.349   6.371 -0.2713  0.0413  0.0963
 3941ntf    on520230   6.502   6.382   6.379 -0.1447 -0.3079  0.4408
 3941ntf    on520231   6.186   6.478   6.714 -1.0441 -0.1460 -0.1231
 3941ntf    on520232   6.120   6.603   6.512  0.2295  0.3599  0.2455
 3941ntf    fn420233   6.395   6.693   6.745  0.0601 -0.4142  0.2278
 3941ntf    fn420234   6.309   6.815   6.590  0.5356  0.1146  0.0778
 3941ntf    fn420235   6.194   6.743   6.762  0.0521 -0.2053  0.0650
 3942ntf    cn120236   5.736   2.301   5.701  0.1173 -0.0274  0.1373
 3942ntf    sn220237   5.918   2.307   5.705  0.1129  0.3969 -0.2634
 3942ntf    nn320238   5.954   2.459   5.691  0.2635  0.3647 -0.2199
 3942ntf    sn220239   6.089   2.529   5.650  0.3085  0.1601 -0.4211
 3942ntf    cn120240   6.067   2.531   5.469 -0.1097 -0.1593 -0.3738
 3942ntf    fn420241   5.690   2.354   5.813 -0.0443  0.0881  0.0165
 3942ntf    fn420242   5.685   2.378   5.606 -0.0527 -0.0100  0.2415
 3942ntf    fn420243   5.684   2.179   5.706  0.5944 -0.2334  0.1646
 3942ntf    on520244   5.941   2.245   5.833 -0.1238 -0.1112 -0.4650
 3942ntf    on520245   5.960   2.223   5.596  0.4224  0.0092  0.1522
 3942ntf    on520246   6.208   2.452   5.677  0.1770  0.2830  0.5315
 3942ntf    on520247   6.092   2.669   5.683  0.0671  0.0370  0.1282
 3942ntf    fn420248   5.962   2.604   5.436 -0.5203 -0.6595 -0.2104
 3942ntf    fn420249   6.166   2.569   5.392 -0.0855 -0.1606 -0.3444
 3942ntf    fn420250   6.031   2.411   5.425  0.1590 -0.3643 -0.0452
 3943ntf    cn120251   0.660   6.932   6.239  0.4761  0.3541 -0.0811
 3943ntf    sn220252   0.737   6.916   6.403  0.1830  0.0802  0.0298
 3943ntf    nn320253   0.723   6.760   6.407  0.0292  0.0808 -0.4751
 3943ntf    sn220254   0.726   6.655   6.524  0.1271  0.1649 -0.4024
 3943ntf    cn120255   0.552   6.664   6.574  0.3132  0.4272  0.2035
 3943ntf    fn420256   0.536   6.888   6.239  0.5282  0.2096 -0.3165
 3943ntf    fn420257   0.651   7.060   6.206 -0.1815  0.4361  0.4101
 3943ntf    fn420258   0.717   6.870   6.137 -0.0944  0.1344 -0.2665
 3943ntf    on520259   0.872   6.951   6.367  0.2979 -0.0126  0.3617
 3943ntf    on520260   0.664   6.992   6.502 -0.0288 -0.6123  0.4126
 3943ntf    on520261   0.796   6.706   6.639  0.4156 -0.1007 -0.4571
 3943ntf    on520262   0.730   6.516   6.486 -0.2548  0.2140 -0.6266
 3943ntf    fn420263   0.469   6.657   6.471  0.1128  0.9021  0.3296
 3943ntf    fn420264   0.510   6.556   6.638  0.5499  0.1695 -0.0751
 3943ntf    fn420265   0.512   6.773   6.636  0.2498  0.5796 -0.1039
 3944ntf    cn120266   4.153   0.011   5.449 -0.4775  0.2779 -0.1079
 3944ntf    sn220267   4.048   0.122   5.548 -0.0801  0.4578  0.1120
 3944ntf    nn320268   4.081   0.079   5.695 -0.3138 -0.9357 -0.2238
 3944ntf    sn220269   4.227   0.075   5.754 -0.2263  0.2195 -0.3309
 3944ntf    cn120270   4.211   0.230   5.847 -0.3301  0.0589 -0.0821
 3944ntf    fn420271   4.279   0.041   5.422 -0.3635 -0.1646 -0.0760
 3944ntf    fn420272   4.157  -0.108   5.506 -0.0733  0.0328 -0.6294
 3944ntf    fn420273   4.100  -0.016   5.331 -0.4704  0.6353 -0.1941
 3944ntf    on520274   4.106   0.250   5.518  0.2780  0.2740  0.0117
 3944ntf    on520275   3.914   0.090   5.506  0.2472 -0.6515 -0.1388
 3944ntf    on520276   4.336   0.096   5.663 -0.5185  0.0349 -0.7298
 3944ntf    on520277   4.251  -0.029   5.851 -0.0546  0.3646 -0.2199
 3944ntf    fn420278   4.200   0.338   5.772 -0.3385  0.4684  0.5041
 3944ntf    fn420279   4.109   0.234   5.932 -0.2810  0.6063 -0.0461
 3944ntf    fn420280   4.317   0.251   5.923  0.0884  0.4269 -0.7651
 3945ntf    cn120281   7.351   0.579   2.066 -0.0740  0.3787  0.4351
 3945ntf    sn220282   7.479   0.459   2.020 -0.1572  0.3665  0.2310
 3945ntf    nn320283   7.416   0.395   1.892  0.6007 -0.1184  0.0905
 3945ntf    sn220284   7.429   0.249   1.836 -0.1032 -0.1312 -0.0511
 3945ntf    cn120285   7.273   0.170   1.888 -0.1945  0.1169  0.0559
 3945ntf    fn420286   7.353   0.666   1.966 -0.4610 -0.2702 -0.1434
 3945ntf    fn420287   7.227   0.534   2.081  0.1916 -0.4310  0.2439
 3945ntf    fn420288   7.380   0.651   2.174  0.1408  0.3108  0.4234
 3945ntf    on520289   7.593   0.544   1.994 -0.1913  0.1920 -0.4995
 3945ntf    on520290   7.479   0.390   2.147  0.5164  0.4174  0.2637
 3945ntf    on520291   7.522   0.157   1.898 -0.2919 -0.4792 -0.2800
 3945ntf    on520292   7.424   0.254   1.692 -0.4653 -1.2447 -0.0930
 3945ntf    fn420293   7.169   0.216   1.821  0.2818 -0.1693 -0.9113
 3945ntf    fn420294   7.277   0.038   1.877 -0.4631  0.0858  0.3230
 3945ntf    fn420295   7.251   0.206   2.013  0.0471  0.0694  0.1137
 3946ntf    cn120296   3.522   7.014   1.421  0.1060  0.2573  0.1656
 3946ntf    sn220297   3.341   7.023   1.438  0.0580 -0.2816 -0.0120
 3946ntf    nn320298   3.325   6.946   1.574 -0.0295  0.1894  0.2485
 3946ntf    sn220299   3.292   6.797   1.611 -0.0617  0.0683 -0.2584
 3946ntf    cn120300   3.115   6.807   1.647  0.0076 -0.0183  0.1142
 3946ntf    fn420301   3.558   6.889   1.447  0.1829  0.2316 -0.0633
 3946ntf    fn420302   3.562   7.053   1.301  0.0140  0.6564  0.2632
 3946ntf    fn420303   3.582   7.096   1.505  0.4252  0.2720 -0.0753
 3946ntf    on520304   3.325   7.166   1.456 -0.0010 -0.3032  0.1045
 3946ntf    on520305   3.288   6.966   1.317 -0.1411  0.0468 -0.0809
 3946ntf    on520306   3.350   6.761   1.738 -0.0800 -0.4131 -0.3852
 3946ntf    on520307   3.300   6.704   1.501  0.0909  0.2548 -0.4072
 3946ntf    fn420308   3.082   6.867   1.760 -0.3324 -0.0526  0.0370
 3946ntf    fn420309   3.064   6.894   1.560 -0.4492 -0.2477  0.1505
 3946ntf    fn420310   3.059   6.687   1.641 -0.1825  0.0622  0.2549
 3947ntf    cn120311   0.872   1.012   2.080  0.2918  0.1932  0.1616
 3947ntf    sn220312   0.743   1.097   2.175 -0.1204 -0.0517 -0.1775
 3947ntf    nn320313   0.641   1.125   2.058 -0.1432  0.4984 -0.0277
 3947ntf    sn220314   0.604   1.254   1.977 -0.3026  0.3735 -0.1521
 3947ntf    cn120315   0.468   1.315   2.081 -0.5468 -0.0918 -0.1954
 3947ntf    fn420316   0.874   0.880   2.091  0.4007  0.2295  0.6007
 3947ntf    fn420317   0.866   1.027   1.948  0.0558 -0.2206  0.1258
 3947ntf    fn420318   0.992   1.053   2.118  0.1624  0.1770  0.5878
 3947ntf    on520319   0.698   0.991   2.262  0.1599 -0.2151 -0.2297
 3947ntf    on520320   0.811   1.210   2.233 -0.3576  0.0191 -0.0331
 3947ntf    on520321   0.531   1.228   1.855 -0.4044  0.0642 -0.0264
 3947ntf    on520322   0.696   1.364   1.974 -0.0852  0.1967  0.0309
 3947ntf    fn420323   0.440   1.440   2.050  0.0549 -0.0202 -0.4703
 3947ntf    fn420324   0.358   1.242   2.077 -0.7218  0.1744 -0.2323
 3947ntf    fn420325   0.505   1.320   2.208 -0.3834 -0.1434 -0.2402
 3948ntf    cn120326   7.092   4.539   6.240 -0.4056 -0.3225 -0.2013
 3948ntf    sn220327   7.122   4.474   6.407 -0.2353  0.4185  0.0590
 3948ntf    nn320328   6.987   4.396   6.418  0.0994 -0.2270 -0.3057
 3948ntf    sn220329   6.866   4.417   6.517  0.0574 -0.0807 -0.3884
 3948ntf    cn120330   6.898   4.282   6.635  0.3514  0.2656 -0.0684
 3948ntf    fn420331   7.078   4.439   6.154  0.5078 -0.5585 -0.0874
 3948ntf    fn420332   6.980   4.609   6.239 -0.1844  0.0439  0.3874
 3948ntf    fn420333   7.190   4.605   6.180  0.0970 -1.0420 -0.1928
 3948ntf    on520334   7.244   4.402   6.378 -0.8909 -0.2714 -1.0411
 3948ntf    on520335   7.143   4.591   6.489 -0.3314  0.0260  0.6508
 3948ntf    on520336   6.730   4.391   6.478 -0.1854  0.3695  0.1437
 3948ntf    on520337   6.891   4.527   6.606 -0.4877 -0.1764 -0.1123
 3948ntf    fn420338   7.004   4.311   6.709  0.2665 -0.4446  0.3399
 3948ntf    fn420339   6.800   4.269   6.722  0.4197 -0.1801 -0.0535
 3948ntf    fn420340   6.916   4.162   6.581 -0.1292  0.2807 -0.2633
 3949ntf    cn120341   6.528   5.914   3.431  0.0223 -0.2257 -0.0725
 3949ntf    sn220342   6.391   6.026   3.387  0.1672  0.0781  0.2533
 3949ntf    nn320343   6.392   6.122   3.512 -0.5774 -0.0169  0.3328
 3949ntf    sn220344   6.269   6.168   3.598 -0.3751  0.1440  0.5353
 3949ntf    cn120345   6.248   6.031   3.715 -0.2195 -0.0196  0.3722
 3949ntf    fn420346   6.560   5.832   3.332 -0.5087 -0.4105 -0.0973
 3949ntf    fn420347   6.639   5.973   3.470  0.1912 -0.2576 -0.4945
 3949ntf    fn420348   6.488   5.835   3.529 -0.3765  0.2114  0.1242
 3949ntf    on520349   6.445   6.085   3.267 -1.0777  0.5803 -0.0781
 3949ntf    on520350   6.286   5.928   3.377 -0.2014  0.4290  0.6605
 3949ntf    on520351   6.143   6.169   3.528 -0.1211  0.1252  0.0719
 3949ntf    on520352   6.298   6.284   3.679  1.0310 -0.1386  0.4519
 3949ntf    fn420353   6.178   6.066   3.822  0.5523  0.6091  0.6838
 3949ntf    fn420354   6.193   5.927   3.655 -0.3741  0.0872  0.3277
 3949ntf    fn420355   6.364   5.991   3.767 -0.3694 -0.0550  0.6848
 3950ntf    cn120356   5.344   3.103   4.227  0.1984  0.1907 -0.3434
 3950ntf    sn220357   5.502   3.127   4.314 -0.0236  0.0032  0.1158
 3950ntf    nn320358   5.599   3.116   4.191 -0.7676  0.3181 -0.5093
 3950ntf    sn220359   5.707   3.223   4.156 -0.1761 -0.1446 -0.1169
 3950ntf    cn120360   5.835   3.129   4.067 -0.0158  0.2127 -0.2700
 3950ntf    fn420361   5.244   3.163   4.289  0.4357 -0.0463  0.2769
 3950ntf    fn420362   5.345   3.150   4.104 -0.2748  0.3139 -0.3030
 3950ntf    fn420363   5.312   2.974   4.219  0.2650  0.1344  0.2659
 3950ntf    on520364   5.488   3.253   4.385 -0.5166 -0.1478  0.2925
 3950ntf    on520365   5.501   3.009   4.397 -0.8274 -0.1201 -0.0559
 3950ntf    on520366   5.783   3.277   4.267  0.0294  0.0832 -0.3651
 3950ntf    on520367   5.654   3.322   4.065 -0.0191 -0.0224 -0.0765
 3950ntf    fn420368   5.889   3.036   4.144 -0.3401  0.5829  0.4144
 3950ntf    fn420369   5.789   3.066   3.960 -0.1141 -0.2352  0.0330
 3950ntf    fn420370   5.939   3.192   4.016 -0.2818  0.1066 -0.9496
 3951ntf    cn120371   0.810   4.753   3.826 -0.5157 -0.1761 -0.1753
 3951ntf    sn220372   0.819   4.571   3.817 -0.0744 -0.1514 -0.2444
 3951ntf    nn320373   0.972   4.541   3.799 -0.0209  0.4919 -0.8965
 3951ntf    sn220374   1.039   4.452   3.689  0.2336 -0.2659 -0.1365
 3951ntf    cn120375   1.031   4.572   3.553  0.0877 -0.3024 -0.1600
 3951ntf    fn420376   0.864   4.801   3.936 -0.7522 -0.0651 -0.1071
 3951ntf    fn420377   0.887   4.800   3.729 -0.2962  0.3551  0.2539
 3951ntf    fn420378   0.689   4.806   3.812 -0.2741  0.3586 -0.2371
 3951ntf    on520379   0.777   4.532   3.949  0.8010  0.9250  0.3719
 3951ntf    on520380   0.731   4.536   3.708 -0.2058 -0.6807  0.0289
 3951ntf    on520381   0.967   4.340   3.633 -0.0197 -0.3203  0.2989
 3951ntf    on520382   1.181   4.444   3.712  0.1890 -0.1960  0.1649
 3951ntf    fn420383   0.906   4.582   3.512 -0.0678  0.3110  0.4523
 3951ntf    fn420384   1.064   4.696   3.587 -0.4211 -0.1609 -0.1661
 3951ntf    fn420385   1.095   4.533   3.443  0.2128  0.1526 -0.2529
 3952ntf    cn120386   3.355   1.477   6.834 -0.4460  0.4471 -0.1435
 3952ntf    sn220387   3.455   1.585   6.727 -0.0686  0.2604  0.0188
 3952ntf    nn320388   3.355   1.688   6.664  0.3672  0.4968 -0.2900
 3952ntf    sn220389   3.271   1.669   6.533  0.0548  0.6335 -0.1126
 3952ntf    cn120390   3.380   1.763   6.422  0.1188  0.2547 -0.3713
 3952ntf    fn420391   3.427   1.413   6.925 -0.4907  0.5003 -0.0712
 3952ntf    fn420392   3.270   1.543   6.911 -0.3768  0.4381 -0.0592
 3952ntf    fn420393   3.292   1.374   6.780  0.3785 -0.2491  0.1967
 3952ntf    on520394   3.540   1.653   6.822  0.4385  0.2894 -0.4506
 3952ntf    on520395   3.536   1.502   6.641 -0.9961 -0.2044 -0.4202
 3952ntf    on520396   3.150   1.747   6.523 -0.3115 -0.0373 -0.9752
 3952ntf    on520397   3.267   1.535   6.481  0.4265  0.4695  0.2791
 3952ntf    fn420398   3.328   1.780   6.301  0.1953 -0.6623 -0.5378
 3952ntf    fn420399   3.399   1.884   6.472  0.1138 -0.1543  0.6451
 3952ntf    fn420400   3.500   1.710   6.407  0.1295  0.2088 -0.1165
 3953ntf    cn120401   3.374   4.204   4.688 -0.1224  0.0136 -0.2081
 3953ntf    sn220402   3.257   4.065   4.684  0.0007 -0.0877 -0.3002
 3953ntf    nn320403   3.254   4.014   4.833 -0.2694 -0.1537 -0.3291
 3953ntf    sn220404   3.137   4.007   4.938 -0.2872 -0.1712 -0.3502
 3953ntf    cn120405   3.064   3.848   4.889 -0.2841 -0.2115 -0.2278
 3953ntf    fn420406   3.354   4.289   4.788  0.2638 -0.0266 -0.0956
 3953ntf    fn420407   3.504   4.180   4.679 -0.1369 -0.0709 -0.1901
 3953ntf    fn420408   3.344   4.273   4.579  0.4595  0.1245 -0.3003
 3953ntf    on520409   3.132   4.107   4.626 -0.1723  0.0869  0.1848
 3953ntf    on520410   3.332   3.972   4.603  0.4053 -0.3416  0.3516
 3953ntf    on520411   3.036   4.108   4.917 -0.2123  0.0682  0.4197
 3953ntf    on520412   3.177   3.981   5.074 -0.1067  0.3106 -0.3091
 3953ntf    fn420413   3.028   3.840   4.762 -0.2981 -0.0243 -0.2356
 3953ntf    fn420414   3.148   3.749   4.913 -0.4698 -0.2343  0.3356
 3953ntf    fn420415   2.951   3.827   4.955  0.0291  0.2133  0.4501
 3954ntf    cn120416   7.355   2.644   3.024  0.0707  0.7815  0.0542
 3954ntf    sn220417   7.247   2.556   2.908  0.3726  0.3095  0.1292
 3954ntf    nn320418   7.184   2.462   3.018  0.2859  0.4030  0.1602
 3954ntf    sn220419   7.048   2.474   3.094  0.0868  0.0458 -0.1392
 3954ntf    cn120420   6.952   2.346   3.007 -0.2409  0.2433 -0.0733
 3954ntf    fn420421   7.381   2.769   2.988  0.2363  0.6018 -0.4448
 3954ntf    fn420422   7.316   2.658   3.150  0.0217  0.3655  0.0845
 3954ntf    fn420423   7.469   2.578   3.026 -0.2850  0.1656  0.1897
 3954ntf    on520424   7.159   2.660   2.862  0.2861 -0.0498 -0.5339
 3954ntf    on520425   7.333   2.492   2.812  0.1277  0.0684  0.0691
 3954ntf    on520426   6.970   2.596   3.089 -0.0900 -0.0826 -0.5933
 3954ntf    on520427   7.058   2.420   3.227 -0.2719 -0.2689 -0.2349
 3954ntf    fn420428   7.000   2.224   3.026 -0.1682  0.3107  0.1769
 3954ntf    fn420429   6.823   2.345   3.033 -0.3734 -0.6170 -0.7282
 3954ntf    fn420430   6.956   2.354   2.875  0.1003  0.2913 -0.0624
 3955ntf    cn120431   3.307   4.350   6.222 -0.1998  0.0641  0.2567
 3955ntf    sn220432   3.402   4.504   6.226 -0.0235 -0.0339 -0.1227
 3955ntf    nn320433   3.432   4.516   6.072  0.6801  0.5718  0.0537
 3955ntf    sn220434   3.365   4.598   5.956 -0.0037  0.0383  0.0649
 3955ntf    cn120435   3.418   4.502   5.811  0.2716  0.5541 -0.1775
 3955ntf    fn420436   3.258   4.308   6.338  0.0826  0.0899  0.3876
 3955ntf    fn420437   3.206   4.347   6.137 -0.0995 -0.4521  0.1523
 3955ntf    fn420438   3.381   4.245   6.189  0.2328  0.3312  0.3730
 3955ntf    on520439   3.313   4.599   6.288 -0.2697 -0.1528 -0.2933
 3955ntf    on520440   3.520   4.479   6.306 -0.3225 -0.4357  0.1962
 3955ntf    on520441   3.424   4.729   5.940  0.6179 -0.2337  0.0867
 3955ntf    on520442   3.222   4.591   5.946 -0.0296  0.3150  0.2149
 3955ntf    fn420443   3.375   4.379   5.828  1.0525  0.3147  0.1454
 3955ntf    fn420444   3.372   4.551   5.697 -0.1482  0.1816 -0.1678
 3955ntf    fn420445   3.548   4.488   5.791  0.1828 -0.1154 -0.3108
 3956ntf    cn120446   6.604   2.185   0.969 -0.1441  0.2397 -0.2247
 3956ntf    sn220447   6.726   2.107   1.079 -0.1800  0.2460 -0.1812
 3956ntf    nn320448   6.675   1.958   1.077 -0.1550  0.2289  0.4350
 3956ntf    sn220449   6.728   1.836   0.994 -0.0871  0.3871  0.2454
 3956ntf    cn120450   6.873   1.797   1.095 -0.1254 -0.5252 -0.0451
 3956ntf    fn420451   6.639   2.310   0.945  0.1342  0.0889 -0.6313
 3956ntf    fn420452   6.589   2.132   0.848 -0.2132 -0.5858  0.1415
 3956ntf    fn420453   6.484   2.173   1.022  0.0685  0.0531  0.2237
 3956ntf    on520454   6.857   2.124   1.020 -0.1606 -0.2527 -0.2909
 3956ntf    on520455   6.708   2.165   1.209  0.1117 -0.7349  0.3143
 3956ntf    on520456   6.786   1.865   0.865  0.2119 -0.2034  0.2436
 3956ntf    on520457   6.645   1.719   1.012  0.0534  0.2633  0.0923
 3956ntf    fn420458   6.841   1.791   1.223  0.0076 -0.1524  0.0043
 3956ntf    fn420459   6.936   1.684   1.065  0.0646 -0.4606  0.1101
 3956ntf    fn420460   6.960   1.896   1.084 -0.5079 -0.1833  0.0038
 3957ntf    cn120461   0.759   2.574   7.133 -0.4993 -0.3454  0.1203
 3957ntf    sn220462   0.835   2.410   7.148 -0.1184 -0.1794 -0.0035
 3957ntf    nn320463   0.944   2.443   7.257 -0.2262  0.3364 -0.0497
 3957ntf    sn220464   0.925   2.427   7.412 -0.0110  0.3344 -0.0241
 3957ntf    cn120465   1.000   2.264   7.435  0.1632  0.3772 -0.2817
 3957ntf    fn420466   0.647   2.570   7.063 -0.1680  0.0628 -0.4342
 3957ntf    fn420467   0.725   2.627   7.250 -0.5593  0.3520 -0.2102
 3957ntf    fn420468   0.839   2.667   7.085 -0.3366 -0.4797  0.1299
 3957ntf    on520469   0.729   2.325   7.196  0.0122 -0.1002  0.4329
 3957ntf    on520470   0.901   2.384   7.022 -0.4326 -0.2382 -0.1573
 3957ntf    on520471   0.789   2.418   7.459  0.1014  0.1998  0.2778
 3957ntf    on520472   1.025   2.506   7.480  0.8474 -0.0234 -0.8399
 3957ntf    fn420473   1.068   2.261   7.549  0.1243 -0.0820 -0.2671
 3957ntf    fn420474   0.907   2.170   7.434  0.3334  0.2049 -0.1394
 3957ntf    fn420475   1.083   2.226   7.338 -0.0310 -0.5414 -0.1035
 3958ntf    cn120476   7.084   3.226   5.257  0.0668  0.3208 -0.0058
 3958ntf    sn220477   7.181   3.073   5.268 -0.0707  0.2533  0.2848
 3958ntf    nn320478   7.314   3.123   5.201 -0.0244 -0.0826  0.1188
 3958ntf    sn220479   7.443   3.044   5.159 -0.1592 -0.3038  0.1200
 3958ntf    cn120480   7.539   3.050   5.313  0.3839  0.0431 -0.2277
 3958ntf    fn420481   7.157   3.331   5.225  0.3449  0.2396  0.3648
 3958ntf    fn420482   6.998   3.209   5.157 -0.0179  0.2688  0.0760
 3958ntf    fn420483   7.022   3.249   5.371 -0.6372 -0.0649 -0.2996
 3958ntf    on520484   7.200   3.046   5.408  0.0280 -0.2958  0.1709
 3958ntf    on520485   7.113   2.970   5.193  0.0893  0.4040 -0.0710
 3958ntf    on520486   7.524   3.120   5.067  0.1443 -0.4974  0.2265
 3958ntf    on520487   7.425   2.904   5.132 -0.0549 -0.1879 -0.5675
 3958ntf    fn420488   7.542   3.171   5.366  0.4902  0.1846 -0.5566
 3958ntf    fn420489   7.507   2.954   5.399  0.4538 -0.0881 -0.3473
 3958ntf    fn420490   7.668   3.029   5.291  0.3147 -0.3889 -0.2313
 3959ntf    cn120491   2.859   2.382   6.104  0.0359 -0.1730 -0.1287
 3959ntf    sn220492   2.835   2.544   6.183  0.0986 -0.2798  0.1087
 3959ntf    nn320493   2.680   2.548   6.208  0.1507  0.0368  0.3854
 3959ntf    sn220494   2.571   2.612   6.115 -0.0117 -0.2666  0.3672
 3959ntf    cn120495   2.440   2.489   6.146 -0.2371 -0.2273 -0.4181
 3959ntf    fn420496   2.802   2.280   6.165 -0.9269 -0.2531 -1.1260
 3959ntf    fn420497   2.818   2.391   5.978 -0.0171  0.6401 -0.0577
 3959ntf    fn420498   2.988   2.350   6.098  0.0097 -0.2016 -0.5770
 3959ntf    on520499   2.911   2.540   6.306  0.7869  0.8619 -0.2701
 3959ntf    on520500   2.890   2.634   6.085  0.1738 -0.4166  0.0238
 3959ntf    on520501   2.598   2.598   5.974 -0.3057  0.5131  0.2306
 3959ntf    on520502   2.504   2.729   6.166 -0.2730 -0.3107  0.1302
 3959ntf    fn420503   2.414   2.480   6.275 -0.4483 -0.1773 -0.4576
 3959ntf    fn420504   2.328   2.530   6.088 -0.3714  0.1832  0.1182
 3959ntf    fn420505   2.472   2.366   6.108 -0.5387 -0.4332 -0.0050
 3960ntf    cn120506   1.295   5.540   0.718 -0.0022  0.4195  0.2360
 3960ntf    sn220507   1.182   5.673   0.770 -0.4568  0.1626 -0.0919
 3960ntf    nn320508   1.078   5.672   0.652 -0.2401  0.0895 -0.2843
 3960ntf    sn220509   1.073   5.748   0.515  0.0125  0.1017 -0.2877
 3960ntf    cn120510   0.971   5.636   0.414  0.0763 -0.0458 -0.1904
 3960ntf    fn420511   1.421   5.553   0.758  0.3643 -0.8527 -0.4637
 3960ntf    fn420512   1.260   5.423   0.768  0.4138  0.1517 -0.0991
 3960ntf    fn420513   1.293   5.528   0.587  0.0258 -0.4679  0.3127
 3960ntf    on520514   1.139   5.612   0.893  0.5441 -0.7382 -0.1739
 3960ntf    on520515   1.278   5.781   0.779 -0.3710  0.0073  0.9587
 3960ntf    on520516   1.200   5.744   0.446  0.1847 -0.6559  0.0674
 3960ntf    on520517   1.005   5.875   0.509  0.3256  0.2966  0.2456
 3960ntf    fn420518   1.027   5.517   0.400  0.1180 -0.0847  0.3219
 3960ntf    fn420519   0.848   5.630   0.461  0.0689  0.0402 -0.1971
 3960ntf    fn420520   0.964   5.689   0.292 -0.1773 -0.3389 -0.3040
 3961ntf    cn120521   0.128   6.445   3.705 -0.0346  0.1536 -0.1717
 3961ntf    sn220522   0.086   6.548   3.848  0.1158 -0.0853  0.0457
 3961ntf    nn320523  -0.022   6.638   3.777  0.1573  0.2781  0.4373
 3961ntf    sn220524  -0.177   6.633   3.758  0.1751 -0.0101  0.3696
 3961ntf    cn120525  -0.243   6.776   3.848 -0.0150  0.0338  0.1630
 3961ntf    fn420526   0.225   6.361   3.736 -0.1704  0.2097  0.4153
 3961ntf    fn420527   0.031   6.366   3.662  0.4279 -0.2057 -0.5682
 3961ntf    fn420528   0.169   6.518   3.603  0.1995  0.5522  0.2095
 3961ntf    on520529   0.040   6.449   3.942  0.1390  0.2450  0.4129
 3961ntf    on520530   0.204   6.625   3.881  0.1306 -0.2214  0.3133
 3961ntf    on520531  -0.233   6.522   3.831 -0.0274 -0.2909 -0.2050
 3961ntf    on520532  -0.218   6.653   3.621  0.2031  0.5609  0.4435
 3961ntf    fn420533  -0.204   6.770   3.974  0.1906 -0.0161  0.0975
 3961ntf    fn420534  -0.204   6.890   3.792  0.5377  0.1231  0.7229
 3961ntf    fn420535  -0.375   6.784   3.847 -0.0405 -0.3874  0.2951
 3962ntf    cn120536   3.482   3.630   2.374  0.0997  0.3404  0.0500
 3962ntf    sn220537   3.448   3.457   2.418  0.2423  0.3300  0.1222
 3962ntf    nn320538   3.593   3.411   2.457  0.2211  0.1263 -0.0337
 3962ntf    sn220539   3.661   3.410   2.598  0.0180  0.1282  0.0644
 3962ntf    cn120540   3.617   3.244   2.656  0.1652  0.0867  0.0580
 3962ntf    fn420541   3.367   3.691   2.354 -0.1875 -0.4118 -0.6224
 3962ntf    fn420542   3.550   3.699   2.465 -0.5888  0.4595  0.4826
 3962ntf    fn420543   3.556   3.643   2.265  0.1420 -0.0371  0.0313
 3962ntf    on520544   3.349   3.468   2.522 -0.3227  0.8490 -0.4577
 3962ntf    on520545   3.409   3.398   2.292 -0.7146  0.4246  0.3655
 3962ntf    on520546   3.600   3.496   2.696 -0.1498  0.3202 -0.2086
 3962ntf    on520547   3.805   3.402   2.605 -0.0437 -0.2825  1.0189
 3962ntf    fn420548   3.659   3.210   2.777  0.0484  0.1199  0.1085
 3962ntf    fn420549   3.485   3.228   2.655  0.2194 -0.3846  0.0460
 3962ntf    fn420550   3.660   3.153   2.570  0.2652  0.1518  0.0388
 3963ntf    cn120551   5.448   4.977   5.324  0.3365 -0.0682  0.0920
 3963ntf    sn220552   5.300   5.020   5.227  0.3568  0.4979  0.3073
 3963ntf    nn320553   5.220   4.885   5.233  0.1377  0.5798 -0.5853
 3963ntf    sn220554   5.109   4.834   5.332  0.7463 -0.1347 -0.2684
 3963ntf    cn120555   5.181   4.676   5.388  0.3508 -0.2775 -0.1595
 3963ntf    fn420556   5.411   4.930   5.442 -0.4139  0.7090  0.1811
 3963ntf    fn420557   5.527   4.888   5.267 -0.1314 -0.7322  0.4633
 3963ntf    fn420558   5.523   5.079   5.362  0.5688 -0.0517 -0.4011
 3963ntf    on520559   5.253   5.138   5.295  0.6494  0.5783  0.3728
 3963ntf    on520560   5.352   5.037   5.094 -0.3636 -0.3691 -0.0986
 3963ntf    on520561   4.994   4.792   5.256  0.1895 -0.2175  0.5998
 3963ntf    on520562   5.090   4.916   5.450  0.3981 -0.4098 -0.1329
 3963ntf    fn420563   5.300   4.685   5.446  0.2886  0.1136 -0.0872
 3963ntf    fn420564   5.110   4.601   5.471  0.0045 -0.1557 -0.3421
 3963ntf    fn420565   5.206   4.597   5.286  0.1425  0.0468 -0.4627
 3964ntf    cn120566   5.007   4.107   6.053 -0.0305 -0.0798 -0.2805
 3964ntf    sn220567   4.992   4.279   6.111 -0.0331 -0.0870 -0.2608
 3964ntf    nn320568   5.050   4.356   5.987 -0.0734  0.1800 -0.1126
 3964ntf    sn220569   5.196   4.402   5.956  0.1104 -0.2386  0.1295
 3964ntf    cn120570   5.217   4.353   5.782  0.0970  0.1294  0.0235
 3964ntf    fn420571   5.128   4.077   6.009 -0.0104 -0.3643 -0.0352
 3964ntf    fn420572   4.969   4.021   6.146  0.1979  0.5963  0.4507
 3964ntf    fn420573   4.929   4.085   5.948 -0.4290 -0.0729  0.0085
 3964ntf    on520574   4.850   4.294   6.130  0.1299  0.8653  0.2675
 3964ntf    on520575   5.072   4.278   6.231  0.0386  0.2543 -0.3050
 3964ntf    on520576   5.299   4.324   6.020 -0.0489 -0.4345  0.1471
 3964ntf    on520577   5.209   4.546   5.958 -0.3352 -0.1931 -0.1266
 3964ntf    fn420578   5.108   4.360   5.707  0.2224 -0.2616 -0.1988
 3964ntf    fn420579   5.314   4.421   5.725 -0.0083 -0.3118 -0.7021
 3964ntf    fn420580   5.248   4.225   5.782 -0.3574  0.0160 -0.0914
 3965ntf    cn120581   4.091   5.366   3.937 -0.0698 -0.0106  0.2794
 3965ntf    sn220582   4.131   5.439   3.775 -0.0212 -0.3436  0.1400
 3965ntf    nn320583   4.128   5.589   3.822 -0.0882 -0.0544 -0.7695
 3965ntf    sn220584   4.005   5.686   3.820 -0.1869 -0.1412  0.2034
 3965ntf    cn120585   4.008   5.751   3.650  0.1362 -0.1067  0.2220
 3965ntf    fn420586   4.105   5.235   3.941 -0.6300 -0.0949 -0.2844
 3965ntf    fn420587   4.172   5.414   4.029  0.5908  0.1737 -0.3887
 3965ntf    fn420588   3.967   5.388   3.978 -0.1214 -0.0436  0.1408
 3965ntf    on520589   4.268   5.400   3.751  0.0947  0.3872 -0.4101
 3965ntf    on520590   4.024   5.392   3.691  0.0252 -0.0923 -0.0571
 3965ntf    on520591   4.038   5.798   3.904 -0.4480  0.5598 -0.6114
 3965ntf    on520592   3.874   5.629   3.841 -0.3344  0.0005 -0.3112
 3965ntf    fn420593   4.021   5.653   3.562  0.2491  0.5022 -0.4490
 3965ntf    fn420594   3.900   5.820   3.617  0.1004  0.0212  0.6126
 3965ntf    fn420595   4.112   5.829   3.627  0.1286 -0.1246  0.1267
 3966ntf    cn120596   0.745   7.326   1.282 -0.1034  0.0152  0.4920
 3966ntf    sn220597   0.662   7.190   1.195  0.3434 -0.0043  0.0890
 3966ntf    nn320598   0.540   7.263   1.128  0.3043  0.2677  0.4498
 3966ntf    sn220599   0.492   7.301   0.983  0.2999 -0.2839  0.3013
 3966ntf    cn120600   0.377   7.165   0.949 -0.1908  0.1634  0.1599
 3966ntf    fn420601   0.668   7.386   1.371  0.2472  0.2204  0.6635
 3966ntf    fn420602   0.852   7.293   1.354 -0.2122  0.1868  0.7319
 3966ntf    fn420603   0.784   7.408   1.186 -0.0561  0.2850  0.7389
 3966ntf    on520604   0.760   7.138   1.103  0.0369  0.4425 -0.4893
 3966ntf    on520605   0.617   7.102   1.301 -0.8632  0.2310 -0.2166
 3966ntf    on520606   0.587   7.282   0.876  0.3192 -0.3761  0.3352
 3966ntf    on520607   0.410   7.420   0.980  0.1463 -0.3834  0.5504
 3966ntf    fn420608   0.411   7.051   1.007 -1.0385 -0.0906  0.1660
 3966ntf    fn420609   0.256   7.199   0.990 -0.0675 -0.1795  0.8233
 3966ntf    fn420610   0.366   7.140   0.820  0.2364 -0.3169  0.2127
 3967ntf    cn120611   2.399   0.497   1.524  0.0798  0.2441  0.0722
 3967ntf    sn220612   2.457   0.551   1.687  0.2988 -0.3083  0.1814
 3967ntf    nn320613   2.497   0.414   1.752  1.0394  0.1291  0.6653
 3967ntf    sn220614   2.414   0.328   1.854  0.1713 -0.3099 -0.3973
 3967ntf    cn120615   2.500   0.377   2.006 -0.2499 -0.3027 -0.1614
 3967ntf    fn420616   2.493   0.427   1.464  0.4741  0.0272  0.9231
 3967ntf    fn420617   2.299   0.413   1.547  0.0988  0.2405  0.1419
 3967ntf    fn420618   2.354   0.593   1.446 -0.2258  0.0622  0.0195
 3967ntf    on520619   2.577   0.627   1.661 -0.1683  0.2164 -0.4730
 3967ntf    on520620   2.343   0.623   1.740  0.8673  0.0725  0.9253
 3967ntf    on520621   2.464   0.193   1.841  0.5273 -0.1661 -0.5463
 3967ntf    on520622   2.274   0.361   1.866  0.2270 -0.1304 -0.2485
 3967ntf    fn420623   2.628   0.346   1.999 -0.0632  0.4136 -0.0454
 3967ntf    fn420624   2.489   0.508   2.021  0.3454 -0.3055  0.3682
 3967ntf    fn420625   2.455   0.317   2.115 -0.1346  0.1525  0.1390
 3968ntf    cn120626   7.295   0.813   2.927 -0.2006  0.2199  0.1602
 3968ntf    sn220627   7.436   0.844   2.816  0.0004 -0.0821  0.3303
 3968ntf    nn320628   7.528   0.933   2.907 -0.0458  0.1949  0.1071
 3968ntf    sn220629   7.675   0.919   2.959  0.1534  0.6694 -0.3179
 3968ntf    cn120630   7.639   0.859   3.127  0.1370  0.4236 -0.4080
 3968ntf    fn420631   7.332   0.744   3.034 -0.1017  0.4742  0.2913
 3968ntf    fn420632   7.241   0.927   2.968  0.5642  0.6292  0.0627
 3968ntf    fn420633   7.202   0.748   2.860 -0.6325  0.1734  0.7930
 3968ntf    on520634   7.490   0.712   2.792 -0.6384 -0.2500 -0.2202
 3968ntf    on520635   7.383   0.916   2.703 -0.0599  0.1069  0.4775
 3968ntf    on520636   7.738   1.048   2.970  0.4442  0.5377 -0.4103
 3968ntf    on520637   7.748   0.810   2.898  0.0741 -0.0320  0.8049
 3968ntf    fn420638   7.543   0.925   3.190  0.0720 -0.0683  0.0138
 3968ntf    fn420639   7.584   0.739   3.130  0.0457  0.4747  0.2120
 3968ntf    fn420640   7.739   0.851   3.213  0.0830  0.2697 -0.3602
 3969ntf    cn120641   3.079   1.760   2.519  0.2978  0.0331 -0.0238
 3969ntf    sn220642   2.927   1.719   2.428  0.2800  0.0068  0.0174
 3969ntf    nn320643   2.843   1.661   2.547 -0.0000 -0.0661 -0.2145
 3969ntf    sn220644   2.814   1.509   2.575  0.2600 -0.0435  0.1823
 3969ntf    cn120645   2.802   1.507   2.757 -0.2031  0.2016  0.1566
 3969ntf    fn420646   3.123   1.653   2.582  0.2523 -0.0399 -0.1157
 3969ntf    fn420647   3.182   1.804   2.449 -0.1756  0.4071 -0.4888
 3969ntf    fn420648   3.059   1.854   2.611  0.0534 -0.0816  0.0420
 3969ntf    on520649   2.891   1.853   2.391  0.3240 -0.0640 -0.2854
 3969ntf    on520650   2.983   1.629   2.330  0.7100  0.2142  0.0722
 3969ntf    on520651   2.921   1.417   2.545  0.7696  0.4180  0.5410
 3969ntf    on520652   2.683   1.477   2.525  0.2050  0.1778  0.1840
 3969ntf    fn420653   2.714   1.592   2.807  0.0127  0.2882  0.3914
 3969ntf    fn420654   2.749   1.391   2.791 -0.0854  0.0176 -0.2775
 3969ntf    fn420655   2.922   1.504   2.812 -0.1201 -0.2867 -0.0437
 3970ntf    cn120656   5.217   6.955   1.128 -0.0854  0.8140  0.2410
 3970ntf    sn220657   5.235   6.886   1.295  0.0645 -0.0660 -0.1329
 3970ntf    nn320658   5.129   6.771   1.295  0.2531 -0.2406 -0.1118
 3970ntf    sn220659   5.038   6.724   1.414 -0.2425  0.3565 -0.2510
 3970ntf    cn120660   4.892   6.831   1.406 -0.0686  0.6182  0.0427
 3970ntf    fn420661   5.298   7.057   1.105  0.0030  0.7725  0.3681
 3970ntf    fn420662   5.244   6.866   1.033 -0.0480  0.4357  0.6025
 3970ntf    fn420663   5.093   6.994   1.101 -0.1342  0.1252 -0.5570
 3970ntf    on520664   5.371   6.836   1.293 -0.0283 -0.3232 -0.1347
 3970ntf    on520665   5.202   6.997   1.381  0.0979 -0.4193  0.3445
 3970ntf    on520666   5.092   6.745   1.547 -0.2661 -0.1463 -0.1604
 3970ntf    on520667   4.983   6.594   1.387 -0.2181  0.2656  0.1301
 3970ntf    fn420668   4.804   6.802   1.311  0.6874 -0.2886 -0.3968
 3970ntf    fn420669   4.831   6.835   1.523  0.0728  0.1692  0.1325
 3970ntf    fn420670   4.924   6.958   1.383  0.4591  0.5103  0.1736
 3971ntf    cn120671   6.045   2.511   6.947  0.1026 -0.3042 -0.0174
 3971ntf    sn220672   6.211   2.574   6.910 -0.0153  0.0593  0.0642
 3971ntf    nn320673   6.272   2.470   6.808  0.5087  0.0311  0.4006
 3971ntf    sn220674   6.416   2.410   6.792  0.4627  0.0253  0.0102
 3971ntf    cn120675   6.444   2.301   6.934 -0.3470 -0.0480  0.1204
 3971ntf    fn420676   5.968   2.612   6.984 -0.0548 -0.3251 -0.2840
 3971ntf    fn420677   5.986   2.472   6.835  0.1409  0.2715 -0.2405
 3971ntf    fn420678   6.047   2.416   7.039 -0.5908 -0.2476  0.0591
 3971ntf    on520679   6.185   2.703   6.852 -0.0032  0.3145  0.6195
 3971ntf    on520680   6.261   2.562   7.045 -0.0965 -0.3510  0.0608
 3971ntf    on520681   6.519   2.511   6.793 -0.1993  0.7124  0.3587
 3971ntf    on520682   6.432   2.326   6.676 -0.4648  0.0149 -0.1175
 3971ntf    fn420683   6.549   2.221   6.922 -0.3916 -0.0442 -0.2900
 3971ntf    fn420684   6.461   2.376   7.042 -0.1099  0.1630 -0.0619
 3971ntf    fn420685   6.346   2.217   6.962  0.1818 -0.7352 -0.0571
 3972ntf    cn120686   4.548   3.782   5.482  0.4306  0.3092  0.2779
 3972ntf    sn220687   4.616   3.662   5.364  0.0806  0.1824  0.2046
 3972ntf    nn320688   4.475   3.604   5.327 -0.1158  0.7966 -0.0235
 3972ntf    sn220689   4.435   3.530   5.194  0.1310 -0.2417  0.4721
 3972ntf    cn120690   4.333   3.663   5.125 -0.0442 -0.6524 -0.0713
 3972ntf    fn420691   4.648   3.838   5.549  0.1331  0.2503  0.7735
 3972ntf    fn420692   4.483   3.884   5.427  0.2672 -0.1022 -0.2928
 3972ntf    fn420693   4.472   3.736   5.580 -0.0507 -0.3212 -0.3861
 3972ntf    on520694   4.673   3.752   5.267 -0.2283  0.2029  0.0424
 3972ntf    on520695   4.702   3.576   5.443 -0.3814 -0.0594  0.4479
 3972ntf    on520696   4.345   3.418   5.199  0.2348 -0.3948 -0.7671
 3972ntf    on520697   4.540   3.509   5.097 -0.3196  0.1584 -0.1020
 3972ntf    fn420698   4.402   3.773   5.102 -0.3979 -0.3945  0.0842
 3972ntf    fn420699   4.286   3.623   5.008 -0.1492  0.0692 -0.2825
 3972ntf    fn420700   4.225   3.677   5.201 -0.0134  0.0997 -0.1538
 3973ntf    cn120701   3.852   5.505   2.901  0.3464 -0.1202 -0.1052
 3973ntf    sn220702   3.827   5.650   2.795  0.3824 -0.0623 -0.0340
 3973ntf    nn320703   3.918   5.608   2.674  0.0021  0.0348 -0.3551
 3973ntf    sn220704   3.888   5.611   2.520 -0.0573  0.0338 -0.3437
 3973ntf    cn120705   4.052   5.650   2.451  0.2572  0.2185  0.5011
 3973ntf    fn420706   3.981   5.486   2.924  0.3551  0.1299  0.0480
 3973ntf    fn420707   3.789   5.525   3.015  0.1163  0.1497 -0.2782
 3973ntf    fn420708   3.803   5.390   2.856 -0.0999  0.0346 -0.0164
 3973ntf    on520709   3.685   5.639   2.777  0.4180  0.0426 -0.4015
 3973ntf    on520710   3.879   5.761   2.871 -0.8625  0.4139  0.1403
 3973ntf    on520711   3.804   5.723   2.485 -0.3217 -0.0466  0.0294
 3973ntf    on520712   3.843   5.485   2.465 -0.5133  0.1482 -0.2337
 3973ntf    fn420713   4.143   5.562   2.491 -0.0031 -0.1790  0.2203
 3973ntf    fn420714   4.063   5.636   2.320  0.0715 -0.3437  0.5415
 3973ntf    fn420715   4.096   5.770   2.484 -0.2177  0.3297  0.7289
 3974ntf    cn120716   0.227   4.820   5.010  0.6443 -0.0799 -0.0961
 3974ntf    sn220717   0.137   4.979   5.002 -0.0005 -0.4501 -0.2962
 3974ntf    nn320718   0.062   4.949   4.867  0.2630  0.1993 -0.5914
 3974ntf    sn220719  -0.087   4.911   4.836  0.1428  0.0568  0.1340
 3974ntf    cn120720  -0.113   4.992   4.675 -0.0902 -0.0218  0.1308
 3974ntf    fn420721   0.135   4.727   4.993  0.0692  0.4971 -0.2206
 3974ntf    fn420722   0.318   4.813   4.915 -0.0221 -0.1225 -0.7412
 3974ntf    fn420723   0.287   4.803   5.127 -0.4701 -0.2886  0.4626
 3974ntf    on520724   0.066   4.994   5.126 -0.1393  0.0901 -0.4403
 3974ntf    on520725   0.249   5.068   4.982 -0.0980 -0.2522  0.0505
 3974ntf    on520726  -0.195   4.966   4.914 -0.2313 -0.5643  0.0666
 3974ntf    on520727  -0.103   4.771   4.805 -0.1140  0.1078  0.0273
 3974ntf    fn420728  -0.040   5.103   4.669  0.4034 -0.3210  0.5565
 3974ntf    fn420729  -0.082   4.918   4.570  0.5032  0.0420  0.2598
 3974ntf    fn420730  -0.240   5.026   4.658  0.1155  0.3259 -0.7868
 3975ntf    cn120731   0.466   3.950   3.901 -0.1870 -0.2295 -0.4642
 3975ntf    sn220732   0.454   4.047   3.748 -0.1063 -0.0237 -0.3400
 3975ntf    nn320733   0.443   4.188   3.817 -0.2202 -0.0549 -0.2939
 3975ntf    sn220734   0.317   4.276   3.844 -0.0585  0.0521  0.1198
 3975ntf    cn120735   0.365   4.365   3.995 -0.1012  0.4398 -0.0914
 3975ntf    fn420736   0.350   3.937   3.964  0.1366 -0.2124  0.1398
 3975ntf    fn420737   0.524   3.833   3.879  0.4374 -0.1724  0.8021
 3975ntf    fn420738   0.534   4.008   3.998 -0.5212 -0.7160  0.0697
 3975ntf    on520739   0.581   4.028   3.681  0.0999 -0.4031  0.1513
 3975ntf    on520740   0.336   3.995   3.684 -0.3675  0.2521 -0.0805
 3975ntf    on520741   0.195   4.211   3.886 -0.1509 -0.0837 -0.3508
 3975ntf    on520742   0.305   4.383   3.747  0.5140 -0.5651 -0.6362
 3975ntf    fn420743   0.437   4.469   3.956  0.1227  0.2678 -0.1432
 3975ntf    fn420744   0.266   4.409   4.070 -0.2426 -0.2679  0.1508
 3975ntf    fn420745   0.436   4.290   4.079 -0.0118 -0.0117 -0.5622
 3976ntf    cn120746   0.830   1.871   6.426  0.2391  0.1790 -0.1740
 3976ntf    sn220747   1.000   1.886   6.361  0.3449  0.1505  0.0954
 3976ntf    nn320748   0.983   1.809   6.226 -0.4018  0.2357  0.1322
 3976ntf    sn220749   0.923   1.868   6.093  0.0242 -0.0795 -0.2038
 3976ntf    cn120750   1.085   1.929   6.037  0.2972 -0.1535  0.4896
 3976ntf    fn420751   0.750   1.973   6.397  0.1424  0.0894 -0.2208
 3976ntf    fn420752   0.763   1.764   6.389 -0.3398  0.2562  0.6388
 3976ntf    fn420753   0.844   1.868   6.557 -0.2715 -0.4664 -0.1318
 3976ntf    on520754   1.037   2.024   6.342 -0.6679  0.4961  0.5657
 3976ntf    on520755   1.088   1.811   6.447  0.3341  0.2041  0.1534
 3976ntf    on520756   0.838   1.984   6.103 -0.5669 -0.5139 -0.1776
 3976ntf    on520757   0.891   1.759   6.004 -0.9502 -0.3244  0.4265
 3976ntf    fn420758   1.184   1.866   6.099 -0.1556 -0.6409  0.7220
 3976ntf    fn420759   1.113   1.909   5.909 -0.0642  0.4325  0.3129
 3976ntf    fn420760   1.089   2.061   6.043 -0.5954 -0.0698 -0.4033
 3977ntf    cn120761   5.290   6.318   6.279 -0.3729 -0.2634  0.0421
 3977ntf    sn220762   5.341   6.413   6.426  0.1150  0.2605 -0.4599
 3977ntf    nn320763   5.397   6.297   6.516 -0.3259  0.0777 -0.4189
 3977ntf    sn220764   5.345   6.222   6.644 -0.2048  0.1122 -0.3499
 3977ntf    cn120765   5.253   6.078   6.582 -0.0092 -0.4049  0.5352
 3977ntf    fn420766   5.227   6.383   6.183 -0.2999 -0.1503  0.0711
 3977ntf    fn420767   5.391   6.259   6.218  0.3061  0.4435  0.4672
 3977ntf    fn420768   5.216   6.215   6.318 -0.0962 -0.6163 -0.3540
 3977ntf    on520769   5.443   6.501   6.376  0.0067  0.7358  0.1433
 3977ntf    on520770   5.220   6.472   6.477  0.1494  0.0826 -0.1656
 3977ntf    on520771   5.239   6.288   6.715 -0.2063 -0.4799  0.2127
 3977ntf    on520772   5.447   6.175   6.735 -0.1902  0.2442 -0.2984
 3977ntf    fn420773   5.329   5.990   6.516  0.1373  0.5631 -0.6269
 3977ntf    fn420774   5.211   6.005   6.683 -0.0836 -0.4560  0.4678
 3977ntf    fn420775   5.152   6.122   6.508 -0.2127 -0.3379  0.8554
 3978ntf    cn120776   2.054   0.605   2.200  0.2898 -0.5549  0.2943
 3978ntf    sn220777   2.099   0.603   2.376  0.1460 -0.0910  0.3387
 3978ntf    nn320778   2.053   0.460   2.421 -0.8186  0.0516 -0.1715
 3978ntf    sn220779   1.917   0.414   2.485 -0.6082 -0.1162  0.1626
 3978ntf    cn120780   1.907   0.249   2.408  0.2629  0.2103 -0.6746
 3978ntf    fn420781   2.086   0.718   2.138 -0.1978 -0.2750  0.5523
 3978ntf    fn420782   2.110   0.503   2.138  0.2232 -0.3947 -0.0314
 3978ntf    fn420783   1.923   0.598   2.192  0.2608 -0.0992  0.3019
 3978ntf    on520784   2.243   0.608   2.382  0.1526  0.3015 -0.0871
 3978ntf    on520785   2.029   0.713   2.437  0.5524  0.3232  0.0711
 3978ntf    on520786   1.796   0.471   2.430 -0.6589 -0.2281  0.1589
 3978ntf    on520787   1.931   0.389   2.626 -0.3537 -0.0799  0.1437
 3978ntf    fn420788   2.009   0.165   2.412 -0.0428 -0.1347  0.2136
 3978ntf    fn420789   1.806   0.179   2.458  0.4248  0.3550 -0.1296
 3978ntf    fn420790   1.891   0.251   2.277  0.1055 -0.6126 -0.6715
 3979ntf    cn120791   1.276   4.848   0.570 -0.0972  0.3348 -0.2506
 3979ntf    sn220792   1.318   4.785   0.735  0.1775  0.2983 -0.3339
 3979ntf    nn320793   1.430   4.890   0.770  0.1324  0.1866  0.1474
 3979ntf    sn220794   1.538   4.884   0.884  0.0595 -0.4233  0.1864
 3979ntf    cn120795   1.458   5.003   0.996 -0.2199 -0.3846 -0.0536
 3979ntf    fn420796   1.386   4.844   0.495  0.2462 -0.3276  0.2850
 3979ntf    fn420797   1.178   4.782   0.511 -0.1014 -0.1517  0.2993
 3979ntf    fn420798   1.247   4.977   0.578 -0.4912  0.2600 -0.4782
 3979ntf    on520799   1.191   4.805   0.800  0.1915  0.1454 -0.2596
 3979ntf    on520800   1.359   4.650   0.705  0.2628  0.0724  0.7725
 3979ntf    on520801   1.668   4.939   0.853 -0.1578  0.0410  0.0795
 3979ntf    on520802   1.541   4.766   0.966  0.6573 -0.2149  0.4684
 3979ntf    fn420803   1.525   5.035   1.104 -0.0427  0.3710 -0.3850
 3979ntf    fn420804   1.446   5.121   0.937  0.4537 -0.2887  0.0025
 3979ntf    fn420805   1.333   4.970   1.027 -0.2157 -0.1710  0.1841
 3980ntf    cn120806   7.280   6.988   4.272 -0.3111 -0.4625 -0.1213
 3980ntf    sn220807   7.162   6.953   4.406 -0.3038 -0.1690 -0.0391
 3980ntf    nn320808   7.029   6.957   4.322 -0.3049  0.2271 -0.0213
 3980ntf    sn220809   6.936   6.836   4.287 -0.0293 -0.0126  0.0785
 3980ntf    cn120810   6.849   6.807   4.444  0.0034  0.0904  0.1153
 3980ntf    fn420811   7.403   6.985   4.320 -0.2575  0.4793 -0.1863
 3980ntf    fn420812   7.274   6.898   4.174 -0.1440 -0.5909 -0.0143
 3980ntf    fn420813   7.264   7.105   4.212 -0.1423 -0.2659  0.2167
 3980ntf    on520814   7.202   6.827   4.461  0.5953  0.2335  0.2461
 3980ntf    on520815   7.172   7.070   4.490  0.3411 -0.3670  0.1653
 3980ntf    on520816   7.002   6.711   4.255  0.4037  0.2894 -0.2224
 3980ntf    on520817   6.830   6.874   4.198 -0.2196  0.1988  0.3902
 3980ntf    fn420818   6.722   6.779   4.423  0.0620 -0.2444  0.2041
 3980ntf    fn420819   6.883   6.704   4.520 -0.2922 -0.2484 -0.2123
 3980ntf    fn420820   6.851   6.916   4.520  0.3197 -0.0516  0.3165
 3981ntf    cn120821   2.378   0.281   3.288 -0.4972  0.1929  0.2301
 3981ntf    sn220822   2.358   0.183   3.439 -0.3683  0.1465  0.2167
 3981ntf    nn320823   2.418   0.287   3.540  0.3208 -0.0059 -0.0349
 3981ntf    sn220824   2.358   0.338   3.676 -0.0908 -0.2271 -0.1342
 3981ntf    cn120825   2.428   0.505   3.677  0.0145 -0.2703 -0.2380
 3981ntf    fn420826   2.304   0.236   3.188  0.2548 -0.3832 -0.0711
 3981ntf    fn420827   2.342   0.407   3.310  0.7122  0.5930 -0.0405
 3981ntf    fn420828   2.502   0.276   3.242 -0.4596 -0.0773  0.3600
 3981ntf    on520829   2.215   0.160   3.436 -0.4013  0.4010 -0.2291
 3981ntf    on520830   2.448   0.073   3.412 -0.9246 -0.3171  0.2269
 3981ntf    on520831   2.405   0.290   3.804 -0.0774 -0.0376 -0.0689
 3981ntf    on520832   2.217   0.368   3.663 -0.0181  0.2262  0.1082
 3981ntf    fn420833   2.395   0.578   3.783  0.1476 -0.0060 -0.3758
 3981ntf    fn420834   2.560   0.502   3.672  0.0219 -0.5525  0.0561
 3981ntf    fn420835   2.385   0.569   3.569 -0.3342 -0.2434 -0.0840
 3982ntf    cn120836   3.195   0.565   5.315 -0.1258 -0.0214 -0.2593
 3982ntf    sn220837   3.141   0.426   5.418  0.2110 -0.0488 -0.1171
 3982ntf    nn320838   3.000   0.390   5.358  0.1578  0.3576 -0.2413
 3982ntf    sn220839   2.862   0.455   5.396  0.1538  0.0861  0.2111
 3982ntf    cn120840   2.785   0.453   5.232  0.3498 -0.0233  0.1201
 3982ntf    fn420841   3.104   0.639   5.253 -0.5747  0.0705  0.4947
 3982ntf    fn420842   3.269   0.653   5.381 -0.2191  0.3638 -0.6598
 3982ntf    fn420843   3.269   0.521   5.214  0.0345 -0.1104 -0.1026
 3982ntf    on520844   3.240   0.326   5.389  0.5278  0.0947  0.4468
 3982ntf    on520845   3.141   0.466   5.557  0.2447 -0.7017  0.0705
 3982ntf    on520846   2.861   0.596   5.423 -0.5926  0.1313 -0.0400
 3982ntf    on520847   2.770   0.370   5.468  0.5560 -0.5440 -0.0047
 3982ntf    fn420848   2.788   0.330   5.183 -0.0756 -0.0723  0.2119
 3982ntf    fn420849   2.658   0.490   5.233  0.3025 -0.1898  0.6250
 3982ntf    fn420850   2.851   0.533   5.149  0.4531  0.0951  0.3143
 3983ntf    cn120851   6.023   4.061   6.780 -0.2303  0.2973  0.3850
 3983ntf    sn220852   5.906   3.964   6.679 -0.1034  0.4567  0.0851
 3983ntf    nn320853   5.889   4.057   6.553 -0.2918 -0.0643 -0.2736
 3983ntf    sn220854   5.940   4.019   6.410 -0.2183 -0.1654 -0.2213
 3983ntf    cn120855   5.793   3.922   6.362 -0.0610 -0.5394  0.0409
 3983ntf    fn420856   6.151   4.045   6.752 -0.4890 -0.3815 -0.4532
 3983ntf    fn420857   5.997   4.190   6.773 -0.0045  0.3472  0.4798
 3983ntf    fn420858   6.016   4.029   6.908  0.1525 -0.3047  0.2599
 3983ntf    on520859   5.981   3.843   6.663 -0.0857  0.4721  0.0501
 3983ntf    on520860   5.794   3.971   6.770  0.0136  0.6953  0.2129
 3983ntf    on520861   6.052   3.929   6.399  0.1591  0.2945 -0.1362
 3983ntf    on520862   5.943   4.122   6.309  0.1857 -0.0117 -0.0501
 3983ntf    fn420863   5.813   3.858   6.248 -0.4035 -0.0405 -0.3072
 3983ntf    fn420864   5.767   3.833   6.455 -0.1339 -0.0667  0.4767
 3983ntf    fn420865   5.691   4.005   6.353  0.2315 -0.2050 -0.2388
 3984ntf    cn120866   1.606   2.052   6.244  0.1182 -0.0280  0.0184
 3984ntf    sn220867   1.672   1.892   6.190 -0.1963 -0.1580  0.0171
 3984ntf    nn320868   1.553   1.835   6.105 -0.4241  0.2897  0.0349
 3984ntf    sn220869   1.562   1.759   5.968 -0.0109  0.2364  0.0927
 3984ntf    cn120870   1.530   1.898   5.856  0.1446 -0.2381 -0.5466
 3984ntf    fn420871   1.687   2.139   6.302 -0.0862  0.2397 -0.0930
 3984ntf    fn420872   1.544   2.108   6.141  0.0265  0.5194  0.3671
 3984ntf    fn420873   1.503   2.033   6.325  0.0053  0.7157  0.0573
 3984ntf    on520874   1.796   1.921   6.122 -0.1308 -0.6745 -0.0877
 3984ntf    on520875   1.683   1.812   6.309  0.0029  0.0622  0.1452
 3984ntf    on520876   1.445   1.677   5.950  0.3504 -0.4281  0.7123
 3984ntf    on520877   1.689   1.701   5.929 -0.1295  0.1481 -0.1636
 3984ntf    fn420878   1.615   1.999   5.865 -0.4344  0.2027  0.1255
 3984ntf    fn420879   1.518   1.865   5.728 -0.8605  0.1249 -0.5598
 3984ntf    fn420880   1.413   1.952   5.888  0.3730 -0.0179 -0.0820
 3985ntf    cn120881   6.016   0.126   5.911  0.0244 -0.1012  0.2832
 3985ntf    sn220882   6.017   0.306   5.932  0.1243 -0.0537 -0.1217
 3985ntf    nn320883   6.095   0.354   5.805 -0.1790  0.4674 -0.1152
 3985ntf    sn220884   6.039   0.398   5.665  0.3133  0.4780 -0.3140
 3985ntf    cn120885   6.113   0.563   5.652  0.3802  0.4835  0.1101
 3985ntf    fn420886   6.139   0.079   5.897 -0.0490 -0.1441 -0.2401
 3985ntf    fn420887   5.964   0.070   6.019 -0.0621  0.7033  0.6594
 3985ntf    fn420888   5.941   0.085   5.810  0.3669  0.3116 -0.1424
 3985ntf    on520889   5.878   0.344   5.939  0.0128 -0.5452  0.3979
 3985ntf    on520890   6.086   0.329   6.057  0.4493 -0.1672 -0.2809
 3985ntf    on520891   5.899   0.434   5.667  0.3118  0.4419  1.0797
 3985ntf    on520892   6.098   0.324   5.556 -0.0723 -0.0233 -0.1875
 3985ntf    fn420893   6.243   0.558   5.631  0.2503  0.3762 -0.6914
 3985ntf    fn420894   6.058   0.626   5.549 -0.1968  0.0600  0.1560
 3985ntf    fn420895   6.092   0.642   5.756 -0.0502  0.0751  0.3378
 3986ntf    cn120896   6.267   0.630   6.793  0.0067  0.0805  0.0764
 3986ntf    sn220897   6.134   0.755   6.790 -0.2487 -0.1937 -0.0544
 3986ntf    nn320898   6.159   0.811   6.646 -0.1752  0.2735  0.1382
 3986ntf    sn220899   6.232   0.944   6.606  0.0494  0.1306  0.0698
 3986ntf    cn120900   6.090   1.051   6.565  0.0098 -0.0366 -0.2295
 3986ntf    fn420901   6.284   0.564   6.906  0.4666  0.0911  0.0144
 3986ntf    fn420902   6.249   0.547   6.692  0.1831 -0.1440  0.2287
 3986ntf    fn420903   6.385   0.680   6.760  0.2151 -0.2212  0.3701
 3986ntf    on520904   6.010   0.682   6.788 -0.6317  0.4682 -0.4177
 3986ntf    on520905   6.167   0.847   6.896  0.3108 -0.1955 -0.2193
 3986ntf    on520906   6.296   0.929   6.478  0.5533 -0.3443  0.3770
 3986ntf    on520907   6.316   1.006   6.705  0.2559  0.3358 -0.2336
 3986ntf    fn420908   6.029   1.024   6.451 -0.0744  0.1214 -0.2216
 3986ntf    fn420909   5.997   1.047   6.659 -0.0358  0.2006 -0.2655
 3986ntf    fn420910   6.128   1.177   6.555  0.0919 -0.0398  0.0156
 3987ntf    cn120911   0.211   1.667   2.255 -0.1917  0.1580 -0.3005
 3987ntf    sn220912   0.040   1.727   2.237 -0.1335  0.4196 -0.0082
 3987ntf    nn320913   0.077   1.851   2.148  0.2061  0.1825 -0.2009
 3987ntf    sn220914   0.061   1.886   1.996  0.1317  0.2871 -0.1696
 3987ntf    cn120915   0.120   2.058   1.992 -0.2259  0.4159  0.0630
 3987ntf    fn420916   0.273   1.745   2.342  0.5526  0.0840 -0.7596
 3987ntf    fn420917   0.228   1.547   2.308 -0.4437  0.0148 -0.5405
 3987ntf    fn420918   0.277   1.657   2.141 -0.3279 -0.4694 -0.3285
 3987ntf    on520919  -0.033   1.617   2.177  0.2982 -0.1829  0.5543
 3987ntf    on520920   0.005   1.777   2.367  0.0546  0.7154 -0.0713
 3987ntf    on520921  -0.075   1.910   1.954  0.0473 -0.2174 -0.1910
 3987ntf    on520922   0.157   1.814   1.915  0.4958  0.2449  0.2942
 3987ntf    fn420923   0.096   2.122   2.105  0.3237  0.4302  0.1733
 3987ntf    fn420924   0.252   2.053   1.979 -0.2501  0.8747 -0.3791
 3987ntf    fn420925   0.063   2.129   1.896 -0.1375 -0.4152 -0.6160
 3988ntf    cn120926   5.345   1.015   5.617  0.3193 -0.0765 -0.1620
 3988ntf    sn220927   5.492   1.085   5.537  0.1956  0.2523 -0.1021
 3988ntf    nn320928   5.588   0.961   5.532  0.3903  0.3815  0.3856
 3988ntf    sn220929   5.672   0.902   5.413  0.1257  0.1867  0.2920
 3988ntf    cn120930   5.837   0.916   5.488  0.2783  0.4915 -0.0948
 3988ntf    fn420931   5.376   0.942   5.723 -0.0698 -0.3371 -0.2223
 3988ntf    fn420932   5.247   1.094   5.656  0.2012 -0.2144 -0.1755
 3988ntf    fn420933   5.285   0.921   5.545 -0.0879 -0.3231  0.4971
 3988ntf    on520934   5.430   1.119   5.411 -0.4185  0.0211  0.1363
 3988ntf    on520935   5.534   1.198   5.616  0.0493 -0.0965  0.4814
 3988ntf    on520936   5.686   0.976   5.290 -0.0691 -0.1786  0.0488
 3988ntf    on520937   5.654   0.760   5.395  0.2014  0.1932  0.1658
 3988ntf    fn420938   5.878   1.037   5.458  0.6067  0.2596 -0.5903
 3988ntf    fn420939   5.842   0.911   5.621  0.1389 -0.5412 -0.1200
 3988ntf    fn420940   5.930   0.838   5.435 -0.1794 -0.2265  0.1460
 3989ntf    cn120941   3.609   4.255   7.011 -0.3846  0.2448 -0.3416
 3989ntf    sn220942   3.530   4.416   6.984 -0.3368  0.3083 -0.1067
 3989ntf    nn320943   3.631   4.516   7.050 -0.0836  0.4563 -0.7163
 3989ntf    sn220944   3.613   4.600   7.181 -0.3227 -0.2370 -0.2981
 3989ntf    cn120945   3.499   4.727   7.119 -0.0254  0.1887  0.0222
 3989ntf    fn420946   3.652   4.247   7.136  0.4925  0.6888 -0.6098
 3989ntf    fn420947   3.525   4.156   6.987  0.0461 -0.2439  0.1330
 3989ntf    fn420948   3.710   4.232   6.928 -0.1121  0.2363 -0.0102
 3989ntf    on520949   3.548   4.424   6.841  0.1826  0.1602 -0.0495
 3989ntf    on520950   3.397   4.408   7.039 -0.2668 -0.1523  0.0018
 3989ntf    on520951   3.738   4.665   7.212 -0.4211 -0.2949  0.2190
 3989ntf    on520952   3.546   4.542   7.295 -0.0396 -0.2311 -0.1286
 3989ntf    fn420953   3.443   4.808   7.208 -0.7660  0.4315 -0.6478
 3989ntf    fn420954   3.563   4.798   7.027  0.1695  0.2508  0.2046
 3989ntf    fn420955   3.395   4.669   7.062  0.1933 -0.2427  0.0593
 3990ntf    cn120956   5.321   3.271   2.504 -0.5474 -0.0914  0.1491
 3990ntf    sn220957   5.362   3.396   2.630  0.2234 -0.1021 -0.0910
 3990ntf    nn320958   5.490   3.450   2.556 -0.0112  0.2783 -0.2205
 3990ntf    sn220959   5.630   3.485   2.617  0.0618  0.0395 -0.2496
 3990ntf    cn120960   5.674   3.625   2.510  0.0275 -0.1480 -0.5092
 3990ntf    fn420961   5.311   3.314   2.379 -0.2062  0.3159  0.2601
 3990ntf    fn420962   5.409   3.173   2.504 -0.4289  0.0145 -0.0402
 3990ntf    fn420963   5.203   3.215   2.530 -0.5781 -0.0725  0.0476
 3990ntf    on520964   5.246   3.480   2.614  0.1214 -0.0886  0.7210
 3990ntf    on520965   5.385   3.327   2.754  0.1887  0.3493  0.1660
 3990ntf    on520966   5.726   3.380   2.597 -0.0212 -0.0476 -0.1910
 3990ntf    on520967   5.627   3.546   2.748  0.0299 -0.2136 -0.1313
 3990ntf    fn420968   5.799   3.667   2.521  0.0635 -0.3348 -0.2105
 3990ntf    fn420969   5.669   3.578   2.386 -0.0958 -0.1600 -0.4995
 3990ntf    fn420970   5.586   3.723   2.518  0.2539 -0.0028  0.2320
 3991ntf    cn120971   0.505   2.390   2.058  0.3609 -0.0715  0.2661
 3991ntf    sn220972   0.593   2.522   2.147  0.1707  0.4376 -0.2933
 3991ntf    nn320973   0.733   2.521   2.075 -0.0278  0.0791 -0.6782
 3991ntf    sn220974   0.865   2.449   2.121 -0.2264  0.3787  0.3874
 3991ntf    cn120975   0.867   2.300   2.017  0.0740  0.4643  0.2703
 3991ntf    fn420976   0.374   2.397   2.076  0.3433  0.0040  0.1109
 3991ntf    fn420977   0.516   2.401   1.927  0.0857  0.3238  0.2753
 3991ntf    fn420978   0.542   2.265   2.083 -0.0143 -0.1347  0.5046
 3991ntf    on520979   0.515   2.638   2.114 -0.2916  0.1069 -0.3641
 3991ntf    on520980   0.602   2.480   2.285  1.0432  0.7453 -0.2457
 3991ntf    on520981   0.866   2.391   2.253  0.0932 -1.0083 -0.2098
 3991ntf    on520982   0.983   2.519   2.077  0.0448 -0.0576  0.4106
 3991ntf    fn420983   0.892   2.320   1.889  0.0597  0.3976  0.2570
 3991ntf    fn420984   0.950   2.209   2.067  0.4258  0.6443  0.0197
 3991ntf    fn420985   0.748   2.242   2.020  0.4547 -0.3590 -0.1155
 3992ntf    cn120986   1.290   0.278   0.555  0.0791  0.3561  0.1601
 3992ntf    sn220987   1.169   0.238   0.426  0.2753  0.0429  0.0729
 3992ntf    nn320988   1.249   0.270   0.294 -0.1608 -0.0478 -0.2152
 3992ntf    sn220989   1.270   0.396   0.203  0.2315 -0.0199 -0.0859
 3992ntf    cn120990   1.452   0.397   0.202  0.2356 -0.5318 -0.1259
 3992ntf    fn420991   1.404   0.221   0.518 -0.1341  0.1292 -0.1485
 3992ntf    fn420992   1.308   0.408   0.572  0.2609  0.3464  0.0468
 3992ntf    fn420993   1.257   0.231   0.674 -0.2795 -0.2053 -0.1597
 3992ntf    on520994   1.147   0.096   0.440 -0.6298  0.1825  0.1056
 3992ntf    on520995   1.058   0.328   0.445 -0.2190 -0.4284 -0.5104
 3992ntf    on520996   1.222   0.521   0.257  0.6143  0.4217 -0.7559
 3992ntf    on520997   1.249   0.376   0.062  0.9064 -1.0213 -0.0569
 3992ntf    fn420998   1.503   0.282   0.160  0.4020 -0.2087 -0.8281
 3992ntf    fn420999   1.496   0.484   0.112 -0.2206 -0.4967 -0.3194
 3992ntf    fn421000   1.498   0.429   0.321  0.5125 -0.3707 -0.2756
 3993ntf    cn121001   2.691   5.837   3.560  0.0893  0.1536  0.3859
 3993ntf    sn221002   2.542   5.762   3.630 -0.0865  0.3393  0.2098
 3993ntf    nn321003   2.590   5.615   3.652  0.2261  0.4092 -0.0011
 3993ntf    sn221004   2.611   5.552   3.795 -0.1277  0.1157 -0.0774
 3993ntf    cn121005   2.717   5.407   3.767 -0.4098 -0.1731  0.3406
 3993ntf    fn421006   2.719   5.799   3.436 -0.0758 -0.3382  0.4976
 3993ntf    fn421007   2.685   5.969   3.555 -0.1048  0.1275 -0.1663
 3993ntf    fn421008   2.790   5.804   3.641  0.1298  1.0791  0.7249
 3993ntf    on521009   2.526   5.839   3.751  0.3976  0.8169 -0.0273
 3993ntf    on521010   2.439   5.776   3.529  0.1254 -0.0659 -0.0615
 3993ntf    on521011   2.491   5.482   3.834  0.0455 -0.5111 -0.6333
 3993ntf    on521012   2.679   5.628   3.896  0.1782 -0.7964  0.4165
 3993ntf    fn421013   2.841   5.439   3.732 -0.5064  0.0390  0.1909
 3993ntf    fn421014   2.731   5.337   3.879 -0.0962 -0.3242  0.2090
 3993ntf    fn421015   2.665   5.324   3.678  0.1836  0.2532 -0.4219
 3994ntf    cn121016   4.175   3.589   5.647 -0.0705  0.2231  0.3049
 3994ntf    sn221017   4.175   3.410   5.678 -0.1575  0.1565 -0.0759
 3994ntf    nn321018   4.033   3.372   5.623 -0.2868  0.4332  0.0686
 3994ntf    sn221019   3.993   3.232   5.565 -0.1470  0.3397  0.1976
 3994ntf    cn121020   3.876   3.194   5.699 -0.1468 -0.1544  0.0587
 3994ntf    fn421021   4.271   3.647   5.718 -0.0800  0.4434  0.1351
 3994ntf    fn421022   4.194   3.627   5.522  0.2753  0.3099  0.3826
 3994ntf    fn421023   4.067   3.641   5.702  0.0289  0.3385  0.3945
 3994ntf    on521024   4.290   3.368   5.602  0.1685  0.4892  0.2245
 3994ntf    on521025   4.192   3.388   5.820 -0.3437 -0.2055 -0.1079
 3994ntf    on521026   4.098   3.135   5.586 -0.1818  0.1944 -0.2917
 3994ntf    on521027   3.915   3.230   5.443  0.4948 -0.0969 -0.2106
 3994ntf    fn421028   3.786   3.105   5.660  0.1994 -0.6541  0.3969
 3994ntf    fn421029   3.935   3.142   5.805  0.3750  0.4950  0.0988
 3994ntf    fn421030   3.817   3.303   5.745 -0.2683 -0.2053  0.0223
 3995ntf    cn121031   4.489   4.944   1.766  0.0724  0.3696  0.2504
 3995ntf    sn221032   4.531   4.843   1.621  0.3120  0.0691  0.5283
 3995ntf    nn321033   4.642   4.752   1.684  0.2533 -0.1158  0.3664
 3995ntf    sn221034   4.633   4.633   1.786  0.0880 -0.4675 -0.0542
 3995ntf    cn121035   4.700   4.711   1.936  0.1478  0.0740 -0.3590
 3995ntf    fn421036   4.401   5.041   1.746  0.1541  0.3130 -0.4054
 3995ntf    fn421037   4.446   4.867   1.865 -0.1062  0.4791  0.2585
 3995ntf    fn421038   4.593   5.006   1.819  0.1965 -0.0816  0.5410
 3995ntf    on521039   4.414   4.775   1.569  0.3287  0.0908  0.4614
 3995ntf    on521040   4.590   4.948   1.543  0.1525 -0.0757  0.2112
 3995ntf    on521041   4.723   4.526   1.750  0.4782 -0.1969  0.1162
 3995ntf    on521042   4.500   4.593   1.825 -0.4116  0.2606 -0.9821
 3995ntf    fn421043   4.757   4.620   2.014 -0.2371  0.3760  0.2804
 3995ntf    fn421044   4.780   4.814   1.917  0.3560  0.1357  0.7506
 3995ntf    fn421045   4.597   4.756   2.006  0.1564  0.1708 -0.4088
 3996ntf    cn121046   2.315   6.199   5.367  0.2048 -0.2403 -0.0268
 3996ntf    sn221047   2.211   6.140   5.504 -0.1958 -0.1542 -0.2899
 3996ntf    nn321048   2.200   5.993   5.453  0.2009 -0.1510 -0.3868
 3996ntf    sn221049   2.180   5.861   5.536  0.0526  0.2153  0.1593
 3996ntf    cn121050   2.096   5.767   5.406  0.2197  0.0520  0.1688
 3996ntf    fn421051   2.341   6.328   5.378 -0.0459 -0.2050  0.1586
 3996ntf    fn421052   2.423   6.126   5.347  0.0492 -0.3006 -0.6887
 3996ntf    fn421053   2.265   6.184   5.245  0.2307  0.0206 -0.0699
 3996ntf    on521054   2.294   6.155   5.621 -0.0485 -0.0634 -0.4061
 3996ntf    on521055   2.093   6.222   5.499  0.3279  0.7159  1.0387
 3996ntf    on521056   2.082   5.880   5.640  0.2755 -0.4541  0.5013
 3996ntf    on521057   2.303   5.789   5.558  0.4128  0.8421  0.2144
 3996ntf    fn421058   2.184   5.716   5.322 -0.3402 -0.0138 -0.3884
 3996ntf    fn421059   2.025   5.664   5.450 -0.0945  0.0283 -0.3777
 3996ntf    fn421060   2.007   5.834   5.334  0.1864  0.0374  0.1955
 3997ntf    cn121061   6.459   5.545   5.714 -0.2467  0.3493 -0.4112
 3997ntf    sn221062   6.405   5.407   5.820 -0.2378  0.4365 -0.2933
 3997ntf    nn321063   6.361   5.308   5.706 -0.1086  0.3976 -0.3094
 3997ntf    sn221064   6.218   5.294   5.643 -0.1929 -0.0459 -0.0226
 3997ntf    cn121065   6.174   5.124   5.690 -0.0363 -0.0215  0.2139
 3997ntf    fn421066   6.369   5.572   5.621 -0.1069 -0.4114 -0.7788
 3997ntf    fn421067   6.475   5.656   5.783 -0.5122  0.2671 -0.2140
 3997ntf    fn421068   6.575   5.527   5.654 -0.1248  0.4084 -0.1926
 3997ntf    on521069   6.531   5.363   5.874 -0.1533  0.4357 -0.4883
 3997ntf    on521070   6.307   5.459   5.913  0.3681  0.3334  0.4102
 3997ntf    on521071   6.215   5.287   5.499 -0.0900  0.4789 -0.0526
 3997ntf    on521072   6.115   5.365   5.713  0.6050  0.9050  0.2054
 3997ntf    fn421073   6.142   5.128   5.818 -0.9751 -0.0232 -0.0171
 3997ntf    fn421074   6.071   5.078   5.621 -0.0074 -0.2148  0.2996
 3997ntf    fn421075   6.279   5.044   5.677  0.0054  0.0751 -0.0472
 3998ntf    cn121076   1.419   5.404   2.306  0.3019 -0.1393 -0.2319
 3998ntf    sn221077   1.529   5.548   2.294 -0.3184  0.3772  0.1998
 3998ntf    nn321078   1.640   5.496   2.196 -0.1406  0.0716  0.5596
 3998ntf    sn221079   1.793   5.474   2.225 -0.0569 -0.0569  0.0323
 3998ntf    cn121080   1.804   5.293   2.221  0.0586 -0.0590  0.4080
 3998ntf    fn421081   1.478   5.289   2.333  0.2404 -0.0912  0.1141
 3998ntf    fn421082   1.316   5.424   2.387  0.3458  0.5115 -0.3285
 3998ntf    fn421083   1.353   5.384   2.193 -0.4766 -0.1465  0.2134
 3998ntf    on521084   1.437   5.635   2.225  0.0232  0.4176 -0.2063
 3998ntf    on521085   1.557   5.576   2.433 -0.1923  0.2522  0.1994
 3998ntf    on521086   1.834   5.506   2.359  0.0337  0.0305 -0.0159
 3998ntf    on521087   1.886   5.503   2.119  0.2075  0.0512  0.2917
 3998ntf    fn421088   1.729   5.227   2.307 -0.3828 -0.4752 -0.2780
 3998ntf    fn421089   1.776   5.239   2.103 -0.0604  0.4849  0.1826
 3998ntf    fn421090   1.927   5.256   2.250 -0.1820 -0.7711  0.5278
 3999ntf    cn121091   1.315   4.210   7.123 -0.2826  0.1308 -0.0474
 3999ntf    sn221092   1.199   4.094   7.202 -0.1478 -0.0248 -0.0782
 3999ntf    nn321093   1.264   4.095   7.345 -0.0433 -0.3751 -0.1224
 3999ntf    sn221094   1.359   3.994   7.419  0.1516  0.2469  0.4896
 3999ntf    cn121095   1.493   4.103   7.475  0.4225  0.2269 -0.1070
 3999ntf    fn421096   1.293   4.230   6.994  0.3780  0.2678 -0.1432
 3999ntf    fn421097   1.306   4.332   7.175 -0.3199  0.1079 -0.0004
 3999ntf    fn421098   1.440   4.168   7.131 -0.3824 -0.2389 -0.3786
 3999ntf    on521099   1.070   4.157   7.199 -0.2654 -0.2700 -0.2280
 3999ntf    on521100   1.219   3.975   7.123 -0.1796 -0.3579  0.4069
 3999ntf    on521101   1.430   3.896   7.340  0.0610  0.2886  0.3559
 3999ntf    on521102   1.297   3.936   7.536 -0.3086 -0.2429  0.0100
 3999ntf    fn421103   1.452   4.218   7.526 -0.3952 -0.0976 -0.0231
 3999ntf    fn421104   1.578   4.039   7.555 -0.2678 -0.2537  0.2538
 3999ntf    fn421105   1.564   4.142   7.371  0.0746  0.0599 -0.4073
 4000ntf    cn121106   4.620   0.341   0.448 -0.0900  0.4997  0.1681
 4000ntf    sn221107   4.628   0.510   0.382 -0.1223  0.5862  0.3846
 4000ntf    nn321108   4.476   0.541   0.356 -0.1569  0.0872 -0.0241
 4000ntf    sn221109   4.395   0.665   0.409  0.0928  0.1854  0.1337
 4000ntf    cn121110   4.280   0.672   0.268  0.3062 -0.2829 -0.0669
 4000ntf    fn421111   4.611   0.246   0.357 -0.0685  0.3614  0.3099
 4000ntf    fn421112   4.720   0.311   0.530 -0.1599  0.2307  0.1551
 4000ntf    fn421113   4.515   0.333   0.528  0.0888  0.1650  0.3741
 4000ntf    on521114   4.702   0.586   0.481  0.6297 -0.3139  0.5262
 4000ntf    on521115   4.708   0.491   0.263 -0.6867  0.7016 -0.0160
 4000ntf    on521116   4.464   0.791   0.400  0.1437  0.1499  0.0231
 4000ntf    on521117   4.313   0.633   0.524  0.1051 -0.4238 -0.0207
 4000ntf    fn421118   4.340   0.684   0.151 -0.4340  0.6648 -0.3608
 4000ntf    fn421119   4.186   0.581   0.253  0.1269 -0.1768  0.3828
 4000ntf    fn421120   4.221   0.790   0.273  0.3610 -0.2860  0.8718
 4001ntf    cn121121   5.292   2.569   1.836  0.1368 -0.3817  0.5792
 4001ntf    sn221122   5.392   2.498   1.703 -0.0491  0.1418  0.1546
 4001ntf    nn321123   5.341   2.570   1.573  0.1456 -0.0791 -0.0450
 4001ntf    sn221124   5.400   2.691   1.493 -0.0174  0.0583  0.0431
 4001ntf    cn121125   5.481   2.593   1.363 -0.4629 -0.3536  0.0742
 4001ntf    fn421126   5.198   2.490   1.886  0.0870 -0.3360  0.5595
 4001ntf    fn421127   5.363   2.606   1.942  0.3520 -0.0396  0.3169
 4001ntf    fn421128   5.232   2.677   1.788  0.7134 -0.1368  0.4015
 4001ntf    on521129   5.521   2.536   1.755  0.1457 -0.4321  0.1042
 4001ntf    on521130   5.363   2.356   1.704  0.2087  0.0797 -0.4608
 4001ntf    on521131   5.513   2.755   1.554  0.3769 -0.7516  0.1769
 4001ntf    on521132   5.301   2.768   1.422  0.4209  0.1008 -0.5327
 4001ntf    fn421133   5.407   2.576   1.254 -0.1165 -0.0592 -0.2091
 4001ntf    fn421134   5.580   2.658   1.305 -0.2325 -0.2584  0.5716
 4001ntf    fn421135   5.524   2.477   1.411 -0.3297 -0.3038  0.0736
 4002ntf    cn121136   0.925   5.433   3.361 -0.1325 -0.1444  0.2887
 4002ntf    sn221137   0.843   5.285   3.428  0.0692 -0.3577  0.0659
 4002ntf    nn321138   0.931   5.249   3.554  0.2657  0.1436  0.0762
 4002ntf    sn221139   0.942   5.332   3.687 -0.0302  0.0644  0.1506
 4002ntf    cn121140   0.923   5.203   3.814 -0.2889  0.1245  0.1740
 4002ntf    fn421141   0.921   5.531   3.450 -0.0702  0.0273  0.1006
 4002ntf    fn421142   1.055   5.412   3.341 -0.1298 -0.0220  0.1816
 4002ntf    fn421143   0.889   5.483   3.245  0.3935 -0.4282 -0.0018
 4002ntf    on521144   0.711   5.329   3.466  0.1661 -0.1983  0.2203
 4002ntf    on521145   0.851   5.191   3.319 -0.7508  0.1117 -0.3988
 4002ntf    on521146   0.833   5.421   3.716 -0.1836  0.1089 -0.5456
 4002ntf    on521147   1.078   5.375   3.706 -0.1576  0.2362  0.6858
 4002ntf    fn421148   0.810   5.136   3.798  0.0660 -0.3694 -0.3154
 4002ntf    fn421149   1.031   5.127   3.809  0.0862  0.6122  0.7340
 4002ntf    fn421150   0.928   5.251   3.937  0.2754  0.1782  0.1346
 4003ntf    cn121151   3.244   4.496   2.341 -0.0359 -0.1685 -0.5512
 4003ntf    sn221152   3.326   4.370   2.443 -0.2014 -0.0047 -0.2154
 4003ntf    nn321153   3.251   4.242   2.391  0.3946 -0.4720  0.0495
 4003ntf    sn221154   3.191   4.114   2.459 -0.3706 -0.2174 -0.1288
 4003ntf    cn121155   3.027   4.183   2.496 -0.0842  0.5359 -0.2380
 4003ntf    fn421156   3.280   4.484   2.214  0.3471 -0.5824 -0.4090
 4003ntf    fn421157   3.112   4.495   2.342 -0.0430  0.7008 -0.3725
 4003ntf    fn421158   3.279   4.619   2.375 -0.2598 -0.1628 -0.3356
 4003ntf    on521159   3.465   4.378   2.406 -0.0694  0.0785  0.2844
 4003ntf    on521160   3.286   4.413   2.575 -0.8309 -0.0711 -0.3819
 4003ntf    on521161   3.255   4.082   2.585 -0.0701 -0.2179 -0.2804
 4003ntf    on521162   3.167   4.008   2.364  0.2049 -0.9583  0.5331
 4003ntf    fn421163   2.966   4.235   2.391 -0.4174  0.9927  0.1802
 4003ntf    fn421164   2.940   4.097   2.548  0.2260  0.1268 -0.3868
 4003ntf    fn421165   3.031   4.287   2.577 -0.0129 -0.0063  0.4680
 4004ntf    cn121166   2.074   4.317   1.942  0.0166 -0.0446 -0.0230
 4004ntf    sn221167   2.074   4.443   2.073 -0.4586  0.1322 -0.1894
 4004ntf    nn321168   1.925   4.453   2.120 -0.4494  0.1107 -0.1558
 4004ntf    sn221169   1.859   4.502   2.254  0.0290  0.0117  0.1187
 4004ntf    cn121170   1.713   4.569   2.168  0.0878 -0.3303 -0.2515
 4004ntf    fn421171   2.191   4.281   1.892 -0.1953 -0.5757 -0.1488
 4004ntf    fn421172   2.008   4.208   1.979 -0.5590  0.2977 -0.0180
 4004ntf    fn421173   2.004   4.362   1.839 -0.6421 -0.0340  0.4240
 4004ntf    on521174   2.160   4.380   2.170  0.3959 -0.2322 -1.1622
 4004ntf    on521175   2.122   4.565   2.013 -0.6845  0.1655 -0.3014
 4004ntf    on521176   1.922   4.614   2.320 -0.2088  0.2255 -0.0145
 4004ntf    on521177   1.803   4.401   2.339  0.5841 -0.3728  0.0321
 4004ntf    fn421178   1.639   4.469   2.122  0.1895 -0.4472 -0.1624
 4004ntf    fn421179   1.635   4.640   2.248  0.5821  0.5912 -0.5750
 4004ntf    fn421180   1.740   4.647   2.065  0.3418  0.2432  0.2410
 4005ntf    cn121181   2.435   3.316   0.879  0.5211 -0.3899  0.3037
 4005ntf    sn221182   2.299   3.198   0.905  0.1429 -0.0288 -0.0066
 4005ntf    nn321183   2.325   3.084   0.800 -0.5203 -0.0272 -0.1780
 4005ntf    sn221184   2.231   2.962   0.772 -0.2742 -0.2421 -0.0721
 4005ntf    cn121185   2.331   2.842   0.865 -0.0423  0.3296  0.4250
 4005ntf    fn421186   2.447   3.366   0.757 -0.4590 -0.0313  0.3409
 4005ntf    fn421187   2.417   3.419   0.960  0.7435 -0.1243  0.0178
 4005ntf    fn421188   2.552   3.260   0.901  0.6224 -0.1697  0.3293
 4005ntf    on521189   2.314   3.161   1.044 -0.1935 -0.3188 -0.0470
 4005ntf    on521190   2.183   3.277   0.873  0.1442 -0.0828 -0.1435
 4005ntf    on521191   2.247   2.929   0.633 -0.2620 -0.0268 -0.1227
 4005ntf    on521192   2.103   2.963   0.839  0.0340 -0.0151  0.5202
 4005ntf    fn421193   2.354   2.873   0.992  0.3431 -0.3407  0.5268
 4005ntf    fn421194   2.273   2.723   0.856 -0.3877  0.5591 -0.4432
 4005ntf    fn421195   2.446   2.825   0.801 -0.3966 -0.1592 -0.0894
 4006ntf    cn121196   1.182   3.418   1.409 -0.2761 -0.2728 -0.6611
 4006ntf    sn221197   1.199   3.246   1.465 -0.2384 -0.0265  0.0945
 4006ntf    nn321198   1.161   3.261   1.616  0.0497  0.1311  0.1528
 4006ntf    sn221199   1.272   3.252   1.726 -0.3344  0.0151  0.5338
 4006ntf    cn121200   1.300   3.073   1.741  0.3298  0.0682 -0.0064
 4006ntf    fn421201   1.173   3.424   1.277  0.1563 -0.0251 -0.6828
 4006ntf    fn421202   1.071   3.474   1.455 -0.1175  0.3521 -1.0177
 4006ntf    fn421203   1.281   3.493   1.453 -0.6994 -0.0848 -0.0224
 4006ntf    on521204   1.096   3.187   1.383 -0.2326  0.2065 -0.0840
 4006ntf    on521205   1.337   3.218   1.434 -0.0028 -0.1580  1.2257
 4006ntf    on521206   1.221   3.302   1.852  0.5532  0.7220  0.6197
 4006ntf    on521207   1.408   3.296   1.705 -0.1038 -0.9598 -0.0643
 4006ntf    fn421208   1.326   3.041   1.867  0.0745 -0.3965 -0.0670
 4006ntf    fn421209   1.194   3.001   1.706  0.6251 -0.5735  0.4080
 4006ntf    fn421210   1.395   3.033   1.659 -0.1019 -0.7615 -0.1102
 4007ntf    cn121211   4.091   2.357   4.300  0.1788  0.1586  0.1849
 4007ntf    sn221212   4.270   2.321   4.295  0.2426  0.4280  0.4645
 4007ntf    nn321213   4.332   2.463   4.318  0.5478  0.4264 -0.3234
 4007ntf    sn221214   4.450   2.522   4.404  0.3100  0.2486  0.1259
 4007ntf    cn121215   4.589   2.499   4.289 -0.0099  0.1190 -0.2386
 4007ntf    fn421216   4.014   2.252   4.279 -0.2066  0.5499 -0.4129
 4007ntf    fn421217   4.056   2.416   4.413  0.3168  0.0819  0.2680
 4007ntf    fn421218   4.064   2.444   4.204 -0.0323  0.2102  0.2905
 4007ntf    on521219   4.285   2.229   4.404 -0.1136  0.2545  0.3697
 4007ntf    on521220   4.289   2.269   4.162 -0.4763  0.1596  0.4581
 4007ntf    on521221   4.482   2.448   4.523  0.5745 -0.1137 -0.1685
 4007ntf    on521222   4.437   2.664   4.425  0.1454  0.2890 -0.2416
 4007ntf    fn421223   4.561   2.525   4.162 -0.0914  0.6669 -0.1112
 4007ntf    fn421224   4.689   2.578   4.326 -0.2489  0.5120 -0.4238
 4007ntf    fn421225   4.644   2.379   4.300  0.1787  0.2255 -0.0131
 4008ntf    cn121226   7.164   4.389   1.972  0.0966  0.1400 -0.1769
 4008ntf    sn221227   7.030   4.501   2.022  0.1109  0.0667  0.0249
 4008ntf    nn321228   6.919   4.391   2.033 -0.0930  0.3284  0.6173
 4008ntf    sn221229   6.768   4.400   1.989  0.0888  0.2865 -0.0212
 4008ntf    cn121230   6.786   4.309   1.833 -0.1898  0.1100  0.0492
 4008ntf    fn421231   7.273   4.458   1.942  0.2978 -0.2111 -0.2573
 4008ntf    fn421232   7.187   4.306   2.072 -0.0918  0.4013  0.0866
 4008ntf    fn421233   7.132   4.307   1.874  0.5780 -0.0234 -0.1997
 4008ntf    on521234   7.083   4.553   2.146 -0.3634 -0.2441  0.3627
 4008ntf    on521235   7.018   4.594   1.912  0.2381  0.0040 -0.0423
 4008ntf    on521236   6.721   4.527   1.940 -0.0726  0.1605 -0.1958
 4008ntf    on521237   6.681   4.317   2.068  0.2073 -0.0588 -0.2509
 4008ntf    fn421238   6.820   4.183   1.859 -0.3596  0.0827  0.1389
 4008ntf    fn421239   6.684   4.315   1.749  0.0307  0.3660 -0.2042
 4008ntf    fn421240   6.884   4.362   1.761  0.0162  0.0450  0.2805
 4009ntf    cn121241   1.562   6.997   5.593 -0.4575 -0.0015  0.0400
 4009ntf    sn221242   1.479   6.946   5.440 -0.0239 -0.6053  0.0005
 4009ntf    nn321243   1.449   6.793   5.462 -0.3678 -0.4807  0.4123
 4009ntf    sn221244   1.350   6.700   5.385 -0.0190 -0.4009 -0.1389
 4009ntf    cn121245   1.437   6.646   5.234 -0.3883  0.2755 -0.6006
 4009ntf    fn421246   1.677   6.935   5.613 -0.3979  0.0539 -0.1238
 4009ntf    fn421247   1.583   7.127   5.603 -0.0531 -0.0574 -0.0729
 4009ntf    fn421248   1.488   6.967   5.698 -0.7842 -0.1711 -0.2363
 4009ntf    on521249   1.360   7.028   5.443 -0.2461 -0.9308  0.1217
 4009ntf    on521250   1.578   6.964   5.336 -0.0669  0.1023  0.0781
 4009ntf    on521251   1.237   6.766   5.326  0.3636  0.0979 -0.3192
 4009ntf    on521252   1.327   6.575   5.454 -0.1843 -0.1652  0.2333
 4009ntf    fn421253   1.491   6.740   5.158 -0.0016  0.3840 -0.1947
 4009ntf    fn421254   1.538   6.568   5.268 -0.5459  0.1175 -0.4892
 4009ntf    fn421255   1.359   6.580   5.150 -0.3536  0.3512 -0.6917
 4010ntf    cn121256   2.630   6.275   1.200  0.2594 -0.6397  0.0916
 4010ntf    sn221257   2.656   6.400   1.329 -0.0029 -0.0937 -0.3845
 4010ntf    nn321258   2.601   6.329   1.457  0.5071  0.3470  0.0914
 4010ntf    sn221259   2.449   6.311   1.494  0.4140  0.2494 -0.3320
 4010ntf    cn121260   2.442   6.411   1.645  0.3384 -0.2135 -0.0281
 4010ntf    fn421261   2.502   6.248   1.180  0.1271  0.2301 -0.2494
 4010ntf    fn421262   2.676   6.313   1.082 -0.1936 -0.3733  0.0007
 4010ntf    fn421263   2.693   6.164   1.235  0.3244 -0.5131  0.3802
 4010ntf    on521264   2.800   6.416   1.321  0.0637 -0.0448  0.7708
 4010ntf    on521265   2.580   6.514   1.282 -0.1002  0.0722  0.1729
 4010ntf    on521266   2.422   6.175   1.534 -0.4047  0.5378  0.0947
 4010ntf    on521267   2.347   6.375   1.415  0.4303  0.3012 -0.3114
 4010ntf    fn421268   2.539   6.393   1.733  0.3396  0.4795  0.1158
 4010ntf    fn421269   2.445   6.542   1.626  0.1828 -0.2185 -0.0902
 4010ntf    fn421270   2.333   6.387   1.717  0.1772 -0.0158 -0.2066
 4011ntf    cn121271   2.027   4.507   5.512 -0.1215 -0.3664 -0.2848
 4011ntf    sn221272   2.069   4.343   5.445  0.2880 -0.3984  0.0490
 4011ntf    nn321273   2.178   4.296   5.548  0.0702 -1.2304 -0.0922
 4011ntf    sn221274   2.334   4.317   5.539 -0.0753 -0.1783 -0.3507
 4011ntf    cn121275   2.370   4.157   5.460  0.0207 -0.1840 -0.2950
 4011ntf    fn421276   2.132   4.587   5.522  0.0410 -0.6450  0.3161
 4011ntf    fn421277   1.943   4.572   5.433  0.0306  0.2645  0.0702
 4011ntf    fn421278   1.966   4.509   5.629 -0.0379  0.5431 -0.2500
 4011ntf    on521279   1.944   4.272   5.450 -0.3840  0.7730  0.2118
 4011ntf    on521280   2.107   4.374   5.309  0.5854 -0.1552  0.1855
 4011ntf    on521281   2.399   4.309   5.667 -0.3527 -0.1512 -0.2077
 4011ntf    on521282   2.396   4.408   5.447 -0.1982 -0.0161 -0.2749
 4011ntf    fn421283   2.499   4.140   5.440 -0.0106 -0.2198 -0.4648
 4011ntf    fn421284   2.342   4.061   5.547 -0.2138 -0.1284 -0.3081
 4011ntf    fn421285   2.308   4.125   5.347 -0.1700  0.4546 -0.3729
 4012ntf    cn121286   2.692   3.481   4.519 -0.4754  0.0473  0.1068
 4012ntf    sn221287   2.627   3.476   4.349 -0.2219  0.0094  0.0091
 4012ntf    nn321288   2.751   3.547   4.285 -0.6683  0.0729 -0.8073
 4012ntf    sn221289   2.872   3.479   4.212  0.0075  0.1159  0.2433
 4012ntf    cn121290   2.808   3.443   4.046 -0.1985 -0.0700  0.3626
 4012ntf    fn421291   2.606   3.497   4.618 -0.1770  0.3552  0.3155
 4012ntf    fn421292   2.750   3.368   4.558  0.0223  0.3729  0.3120
 4012ntf    fn421293   2.782   3.577   4.521 -0.5259  0.0903  0.2796
 4012ntf    on521294   2.601   3.336   4.327  0.3067 -0.1153  0.1742
 4012ntf    on521295   2.510   3.561   4.355 -0.4675 -0.3300  0.0931
 4012ntf    on521296   2.913   3.349   4.260 -0.2498 -0.0298  0.0765
 4012ntf    on521297   2.981   3.570   4.186  0.2218 -0.3149 -0.4003
 4012ntf    fn421298   2.735   3.332   4.041  0.2370 -0.3491  0.1258
 4012ntf    fn421299   2.732   3.541   4.001  0.0922  0.0791  0.1940
 4012ntf    fn421300   2.907   3.431   3.959 -0.7271 -1.0311 -0.1296
 4013ntf    cn121301   5.982   4.071   5.205 -0.2963  0.0071  0.0771
 4013ntf    sn221302   5.858   4.089   5.337 -0.3519 -0.0425  0.0320
 4013ntf    nn321303   5.741   4.162   5.263 -0.1703  0.0661 -0.1515
 4013ntf    sn221304   5.600   4.096   5.241 -0.2341  0.0195  0.3875
 4013ntf    cn121305   5.513   4.227   5.148 -0.0911 -0.1288  0.0445
 4013ntf    fn421306   5.937   4.002   5.102  0.7685 -0.4014 -0.1204
 4013ntf    fn421307   6.026   4.188   5.161  0.2154 -0.2155 -0.0052
 4013ntf    fn421308   6.091   4.009   5.245 -0.2998 -0.3362 -0.4430
 4013ntf    on521309   5.836   3.957   5.390 -0.2489  0.0759  0.3715
 4013ntf    on521310   5.918   4.185   5.426  0.3450  0.0461 -0.5250
 4013ntf    on521311   5.512   4.085   5.355 -0.1244 -0.8172  0.3951
 4013ntf    on521312   5.598   3.990   5.144 -0.6091  0.4851 -0.1220
 4013ntf    fn421313   5.399   4.191   5.093 -0.1726 -0.0915  0.1892
 4013ntf    fn421314   5.490   4.333   5.224  0.5529  0.1973 -0.2042
 4013ntf    fn421315   5.590   4.278   5.054 -0.0517  0.0053  0.1487
 4014ntf    cn121316   1.734   5.009   5.097 -0.1559  0.0422  0.0122
 4014ntf    sn221317   1.728   5.168   5.008 -0.0185  0.0252 -0.0271
 4014ntf    nn321318   1.654   5.109   4.882  0.0512 -0.0428 -0.0366
 4014ntf    sn221319   1.672   5.154   4.733  0.3693  0.0423  0.0259
 4014ntf    cn121320   1.499   5.205   4.709  0.3141  0.0635  0.4669
 4014ntf    fn421321   1.620   4.975   5.155 -0.0899  0.3099  0.2988
 4014ntf    fn421322   1.762   4.903   5.023  0.4870  0.1027  0.1661
 4014ntf    fn421323   1.825   5.013   5.192 -0.1013 -0.0304 -0.0376
 4014ntf    on521324   1.644   5.248   5.094 -0.5296 -0.4011 -0.1250
 4014ntf    on521325   1.869   5.195   4.998 -0.1356  0.3937 -0.7259
 4014ntf    on521326   1.686   5.046   4.639  0.9037 -0.2645  0.4539
 4014ntf    on521327   1.743   5.275   4.702 -0.0812  0.2178 -0.3306
 4014ntf    fn421328   1.414   5.103   4.702  0.5653 -0.1475  0.4740
 4014ntf    fn421329   1.451   5.291   4.798 -0.3483 -0.4773  0.6435
 4014ntf    fn421330   1.499   5.268   4.593 -0.3295 -0.3412  0.2389
 4015ntf    cn121331   4.252   5.674   4.797  0.0200 -0.1172  0.0784
 4015ntf    sn221332   4.333   5.560   4.682  0.1197  0.1358 -0.1019
 4015ntf    nn321333   4.220   5.451   4.667  0.5612 -0.2455 -0.7350
 4015ntf    sn221334   4.225   5.318   4.585 -0.0438 -0.7319  0.0116
 4015ntf    cn121335   4.045   5.293   4.569 -0.1470  0.1486 -0.2727
 4015ntf    fn421336   4.288   5.653   4.923 -0.0916  0.4867  0.2154
 4015ntf    fn421337   4.275   5.802   4.774 -0.2900 -0.1258 -0.2890
 4015ntf    fn421338   4.121   5.653   4.798 -0.1010  0.6115  0.6827
 4015ntf    on521339   4.354   5.644   4.566 -0.2036  0.4230  0.0468
 4015ntf    on521340   4.445   5.519   4.763  0.1999  0.0683 -0.2446
 4015ntf    on521341   4.268   5.209   4.670  0.2947 -0.0521  0.7220
 4015ntf    on521342   4.263   5.331   4.447 -0.1860 -0.3980  0.0028
 4015ntf    fn421343   3.980   5.406   4.548 -0.0392  0.2769  0.0716
 4015ntf    fn421344   4.016   5.206   4.474  0.5421 -0.8444  0.3929
 4015ntf    fn421345   3.996   5.242   4.681  0.3258 -0.4032 -0.3061
 4016ntf    cn121346   4.894   5.151   1.761 -0.4783  0.1990  0.2083
 4016ntf    sn221347   4.991   5.239   1.636 -0.2346 -0.1152  0.1747
 4016ntf    nn321348   4.880   5.291   1.538 -0.1128 -0.3882 -0.1090
 4016ntf    sn221349   4.897   5.310   1.383 -0.2444  0.0485 -0.0708
 4016ntf    cn121350   4.847   5.143   1.333  0.0166 -0.0451 -0.0192
 4016ntf    fn421351   4.797   5.236   1.793 -0.1845  0.4012  0.5724
 4016ntf    fn421352   4.846   5.039   1.711  0.2361 -0.2511  0.5160
 4016ntf    fn421353   4.966   5.120   1.868  0.3501 -0.3058 -0.4901
 4016ntf    on521354   5.058   5.343   1.711  0.5917 -0.0803 -0.5968
 4016ntf    on521355   5.072   5.135   1.577 -0.0178  0.0583  0.1633
 4016ntf    on521356   5.032   5.330   1.337 -0.1111  0.3618  0.4450
 4016ntf    on521357   4.799   5.402   1.331 -0.6558 -0.7155 -0.6492
 4016ntf    fn421358   4.902   5.047   1.407  0.7900 -0.4885 -1.1407
 4016ntf    fn421359   4.716   5.132   1.348  0.0332  0.4212  0.4884
 4016ntf    fn421360   4.879   5.127   1.206 -0.0969 -0.2322 -0.0250
 4017ntf    cn121361   7.331   3.613   3.864 -0.2761  0.0876 -0.0967
 4017ntf    sn221362   7.208   3.586   3.733 -0.1923  0.1810 -0.1954
 4017ntf    nn321363   7.152   3.729   3.700  0.2882  0.2539 -0.6932
 4017ntf    sn221364   7.012   3.793   3.729  0.1991 -0.2251 -0.0378
 4017ntf    cn121365   6.903   3.704   3.614 -0.3004  0.3587 -0.0237
 4017ntf    fn421366   7.274   3.668   3.970 -0.4130 -0.2792  0.0201
 4017ntf    fn421367   7.387   3.508   3.921 -0.1875  0.1478 -0.0721
 4017ntf    fn421368   7.420   3.704   3.828 -0.3254  0.0477 -0.3219
 4017ntf    on521369   7.281   3.535   3.620 -0.1685  0.0873 -0.1374
 4017ntf    on521370   7.123   3.487   3.795 -0.0293  0.1992  0.0592
 4017ntf    on521371   7.021   3.926   3.671 -0.0197 -0.3949 -0.4660
 4017ntf    on521372   6.942   3.776   3.853  0.4080 -0.4975  0.0429
 4017ntf    fn421373   6.936   3.721   3.487  0.6038  0.5330  0.2268
 4017ntf    fn421374   6.892   3.576   3.645 -0.2953  0.3111 -0.2169
 4017ntf    fn421375   6.778   3.745   3.617 -0.4910 -0.2212  0.0284
 4018ntf    cn121376   2.914   6.920   2.784  0.1111 -0.0545 -0.1535
 4018ntf    sn221377   3.027   7.062   2.776 -0.1526  0.1794  0.1933
 4018ntf    nn321378   2.935   7.174   2.717 -0.2261 -0.0584 -0.1490
 4018ntf    sn221379   2.930   7.256   2.583 -0.1648  0.1627 -0.0177
 4018ntf    cn121380   2.751   7.287   2.585 -0.1953 -0.0211  0.1084
 4018ntf    fn421381   2.869   6.887   2.664  0.2394 -0.6168 -0.0480
 4018ntf    fn421382   2.978   6.817   2.836 -0.1605  0.2133  0.7275
 4018ntf    fn421383   2.804   6.941   2.855  0.0776  0.1216 -0.2569
 4018ntf    on521384   3.059   7.085   2.915  0.3591 -0.3429  0.1686
 4018ntf    on521385   3.130   7.014   2.686 -0.1349 -0.5506  0.5975
 4018ntf    on521386   2.932   7.185   2.458  0.3147  0.0508  0.0509
 4018ntf    on521387   2.989   7.387   2.596  0.3004 -0.1205  0.7622
 4018ntf    fn421388   2.691   7.169   2.578 -0.3416  0.0780 -0.3566
 4018ntf    fn421389   2.691   7.342   2.689  0.3429  0.4237  0.1896
 4018ntf    fn421390   2.696   7.351   2.484 -0.1378  0.3039  0.2817
 4019ntf    cn121391   4.722   4.476   4.100 -0.0884 -0.5461  0.2736
 4019ntf    sn221392   4.567   4.388   4.137 -0.4540 -0.0814 -0.1248
 4019ntf    nn321393   4.573   4.438   4.286  0.0390 -0.5006  0.0032
 4019ntf    sn221394   4.516   4.367   4.413  0.4227 -0.3347  0.2672
 4019ntf    cn121395   4.662   4.271   4.466  0.2640 -0.7544 -0.0536
 4019ntf    fn421396   4.715   4.604   4.134 -0.4455 -0.4567 -0.1268
 4019ntf    fn421397   4.817   4.429   4.178 -0.3285 -0.3270  0.6999
 4019ntf    fn421398   4.764   4.463   3.975 -0.0786 -0.2047  0.2396
 4019ntf    on521399   4.470   4.452   4.052  0.1125  0.3115 -0.4856
 4019ntf    on521400   4.601   4.250   4.111 -0.0979  0.0579 -0.4075
 4019ntf    on521401   4.417   4.268   4.380  0.6710 -0.4381 -0.1759
 4019ntf    on521402   4.484   4.459   4.519  0.2718  0.1536 -0.2014
 4019ntf    fn421403   4.765   4.350   4.490 -0.5732  0.1843  0.5278
 4019ntf    fn421404   4.635   4.210   4.580 -0.1724 -0.1763  0.1599
 4019ntf    fn421405   4.695   4.183   4.373  0.9662 -0.0719 -0.4652
 4020ntf    cn121406   2.616   3.991   1.981  0.6937 -0.1782  0.0202
 4020ntf    sn221407   2.475   3.896   2.046  0.3159  0.4144  0.0779
 4020ntf    nn321408   2.381   3.889   1.921 -0.1582 -0.2816  0.4629
 4020ntf    sn221409   2.358   3.776   1.816  0.1682 -0.0372  0.1266
 4020ntf    cn121410   2.206   3.834   1.735  0.0476  0.0222  0.3953
 4020ntf    fn421411   2.714   4.002   2.069  0.2704  0.4997  0.4155
 4020ntf    fn421412   2.672   3.919   1.885  0.3566 -0.3659 -0.0382
 4020ntf    fn421413   2.578   4.113   1.948 -0.3681 -0.2091  1.0743
 4020ntf    on521414   2.540   3.773   2.086 -0.1514  0.1914  0.1511
 4020ntf    on521415   2.431   3.975   2.158 -0.0105  0.0635  0.1996
 4020ntf    on521416   2.324   3.649   1.876 -0.0623  0.1456  0.3774
 4020ntf    on521417   2.442   3.771   1.698 -0.4266 -0.3325 -0.2938
 4020ntf    fn421418   2.166   3.756   1.635 -0.2223 -0.0115  0.5293
 4020ntf    fn421419   2.108   3.843   1.822 -0.0841  0.3424  0.2162
 4020ntf    fn421420   2.214   3.953   1.678 -0.8184  0.1286  0.4819
 4021ntf    cn121421   1.609   0.803   0.441 -0.2204 -0.0569  0.0425
 4021ntf    sn221422   1.649   0.981   0.445  0.0075 -0.0983 -0.2907
 4021ntf    nn321423   1.525   1.024   0.532 -0.0252  0.2353 -0.5036
 4021ntf    sn221424   1.522   1.146   0.630  0.1987 -0.2269  0.0824
 4021ntf    cn121425   1.588   1.079   0.786 -0.2591  0.1712  0.4510
 4021ntf    fn421426   1.682   0.735   0.354 -0.1590  0.2235 -0.1267
 4021ntf    fn421427   1.616   0.746   0.560 -0.5595 -0.2920 -0.0500
 4021ntf    fn421428   1.485   0.787   0.398 -0.0872 -0.2805 -0.2615
 4021ntf    on521429   1.769   0.970   0.524 -0.4866  0.0761  0.5037
 4021ntf    on521430   1.647   1.028   0.309  0.5904 -0.5453 -0.4582
 4021ntf    on521431   1.391   1.194   0.668  0.4053  0.3617  0.0616
 4021ntf    on521432   1.616   1.251   0.600  0.3237 -0.3247  0.1340
 4021ntf    fn421433   1.578   0.948   0.795 -0.4483  0.1942  0.5761
 4021ntf    fn421434   1.716   1.106   0.803 -0.2203  0.2531  0.0455
 4021ntf    fn421435   1.525   1.134   0.889 -0.2812  0.5007  0.2642
 4022ntf    cn121436   1.698   5.786   6.661  0.0213 -0.2315  0.5081
 4022ntf    sn221437   1.544   5.860   6.723  0.0509  0.1316  0.1489
 4022ntf    nn321438   1.484   5.733   6.793 -0.0375 -0.0355 -0.2224
 4022ntf    sn221439   1.408   5.611   6.730 -0.1214 -0.1999  0.1894
 4022ntf    cn121440   1.515   5.478   6.791  0.2767 -0.0092 -0.0872
 4022ntf    fn421441   1.752   5.719   6.762  0.3306  0.0862  0.5556
 4022ntf    fn421442   1.680   5.698   6.564  0.1251  0.0285  0.2527
 4022ntf    fn421443   1.785   5.876   6.619 -0.3253 -0.0038  0.2838
 4022ntf    on521444   1.582   5.956   6.824  0.2771 -0.4600  0.6322
 4022ntf    on521445   1.463   5.910   6.614 -0.5822 -0.1833  0.4657
 4022ntf    on521446   1.410   5.600   6.586  0.7433 -0.4907  0.2194
 4022ntf    on521447   1.277   5.607   6.790 -0.1402  1.3775  0.3132
 4022ntf    fn421448   1.642   5.494   6.756  0.2411 -0.1345 -0.2734
 4022ntf    fn421449   1.501   5.472   6.923 -0.5082 -0.2576 -0.1780
 4022ntf    fn421450   1.475   5.362   6.742  0.1075  0.0506 -0.0885
 4023ntf    cn121451   6.042   5.544   2.107 -0.2131 -0.4900 -0.3377
 4023ntf    sn221452   5.978   5.418   2.221  0.1952 -0.1326  0.2943
 4023ntf    nn321453   5.962   5.294   2.126 -0.1174  0.1826 -0.0682
 4023ntf    sn221454   5.838   5.258   2.037 -0.0430 -0.3526  0.0415
 4023ntf    cn121455   5.738   5.180   2.168 -0.1246  0.0378  0.2145
 4023ntf    fn421456   6.118   5.632   2.170 -0.2505 -0.6848 -0.0185
 4023ntf    fn421457   6.110   5.490   2.008 -0.1219 -0.1906 -0.4393
 4023ntf    fn421458   5.950   5.613   2.042  0.3336  0.1746 -0.4119
 4023ntf    on521459   6.086   5.392   2.313  0.3348 -0.6524 -0.0095
 4023ntf    on521460   5.857   5.480   2.268 -0.0571  0.1901 -0.7547
 4023ntf    on521461   5.866   5.140   1.958 -0.1639 -0.3452 -0.0123
 4023ntf    on521462   5.765   5.364   1.973  0.3280 -0.1153  0.0150
 4023ntf    fn421463   5.627   5.125   2.120 -0.1425  0.3482 -0.1005
 4023ntf    fn421464   5.801   5.089   2.241 -0.6130 -0.4426  0.0449
 4023ntf    fn421465   5.699   5.278   2.247 -0.3221 -0.0894  0.2774
 4024ntf    cn121466   5.960   3.939   0.905 -0.0524  0.0804 -0.2173
 4024ntf    sn221467   5.808   4.036   0.883 -0.0239  0.2115  0.1523
 4024ntf    nn321468   5.744   4.000   1.021 -0.0852  0.1538  0.1085
 4024ntf    sn221469   5.772   4.074   1.157  0.0144 -0.0683  0.2093
 4024ntf    cn121470   5.617   4.167   1.176 -0.0136 -0.0338 -0.1764
 4024ntf    fn421471   5.946   3.807   0.907  0.0763  0.0648 -0.3323
 4024ntf    fn421472   6.047   3.968   0.810 -0.3935  0.5620 -0.3853
 4024ntf    fn421473   6.025   3.960   1.018 -0.0700  0.4172 -0.2710
 4024ntf    on521474   5.860   4.169   0.862 -0.5608  0.3284 -0.4678
 4024ntf    on521475   5.736   3.972   0.775 -0.4160  0.2262  0.4049
 4024ntf    on521476   5.878   4.171   1.157 -0.3525  0.3354  0.0473
 4024ntf    on521477   5.751   3.979   1.264 -0.3285 -0.3484 -0.1036
 4024ntf    fn421478   5.508   4.093   1.170 -0.0126 -0.0406 -0.1251
 4024ntf    fn421479   5.617   4.229   1.293 -0.2127  0.3411 -0.3730
 4024ntf    fn421480   5.597   4.260   1.084 -0.2003  0.3048  0.2033
 4025ntf    cn121481   2.424   5.273   1.934  0.3796  0.3024  0.4017
 4025ntf    sn221482   2.596   5.299   1.987  0.4678  0.3055  0.1164
 4025ntf    nn321483   2.667   5.159   1.994 -0.5314 -0.2140 -0.0396
 4025ntf    sn221484   2.727   5.068   1.881 -0.0303  0.3722 -0.2451
 4025ntf    cn121485   2.909   5.081   1.886 -0.0218  0.1874 -0.0664
 4025ntf    fn421486   2.351   5.211   2.025 -0.0196  0.3422  0.1125
 4025ntf    fn421487   2.370   5.391   1.912 -0.1228  0.0110  0.0397
 4025ntf    fn421488   2.414   5.207   1.819 -0.1585  0.3383  0.4242
 4025ntf    on521489   2.641   5.387   1.882  0.0103  0.3132 -0.0748
 4025ntf    on521490   2.564   5.348   2.118 -0.5185  0.4066 -0.1515
 4025ntf    on521491   2.710   5.117   1.746 -0.2191 -0.1172 -0.4013
 4025ntf    on521492   2.704   4.927   1.899 -0.1291  0.4862  0.5348
 4025ntf    fn421493   2.972   5.030   1.990 -0.6817  0.2925  0.3896
 4025ntf    fn421494   2.959   5.027   1.776  0.1855  0.1497  0.0476
 4025ntf    fn421495   2.934   5.211   1.881 -0.0409  0.1907 -0.0750
 4026ntf    cn121496   4.194   0.864   1.902 -0.2949  0.1095  0.1196
 4026ntf    sn221497   4.261   0.933   2.056  0.0902  0.4202 -0.1836
 4026ntf    nn321498   4.358   1.042   1.999  0.4108 -0.1146 -0.6640
 4026ntf    sn221499   4.323   1.195   2.002 -0.0337 -0.2279 -0.0680
 4026ntf    cn121500   4.380   1.254   2.164  0.1635  0.2170 -0.2983
 4026ntf    fn421501   4.138   0.956   1.825  0.0934  0.2094 -0.0460
 4026ntf    fn421502   4.291   0.808   1.831 -0.8260 -0.3819 -0.2246
 4026ntf    fn421503   4.102   0.772   1.925  0.4230 -0.5775  0.2971
 4026ntf    on521504   4.152   0.974   2.142  0.3889  0.9750 -0.0634
 4026ntf    on521505   4.334   0.818   2.103  0.0119  0.3454 -0.2465
 4026ntf    on521506   4.184   1.231   1.998  0.0659  0.2203  0.3665
 4026ntf    on521507   4.401   1.282   1.919  0.4355  0.2815  0.8871
 4026ntf    fn421508   4.510   1.232   2.170  0.1212  0.1218  0.4549
 4026ntf    fn421509   4.357   1.382   2.187  0.1044  0.1466  0.0439
 4026ntf    fn421510   4.328   1.188   2.266 -0.0859  0.3204 -0.3584
 4027ntf    cn121511   3.884   3.806   0.392  0.1413 -0.1281  0.2345
 4027ntf    sn221512   3.834   3.960   0.476 -0.0002 -0.0250 -0.0364
 4027ntf    nn321513   3.838   3.908   0.624  0.7480 -0.1260 -0.0898
 4027ntf    sn221514   3.720   3.869   0.720  0.6789  0.0375 -0.1088
 4027ntf    cn121515   3.711   4.027   0.809  0.0799 -0.1701  0.2097
 4027ntf    fn421516   3.794   3.713   0.420  0.5593 -0.4835  0.4091
 4027ntf    fn421517   3.888   3.817   0.261 -0.0079  0.6930  0.2930
 4027ntf    fn421518   3.995   3.755   0.443  0.2718 -0.1992 -0.1221
 4027ntf    on521519   3.941   4.053   0.449  0.2557 -0.3516 -0.1549
 4027ntf    on521520   3.705   3.991   0.419  0.1062 -0.7397 -0.6820
 4027ntf    on521521   3.762   3.772   0.818  0.1039  0.1579  0.2656
 4027ntf    on521522   3.596   3.837   0.653  0.7137  0.4737 -0.3831
 4027ntf    fn421523   3.825   4.064   0.867  0.2646 -0.3836 -0.0157
 4027ntf    fn421524   3.676   4.130   0.734  0.2516 -0.1272  0.1873
 4027ntf    fn421525   3.613   4.018   0.897 -0.0349 -0.0715  0.0920
 4028ntf    cn121526   2.968   5.410   2.450 -0.0128  0.6455  0.2600
 4028ntf    sn221527   2.834   5.503   2.530 -0.0260  0.6104  0.2798
 4028ntf    nn321528   2.889   5.555   2.667  0.3817 -0.0266  0.3644
 4028ntf    sn221529   2.947   5.697   2.700  0.1166  0.2048 -0.1559
 4028ntf    cn121530   2.792   5.794   2.705 -0.2179 -0.3396  0.0716
 4028ntf    fn421531   3.083   5.475   2.447  0.2017  0.2693  0.3015
 4028ntf    fn421532   3.000   5.302   2.519  0.0522  0.3858 -0.1725
 4028ntf    fn421533   2.944   5.366   2.328  0.4819  0.2687  0.2958
 4028ntf    on521534   2.812   5.604   2.429  0.7421  0.1668 -0.3474
 4028ntf    on521535   2.732   5.401   2.542 -0.1107  0.7549  0.7959
 4028ntf    on521536   3.028   5.748   2.592  0.4143  0.6726  0.2812
 4028ntf    on521537   2.999   5.707   2.834  0.9428 -0.4056 -0.4238
 4028ntf    fn421538   2.810   5.923   2.725  0.1086 -0.3590 -0.0778
 4028ntf    fn421539   2.714   5.794   2.599 -0.6774  0.1643  0.4075
 4028ntf    fn421540   2.722   5.758   2.811  0.2148  0.1675  0.5409
 4029ntf    cn121541   4.459   6.818   5.981 -0.0593  0.3309 -0.0586
 4029ntf    sn221542   4.557   6.700   6.079 -0.1374  0.1203 -0.2357
 4029ntf    nn321543   4.694   6.774   6.057  0.2874 -0.3650  0.7322
 4029ntf    sn221544   4.832   6.717   6.010  0.1523 -0.1867  0.1135
 4029ntf    cn121545   4.813   6.752   5.832  0.0979 -0.3232  0.0916
 4029ntf    fn421546   4.343   6.766   5.948 -0.3299  0.8266  0.1003
 4029ntf    fn421547   4.439   6.935   6.040  0.1682 -0.2272  1.1706
 4029ntf    fn421548   4.516   6.836   5.863  0.2686 -0.5348 -0.0365
 4029ntf    on521549   4.515   6.704   6.216 -0.1483  0.2774 -0.2425
 4029ntf    on521550   4.528   6.580   6.003 -0.1385  0.1356 -0.2589
 4029ntf    on521551   4.844   6.574   6.025 -0.3479 -0.3000 -0.5286
 4029ntf    on521552   4.947   6.797   6.046 -0.0748  0.3511 -0.3334
 4029ntf    fn421553   4.707   6.696   5.778  0.0896 -0.3819  0.1671
 4029ntf    fn421554   4.815   6.880   5.798  0.0341 -0.2780  0.2556
 4029ntf    fn421555   4.913   6.699   5.764 -0.0913 -0.6320  0.0532
 4030ntf    cn121556   6.919   2.478   5.604  0.0674  0.0342  0.2725
 4030ntf    sn221557   6.842   2.485   5.769  0.2844 -0.0544  0.3769
 4030ntf    nn321558   6.936   2.384   5.844 -0.2611 -1.3837 -0.6946
 4030ntf    sn221559   6.893   2.292   5.964 -0.1387  0.1130  0.5248
 4030ntf    cn121560   7.051   2.293   6.054  0.1084  0.1678  0.0965
 4030ntf    fn421561   6.859   2.570   5.530 -0.3279  0.1135  0.6833
 4030ntf    fn421562   7.044   2.517   5.618  0.2499 -0.3885 -0.1714
 4030ntf    fn421563   6.912   2.362   5.541  0.0566  0.0961  0.1591
 4030ntf    on521564   6.856   2.622   5.811  0.3571 -0.0866  0.4598
 4030ntf    on521565   6.711   2.440   5.730  0.2654  0.0429  0.3295
 4030ntf    on521566   6.877   2.151   5.940  0.5446  0.1665 -0.2694
 4030ntf    on521567   6.797   2.349   6.055 -0.1471  0.3497  0.3691
 4030ntf    fn421568   7.042   2.234   6.173 -0.0723  0.8652  0.4344
 4030ntf    fn421569   7.143   2.232   5.982 -0.0029  0.2016 -0.0748
 4030ntf    fn421570   7.088   2.419   6.073 -0.0373  0.1704  0.3825
 4031ntf    cn121571   0.816   6.007   3.019 -0.2839 -0.1884  0.0694
 4031ntf    sn221572   0.932   5.912   3.122 -0.0263 -0.0117 -0.0567
 4031ntf    nn321573   1.053   6.012   3.123 -0.4123  0.4596 -0.1958
 4031ntf    sn221574   1.116   6.104   3.234  0.1363 -0.1125 -0.0266
 4031ntf    cn121575   1.274   6.156   3.161  0.1535  0.2619  0.2730
 4031ntf    fn421576   0.850   6.014   2.891 -0.2922 -0.2316  0.0647
 4031ntf    fn421577   0.694   5.960   3.038 -0.1979 -0.4328  0.0284
 4031ntf    fn421578   0.808   6.131   3.062 -0.1425  0.1019 -0.7248
 4031ntf    on521579   0.861   5.912   3.248 -0.5297 -0.0020 -0.3379
 4031ntf    on521580   0.945   5.791   3.045  0.2221  0.5720 -0.9468
 4031ntf    on521581   1.160   6.023   3.344  0.5338 -0.0671 -0.1511
 4031ntf    on521582   1.035   6.223   3.244  0.3258  0.0025  0.1337
 4031ntf    fn421583   1.357   6.055   3.136 -0.2473 -0.0374  0.1349
 4031ntf    fn421584   1.243   6.206   3.043 -0.6229 -0.2623  0.2440
 4031ntf    fn421585   1.331   6.255   3.227  0.4607  0.7042 -0.6429
 4032ntf    cn121586   5.071   0.860   6.921  0.1023 -0.0898  0.1602
 4032ntf    sn221587   4.970   0.711   6.896  0.0574 -0.0716  0.2315
 4032ntf    nn321588   4.862   0.717   7.009 -0.5203 -0.3658 -0.3013
 4032ntf    sn221589   4.727   0.796   6.997 -0.3597 -0.0582 -0.0928
 4032ntf    cn121590   4.629   0.655   6.937 -0.2887 -0.0866 -0.1421
 4032ntf    fn421591   5.198   0.838   6.893  0.1438  0.0435  0.2444
 4032ntf    fn421592   5.037   0.959   6.840  0.1001  0.0074  0.2793
 4032ntf    fn421593   5.064   0.904   7.046 -0.0468 -0.2751  0.2195
 4032ntf    on521594   4.928   0.711   6.758  0.4434 -0.5481  0.1115
 4032ntf    on521595   5.069   0.612   6.931  0.3266  0.0388 -0.2114
 4032ntf    on521596   4.715   0.906   6.904 -0.2205  0.0229 -0.0156
 4032ntf    on521597   4.684   0.822   7.132  0.8248 -0.3326  0.3466
 4032ntf    fn421598   4.501   0.682   6.918 -0.3713 -0.0471  0.4504
 4032ntf    fn421599   4.674   0.608   6.821  0.5040  0.3300 -0.0050
 4032ntf    fn421600   4.628   0.555   7.023 -0.2982  0.4644  0.5021
 4033ntf    cn121601   2.521   3.417   6.736 -0.3369 -0.2126  0.0060
 4033ntf    sn221602   2.381   3.404   6.851 -0.3165  0.2904  0.0897
 4033ntf    nn321603   2.455   3.402   6.989  0.4370  0.2508 -0.3087
 4033ntf    sn221604   2.462   3.508   7.105  0.0965 -0.1203  0.0558
 4033ntf    cn121605   2.619   3.594   7.072 -0.2510  0.4021 -0.2372
 4033ntf    fn421606   2.475   3.423   6.612 -0.3379  0.1282  0.0224
 4033ntf    fn421607   2.603   3.520   6.754 -0.4739 -0.0278 -0.4127
 4033ntf    fn421608   2.600   3.312   6.751  0.3984  0.4001  0.5537
 4033ntf    on521609   2.314   3.527   6.817 -0.5169  0.1943  0.1349
 4033ntf    on521610   2.311   3.283   6.814 -0.0872  0.0639  0.3903
 4033ntf    on521611   2.473   3.452   7.238  0.6940 -1.3639 -0.4968
 4033ntf    on521612   2.355   3.604   7.096 -0.0571 -0.2470  0.5114
 4033ntf    fn421613   2.635   3.612   6.941  0.4314 -0.6277 -0.3044
 4033ntf    fn421614   2.632   3.714   7.125 -0.4338  0.4178 -0.2282
 4033ntf    fn421615   2.728   3.530   7.110 -0.4851 -0.0664 -0.3409
 4034ntf    cn121616   1.648   7.010   7.291  0.0255 -0.3436 -0.1147
 4034ntf    sn221617   1.530   6.887   7.354 -0.3364  0.1369  0.1446
 4034ntf    nn321618   1.399   6.972   7.337 -0.3217  0.1731  0.2123
 4034ntf    sn221619   1.347   7.073   7.446 -0.2841  0.1738  0.2296
 4034ntf    cn121620   1.249   6.969   7.558  0.0696 -0.0391  0.3427
 4034ntf    fn421621   1.645   7.116   7.370  0.0130  0.2080 -0.8389
 4034ntf    fn421622   1.778   6.984   7.298  0.1508  0.1134 -0.6796
 4034ntf    fn421623   1.625   7.050   7.167 -0.0702  0.1707  0.0684
 4034ntf    on521624   1.533   6.787   7.251  0.4548  0.1698  0.1307
 4034ntf    on521625   1.578   6.850   7.484  0.6753  0.5454 -0.1053
 4034ntf    on521626   1.243   7.161   7.400 -0.4643 -0.3459 -0.3851
 4034ntf    on521627   1.446   7.130   7.534 -0.0624 -0.4019  0.3580
 4034ntf    fn421628   1.316   6.903   7.651  0.4907 -0.1888 -0.0647
 4034ntf    fn421629   1.160   7.046   7.619 -0.0908  0.0257  0.0251
 4034ntf    fn421630   1.183   6.874   7.494 -0.1243 -0.0079  0.4940
 4035ntf    cn121631   1.633   4.414   6.569  0.0484 -0.1541 -0.0790
 4035ntf    sn221632   1.464   4.423   6.637  0.1663 -0.3164  0.2351
 4035ntf    nn321633   1.502   4.500   6.768  0.0049  0.6196 -0.2654
 4035ntf    sn221634   1.399   4.578   6.858 -0.0251  0.5767 -0.2627
 4035ntf    cn121635   1.485   4.554   7.017 -0.8481 -0.1466  0.0808
 4035ntf    fn421636   1.669   4.532   6.522 -0.5606 -0.2355 -0.7774
 4035ntf    fn421637   1.725   4.380   6.658  0.0953  0.1257 -0.0188
 4035ntf    fn421638   1.646   4.327   6.471 -0.5666 -0.1125 -0.2036
 4035ntf    on521639   1.392   4.504   6.542 -0.3911 -0.1300  0.8116
 4035ntf    on521640   1.424   4.286   6.660 -0.2202 -0.1676  0.4582
 4035ntf    on521641   1.274   4.510   6.884  0.5483 -0.3430  0.1562
 4035ntf    on521642   1.407   4.722   6.853  0.1612  0.6004  0.5540
 4035ntf    fn421643   1.428   4.615   7.119  0.4585  0.4072  0.4883
 4035ntf    fn421644   1.493   4.424   7.044  0.3827 -0.0851  0.0344
 4035ntf    fn421645   1.612   4.587   7.016 -0.6247 -0.9702 -0.1693
 4036ntf    cn121646   2.047   1.477   4.599 -0.0787  0.2341  0.4737
 4036ntf    sn221647   2.014   1.558   4.439  0.3505  0.1257  0.3288
 4036ntf    nn321648   1.941   1.690   4.482 -0.1850 -0.2786  0.6833
 4036ntf    sn221649   1.814   1.757   4.419  0.1647  0.0261  0.2950
 4036ntf    cn121650   1.692   1.662   4.515 -0.1511  0.1289 -0.0037
 4036ntf    fn421651   2.125   1.371   4.596 -0.2880  0.1024 -0.5762
 4036ntf    fn421652   2.112   1.559   4.680  0.1908 -0.0694  0.5634
 4036ntf    fn421653   1.937   1.444   4.664 -0.1823  0.3891  0.3793
 4036ntf    on521654   2.144   1.573   4.378  0.2080 -0.1710 -0.0542
 4036ntf    on521655   1.922   1.464   4.381  0.6743 -0.3612  0.5956
 4036ntf    on521656   1.784   1.727   4.281  0.1364 -0.2346  0.3574
 4036ntf    on521657   1.788   1.894   4.454 -0.1039  0.0202  0.1233
 4036ntf    fn421658   1.565   1.692   4.490 -0.2115  0.1506  0.3296
 4036ntf    fn421659   1.702   1.532   4.491  0.3547  0.2366 -0.4003
 4036ntf    fn421660   1.719   1.675   4.643 -0.5407  0.4893  0.0456
 4037ntf    cn121661   5.214   3.462   3.647  0.1855 -0.0659  0.2642
 4037ntf    sn221662   5.267   3.322   3.544 -0.0082 -0.1192  0.2365
 4037ntf    nn321663   5.367   3.259   3.647 -0.0560  0.1968  0.4787
 4037ntf    sn221664   5.524   3.268   3.654 -0.0530  0.1053  0.5441
 4037ntf    cn121665   5.578   3.115   3.736  0.4356  0.0451  0.1102
 4037ntf    fn421666   5.314   3.527   3.705 -0.1339  0.2020  0.5148
 4037ntf    fn421667   5.141   3.554   3.585  0.3091  0.1654  0.4568
 4037ntf    fn421668   5.139   3.433   3.751 -0.1038  0.0100  0.0777
 4037ntf    on521669   5.149   3.241   3.532 -0.1879  0.1670  0.0467
 4037ntf    on521670   5.337   3.383   3.433 -0.3184  0.2735  0.2543
 4037ntf    on521671   5.557   3.373   3.748  0.0026  0.6556 -0.0879
 4037ntf    on521672   5.589   3.259   3.526 -0.2143 -0.3708  0.4941
 4037ntf    fn421673   5.555   3.116   3.866  0.0162  0.1321  0.0371
 4037ntf    fn421674   5.506   3.013   3.693  0.1000  0.3975 -0.1741
 4037ntf    fn421675   5.704   3.087   3.707  0.4327 -0.0005  0.1427
 4038ntf    cn121676   5.063   1.434   1.256  0.1473  0.0811 -0.3637
 4038ntf    sn221677   5.021   1.524   1.408  0.0231  0.0405 -0.3740
 4038ntf    nn321678   4.913   1.429   1.471  0.5829  0.0243  0.5825
 4038ntf    sn221679   4.757   1.440   1.486  0.5778  0.0428  0.5155
 4038ntf    cn121680   4.727   1.300   1.374  0.4314  0.6016 -0.1493
 4038ntf    fn421681   5.095   1.309   1.283  0.5643  0.3801  0.5687
 4038ntf    fn421682   4.959   1.433   1.175 -0.1506  0.1183  0.0142
 4038ntf    fn421683   5.168   1.477   1.188  0.3277  0.6529  0.2682
 4038ntf    on521684   5.141   1.522   1.489 -0.1013 -0.2270 -0.1943
 4038ntf    on521685   4.974   1.654   1.364 -0.4619 -0.1702 -0.4869
 4038ntf    on521686   4.690   1.551   1.423  0.3694 -0.5764 -0.3815
 4038ntf    on521687   4.708   1.396   1.614  0.2755  0.3146  0.4953
 4038ntf    fn421688   4.791   1.311   1.258  0.2193  0.3804 -0.2878
 4038ntf    fn421689   4.774   1.191   1.432 -0.2417  0.4227  0.0599
 4038ntf    fn421690   4.600   1.282   1.342  0.3227  0.2328  0.4815
 4039ntf    cn121691   0.961   6.627   2.027  0.3145 -0.6909  0.0926
 4039ntf    sn221692   1.101   6.741   2.053 -0.0194 -0.2236 -0.1285
 4039ntf    nn321693   1.063   6.865   1.965  0.0918  0.1131  0.2980
 4039ntf    sn221694   1.068   7.020   1.988  0.0384  0.1613 -0.0062
 4039ntf    cn121695   0.902   7.033   2.062  0.0631  0.2328  0.0372
 4039ntf    fn421696   0.954   6.530   2.116  0.1392 -0.0240  0.8204
 4039ntf    fn421697   0.843   6.687   2.038  0.4323 -0.4546  0.0672
 4039ntf    fn421698   0.957   6.581   1.903 -0.1176 -0.3365 -0.0304
 4039ntf    on521699   1.096   6.759   2.196 -0.0199  0.3557 -0.1999
 4039ntf    on521700   1.224   6.683   2.006 -0.0236 -0.5176  0.2159
 4039ntf    on521701   1.060   7.096   1.866 -0.6591 -0.3315 -0.2757
 4039ntf    on521702   1.167   7.060   2.085 -0.0746  0.2400  0.0778
 4039ntf    fn421703   0.901   6.967   2.177 -0.2081 -0.1880 -0.2029
 4039ntf    fn421704   0.876   7.158   2.097  0.1919  0.3466 -0.2718
 4039ntf    fn421705   0.802   6.982   1.992  0.4308 -0.0523 -0.2824
 4040ntf    cn121706   2.892   6.297   2.219  0.0063  0.5465 -0.0720
 4040ntf    sn221707   3.029   6.311   2.100 -0.1491  0.2389 -0.2907
 4040ntf    nn321708   3.128   6.205   2.161 -0.4622  0.4796  0.6568
 4040ntf    sn221709   3.237   6.237   2.269  0.0555  0.3946  0.1597
 4040ntf    cn121710   3.388   6.272   2.173  0.1045 -0.4356 -0.0673
 4040ntf    fn421711   2.927   6.319   2.344 -0.5956 -0.4180  0.2805
 4040ntf    fn421712   2.790   6.380   2.198 -0.1885  0.2616 -0.2612
 4040ntf    fn421713   2.835   6.178   2.215 -0.1476  0.6110  0.1710
 4040ntf    on521714   2.962   6.276   1.978 -0.0152  0.2328 -0.3629
 4040ntf    on521715   3.072   6.448   2.114  0.0041  0.1845 -0.2240
 4040ntf    on521716   3.270   6.113   2.333  0.3712  0.1864 -0.3985
 4040ntf    on521717   3.212   6.351   2.354 -0.1669  0.7919 -0.4244
 4040ntf    fn421718   3.423   6.183   2.081  0.3140  0.0254 -0.4361
 4040ntf    fn421719   3.373   6.385   2.106  0.3164 -0.5281 -0.2703
 4040ntf    fn421720   3.490   6.294   2.254 -0.0326 -0.5838  0.1475
 4041ntf    cn121721   1.400   2.844   0.787 -0.1340  0.0274  0.3533
 4041ntf    sn221722   1.568   2.779   0.763 -0.1285  0.0801  0.2469
 4041ntf    nn321723   1.637   2.891   0.678  0.0208 -0.0553  0.1897
 4041ntf    sn221724   1.688   2.889   0.530 -0.1383 -0.4040  0.1394
 4041ntf    cn121725   1.839   2.794   0.566 -0.2739 -0.6479  0.0674
 4041ntf    fn421726   1.341   2.798   0.896 -0.1199 -0.2489  0.2447
 4041ntf    fn421727   1.392   2.975   0.803  0.1998  0.0490  0.3426
 4041ntf    fn421728   1.320   2.813   0.686  0.3474  0.3557 -0.1324
 4041ntf    on521729   1.629   2.765   0.894 -0.2643  0.4492  0.3489
 4041ntf    on521730   1.546   2.649   0.705  0.4174 -0.0047  0.2194
 4041ntf    on521731   1.735   3.020   0.491  0.2819 -0.5265  0.2259
 4041ntf    on521732   1.609   2.817   0.433 -0.2942  0.1259 -0.1291
 4041ntf    fn421733   1.911   2.786   0.456 -0.6459 -0.1756 -0.2140
 4041ntf    fn421734   1.911   2.852   0.661  0.1295 -0.4117 -0.3820
 4041ntf    fn421735   1.817   2.672   0.613 -0.1172 -0.5578  0.3802
 4042ntf    cn121736   7.289   6.746   0.811  0.3715  0.2269  0.0605
 4042ntf    sn221737   7.175   6.846   0.710  0.0717  0.0525  0.2259
 4042ntf    nn321738   7.133   6.939   0.829  0.1681  0.4901 -0.0818
 4042ntf    sn221739   7.014   6.928   0.931  0.1205 -0.0230 -0.1923
 4042ntf    cn121740   7.069   7.049   1.055 -0.3553  0.2164 -0.2131
 4042ntf    fn421741   7.235   6.676   0.909 -0.4996  0.4948 -0.2177
 4042ntf    fn421742   7.369   6.666   0.742 -0.3231 -0.3402 -0.0917
 4042ntf    fn421743   7.372   6.832   0.867  0.2404  0.4088 -0.0225
 4042ntf    on521744   7.250   6.920   0.612 -0.5303  0.3004 -0.0490
 4042ntf    on521745   7.078   6.749   0.665  0.2974 -0.0177 -0.1117
 4042ntf    on521746   6.995   6.801   0.997  0.5729 -0.2578 -0.5023
 4042ntf    on521747   6.893   6.991   0.884  0.0848 -0.0625 -0.1533
 4042ntf    fn421748   7.076   7.170   1.004  0.2198  0.3406  0.1513
 4042ntf    fn421749   6.979   7.065   1.151  0.0063 -0.1236  0.1883
 4042ntf    fn421750   7.181   7.027   1.121 -0.1424 -0.1120 -0.6810
 4043ntf    cn121751   5.825   6.517   1.121  0.0520 -0.2529  0.0891
 4043ntf    sn221752   5.842   6.696   1.151 -0.0126 -0.2231 -0.0472
 4043ntf    nn321753   5.792   6.697   1.300 -0.0410 -0.4199 -0.0553
 4043ntf    sn221754   5.870   6.711   1.435 -0.4228 -0.1206  0.1343
 4043ntf    cn121755   5.838   6.542   1.494 -0.4120  0.0295  0.5773
 4043ntf    fn421756   5.699   6.483   1.143 -0.0743  0.2699  0.1902
 4043ntf    fn421757   5.842   6.490   0.993  0.2259 -0.3056  0.1244
 4043ntf    fn421758   5.912   6.443   1.186  0.4823 -0.0731 -0.2796
 4043ntf    on521759   5.985   6.709   1.142  0.0367 -0.8752 -0.2912
 4043ntf    on521760   5.756   6.764   1.057 -0.0610  0.1304  0.2478
 4043ntf    on521761   5.810   6.793   1.538 -0.1701 -0.3697  0.4823
 4043ntf    on521762   6.014   6.713   1.424 -0.3899 -0.3764  0.5113
 4043ntf    fn421763   5.710   6.509   1.494 -0.3073 -0.3831  0.8374
 4043ntf    fn421764   5.903   6.458   1.416 -0.2852  0.2820  0.4099
 4043ntf    fn421765   5.877   6.525   1.619 -0.1694 -0.8064  0.3899
 4044ntf    cn121766   5.673   5.881   7.153  0.1696  0.4311  0.1095
 4044ntf    sn221767   5.712   6.058   7.148  0.2682  0.4102  0.1363
 4044ntf    nn321768   5.800   6.055   7.018  0.0081  0.0773 -0.0329
 4044ntf    sn221769   5.953   6.046   6.985 -0.0488 -0.2615 -0.2127
 4044ntf    cn121770   5.930   5.948   6.834  0.2752 -0.3867 -0.1799
 4044ntf    fn421771   5.768   5.803   7.203 -0.2855 -0.3859 -0.2784
 4044ntf    fn421772   5.570   5.855   7.232  0.0471 -0.0967 -0.2144
 4044ntf    fn421773   5.638   5.829   7.037  1.0199  0.7924 -0.3162
 4044ntf    on521774   5.588   6.130   7.136 -0.0288 -0.1267 -0.0326
 4044ntf    on521775   5.777   6.074   7.276  0.1878  0.1038  0.2155
 4044ntf    on521776   6.025   5.963   7.078  0.0510  0.2103  0.1389
 4044ntf    on521777   6.014   6.169   6.939 -0.7430 -0.0826 -0.6684
 4044ntf    fn421778   5.896   5.823   6.860 -0.8117  0.0136  0.3724
 4044ntf    fn421779   5.831   5.997   6.762  0.2291 -0.8518 -0.4355
 4044ntf    fn421780   6.032   5.950   6.750  0.4309 -0.0149  0.0174
 4045ntf    cn121781   5.033   0.179   6.854 -0.2886  0.5847 -0.1580
 4045ntf    sn221782   5.211   0.143   6.860 -0.3820  0.2104  0.3596
 4045ntf    nn321783   5.211  -0.012   6.885  0.3794  0.1089 -0.2331
 4045ntf    sn221784   5.245  -0.090   7.017 -0.0474  0.1142 -0.1163
 4045ntf    cn121785   5.128  -0.229   7.018 -0.0023  0.0753 -0.2717
 4045ntf    fn421786   4.970   0.117   6.952  0.6387 -0.7552 -0.3892
 4045ntf    fn421787   5.004   0.308   6.859 -0.2372  0.6045 -0.3428
 4045ntf    fn421788   5.003   0.140   6.731  0.2658 -0.1941 -0.0520
 4045ntf    on521789   5.251   0.189   6.730 -0.5239  0.0475  0.2575
 4045ntf    on521790   5.263   0.230   6.962  0.6010  0.4998 -0.3739
 4045ntf    on521791   5.212  -0.023   7.140 -0.0511  0.1134 -0.1163
 4045ntf    on521792   5.370  -0.164   7.014  0.2064  0.4822  0.9489
 4045ntf    fn421793   5.003  -0.186   7.008  0.0847  0.3221 -0.3142
 4045ntf    fn421794   5.146  -0.297   6.906 -0.3734 -0.1926 -0.1724
 4045ntf    fn421795   5.129  -0.310   7.122  0.5710  0.4015 -0.0192
 4046ntf    cn121796   0.323   1.070   4.200  0.2085 -0.4453 -0.3613
 4046ntf    sn221797   0.379   1.241   4.177  0.1063 -0.4031 -0.2961
 4046ntf    nn321798   0.466   1.259   4.306 -0.3139  0.0269 -0.0696
 4046ntf    sn221799   0.427   1.338   4.436 -0.2874 -0.0671 -0.0043
 4046ntf    cn121800   0.362   1.209   4.546 -0.0968 -0.3157 -0.1822
 4046ntf    fn421801   0.280   1.015   4.087 -0.3427 -0.0131 -0.3683
 4046ntf    fn421802   0.417   0.987   4.243  0.2914  0.0554  0.4322
 4046ntf    fn421803   0.215   1.063   4.276  0.2899  0.2687 -0.1767
 4046ntf    on521804   0.474   1.242   4.068 -0.1795 -0.4259 -0.5475
 4046ntf    on521805   0.260   1.320   4.157  0.0812 -0.3030  0.2307
 4046ntf    on521806   0.318   1.430   4.419 -0.3328 -0.1167  0.0191
 4046ntf    on521807   0.544   1.379   4.509 -0.2358 -0.2410  0.0113
 4046ntf    fn421808   0.269   1.138   4.483 -0.2565 -0.0534 -0.2418
 4046ntf    fn421809   0.449   1.117   4.585 -0.2058 -0.2217  0.2883
 4046ntf    fn421810   0.308   1.257   4.657  0.5385  0.6033 -0.2696
 4047ntf    cn121811   4.289   3.857   0.662 -0.1861 -0.1146  0.2624
 4047ntf    sn221812   4.426   3.914   0.557 -0.0160 -0.4305  0.3111
 4047ntf    nn321813   4.362   3.899   0.415 -0.4367 -0.3067  0.4871
 4047ntf    sn221814   4.402   3.798   0.302 -0.1962  0.4711 -0.1407
 4047ntf    cn121815   4.277   3.833   0.175 -0.0836 -0.4191 -0.5078
 4047ntf    fn421816   4.240   3.738   0.628  0.5662 -0.3512 -0.0137
 4047ntf    fn421817   4.333   3.841   0.786 -0.2834  0.0861  0.3226
 4047ntf    fn421818   4.189   3.944   0.664  0.0375  0.1621 -0.3962
 4047ntf    on521819   4.431   4.051   0.604 -0.0271 -0.3015 -0.0580
 4047ntf    on521820   4.526   3.815   0.590  0.3476 -0.2003 -0.0923
 4047ntf    on521821   4.389   3.658   0.337  0.6534  0.4013 -0.0991
 4047ntf    on521822   4.521   3.837   0.231 -0.1182 -0.2870 -0.4410
 4047ntf    fn421823   4.154   3.820   0.223 -0.0855 -0.2762 -0.4713
 4047ntf    fn421824   4.285   3.954   0.120  0.1192 -0.3424 -0.3104
 4047ntf    fn421825   4.290   3.748   0.075  0.6076 -0.2831 -0.5371
 4048ntf    cn121826   4.729   2.587   6.857 -0.0369  0.1611  0.4375
 4048ntf    sn221827   4.649   2.431   6.811 -0.1228  0.3272  0.0180
 4048ntf    nn321828   4.517   2.479   6.741 -0.2705  0.0425  0.1016
 4048ntf    sn221829   4.459   2.437   6.601 -0.1160 -0.1356  0.0906
 4048ntf    cn121830   4.284   2.472   6.632 -0.1738 -0.3399 -0.0051
 4048ntf    fn421831   4.758   2.659   6.749  0.4298 -0.4058  0.1813
 4048ntf    fn421832   4.659   2.666   6.936 -0.1767  0.4538  0.0266
 4048ntf    fn421833   4.838   2.567   6.929  0.1030 -0.1434  0.1418
 4048ntf    on521834   4.744   2.362   6.727 -0.5328  0.0376 -0.2121
 4048ntf    on521835   4.609   2.372   6.936 -0.3007  0.5002  0.0419
 4048ntf    on521836   4.457   2.295   6.575 -0.6838 -0.0438 -0.3696
 4048ntf    on521837   4.493   2.526   6.493 -0.3000  0.0623  0.1947
 4048ntf    fn421838   4.208   2.400   6.550 -0.2966  0.5779 -0.7044
 4048ntf    fn421839   4.256   2.445   6.759 -0.6680  0.2362  0.0137
 4048ntf    fn421840   4.269   2.601   6.608  0.3918 -0.3120 -0.2156
 4049ntf    cn121841   0.032   4.889   3.097  0.3322  0.2938 -0.3069
 4049ntf    sn221842   0.138   4.757   3.029 -0.2389  0.0190 -0.6765
 4049ntf    nn321843   0.025   4.652   2.999 -0.2220 -0.2494  0.1493
 4049ntf    sn221844  -0.036   4.535   3.084  0.1618 -0.4722  0.1192
 4049ntf    cn121845  -0.210   4.585   3.071  0.4646  0.6886  0.3916
 4049ntf    fn421846   0.112   4.992   3.119  0.4861  0.0052  0.4975
 4049ntf    fn421847  -0.065   4.925   3.015  0.7286  0.3547 -0.7558
 4049ntf    fn421848  -0.016   4.854   3.215  0.0990 -0.4910 -0.6267
 4049ntf    on521849   0.191   4.821   2.911  0.5938  0.2103 -0.2104
 4049ntf    on521850   0.230   4.719   3.134 -0.1529  0.3397 -0.6330
 4049ntf    on521851  -0.006   4.534   3.225 -0.4336 -0.1574  0.2487
 4049ntf    on521852  -0.048   4.405   3.024 -0.9308 -0.2282 -0.2017
 4049ntf    fn421853  -0.292   4.501   3.133  0.4869  0.2670 -0.1438
 4049ntf    fn421854  -0.225   4.704   3.128 -0.2043  0.4528  0.7196
 4049ntf    fn421855  -0.244   4.598   2.944 -0.3504  0.1580  0.5484
 4050ntf    cn121856   0.770   4.697   0.511 -0.1619 -0.0586  0.2973
 4050ntf    sn221857   0.824   4.539   0.585 -0.1814 -0.1402  0.1383
 4050ntf    nn321858   0.692   4.496   0.658 -0.1452 -0.1457  0.2000
 4050ntf    sn221859   0.677   4.477   0.813 -0.0330 -0.1836  0.2067
 4050ntf    cn121860   0.495   4.473   0.815 -0.0318 -0.2042  0.2759
 4050ntf    fn421861   0.853   4.748   0.421 -0.3259 -0.3525 -0.0230
 4050ntf    fn421862   0.649   4.696   0.459 -0.2557 -0.6646  0.5124
 4050ntf    fn421863   0.778   4.791   0.603  0.4978  0.1491  0.0345
 4050ntf    on521864   0.863   4.458   0.473 -0.4536 -0.1787  0.0712
 4050ntf    on521865   0.931   4.589   0.668 -0.3616  0.2689  0.1278
 4050ntf    on521866   0.708   4.587   0.900 -0.2036  0.2253 -0.2484
 4050ntf    on521867   0.720   4.344   0.849  0.2972 -0.0450  0.3289
 4050ntf    fn421868   0.455   4.373   0.738  0.1212  0.3420 -0.5241
 4050ntf    fn421869   0.437   4.453   0.933 -0.4661  0.2004  0.1321
 4050ntf    fn421870   0.444   4.582   0.761 -0.0042 -0.3787 -0.1017
 4051ntf    cn121871   4.228   5.312   6.987 -0.2629 -0.0015 -0.0573
 4051ntf    sn221872   4.133   5.193   6.887 -0.2837 -0.1417  0.1258
 4051ntf    nn321873   4.024   5.145   6.989 -0.3593  0.2909  0.2515
 4051ntf    sn221874   3.942   5.011   6.991  0.0224  0.0451 -0.2145
 4051ntf    cn121875   3.790   5.067   7.074  0.0298 -0.4463  0.1349
 4051ntf    fn421876   4.154   5.412   7.032  0.2698  0.2756  0.2131
 4051ntf    fn421877   4.282   5.252   7.092 -0.2258  0.3629  0.1312
 4051ntf    fn421878   4.332   5.360   6.922 -0.2875  0.0532 -0.0575
 4051ntf    on521879   4.086   5.285   6.786  0.0508 -0.2719 -0.1524
 4051ntf    on521880   4.233   5.099   6.844 -0.3045  0.1124 -0.4995
 4051ntf    on521881   3.998   4.919   7.087  0.3633  0.1360 -0.3251
 4051ntf    on521882   3.896   4.965   6.863  0.0292 -0.2102 -0.1261
 4051ntf    fn421883   3.739   5.164   7.000 -0.1196 -0.3609  0.3477
 4051ntf    fn421884   3.693   4.980   7.091  0.2346 -0.6026  0.5340
 4051ntf    fn421885   3.811   5.119   7.194 -0.0485 -0.1625  0.0248
 4052ntf    cn121886   5.681   2.154   1.380  0.3216  0.0521 -0.0309
 4052ntf    sn221887   5.688   2.171   1.561  0.4421 -0.0278 -0.0280
 4052ntf    nn321888   5.817   2.086   1.591  0.2752 -0.2880 -0.0453
 4052ntf    sn221889   5.933   2.102   1.695  0.0937  0.0238  0.1102
 4052ntf    cn121890   5.914   1.959   1.806  0.0877 -0.1630 -0.1306
 4052ntf    fn421891   5.587   2.225   1.320  0.3945 -0.0905 -0.3196
 4052ntf    fn421892   5.794   2.187   1.318  0.0892 -0.0265 -0.5006
 4052ntf    fn421893   5.669   2.028   1.342  0.0475  0.2436 -0.5832
 4052ntf    on521894   5.691   2.313   1.581  0.4197 -0.0595  0.1951
 4052ntf    on521895   5.574   2.100   1.613  0.4046 -0.4101 -0.6168
 4052ntf    on521896   5.927   2.216   1.783  0.2260 -0.0004  0.1514
 4052ntf    on521897   6.065   2.077   1.642 -0.0434  0.5359 -0.4859
 4052ntf    fn421898   5.948   1.847   1.744 -0.2377 -0.0350 -0.5415
 4052ntf    fn421899   5.994   1.971   1.911 -0.0726 -0.2600  0.0026
 4052ntf    fn421900   5.794   1.945   1.859  0.2222  0.0006  0.2218
 4053ntf    cn121901   5.226   1.848   4.712 -0.0913  0.1066  0.0367
 4053ntf    sn221902   5.407   1.848   4.701 -0.1012 -0.3025 -0.1689
 4053ntf    nn321903   5.431   2.001   4.728 -0.7963 -0.2765  0.3086
 4053ntf    sn221904   5.440   2.068   4.870 -0.0370  0.1098  0.0810
 4053ntf    cn121905   5.468   2.239   4.813 -0.5263  0.1527 -0.0327
 4053ntf    fn421906   5.200   1.958   4.644  1.2781 -0.0691 -0.8278
 4053ntf    fn421907   5.162   1.746   4.657 -0.1286  0.2342 -0.1583
 4053ntf    fn421908   5.198   1.855   4.841  0.0270  0.2162  0.0556
 4053ntf    on521909   5.439   1.752   4.805  0.5360  0.0781 -0.0078
 4053ntf    on521910   5.425   1.801   4.566  0.4430 -0.2319 -0.1238
 4053ntf    on521911   5.559   2.029   4.941 -0.0118 -0.4312 -0.2592
 4053ntf    on521912   5.314   2.072   4.940 -0.2016  0.4867 -0.2330
 4053ntf    fn421913   5.590   2.256   4.766 -0.2621 -0.1110  0.5475
 4053ntf    fn421914   5.381   2.273   4.720  0.3317  0.2642 -0.8025
 4053ntf    fn421915   5.448   2.327   4.911  0.2686  0.3372 -0.0354
 4054ntf    cn121916   0.834   3.173   0.456  0.2515 -0.3375 -0.1240
 4054ntf    sn221917   0.827   3.185   0.637  0.3884  0.0429 -0.1417
 4054ntf    nn321918   0.964   3.247   0.680  0.3373  0.3176 -0.3724
 4054ntf    sn221919   1.090   3.172   0.737 -0.1394 -0.1385  0.0922
 4054ntf    cn121920   1.167   3.110   0.584 -0.2639  0.0538 -0.0486
 4054ntf    fn421921   0.942   3.233   0.407  0.1583 -0.6207 -0.6887
 4054ntf    fn421922   0.830   3.050   0.408  0.0828 -0.3812  0.0044
 4054ntf    fn421923   0.736   3.239   0.398  0.0786 -0.5030 -0.0210
 4054ntf    on521924   0.713   3.272   0.648  0.2556 -0.1137 -0.2691
 4054ntf    on521925   0.802   3.051   0.686  0.3316 -0.0406 -0.3970
 4054ntf    on521926   1.062   3.056   0.818 -0.3023 -0.1658 -0.0021
 4054ntf    on521927   1.180   3.269   0.794 -0.1119 -0.3859  0.4715
 4054ntf    fn421928   1.167   3.201   0.488  0.0180 -0.0474 -0.1446
 4054ntf    fn421929   1.292   3.072   0.602 -0.1741  0.4427  0.1621
 4054ntf    fn421930   1.105   3.001   0.542  0.3343 -0.3643  0.1480
 4055ntf    cn121931   5.294   2.742   5.089 -0.5194 -0.0974  0.3870
 4055ntf    sn221932   5.229   2.912   5.082  0.2916  0.2110  0.1739
 4055ntf    nn321933   5.350   2.993   5.023  0.1968  0.6893  0.6311
 4055ntf    sn221934   5.361   3.096   4.905  0.0408 -0.0168 -0.0006
 4055ntf    cn121935   5.477   3.001   4.802 -0.0089 -0.0878  0.0086
 4055ntf    fn421936   5.382   2.726   5.187  0.3743  0.1523 -0.3567
 4055ntf    fn421937   5.198   2.653   5.106 -0.6737 -0.0513 -0.2275
 4055ntf    fn421938   5.353   2.714   4.974  0.4997  0.7971  0.6664
 4055ntf    on521939   5.116   2.901   4.993 -0.0471  0.4341  0.5732
 4055ntf    on521940   5.206   2.945   5.220  0.6641  0.0253  0.2812
 4055ntf    on521941   5.444   3.209   4.937 -0.5371  0.3416  0.2394
 4055ntf    on521942   5.249   3.115   4.816 -0.2235 -0.5467  0.2105
 4055ntf    fn421943   5.599   3.001   4.853  0.3070  0.2626 -0.7397
 4055ntf    fn421944   5.442   2.873   4.793 -0.0991 -0.0851  0.3288
 4055ntf    fn421945   5.486   3.045   4.678  0.1654 -0.2934 -0.0532
 4056ntf    cn121946   6.774   4.730   0.798  0.0910  0.5107 -0.3442
 4056ntf    sn221947   6.956   4.739   0.803  0.0919  0.3249 -0.0299
 4056ntf    nn321948   6.974   4.615   0.899 -0.0841 -0.0194 -0.4371
 4056ntf    sn221949   7.007   4.465   0.869  0.3024 -0.0287  0.0241
 4056ntf    cn121950   7.187   4.467   0.847  0.2765 -0.1749 -0.2024
 4056ntf    fn421951   6.727   4.671   0.690 -0.3220 -0.0570  0.1371
 4056ntf    fn421952   6.732   4.655   0.898  0.4298  0.4014 -0.2804
 4056ntf    fn421953   6.701   4.840   0.796 -0.1014  0.3967  0.1556
 4056ntf    on521954   7.002   4.724   0.667  0.8573 -0.5790  0.3163
 4056ntf    on521955   6.991   4.859   0.873  0.5205  0.2060 -0.0409
 4056ntf    on521956   6.945   4.411   0.750  0.3347  0.0606 -0.0340
 4056ntf    on521957   6.985   4.380   0.984  0.3891 -0.7784 -0.5046
 4056ntf    fn421958   7.234   4.489   0.725 -0.4484 -0.3198 -0.5157
 4056ntf    fn421959   7.248   4.551   0.929  0.4568  0.1316 -0.6470
 4056ntf    fn421960   7.237   4.347   0.874 -0.7392 -0.6264 -0.2818
 4057ntf    cn121961   6.305   0.169   4.586  0.1171 -0.3071 -0.2342
 4057ntf    sn221962   6.187   0.043   4.529 -0.3093 -0.1340  0.2490
 4057ntf    nn321963   6.087   0.129   4.444  0.5822  0.5519 -0.1208
 4057ntf    sn221964   6.007   0.108   4.311  0.2131  0.3582  0.1324
 4057ntf    cn121965   5.839   0.137   4.377  0.0716  0.1185 -0.1212
 4057ntf    fn421966   6.387   0.111   4.672 -0.4838 -0.3455  0.3231
 4057ntf    fn421967   6.370   0.233   4.491 -0.3220  0.2405 -0.1722
 4057ntf    fn421968   6.244   0.263   4.657 -0.2338 -0.1054 -0.7936
 4057ntf    on521969   6.272  -0.039   4.445 -0.2552 -0.3636  0.5258
 4057ntf    on521970   6.140  -0.008   4.655  0.5725  0.1008  0.6839
 4057ntf    on521971   5.994  -0.025   4.257 -0.2091  0.5181 -0.1603
 4057ntf    on521972   6.000   0.215   4.215 -0.8091  0.0391 -0.1647
 4057ntf    fn421973   5.746   0.125   4.284 -0.6073 -0.1489  0.5801
 4057ntf    fn421974   5.812   0.051   4.474  0.3727 -0.1878 -0.3046
 4057ntf    fn421975   5.822   0.259   4.423  0.3014  0.2164 -0.2896
 4058ntf    cn121976   6.133   1.169   5.713  0.1213  0.2419 -0.1181
 4058ntf    sn221977   6.254   1.050   5.649  0.1998  0.2623 -0.0076
 4058ntf    nn321978   6.331   1.151   5.558 -0.3858  0.0373 -0.7696
 4058ntf    sn221979   6.484   1.185   5.562 -0.4084  0.0713 -0.0159
 4058ntf    cn121980   6.550   1.048   5.461 -0.4575  0.1035 -0.0919
 4058ntf    fn421981   6.196   1.270   5.771 -0.0392  0.3831 -0.1850
 4058ntf    fn421982   6.056   1.212   5.614 -0.2299 -0.4762 -0.1631
 4058ntf    fn421983   6.053   1.121   5.807  0.4552  0.3077  0.2026
 4058ntf    on521984   6.315   1.005   5.772 -0.7038 -0.5869  0.1497
 4058ntf    on521985   6.187   0.949   5.571  0.9278 -0.4996  0.3376
 4058ntf    on521986   6.553   1.186   5.688  0.1865  0.1235 -0.3356
 4058ntf    on521987   6.499   1.310   5.491 -1.0778 -0.0265 -0.3313
 4058ntf    fn421988   6.495   1.034   5.342 -0.7988  0.4703  0.0200
 4058ntf    fn421989   6.677   1.071   5.432 -0.4921 -0.0127 -0.3306
 4058ntf    fn421990   6.548   0.931   5.522  0.2162  0.1446  0.0218
 4059ntf    cn121991   5.033   6.724   3.848 -0.5085 -0.0507  0.0384
 4059ntf    sn221992   4.988   6.689   3.675  0.0493  0.0827 -0.1360
 4059ntf    nn321993   4.939   6.830   3.627 -0.3649  0.0576  0.2047
 4059ntf    sn221994   4.825   6.862   3.523 -0.1017 -0.1841 -0.1579
 4059ntf    cn121995   4.768   7.026   3.575 -0.1486 -0.1263 -0.3866
 4059ntf    fn421996   5.141   6.801   3.850  0.0418 -0.8006 -0.1690
 4059ntf    fn421997   4.939   6.798   3.906  0.0582  0.3287  0.4839
 4059ntf    fn421998   5.064   6.621   3.924 -0.0414 -0.2809 -0.4518
 4059ntf    on521999   5.108   6.639   3.613 -0.4495 -0.5416 -0.6063
 4059ntf    on522000   4.874   6.601   3.681  0.0927  0.0632  0.5114
 4059ntf    on522001   4.707   6.779   3.528 -0.3238  0.1084 -0.4699
 4059ntf    on522002   4.873   6.890   3.390 -0.4983  0.7476 -0.1066
 4059ntf    fn422003   4.741   7.033   3.705 -0.4279  0.8103 -0.4867
 4059ntf    fn422004   4.853   7.124   3.548 -0.0737 -0.1744 -0.3262
 4059ntf    fn422005   4.657   7.068   3.517 -0.2286  0.3881  0.1304
 4060ntf    cn122006   0.525   3.326   3.948 -0.6193 -0.0649  0.0184
 4060ntf    sn222007   0.652   3.257   4.058 -0.2362  0.1484 -0.2882
 4060ntf    nn322008   0.776   3.267   3.962 -0.0038  0.3716  0.0326
 4060ntf    sn222009   0.929   3.263   3.998  0.0307  0.0962 -0.1424
 4060ntf    cn122010   0.971   3.440   3.996 -0.2183  0.1570 -0.0702
 4060ntf    fn422011   0.416   3.339   4.022 -0.6194 -0.0147  0.0092
 4060ntf    fn422012   0.552   3.447   3.902  0.0351 -0.2831 -0.1830
 4060ntf    fn422013   0.498   3.239   3.853 -0.0010 -1.0502  0.7229
 4060ntf    on522014   0.653   3.355   4.164 -0.2098 -0.0330 -0.1193
 4060ntf    on522015   0.612   3.119   4.075 -0.1617  0.1350 -0.2177
 4060ntf    on522016   1.002   3.203   3.890 -0.0945  0.2591 -0.3182
 4060ntf    on522017   0.962   3.217   4.130 -0.2406 -0.5845 -0.3080
 4060ntf    fn422018   0.922   3.493   4.107  0.5497  0.2988  0.2094
 4060ntf    fn422019   1.102   3.459   3.998 -0.1467 -0.3285  0.1565
 4060ntf    fn422020   0.918   3.507   3.895  0.9301  0.5957 -0.3991
 4061ntf    cn122021   5.367   7.260   4.690  0.2022 -0.0180 -0.2215
 4061ntf    sn222022   5.517   7.267   4.793  0.1738 -0.0445 -0.1788
 4061ntf    nn322023   5.454   7.300   4.933  0.2194 -0.4380 -0.0619
 4061ntf    sn222024   5.493   7.267   5.082 -0.2595  0.1213  0.1950
 4061ntf    cn122025   5.550   7.425   5.150 -0.0057  0.1773 -0.1446
 4061ntf    fn422026   5.280   7.164   4.711  0.5134 -0.2394  0.0607
 4061ntf    fn422027   5.300   7.373   4.707  0.0990 -0.0754 -0.2474
 4061ntf    fn422028   5.393   7.258   4.560  0.1865  0.4462 -0.2349
 4061ntf    on522029   5.560   7.129   4.789 -0.4156 -0.2394 -0.0431
 4061ntf    on522030   5.586   7.371   4.722 -0.2455  0.4095  0.0756
 4061ntf    on522031   5.617   7.195   5.095 -0.3514 -0.0605  0.0813
 4061ntf    on522032   5.388   7.223   5.170  0.6038 -0.4689  0.9533
 4061ntf    fn422033   5.475   7.529   5.118  0.1977  0.3885  0.0595
 4061ntf    fn422034   5.565   7.414   5.281  0.6299 -0.1581 -0.2403
 4061ntf    fn422035   5.668   7.458   5.100 -0.1271  0.0162 -0.5391
 4062ntf    cn122036   4.212   0.567   3.231  0.1518 -0.4218  0.3341
 4062ntf    sn222037   4.269   0.651   3.080 -0.1749  0.5330  0.7386
 4062ntf    nn322038   4.322   0.533   2.992 -0.6224  0.8565  0.0260
 4062ntf    sn222039   4.308   0.487   2.842  0.1917  0.2695  0.1226
 4062ntf    cn122040   4.444   0.372   2.808 -0.0548 -0.0190  0.1059
 4062ntf    fn422041   4.098   0.502   3.213  0.0581 -0.1080 -0.2572
 4062ntf    fn422042   4.294   0.474   3.277 -0.0254 -0.4520  0.5908
 4062ntf    fn422043   4.186   0.648   3.332 -0.2625 -0.1211 -0.0123
 4062ntf    on522044   4.153   0.719   3.026  0.3025  0.8513  0.1020
 4062ntf    on522045   4.378   0.729   3.133  0.2143  0.0628  0.6280
 4062ntf    on522046   4.324   0.590   2.743 -0.5487 -0.6232 -0.9596
 4062ntf    on522047   4.201   0.392   2.823  0.6922 -0.2975  0.1284
 4062ntf    fn422048   4.553   0.441   2.780 -0.1522  0.0903 -0.0034
 4062ntf    fn422049   4.477   0.301   2.914  0.7561 -0.0811 -0.1821
 4062ntf    fn422050   4.424   0.298   2.700  0.6531  0.0121 -0.0480
 4063ntf    cn122051   5.763   4.519   3.886  0.0050 -0.0336 -0.0639
 4063ntf    sn222052   5.783   4.371   3.783  0.0715 -0.1767  0.1537
 4063ntf    nn322053   5.644   4.370   3.711  0.0031  0.0086  0.2840
 4063ntf    sn222054   5.608   4.430   3.570  0.2621  0.0570  0.2394
 4063ntf    cn122055   5.438   4.470   3.619  0.0688 -0.0968 -0.2981
 4063ntf    fn422056   5.865   4.542   3.967 -0.1161  0.1044  0.0514
 4063ntf    fn422057   5.743   4.624   3.808  0.3145 -0.1059 -0.2415
 4063ntf    fn422058   5.665   4.506   3.974 -0.0239 -0.0091 -0.0924
 4063ntf    on522059   5.889   4.404   3.690 -0.1653 -0.7255 -0.3171
 4063ntf    on522060   5.791   4.264   3.879 -0.9424 -0.1992  0.2268
 4063ntf    on522061   5.587   4.337   3.462  0.1732 -0.1053  0.3958
 4063ntf    on522062   5.666   4.559   3.542  0.1874  0.0127 -0.1285
 4063ntf    fn422063   5.367   4.518   3.518  0.0914  0.2804 -0.1377
 4063ntf    fn422064   5.380   4.359   3.662  0.1753  0.2100  0.6526
 4063ntf    fn422065   5.440   4.563   3.713 -0.3120  0.1963 -0.5811
 4064ntf    cn122066   7.230   1.629   6.320  0.2392  0.2853  0.2464
 4064ntf    sn222067   7.238   1.644   6.501 -0.2557  0.1802  0.2767
 4064ntf    nn322068   7.109   1.730   6.524 -0.2021  0.3640 -0.0970
 4064ntf    sn222069   6.976   1.685   6.596 -0.1164  0.0370 -0.1435
 4064ntf    cn122070   6.889   1.577   6.479 -0.2151 -0.2527  0.1978
 4064ntf    fn422071   7.319   1.539   6.281 -0.4115 -0.5946  0.7506
 4064ntf    fn422072   7.117   1.579   6.276  0.5752  0.0898 -0.4070
 4064ntf    fn422073   7.251   1.743   6.255 -0.1510  0.0748 -0.2527
 4064ntf    on522074   7.229   1.505   6.539  0.1711 -0.1236 -0.7153
 4064ntf    on522075   7.367   1.707   6.515 -0.3962  0.6594 -0.5388
 4064ntf    on522076   6.880   1.792   6.605  0.3544  0.3908  0.8782
 4064ntf    on522077   6.992   1.603   6.713  0.9611 -0.1201 -0.3899
 4064ntf    fn422078   6.980   1.486   6.449  0.5134  0.5315  0.0155
 4064ntf    fn422079   6.790   1.504   6.530 -0.0156 -0.3659  0.4225
 4064ntf    fn422080   6.852   1.644   6.371  0.7472 -0.5416 -0.3195
 4065ntf    cn122081   1.136   5.571   1.716  0.4544  0.1031 -0.1786
 4065ntf    sn222082   1.057   5.722   1.653 -0.1195 -0.0838  0.0869
 4065ntf    nn322083   1.168   5.802   1.576 -0.0668  0.0368  0.2876
 4065ntf    sn222084   1.209   5.795   1.425 -0.3934  0.0207  0.1989
 4065ntf    cn122085   1.091   5.909   1.347 -0.0449  0.1955 -0.0792
 4065ntf    fn422086   1.048   5.507   1.791  0.5212  0.2958  0.0660
 4065ntf    fn422087   1.179   5.489   1.622  0.5267 -0.4760  0.3527
 4065ntf    fn422088   1.239   5.597   1.794  0.1112  0.3025  0.2117
 4065ntf    on522089   0.951   5.681   1.563 -0.3640  0.5764  0.0661
 4065ntf    on522090   1.009   5.790   1.770 -0.0206  1.0772 -0.5359
 4065ntf    on522091   1.185   5.666   1.364 -0.3869 -0.1441  0.5456
 4065ntf    on522092   1.334   5.864   1.406 -0.4475  0.1979  0.4824
 4065ntf    fn422093   0.965   5.879   1.377  0.1660 -0.0922  0.5299
 4065ntf    fn422094   1.114   6.035   1.381 -0.2431  0.1361  0.2794
 4065ntf    fn422095   1.088   5.911   1.215 -0.2516  0.4961 -0.0721
 4066ntf    cn122096   6.437   4.975   3.184 -0.2194  0.2674  0.3215
 4066ntf    sn222097   6.321   4.961   3.044  0.2000  0.4086 -0.0423
 4066ntf    nn322098   6.405   4.858   2.959  0.2879 -0.0623  0.6089
 4066ntf    sn222099   6.405   4.702   2.966 -0.0596 -0.0947 -0.0601
 4066ntf    cn122100   6.575   4.668   3.020  0.0240  0.0498 -0.2325
 4066ntf    fn422101   6.435   4.873   3.268 -0.0698  0.0837  0.1060
 4066ntf    fn422102   6.561   4.978   3.138 -0.4539  0.1341 -0.3451
 4066ntf    fn422103   6.419   5.088   3.249 -0.0046  0.1402  0.5993
 4066ntf    on522104   6.194   4.913   3.093  0.3680 -0.7578 -0.6954
 4066ntf    on522105   6.317   5.089   2.979  0.2123  0.1401 -0.5788
 4066ntf    on522106   6.403   4.637   2.837 -0.3702 -0.2442  0.0170
 4066ntf    on522107   6.325   4.640   3.069 -0.0330 -0.5301 -0.2980
 4066ntf    fn422108   6.662   4.700   2.925  0.6454 -0.4275  0.1615
 4066ntf    fn422109   6.605   4.729   3.133  0.3521  0.2789 -0.4417
 4066ntf    fn422110   6.604   4.541   3.046  0.0759  0.0325 -0.3787
 4067ntf    cn122111   4.075   1.804   5.121  0.4825 -0.0018 -0.4130
 4067ntf    sn222112   3.960   1.924   5.047  0.2900 -0.0738 -0.2345
 4067ntf    nn322113   3.832   1.835   5.035  0.2072 -0.0522  0.4552
 4067ntf    sn222114   3.696   1.823   5.113 -0.2615  0.2533 -0.3027
 4067ntf    cn122115   3.705   1.648   5.163  0.0178  0.3662  0.0421
 4067ntf    fn422116   4.028   1.739   5.226  0.2442  0.8053 -0.0071
 4067ntf    fn422117   4.126   1.710   5.044  0.1774 -0.2017 -0.3727
 4067ntf    fn422118   4.180   1.873   5.162 -0.1517  0.4416  0.5310
 4067ntf    on522119   3.943   2.035   5.137 -0.1565 -0.4339  0.1295
 4067ntf    on522120   4.023   1.950   4.920  0.8383  0.4630  0.1403
 4067ntf    on522121   3.585   1.825   5.020 -0.0168  0.4616 -0.5923
 4067ntf    on522122   3.691   1.895   5.237  0.5695  0.1466 -0.2045
 4067ntf    fn422123   3.817   1.609   5.222 -0.0941  0.6041  0.4133
 4067ntf    fn422124   3.609   1.613   5.247  0.3292 -0.2697  0.1403
 4067ntf    fn422125   3.694   1.571   5.056 -0.2581 -0.2509  0.5075
 4068ntf    cn122126   2.443   1.921   3.889  0.1040 -0.4292 -0.0646
 4068ntf    sn222127   2.613   1.983   3.902  0.0831 -0.2557 -0.5803
 4068ntf    nn322128   2.604   2.095   4.012 -0.1007 -0.5142 -0.3304
 4068ntf    sn222129   2.615   2.081   4.168  0.0833 -0.0235 -0.2971
 4068ntf    cn122130   2.791   2.123   4.189  0.1862 -0.5194 -0.1486
 4068ntf    fn422131   2.435   1.803   3.831  0.4152 -0.2795 -0.4133
 4068ntf    fn422132   2.381   1.903   4.005  0.2517  0.2249  0.1251
 4068ntf    fn422133   2.355   1.995   3.823  0.0318  0.0102  0.5079
 4068ntf    on522134   2.690   1.865   3.936 -0.1070 -0.2008  0.0615
 4068ntf    on522135   2.639   2.037   3.772 -0.9222 -0.2393 -0.7813
 4068ntf    on522136   2.614   1.944   4.215  0.0102  0.0743 -0.0150
 4068ntf    on522137   2.547   2.181   4.246  0.4254 -0.2122  0.2470
 4068ntf    fn422138   2.871   2.035   4.131  0.3171 -0.3149 -0.2761
 4068ntf    fn422139   2.816   2.233   4.121 -0.5733 -0.1494  0.1554
 4068ntf    fn422140   2.822   2.150   4.315 -0.4480 -0.0001 -0.1012
 4069ntf    cn122141   5.502   2.743   3.905 -0.0841  0.0012  0.3618
 4069ntf    sn222142   5.443   2.584   3.841  0.2398 -0.0714  0.2400
 4069ntf    nn322143   5.412   2.498   3.969 -0.3959 -0.0565  0.0981
 4069ntf    sn222144   5.347   2.358   3.999  0.1645 -0.3185  0.1044
 4069ntf    cn122145   5.208   2.403   4.107  0.0913  0.0111 -0.1254
 4069ntf    fn422146   5.626   2.737   3.950  0.0143 -0.0773  0.0837
 4069ntf    fn422147   5.499   2.842   3.816  0.1794 -0.0506  0.2962
 4069ntf    fn422148   5.432   2.796   4.004  0.7492  0.0052  0.9598
 4069ntf    on522149   5.323   2.629   3.774  0.2650  0.2569  0.4161
 4069ntf    on522150   5.546   2.530   3.756  0.3159 -0.2900  0.4704
 4069ntf    on522151   5.433   2.277   4.081 -0.0459 -0.0947  0.5511
 4069ntf    on522152   5.289   2.297   3.882  0.5203 -0.5065  0.0249
 4069ntf    fn422153   5.244   2.463   4.219  0.3697 -0.8405  0.2454
 4069ntf    fn422154   5.119   2.481   4.046 -0.5976 -0.1992  0.5881
 4069ntf    fn422155   5.138   2.305   4.162  0.2628  0.0259  0.1198
 4070ntf    cn122156   5.407   6.989   2.187  0.2022 -0.0325 -0.3845
 4070ntf    sn222157   5.338   6.825   2.222 -0.1544  0.1620 -0.1575
 4070ntf    nn322158   5.190   6.864   2.255 -0.1444  0.2027 -0.1626
 4070ntf    sn222159   5.071   6.866   2.152 -0.0271 -0.2737 -0.3115
 4070ntf    cn122160   5.009   6.696   2.166  0.0184 -0.2701 -0.0672
 4070ntf    fn422161   5.348   7.041   2.081  0.2846  0.3343 -0.2547
 4070ntf    fn422162   5.394   7.072   2.290 -0.2729 -0.0782 -0.4079
 4070ntf    fn422163   5.535   6.993   2.156  0.0211  0.4647 -1.0943
 4070ntf    on522164   5.373   6.748   2.105  0.6223  0.6832 -0.2771
 4070ntf    on522165   5.388   6.781   2.350 -0.1621 -0.1572 -0.2636
 4070ntf    on522166   5.107   6.874   2.012  0.7663  1.0931 -0.0462
 4070ntf    on522167   4.960   6.949   2.191  0.0237 -0.2803 -0.1555
 4070ntf    fn422168   4.974   6.662   2.288 -0.5005  0.3850 -0.0298
 4070ntf    fn422169   4.904   6.669   2.091 -0.2382  0.0456  0.1761
 4070ntf    fn422170   5.099   6.606   2.129 -0.4353 -0.7511 -0.0020
 4071ntf    cn122171   5.056   2.563   6.437  0.2011 -0.0329 -0.2027
 4071ntf    sn222172   5.066   2.399   6.358 -0.0403 -0.0994 -0.0940
 4071ntf    nn322173   5.076   2.445   6.208 -0.1369  0.0461 -0.0558
 4071ntf    sn222174   5.198   2.449   6.110 -0.0132  0.0082  0.0955
 4071ntf    cn122175   5.214   2.272   6.073 -0.3452  0.0263 -0.1371
 4071ntf    fn422176   5.024   2.558   6.565  0.5062  0.1842 -0.1155
 4071ntf    fn422177   5.166   2.636   6.424 -0.0944  0.5001  0.2747
 4071ntf    fn422178   4.953   2.626   6.385  0.4170  0.2533 -0.2841
 4071ntf    on522179   5.185   2.335   6.407 -0.2609 -0.6146 -0.2182
 4071ntf    on522180   4.942   2.332   6.389 -0.2896  0.3404 -0.1363
 4071ntf    on522181   5.321   2.497   6.169 -0.1078  0.5674 -0.1580
 4071ntf    on522182   5.172   2.500   5.978 -0.4217  0.2404  0.2636
 4071ntf    fn422183   5.206   2.247   5.943 -0.0596 -0.2634 -0.1010
 4071ntf    fn422184   5.331   2.216   6.099 -0.3476 -0.1084 -0.4075
 4071ntf    fn422185   5.122   2.197   6.131 -0.5687  0.3059 -0.1316
 4072ntf    cn122186   3.309   2.447   3.210 -0.0816  0.1432  0.0669
 4072ntf    sn222187   3.226   2.337   3.092 -0.0788  0.1559  0.0537
 4072ntf    nn322188   3.276   2.196   3.141 -0.5076 -0.1332 -0.3293
 4072ntf    sn222189   3.259   2.125   3.280 -0.0207 -0.3996 -0.4051
 4072ntf    cn122190   3.149   1.988   3.235 -0.2117 -0.4990  0.3481
 4072ntf    fn422191   3.388   2.384   3.296  0.1513 -0.3205 -0.4848
 4072ntf    fn422192   3.382   2.541   3.152  0.0209  0.1914  0.2731
 4072ntf    fn422193   3.222   2.507   3.291 -0.7855  0.2626 -0.7607
 4072ntf    on522194   3.084   2.355   3.109 -0.1324  0.0857 -0.3216
 4072ntf    on522195   3.283   2.365   2.963 -0.4464  0.4867 -0.0382
 4072ntf    on522196   3.187   2.195   3.383  0.2218 -0.2212 -0.3537
 4072ntf    on522197   3.382   2.059   3.319 -0.1757 -0.2619  0.3191
 4072ntf    fn422198   3.121   1.908   3.337 -0.2458 -0.7529  0.1422
 4072ntf    fn422199   3.033   2.037   3.195 -0.1141 -0.5731 -0.0378
 4072ntf    fn422200   3.182   1.915   3.129 -0.0437 -0.2146  0.2028
 4073ntf    cn122201   2.698   2.256   0.452 -0.0175 -0.2054 -0.1989
 4073ntf    sn222202   2.709   2.290   0.273  0.0467  0.2747 -0.1037
 4073ntf    nn322203   2.712   2.447   0.278  0.1890  0.2762 -0.2431
 4073ntf    sn222204   2.828   2.549   0.307 -0.1452  0.5548  0.1248
 4073ntf    cn122205   2.877   2.601   0.140  0.2217 -0.0240  0.0491
 4073ntf    fn422206   2.583   2.294   0.503 -0.1437  0.0938 -0.6985
 4073ntf    fn422207   2.712   2.126   0.471  0.3436 -0.1739 -0.2285
 4073ntf    fn422208   2.790   2.320   0.522 -0.3632 -0.2543  0.3018
 4073ntf    on522209   2.831   2.221   0.239  0.0605  0.0978  0.2990
 4073ntf    on522210   2.580   2.239   0.232  0.1443 -0.3379  0.3313
 4073ntf    on522211   2.940   2.496   0.382 -0.0013 -0.2857 -0.6657
 4073ntf    on522212   2.764   2.667   0.358 -0.9145 -0.0904  0.6795
 4073ntf    fn422213   2.917   2.502   0.062  0.1692  0.0671 -0.0930
 4073ntf    fn422214   2.782   2.661   0.071  0.5506  0.3239 -0.1041
 4073ntf    fn422215   2.977   2.688   0.149  0.4569 -0.3159  0.3013
 4074ntf    cn122216   3.068   2.067   5.893  0.0733 -0.0666 -0.0073
 4074ntf    sn222217   3.186   1.940   5.838  0.0755  0.0518 -0.2790
 4074ntf    nn322218   3.228   1.993   5.697 -0.0039 -0.5563 -0.5350
 4074ntf    sn222219   3.351   2.082   5.656 -0.1983 -0.1179 -0.1807
 4074ntf    cn122220   3.271   2.226   5.580 -0.3087 -0.1930 -0.2068
 4074ntf    fn422221   2.956   2.046   5.827  0.0923 -0.2716  0.0255
 4074ntf    fn422222   3.051   2.065   6.024  0.5567  0.0950  0.0614
 4074ntf    fn422223   3.096   2.194   5.867 -0.3252  0.0629  0.1916
 4074ntf    on522224   3.279   1.946   5.948  0.0717 -0.3789 -0.2503
 4074ntf    on522225   3.102   1.823   5.831  0.5400 -0.2734 -0.4749
 4074ntf    on522226   3.429   2.028   5.547  0.0441  0.2912 -0.2094
 4074ntf    on522227   3.418   2.124   5.776  0.5413 -0.5434 -0.4385
 4074ntf    fn422228   3.350   2.332   5.586 -0.4492 -0.1450  0.8820
 4074ntf    fn422229   3.230   2.214   5.455 -0.6163 -0.8136 -0.0528
 4074ntf    fn422230   3.170   2.264   5.656  0.0507  0.0777  0.1381
 4075ntf    cn122231   3.463   0.786   5.278 -0.4711  0.3847  0.2305
 4075ntf    sn222232   3.614   0.856   5.207 -0.3386 -0.0875  0.0412
 4075ntf    nn322233   3.593   1.007   5.247  0.2526 -0.0731  0.3115
 4075ntf    sn222234   3.701   1.115   5.280  0.3834 -0.1229  0.0492
 4075ntf    cn122235   3.636   1.254   5.181  0.4131 -0.1107  0.0466
 4075ntf    fn422236   3.477   0.754   5.406  0.1984 -0.1312  0.0340
 4075ntf    fn422237   3.354   0.859   5.256 -0.1552  0.5462 -0.8470
 4075ntf    fn422238   3.433   0.680   5.205 -0.3885  0.7253 -0.3048
 4075ntf    on522239   3.713   0.792   5.289 -0.3705 -0.0483  0.1102
 4075ntf    on522240   3.604   0.825   5.066 -0.3356  0.0351  0.0135
 4075ntf    on522241   3.832   1.090   5.225  0.5888  0.3459  0.3185
 4075ntf    on522242   3.692   1.159   5.417  0.0530  0.1245 -0.0507
 4075ntf    fn422243   3.709   1.363   5.202  0.0074  0.0749  0.5190
 4075ntf    fn422244   3.650   1.235   5.051 -0.3714  0.2664 -0.0945
 4075ntf    fn422245   3.508   1.275   5.207  0.2387 -1.0011 -0.0664
 4076ntf    cn122246   2.123   1.421   0.098  0.2612 -0.1497 -0.1486
 4076ntf    sn222247   1.968   1.466   0.180  0.1796 -0.0394 -0.3624
 4076ntf    nn322248   2.015   1.578   0.280 -0.0679 -0.0799 -0.1995
 4076ntf    sn222249   1.951   1.721   0.289  0.4496  0.1536 -0.1910
 4076ntf    cn122250   1.771   1.698   0.303  0.4770 -0.2923 -0.5201
 4076ntf    fn422251   2.110   1.332   0.001 -0.2634  0.0200 -0.2371
 4076ntf    fn422252   2.187   1.522   0.042  0.1733  0.2030  0.3809
 4076ntf    fn422253   2.204   1.372   0.190 -0.1276  0.3267  0.4548
 4076ntf    on522254   1.887   1.518   0.072  0.0539 -0.1881 -0.3395
 4076ntf    on522255   1.917   1.350   0.250 -0.8429  0.5208 -0.1500
 4076ntf    on522256   1.971   1.800   0.170 -0.1766 -0.1645 -0.5135
 4076ntf    on522257   1.989   1.791   0.409  0.3131 -0.1359  0.0243
 4076ntf    fn422258   1.736   1.581   0.354  0.3059  0.2776  0.7206
 4076ntf    fn422259   1.723   1.773   0.402  1.0264 -0.3034 -0.2398
 4076ntf    fn422260   1.702   1.717   0.192  0.1759 -0.0638 -0.2952
 4077ntf    cn122261   6.209   6.041   5.524 -0.0612 -0.1744 -0.0307
 4077ntf    sn222262   6.210   6.199   5.435  0.1245 -0.2899 -0.2328
 4077ntf    nn322263   6.184   6.146   5.289  0.2316 -0.1711 -0.2955
 4077ntf    sn222264   6.070   6.197   5.193 -0.0806 -0.1724  0.0721
 4077ntf    cn122265   6.140   6.160   5.030  0.1980 -0.2914  0.2176
 4077ntf    fn422266   6.254   6.056   5.647  0.4515 -0.1757 -0.2176
 4077ntf    fn422267   6.082   6.003   5.530 -0.1101  0.0127  0.1327
 4077ntf    fn422268   6.291   5.952   5.470  0.0841 -0.3679  0.4957
 4077ntf    on522269   6.098   6.272   5.489 -0.0105 -0.2210 -0.6021
 4077ntf    on522270   6.340   6.258   5.458 -0.0152 -0.1103  0.1078
 4077ntf    on522271   6.048   6.339   5.187  0.3550 -0.1125 -0.1502
 4077ntf    on522272   5.948   6.120   5.204 -0.2090  0.0547  0.2581
 4077ntf    fn422273   6.252   6.224   5.004  0.1843 -0.3184  0.0905
 4077ntf    fn422274   6.170   6.031   5.023 -0.1003 -0.3676  0.3395
 4077ntf    fn422275   6.045   6.180   4.940 -0.3254  0.1085  0.8498
 4078ntf    cn122276   1.649   1.227   6.907 -0.2321 -0.0955 -0.1488
 4078ntf    sn222277   1.765   1.309   7.021 -0.2058 -0.1326 -0.1493
 4078ntf    nn322278   1.885   1.210   7.001 -0.2413 -0.1976 -0.0405
 4078ntf    sn222279   2.024   1.214   6.927 -0.0822 -0.3585  0.2432
 4078ntf    cn122280   2.114   1.255   7.079 -0.0671  0.1512  0.1011
 4078ntf    fn422281   1.538   1.297   6.888 -0.0115  0.5141  0.7432
 4078ntf    fn422282   1.698   1.203   6.787  0.3617  0.5005 -0.0312
 4078ntf    fn422283   1.608   1.109   6.950  0.0749 -0.2887 -0.3820
 4078ntf    on522284   1.776   1.443   6.969  0.7847 -0.3727 -0.5802
 4078ntf    on522285   1.712   1.306   7.155  0.0197  0.0529 -0.0557
 4078ntf    on522286   2.043   1.331   6.844  0.5892 -0.4167  0.3153
 4078ntf    on522287   2.088   1.092   6.887  0.4503 -0.0198  0.0483
 4078ntf    fn422288   2.062   1.359   7.143 -0.1405  0.1382  0.0621
 4078ntf    fn422289   2.113   1.156   7.167 -0.0270  0.2661  0.2315
 4078ntf    fn422290   2.239   1.288   7.051 -0.0986 -0.0222 -0.2482
 4079ntf    cn122291   7.140   0.203   7.205  0.1467 -0.1096  0.4525
 4079ntf    sn222292   7.245   0.194   7.057 -0.4270  0.1450  0.0265
 4079ntf    nn322293   7.373   0.264   7.115 -0.0182 -0.2372 -0.4050
 4079ntf    sn222294   7.481   0.213   7.217 -0.0654  0.2637 -0.1031
 4079ntf    cn122295   7.447   0.323   7.358 -0.4822  0.2659 -0.2050
 4079ntf    fn422296   7.095   0.326   7.223  0.0904  0.0047 -0.4332
 4079ntf    fn422297   7.028   0.134   7.190 -0.1438  0.2665  0.8637
 4079ntf    fn422298   7.201   0.153   7.311  0.3636  0.5956  0.6618
 4079ntf    on522299   7.255   0.056   7.017  0.1758  0.2642 -0.2542
 4079ntf    on522300   7.190   0.281   6.956 -0.1246  0.4009  0.0799
 4079ntf    on522301   7.613   0.254   7.175 -0.0033  0.0898 -0.0810
 4079ntf    on522302   7.470   0.080   7.272  0.3052  0.5733  0.7397
 4079ntf    fn422303   7.367   0.274   7.451  0.2467 -0.0741  0.2535
 4079ntf    fn422304   7.558   0.351   7.423 -0.3626  0.2110 -0.3848
 4079ntf    fn422305   7.412   0.441   7.311  0.0640  0.3595 -0.3852
 4080ntf    cn122306   0.109   0.794   5.978 -0.5234  0.1147 -0.3455
 4080ntf    sn222307   0.216   0.858   5.845  0.0033 -0.1027 -0.0313
 4080ntf    nn322308   0.348   0.856   5.929 -0.0764 -0.5165  0.0832
 4080ntf    sn222309   0.492   0.890   5.876 -0.2621 -0.3944 -0.3401
 4080ntf    cn122310   0.503   1.060   5.940 -0.0311 -0.5475  0.0265
 4080ntf    fn422311  -0.018   0.789   5.943 -0.7530  0.7079  0.3792
 4080ntf    fn422312   0.146   0.672   6.011  0.1357  0.4626  0.2436
 4080ntf    fn422313   0.118   0.865   6.089  0.1506 -0.5113  0.0060
 4080ntf    on522314   0.206   0.766   5.734  0.7340  0.2551 -0.3986
 4080ntf    on522315   0.159   0.989   5.828 -0.1693 -0.2548 -0.6582
 4080ntf    on522316   0.508   0.907   5.734  1.2750 -0.3334 -0.1681
 4080ntf    on522317   0.597   0.817   5.941  0.6249  0.0862 -1.2009
 4080ntf    fn422318   0.441   1.154   5.871 -0.3650 -0.4990  0.3900
 4080ntf    fn422319   0.476   1.076   6.068  0.1006  0.5683 -0.0696
 4080ntf    fn422320   0.631   1.093   5.924 -0.3765  0.8010 -0.0885
 4081ntf    cn122321   7.194   1.418   0.773 -0.1813  0.0316 -0.5377
 4081ntf    sn222322   7.181   1.495   0.609 -0.1962  0.4392 -0.3459
 4081ntf    nn322323   7.039   1.434   0.581  0.0481 -0.4155  0.2377
 4081ntf    sn222324   6.899   1.500   0.552  0.3680  0.2203  0.1312
 4081ntf    cn122325   6.848   1.543   0.721 -0.0543 -0.1661  0.1029
 4081ntf    fn422326   7.109   1.464   0.863  0.0437 -0.3680 -0.1126
 4081ntf    fn422327   7.179   1.286   0.771 -0.4658  0.0658 -0.6447
 4081ntf    fn422328   7.316   1.442   0.819 -0.3973  0.0960  0.0091
 4081ntf    on522329   7.183   1.637   0.632 -0.4039  0.4736 -0.5365
 4081ntf    on522330   7.293   1.438   0.539  0.3905  0.1471  0.7921
 4081ntf    on522331   6.809   1.400   0.500  0.2523  0.5567 -0.3140
 4081ntf    on522332   6.901   1.626   0.481  0.3107  0.1949  0.0850
 4081ntf    fn422333   6.833   1.435   0.796 -0.3125 -0.1127  0.1310
 4081ntf    fn422334   6.936   1.611   0.792  0.4549 -0.2381 -0.4515
 4081ntf    fn422335   6.732   1.608   0.728 -0.0327 -0.1498  0.3205
 4082ntf    cn122336   7.334   4.207   7.134 -0.0413 -0.4825 -0.0740
 4082ntf    sn222337   7.203   4.309   7.208  0.3762  0.1609 -0.2161
 4082ntf    nn322338   7.281   4.414   7.296 -0.3039  0.3955  0.1092
 4082ntf    sn222339   7.362   4.540   7.248  0.2644  0.0509  0.1681
 4082ntf    cn122340   7.532   4.485   7.285  0.3469  0.1287 -0.0941
 4082ntf    fn422341   7.284   4.106   7.065 -1.1905  0.2010 -0.2591
 4082ntf    fn422342   7.415   4.278   7.058  0.4555 -0.3949  0.5253
 4082ntf    fn422343   7.411   4.147   7.224 -0.1719 -0.6461 -0.0710
 4082ntf    on522344   7.126   4.353   7.095  0.4886 -0.2116 -0.4374
 4082ntf    on522345   7.131   4.227   7.302  0.1901 -0.0978 -0.5856
 4082ntf    on522346   7.339   4.649   7.339 -0.4333  0.5610 -0.6033
 4082ntf    on522347   7.372   4.568   7.107 -0.4154  0.3139  0.1691
 4082ntf    fn422348   7.621   4.581   7.264 -0.1628  0.5957 -0.1663
 4082ntf    fn422349   7.551   4.449   7.411 -0.7782  0.5253  0.2095
 4082ntf    fn422350   7.576   4.382   7.216  0.2329  0.5041 -0.7352
 4083ntf    cn122351   4.875   0.357   6.532  0.5482 -0.1663  0.1322
 4083ntf    sn222352   4.779   0.386   6.381  0.3736 -0.1004  0.2560
 4083ntf    nn322353   4.691   0.512   6.414  0.1811 -0.0380 -0.4656
 4083ntf    sn222354   4.602   0.588   6.309 -0.2091 -0.2760 -0.3106
 4083ntf    cn122355   4.439   0.508   6.316 -0.0657 -0.5279  0.1971
 4083ntf    fn422356   4.787   0.348   6.630 -0.2155  0.3607 -0.5022
 4083ntf    fn422357   4.926   0.235   6.541 -0.2437 -0.4926  0.2859
 4083ntf    fn422358   4.959   0.453   6.566 -0.2488  0.5058  0.2212
 4083ntf    on522359   4.891   0.416   6.294  0.2741  0.3357  0.2726
 4083ntf    on522360   4.704   0.264   6.363 -0.1015  0.2157  0.0508
 4083ntf    on522361   4.643   0.588   6.171  0.1078  0.5858 -0.2281
 4083ntf    on522362   4.575   0.721   6.359 -0.2220 -0.0344 -0.9512
 4083ntf    fn422363   4.448   0.378   6.292 -0.6990 -0.4430 -0.5171
 4083ntf    fn422364   4.368   0.531   6.425 -0.5247  0.0982 -0.2287
 4083ntf    fn422365   4.363   0.559   6.221  0.4785 -0.0418  0.0161
 4084ntf    cn122366   6.124   4.378   0.123  0.1008  0.1767 -0.2750
 4084ntf    sn222367   5.967   4.446   0.060 -0.0678  0.1843  0.1480
 4084ntf    nn322368   5.998   4.599   0.044 -0.0669  0.2201  0.5031
 4084ntf    sn222369   5.907   4.727   0.051 -0.1560  0.1876 -0.0881
 4084ntf    cn122370   6.010   4.799   0.182  0.2783 -0.2214 -0.2005
 4084ntf    fn422371   6.151   4.431   0.241 -0.1853  0.4994 -0.3503
 4084ntf    fn422372   6.115   4.247   0.138 -0.1306  0.1781 -0.3886
 4084ntf    fn422373   6.225   4.398   0.041  0.1744 -0.0425 -0.2383
 4084ntf    on522374   5.942   4.373  -0.062  0.1426  0.3627 -0.0038
 4084ntf    on522375   5.880   4.414   0.170  0.2201  0.0172  0.3292
 4084ntf    on522376   5.779   4.725   0.117  0.0681 -0.2620  0.3391
 4084ntf    on522377   5.922   4.834  -0.045  0.0158  0.2350 -0.0092
 4084ntf    fn422378   5.955   4.913   0.221 -0.6109 -0.5363 -0.5137
 4084ntf    fn422379   6.025   4.728   0.292 -0.1675  0.5586  0.3744
 4084ntf    fn422380   6.133   4.823   0.140  0.2495  0.2681 -0.0115
 4085ntf    cn122381   4.184   0.304   4.267  0.2971 -0.2274  0.3779
 4085ntf    sn222382   4.070   0.222   4.151 -0.3812  0.2097  0.7271
 4085ntf    nn322383   4.096   0.069   4.175  0.6365  0.2567 -0.0121
 4085ntf    sn222384   4.119  -0.053   4.080  0.1402  0.3171 -0.2109
 4085ntf    cn122385   4.295  -0.095   4.101  0.0434  0.1964  0.3682
 4085ntf    fn422386   4.158   0.256   4.388  0.1366 -0.3471  0.2974
 4085ntf    fn422387   4.310   0.280   4.237  0.1767 -0.4025  0.0015
 4085ntf    fn422388   4.187   0.436   4.256 -0.5129 -0.2635 -0.3603
 4085ntf    on522389   3.944   0.265   4.206 -0.9477 -0.3501 -0.1217
 4085ntf    on522390   4.104   0.270   4.020 -0.1473 -0.0940  0.6783
 4085ntf    on522391   4.112  -0.021   3.939  0.3174  0.6893 -0.1366
 4085ntf    on522392   4.048  -0.168   4.130  0.0272  0.7513  0.6375
 4085ntf    fn422393   4.323  -0.150   4.218  0.3999 -0.0594  0.1647
 4085ntf    fn422394   4.339  -0.180   4.010 -0.2152  0.4628 -0.0091
 4085ntf    fn422395   4.375   0.010   4.089  0.0080  0.2002  0.1665
 4086ntf    cn122396   4.738   0.737   3.775 -0.6986  0.1000 -0.1439
 4086ntf    sn222397   4.719   0.868   3.900 -0.6125 -0.0293  0.0048
 4086ntf    nn322398   4.574   0.839   3.951 -0.4914 -0.3042  0.1995
 4086ntf    sn222399   4.450   0.932   3.926 -0.0164  0.2229 -0.2089
 4086ntf    cn122400   4.462   1.030   4.079  0.1078 -0.2471  0.0857
 4086ntf    fn422401   4.621   0.684   3.742 -0.7601 -0.0196  0.2521
 4086ntf    fn422402   4.784   0.778   3.658 -0.0533  0.1112  0.1088
 4086ntf    fn422403   4.812   0.633   3.812 -0.4251  0.3491  0.0131
 4086ntf    on522404   4.815   0.815   3.994 -0.4351  0.0241 -0.1467
 4086ntf    on522405   4.754   0.996   3.844 -0.5186 -0.1229 -0.1500
 4086ntf    on522406   4.322   0.866   3.933  0.0498  0.0774 -0.3683
 4086ntf    on522407   4.462   1.020   3.813  0.1628  0.7370  0.2078
 4086ntf    fn422408   4.471   0.956   4.188 -0.6181  0.1460  0.4180
 4086ntf    fn422409   4.569   1.107   4.075  0.2007 -0.3828 -0.0632
 4086ntf    fn422410   4.363   1.118   4.089  0.3685  0.0558  0.0168
 4087ntf    cn122411   7.173   0.837   6.333  0.2824 -0.0762  0.1585
 4087ntf    sn222412   7.094   0.801   6.492 -0.2182  0.1235 -0.0428
 4087ntf    nn322413   6.972   0.899   6.485  0.0770  0.4896 -0.1313
 4087ntf    sn222414   6.820   0.863   6.508  0.2037  0.0264  0.0071
 4087ntf    cn122415   6.783   0.958   6.658 -0.4351  0.1062 -0.1982
 4087ntf    fn422416   7.293   0.780   6.326  0.2184 -0.2188  0.2028
 4087ntf    fn422417   7.110   0.791   6.226  0.5100  0.4089 -0.1892
 4087ntf    fn422418   7.195   0.965   6.307 -0.1382 -0.0617 -0.1445
 4087ntf    on522419   7.064   0.661   6.476  0.0319  0.0615  0.0108
 4087ntf    on522420   7.187   0.836   6.597  0.0009 -0.6788  0.0422
 4087ntf    on522421   6.792   0.731   6.558  0.8338 -0.0052  0.2844
 4087ntf    on522422   6.732   0.909   6.403 -0.1453  0.2238  0.3868
 4087ntf    fn422423   6.897   0.993   6.716 -0.3848 -0.1600 -0.1390
 4087ntf    fn422424   6.717   1.067   6.623 -0.4906  0.1905  0.1670
 4087ntf    fn422425   6.706   0.889   6.739 -0.3374  0.3284  0.0882
 4088ntf    cn122426   6.746   1.615   2.438 -0.7641  0.0616  0.1200
 4088ntf    sn222427   6.739   1.757   2.551 -0.0030 -0.0110  0.2609
 4088ntf    nn322428   6.879   1.753   2.621  0.3916  0.0828 -0.5091
 4088ntf    sn222429   6.913   1.724   2.772 -0.0784 -0.3377 -0.4802
 4088ntf    cn122430   6.921   1.898   2.827  0.1431 -0.5506  0.1660
 4088ntf    fn422431   6.860   1.615   2.371 -0.7149  0.8100  0.1976
 4088ntf    fn422432   6.728   1.501   2.502  0.5672 -0.3317 -0.1836
 4088ntf    fn422433   6.646   1.623   2.351 -0.0451  0.0834 -0.7135
 4088ntf    on522434   6.729   1.873   2.465  0.3545 -0.5006 -0.4526
 4088ntf    on522435   6.626   1.731   2.637 -0.0706  0.1732  0.2277
 4088ntf    on522436   7.045   1.670   2.790  0.2484  0.3262 -0.8237
 4088ntf    on522437   6.805   1.687   2.860 -0.3619  0.0548 -0.6623
 4088ntf    fn422438   6.826   1.971   2.771  0.7221 -0.3000 -0.4977
 4088ntf    fn422439   6.910   1.916   2.958  0.0871 -0.0110  0.0858
 4088ntf    fn422440   7.033   1.959   2.794 -0.2058  0.2309  0.3970
 4089ntf    cn122441   5.776   0.630   3.533  0.6327  0.2561 -0.1469
 4089ntf    sn222442   5.858   0.488   3.453  0.1772 -0.1156  0.0468
 4089ntf    nn322443   5.768   0.470   3.326 -0.4066 -0.0394  0.4426
 4089ntf    sn222444   5.760   0.570   3.205  0.5426 -0.2335  0.2116
 4089ntf    cn122445   5.584   0.612   3.218  0.4860 -0.4484  0.1348
 4089ntf    fn422446   5.831   0.644   3.652 -0.1357 -0.1875  0.2624
 4089ntf    fn422447   5.780   0.741   3.461 -0.5218  0.1783 -0.3534
 4089ntf    fn422448   5.649   0.597   3.549  0.5443  0.7424  0.1567
 4089ntf    on522449   5.993   0.524   3.420  0.1764  0.2423  0.4200
 4089ntf    on522450   5.837   0.375   3.541 -0.1848 -0.3606 -0.3481
 4089ntf    on522451   5.773   0.500   3.080 -0.2067 -0.0948  0.0505
 4089ntf    on522452   5.838   0.690   3.225  0.3739 -0.0806 -0.0330
 4089ntf    fn422453   5.556   0.695   3.317  0.5054 -0.5666  0.2407
 4089ntf    fn422454   5.534   0.664   3.107  0.4982 -0.2953  0.2016
 4089ntf    fn422455   5.512   0.501   3.235 -0.4228  0.0463 -0.3833
 4090ntf    cn122456   3.316   2.549   1.395 -0.1464 -0.0798 -0.1952
 4090ntf    sn222457   3.252   2.379   1.392 -0.0702 -0.1158  0.1667
 4090ntf    nn322458   3.101   2.411   1.418 -0.0948  0.1691 -0.3169
 4090ntf    sn222459   2.974   2.397   1.326 -0.2347 -0.1047 -0.0834
 4090ntf    cn122460   2.842   2.501   1.395 -0.0019 -0.0464  0.2829
 4090ntf    fn422461   3.233   2.640   1.347  0.2107  0.3190 -0.0597
 4090ntf    fn422462   3.351   2.588   1.517  0.4200  0.1685 -0.4343
 4090ntf    fn422463   3.425   2.558   1.321 -0.1687  0.2524 -0.1895
 4090ntf    on522464   3.290   2.337   1.259  0.3310 -0.2896  0.3345
 4090ntf    on522465   3.318   2.324   1.508 -0.1376 -0.5534  0.0007
 4090ntf    on522466   2.914   2.266   1.320 -0.0490 -0.2160  0.4494
 4090ntf    on522467   2.983   2.465   1.199 -1.0882 -0.1316 -0.1597
 4090ntf    fn422468   2.768   2.424   1.473  0.0070 -0.3507 -0.0039
 4090ntf    fn422469   2.892   2.601   1.464  0.9654 -0.1013 -0.3198
 4090ntf    fn422470   2.761   2.542   1.298 -0.1120  0.4307  0.5772
 4091ntf    cn122471   4.626   2.507   0.965  0.1396 -0.2577  0.3600
 4091ntf    sn222472   4.746   2.527   1.100  0.0269 -0.0518  0.4293
 4091ntf    nn322473   4.774   2.377   1.135 -0.2607 -0.2340 -0.1128
 4091ntf    sn222474   4.705   2.277   1.236  0.0878  0.1884  0.5531
 4091ntf    cn122475   4.741   2.124   1.143 -0.1176  0.4870 -0.0251
 4091ntf    fn422476   4.677   2.428   0.872 -0.1098  0.2931 -0.2536
 4091ntf    fn422477   4.518   2.451   1.017 -0.1292 -0.2419 -0.1792
 4091ntf    fn422478   4.584   2.614   0.900 -0.1454 -0.3772  0.3448
 4091ntf    on522479   4.854   2.599   1.036 -0.3566 -0.2694 -0.4745
 4091ntf    on522480   4.682   2.602   1.206  0.0278  0.1522  0.2857
 4091ntf    on522481   4.561   2.282   1.234  0.0770 -0.2342  0.0647
 4091ntf    on522482   4.779   2.255   1.357  0.2207 -0.3357  0.3784
 4091ntf    fn422483   4.872   2.126   1.128 -0.0378 -0.5409  0.4888
 4091ntf    fn422484   4.715   2.008   1.201 -0.0672  0.2637 -0.4524
 4091ntf    fn422485   4.689   2.117   1.022 -0.5386  0.0101  0.1797
 4092ntf    cn122486   5.020   5.271   6.068 -0.2038 -0.4349 -0.0308
 4092ntf    sn222487   4.852   5.235   6.008 -0.1563 -0.3981 -0.1848
 4092ntf    nn322488   4.859   5.079   6.027  0.0019 -0.3338  0.2979
 4092ntf    sn222489   4.855   4.968   5.916 -0.0882 -0.2104  0.1769
 4092ntf    cn122490   4.677   4.931   5.910 -0.1731  0.2652 -0.3523
 4092ntf    fn422491   5.108   5.195   6.004 -0.2495 -0.4425 -0.0859
 4092ntf    fn422492   5.059   5.396   6.051  0.4577 -0.6859 -0.3895
 4092ntf    fn422493   5.039   5.245   6.196  0.4003 -0.0560 -0.0389
 4092ntf    on522494   4.782   5.301   6.115 -0.0501 -0.2050 -0.2341
 4092ntf    on522495   4.841   5.279   5.871  0.3293  0.2806 -0.0109
 4092ntf    on522496   4.906   4.849   5.979  0.2145 -0.0202  0.2922
 4092ntf    on522497   4.900   5.013   5.787 -0.0597 -0.3249  0.1464
 4092ntf    fn422498   4.632   4.889   5.793  0.0911 -0.3650 -0.2351
 4092ntf    fn422499   4.643   4.848   6.007  0.6550  0.0368 -0.2508
 4092ntf    fn422500   4.615   5.041   5.948 -0.5796 -0.1668  0.2659
 4093ntf    cn122501   6.693   6.503   0.181  0.2086  0.1270 -0.0060
 4093ntf    sn222502   6.734   6.679   0.201  0.2506  0.1519 -0.3110
 4093ntf    nn322503   6.649   6.723   0.325  1.0081  0.2418  0.1780
 4093ntf    sn222504   6.681   6.817   0.447  0.2425  0.0872  0.5043
 4093ntf    cn122505   6.664   6.717   0.598 -0.1973  0.0485  0.4298
 4093ntf    fn422506   6.774   6.438   0.099  0.0759  0.2095 -0.2041
 4093ntf    fn422507   6.709   6.446   0.300 -0.2269  0.1398  0.0616
 4093ntf    fn422508   6.568   6.476   0.148 -0.0300  0.9964  0.1822
 4093ntf    on522509   6.877   6.687   0.217  0.2318 -0.2002  0.0666
 4093ntf    on522510   6.690   6.734   0.075 -0.1779  0.0443 -0.2102
 4093ntf    on522511   6.592   6.929   0.458  0.0175  0.0536 -0.8549
 4093ntf    on522512   6.822   6.848   0.455  0.2963 -0.0398  0.0322
 4093ntf    fn422513   6.549   6.652   0.597  0.2639 -0.7683 -0.2250
 4093ntf    fn422514   6.745   6.614   0.618 -0.2514 -0.0451  0.1631
 4093ntf    fn422515   6.663   6.801   0.701  0.1398  0.5568  0.0225
 4094ntf    cn122516   2.042   3.680   5.605  0.0423  0.0632  0.2513
 4094ntf    sn222517   2.079   3.510   5.657 -0.4009 -0.1077  0.0120
 4094ntf    nn322518   2.144   3.445   5.529  0.9145  0.5627  0.3182
 4094ntf    sn222519   2.296   3.439   5.492  0.7751 -0.2998 -0.1422
 4094ntf    cn122520   2.339   3.291   5.589 -0.1737 -0.3472  0.2194
 4094ntf    fn422521   2.030   3.772   5.699  0.4277 -0.0740  0.4379
 4094ntf    fn422522   2.126   3.717   5.510 -0.1009  0.6688  0.3599
 4094ntf    fn422523   1.928   3.684   5.537  0.1639  0.3438  0.0628
 4094ntf    on522524   2.166   3.520   5.771  0.3449 -0.4200 -0.5123
 4094ntf    on522525   1.946   3.459   5.680 -0.4172 -0.0768 -0.0120
 4094ntf    on522526   2.375   3.541   5.556  0.1119  0.0997  0.0423
 4094ntf    on522527   2.325   3.394   5.358  0.3896 -0.3039 -0.2256
 4094ntf    fn422528   2.470   3.270   5.585 -0.1997 -0.3927 -0.5793
 4094ntf    fn422529   2.310   3.301   5.717  0.1344 -0.2598  0.2835
 4094ntf    fn422530   2.295   3.176   5.541 -0.2300 -0.3701  0.3249
 4095ntf    cn122531   6.671   0.495   7.308  0.0621  0.3184 -0.1439
 4095ntf    sn222532   6.532   0.444   7.414  0.1351  0.3290 -0.0429
 4095ntf    nn322533   6.467   0.344   7.312 -0.4166  0.4647  0.1724
 4095ntf    sn222534   6.448   0.188   7.319  0.0068  0.3998 -0.1024
 4095ntf    cn122535   6.562   0.111   7.200 -0.0144 -0.0876  0.1901
 4095ntf    fn422536   6.749   0.393   7.276 -0.1415  0.2228 -0.3437
 4095ntf    fn422537   6.638   0.551   7.192 -0.6723  0.3700  0.0816
 4095ntf    fn422538   6.750   0.580   7.371  0.1727 -0.1905  0.4180
 4095ntf    on522539   6.592   0.391   7.533 -0.1183  0.6529  0.2340
 4095ntf    on522540   6.453   0.563   7.437  0.6328  0.6301  0.1243
 4095ntf    on522541   6.322   0.145   7.265 -0.0378 -0.1159  0.4033
 4095ntf    on522542   6.474   0.120   7.444 -0.3132  0.5361  0.0403
 4095ntf    fn422543   6.543   0.164   7.080  0.5443 -0.1784  0.0585
 4095ntf    fn422544   6.691   0.127   7.223 -0.0130 -0.0821  0.1774
 4095ntf    fn422545   6.542  -0.019   7.186 -0.3379  0.0195 -0.3764
 4096ntf    cn122546   2.260   0.220   6.570  0.3642 -0.4166  0.0253
 4096ntf    sn222547   2.356   0.253   6.419  0.1072 -0.1040 -0.0708
 4096ntf    nn322548   2.438   0.119   6.425  1.0192  0.4234 -0.4475
 4096ntf    sn222549   2.495   0.035   6.305  0.2530 -0.4560 -0.2097
 4096ntf    cn122550   2.370  -0.090   6.264 -0.0341 -0.2240 -0.0516
 4096ntf    fn422551   2.335   0.207   6.679 -0.5061 -0.6253  0.6088
 4096ntf    fn422552   2.177   0.319   6.598 -0.4422 -0.9915 -0.3294
 4096ntf    fn422553   2.186   0.112   6.556 -0.0630 -0.1119 -0.0646
 4096ntf    on522554   2.258   0.263   6.314  0.3274  0.2323 -0.2468
 4096ntf    on522555   2.430   0.373   6.452 -0.1394  0.0933 -0.2312
 4096ntf    on522556   2.603  -0.051   6.346 -0.0071 -0.1864  1.0974
 4096ntf    on522557   2.529   0.105   6.184  0.3126 -0.5377 -0.2397
 4096ntf    fn422558   2.327  -0.149   6.375  0.2408 -0.0144  0.1671
 4096ntf    fn422559   2.264  -0.036   6.208  0.0782 -0.2161 -0.2547
 4096ntf    fn422560   2.412  -0.187   6.184  0.3328  0.3701 -0.5837
 4097ntf    cn122561   4.259   5.526   6.268  0.1864 -0.2422 -0.5110
 4097ntf    sn222562   4.139   5.621   6.170  0.0834  0.1434 -0.0124
 4097ntf    nn322563   4.006   5.539   6.174  0.0350  0.2121 -0.2020
 4097ntf    sn222564   3.954   5.422   6.083 -0.0505  0.1542 -0.0791
 4097ntf    cn122565   3.895   5.507   5.933  0.3480  0.0456 -0.2981
 4097ntf    fn422566   4.215   5.501   6.390  0.4350 -0.5902 -0.4892
 4097ntf    fn422567   4.293   5.414   6.205  0.0196 -0.6130  0.0544
 4097ntf    fn422568   4.372   5.592   6.285 -0.3474  0.4360  0.4397
 4097ntf    on522569   4.134   5.731   6.263  0.7028 -0.2066  0.4504
 4097ntf    on522570   4.200   5.638   6.040  0.5427 -0.6446  0.0943
 4097ntf    on522571   3.832   5.362   6.133  0.2940 -0.2900  0.2372
 4097ntf    on522572   4.050   5.329   6.029 -0.5283 -0.4007  0.0057
 4097ntf    fn422573   3.974   5.605   5.892  0.0377  0.5263  0.2319
 4097ntf    fn422574   3.881   5.428   5.828  0.1305  0.2502 -0.4223
 4097ntf    fn422575   3.774   5.556   5.956  0.5958  0.6593 -0.2912
 4098ntf    cn122576   6.125   0.846   7.317  0.1143  0.0041 -0.5670
 4098ntf    sn222577   5.978   0.952   7.311  0.0723 -0.0393 -0.2891
 4098ntf    nn322578   5.931   0.924   7.458 -0.1368  0.1803 -0.3132
 4098ntf    sn222579   5.962   1.004   7.590 -0.1420 -0.0040 -0.2006
 4098ntf    cn122580   5.793   1.003   7.658 -0.2641  0.2578 -0.4984
 4098ntf    fn422581   6.188   0.829   7.201  0.6740  0.1264 -0.2843
 4098ntf    fn422582   6.202   0.896   7.412  0.0125 -0.5396 -0.1939
 4098ntf    fn422583   6.085   0.725   7.354  0.1114  0.0667 -0.3696
 4098ntf    on522584   6.024   1.084   7.276  0.1290 -0.2190 -0.9143
 4098ntf    on522585   5.898   0.888   7.209 -0.5400 -0.1346  0.2430
 4098ntf    on522586   5.998   1.142   7.571  0.5058 -0.1360  0.0393
 4098ntf    on522587   6.048   0.926   7.676 -0.0921  0.8865  0.5784
 4098ntf    fn422588   5.717   1.083   7.585 -0.2471  0.4401 -0.3162
 4098ntf    fn422589   5.728   0.888   7.667 -0.1726  0.2631  0.2875
 4098ntf    fn422590   5.816   1.056   7.776  0.4267  0.0007 -0.5087
 4099ntf    cn122591   1.837   3.438   6.657 -0.2033  0.2259  0.2458
 4099ntf    sn222592   1.767   3.455   6.490  0.1326 -0.1132  0.0720
 4099ntf    nn322593   1.894   3.489   6.404 -0.2186  0.2431 -0.3066
 4099ntf    sn222594   1.970   3.626   6.390  0.2523 -0.0253 -0.3803
 4099ntf    cn122595   1.873   3.721   6.269 -0.1372  0.2328  0.1312
 4099ntf    fn422596   1.948   3.367   6.656 -0.0123  0.5282 -0.2913
 4099ntf    fn422597   1.868   3.556   6.709 -0.2131  0.2196  0.2662
 4099ntf    fn422598   1.756   3.374   6.739  0.3845 -1.0207 -0.1200
 4099ntf    on522599   1.703   3.327   6.469  0.1190 -0.0881 -0.0445
 4099ntf    on522600   1.678   3.566   6.511 -0.4957 -0.6539  0.2803
 4099ntf    on522601   2.096   3.609   6.320  0.2872 -0.1420 -0.2898
 4099ntf    on522602   1.969   3.710   6.507  0.3681 -0.3171 -0.1692
 4099ntf    fn422603   1.747   3.729   6.308 -0.2796 -0.1439 -0.2428
 4099ntf    fn422604   1.917   3.843   6.245  0.6170  0.0922  0.7322
 4099ntf    fn422605   1.865   3.658   6.153 -0.2538 -0.0944  0.3137
 4100ntf    cn122606   1.817   4.394   2.987 -0.0334 -0.1963 -0.0982
 4100ntf    sn222607   1.641   4.349   2.993 -0.1022  0.0187 -0.4801
 4100ntf    nn322608   1.662   4.205   2.934  0.0076 -0.0836 -0.1962
 4100ntf    sn222609   1.649   4.161   2.784 -0.0901 -0.3613 -0.1060
 4100ntf    cn122610   1.666   3.983   2.817  0.0307 -0.3357 -0.0284
 4100ntf    fn422611   1.838   4.512   3.044  0.5708 -0.2666 -0.1701
 4100ntf    fn422612   1.895   4.307   3.048  0.7475  0.1794 -0.5503
 4100ntf    fn422613   1.863   4.407   2.864  0.2239 -0.5914 -0.0453
 4100ntf    on522614   1.605   4.360   3.132  0.1075 -0.1641 -0.4113
 4100ntf    on522615   1.582   4.448   2.906  0.5099  0.6289 -0.2119
 4100ntf    on522616   1.761   4.185   2.696  0.1016  0.5474  0.3859
 4100ntf    on522617   1.516   4.178   2.731 -0.1285  0.8549  0.3595
 4100ntf    fn422618   1.554   3.933   2.868 -0.2694 -0.0596 -0.4096
 4100ntf    fn422619   1.682   3.911   2.706 -0.2874 -0.1659 -0.1860
 4100ntf    fn422620   1.768   3.953   2.896  0.5071 -0.1156 -0.5524
 4101ntf    cn122621   5.259   4.515   6.879  0.4964 -0.0053  0.0658
 4101ntf    sn222622   5.115   4.588   6.962  0.2861 -0.0866 -0.2262
 4101ntf    nn322623   5.168   4.602   7.109  0.2790 -0.0472 -0.2272
 4101ntf    sn222624   5.120   4.533   7.242 -0.1077 -0.1643 -0.4274
 4101ntf    cn122625   5.036   4.674   7.319  0.3673  0.1835 -0.5417
 4101ntf    fn422626   5.303   4.403   6.934 -0.2649 -0.4652 -0.2497
 4101ntf    fn422627   5.223   4.490   6.754  1.1871  0.1370 -0.1698
 4101ntf    fn422628   5.367   4.592   6.884  0.7598 -0.3604 -0.0688
 4101ntf    on522629   5.098   4.715   6.896 -0.0067  0.1318  0.2653
 4101ntf    on522630   5.014   4.492   6.926  0.3706 -0.3209  0.1545
 4101ntf    on522631   5.222   4.487   7.333 -0.2555  0.1395 -0.1093
 4101ntf    on522632   5.015   4.437   7.217  0.1646 -0.5767  0.0111
 4101ntf    fn422633   4.948   4.736   7.242 -0.2316 -0.1902 -0.1624
 4101ntf    fn422634   4.971   4.644   7.430 -0.1666 -0.3284 -0.9889
 4101ntf    fn422635   5.125   4.761   7.363  0.3915  0.0358 -0.2950
 4102ntf    cn122636   5.682   3.991   2.268 -0.0599  0.5900 -0.1584
 4102ntf    sn222637   5.556   4.096   2.189 -0.2623  0.2559 -0.2808
 4102ntf    nn322638   5.647   4.168   2.083  0.0648  0.2060 -0.0350
 4102ntf    sn222639   5.711   4.310   2.098  0.1278  0.1811 -0.0671
 4102ntf    cn122640   5.581   4.425   2.044 -0.2975 -0.1002  0.3510
 4102ntf    fn422641   5.782   4.055   2.326 -0.1337  0.5724 -0.0111
 4102ntf    fn422642   5.626   3.909   2.355  0.0037  0.9209  0.1933
 4102ntf    fn422643   5.737   3.912   2.177  0.0042  0.2864  0.1445
 4102ntf    on522644   5.484   3.987   2.127 -0.1273  0.2993 -0.5176
 4102ntf    on522645   5.504   4.173   2.299  0.6799  0.6295 -0.0961
 4102ntf    on522646   5.813   4.324   1.997  0.0936 -0.7036 -0.2331
 4102ntf    on522647   5.753   4.352   2.230 -0.3038  0.6860 -0.0902
 4102ntf    fn422648   5.465   4.420   2.107 -0.2778  0.5189  0.4431
 4102ntf    fn422649   5.629   4.549   2.044 -0.3406 -0.0726 -0.7545
 4102ntf    fn422650   5.545   4.399   1.920  0.6190  0.5506 -0.0679
 4103ntf    cn122651   5.916   7.012   0.019 -0.4193  0.5872 -0.1153
 4103ntf    sn222652   6.038   6.913   0.109 -0.3183  0.2962 -0.5685
 4103ntf    nn322653   6.168   6.943   0.027 -0.0838  0.4848 -0.1358
 4103ntf    sn222654   6.288   6.849  -0.010 -0.0961  0.3882  0.0728
 4103ntf    cn122655   6.249   6.815  -0.184 -0.5398 -0.0582  0.2575
 4103ntf    fn422656   5.946   7.140   0.036  0.1338  0.3904  0.3829
 4103ntf    fn422657   5.919   6.988  -0.111 -0.4583  0.4815 -0.0969
 4103ntf    fn422658   5.788   6.987   0.046 -0.3275  0.0219 -0.1914
 4103ntf    on522659   6.041   6.972   0.241 -0.0673  0.2286 -0.5426
 4103ntf    on522660   5.983   6.779   0.105  0.2509  0.0467 -0.3046
 4103ntf    on522661   6.308   6.731   0.070 -0.4328  0.4489  0.2465
 4103ntf    on522662   6.409   6.927  -0.021  0.0720  0.2101  0.6045
 4103ntf    fn422663   6.135   6.750  -0.201 -0.2255 -0.5167 -0.1034
 4103ntf    fn422664   6.247   6.927  -0.255 -0.1451 -0.3278 -0.1850
 4103ntf    fn422665   6.341   6.729  -0.223 -0.3532  0.2332  0.0498
 4104ntf    cn122666   7.035   2.285   3.666  0.2839  0.2315 -0.3039
 4104ntf    sn222667   7.148   2.238   3.801  0.1271  0.1573 -0.1990
 4104ntf    nn322668   7.273   2.310   3.739  0.0354  0.0227 -0.5427
 4104ntf    sn222669   7.395   2.391   3.795 -0.4601 -0.0499  0.6746
 4104ntf    cn122670   7.525   2.273   3.750 -0.1691  0.4734  0.1212
 4104ntf    fn422671   7.037   2.414   3.639 -1.2542  0.3509  0.0595
 4104ntf    fn422672   7.072   2.221   3.557 -0.0336 -0.4946  0.0065
 4104ntf    fn422673   6.910   2.247   3.682  0.2595  0.0177 -0.9667
 4104ntf    on522674   7.107   2.311   3.919 -0.5182 -0.3814 -0.0857
 4104ntf    on522675   7.157   2.094   3.801  0.0811  0.1538 -0.1666
 4104ntf    on522676   7.408   2.393   3.939 -0.2306 -0.3156  0.6573
 4104ntf    on522677   7.422   2.508   3.715  0.5665 -0.5182  0.3281
 4104ntf    fn422678   7.512   2.151   3.801 -0.4814  0.5154  0.1429
 4104ntf    fn422679   7.516   2.256   3.619 -0.3566  0.1643  0.1726
 4104ntf    fn422680   7.647   2.318   3.774  0.0458 -0.0949  0.1157
 4105ntf    cn122681   2.676   1.264   4.913 -0.3566 -0.1357  0.4377
 4105ntf    sn222682   2.509   1.325   4.950 -0.2410  0.5851 -0.2069
 4105ntf    nn322683   2.446   1.237   4.836 -0.5434 -0.3847  0.6965
 4105ntf    sn222684   2.390   1.090   4.837  0.1365 -0.6608 -0.1294
 4105ntf    cn122685   2.210   1.118   4.842  0.2689  0.2096  0.0745
 4105ntf    fn422686   2.768   1.322   4.989  0.0531 -0.4284  0.1719
 4105ntf    fn422687   2.696   1.135   4.933  0.2190 -0.0597  0.3849
 4105ntf    fn422688   2.711   1.295   4.789 -0.3910  0.3490  0.5467
 4105ntf    on522689   2.498   1.297   5.091  0.3883 -0.3111 -0.3309
 4105ntf    on522690   2.523   1.465   4.918  0.1451  0.4773 -0.5108
 4105ntf    on522691   2.421   1.013   4.955 -0.1657 -0.2793  0.2031
 4105ntf    on522692   2.417   1.033   4.708  0.4263 -0.2580 -0.2520
 4105ntf    fn422693   2.175   1.202   4.746  0.2278 -0.0557 -0.1443
 4105ntf    fn422694   2.146   1.007   4.807  0.1548  0.4904 -0.6215
 4105ntf    fn422695   2.157   1.153   4.957  0.3027 -0.7929  0.4023
 4106ntf    cn122696   6.199   6.224   0.996  0.1169  0.0964 -0.1954
 4106ntf    sn222697   6.105   6.100   0.902  0.0711  0.0119 -0.0379
 4106ntf    nn322698   6.207   6.067   0.787 -0.0159 -0.5148  0.0326
 4106ntf    sn222699   6.209   6.080   0.631 -0.2295 -0.3836  0.0406
 4106ntf    cn122700   6.269   6.251   0.615 -0.1795 -0.4211 -0.1703
 4106ntf    fn422701   6.256   6.317   0.920  0.1950 -0.0174 -0.2773
 4106ntf    fn422702   6.120   6.300   1.070  0.7049  0.0093  0.5308
 4106ntf    fn422703   6.292   6.161   1.065  0.0557 -0.3729 -0.5349
 4106ntf    on522704   6.096   6.005   1.010  0.2185 -0.1225 -0.1437
 4106ntf    on522705   5.982   6.166   0.866  0.2061  0.1720 -0.2066
 4106ntf    on522706   6.077   6.077   0.573 -0.3288 -0.1000  0.2445
 4106ntf    on522707   6.306   6.006   0.555  0.1146 -0.0710  0.1700
 4106ntf    fn422708   6.373   6.273   0.694 -0.2521  0.0936 -0.2114
 4106ntf    fn422709   6.308   6.283   0.492  0.1461 -0.0697  0.0249
 4106ntf    fn422710   6.176   6.339   0.649  0.0129 -0.4526  0.4491
 4107ntf    cn122711   5.701   3.374   1.862  0.1035 -0.0527  0.0981
 4107ntf    sn222712   5.878   3.352   1.828  0.0941  0.1384 -0.0751
 4107ntf    nn322713   5.874   3.314   1.675 -0.1119  0.7101 -0.2138
 4107ntf    sn222714   5.888   3.413   1.554 -0.2478  0.3924 -0.4921
 4107ntf    cn122715   6.055   3.354   1.511 -0.2763 -0.1650  0.1484
 4107ntf    fn422716   5.671   3.420   1.982 -0.0199  0.1296 -0.0018
 4107ntf    fn422717   5.649   3.461   1.776 -0.6651 -0.0013  0.6086
 4107ntf    fn422718   5.643   3.256   1.848 -0.3320  0.2022 -0.2533
 4107ntf    on522719   5.935   3.476   1.876  1.1317 -0.3010 -0.1302
 4107ntf    on522720   5.897   3.234   1.908  0.1730  0.3909  0.2773
 4107ntf    on522721   5.904   3.554   1.584  0.3744  0.2243  0.0081
 4107ntf    on522722   5.804   3.376   1.444 -1.0140  0.5890  0.0223
 4107ntf    fn422723   6.149   3.386   1.599 -0.6815  0.2840  0.4220
 4107ntf    fn422724   6.065   3.223   1.498 -0.6710 -0.1946  0.1353
 4107ntf    fn422725   6.083   3.397   1.389 -1.0134  0.2065  0.1001
 4108ntf    cn122726   4.924   1.609   4.472  0.0974  0.0741  0.1336
 4108ntf    sn222727   4.862   1.674   4.314  0.2645  0.0484  0.0564
 4108ntf    nn322728   4.921   1.820   4.312 -0.0089  0.1514 -0.6169
 4108ntf    sn222729   4.882   1.932   4.415  0.0931 -0.3232 -0.0520
 4108ntf    cn122730   4.866   2.071   4.298  0.1069 -0.1139  0.1926
 4108ntf    fn422731   5.056   1.604   4.479  0.0821  0.2864  0.5855
 4108ntf    fn422732   4.876   1.672   4.578  0.1345  0.1391  0.1114
 4108ntf    fn422733   4.888   1.482   4.484  0.6477 -0.1092 -0.1115
 4108ntf    on522734   4.919   1.591   4.211  0.3303  0.7705 -0.4939
 4108ntf    on522735   4.719   1.667   4.332  0.2048  0.0630 -0.4058
 4108ntf    on522736   4.991   1.988   4.491  0.0721  0.1907 -0.3939
 4108ntf    on522737   4.754   1.918   4.478  0.1678 -0.3295  0.0992
 4108ntf    fn422738   4.977   2.098   4.233 -0.2258 -0.1938 -0.4246
 4108ntf    fn422739   4.773   2.055   4.204  0.3769  0.7399 -0.2312
 4108ntf    fn422740   4.826   2.179   4.362 -0.3245  0.0051 -0.2695
 4109ntf    cn122741   1.346   2.433   1.234  0.2258 -0.2687  0.1766
 4109ntf    sn222742   1.254   2.365   1.375 -0.0358  0.1537  0.2116
 4109ntf    nn322743   1.305   2.467   1.483 -0.2463 -0.2752  0.7209
 4109ntf    sn222744   1.293   2.455   1.639  0.2058 -0.2224  0.7623
 4109ntf    cn122745   1.436   2.360   1.699  0.2636 -0.6354 -0.0134
 4109ntf    fn422746   1.307   2.557   1.208 -0.0817 -0.3879  0.0649
 4109ntf    fn422747   1.475   2.444   1.261  0.2202  0.0997  0.0636
 4109ntf    fn422748   1.326   2.357   1.127 -0.2450 -0.2145  0.2210
 4109ntf    on522749   1.117   2.383   1.333 -0.0057  0.6621  0.3128
 4109ntf    on522750   1.307   2.231   1.379 -0.1781  0.0975  0.2167
 4109ntf    on522751   1.189   2.368   1.689 -0.2312  0.2187  0.6249
 4109ntf    on522752   1.310   2.583   1.703 -0.2475  0.3339 -0.2058
 4109ntf    fn422753   1.434   2.360   1.831 -0.2840  0.0070 -0.0143
 4109ntf    fn422754   1.446   2.237   1.652 -0.8175 -0.6499 -0.2408
 4109ntf    fn422755   1.551   2.419   1.671  0.1616 -0.6493 -0.4675
 4110ntf    cn122756   6.352   5.891   1.901  0.1318  0.1418  0.0023
 4110ntf    sn222757   6.382   6.011   2.035  0.1649  0.0694  0.0599
 4110ntf    nn322758   6.281   6.128   2.009  0.2848  0.2109  0.2328
 4110ntf    sn222759   6.306   6.260   1.928  0.2267  0.2751  0.3186
 4110ntf    cn122760   6.359   6.373   2.060 -0.3062  0.9088 -0.0016
 4110ntf    fn422761   6.259   5.934   1.818 -0.5323 -0.4363  0.4413
 4110ntf    fn422762   6.462   5.866   1.832  0.0743  0.2095 -0.1148
 4110ntf    fn422763   6.309   5.774   1.945 -0.3332  0.2018 -0.2917
 4110ntf    on522764   6.350   5.932   2.151 -0.0917  0.2927  0.1410
 4110ntf    on522765   6.519   6.049   2.010  0.1710  0.1230  0.1745
 4110ntf    on522766   6.184   6.322   1.882 -0.2764 -1.1969 -0.3951
 4110ntf    on522767   6.416   6.264   1.835  0.0881  0.3653  0.1580
 4110ntf    fn422768   6.291   6.363   2.172  0.3106  0.2716  0.3287
 4110ntf    fn422769   6.483   6.342   2.096 -0.6151 -0.2984  0.0469
 4110ntf    fn422770   6.362   6.497   2.013 -0.2297  1.0444  0.3574
 4111ntf    cn122771   0.315   2.752   6.481 -0.4428  0.0232 -0.2777
 4111ntf    sn222772   0.479   2.677   6.458 -0.3928 -0.0405  0.2697
 4111ntf    nn322773   0.493   2.672   6.302  0.0761  0.0642  0.3059
 4111ntf    sn222774   0.569   2.764   6.199 -0.1536  0.0201  0.0962
 4111ntf    cn122775   0.686   2.638   6.140 -0.2503 -0.1249  0.2121
 4111ntf    fn422776   0.298   2.780   6.609  0.6035 -0.2477 -0.0654
 4111ntf    fn422777   0.297   2.868   6.420  0.0227  0.3429  0.1827
 4111ntf    fn422778   0.216   2.672   6.445 -0.6527  0.1615 -0.0121
 4111ntf    on522779   0.565   2.775   6.522  0.1188 -0.6303  0.4959
 4111ntf    on522780   0.456   2.550   6.521 -0.2744 -0.1943  0.0044
 4111ntf    on522781   0.653   2.869   6.249  0.0509  0.3138 -0.8510
 4111ntf    on522782   0.496   2.790   6.078 -0.3301  0.0489  0.2087
 4111ntf    fn422783   0.636   2.575   6.035 -0.1679 -0.3491  0.3064
 4111ntf    fn422784   0.799   2.690   6.094 -0.1705 -0.6976 -0.2543
 4111ntf    fn422785   0.700   2.544   6.232 -0.0730 -0.0590  0.2535
 4112ntf    cn122786   3.529   6.423   6.563  0.0540  0.2231  0.0898
 4112ntf    sn222787   3.493   6.333   6.717  0.1883 -0.4374 -0.2599
 4112ntf    nn322788   3.611   6.230   6.713  0.2849 -0.3378 -0.0107
 4112ntf    sn222789   3.753   6.252   6.775  0.2156  0.0591  0.0121
 4112ntf    cn122790   3.734   6.198   6.947  0.1718 -0.0598 -0.0298
 4112ntf    fn422791   3.462   6.538   6.560 -0.0293  0.1654 -0.3306
 4112ntf    fn422792   3.657   6.436   6.534  0.2530  0.0829  0.9074
 4112ntf    fn422793   3.495   6.355   6.454 -0.0072 -0.2876  0.4280
 4112ntf    on522794   3.496   6.428   6.826 -0.3921 -0.4019 -0.2730
 4112ntf    on522795   3.370   6.266   6.684 -0.2088  0.0555  0.2015
 4112ntf    on522796   3.802   6.387   6.775 -0.3317  0.2579 -0.0625
 4112ntf    on522797   3.837   6.152   6.712 -0.0362 -0.3933  0.3936
 4112ntf    fn422798   3.618   6.223   7.005  0.0902 -0.2555 -0.1083
 4112ntf    fn422799   3.746   6.066   6.951 -0.5394 -0.1338 -0.3456
 4112ntf    fn422800   3.829   6.248   7.026  0.2285  0.0344 -0.1586
 4113ntf    cn122801   6.820   0.980   4.383 -0.1858 -0.0026  0.5151
 4113ntf    sn222802   6.801   0.855   4.514  0.2140 -0.5291  0.0782
 4113ntf    nn322803   6.748   0.735   4.429  0.4415 -0.4780 -0.1379
 4113ntf    sn222804   6.665   0.611   4.479 -0.2954  0.0570 -0.0211
 4113ntf    cn122805   6.745   0.465   4.405 -0.4086  0.3175 -0.6637
 4113ntf    fn422806   6.857   1.098   4.429  0.4783 -0.0461  0.1048
 4113ntf    fn422807   6.905   0.957   4.284 -0.5529 -0.1137  0.2250
 4113ntf    fn422808   6.702   1.011   4.331  0.3246 -0.0847 -0.7182
 4113ntf    on522809   6.939   0.845   4.556  0.0521  0.2104  0.8134
 4113ntf    on522810   6.710   0.920   4.605  0.1683  0.3100 -0.5583
 4113ntf    on522811   6.536   0.590   4.418 -0.3166 -0.0573  0.0610
 4113ntf    on522812   6.668   0.577   4.619  0.1972 -0.0979 -0.0670
 4113ntf    fn422813   6.651   0.374   4.387 -0.4774  0.2454  0.0415
 4113ntf    fn422814   6.817   0.483   4.295  0.1925  0.5530 -0.2390
 4113ntf    fn422815   6.828   0.406   4.489 -0.3693  0.5953 -0.5075
 4114ntf    cn122816   5.433   2.902   2.625 -0.2387 -0.1827 -0.0739
 4114ntf    sn222817   5.274   2.826   2.579 -0.0616 -0.5364 -0.1023
 4114ntf    nn322818   5.325   2.722   2.473  0.4572  0.0999 -0.4825
 4114ntf    sn222819   5.270   2.675   2.335 -0.0727 -0.0924 -0.2079
 4114ntf    cn122820   5.231   2.500   2.370 -0.3295 -0.0736 -0.3937
 4114ntf    fn422821   5.515   2.897   2.522 -0.2821  0.2090 -0.1286
 4114ntf    fn422822   5.418   3.030   2.657 -1.0196 -0.3798  0.3914
 4114ntf    fn422823   5.484   2.830   2.723  0.2196  0.6498  0.3104
 4114ntf    on522824   5.220   2.768   2.700  0.1092 -0.4662  0.0082
 4114ntf    on522825   5.198   2.935   2.524  0.5045  0.2124  0.5757
 4114ntf    on522826   5.376   2.676   2.237  0.2793  0.5180  0.1792
 4114ntf    on522827   5.142   2.729   2.294  0.0050  0.3305  0.1067
 4114ntf    fn422828   5.139   2.480   2.463 -0.2889  0.0169 -0.3331
 4114ntf    fn422829   5.197   2.431   2.262 -0.5597 -0.1809 -0.2516
 4114ntf    fn422830   5.333   2.433   2.421 -0.1173  0.4742 -0.0864
 4115ntf    cn122831   3.227   5.347   1.435  0.0315 -0.2340 -0.0516
 4115ntf    sn222832   3.053   5.325   1.386  0.0857 -0.0343 -0.3364
 4115ntf    nn322833   2.990   5.437   1.475  0.3930  0.2247 -0.4417
 4115ntf    sn222834   3.002   5.592   1.456  0.1455  0.2964 -0.0286
 4115ntf    cn122835   2.962   5.643   1.627 -0.2460 -0.2398  0.0415
 4115ntf    fn422836   3.297   5.427   1.356  0.1048 -0.3596 -0.1143
 4115ntf    fn422837   3.246   5.388   1.559  0.6917  0.0428 -0.2406
 4115ntf    fn422838   3.286   5.230   1.423  0.5547  0.0154  0.0655
 4115ntf    on522839   3.058   5.341   1.243 -0.3252 -0.8703 -0.4534
 4115ntf    on522840   3.020   5.194   1.437 -0.3692  0.0553 -0.4035
 4115ntf    on522841   2.909   5.667   1.375  0.4647  0.1545 -0.5262
 4115ntf    on522842   3.142   5.620   1.439  0.2036  0.1943  0.2727
 4115ntf    fn422843   3.023   5.564   1.714 -0.2202 -0.9467 -0.6009
 4115ntf    fn422844   3.009   5.766   1.640 -0.9325  0.0195  0.1105
 4115ntf    fn422845   2.833   5.633   1.651 -0.1521  0.0144  0.6541
 4116ntf    cn122846   1.806   5.402   5.729  0.1294 -0.3388 -0.1298
 4116ntf    sn222847   1.656   5.336   5.807  0.0790 -0.1428 -0.0605
 4116ntf    nn322848   1.607   5.468   5.878 -0.0002 -0.0331 -0.3173
 4116ntf    sn222849   1.461   5.525   5.876  0.0569  0.1289  0.0279
 4116ntf    cn122850   1.445   5.609   5.715 -0.0335  0.5123  0.2363
 4116ntf    fn422851   1.785   5.480   5.624 -0.3161 -0.4892 -0.1555
 4116ntf    fn422852   1.866   5.480   5.818  0.0188 -0.2481 -0.1331
 4116ntf    fn422853   1.898   5.316   5.688  0.8273  0.2854  0.1028
 4116ntf    on522854   1.580   5.292   5.693  0.1625 -0.2111 -0.0894
 4116ntf    on522855   1.700   5.233   5.897 -0.2382  0.1448  0.4351
 4116ntf    on522856   1.439   5.634   5.968  0.4011  0.3286 -0.1241
 4116ntf    on522857   1.364   5.418   5.878  0.5568 -0.3376 -0.2200
 4116ntf    fn422858   1.492   5.541   5.612 -0.3867 -0.0497  0.4357
 4116ntf    fn422859   1.320   5.641   5.683  0.0575  0.0256 -0.6097
 4116ntf    fn422860   1.514   5.721   5.718  0.6759  0.0725  0.4846
 4117ntf    cn122861   6.399   4.784   6.344  0.2252  0.1825  0.0323
 4117ntf    sn222862   6.499   4.927   6.394  0.0196  0.2996  0.1070
 4117ntf    nn322863   6.379   5.022   6.431 -0.2490  0.0043 -0.0110
 4117ntf    sn222864   6.370   5.161   6.502 -0.0810  0.0109 -0.0039
 4117ntf    cn122865   6.373   5.118   6.678  0.3412 -0.4148 -0.1130
 4117ntf    fn422866   6.476   4.682   6.309  0.4233  0.4864 -0.4221
 4117ntf    fn422867   6.317   4.741   6.438  0.8145  0.1067  0.5238
 4117ntf    fn422868   6.331   4.808   6.234  0.0281  0.0365  0.1221
 4117ntf    on522869   6.575   4.877   6.505  0.1291 -0.3863 -0.2733
 4117ntf    on522870   6.569   4.965   6.274  0.0797 -0.2599 -0.0349
 4117ntf    on522871   6.242   5.223   6.477  0.0081  0.6889  1.1316
 4117ntf    on522872   6.486   5.245   6.480  0.1512 -0.3409 -0.1259
 4117ntf    fn422873   6.392   5.221   6.759 -0.2026 -0.2998 -0.1275
 4117ntf    fn422874   6.254   5.073   6.714  0.3109  0.0570  0.4039
 4117ntf    fn422875   6.467   5.032   6.712  0.4270 -0.0939  0.4776
 4118ntf    cn122876   0.453   3.647   6.496 -0.3496  0.0921 -0.1190
 4118ntf    sn222877   0.395   3.759   6.626  0.1947  0.2213  0.0154
 4118ntf    nn322878   0.522   3.748   6.717  0.3222 -0.1027 -0.2010
 4118ntf    sn222879   0.548   3.759   6.872  0.2680  0.2580 -0.2154
 4118ntf    cn122880   0.685   3.878   6.869  0.1863  0.3767  0.6404
 4118ntf    fn422881   0.500   3.534   6.545 -0.0909  0.4843  0.5443
 4118ntf    fn422882   0.365   3.616   6.401 -0.3441  0.0017 -0.0942
 4118ntf    fn422883   0.557   3.703   6.436  0.2343 -0.4763  0.3599
 4118ntf    on522884   0.376   3.884   6.558 -0.0604 -0.0929 -0.4931
 4118ntf    on522885   0.284   3.688   6.686  0.1139 -0.0819 -0.4909
 4118ntf    on522886   0.607   3.637   6.921  0.0991  0.3645  0.2573
 4118ntf    on522887   0.444   3.819   6.951 -0.0392 -0.2554 -0.2284
 4118ntf    fn422888   0.786   3.854   6.787 -0.6161 -0.0429 -0.2405
 4118ntf    fn422889   0.643   4.001   6.841 -0.4328  0.0625  0.1662
 4118ntf    fn422890   0.754   3.885   6.982  0.6931 -0.1415  0.3675
 4119ntf    cn122891   0.061   1.628   1.324  0.0070 -0.2480  0.2062
 4119ntf    sn222892   0.146   1.735   1.444 -0.2315  0.0193  0.1384
 4119ntf    nn322893   0.051   1.860   1.448 -0.4523 -0.1415 -0.0154
 4119ntf    sn222894   0.080   2.006   1.400  0.5870 -0.3518 -0.0630
 4119ntf    cn122895   0.112   2.084   1.561  0.1621  0.2354 -0.2576
 4119ntf    fn422896   0.053   1.696   1.211  0.2386  0.6346  0.7132
 4119ntf    fn422897   0.135   1.521   1.298  0.7620  0.3196 -0.0007
 4119ntf    fn422898  -0.054   1.576   1.364  0.1526 -0.6192  0.1475
 4119ntf    on522899   0.142   1.662   1.568 -0.2978  0.0459  0.1517
 4119ntf    on522900   0.273   1.760   1.381 -0.0883 -0.5164  0.2047
 4119ntf    on522901  -0.038   2.069   1.345  0.5800 -0.0609  0.2780
 4119ntf    on522902   0.200   2.027   1.323  0.9023  0.1658  0.5574
 4119ntf    fn422903   0.239   2.078   1.596  0.0774  0.0264  0.0153
 4119ntf    fn422904   0.075   2.210   1.576  0.6287  0.3076  0.3297
 4119ntf    fn422905   0.044   2.014   1.651 -0.3567  0.1546 -0.7036
 4120ntf    cn122906   4.006   7.003   0.755 -0.0789 -0.1948 -0.4493
 4120ntf    sn222907   4.111   7.035   0.610  0.2664  0.2177 -0.1107
 4120ntf    nn322908   4.088   7.190   0.603  0.1947  0.2223  0.1947
 4120ntf    sn222909   3.985   7.261   0.508  0.2217  0.2458  0.1828
 4120ntf    cn122910   4.075   7.236   0.352 -0.3257 -0.1622 -0.0714
 4120ntf    fn422911   3.952   6.882   0.756 -0.4413 -0.0335  0.2829
 4120ntf    fn422912   4.068   7.010   0.872 -0.0748 -0.6225 -0.4224
 4120ntf    fn422913   3.908   7.091   0.759  0.1662  0.0633 -0.0129
 4120ntf    on522914   4.245   7.009   0.656  0.2310  0.0136 -0.1252
 4120ntf    on522915   4.062   6.947   0.507 -0.2356  0.4655 -0.0855
 4120ntf    on522916   3.966   7.403   0.525  0.5807  0.2752  0.3391
 4120ntf    on522917   3.868   7.180   0.484  0.1614  0.3996 -0.0491
 4120ntf    fn422918   4.028   7.314   0.256 -0.0126 -0.2113 -0.2650
 4120ntf    fn422919   4.200   7.277   0.365 -0.2326 -0.3336 -0.4045
 4120ntf    fn422920   4.074   7.109   0.315 -0.4635 -0.3075  0.4161
 4121ntf    cn122921   0.369   0.153   5.289 -0.0692  0.0948 -0.3009
 4121ntf    sn222922   0.267   0.039   5.388  0.0225  0.4252  0.1763
 4121ntf    nn322923   0.154   0.015   5.282 -0.0172  0.3257  0.2415
 4121ntf    sn222924   0.136  -0.107   5.185 -0.1120  0.2269  0.3826
 4121ntf    cn122925   0.100  -0.002   5.041  0.1122  0.0566  0.2006
 4121ntf    fn422926   0.487   0.182   5.342 -0.0442  0.0307 -0.3214
 4121ntf    fn422927   0.397   0.106   5.169 -0.2788  0.4678 -0.4964
 4121ntf    fn422928   0.316   0.273   5.278 -0.0968  0.1808  0.6470
 4121ntf    on522929   0.354  -0.074   5.407 -0.0806  0.3211  0.0304
 4121ntf    on522930   0.210   0.115   5.497 -0.8428  0.1814 -0.0978
 4121ntf    on522931   0.006  -0.164   5.210 -0.5637  1.2239  0.3465
 4121ntf    on522932   0.248  -0.191   5.151 -0.3480 -0.1067  0.4201
 4121ntf    fn422933   0.110  -0.048   4.918  0.0422 -0.0806  0.2466
 4121ntf    fn422934  -0.019   0.052   5.061  0.0059 -0.0570 -0.1287
 4121ntf    fn422935   0.183   0.102   5.048  0.4015 -0.1845  0.3755
 4122ntf    cn122936   0.980   2.283   4.387  0.0867  0.1265  0.1642
 4122ntf    sn222937   1.021   2.232   4.557  0.0152 -0.0903  0.1166
 4122ntf    nn322938   1.134   2.131   4.515  0.2265  0.1604  0.0793
 4122ntf    sn222939   1.289   2.153   4.497  0.2529 -0.1938 -0.1375
 4122ntf    cn122940   1.339   1.982   4.533  0.0921 -0.2579 -0.2150
 4122ntf    fn422941   0.880   2.370   4.389 -0.2579 -0.2680  0.1573
 4122ntf    fn422942   1.076   2.338   4.315 -0.3214  0.5216 -0.0843
 4122ntf    fn422943   0.931   2.187   4.311 -0.0214  0.3206 -0.0125
 4122ntf    on522944   1.067   2.355   4.616  0.3438 -0.0683 -0.1765
 4122ntf    on522945   0.901   2.170   4.607 -0.1999  0.3597  0.1623
 4122ntf    on522946   1.357   2.227   4.601  0.2456 -0.6888  0.2220
 4122ntf    on522947   1.339   2.171   4.364  0.4985 -0.1446 -0.0386
 4122ntf    fn422948   1.278   1.887   4.465  0.1380 -0.5139  0.1021
 4122ntf    fn422949   1.466   1.958   4.503  0.3007  0.5789 -0.0288
 4122ntf    fn422950   1.330   1.958   4.663  0.3306  0.3858 -0.0729
 4123ntf    cn122951   5.743   1.803   6.585  0.4136 -0.0313  0.1190
 4123ntf    sn222952   5.656   1.890   6.451  0.0454 -0.0131  0.3712
 4123ntf    nn322953   5.783   1.925   6.367 -0.1396 -0.2102  0.0065
 4123ntf    sn222954   5.801   2.037   6.258 -0.1382  0.0812  0.3060
 4123ntf    cn122955   5.781   1.947   6.102  0.5037  0.2992  0.0939
 4123ntf    fn422956   5.649   1.762   6.668 -0.1755 -0.2933 -0.6594
 4123ntf    fn422957   5.809   1.695   6.545 -0.4334 -0.4519 -0.1810
 4123ntf    fn422958   5.820   1.883   6.657  0.0526 -0.1971  0.6940
 4123ntf    on522959   5.567   1.794   6.391  0.0229 -0.0325  0.4353
 4123ntf    on522960   5.603   1.994   6.536 -0.1466  0.5036 -0.3731
 4123ntf    on522961   5.940   2.076   6.260 -0.0810 -0.1071 -0.0414
 4123ntf    on522962   5.709   2.149   6.262  0.0775  0.2506  0.5170
 4123ntf    fn422963   5.731   2.025   6.007 -0.7512 -0.5182  0.0591
 4123ntf    fn422964   5.896   1.913   6.046  0.5759 -0.0749  0.4712
 4123ntf    fn422965   5.695   1.846   6.103  0.8683 -0.0116  0.1585
 4124ntf    cn122966   5.366   5.540   3.930  0.0784  0.1507  0.2496
 4124ntf    sn222967   5.422   5.505   3.761 -0.0496  0.1272  0.2124
 4124ntf    nn322968   5.389   5.646   3.702 -0.5274  0.1812  0.6051
 4124ntf    sn222969   5.484   5.768   3.675 -0.3513 -0.0353  0.2430
 4124ntf    cn122970   5.498   5.735   3.496  0.0552  0.2021  0.2285
 4124ntf    fn422971   5.385   5.436   4.011 -0.0697 -0.0097  0.0786
 4124ntf    fn422972   5.431   5.640   3.988  0.1057  0.1440  0.2304
 4124ntf    fn422973   5.237   5.567   3.928  0.1318  0.3721 -0.2473
 4124ntf    on522974   5.559   5.461   3.769  0.1994  0.8073 -0.1959
 4124ntf    on522975   5.320   5.413   3.716  0.1593 -0.3208  0.6426
 4124ntf    on522976   5.618   5.772   3.728 -0.1816 -0.0225 -0.1823
 4124ntf    on522977   5.415   5.895   3.679  0.0803  0.2322 -0.5424
 4124ntf    fn422978   5.558   5.625   3.454  0.1241  0.0810  0.6311
 4124ntf    fn422979   5.375   5.716   3.451  0.3271 -0.1536 -0.3704
 4124ntf    fn422980   5.548   5.830   3.419 -0.2217  0.0128 -0.1877
 4125ntf    cn122981   6.624   6.878   2.847 -0.2453 -0.1753  0.0542
 4125ntf    sn222982   6.750   6.762   2.910 -0.0595 -0.0250 -0.0387
 4125ntf    nn322983   6.711   6.633   2.830  0.2635 -0.3127  0.2674
 4125ntf    sn222984   6.615   6.512   2.858 -0.1041  0.0059  0.3853
 4125ntf    cn122985   6.497   6.533   2.721  0.0416  0.1568  0.2836
 4125ntf    fn422986   6.502   6.828   2.845 -0.2816 -0.0827 -0.1347
 4125ntf    fn422987   6.634   6.992   2.913  0.5026  0.1484 -0.5976
 4125ntf    fn422988   6.645   6.903   2.719  0.4070  0.0256  0.1930
 4125ntf    on522989   6.868   6.828   2.861  0.3657 -0.8178 -0.0907
 4125ntf    on522990   6.733   6.753   3.052  0.1319 -0.1362 -0.0226
 4125ntf    on522991   6.529   6.518   2.974  0.1944  0.4150  0.5870
 4125ntf    on522992   6.673   6.385   2.822  0.4612  0.2322  0.4908
 4125ntf    fn422993   6.562   6.531   2.606 -0.0306 -0.4846  0.2514
 4125ntf    fn422994   6.405   6.438   2.714  0.1221  0.0884  0.1518
 4125ntf    fn422995   6.432   6.648   2.708 -0.0815  0.1294  0.6605
 4126ntf    cn122996   2.446   2.534   1.550  0.2196 -0.7425  0.0537
 4126ntf    sn222997   2.364   2.696   1.554  0.4772 -0.6109  0.0272
 4126ntf    nn322998   2.430   2.762   1.427 -0.1950 -0.5641 -0.3016
 4126ntf    sn222999   2.486   2.906   1.403  0.2083 -0.5438  0.7071
 4126ntf    cn123000   2.664   2.876   1.421  0.3136 -0.2411  0.2072
 4126ntf    fn423001   2.432   2.475   1.432  0.3965 -0.4547 -0.1146
 4126ntf    fn423002   2.576   2.539   1.575  0.2815 -0.2203 -0.3487
 4126ntf    fn423003   2.398   2.446   1.636  0.1385 -0.1424  0.6318
 4126ntf    on523004   2.224   2.666   1.541  0.4061  0.0856 -0.9918
 4126ntf    on523005   2.413   2.757   1.676  0.8716  0.1813 -0.5127
 4126ntf    on523006   2.465   2.998   1.512 -0.4821 -0.1609  0.2596
 4126ntf    on523007   2.472   2.953   1.267  0.0550 -1.2215  0.4834
 4126ntf    fn423008   2.743   2.982   1.423 -0.1475  0.1075 -0.0676
 4126ntf    fn423009   2.698   2.806   1.529  0.2427 -0.3611  0.1524
 4126ntf    fn423010   2.717   2.803   1.324  0.3224 -0.0909  0.0990
 4127ntf    cn123011   2.368   7.003   3.439  0.3003 -0.1867 -0.0759
 4127ntf    sn223012   2.439   7.000   3.272 -0.1692 -0.2342 -0.2758
 4127ntf    nn323013   2.591   7.031   3.301 -0.3214 -0.6538  1.0590
 4127ntf    sn223014   2.707   6.926   3.304  0.1644 -0.1719 -0.0925
 4127ntf    cn123015   2.747   6.900   3.129 -0.3204 -0.6044 -0.1411
 4127ntf    fn423016   2.421   6.918   3.527  0.3112 -0.1392 -0.0367
 4127ntf    fn423017   2.396   7.124   3.484 -0.2363 -0.2063  0.3142
 4127ntf    fn423018   2.237   6.991   3.450  0.2784  0.0928 -0.0170
 4127ntf    on523019   2.417   6.864   3.231  0.4155 -0.4191  0.0150
 4127ntf    on523020   2.375   7.112   3.208 -0.0095  0.0904  0.1231
 4127ntf    on523021   2.661   6.805   3.368  0.1665  0.0784  0.3826
 4127ntf    on523022   2.827   6.992   3.349  0.2754 -0.1858 -0.3681
 4127ntf    fn423023   2.640   6.909   3.050 -0.0068  0.2821 -0.4837
 4127ntf    fn423024   2.831   6.991   3.083 -0.1919 -0.6343  0.0378
 4127ntf    fn423025   2.801   6.782   3.106  0.6308 -0.2823  0.4151
 4128ntf    cn123026   0.517   0.333   6.867 -0.1057  0.0248 -0.2667
 4128ntf    sn223027   0.493   0.369   6.691  0.2755  0.2620 -0.2694
 4128ntf    nn323028   0.612   0.281   6.638  0.3002 -0.1426  0.4532
 4128ntf    sn223029   0.766   0.306   6.616  0.1472  0.1609 -0.3095
 4128ntf    cn123030   0.760   0.391   6.455 -0.2020  0.1772 -0.2895
 4128ntf    fn423031   0.625   0.396   6.910  0.2317 -0.4690 -0.3862
 4128ntf    fn423032   0.419   0.366   6.950 -0.5540 -0.8432 -0.4366
 4128ntf    fn423033   0.538   0.204   6.889  0.0527  0.1100  0.0808
 4128ntf    on523034   0.364   0.325   6.645  0.1758  0.2678  0.0045
 4128ntf    on523035   0.521   0.511   6.693  0.0314  0.3065 -0.1027
 4128ntf    on523036   0.837   0.183   6.599  0.0826  0.0920 -0.0925
 4128ntf    on523037   0.828   0.394   6.713 -0.2482 -0.2343  0.3082
 4128ntf    fn423038   0.693   0.505   6.463 -0.1263  0.1619  0.8356
 4128ntf    fn423039   0.882   0.420   6.413 -0.1147 -0.1706 -0.2848
 4128ntf    fn423040   0.702   0.319   6.361  0.0442 -0.6415  0.1715
 4129ntf    cn123041   6.179   1.964   4.844 -0.2425 -0.2302 -0.4266
 4129ntf    sn223042   6.099   1.873   4.979  0.3061  0.2109  0.1995
 4129ntf    nn323043   6.186   1.743   4.963  0.4179  0.3758 -0.5326
 4129ntf    sn223044   6.335   1.722   5.007  0.3615  0.2956 -0.3813
 4129ntf    cn123045   6.297   1.671   5.178 -0.0687  0.6680 -0.3618
 4129ntf    fn423046   6.295   2.022   4.872 -0.2058 -0.4459 -0.1321
 4129ntf    fn423047   6.205   1.883   4.743  0.1471 -0.1636 -0.3802
 4129ntf    fn423048   6.098   2.058   4.798 -0.0576 -0.0335 -0.3518
 4129ntf    on523049   6.116   1.944   5.104 -0.4509  0.0710  0.3868
 4129ntf    on523050   5.964   1.862   4.930  0.4641 -0.2234 -0.1478
 4129ntf    on523051   6.428   1.833   5.014  0.7721 -0.0691 -0.0121
 4129ntf    on523052   6.391   1.604   4.948 -0.6541 -0.2044 -0.3621
 4129ntf    fn423053   6.228   1.759   5.249  0.2214  0.3716  0.2980
 4129ntf    fn423054   6.227   1.561   5.196  0.0773  0.7234  0.6111
 4129ntf    fn423055   6.408   1.658   5.249 -0.1114  1.0683 -0.2187
 4130ntf    cn123056   0.608   3.260   2.032 -0.1720  0.6233 -0.5650
 4130ntf    sn223057   0.622   3.436   2.075 -0.1051  0.4849 -0.0050
 4130ntf    nn323058   0.723   3.487   1.965  0.0736  0.2969  0.0717
 4130ntf    sn223059   0.687   3.537   1.821  0.1805 -0.3739 -0.1893
 4130ntf    cn123060   0.707   3.716   1.847 -0.2502 -0.3444 -0.0664
 4130ntf    fn423061   0.725   3.199   2.026 -0.0497  0.7352  0.4777
 4130ntf    fn423062   0.533   3.193   2.118  0.6004  0.5721  0.0825
 4130ntf    fn423063   0.569   3.244   1.907 -0.1325 -0.7395 -0.4182
 4130ntf    on523064   0.489   3.491   2.077 -0.3138 -0.0058 -0.3663
 4130ntf    on523065   0.682   3.430   2.206  0.2916 -1.0627 -0.2331
 4130ntf    on523066   0.550   3.521   1.780  0.4807 -0.5314 -1.1728
 4130ntf    on523067   0.795   3.508   1.729  0.7877 -0.5745  0.5748
 4130ntf    fn423068   0.624   3.758   1.941  0.3843 -0.0326  0.3532
 4130ntf    fn423069   0.826   3.764   1.876 -0.1044 -0.4019 -0.5552
 4130ntf    fn423070   0.679   3.781   1.735  0.7844  0.1665 -0.0391
 4131ntf    cn123071   0.825   0.837   0.572  0.1175 -0.1992 -0.0398
 4131ntf    sn223072   0.851   0.711   0.701  0.3756 -0.2294 -0.1191
 4131ntf    nn323073   0.701   0.712   0.750  0.3041  0.2760 -0.3329
 4131ntf    sn223074   0.641   0.801   0.864 -0.0681  0.0119 -0.3211
 4131ntf    cn123075   0.465   0.815   0.822 -0.1099 -0.6772 -0.3987
 4131ntf    fn423076   0.697   0.871   0.571  0.3033  0.5130  0.0745
 4131ntf    fn423077   0.898   0.947   0.583  0.0202 -0.0629 -0.7087
 4131ntf    fn423078   0.853   0.791   0.451  0.4057 -0.4850  0.1348
 4131ntf    on523079   0.879   0.596   0.619  0.6364 -0.0820 -0.2357
 4131ntf    on523080   0.955   0.753   0.791  0.3364  0.0277 -0.1914
 4131ntf    on523081   0.670   0.942   0.871  0.0433 -0.0179 -0.1753
 4131ntf    on523082   0.630   0.729   0.989  0.5925 -0.1594 -0.3574
 4131ntf    fn423083   0.438   0.912   0.736 -0.0026  0.1599  0.4921
 4131ntf    fn423084   0.415   0.706   0.766 -1.0902 -0.5730  0.2576
 4131ntf    fn423085   0.390   0.847   0.926 -0.3855 -0.3890 -0.6815
 4132ntf    cn123086   1.047   5.049   0.007  0.5872 -0.2048 -0.2923
 4132ntf    sn223087   0.970   5.214   0.002  0.3169 -0.3292 -0.2595
 4132ntf    nn323088   0.822   5.161  -0.001  0.2917 -0.3044  0.4100
 4132ntf    sn223089   0.696   5.207   0.081  0.0664 -0.0259 -0.0899
 4132ntf    cn123090   0.701   5.095   0.224  0.5065  0.4122  0.2381
 4132ntf    fn423091   0.993   4.972  -0.086 -0.0222 -0.1228 -0.0137
 4132ntf    fn423092   1.178   5.049  -0.011  0.6586 -0.1444  0.2083
 4132ntf    fn423093   1.024   4.978   0.116  0.5351  0.1380 -0.0793
 4132ntf    on523094   1.013   5.277   0.125 -0.2986  0.1278 -0.2746
 4132ntf    on523095   1.006   5.273  -0.124 -0.3419 -0.4053 -0.4886
 4132ntf    on523096   0.570   5.183   0.014 -0.1332  0.3508  0.1479
 4132ntf    on523097   0.701   5.336   0.146  0.1707 -0.0975  0.0447
 4132ntf    fn423098   0.817   5.094   0.288  0.2468 -0.3221  0.7100
 4132ntf    fn423099   0.613   5.117   0.320 -0.2079 -0.0298 -0.3046
 4132ntf    fn423100   0.676   4.974   0.178  0.1839  0.6446 -0.2069
 4133ntf    cn123101   3.848   2.669   1.087 -0.0066  0.2349  0.0980
 4133ntf    sn223102   3.839   2.715   1.263  0.1418 -0.1324  0.2029
 4133ntf    nn323103   3.707   2.799   1.252  0.3516  0.1301 -0.3579
 4133ntf    sn223104   3.677   2.950   1.286  0.2601 -0.0511  0.3896
 4133ntf    cn123105   3.501   2.946   1.333  0.2703  0.0464  0.4363
 4133ntf    fn423106   3.962   2.607   1.059 -0.2652  0.0209 -0.4890
 4133ntf    fn423107   3.749   2.588   1.055  0.1461  0.0876 -0.0012
 4133ntf    fn423108   3.846   2.778   1.012 -0.4141  0.4750  0.4558
 4133ntf    on523109   3.821   2.595   1.341 -0.1591 -0.2234 -0.0062
 4133ntf    on523110   3.963   2.785   1.286  0.2945 -0.0765 -0.7237
 4133ntf    on523111   3.678   3.039   1.173  0.1711  0.4491  0.7813
 4133ntf    on523112   3.737   3.002   1.406 -0.0583  0.2241  0.4311
 4133ntf    fn423113   3.462   3.066   1.373 -0.0424 -0.0249  0.3496
 4133ntf    fn423114   3.427   2.900   1.233  0.7477  0.3325 -0.0567
 4133ntf    fn423115   3.476   2.868   1.436 -0.2513  0.4370  0.6060
 4134ntf    cn123116   5.853   4.641   1.085 -0.2902 -0.2310  0.1717
 4134ntf    sn223117   5.706   4.742   1.054 -0.0424  0.0980  0.0631
 4134ntf    nn323118   5.774   4.882   1.077 -0.4899  0.3218  0.0572
 4134ntf    sn223119   5.791   5.008   0.985  0.0784  0.2932  0.1173
 4134ntf    cn123120   5.972   5.026   0.985  0.0667  0.4150  0.0810
 4134ntf    fn423121   5.955   4.693   1.019 -0.4230 -0.2346 -0.0375
 4134ntf    fn423122   5.882   4.630   1.214  0.5535 -0.6454 -0.0476
 4134ntf    fn423123   5.839   4.521   1.031  0.1954 -0.1715 -0.0890
 4134ntf    on523124   5.646   4.730   0.923 -0.1436  0.3477  0.0839
 4134ntf    on523125   5.623   4.695   1.162  0.6247 -0.0136  0.5280
 4134ntf    on523126   5.750   5.121   1.065 -0.6204  0.4763 -0.4931
 4134ntf    on523127   5.744   5.012   0.849 -0.2245 -0.0821  0.2077
 4134ntf    fn423128   6.012   5.047   1.109  0.0503 -0.0211  0.1637
 4134ntf    fn423129   6.027   4.913   0.944  0.2846  0.5547 -0.0081
 4134ntf    fn423130   6.014   5.123   0.906 -0.1781  0.4222 -0.0414
 4135ntf    cn123131   3.283   4.873   2.724  0.0154 -0.1089 -0.3418
 4135ntf    sn223132   3.111   4.929   2.729  0.0838  0.1047 -0.3602
 4135ntf    nn323133   3.053   4.824   2.831 -0.0684  0.2185 -0.3289
 4135ntf    sn223134   2.920   4.741   2.838  0.2579 -0.2681  0.1675
 4135ntf    cn123135   2.977   4.591   2.753  0.1800 -0.1340 -0.1198
 4135ntf    fn423136   3.354   4.954   2.647  0.4966 -0.4433 -0.2597
 4135ntf    fn423137   3.332   4.875   2.847  0.8705 -0.6443 -0.6591
 4135ntf    fn423138   3.305   4.750   2.678  0.5444  0.1241 -0.7279
 4135ntf    on523139   3.116   5.062   2.783 -0.2066 -0.5673  1.3954
 4135ntf    on523140   3.062   4.918   2.594  0.7353 -0.0609 -0.5833
 4135ntf    on523141   2.806   4.786   2.762  0.3698  0.2851  0.3215
 4135ntf    on523142   2.879   4.709   2.973 -0.5237 -0.3637 -0.0892
 4135ntf    fn423143   3.011   4.625   2.629  0.3080  0.0833 -0.0258
 4135ntf    fn423144   3.091   4.545   2.803  0.4429  0.1709 -0.4300
 4135ntf    fn423145   2.890   4.491   2.750  0.4087 -0.3416  0.0793
 4136ntf    cn123146   0.888   6.445   4.101  0.3281  0.2029 -0.0609
 4136ntf    sn223147   1.015   6.326   4.050 -0.2615 -0.3854 -0.1569
 4136ntf    nn323148   1.100   6.411   3.950 -0.1080  0.3541  0.5915
 4136ntf    sn223149   1.256   6.423   3.934 -0.1260 -0.1186  0.0410
 4136ntf    cn123150   1.298   6.547   4.059 -0.3458 -0.0430  0.0400
 4136ntf    fn423151   0.928   6.559   4.156  0.1482  0.1283  0.2310
 4136ntf    fn423152   0.821   6.485   3.995 -0.1660  0.3318  0.2963
 4136ntf    fn423153   0.797   6.382   4.173  0.4675  0.1416  0.0634
 4136ntf    on523154   1.088   6.285   4.168  0.4415  0.1878 -0.3866
 4136ntf    on523155   0.938   6.220   3.989 -0.1308 -0.3850 -0.3219
 4136ntf    on523156   1.296   6.482   3.809 -0.3988  0.0748  0.0438
 4136ntf    on523157   1.324   6.302   3.974  0.6407  0.2413 -0.1466
 4136ntf    fn423158   1.409   6.608   4.022 -0.0913 -0.3124  0.3454
 4136ntf    fn423159   1.207   6.642   4.069 -0.2692  0.0218  0.1343
 4136ntf    fn423160   1.309   6.499   4.182  0.0382 -0.2638 -0.0776
 4137ntf    cn123161   1.092   2.540   3.540 -0.4828 -0.3880  0.0088
 4137ntf    sn223162   1.207   2.410   3.595 -0.0946 -0.0759 -0.0670
 4137ntf    nn323163   1.329   2.498   3.642 -0.1452  0.0279 -0.1287
 4137ntf    sn223164   1.476   2.499   3.586  0.0802  0.0488  0.4630
 4137ntf    cn123165   1.531   2.334   3.638  0.3410  0.0587  0.2180
 4137ntf    fn423166   0.970   2.544   3.591 -0.6276 -0.6746 -0.3056
 4137ntf    fn423167   1.156   2.652   3.570 -0.0452 -0.6437  0.0418
 4137ntf    fn423168   1.077   2.541   3.408  0.1882 -0.5627 -0.0700
 4137ntf    on523169   1.136   2.351   3.705 -0.1451  0.0355 -0.0389
 4137ntf    on523170   1.209   2.326   3.478  0.8980  0.0885 -0.1759
 4137ntf    on523171   1.576   2.579   3.653  0.2849 -0.0991  0.3342
 4137ntf    on523172   1.481   2.506   3.443  0.4634  0.4323  0.4942
 4137ntf    fn423173   1.480   2.312   3.758 -0.1967 -0.2823 -0.0701
 4137ntf    fn423174   1.476   2.243   3.559 -0.5053  0.6095  0.1630
 4137ntf    fn423175   1.659   2.307   3.654  0.3163 -0.3149 -0.1900
 4138ntf    cn123176   3.661   4.995   0.414  0.5942 -0.4634 -0.2000
 4138ntf    sn223177   3.787   4.877   0.473  0.3583 -0.4866  0.2589
 4138ntf    nn323178   3.809   4.936   0.616  0.3362  0.1313  0.0120
 4138ntf    sn223179   3.945   4.965   0.689  0.1040  0.6048  0.2663
 4138ntf    cn123180   3.987   5.132   0.629  0.1140  0.4928 -0.0393
 4138ntf    fn423181   3.701   5.120   0.402  0.3509 -0.3445  0.2392
 4138ntf    fn423182   3.619   4.950   0.296 -0.1294 -0.8358  0.1977
 4138ntf    fn423183   3.556   4.985   0.493  0.8901 -0.2643  0.2211
 4138ntf    on523184   3.728   4.747   0.461  0.0297 -0.2844 -0.3906
 4138ntf    on523185   3.900   4.909   0.389  0.0533 -0.1183 -0.0153
 4138ntf    on523186   4.046   4.874   0.642 -0.0152  0.7294 -0.2384
 4138ntf    on523187   3.931   4.989   0.830  0.6844  0.1154  0.4101
 4138ntf    fn423188   4.029   5.128   0.503  0.2293 -0.4484  0.0194
 4138ntf    fn423189   3.892   5.223   0.633 -0.4854 -0.1490  0.3551
 4138ntf    fn423190   4.093   5.175   0.696  0.6819 -0.0492 -0.5637
 4139ntf    cn123191   4.050   1.188   1.561  0.3064 -0.3332 -0.0072
 4139ntf    sn223192   3.907   1.226   1.667  0.4716 -0.0382  0.1123
 4139ntf    nn323193   3.864   1.366   1.611  0.1082 -0.2264 -0.0800
 4139ntf    sn223194   3.751   1.407   1.509 -0.0111  0.1950  0.2202
 4139ntf    cn123195   3.651   1.521   1.608 -0.1773  0.2838 -0.0510
 4139ntf    fn423196   4.141   1.284   1.553  0.4047 -0.4431 -0.2286
 4139ntf    fn423197   4.109   1.075   1.595 -0.5576 -0.6749  0.3732
 4139ntf    fn423198   4.010   1.168   1.437 -0.5853 -0.1209  0.2366
 4139ntf    on523199   3.818   1.113   1.649 -0.1857  0.4267  0.4083
 4139ntf    on523200   3.971   1.240   1.796  0.3348  0.2201  0.1510
 4139ntf    on523201   3.664   1.300   1.468  0.2981 -0.3597  0.9739
 4139ntf    on523202   3.804   1.496   1.409  0.2523 -0.2169 -0.0084
 4139ntf    fn423203   3.633   1.472   1.729 -0.3561  0.2621 -0.0851
 4139ntf    fn423204   3.708   1.638   1.631  0.0157  0.1097  0.3691
 4139ntf    fn423205   3.536   1.540   1.545 -0.2259  0.1727  0.0033
 4140ntf    cn123206   5.013   1.691   3.299  0.1877 -0.1272 -0.4458
 4140ntf    sn223207   5.175   1.657   3.372  0.0058  0.0025  0.0166
 4140ntf    nn323208   5.248   1.567   3.266 -0.5592  0.8004 -1.0593
 4140ntf    sn223209   5.359   1.595   3.159  0.3323  0.0750 -0.3349
 4140ntf    cn123210   5.265   1.517   3.024 -0.0796  0.0079 -0.0088
 4140ntf    fn423211   4.932   1.586   3.289 -0.0648  0.0238 -0.0028
 4140ntf    fn423212   4.960   1.794   3.362  0.4173 -0.3251  0.0791
 4140ntf    fn423213   5.025   1.732   3.173 -0.7979  0.5172 -0.3423
 4140ntf    on523214   5.231   1.790   3.377 -1.2642  0.5511 -0.0676
 4140ntf    on523215   5.134   1.599   3.498  0.7156  0.3861  0.4396
 4140ntf    on523216   5.479   1.514   3.164  0.2154 -0.0756  0.0244
 4140ntf    on523217   5.361   1.731   3.113  0.0783  0.3241  0.3891
 4140ntf    fn423218   5.222   1.394   3.052 -0.3855  0.1369  0.0972
 4140ntf    fn423219   5.156   1.588   3.003 -0.0646 -0.0046 -0.1307
 4140ntf    fn423220   5.337   1.514   2.913  0.1665  0.2730  0.1419
 4141ntf    cn123221   0.921   6.217   6.726 -0.0325  0.3129  0.1037
 4141ntf    sn223222   0.881   6.074   6.621  0.0695  0.2982  0.0847
 4141ntf    nn323223   0.774   5.994   6.703  0.2186 -0.1019 -0.1094
 4141ntf    sn223224   0.645   5.919   6.655  0.0494  0.2392 -0.1890
 4141ntf    cn123225   0.698   5.825   6.508  0.2642 -0.0302  0.0592
 4141ntf    fn423226   0.942   6.187   6.854  0.1553 -0.6156 -0.1320
 4141ntf    fn423227   1.016   6.286   6.665  0.2257  0.5018  0.7100
 4141ntf    fn423228   0.815   6.295   6.722  0.0846  0.4293 -0.8075
 4141ntf    on523229   0.839   6.139   6.499  0.6090 -0.3462 -0.4594
 4141ntf    on523230   1.008   6.007   6.615 -0.0562  0.0032  0.6934
 4141ntf    on523231   0.541   6.011   6.617 -0.0580 -0.0002 -0.4835
 4141ntf    on523232   0.595   5.828   6.756 -0.3734  0.7285  0.0461
 4141ntf    fn423233   0.759   5.896   6.414 -0.1487  0.2757  0.0186
 4141ntf    fn423234   0.784   5.732   6.546 -0.0410 -0.5547 -0.5202
 4141ntf    fn423235   0.600   5.755   6.455  0.0251  0.4885 -0.1934
 4142ntf    cn123236   2.486   4.172   1.029  0.0471  0.0018 -0.0713
 4142ntf    sn223237   2.461   4.008   0.954 -0.1139  0.0624 -0.1513
 4142ntf    nn323238   2.419   3.929   1.084  0.3737 -0.3711 -0.2536
 4142ntf    sn223239   2.271   3.903   1.130  0.2711  0.3589 -0.1577
 4142ntf    cn123240   2.260   4.023   1.266 -0.0636  0.0289  0.1086
 4142ntf    fn423241   2.563   4.171   1.137 -0.0075  0.1755 -0.0301
 4142ntf    fn423242   2.539   4.253   0.939 -0.4561  0.3402 -0.0695
 4142ntf    fn423243   2.367   4.223   1.054 -0.0838 -0.1553 -0.3677
 4142ntf    on523244   2.364   4.033   0.850  0.0379 -0.0400 -0.3175
 4142ntf    on523245   2.594   3.984   0.906 -0.1015 -0.1122 -0.0311
 4142ntf    on523246   2.247   3.782   1.203  0.5535  0.4950  0.1591
 4142ntf    on523247   2.169   3.946   1.037 -0.3179 -0.7939 -0.0608
 4142ntf    fn423248   2.138   4.054   1.306 -0.1514 -0.2393  0.0489
 4142ntf    fn423249   2.330   3.987   1.372  0.2715  0.1293 -0.0778
 4142ntf    fn423250   2.312   4.140   1.232 -0.2432  0.1942  0.3955
 4143ntf    cn123251   4.067   2.141   0.960 -0.1985  0.1408 -0.1727
 4143ntf    sn223252   3.931   2.029   0.917 -0.0284 -0.1522  0.0561
 4143ntf    nn323253   3.857   2.125   0.817 -0.0518 -0.2871 -0.0563
 4143ntf    sn223254   3.703   2.132   0.787  0.0209 -0.2057 -0.4066
 4143ntf    cn123255   3.682   2.120   0.607 -0.0696 -0.3211 -0.3883
 4143ntf    fn423256   4.024   2.262   0.990  0.0921  0.3031 -0.3960
 4143ntf    fn423257   4.134   2.102   1.067 -0.3205 -0.3992 -0.2898
 4143ntf    fn423258   4.147   2.157   0.855 -0.5855 -0.0791 -0.5020
 4143ntf    on523259   3.997   1.924   0.843  0.7819  0.0840  0.4322
 4143ntf    on523260   3.863   1.999   1.041 -0.4403 -0.2938 -0.2030
 4143ntf    on523261   3.653   2.266   0.806 -0.0390 -0.2178 -0.4786
 4143ntf    on523262   3.633   2.023   0.851 -0.8317  0.4707 -0.1596
 4143ntf    fn423263   3.556   2.138   0.570 -0.2374  0.0164  0.3315
 4143ntf    fn423264   3.745   2.215   0.540 -0.0334  0.3284  0.5415
 4143ntf    fn423265   3.724   2.001   0.566 -0.3879 -0.4780 -0.2620
 4144ntf    cn123266   3.038   6.398   7.004 -0.4177  0.0085 -0.0058
 4144ntf    sn223267   2.937   6.401   7.155 -0.1297 -0.0558  0.1883
 4144ntf    nn323268   3.033   6.336   7.261  0.2058 -0.7243 -0.5147
 4144ntf    sn223269   2.996   6.214   7.353 -0.1464  0.1189  0.4929
 4144ntf    cn123270   3.056   6.291   7.506  0.2053  0.2692  0.2805
 4144ntf    fn423271   2.965   6.388   6.895 -0.0789 -0.3367 -0.2011
 4144ntf    fn423272   3.120   6.501   6.990 -0.4293 -0.1161 -1.0165
 4144ntf    fn423273   3.114   6.290   7.002 -0.0906  0.2416 -0.5658
 4144ntf    on523274   2.917   6.542   7.178 -0.0715 -0.0128 -0.0191
 4144ntf    on523275   2.818   6.332   7.115  0.0323 -0.1914 -0.0619
 4144ntf    on523276   3.078   6.096   7.344 -0.0504  0.2053  0.2167
 4144ntf    on523277   2.855   6.202   7.378 -0.2179 -0.2270 -0.0503
 4144ntf    fn423278   3.183   6.326   7.495  0.2155  0.0109 -0.4987
 4144ntf    fn423279   2.987   6.400   7.536 -0.3637 -0.0596  0.1946
 4144ntf    fn423280   3.058   6.215   7.614  0.5229  0.0398  0.1166
 4145ntf    cn123281   3.741   6.491   2.228  0.2564  0.2871  0.2281
 4145ntf    sn223282   3.737   6.654   2.149 -0.4081  0.1967  0.0735
 4145ntf    nn323283   3.799   6.753   2.254 -0.6196  0.1207  0.2706
 4145ntf    sn223284   3.728   6.856   2.348  0.0199  0.4431  0.4056
 4145ntf    cn123285   3.725   6.989   2.224  0.0489  0.0318 -0.0364
 4145ntf    fn423286   3.645   6.486   2.318  0.3725 -0.2519  0.3298
 4145ntf    fn423287   3.713   6.395   2.141  0.5508  0.5176 -0.1255
 4145ntf    fn423288   3.853   6.458   2.290  0.2052 -0.1398  0.1001
 4145ntf    on523289   3.822   6.626   2.036 -0.3823 -0.1535  0.1804
 4145ntf    on523290   3.598   6.683   2.120 -0.3360  0.6873  0.2097
 4145ntf    on523291   3.812   6.916   2.448 -0.1579  0.9245  0.2721
 4145ntf    on523292   3.589   6.831   2.379  0.0731 -0.6101 -0.1497
 4145ntf    fn423293   3.844   7.035   2.190  0.0035  0.6613  0.6369
 4145ntf    fn423294   3.657   6.959   2.114 -0.3049  0.0884  0.1648
 4145ntf    fn423295   3.658   7.088   2.281  0.1975  0.3412 -0.3913
 4146ntf    cn123296   1.775   0.957   6.689 -0.4312  0.1013 -0.5621
 4146ntf    sn223297   1.903   0.926   6.565 -0.1006  0.4328 -0.3049
 4146ntf    nn323298   1.824   0.878   6.438 -0.3231  0.0233 -0.0135
 4146ntf    sn223299   1.868   0.764   6.338  0.2133  0.2830 -0.0786
 4146ntf    cn123300   1.754   0.628   6.377  0.3712  0.1334 -0.1425
 4146ntf    fn423301   1.711   0.852   6.738  0.2198  0.0728  0.2433
 4146ntf    fn423302   1.831   1.017   6.792 -0.4401  0.0705 -0.5393
 4146ntf    fn423303   1.675   1.028   6.639 -0.3363  0.5639 -0.0961
 4146ntf    on523304   1.959   1.058   6.547 -0.1109  0.5253  0.3270
 4146ntf    on523305   1.982   0.824   6.630 -0.4314  0.3878  0.0244
 4146ntf    on523306   2.000   0.707   6.347  0.2586  0.3937 -0.0287
 4146ntf    on523307   1.833   0.801   6.203 -0.0997 -0.2950 -0.1590
 4146ntf    fn423308   1.669   0.606   6.278  0.1202  0.2086  0.0578
 4146ntf    fn423309   1.811   0.511   6.403  0.8864  0.4407  0.1262
 4146ntf    fn423310   1.680   0.662   6.481  0.0136  0.1811 -0.4089
 4147ntf    cn123311   1.565   1.083   3.100  0.1477 -0.0281  0.1055
 4147ntf    sn223312   1.582   0.903   3.080 -0.2740 -0.0350 -0.2194
 4147ntf    nn323313   1.717   0.892   3.159 -0.4421 -0.8340 -0.0285
 4147ntf    sn223314   1.750   0.845   3.306  0.0720 -0.3827  0.0044
 4147ntf    cn123315   1.886   0.735   3.256  0.2138 -0.1351 -0.1596
 4147ntf    fn423316   1.454   1.125   3.041  0.0191 -0.4200  0.0613
 4147ntf    fn423317   1.571   1.136   3.221  0.2242  0.2330 -0.0137
 4147ntf    fn423318   1.666   1.144   3.041 -0.3160  0.1118 -0.5593
 4147ntf    on523319   1.464   0.852   3.146 -0.4307 -0.0310 -0.4951
 4147ntf    on523320   1.602   0.873   2.941 -0.8372  0.0609 -0.3217
 4147ntf    on523321   1.661   0.753   3.371 -0.2296 -0.2862 -0.2660
 4147ntf    on523322   1.817   0.948   3.382 -0.1756  0.0907 -0.4050
 4147ntf    fn423323   1.952   0.676   3.355 -0.2156 -0.2029  0.0884
 4147ntf    fn423324   1.832   0.645   3.176 -0.1174  0.0228 -0.1184
 4147ntf    fn423325   1.972   0.797   3.177  0.2613  0.1282  0.0946
 4148ntf    cn123326   7.138   6.633   5.542 -0.1776  0.1005 -0.0944
 4148ntf    sn223327   7.102   6.485   5.443 -0.0264  0.1919 -0.2860
 4148ntf    nn323328   6.988   6.414   5.524  0.2244 -0.0184 -0.1129
 4148ntf    sn223329   6.995   6.288   5.617 -0.0158  0.0378 -0.0170
 4148ntf    cn123330   6.958   6.158   5.496  0.4505 -0.4612  0.3681
 4148ntf    fn423331   7.224   6.718   5.489  0.4468 -0.6631 -0.3167
 4148ntf    fn423332   7.026   6.697   5.571 -0.1196  0.1456  0.0324
 4148ntf    fn423333   7.201   6.600   5.653 -0.3165 -0.0291 -0.0532
 4148ntf    on523334   7.050   6.530   5.316  0.7789 -0.3845 -0.8320
 4148ntf    on523335   7.228   6.415   5.431 -0.1063  0.0775 -0.4649
 4148ntf    on523336   6.884   6.288   5.708 -0.0545 -0.4445 -0.0585
 4148ntf    on523337   7.129   6.262   5.664 -0.0335  0.4043  0.2452
 4148ntf    fn423338   6.975   6.037   5.547  0.4980 -0.5630  0.1154
 4148ntf    fn423339   6.831   6.173   5.460  0.5017 -0.9466 -0.0311
 4148ntf    fn423340   7.033   6.160   5.386 -0.2074  0.6197 -0.0811
 4149ntf    cn123341   1.420   0.857   6.344  0.0787  0.3240 -0.1483
 4149ntf    sn223342   1.276   0.762   6.399 -0.0577  0.4287 -0.3255
 4149ntf    nn323343   1.241   0.691   6.263 -0.6367  0.3549 -0.1438
 4149ntf    sn223344   1.125   0.721   6.163 -0.6330 -0.1772 -0.3097
 4149ntf    cn123345   1.199   0.669   6.005  0.0796  0.4705 -0.1938
 4149ntf    fn423346   1.519   0.787   6.292 -0.2932 -0.0445 -0.3587
 4149ntf    fn423347   1.382   0.946   6.253  0.2448  0.6290  0.0765
 4149ntf    fn423348   1.474   0.931   6.440 -0.3540  0.5613 -0.0871
 4149ntf    on523349   1.332   0.673   6.497  0.3559  0.2551 -0.7213
 4149ntf    on523350   1.190   0.863   6.456 -0.4025 -0.0850  0.0716
 4149ntf    on523351   1.090   0.860   6.145 -0.2812 -0.0388  0.0580
 4149ntf    on523352   1.016   0.628   6.179 -0.5969 -0.1154  0.3138
 4149ntf    fn423353   1.107   0.676   5.910  0.1171 -0.0578 -0.2696
 4149ntf    fn423354   1.301   0.741   5.962  0.5262 -0.2270 -0.3006
 4149ntf    fn423355   1.244   0.545   5.998 -0.1844  0.3366  0.3850
 4150ntf    cn123356   4.475   3.691   7.205 -0.2885  0.4912  0.3420
 4150ntf    sn223357   4.592   3.656   7.070 -0.7035  0.0062  0.1049
 4150ntf    nn323358   4.510   3.676   6.938 -0.5058  0.6352  0.0778
 4150ntf    sn223359   4.411   3.581   6.862 -0.0959  0.2995 -0.0431
 4150ntf    cn123360   4.508   3.541   6.714 -0.3358 -0.3531 -0.0242
 4150ntf    fn423361   4.418   3.810   7.204 -0.5570  0.3603  0.0351
 4150ntf    fn423362   4.381   3.598   7.217 -0.1974  0.3731  0.1479
 4150ntf    fn423363   4.532   3.681   7.325 -0.3087 -0.5362  0.2778
 4150ntf    on523364   4.670   3.776   7.085 -1.0365  0.2402 -0.0128
 4150ntf    on523365   4.655   3.534   7.116  0.5104  0.4099 -0.4604
 4150ntf    on523366   4.305   3.655   6.797 -0.5208  0.1532  0.4736
 4150ntf    on523367   4.390   3.457   6.932 -0.2490  0.5089  0.2893
 4150ntf    fn423368   4.535   3.640   6.632  0.1015 -0.4503 -0.0005
 4150ntf    fn423369   4.619   3.478   6.752 -0.2441 -0.2527 -0.1245
 4150ntf    fn423370   4.438   3.458   6.639 -0.2667 -0.1119 -0.3552
 4151ntf    cn123371   5.038   3.300   7.004  0.1148  0.2716 -0.2164
 4151ntf    sn223372   5.077   3.247   7.173  0.2553  0.0316 -0.3245
 4151ntf    nn323373   5.061   3.379   7.257  0.5783  0.1238 -0.4039
 4151ntf    sn223374   5.096   3.389   7.409  0.0860  0.0752 -0.2859
 4151ntf    cn123375   5.266   3.454   7.408  0.2236 -0.2720  0.0710
 4151ntf    fn423376   5.001   3.195   6.933  0.7940  0.2229 -0.5112
 4151ntf    fn423377   4.928   3.371   6.985 -0.1459 -0.1060 -0.1239
 4151ntf    fn423378   5.142   3.371   6.961  0.3786  0.1990  0.2834
 4151ntf    on523379   4.973   3.150   7.198  0.1980  0.3036  0.5172
 4151ntf    on523380   5.213   3.201   7.154  0.4189  0.0750  0.6532
 4151ntf    on523381   5.103   3.264   7.480  0.9975  0.3750  0.1760
 4151ntf    on523382   5.033   3.497   7.481 -0.0179 -0.0086 -0.2510
 4151ntf    fn423383   5.277   3.586   7.420 -0.0115 -0.2728  0.3012
 4151ntf    fn423384   5.341   3.391   7.497  0.6056  0.0897  0.0083
 4151ntf    fn423385   5.329   3.433   7.294  0.1295 -0.1716 -0.0010
 4152ntf    cn123386   4.714   2.654   2.323 -0.6577  0.1831 -0.2670
 4152ntf    sn223387   4.630   2.634   2.484  0.0716  0.2457  0.1254
 4152ntf    nn323388   4.506   2.552   2.435  0.4424 -0.0238 -0.3711
 4152ntf    sn223389   4.376   2.608   2.366  0.1234 -0.0694  0.1905
 4152ntf    cn123390   4.297   2.707   2.497 -0.2764  0.1513 -0.2168
 4152ntf    fn423391   4.842   2.683   2.332 -0.4179 -0.8649 -0.2193
 4152ntf    fn423392   4.704   2.539   2.259  0.3083  0.2010 -0.4614
 4152ntf    fn423393   4.654   2.743   2.246 -0.1783  0.3363 -0.4642
 4152ntf    on523394   4.718   2.549   2.560  0.1257  0.5496  0.4035
 4152ntf    on523395   4.599   2.763   2.541  0.1181  0.2023  0.2479
 4152ntf    on523396   4.297   2.492   2.333  0.0196  0.0407  0.0519
 4152ntf    on523397   4.396   2.701   2.259  0.4434 -0.1716  0.1595
 4152ntf    fn423398   4.307   2.661   2.621 -0.1508  0.2796 -0.1794
 4152ntf    fn423399   4.338   2.832   2.501 -0.3777  0.1724  0.2237
 4152ntf    fn423400   4.167   2.716   2.473 -0.2826 -0.2498 -0.3527
 4153ntf    cn123401   1.634   6.680   0.990  0.0108 -0.2360 -0.7048
 4153ntf    sn223402   1.762   6.743   0.877  0.1689  0.2898 -0.2362
 4153ntf    nn323403   1.772   6.884   0.946 -0.4420  0.2183  0.0023
 4153ntf    sn223404   1.901   6.956   0.997 -0.3945  0.2175 -0.1162
 4153ntf    cn123405   1.836   7.123   1.030 -0.2102  0.2745 -0.0366
 4153ntf    fn423406   1.527   6.757   0.988 -0.2627 -0.6088 -0.6661
 4153ntf    fn423407   1.594   6.554   0.977 -0.3170 -0.1918 -0.1404
 4153ntf    fn423408   1.681   6.680   1.114 -0.2848 -0.1921 -0.5932
 4153ntf    on523409   1.873   6.653   0.887 -0.2173 -0.1850 -0.1876
 4153ntf    on523410   1.686   6.741   0.754 -0.6130 -0.6481  0.2507
 4153ntf    on523411   2.007   6.977   0.902  0.0358 -0.1317  0.2812
 4153ntf    on523412   1.931   6.915   1.132 -0.9056 -0.3385 -0.1670
 4153ntf    fn423413   1.710   7.117   1.069 -0.1702 -0.1764  0.0289
 4153ntf    fn423414   1.901   7.177   1.132 -0.0242  0.4225 -0.2309
 4153ntf    fn423415   1.840   7.217   0.936 -0.1598 -0.0849 -0.3963
 4154ntf    cn123416   3.794   2.694   5.603  0.3571  0.2086  0.0414
 4154ntf    sn223417   3.762   2.595   5.453  0.4595 -0.0422  0.1840
 4154ntf    nn323418   3.905   2.535   5.427  0.3891 -0.1946  0.1460
 4154ntf    sn223419   3.940   2.396   5.364  0.0940 -0.2181  0.0325
 4154ntf    cn123420   3.964   2.286   5.508 -0.0828 -0.1833  0.0900
 4154ntf    fn423421   3.840   2.611   5.695 -0.5226 -0.3195  0.0163
 4154ntf    fn423422   3.888   2.787   5.596  0.4113  0.1131 -0.5640
 4154ntf    fn423423   3.687   2.763   5.636  0.0647 -0.3221  0.2115
 4154ntf    on523424   3.663   2.500   5.497  0.2015  0.1705  0.0663
 4154ntf    on523425   3.719   2.686   5.350 -0.2482  0.2834  0.7613
 4154ntf    on523426   4.066   2.397   5.295 -0.1867  0.8412 -0.4833
 4154ntf    on523427   3.831   2.344   5.285 -0.4061  0.9486 -0.0672
 4154ntf    fn423428   4.048   2.334   5.598  0.5909 -0.5688 -0.3221
 4154ntf    fn423429   3.842   2.265   5.553 -0.1414 -0.2261 -0.0844
 4154ntf    fn423430   4.018   2.170   5.474  0.0171 -0.1596  0.1680
 4155ntf    cn123431   7.037   2.741   1.525  0.3080  0.4020  0.4561
 4155ntf    sn223432   7.076   2.570   1.573  0.1733  0.2609  0.0715
 4155ntf    nn323433   6.951   2.528   1.658  0.2833 -0.3484 -0.0636
 4155ntf    sn223434   6.856   2.406   1.631 -0.0581 -0.0591 -0.1688
 4155ntf    cn123435   6.954   2.261   1.678 -0.3821 -0.2284 -0.0132
 4155ntf    fn423436   7.011   2.822   1.626 -0.4803  0.7164  0.0117
 4155ntf    fn423437   7.129   2.807   1.457  0.3526  0.4079  0.5222
 4155ntf    fn423438   6.928   2.746   1.450  0.2197  0.0442  0.5596
 4155ntf    on523439   7.098   2.503   1.448  0.3166  0.1173  0.1732
 4155ntf    on523440   7.183   2.580   1.669  0.0934  0.4635  0.1400
 4155ntf    on523441   6.823   2.381   1.493 -0.6088 -0.6264  0.0576
 4155ntf    on523442   6.737   2.407   1.714 -0.2348 -0.3139 -0.4189
 4155ntf    fn423443   6.977   2.259   1.808 -0.7169 -0.1906  0.0493
 4155ntf    fn423444   6.920   2.140   1.636  0.0330 -0.2506 -0.2865
 4155ntf    fn423445   7.073   2.283   1.626 -0.6168  0.4085 -0.2902
 4156ntf    cn123446   0.186   0.555   3.479  0.1567  0.5488  0.0262
 4156ntf    sn223447   0.142   0.539   3.654  0.0350  0.4180 -0.0164
 4156ntf    nn323448   0.166   0.686   3.705  0.1228  0.4751 -0.2244
 4156ntf    sn223449   0.059   0.801   3.708 -0.2878  0.0949 -0.0604
 4156ntf    cn123450   0.138   0.919   3.822 -0.2161 -0.1247  0.1177
 4156ntf    fn423451   0.108   0.637   3.411  0.3092  0.4161 -0.3104
 4156ntf    fn423452   0.311   0.597   3.465  0.3000 -0.0045 -0.3971
 4156ntf    fn423453   0.187   0.437   3.419  0.0198  0.4927  0.1356
 4156ntf    on523454   0.002   0.504   3.652  0.0533  0.2947  0.5582
 4156ntf    on523455   0.229   0.432   3.698  0.0487  0.1213 -0.7537
 4156ntf    on523456  -0.054   0.774   3.793 -0.2502  0.3563  0.0752
 4156ntf    on523457   0.046   0.870   3.582  0.0196  0.0622 -0.1131
 4156ntf    fn423458   0.051   1.012   3.859 -0.2464 -0.0986 -0.0200
 4156ntf    fn423459   0.189   0.853   3.925 -0.0928  0.4286  0.4181
 4156ntf    fn423460   0.240   0.977   3.762  0.2679 -0.5480  0.5183
 4157ntf    cn123461   1.707   0.412   4.167 -0.4471 -0.0337 -0.0485
 4157ntf    sn223462   1.541   0.377   4.101 -0.3641  0.0792 -0.3176
 4157ntf    nn323463   1.515   0.232   4.156  0.3312  0.1578  0.2455
 4157ntf    sn223464   1.532   0.094   4.084  0.2306  0.3914 -0.2365
 4157ntf    cn123465   1.377   0.078   3.991  0.1574 -0.2865 -0.0097
 4157ntf    fn423466   1.791   0.315   4.135 -0.1636  0.1175  0.2337
 4157ntf    fn423467   1.757   0.526   4.124 -0.5264  0.0868  0.1783
 4157ntf    fn423468   1.695   0.415   4.299 -0.1832  0.0018 -0.0244
 4157ntf    on523469   1.458   0.476   4.166  0.0183  0.0958  0.1554
 4157ntf    on523470   1.558   0.393   3.959  0.2503  0.3556 -0.2184
 4157ntf    on523471   1.519  -0.017   4.176  0.3988  0.5348 -0.0408
 4157ntf    on523472   1.632   0.088   3.980  0.3774 -0.4888 -0.0519
 4157ntf    fn423473   1.268   0.041   4.055  0.1088 -0.0064  0.0723
 4157ntf    fn423474   1.345   0.194   3.934  0.3461 -0.3614 -0.2700
 4157ntf    fn423475   1.391  -0.015   3.898  0.4134 -0.1601 -0.0990
 4158ntf    cn123476   6.728   7.016   5.203  0.1133 -0.3228 -0.3317
 4158ntf    sn223477   6.676   7.112   5.057  0.0950  0.1556 -0.0123
 4158ntf    nn323478   6.610   7.234   5.133  0.4117  0.0000  0.5196
 4158ntf    sn223479   6.683   7.369   5.165  0.3374  0.0849  0.3358
 4158ntf    cn123480   6.658   7.457   5.008  0.0129  0.1718  0.4353
 4158ntf    fn423481   6.761   6.890   5.179  0.3524 -0.4519  0.6521
 4158ntf    fn423482   6.831   7.078   5.256 -0.5664 -0.0382  0.6824
 4158ntf    fn423483   6.636   7.005   5.297 -0.1064 -0.2539 -0.5353
 4158ntf    on523484   6.803   7.140   4.995  0.2271 -0.3018  0.0493
 4158ntf    on523485   6.577   7.028   4.994  0.2534 -0.0783  0.0504
 4158ntf    on523486   6.825   7.371   5.189  0.3528  0.4765  0.2208
 4158ntf    on523487   6.615   7.446   5.266  0.3765  0.2597  0.2294
 4158ntf    fn423488   6.718   7.575   5.011 -0.2915  0.3298  0.3298
 4158ntf    fn423489   6.710   7.400   4.901  0.2344  0.2685  0.4905
 4158ntf    fn423490   6.530   7.481   4.987  0.1868  0.3562 -0.4455
 4159ntf    cn123491   4.778   7.166   7.297  0.1153 -0.0110  0.0218
 4159ntf    sn223492   4.812   7.303   7.411 -0.0477  0.0373  0.0126
 4159ntf    nn323493   4.814   7.226   7.548  0.0399  0.2834  0.1503
 4159ntf    sn223494   4.939   7.171   7.625 -0.1608 -0.3354  0.0413
 4159ntf    cn123495   4.963   7.300   7.752 -0.4610 -0.0496 -0.1931
 4159ntf    fn423496   4.770   7.199   7.169 -0.2686  0.3718  0.1429
 4159ntf    fn423497   4.871   7.072   7.302 -0.5327 -0.6590  0.0680
 4159ntf    fn423498   4.660   7.113   7.323  0.2594  0.0891  0.8937
 4159ntf    on523499   4.944   7.342   7.367  0.1218  0.0773  0.5353
 4159ntf    on523500   4.702   7.391   7.384 -0.5052 -0.8744 -1.1492
 4159ntf    on523501   5.065   7.163   7.555 -0.2451 -0.1377 -0.1336
 4159ntf    on523502   4.902   7.058   7.707 -0.1831  0.0951  0.6375
 4159ntf    fn423503   5.084   7.293   7.803 -0.3793 -0.4784 -0.4436
 4159ntf    fn423504   4.958   7.423   7.704 -0.1991  0.1081  0.1874
 4159ntf    fn423505   4.872   7.296   7.849  0.1524  0.1687  0.3954
 4160ntf    cn123506   1.691   4.454   0.044 -0.3907  0.0042  0.3789
 4160ntf    sn223507   1.843   4.539   0.097  0.0751 -0.2779 -0.4830
 4160ntf    nn323508   1.780   4.679   0.132  0.5128 -0.2387  0.1522
 4160ntf    sn223509   1.851   4.819   0.131 -0.0728  0.0613  0.1129
 4160ntf    cn123510   1.753   4.886  -0.006  0.2723 -0.5296 -0.4280
 4160ntf    fn423511   1.649   4.505  -0.070  0.3813  0.5785  0.3485
 4160ntf    fn423512   1.719   4.326   0.024 -0.2591  0.1264 -0.2314
 4160ntf    fn423513   1.595   4.456   0.136 -0.1459  0.6628  0.6265
 4160ntf    on523514   1.872   4.459   0.214 -1.2032 -0.0430  0.0186
 4160ntf    on523515   1.922   4.528  -0.022  0.5137  0.2737 -0.2472
 4160ntf    on523516   1.989   4.815   0.087 -0.1459 -0.1062 -0.1016
 4160ntf    on523517   1.815   4.910   0.237 -0.1944  0.3554 -0.1798
 4160ntf    fn423518   1.773   5.015  -0.027  0.3198 -0.4452  0.1327
 4160ntf    fn423519   1.775   4.825  -0.122  0.2017 -0.4295 -0.4948
 4160ntf    fn423520   1.629   4.857   0.029  0.1307  0.5024 -0.0410
 4161ntf    cn123521   1.828   3.492   2.192  0.3409 -0.0808 -0.1682
 4161ntf    sn223522   1.778   3.325   2.140 -0.4533  0.0464  0.1791
 4161ntf    nn323523   1.918   3.276   2.090 -0.5990  0.0771 -0.2610
 4161ntf    sn223524   1.954   3.223   1.947  0.1946 -0.0606 -0.0149
 4161ntf    cn123525   2.009   3.380   1.875  0.0636 -0.0503 -0.0935
 4161ntf    fn423526   1.947   3.500   2.249  0.1597  0.3030  0.1557
 4161ntf    fn423527   1.833   3.568   2.084 -0.2522  0.2421  0.0283
 4161ntf    fn423528   1.744   3.540   2.283 -0.0540 -0.4490 -0.3339
 4161ntf    on523529   1.741   3.258   2.263  0.0282  0.2184  0.4219
 4161ntf    on523530   1.678   3.341   2.037 -0.5548 -0.5748  0.1755
 4161ntf    on523531   1.848   3.176   1.860  0.3770  0.3261 -0.4505
 4161ntf    on523532   2.070   3.138   1.961  0.1623 -0.2089 -0.6213
 4161ntf    fn423533   1.935   3.487   1.898  0.2042 -0.1670  0.9182
 4161ntf    fn423534   2.129   3.418   1.916 -0.0252  0.4167 -0.2624
 4161ntf    fn423535   2.022   3.370   1.743  0.2552 -0.1182 -0.0693
 4162ntf    cn123536   0.711   4.796   6.778 -0.4916  0.2662  0.4096
 4162ntf    sn223537   0.710   4.907   6.635 -0.5010  0.0001  0.2029
 4162ntf    nn323538   0.632   4.812   6.536  0.2314 -0.0691 -0.3165
 4162ntf    sn223539   0.477   4.813   6.511  0.1305  0.0038  0.2877
 4162ntf    cn123540   0.465   4.937   6.378  0.0113  0.3560  0.6234
 4162ntf    fn423541   0.594   4.755   6.826 -0.5185 -0.3112 -0.1379
 4162ntf    fn423542   0.792   4.693   6.759 -0.4628  0.3032  0.3350
 4162ntf    fn423543   0.758   4.866   6.880  0.4044  0.1861  0.0638
 4162ntf    on523544   0.635   5.021   6.683 -0.2640  0.3218 -0.1827
 4162ntf    on523545   0.849   4.915   6.600 -0.6586  0.4252 -0.3532
 4162ntf    on523546   0.386   4.856   6.614 -0.0494 -0.1150  0.1788
 4162ntf    on523547   0.432   4.696   6.440  0.1041  0.2367 -0.0869
 4162ntf    fn423548   0.528   4.917   6.263 -0.8351  0.3252  0.1583
 4162ntf    fn423549   0.338   4.952   6.342  0.2983 -0.0044 -0.5995
 4162ntf    fn423550   0.513   5.050   6.425  0.1354  0.2631  0.7218
 4163ntf    cn123551   3.302   5.815   5.266 -0.2642  0.2869 -0.1224
 4163ntf    sn223552   3.253   5.762   5.433  0.0433 -0.1774 -0.1783
 4163ntf    nn323553   3.373   5.813   5.520  0.0235 -0.1566 -0.1632
 4163ntf    sn223554   3.377   5.959   5.578 -0.0413 -0.2594  0.0972
 4163ntf    cn123555   3.550   5.944   5.632  0.1320 -0.1824 -0.4322
 4163ntf    fn423556   3.306   5.947   5.257  0.7537  0.2609 -0.1856
 4163ntf    fn423557   3.425   5.778   5.237 -0.3628  0.2656 -0.5138
 4163ntf    fn423558   3.225   5.764   5.172  0.0779  0.0624 -0.2821
 4163ntf    on523559   3.122   5.822   5.444  0.0793 -0.1289 -0.0109
 4163ntf    on523560   3.263   5.619   5.418  0.0096 -0.2722  0.6267
 4163ntf    on523561   3.307   5.983   5.702  0.1556  0.0328  0.1501
 4163ntf    on523562   3.378   6.063   5.479  0.3359 -0.7063 -0.3775
 4163ntf    fn423563   3.568   5.844   5.717  0.3027 -0.1480 -0.4295
 4163ntf    fn423564   3.631   5.934   5.528  0.5681 -0.1791 -0.0957
 4163ntf    fn423565   3.592   6.053   5.695  0.2101 -0.3480 -0.1948
 4164ntf    cn123566   3.037   3.271   0.719 -0.1913  0.2449 -0.2731
 4164ntf    sn223567   3.154   3.369   0.818  0.2750 -0.5231 -0.0552
 4164ntf    nn323568   3.203   3.461   0.701 -0.1366  0.0850  0.2455
 4164ntf    sn223569   3.197   3.617   0.685 -0.0325  0.0778  0.1362
 4164ntf    cn123570   3.349   3.657   0.776 -0.0889  0.0868  0.2268
 4164ntf    fn423571   2.953   3.349   0.653 -0.2960  0.5181  0.1788
 4164ntf    fn423572   3.104   3.194   0.635 -0.0767  0.7379 -0.6367
 4164ntf    fn423573   2.967   3.182   0.789 -0.5082  0.3867 -0.4066
 4164ntf    on523574   3.078   3.439   0.919 -0.0144  0.2488 -0.7887
 4164ntf    on523575   3.258   3.280   0.863  0.4823  0.1903  0.9130
 4164ntf    on523576   3.091   3.682   0.758  0.0513 -0.1377  0.4526
 4164ntf    on523577   3.227   3.662   0.551 -0.3370 -0.1614 -0.0124
 4164ntf    fn423578   3.465   3.626   0.719 -0.1559  0.5587 -0.1670
 4164ntf    fn423579   3.349   3.787   0.802 -0.1611  0.1605 -0.1429
 4164ntf    fn423580   3.353   3.602   0.896 -0.4567  0.3638  0.3662
 4165ntf    cn123581   4.789   2.690   1.960  0.2766 -0.2765  0.2936
 4165ntf    sn223582   4.768   2.583   1.814 -0.1215  0.4451 -0.1805
 4165ntf    nn323583   4.627   2.517   1.837  0.0798  0.2638  0.5814
 4165ntf    sn223584   4.505   2.491   1.741  0.5050 -0.4718  0.2383
 4165ntf    cn123585   4.377   2.598   1.813  0.5854 -0.3152  0.1493
 4165ntf    fn423586   4.682   2.764   1.981  0.1063 -0.2384 -0.6631
 4165ntf    fn423587   4.810   2.624   2.073 -0.0828 -0.4061  0.2852
 4165ntf    fn423588   4.887   2.776   1.940  0.1622 -0.1655  0.2087
 4165ntf    on523589   4.773   2.672   1.701 -0.6478  0.5442 -0.1315
 4165ntf    on523590   4.877   2.491   1.831 -0.1935  0.3689 -0.1302
 4165ntf    on523591   4.453   2.359   1.768  0.4524 -0.4687  0.1525
 4165ntf    on523592   4.506   2.538   1.605  0.4852 -0.5984  0.1942
 4165ntf    fn423593   4.349   2.554   1.935 -0.0386  0.1743  0.1865
 4165ntf    fn423594   4.402   2.727   1.828 -0.0272 -0.1800  0.0493
 4165ntf    fn423595   4.262   2.597   1.748  0.3368  0.2254  0.5745
 4166ntf    cn123596   4.410   3.249   1.835  0.0946  0.2570  0.4425
 4166ntf    sn223597   4.465   3.244   2.008  0.3372 -0.0741  0.3578
 4166ntf    nn323598   4.456   3.393   2.056  0.2110 -0.3153  1.0937
 4166ntf    sn223599   4.326   3.472   2.095  0.1369  0.1485 -0.0675
 4166ntf    cn123600   4.334   3.447   2.275 -0.2130 -0.1526 -0.0914
 4166ntf    fn423601   4.293   3.308   1.820  0.2411  0.3814 -0.2689
 4166ntf    fn423602   4.488   3.305   1.744  0.7478 -0.9852  0.2102
 4166ntf    fn423603   4.381   3.129   1.788 -0.7994  0.6875 -0.1431
 4166ntf    on523604   4.378   3.154   2.080  0.0776  0.2504  0.4534
 4166ntf    on523605   4.601   3.196   2.006  0.3272 -0.0737 -0.3847
 4166ntf    on523606   4.198   3.413   2.064 -0.0759  0.3104  0.4954
 4166ntf    on523607   4.344   3.615   2.092  0.3051  0.1191 -0.5340
 4166ntf    fn423608   4.446   3.490   2.331 -0.4393  0.3550 -0.0333
 4166ntf    fn423609   4.239   3.517   2.334 -0.4464  0.0644 -0.7099
 4166ntf    fn423610   4.311   3.319   2.300  0.1580 -0.2263 -0.1181
 4167ntf    cn123611   6.982   4.964   3.819  0.0600  0.1620 -0.3594
 4167ntf    sn223612   6.962   4.787   3.779 -0.0679  0.1195 -0.1097
 4167ntf    nn323613   6.960   4.800   3.622 -0.6741  0.2083 -0.0993
 4167ntf    sn223614   6.930   4.687   3.518  0.0336 -0.1660  0.0945
 4167ntf    cn123615   7.094   4.632   3.460 -0.1124 -0.4588 -0.0432
 4167ntf    fn423616   6.883   5.035   3.768 -0.2826 -0.0072  0.0620
 4167ntf    fn423617   6.992   4.983   3.949 -0.5745  0.1113 -0.2993
 4167ntf    fn423618   7.090   5.011   3.759  0.1066  0.3403 -0.1346
 4167ntf    on523619   7.083   4.726   3.828  0.4209  0.4187 -0.9237
 4167ntf    on523620   6.834   4.752   3.837  0.1028 -0.6517 -0.1887
 4167ntf    on523621   6.889   4.748   3.394 -0.1536 -0.0866  0.1965
 4167ntf    on523622   6.851   4.575   3.562 -0.2040 -0.0450 -0.0250
 4167ntf    fn423623   7.163   4.594   3.566  0.5616  0.7687 -0.0257
 4167ntf    fn423624   7.084   4.535   3.370  0.3779 -0.2752 -0.2983
 4167ntf    fn423625   7.168   4.723   3.400 -0.5907 -0.1435 -0.1578
 4168ntf    cn123626   3.645   5.717   4.635 -0.2822  0.0969  0.0200
 4168ntf    sn223627   3.503   5.825   4.674  0.0600  0.5568 -0.0023
 4168ntf    nn323628   3.378   5.732   4.655  0.0138  0.6470 -0.1440
 4168ntf    sn223629   3.229   5.771   4.626 -0.2203  0.0073  0.1666
 4168ntf    cn123630   3.205   5.695   4.463  0.0366 -0.1776  0.2152
 4168ntf    fn423631   3.671   5.633   4.733  0.3521  0.6375  0.3185
 4168ntf    fn423632   3.637   5.642   4.526  0.6137  0.6374 -0.4259
 4168ntf    fn423633   3.758   5.781   4.612 -0.3628  0.3354  0.2894
 4168ntf    on523634   3.520   5.854   4.814  0.1976  0.0290  0.0932
 4168ntf    on523635   3.520   5.934   4.581 -0.8635  0.0207 -0.8171
 4168ntf    on523636   3.203   5.908   4.590 -0.2213  0.0997  0.5126
 4168ntf    on523637   3.127   5.697   4.696 -0.9574 -0.0836 -0.9899
 4168ntf    fn423638   3.112   5.748   4.385 -0.0222 -0.6493 -0.0430
 4168ntf    fn423639   3.316   5.703   4.391 -0.2631  0.3568 -0.1951
 4168ntf    fn423640   3.175   5.566   4.466 -0.4901 -0.0546  0.2339
 4169ntf    cn123641   1.462   1.715   2.547 -0.4131 -0.0452 -0.1688
 4169ntf    sn223642   1.410   1.769   2.713  0.2029  0.0600 -0.0049
 4169ntf    nn323643   1.407   1.632   2.789 -0.0673  0.2773  0.3768
 4169ntf    sn223644   1.498   1.573   2.903 -0.0646 -0.1727  0.1441
 4169ntf    cn123645   1.619   1.483   2.802 -0.0215 -0.0183  0.0586
 4169ntf    fn423646   1.592   1.698   2.529 -0.1659  0.7076  0.7874
 4169ntf    fn423647   1.408   1.596   2.525 -0.2630 -0.0999 -0.2432
 4169ntf    fn423648   1.421   1.797   2.452 -0.4870 -0.3599 -0.4097
 4169ntf    on523649   1.513   1.867   2.738 -0.0073  0.1610  0.4739
 4169ntf    on523650   1.278   1.819   2.682  0.1472 -0.2437 -0.2580
 4169ntf    on523651   1.435   1.470   2.982  0.4272 -0.1253  0.6023
 4169ntf    on523652   1.581   1.668   2.974  0.4433 -0.7776  0.3690
 4169ntf    fn423653   1.698   1.407   2.877 -0.5581 -0.3801  0.2615
 4169ntf    fn423654   1.557   1.406   2.715  0.4909 -0.5280  0.1396
 4169ntf    fn423655   1.697   1.572   2.741  0.0171 -0.5213 -0.6340
 4170ntf    cn123656   3.463   0.903   2.055  0.3527  0.3387  0.6378
 4170ntf    sn223657   3.334   0.939   2.178 -0.4013 -0.0295 -0.0330
 4170ntf    nn323658   3.378   1.087   2.206  0.6297 -0.3236 -0.0728
 4170ntf    sn223659   3.318   1.216   2.140  0.6295 -0.0379  0.4756
 4170ntf    cn123660   3.216   1.267   2.281  0.6297  0.2137  0.3848
 4170ntf    fn423661   3.441   0.973   1.945 -0.0870 -0.0148  0.4930
 4170ntf    fn423662   3.585   0.918   2.101  0.3862  0.4473  0.5138
 4170ntf    fn423663   3.459   0.778   2.011  0.0045  0.6447 -0.2180
 4170ntf    on523664   3.209   0.915   2.110 -0.1426 -1.1386 -0.1313
 4170ntf    on523665   3.366   0.849   2.286 -0.3089  0.1268  0.0686
 4170ntf    on523666   3.230   1.212   2.026 -0.3492  0.6478  1.1919
 4170ntf    on523667   3.413   1.324   2.133 -0.1699  0.6393 -0.2178
 4170ntf    fn423668   3.288   1.344   2.361  0.3266  0.3664  0.5112
 4170ntf    fn423669   3.122   1.349   2.238  0.3153 -0.2885  0.1094
 4170ntf    fn423670   3.159   1.171   2.352 -0.1172  0.2181 -0.1958
 4171ntf    cn123671   7.079   4.953   4.288  0.2077 -0.0716  0.3238
 4171ntf    sn223672   6.987   5.109   4.276 -0.1975 -0.3168  0.1844
 4171ntf    nn323673   6.864   5.059   4.192 -0.3680 -0.0247  0.2578
 4171ntf    sn223674   6.730   5.137   4.166 -0.2351  0.0158 -0.3267
 4171ntf    cn123675   6.683   5.079   4.000  0.4750 -0.3408 -0.4106
 4171ntf    fn423676   7.013   4.869   4.367 -0.0953  0.2786  0.4494
 4171ntf    fn423677   7.107   4.900   4.170  0.4772  0.7343  0.0225
 4171ntf    fn423678   7.199   4.964   4.341  0.2726 -0.4094  0.2509
 4171ntf    on523679   6.962   5.158   4.409  0.5897  0.9619 -0.1162
 4171ntf    on523680   7.081   5.188   4.200 -0.3016 -0.1157  0.2624
 4171ntf    on523681   6.750   5.280   4.162  0.0211  0.0114  0.5398
 4171ntf    on523682   6.625   5.091   4.253 -0.0173 -0.4270 -0.2920
 4171ntf    fn423683   6.558   5.100   3.962  0.2270  0.1772  0.6388
 4171ntf    fn423684   6.758   5.139   3.910  0.0507  0.1085 -0.4694
 4171ntf    fn423685   6.697   4.948   3.987  0.2234 -0.3673 -0.4405
 4172ntf    cn123686   4.324   4.883   3.073  0.2697 -0.4736  0.2785
 4172ntf    sn223687   4.496   4.829   3.100  0.5540  0.3197  0.0725
 4172ntf    nn323688   4.486   4.726   2.982 -0.4646  0.1417  0.3011
 4172ntf    sn223689   4.495   4.570   3.001  0.1330  0.1517  0.1172
 4172ntf    cn123690   4.440   4.522   2.835  0.0914 -0.4247  0.2980
 4172ntf    fn423691   4.301   4.945   2.959  0.2850  0.7066  0.9079
 4172ntf    fn423692   4.256   4.770   3.064 -0.2586 -0.1285 -0.1248
 4172ntf    fn423693   4.262   4.957   3.163  0.1392 -0.1172 -0.1010
 4172ntf    on523694   4.565   4.953   3.072  0.0470  0.5607 -0.1236
 4172ntf    on523695   4.486   4.785   3.237  0.6351  0.2058  0.0416
 4172ntf    on523696   4.401   4.506   3.090  0.2766 -0.0427  0.1280
 4172ntf    on523697   4.627   4.513   2.999 -0.0454 -0.2595  0.0266
 4172ntf    fn423698   4.329   4.580   2.792  0.5669 -0.0848 -0.4756
 4172ntf    fn423699   4.536   4.556   2.751  0.0020 -0.2206  0.2793
 4172ntf    fn423700   4.423   4.391   2.822  0.1858 -0.4392  0.3242
 4173ntf    cn123701   6.053   6.460   4.304  0.2629  0.0025 -0.1942
 4173ntf    sn223702   6.123   6.606   4.387  0.1239 -0.2039  0.2931
 4173ntf    nn323703   6.173   6.538   4.519 -0.3129 -0.7775  0.1670
 4173ntf    sn223704   6.322   6.538   4.568 -0.2874  0.0146  0.1051
 4173ntf    cn123705   6.317   6.427   4.713 -0.0545 -0.1466 -0.0089
 4173ntf    fn423706   6.142   6.389   4.237  0.0720 -0.2359 -0.1944
 4173ntf    fn423707   5.988   6.370   4.376  0.1479  0.4162  0.2291
 4173ntf    fn423708   5.972   6.500   4.207  0.3223  0.1916 -0.1664
 4173ntf    on523709   6.223   6.637   4.288  0.0836 -0.8572  0.0481
 4173ntf    on523710   6.008   6.691   4.409 -0.1072 -0.4363 -0.0043
 4173ntf    on523711   6.374   6.658   4.628 -0.7417 -0.1985  0.9428
 4173ntf    on523712   6.402   6.457   4.480  0.3908  0.1520  0.5873
 4173ntf    fn423713   6.277   6.302   4.695  0.1782 -0.1845 -0.2743
 4173ntf    fn423714   6.435   6.416   4.771 -0.2734 -0.3568  0.3947
 4173ntf    fn423715   6.230   6.474   4.801 -0.1994  0.2864 -0.3792
 4174ntf    cn123716   7.064   5.864   3.602 -0.2488 -0.0323  0.1947
 4174ntf    sn223717   7.146   5.792   3.747  0.0733 -0.2874 -0.1137
 4174ntf    nn323718   7.292   5.790   3.690  0.2835 -0.1543  0.4071
 4174ntf    sn223719   7.420   5.868   3.738  0.3867 -0.1543  0.1388
 4174ntf    cn123720   7.363   6.028   3.673 -0.1879 -0.5804 -0.4200
 4174ntf    fn423721   6.945   5.915   3.632 -0.2765 -0.1694  0.3183
 4174ntf    fn423722   7.127   5.969   3.551 -0.1907  0.0206  0.3739
 4174ntf    fn423723   7.051   5.775   3.505 -0.1387  0.2919 -0.1235
 4174ntf    on523724   7.116   5.882   3.856  0.3889  0.1012 -0.3426
 4174ntf    on523725   7.092   5.659   3.761  0.2193 -0.3700 -0.3329
 4174ntf    on523726   7.537   5.834   3.661  0.0764 -0.1441 -0.3418
 4174ntf    on523727   7.440   5.892   3.879  0.5055 -0.0959  0.1123
 4174ntf    fn423728   7.249   6.082   3.715 -0.0216 -0.0123 -0.6868
 4174ntf    fn423729   7.464   6.110   3.699 -0.9169  0.2729 -0.2358
 4174ntf    fn423730   7.361   6.029   3.541  0.7029 -0.5561 -0.4412
 4175ntf    cn123731   2.649   2.696   4.708 -0.1649 -0.1191  0.0987
 4175ntf    sn223732   2.815   2.668   4.776 -0.0203  0.2393 -0.1047
 4175ntf    nn323733   2.790   2.709   4.925  0.2059  0.1356 -0.0376
 4175ntf    sn223734   2.783   2.624   5.057 -0.0170  0.3575  0.0934
 4175ntf    cn123735   2.942   2.652   5.141  0.0028  0.0267  0.1656
 4175ntf    fn423736   2.556   2.608   4.740 -0.3199 -0.0249 -0.0864
 4175ntf    fn423737   2.598   2.813   4.744 -0.2475 -0.1643  0.1290
 4175ntf    fn423738   2.657   2.706   4.576  0.5364 -0.1090  0.1378
 4175ntf    on523739   2.841   2.528   4.756 -0.0016  0.2323 -0.0275
 4175ntf    on523740   2.887   2.759   4.689  0.4704 -0.0127  0.0349
 4175ntf    on523741   2.778   2.481   5.042  0.8434  0.3835 -0.5158
 4175ntf    on523742   2.687   2.690   5.143  0.1235  0.6382  0.0389
 4175ntf    fn423743   2.952   2.781   5.169 -0.4360  0.0787  0.0913
 4175ntf    fn423744   2.961   2.589   5.256 -0.1157 -0.1520  0.0874
 4175ntf    fn423745   3.043   2.615   5.064  0.1268  0.3598  0.1679
 4176ntf    cn123746   2.920   5.521   6.254  0.1501  0.0970 -0.1567
 4176ntf    sn223747   2.985   5.690   6.232 -0.1402  0.2173 -0.0975
 4176ntf    nn323748   2.867   5.762   6.159 -0.6377 -0.7245 -0.2439
 4176ntf    sn223749   2.856   5.795   6.006  0.0329 -0.1229 -0.1691
 4176ntf    cn123750   2.958   5.945   5.996 -0.1688  0.0456  0.2447
 4176ntf    fn423751   2.889   5.464   6.138  0.1183 -0.0089 -0.0964
 4176ntf    fn423752   3.011   5.446   6.313 -0.0934 -0.1291 -0.0651
 4176ntf    fn423753   2.816   5.518   6.335  0.2789 -0.2108 -0.0012
 4176ntf    on523754   2.977   5.747   6.365 -0.3080 -0.4811  0.1988
 4176ntf    on523755   3.116   5.688   6.171  0.1423  0.3915  0.4906
 4176ntf    on523756   2.722   5.844   5.984  0.0490 -0.2273 -0.5041
 4176ntf    on523757   2.912   5.695   5.919  0.1978  0.0935 -0.3108
 4176ntf    fn423758   2.952   6.003   5.877  0.0680 -0.3843  0.0190
 4176ntf    fn423759   2.934   6.044   6.080  0.3541  0.3484  0.0422
 4176ntf    fn423760   3.084   5.908   6.012 -0.2600 -0.3224  0.1280
 4177ntf    cn123761   5.440   2.815   0.443 -0.0782  0.2725  0.4082
 4177ntf    sn223762   5.460   2.978   0.364  0.1004 -0.0113 -0.1399
 4177ntf    nn323763   5.377   3.065   0.465 -0.5473 -0.3120 -0.4064
 4177ntf    sn223764   5.418   3.190   0.551 -0.3173 -0.6500 -0.0243
 4177ntf    cn123765   5.267   3.289   0.538 -0.0042 -0.1474  0.1467
 4177ntf    fn423766   5.502   2.716   0.380  0.2032  0.1630  0.8550
 4177ntf    fn423767   5.504   2.808   0.559  0.3378 -0.2695  0.1532
 4177ntf    fn423768   5.315   2.779   0.466 -0.1794  0.4348  0.1217
 4177ntf    on523769   5.602   3.004   0.362  0.1845 -0.4888 -0.6781
 4177ntf    on523770   5.390   2.959   0.240  0.1088  0.1494 -0.1683
 4177ntf    on523771   5.520   3.277   0.497 -0.7333 -0.1590 -0.0191
 4177ntf    on523772   5.428   3.162   0.692  0.3523  0.5842  0.1861
 4177ntf    fn423773   5.172   3.233   0.610 -0.1810 -0.7874 -0.5671
 4177ntf    fn423774   5.287   3.415   0.574 -0.4404 -0.0804  0.1576
 4177ntf    fn423775   5.228   3.295   0.411 -0.5088 -0.3208  0.2908
 4178ntf    cn123776   6.244   0.354   1.592 -0.1325  0.0227  0.2122
 4178ntf    sn223777   6.232   0.344   1.774 -0.2748 -0.0155  0.2014
 4178ntf    nn323778   6.248   0.191   1.804 -0.1787 -0.1060 -0.2921
 4178ntf    sn223779   6.146   0.089   1.868  0.1239 -0.4595 -0.3698
 4178ntf    cn123780   6.161  -0.048   1.750  0.2258 -0.2638 -0.5848
 4178ntf    fn423781   6.144   0.292   1.532  0.2816 -0.5278  0.0824
 4178ntf    fn423782   6.226   0.477   1.549 -0.3385 -0.2387 -0.4528
 4178ntf    fn423783   6.356   0.306   1.542 -0.0437 -0.0498  0.4774
 4178ntf    on523784   6.347   0.425   1.806 -0.1201  0.0159 -0.4064
 4178ntf    on523785   6.104   0.403   1.803 -0.6612 -0.6395 -0.2060
 4178ntf    on523786   6.005   0.117   1.856  0.0965 -0.8369 -0.9286
 4178ntf    on523787   6.198   0.038   1.993  0.4605  0.0453 -0.2963
 4178ntf    fn423788   6.076  -0.148   1.765 -0.2416  0.2162  0.0536
 4178ntf    fn423789   6.129   0.007   1.634 -0.7096  0.6404  0.0850
 4178ntf    fn423790   6.286  -0.092   1.743  0.2486 -0.3320  0.1543
 4179ntf    cn123791   4.951   3.691   3.955 -0.3152 -0.2007 -0.4595
 4179ntf    sn223792   5.116   3.763   3.928 -0.2428 -0.0577  0.3280
 4179ntf    nn323793   5.100   3.905   3.993 -0.3487  0.0620  0.0459
 4179ntf    sn223794   5.142   3.976   4.127 -0.1976  0.2241 -0.0868
 4179ntf    cn123795   4.982   4.041   4.182 -0.2724 -0.1224  0.1068
 4179ntf    fn423796   4.860   3.781   3.922 -0.0857 -0.0166 -0.5932
 4179ntf    fn423797   4.931   3.586   3.878  0.1317 -0.0197 -0.8284
 4179ntf    fn423798   4.933   3.659   4.082 -0.2387  0.4605 -0.2754
 4179ntf    on523799   5.211   3.674   3.988  0.1854  0.2539  0.1168
 4179ntf    on523800   5.121   3.782   3.785 -0.5285 -0.1906  0.3003
 4179ntf    on523801   5.224   4.092   4.099 -0.2586  0.4564  0.6644
 4179ntf    on523802   5.188   3.891   4.234 -0.2515  0.4768  0.1381
 4179ntf    fn423803   4.903   4.097   4.092 -0.5382 -0.5195  0.0889
 4179ntf    fn423804   4.909   3.943   4.235 -0.4770 -0.1617 -0.2450
 4179ntf    fn423805   5.004   4.134   4.273 -0.7681  0.1501 -0.0490
 4180ntf    cn123806   3.370   2.545   7.152 -0.1244  0.3068 -0.2546
 4180ntf    sn223807   3.539   2.538   7.085  0.0489  0.4281  0.1649
 4180ntf    nn323808   3.632   2.574   7.207  0.5053 -0.1168 -0.0140
 4180ntf    sn223809   3.665   2.468   7.318 -0.0312 -0.1246  0.1439
 4180ntf    cn123810   3.828   2.408   7.263 -0.2704 -0.2617 -0.4158
 4180ntf    fn423811   3.318   2.666   7.138 -0.1201  0.3471  0.0549
 4180ntf    fn423812   3.286   2.464   7.092  0.1292 -0.2143  0.0844
 4180ntf    fn423813   3.368   2.511   7.280  0.9817 -0.0625 -0.3215
 4180ntf    on523814   3.552   2.402   7.037  0.8539  0.1471  1.1329
 4180ntf    on523815   3.542   2.642   6.986  0.1585  0.1986 -0.0746
 4180ntf    on523816   3.588   2.347   7.328  0.1774 -0.2779 -0.1160
 4180ntf    on523817   3.703   2.533   7.442  0.0995 -0.0458  0.0637
 4180ntf    fn423818   3.815   2.356   7.142  0.2504 -0.2280 -0.4855
 4180ntf    fn423819   3.929   2.493   7.251 -0.2283 -0.3279 -0.5328
 4180ntf    fn423820   3.873   2.309   7.337 -0.4243 -0.1424 -0.1597
 4181ntf    cn123821   2.799   1.041   6.474  0.1476 -0.6214 -0.5266
 4181ntf    sn223822   2.671   1.129   6.380  0.1822  0.0260  0.0284
 4181ntf    nn323823   2.697   1.277   6.424  0.1398  0.1598 -0.3943
 4181ntf    sn223824   2.628   1.354   6.543 -0.0551 -0.2760 -0.2246
 4181ntf    cn123825   2.735   1.493   6.589 -0.0463 -0.6383  0.8676
 4181ntf    fn423826   2.802   0.915   6.434  0.1762 -0.8571  0.2105
 4181ntf    fn423827   2.917   1.100   6.462  0.0271 -0.1849  0.3322
 4181ntf    fn423828   2.760   1.036   6.600  0.1770  0.2720 -0.4760
 4181ntf    on523829   2.717   1.111   6.245 -0.3407  0.0330 -0.1535
 4181ntf    on523830   2.555   1.058   6.430  0.5011 -0.5954 -0.1105
 4181ntf    on523831   2.622   1.272   6.661 -0.0116  0.7211  0.4854
 4181ntf    on523832   2.507   1.417   6.496 -0.2616 -0.2594  0.3295
 4181ntf    fn423833   2.698   1.543   6.706  0.3683 -0.0841  0.7670
 4181ntf    fn423834   2.866   1.471   6.600  0.1766 -0.1822 -0.6601
 4181ntf    fn423835   2.728   1.591   6.501 -0.4511 -0.9240  0.5804
 4182ntf    cn123836   4.892   7.114   4.340  0.4750  0.3877  0.1618
 4182ntf    sn223837   4.820   7.087   4.504  0.0505  0.0830 -0.0716
 4182ntf    nn323838   4.733   7.218   4.512  0.1431  0.1310  0.1818
 4182ntf    sn223839   4.582   7.235   4.553  0.1151  0.3094  0.0095
 4182ntf    cn123840   4.569   7.415   4.534  0.0960  0.2856 -0.2043
 4182ntf    fn423841   4.810   7.135   4.238  0.2477 -0.4125  0.1749
 4182ntf    fn423842   4.974   7.218   4.339  0.2635  0.5526 -0.2567
 4182ntf    fn423843   4.974   7.016   4.304 -0.0010  0.1957 -0.4030
 4182ntf    on523844   4.758   6.958   4.489  0.2526 -0.0543  0.2539
 4182ntf    on523845   4.925   7.097   4.602  0.6606 -0.2986 -0.6844
 4182ntf    on523846   4.561   7.213   4.694  0.2236  0.4911  0.0536
 4182ntf    on523847   4.478   7.184   4.467 -0.0385  0.2165  0.2471
 4182ntf    fn423848   4.447   7.463   4.550  0.0175 -0.0145  0.1106
 4182ntf    fn423849   4.638   7.486   4.622  0.7075  0.1024 -0.5301
 4182ntf    fn423850   4.608   7.447   4.412  0.3981 -0.6564 -0.3650
 4183ntf    cn123851   4.808   5.762   1.571  0.1699 -0.3351 -0.1155
 4183ntf    sn223852   4.868   5.864   1.709 -0.4929  0.1677 -0.1977
 4183ntf    nn323853   4.841   6.006   1.647 -0.5340 -0.1436 -0.8995
 4183ntf    sn223854   4.820   6.137   1.731 -0.1212 -0.5108 -0.2173
 4183ntf    cn123855   4.970   6.142   1.833 -0.1895 -0.4855 -0.1185
 4183ntf    fn423856   4.796   5.634   1.603 -0.1845 -0.0236  1.0479
 4183ntf    fn423857   4.697   5.809   1.516  0.6699  0.7455 -0.2420
 4183ntf    fn423858   4.894   5.771   1.471  0.5444 -0.2503  0.2121
 4183ntf    on523859   4.784   5.822   1.819  0.3459 -0.0752  0.3558
 4183ntf    on523860   5.009   5.836   1.719 -0.5580 -0.1180 -0.0680
 4183ntf    on523861   4.706   6.151   1.818 -0.4437 -0.0151 -0.7110
 4183ntf    on523862   4.852   6.251   1.649 -0.2340  0.0823  0.5486
 4183ntf    fn423863   5.084   6.129   1.767  0.0353  0.0877  0.1458
 4183ntf    fn423864   4.994   6.257   1.895 -0.6611 -0.4260 -0.0460
 4183ntf    fn423865   4.972   6.058   1.935  0.4590  0.2385  0.4876
 4184ntf    cn123866   1.013   0.244   5.919 -0.0454  0.3739 -0.0429
 4184ntf    sn223867   0.978   0.121   5.790 -0.4752  0.4953 -0.0441
 4184ntf    nn323868   1.063   0.000   5.843 -0.7207  0.7953  1.0408
 4184ntf    sn223869   1.008  -0.123   5.924 -0.0109 -0.2511 -0.0414
 4184ntf    cn123870   1.144  -0.242   5.908  0.0539 -0.1266 -0.4371
 4184ntf    fn423871   1.139   0.283   5.911  0.2698 -0.7139 -0.5596
 4184ntf    fn423872   0.946   0.357   5.908 -0.0724  0.2985 -0.6892
 4184ntf    fn423873   0.984   0.187   6.035  0.1181 -0.1419 -0.2505
 4184ntf    on523874   0.835   0.104   5.786 -0.2868 -1.1807 -0.3114
 4184ntf    on523875   1.042   0.193   5.682  0.7736  0.0483  0.3704
 4184ntf    on523876   0.903  -0.197   5.859  0.0012 -0.0321 -0.3132
 4184ntf    on523877   0.993  -0.098   6.065  0.5673 -0.7549  0.1122
 4184ntf    fn423878   1.146  -0.300   5.789 -0.4160 -0.4115 -0.3101
 4184ntf    fn423879   1.264  -0.188   5.926  0.1575 -0.4722 -0.0643
 4184ntf    fn423880   1.145  -0.339   5.998 -0.0863 -0.1053 -0.4130
 4185ntf    cn123881   2.506   3.547   2.811 -0.1207 -0.4560 -0.2983
 4185ntf    sn223882   2.576   3.696   2.888 -0.2647 -0.5360 -0.0107
 4185ntf    nn323883   2.653   3.639   3.013  0.0158 -0.4753 -0.1552
 4185ntf    sn223884   2.805   3.600   3.015  0.1480  0.0472  0.1315
 4185ntf    cn123885   2.788   3.432   3.081 -0.2969  0.1574  0.2983
 4185ntf    fn423886   2.598   3.474   2.749  0.0441 -0.1747 -0.3873
 4185ntf    fn423887   2.451   3.461   2.896  0.5071 -0.3083  0.2703
 4185ntf    fn423888   2.414   3.577   2.722 -0.1208 -0.6990 -0.3809
 4185ntf    on523889   2.663   3.762   2.794 -0.6636  0.4263  0.2837
 4185ntf    on523890   2.457   3.771   2.917 -0.1265 -0.6147  0.7936
 4185ntf    on523891   2.879   3.676   3.113  0.4667  0.6903 -0.6014
 4185ntf    on523892   2.863   3.570   2.887 -0.4457  0.2560 -0.1860
 4185ntf    fn423893   2.719   3.355   2.999  0.0245  0.0948  0.0863
 4185ntf    fn423894   2.899   3.361   3.088 -0.3936 -0.0515 -0.2948
 4185ntf    fn423895   2.730   3.429   3.200 -0.0557  0.2178  0.4178
 4186ntf    cn123896   3.890   6.313   5.748  0.1887  0.3398  0.0176
 4186ntf    sn223897   3.760   6.439   5.769 -0.1790 -0.0345  0.0024
 4186ntf    nn323898   3.831   6.554   5.849 -0.2055 -0.1963  0.2582
 4186ntf    sn223899   3.827   6.586   6.003  0.3888 -0.1396  0.2627
 4186ntf    cn123900   3.999   6.548   6.047  0.4408  0.0659  0.2379
 4186ntf    fn423901   3.951   6.270   5.857  0.5184  0.2221 -0.2107
 4186ntf    fn423902   3.838   6.202   5.698  0.0949  0.1890  0.4411
 4186ntf    fn423903   3.992   6.354   5.675  0.2824  0.0962  0.0129
 4186ntf    on523904   3.720   6.485   5.638 -0.3335  0.4342  0.2113
 4186ntf    on523905   3.654   6.367   5.834 -0.5474  0.3969 -0.1174
 4186ntf    on523906   3.755   6.486   6.079  0.5849 -0.1532  0.4320
 4186ntf    on523907   3.808   6.726   6.032  0.3600 -0.2415  0.7332
 4186ntf    fn423908   4.050   6.439   5.991  0.2749  0.1944 -0.1704
 4186ntf    fn423909   4.080   6.646   6.009 -0.4872  0.6897 -0.1822
 4186ntf    fn423910   4.019   6.527   6.176 -0.0151  0.2293  0.3378
 4187ntf    cn123911   5.006   6.284   4.070 -0.1092  0.4434  0.0414
 4187ntf    sn223912   5.185   6.275   4.041 -0.0959  0.1131  0.2116
 4187ntf    nn323913   5.216   6.136   4.108 -0.6573 -0.2562 -0.2854
 4187ntf    sn223914   5.221   5.993   4.043  0.0123 -0.3535 -0.0289
 4187ntf    cn123915   5.253   5.903   4.197  0.4707 -0.0620  0.0476
 4187ntf    fn423916   4.941   6.194   3.999 -0.2789  0.3446  0.3202
 4187ntf    fn423917   4.987   6.252   4.197 -0.3415 -0.4514 -0.2098
 4187ntf    fn423918   4.961   6.405   4.043 -0.5304  0.4784  0.8738
 4187ntf    on523919   5.189   6.289   3.897 -0.1407  0.1709  0.2156
 4187ntf    on523920   5.239   6.382   4.121 -0.6202  0.0672  0.6230
 4187ntf    on523921   5.343   5.967   3.972  0.5752  0.3495  0.6573
 4187ntf    on523922   5.091   5.950   3.996 -0.3194  0.4309  0.1423
 4187ntf    fn423923   5.214   5.776   4.202 -0.1720  0.1391  0.1804
 4187ntf    fn423924   5.382   5.907   4.229  0.6955  0.0172 -0.8598
 4187ntf    fn423925   5.196   5.964   4.299  0.5587 -0.3868  0.2956
 4188ntf    cn123926   3.545   4.732   4.450 -0.1299 -0.2819  0.2440
 4188ntf    sn223927   3.679   4.714   4.572  0.1285 -0.4244 -0.0578
 4188ntf    nn323928   3.597   4.709   4.706  0.5529 -0.4342  0.2043
 4188ntf    sn223929   3.555   4.589   4.797  0.0926 -0.2101  0.2912
 4188ntf    cn123930   3.374   4.573   4.783  0.1515 -0.3411 -0.3194
 4188ntf    fn423931   3.472   4.622   4.449  0.2144 -0.5119  0.2419
 4188ntf    fn423932   3.466   4.837   4.466 -0.1618 -0.2613 -0.0331
 4188ntf    fn423933   3.587   4.747   4.325  0.2824 -0.4378  0.3615
 4188ntf    on523934   3.746   4.596   4.526  0.7475 -0.0066 -0.2365
 4188ntf    on523935   3.736   4.844   4.547 -0.5619 -0.1864 -0.4428
 4188ntf    on523936   3.569   4.631   4.935  0.9415  0.2240  0.0800
 4188ntf    on523937   3.597   4.456   4.759  0.1773 -0.1370  0.1283
 4188ntf    fn423938   3.354   4.541   4.656  0.1953  0.2180 -0.4717
 4188ntf    fn423939   3.320   4.486   4.866  0.3589  0.0492  0.2254
 4188ntf    fn423940   3.307   4.687   4.790  0.1776 -0.3568  0.1906
 4189ntf    cn123941   2.819   6.718   1.853 -0.2679 -0.0949 -0.0051
 4189ntf    sn223942   2.742   6.797   1.996  0.0197  0.1540  0.0140
 4189ntf    nn323943   2.608   6.834   1.923  0.0147  0.0976 -0.0044
 4189ntf    sn223944   2.557   6.975   1.876 -0.2586 -0.1312 -0.4076
 4189ntf    cn123945   2.381   6.931   1.863 -0.2758 -0.1716 -0.0510
 4189ntf    fn423946   2.950   6.708   1.874 -0.2248  0.0175 -0.2139
 4189ntf    fn423947   2.774   6.595   1.833  0.3860 -0.3752  0.2240
 4189ntf    fn423948   2.794   6.775   1.737 -0.3909 -0.1359  0.0014
 4189ntf    on523949   2.721   6.689   2.090 -0.8330  0.0003 -0.3444
 4189ntf    on523950   2.826   6.906   2.038 -0.5227  0.2999  0.7654
 4189ntf    on523951   2.598   7.005   1.741  0.4933  0.2993 -0.0928
 4189ntf    on523952   2.551   7.081   1.975 -0.2644 -0.2132 -0.3196
 4189ntf    fn423953   2.369   6.817   1.799  0.1839 -0.0973 -0.2689
 4189ntf    fn423954   2.328   6.910   1.983 -0.7787  0.0447 -0.2314
 4189ntf    fn423955   2.301   7.012   1.795 -0.0028 -0.0581 -0.2407
 4190ntf    cn123956   0.728   3.298   5.476  0.1900  0.1818 -0.0172
 4190ntf    sn223957   0.844   3.222   5.594 -0.0296 -0.3028 -0.1112
 4190ntf    nn323958   0.806   3.310   5.718 -0.0021  0.0346 -0.3415
 4190ntf    sn223959   0.901   3.383   5.820  0.3230  0.1713 -0.7366
 4190ntf    cn123960   0.889   3.552   5.755  0.2213  0.3912 -0.1602
 4190ntf    fn423961   0.611   3.312   5.535  0.5411  0.5030  0.6171
 4190ntf    fn423962   0.767   3.419   5.440 -0.3570  0.3418 -0.0723
 4190ntf    fn423963   0.717   3.222   5.368  0.2958  0.5994 -0.3233
 4190ntf    on523964   0.785   3.093   5.620 -0.2289 -0.2059 -0.0854
 4190ntf    on523965   0.977   3.230   5.539  0.1403  0.9774  0.4584
 4190ntf    on523966   1.040   3.344   5.809  0.2608 -0.3627  0.2410
 4190ntf    on523967   0.842   3.389   5.952  1.3710  0.2785 -0.2615
 4190ntf    fn423968   0.949   3.646   5.824 -0.4099  0.7269 -0.0581
 4190ntf    fn423969   0.945   3.563   5.635  0.1743 -0.0519 -0.2266
 4190ntf    fn423970   0.766   3.600   5.739  0.0125 -0.1116 -0.0941
 4191ntf    cn123971   1.907   5.822   1.660  0.4069  0.0027  0.3135
 4191ntf    sn223972   2.003   5.962   1.727  0.2941  0.2904 -0.1184
 4191ntf    nn323973   1.935   5.992   1.865 -0.0433  0.6117 -0.3541
 4191ntf    sn223974   1.834   6.108   1.897 -0.6756 -0.0055 -0.0880
 4191ntf    cn123975   1.792   6.060   2.068  0.3818 -0.4267  0.0640
 4191ntf    fn423976   1.924   5.704   1.717  0.4095 -0.3183 -0.3411
 4191ntf    fn423977   1.777   5.847   1.656  0.4236  0.0841  0.2597
 4191ntf    fn423978   1.946   5.805   1.535  0.1210  0.1317  0.2058
 4191ntf    on523979   2.135   5.905   1.737  0.3733  0.4508 -0.2506
 4191ntf    on523980   1.993   6.069   1.632 -0.0702  0.9651  0.6686
 4191ntf    on523981   1.709   6.096   1.827 -0.4414  0.0669 -0.5208
 4191ntf    on523982   1.901   6.236   1.902  0.5204 -0.6357  0.5944
 4191ntf    fn423983   1.740   5.940   2.088 -0.3332 -0.1470 -0.0829
 4191ntf    fn423984   1.901   6.052   2.142  0.0784 -0.2373  0.5325
 4191ntf    fn423985   1.708   6.150   2.116  0.1900  0.1273 -1.2525
 4192ntf    cn123986   1.689   3.113   7.288  0.0961  0.0429  0.0841
 4192ntf    sn223987   1.702   3.285   7.229 -0.0168  0.0328  0.0291
 4192ntf    nn323988   1.560   3.308   7.166  0.3078  0.6893 -0.4744
 4192ntf    sn223989   1.445   3.409   7.203 -0.1339  0.0659 -0.1333
 4192ntf    cn123990   1.343   3.307   7.314  0.6359 -0.0722  0.4575
 4192ntf    fn423991   1.788   3.081   7.370  0.1713  0.5050  0.1774
 4192ntf    fn423992   1.581   3.095   7.361  0.3785  0.0762  0.5098
 4192ntf    fn423993   1.691   3.021   7.193  0.3478  0.3874 -0.2546
 4192ntf    on523994   1.740   3.362   7.345  0.3749 -0.1786  0.0441
 4192ntf    on523995   1.800   3.273   7.124 -0.4537  0.9121 -0.4833
 4192ntf    on523996   1.367   3.438   7.086 -0.1119  0.1931 -0.1163
 4192ntf    on523997   1.485   3.531   7.269 -0.4437  0.1545 -0.1102
 4192ntf    fn423998   1.223   3.277   7.268  0.4267  0.2236  0.7982
 4192ntf    fn423999   1.384   3.188   7.354 -0.1140 -0.3552  0.3899
 4192ntf    fn424000   1.326   3.368   7.430 -0.5929 -0.4028  0.4663
 4193ntf    cn124001   5.916   5.605   4.441  0.0753  0.0865  0.3030
 4193ntf    sn224002   5.824   5.688   4.574 -0.3224 -0.3545  0.3061
 4193ntf    nn324003   5.933   5.793   4.616 -0.4696 -0.1014  0.0566
 4193ntf    sn224004   5.964   5.939   4.567  0.0772 -0.1374  0.2902
 4193ntf    cn124005   5.812   6.035   4.596  0.2242  0.1905 -0.0175
 4193ntf    fn424006   6.046   5.616   4.461  0.2413 -0.1903 -0.5848
 4193ntf    fn424007   5.886   5.477   4.424 -0.0712  0.1504  0.0743
 4193ntf    fn424008   5.909   5.672   4.327 -0.0354 -0.3769  0.0324
 4193ntf    on524009   5.703   5.741   4.516  0.0330  0.0401 -0.0740
 4193ntf    on524010   5.810   5.582   4.671 -0.1583 -0.2251  0.4718
 4193ntf    on524011   5.980   5.933   4.424 -0.6695 -0.7389  0.2235
 4193ntf    on524012   6.067   6.001   4.646 -0.1517  0.3961  0.1707
 4193ntf    fn424013   5.749   6.062   4.483 -0.8003 -0.6982  0.3285
 4193ntf    fn424014   5.729   5.970   4.675  0.2386  0.1292 -0.0523
 4193ntf    fn424015   5.838   6.153   4.649  0.3432  0.1510  0.0113
 4194ntf    cn124016   5.660   2.069   0.336 -0.0683 -0.5472 -0.6569
 4194ntf    sn224017   5.532   2.153   0.237 -0.2914 -0.2328 -0.1078
 4194ntf    nn324018   5.545   2.089   0.095 -0.5933  0.2928 -0.3718
 4194ntf    sn224019   5.444   1.993   0.021 -0.3701  0.0549 -0.3666
 4194ntf    cn124020   5.466   1.837   0.113  0.4920  0.2384 -0.2465
 4194ntf    fn424021   5.733   1.992   0.258  0.1257 -0.6886 -0.3370
 4194ntf    fn424022   5.726   2.145   0.422 -0.4420 -0.7090 -0.2251
 4194ntf    fn424023   5.601   1.986   0.420 -0.2512  0.5785  0.3676
 4194ntf    on524024   5.406   2.135   0.304 -0.4295  1.2909  0.0593
 4194ntf    on524025   5.580   2.289   0.242 -0.2286 -0.2597  0.0487
 4194ntf    on524026   5.481   1.947  -0.111 -0.4954  0.1397 -0.4308
 4194ntf    on524027   5.306   2.030   0.041 -0.4467 -0.4181  0.0031
 4194ntf    fn424028   5.591   1.799   0.098  0.5200  0.4419 -0.5344
 4194ntf    fn424029   5.430   1.840   0.240 -0.2309  0.5489 -0.4493
 4194ntf    fn424030   5.400   1.734   0.064  0.6196  0.0733 -0.0702
 4195ntf    cn124031   1.221   5.827   5.410 -0.1892 -0.0719 -0.2870
 4195ntf    sn224032   1.239   5.984   5.320  0.2748  0.1449  0.1824
 4195ntf    nn324033   1.355   6.051   5.402  0.1384 -0.2574  0.7071
 4195ntf    sn224034   1.510   6.028   5.395  0.1356 -0.0317 -0.1530
 4195ntf    cn124035   1.576   6.195   5.422 -0.1590  0.1430 -0.4857
 4195ntf    fn424036   1.269   5.729   5.335  0.3601  0.2083 -0.3035
 4195ntf    fn424037   1.280   5.824   5.528  0.4590  0.0896 -0.6013
 4195ntf    fn424038   1.095   5.792   5.431  0.0194 -0.3274  0.5401
 4195ntf    on524039   1.263   5.942   5.184 -0.6953  0.8188 -0.2144
 4195ntf    on524040   1.112   6.044   5.354  0.0146 -0.0365 -0.4679
 4195ntf    on524041   1.564   5.997   5.265  0.2686 -0.0549 -0.0918
 4195ntf    on524042   1.563   5.969   5.515  0.1588 -0.1865 -0.2381
 4195ntf    fn424043   1.708   6.211   5.419 -0.1422  0.1580  0.1049
 4195ntf    fn424044   1.534   6.272   5.324 -0.0410  0.9056  0.0532
 4195ntf    fn424045   1.533   6.243   5.538 -0.2159  0.0513 -0.4683
 4196ntf    cn124046   2.877   4.721   3.861  0.2302 -0.2085 -0.0430
 4196ntf    sn224047   2.911   4.768   4.033 -0.3653 -0.1094  0.0485
 4196ntf    nn324048   2.779   4.842   4.075 -0.1816  0.3038 -0.0984
 4196ntf    sn224049   2.760   4.978   4.151  0.0111  0.2113  0.1179
 4196ntf    cn124050   2.797   5.100   4.022  0.1170 -0.1831 -0.2266
 4196ntf    fn424051   2.972   4.648   3.804  0.0142 -0.2582 -0.3396
 4196ntf    fn424052   2.767   4.650   3.849  0.0385  0.2068 -0.8409
 4196ntf    fn424053   2.850   4.823   3.782 -0.0693 -0.0161  0.3090
 4196ntf    on524054   2.915   4.641   4.102  0.3112 -0.2464 -0.2300
 4196ntf    on524055   3.032   4.845   4.024 -0.1588 -0.3718  0.5248
 4196ntf    on524056   2.839   5.005   4.268  0.3852 -0.1959 -0.0375
 4196ntf    on524057   2.619   4.990   4.179  0.0714 -0.5183  0.7791
 4196ntf    fn424058   2.926   5.131   4.012  0.3160 -0.8178  0.3069
 4196ntf    fn424059   2.765   5.060   3.900 -0.0570  0.2495 -0.3218
 4196ntf    fn424060   2.739   5.213   4.056 -0.2424 -0.3322 -0.3400
 4197ntf    cn124061   4.934   3.774   1.586 -0.2003  0.2785  0.2110
 4197ntf    sn224062   5.004   3.695   1.734  0.1871 -0.0128 -0.1253
 4197ntf    nn324063   5.009   3.542   1.700  0.1990  0.2159 -1.1754
 4197ntf    sn224064   4.906   3.425   1.721 -0.0056  0.6331  0.2546
 4197ntf    cn124065   4.926   3.342   1.560 -0.1642 -0.0617  0.5887
 4197ntf    fn424066   4.809   3.732   1.574  0.1240 -0.6476  0.0046
 4197ntf    fn424067   4.927   3.906   1.594 -0.1165  0.2940  0.0409
 4197ntf    fn424068   4.999   3.738   1.476 -0.5536 -0.1676  0.1480
 4197ntf    on524069   5.136   3.751   1.752  0.3007 -0.3222  0.0128
 4197ntf    on524070   4.909   3.733   1.835 -0.1869 -0.1818 -0.4105
 4197ntf    on524071   4.765   3.456   1.718 -0.0642  0.4391  0.9925
 4197ntf    on524072   4.954   3.330   1.818 -0.3184 -0.1051 -0.2975
 4197ntf    fn424073   4.838   3.248   1.529  0.3515 -0.4679  0.3474
 4197ntf    fn424074   4.933   3.428   1.460  0.5779 -0.3656  0.3753
 4197ntf    fn424075   5.047   3.289   1.554 -0.0960  0.1652 -0.2290
 4198ntf    cn124076   0.434   6.704   2.598  0.2257  0.3485 -0.0192
 4198ntf    sn224077   0.440   6.567   2.479 -0.0456  0.3188  0.0011
 4198ntf    nn324078   0.400   6.444   2.568 -0.3069  0.4098  0.0118
 4198ntf    sn224079   0.459   6.298   2.560 -0.6736  0.2654 -0.0678
 4198ntf    cn124080   0.589   6.312   2.686 -0.1204 -0.3508 -0.5617
 4198ntf    fn424081   0.432   6.820   2.534  0.0035  0.0951 -0.4740
 4198ntf    fn424082   0.323   6.703   2.671  0.2209  0.1041 -0.0297
 4198ntf    fn424083   0.539   6.705   2.679  0.1054 -0.4616  0.1576
 4198ntf    on524084   0.336   6.596   2.384  0.3428 -0.0934 -0.5545
 4198ntf    on524085   0.577   6.574   2.435 -0.1140  0.2969 -0.2154
 4198ntf    on524086   0.525   6.263   2.437  0.1155  0.1518  0.3836
 4198ntf    on524087   0.373   6.195   2.613  0.2486 -0.5566 -0.1473
 4198ntf    fn424088   0.654   6.199   2.705 -0.0420 -0.2061  0.0612
 4198ntf    fn424089   0.681   6.399   2.646  0.1425 -0.2729  0.1927
 4198ntf    fn424090   0.557   6.365   2.803  0.6934 -0.9345 -0.0687
 4199ntf    cn124091   5.254   5.895   5.952  0.0209  0.0611  0.4037
 4199ntf    sn224092   5.131   5.974   5.845  0.3342 -0.0584 -0.0459
 4199ntf    nn324093   5.016   6.007   5.947  0.2507  0.4380 -0.2968
 4199ntf    sn224094   4.897   5.915   5.991  0.3766  0.5609  0.3059
 4199ntf    cn124095   4.907   5.916   6.173  0.2126  0.3916  0.3165
 4199ntf    fn424096   5.238   5.764   5.942 -0.2029  0.1564 -0.5361
 4199ntf    fn424097   5.372   5.936   5.909 -0.4424  0.7679 -0.2043
 4199ntf    fn424098   5.261   5.925   6.081  0.8050  0.6454  0.2334
 4199ntf    on524099   5.193   6.092   5.789 -0.4305  0.1945 -0.3782
 4199ntf    on524100   5.089   5.876   5.748 -0.0773  0.1982 -0.1297
 4199ntf    on524101   4.904   5.775   5.956 -0.6047  0.5359  0.1840
 4199ntf    on524102   4.768   5.975   5.968  0.3118  0.3905  0.2186
 4199ntf    fn424103   4.851   5.812   6.231 -0.4751  0.2594 -0.5577
 4199ntf    fn424104   5.030   5.914   6.222  0.5268  0.4133 -0.4421
 4199ntf    fn424105   4.850   6.024   6.222  0.6370  0.6551  0.2377
 4200ntf    cn124106   2.368   5.324   5.147 -0.0317 -0.1042  0.1224
 4200ntf    sn224107   2.429   5.289   4.979 -0.2928 -0.2516  0.0580
 4200ntf    nn324108   2.555   5.383   4.974 -0.7491  0.3586 -0.1832
 4200ntf    sn224109   2.576   5.533   4.934 -0.0814  0.3478  0.1035
 4200ntf    cn124110   2.573   5.621   5.094 -0.3595  0.5227  0.0035
 4200ntf    fn424111   2.444   5.268   5.240 -0.4544  0.4038  0.7781
 4200ntf    fn424112   2.373   5.455   5.162 -0.1525 -0.1262  0.3560
 4200ntf    fn424113   2.242   5.290   5.165 -0.0083 -0.1540  0.1954
 4200ntf    on524114   2.472   5.152   4.991 -0.3774 -0.2916 -0.0834
 4200ntf    on524115   2.327   5.322   4.882 -0.6010  0.4402  0.6100
 4200ntf    on524116   2.467   5.599   4.866 -0.4726 -0.3112  0.0878
 4200ntf    on524117   2.709   5.567   4.891 -0.2675 -0.3381 -1.0351
 4200ntf    fn424118   2.629   5.548   5.188 -0.3796  0.4129 -0.0685
 4200ntf    fn424119   2.644   5.732   5.089  0.6724 -0.1303 -0.0347
 4200ntf    fn424120   2.453   5.654   5.138 -0.6297  0.2545 -0.5103
 4201ntf    cn124121   2.006   0.087   1.481 -0.1656 -0.5444  0.0377
 4201ntf    sn224122   1.848   0.144   1.549  0.0908  0.2642 -0.0290
 4201ntf    nn324123   1.781   0.202   1.419 -0.1103 -0.0575 -0.0716
 4201ntf    sn224124   1.713   0.342   1.396 -0.1020 -0.0367  0.0318
 4201ntf    cn124125   1.819   0.417   1.269 -0.2189  0.2453  0.1010
 4201ntf    fn424126   1.983   0.018   1.370 -0.7389  0.0381 -0.2139
 4201ntf    fn424127   2.084   0.188   1.444 -0.4743 -0.1731  0.3957
 4201ntf    fn424128   2.072   0.012   1.568 -0.5053 -0.9222 -0.0245
 4201ntf    on524129   1.779   0.025   1.591  0.1705  0.1911 -0.1039
 4201ntf    on524130   1.877   0.243   1.649  0.2008 -0.0898  0.2921
 4201ntf    on524131   1.719   0.439   1.503 -0.1805 -0.5609  0.5198
 4201ntf    on524132   1.595   0.341   1.314  0.0388  0.8874 -0.1955
 4201ntf    fn424133   1.949   0.412   1.291  0.0395  0.4291 -1.2552
 4201ntf    fn424134   1.796   0.346   1.160 -0.4077  0.3741  0.0560
 4201ntf    fn424135   1.788   0.543   1.243  0.3881  0.4078  0.1634
 4202ntf    cn124136   2.566   6.900   5.487  0.2538  0.0115  0.2005
 4202ntf    sn224137   2.600   7.051   5.583  0.2357  0.1207  0.0378
 4202ntf    nn324138   2.565   6.995   5.726  0.0104 -0.3083 -0.1814
 4202ntf    sn224139   2.427   6.983   5.800  0.0651 -0.1084 -0.0468
 4202ntf    cn124140   2.454   7.127   5.908 -0.2493  0.4097 -0.6544
 4202ntf    fn424141   2.613   6.902   5.363  0.7593  0.4039  0.3919
 4202ntf    fn424142   2.623   6.796   5.544  0.1131 -0.2387 -0.1161
 4202ntf    fn424143   2.435   6.887   5.472  0.3468 -0.3450 -0.3559
 4202ntf    on524144   2.741   7.072   5.563  0.4648 -0.9735  0.3890
 4202ntf    on524145   2.500   7.137   5.526  0.4907  0.8605  0.6835
 4202ntf    on524146   2.418   6.868   5.886 -0.0099 -0.1115 -0.0596
 4202ntf    on524147   2.306   7.016   5.729  0.0648  0.1558  0.0763
 4202ntf    fn424148   2.542   7.095   6.001 -0.3662  0.3923 -0.5488
 4202ntf    fn424149   2.509   7.229   5.844  0.4530  0.0541 -0.6203
 4202ntf    fn424150   2.342   7.169   5.966 -0.2834 -0.1479 -0.3061
 4203ntf    cn124151   3.643   6.759   3.082 -0.0253  0.0826 -0.0596
 4203ntf    sn224152   3.561   6.922   3.092 -0.4911 -0.1574  0.0890
 4203ntf    nn324153   3.682   7.004   3.151 -0.5321 -0.1562  0.1717
 4203ntf    sn224154   3.695   7.058   3.297 -0.2046  0.1088  0.0461
 4203ntf    cn124155   3.855   6.998   3.358 -0.2157 -0.0717 -0.1010
 4203ntf    fn424156   3.569   6.680   3.006  0.3494 -0.0351 -0.3005
 4203ntf    fn424157   3.767   6.757   3.036  0.1838 -0.2782  0.5169
 4203ntf    fn424158   3.655   6.708   3.203 -0.3097 -0.1299 -0.1194
 4203ntf    on524159   3.526   6.940   2.954  0.1114  0.0594 -0.0386
 4203ntf    on524160   3.451   6.892   3.180 -0.1979  0.0997  0.5464
 4203ntf    on524161   3.606   7.001   3.395 -0.0288 -0.3721 -0.0716
 4203ntf    on524162   3.701   7.202   3.296 -0.1186  0.1116  0.6327
 4203ntf    fn424163   3.874   7.033   3.485  0.2025  0.3552 -0.2741
 4203ntf    fn424164   3.858   6.866   3.362 -0.2543 -0.0587  0.4518
 4203ntf    fn424165   3.957   7.047   3.288 -0.0464 -0.8120 -0.3848
 4204ntf    cn124166   0.314   5.640   0.223 -0.3946 -0.3032  0.2267
 4204ntf    sn224167   0.186   5.606   0.098  0.1366 -0.1570 -0.3642
 4204ntf    nn324168   0.069   5.698   0.148  0.2615 -0.2101  0.0342
 4204ntf    sn224169   0.037   5.850   0.125 -0.1049 -0.3440 -0.3564
 4204ntf    cn124170  -0.118   5.842   0.029 -0.1621  0.3758 -0.3326
 4204ntf    fn424171   0.431   5.582   0.201 -0.2606  0.2555 -0.5794
 4204ntf    fn424172   0.338   5.768   0.245  0.3471 -0.3988  0.0114
 4204ntf    fn424173   0.277   5.591   0.340 -0.0119 -0.1225  0.4242
 4204ntf    on524174   0.240   5.653  -0.027  0.0670  0.0859 -0.3035
 4204ntf    on524175   0.158   5.465   0.111 -0.6159 -0.0332 -0.6053
 4204ntf    on524176   0.125   5.914   0.030 -0.8356  0.0723 -0.7614
 4204ntf    on524177   0.003   5.925   0.243  0.4223  0.4194 -0.6772
 4204ntf    fn424178  -0.212   5.777   0.095  0.3572 -0.1209 -0.0640
 4204ntf    fn424179  -0.167   5.962   0.004  0.1128  0.5347 -0.1298
 4204ntf    fn424180  -0.102   5.772  -0.082 -0.4387  0.3299 -0.3438
 4205ntf    cn124181   4.017   3.419   4.834  0.3869  0.1406 -0.0937
 4205ntf    sn224182   3.974   3.561   4.728 -0.4542  0.0291  0.0921
 4205ntf    nn324183   3.820   3.558   4.757 -0.3245  0.4112  0.8227
 4205ntf    sn224184   3.708   3.558   4.648 -0.0360 -0.0250  0.5219
 4205ntf    cn124185   3.619   3.710   4.694 -0.1925 -0.0892  0.4344
 4205ntf    fn424186   4.046   3.445   4.960  0.3505  0.5189 -0.1593
 4205ntf    fn424187   3.924   3.326   4.840  0.1694  0.3145 -0.6964
 4205ntf    fn424188   4.129   3.362   4.792  0.3513 -0.1044  0.1426
 4205ntf    on524189   4.053   3.666   4.786  0.2416 -0.2409 -0.3403
 4205ntf    on524190   4.019   3.515   4.598 -0.2498  0.6774 -0.0693
 4205ntf    on524191   3.602   3.463   4.676 -0.1467 -0.1256 -0.2149
 4205ntf    on524192   3.738   3.582   4.509  0.4037 -0.1851  0.5882
 4205ntf    fn424193   3.714   3.802   4.707 -0.2066  0.0164 -0.2078
 4205ntf    fn424194   3.539   3.752   4.598 -0.4841 -0.5005  0.4955
 4205ntf    fn424195   3.564   3.706   4.814 -0.3287 -0.3618  0.3647
 4206ntf    cn124196   4.689   3.543   4.323 -0.3620  0.1547  0.3488
 4206ntf    sn224197   4.627   3.373   4.311  0.0790  0.0075  0.1163
 4206ntf    nn324198   4.578   3.359   4.460  0.0462  0.2440  0.1270
 4206ntf    sn224199   4.434   3.383   4.519  0.0500  0.1606  0.1716
 4206ntf    cn124200   4.367   3.215   4.498  0.2460  0.1041 -0.0080
 4206ntf    fn424201   4.756   3.581   4.215 -0.3568 -0.0190  0.2893
 4206ntf    fn424202   4.595   3.633   4.347  0.0312  0.7862 -0.4392
 4206ntf    fn424203   4.780   3.554   4.419  0.4086  0.5050 -0.4024
 4206ntf    on524204   4.530   3.368   4.204  0.1143  0.1993  0.0749
 4206ntf    on524205   4.747   3.294   4.298 -0.1417 -0.1628 -1.0172
 4206ntf    on524206   4.347   3.459   4.433  0.4786  0.3582 -0.0970
 4206ntf    on524207   4.430   3.401   4.662 -0.3179  0.6838  0.0981
 4206ntf    fn424208   4.442   3.117   4.546 -0.3017 -0.3672 -0.1082
 4206ntf    fn424209   4.248   3.200   4.553  0.3382 -0.0801  0.1404
 4206ntf    fn424210   4.337   3.196   4.370  0.3402 -0.5445  0.0642
 4207ntf    cn124211   4.587   4.706   6.753 -0.2323 -0.1676  0.2579
 4207ntf    sn224212   4.442   4.649   6.659 -0.0425  0.0166 -0.1496
 4207ntf    nn324213   4.477   4.496   6.647  0.0476  0.0193  0.0629
 4207ntf    sn224214   4.557   4.416   6.538 -0.1899 -0.4088  0.2008
 4207ntf    cn124215   4.665   4.312   6.640  0.2915 -0.3108 -0.2022
 4207ntf    fn424216   4.583   4.834   6.786 -0.8645 -0.0892 -0.1101
 4207ntf    fn424217   4.585   4.641   6.868  0.1438 -0.1200  0.2923
 4207ntf    fn424218   4.697   4.688   6.682 -0.3771  0.4233 -0.1212
 4207ntf    on524219   4.326   4.663   6.743 -0.4092 -0.0722 -0.6430
 4207ntf    on524220   4.438   4.735   6.544  0.9687  0.3266  0.0366
 4207ntf    on524221   4.644   4.495   6.455 -0.5777 -0.3369 -0.1374
 4207ntf    on524222   4.470   4.326   6.466  0.0777 -0.4957 -0.0190
 4207ntf    fn424223   4.598   4.250   6.736 -0.1062  0.2358 -0.1246
 4207ntf    fn424224   4.731   4.232   6.558 -0.7308 -0.8195 -0.5433
 4207ntf    fn424225   4.753   4.386   6.705 -0.2443  0.1128  0.0444
 4208ntf    cn124226   6.979   3.501   1.347 -0.1866 -0.1566  0.0400
 4208ntf    sn224227   6.854   3.610   1.423  0.0341  0.1663 -0.0576
 4208ntf    nn324228   6.943   3.729   1.472  0.0942  0.1048 -0.0161
 4208ntf    sn224229   7.012   3.756   1.610  0.2523  0.3480 -0.1421
 4208ntf    cn124230   6.924   3.911   1.646 -0.1031 -0.0047  0.5233
 4208ntf    fn424231   7.030   3.537   1.231 -0.5157  0.0688 -0.0370
 4208ntf    fn424232   7.085   3.515   1.424 -0.0409 -0.5386 -0.0878
 4208ntf    fn424233   6.952   3.372   1.338  0.0717 -0.2450  0.4990
 4208ntf    on524234   6.755   3.649   1.325 -0.3575  0.7021  0.5494
 4208ntf    on524235   6.805   3.530   1.532  0.3187  0.3873  0.2331
 4208ntf    on524236   7.149   3.801   1.595  0.4362  0.0037  0.4729
 4208ntf    on524237   6.981   3.669   1.720 -0.2540  0.1930 -0.4035
 4208ntf    fn424238   6.967   3.978   1.752 -0.5844  0.4617  0.4260
 4208ntf    fn424239   6.922   3.990   1.540  0.1177 -0.4666  0.1736
 4208ntf    fn424240   6.800   3.873   1.671 -0.0596 -0.1161  0.5699
 4209ntf    cn124241   6.533   1.413   0.936  0.1113 -0.3686  0.3229
 4209ntf    sn224242   6.414   1.283   0.980 -0.2366 -0.0632  0.2956
 4209ntf    nn324243   6.424   1.289   1.137  0.0105  0.3759  0.2654
 4209ntf    sn224244   6.310   1.330   1.237 -0.1863  0.1836  0.1221
 4209ntf    cn124245   6.372   1.271   1.397  0.8601  0.2443 -0.2523
 4209ntf    fn424246   6.486   1.537   0.938  0.3422 -0.2773  0.1667
 4209ntf    fn424247   6.638   1.419   1.016  0.5317 -0.4569 -0.2175
 4209ntf    fn424248   6.565   1.397   0.809  0.6263  0.4282  0.3426
 4209ntf    on524249   6.298   1.335   0.912 -0.1459 -0.0531  0.1483
 4209ntf    on524250   6.472   1.165   0.921  0.9582  0.4956  0.3213
 4209ntf    on524251   6.187   1.256   1.224 -0.3460  0.4243  0.2538
 4209ntf    on524252   6.314   1.473   1.256  0.3424  0.0631  0.9747
 4209ntf    fn424253   6.377   1.139   1.399 -0.0489  0.2068 -0.0493
 4209ntf    fn424254   6.496   1.302   1.430  1.1017 -0.2293 -0.6920
 4209ntf    fn424255   6.306   1.315   1.503 -0.2624 -0.4336 -0.6582
 4210ntf    cn124256   6.177   1.648   4.232  0.4408 -0.1873  0.2706
 4210ntf    sn224257   6.060   1.585   4.108  0.0893  0.0462  0.4805
 4210ntf    nn324258   6.050   1.438   4.163 -0.3445 -0.2107 -0.2707
 4210ntf    sn224259   6.048   1.294   4.099  0.1931 -0.3269 -0.0329
 4210ntf    cn124260   6.228   1.269   4.094  0.2884  0.3307  0.0328
 4210ntf    fn424261   6.201   1.776   4.207 -0.3184 -0.1138 -0.1147
 4210ntf    fn424262   6.122   1.632   4.351  0.0821  0.5659  0.2140
 4210ntf    fn424263   6.296   1.593   4.218  0.2644 -0.5437  0.1524
 4210ntf    on524264   5.943   1.667   4.123 -0.0616 -0.1480  0.3739
 4210ntf    on524265   6.132   1.594   3.983 -0.4390  0.4971  0.2088
 4210ntf    on524266   6.006   1.278   3.962 -0.5634 -0.0461  0.1633
 4210ntf    on524267   6.004   1.198   4.198  0.1697 -0.4649 -0.1773
 4210ntf    fn424268   6.258   1.165   4.018 -0.4381 -0.3913  0.7064
 4210ntf    fn424269   6.294   1.377   4.055  0.2788  0.0611 -0.7412
 4210ntf    fn424270   6.268   1.237   4.216  0.0208 -0.0424  0.0229
 4211ntf    cn124271   3.461   5.788   3.425 -0.2149  0.3508 -0.5898
 4211ntf    sn224272   3.291   5.777   3.489 -0.0027  0.0031 -0.0847
 4211ntf    nn324273   3.212   5.798   3.355  0.5402 -0.2373 -0.4455
 4211ntf    sn224274   3.174   5.932   3.282  0.0381 -0.1643 -0.0529
 4211ntf    cn124275   3.016   5.974   3.361 -0.1938 -0.3663 -0.4056
 4211ntf    fn424276   3.501   5.681   3.360  0.3164 -0.1342  0.5150
 4211ntf    fn424277   3.493   5.894   3.352  0.2171  0.2881 -0.4935
 4211ntf    fn424278   3.537   5.797   3.533  0.2190 -0.8106 -0.7864
 4211ntf    on524279   3.265   5.643   3.536  0.0144  0.0216 -0.0223
 4211ntf    on524280   3.280   5.887   3.582  0.4470  0.1295 -0.1759
 4211ntf    on524281   3.141   5.905   3.144 -0.2622 -0.1211  0.0102
 4211ntf    on524282   3.272   6.037   3.298 -0.1647  0.0293 -0.0828
 4211ntf    fn424283   2.925   6.019   3.277 -0.4261 -0.0643  0.0010
 4211ntf    fn424284   2.951   5.875   3.420 -0.2164 -0.1084  0.0039
 4211ntf    fn424285   3.023   6.061   3.461 -0.0950 -0.3427 -0.4330
 4212ntf    cn124286   0.879   0.527   4.658  0.3793 -0.0347 -0.2021
 4212ntf    sn224287   1.006   0.537   4.788  0.2844  0.1745 -0.1242
 4212ntf    nn324288   1.122   0.540   4.683  0.2089 -0.3579 -0.2278
 4212ntf    sn224289   1.243   0.639   4.667  0.0643 -0.1407  0.0182
 4212ntf    cn124290   1.317   0.641   4.833  0.1655 -0.0374 -0.0282
 4212ntf    fn424291   0.870   0.648   4.604  0.4779 -0.1697 -0.5195
 4212ntf    fn424292   0.909   0.437   4.566 -0.3984 -0.3899 -0.1091
 4212ntf    fn424293   0.760   0.503   4.709  0.6845 -0.0769  0.5121
 4212ntf    on524294   0.965   0.659   4.852 -0.4591 -0.0416 -0.1697
 4212ntf    on524295   0.998   0.418   4.869  0.2936 -0.1151 -0.5457
 4212ntf    on524296   1.196   0.774   4.649  0.8349  0.0986 -0.2529
 4212ntf    on524297   1.348   0.590   4.581  0.2183 -0.3739  0.3357
 4212ntf    fn424298   1.388   0.751   4.853  0.4832 -0.2563  0.0511
 4212ntf    fn424299   1.223   0.641   4.927  0.1763 -0.5608 -0.0180
 4212ntf    fn424300   1.398   0.539   4.855 -0.4185 -0.3915  0.5008
 4213ntf    cn124301   3.613   0.834   2.912 -0.0613 -0.2408 -0.1213
 4213ntf    sn224302   3.435   0.828   2.950 -0.0815 -0.1901 -0.2077
 4213ntf    nn324303   3.422   0.983   2.969 -0.3851 -0.2415  0.0158
 4213ntf    sn224304   3.402   1.066   3.101 -0.1553 -0.2500  0.0566
 4213ntf    cn124305   3.324   1.215   3.030  0.1428 -0.3124 -0.4105
 4213ntf    fn424306   3.665   0.715   2.884  0.1866 -0.2057  0.1781
 4213ntf    fn424307   3.639   0.925   2.820  0.8343 -0.0701  0.2900
 4213ntf    fn424308   3.677   0.874   3.021  0.0155 -0.3297 -0.1336
 4213ntf    on524309   3.368   0.774   2.835 -0.2779 -0.0295 -0.1703
 4213ntf    on524310   3.414   0.756   3.073 -0.0396  0.9133  0.4631
 4213ntf    on524311   3.523   1.117   3.161 -0.1758 -0.0986 -0.0296
 4213ntf    on524312   3.295   1.021   3.186 -0.1737 -0.1985  0.0611
 4213ntf    fn424313   3.363   1.244   2.908  0.4327 -0.2840 -0.3118
 4213ntf    fn424314   3.192   1.222   3.035  0.1945  0.2067  0.4994
 4213ntf    fn424315   3.364   1.313   3.110 -0.7534 -0.2548 -0.0141
 4214ntf    cn124316   4.169   6.425   5.136 -0.1890 -0.1068 -0.1111
 4214ntf    sn224317   4.208   6.442   5.313 -0.6870  0.6027 -0.0606
 4214ntf    nn324318   4.258   6.294   5.333 -0.2468  0.5923 -1.1405
 4214ntf    sn224319   4.408   6.252   5.323 -0.3896 -0.2446  0.0016
 4214ntf    cn124320   4.399   6.102   5.220 -0.1714 -0.0910 -0.2417
 4214ntf    fn424321   4.109   6.530   5.080  0.4740  0.2739 -0.1118
 4214ntf    fn424322   4.264   6.387   5.053 -0.3382  0.2070 -0.4291
 4214ntf    fn424323   4.073   6.333   5.130  0.1930 -0.4928 -0.3105
 4214ntf    on524324   4.306   6.546   5.333 -0.3762  0.3028 -0.0131
 4214ntf    on524325   4.079   6.459   5.374 -0.5094  0.3897  0.3765
 4214ntf    on524326   4.468   6.193   5.440 -0.1531 -0.6959 -0.3410
 4214ntf    on524327   4.500   6.329   5.242  0.0066 -0.6584  0.0522
 4214ntf    fn424328   4.355   5.999   5.289  0.2286 -0.2606 -0.2346
 4214ntf    fn424329   4.314   6.127   5.121 -0.3871 -0.7140 -0.2146
 4214ntf    fn424330   4.516   6.069   5.168 -0.0261  0.5635 -0.3473
 4215ntf    cn124331   0.124   3.242   6.668 -0.0658  0.2769  0.1340
 4215ntf    sn224332   0.239   3.287   6.801 -0.0742 -0.1694  0.2925
 4215ntf    nn324333   0.250   3.155   6.886 -0.2370 -0.1445  0.3521
 4215ntf    sn224334   0.372   3.097   6.966  0.2355  0.0858 -0.1926
 4215ntf    cn124335   0.289   2.986   7.084  0.3075 -0.0581 -0.2792
 4215ntf    fn424336   0.076   3.350   6.609 -0.1820 -0.0289 -0.3425
 4215ntf    fn424337   0.174   3.165   6.573 -0.0915  0.1671  0.2087
 4215ntf    fn424338   0.018   3.180   6.718  0.0591  0.2050  0.3120
 4215ntf    on524339   0.356   3.326   6.725 -0.4252 -0.3812 -0.3649
 4215ntf    on524340   0.168   3.387   6.875 -0.4308  0.2313 -0.5776
 4215ntf    on524341   0.440   3.191   7.053 -0.4638 -0.1403  0.6215
 4215ntf    on524342   0.452   3.018   6.876  0.3608 -0.1102  0.0869
 4215ntf    fn424343   0.187   3.033   7.154  0.4669 -0.6131  0.3377
 4215ntf    fn424344   0.229   2.895   7.008  0.2171 -0.5179  0.3401
 4215ntf    fn424345   0.377   2.914   7.151  0.2787 -0.0183 -0.1986
 4216ntf    cn124346   0.856   0.975   2.991 -0.3010 -0.0005 -0.1916
 4216ntf    sn224347   0.959   1.049   3.120  0.1246 -0.4358 -0.2782
 4216ntf    nn324348   0.906   1.196   3.121  0.1553 -0.4176  1.0383
 4216ntf    sn224349   0.820   1.279   3.223 -0.2576 -0.1909  0.5129
 4216ntf    cn124350   0.647   1.254   3.174 -0.2963  0.4573  0.3077
 4216ntf    fn424351   0.871   1.056   2.887  0.0899 -0.0072 -0.1410
 4216ntf    fn424352   0.909   0.859   2.954  0.2534  0.1429  0.1480
 4216ntf    fn424353   0.726   0.955   3.005 -0.2819 -0.0577 -0.0937
 4216ntf    on524354   0.932   0.970   3.238  0.0952 -0.7818 -0.5151
 4216ntf    on524355   1.097   1.031   3.081  0.2476 -0.5972  0.2183
 4216ntf    on524356   0.838   1.421   3.208 -0.8719 -0.2228 -0.6882
 4216ntf    on524357   0.823   1.227   3.358 -0.1355 -0.1201  0.5377
 4216ntf    fn424358   0.622   1.283   3.047 -0.4124 -0.1003  0.1981
 4216ntf    fn424359   0.611   1.128   3.194  0.0289  0.3527  0.2397
 4216ntf    fn424360   0.567   1.333   3.244 -0.9755 -0.2011  0.3003
 4217ntf    cn124361   4.258   0.479   1.455 -0.0768  0.0695 -0.6354
 4217ntf    sn224362   4.213   0.314   1.394  0.0310 -0.2221  0.0654
 4217ntf    nn324363   4.135   0.261   1.520  0.1391 -0.2532  0.1200
 4217ntf    sn224364   4.131   0.117   1.581  0.2457 -0.2876  0.0468
 4217ntf    cn124365   4.204   0.163   1.740 -0.2554  0.8693 -0.0490
 4217ntf    fn424366   4.328   0.552   1.370 -0.4094  0.2719 -0.7377
 4217ntf    fn424367   4.150   0.543   1.497  0.2996  0.1590  0.2191
 4217ntf    fn424368   4.326   0.465   1.568 -0.5056  0.1117 -0.3678
 4217ntf    on524369   4.134   0.347   1.278  0.2507  0.0363 -0.0132
 4217ntf    on524370   4.338   0.245   1.370 -0.4611 -0.9370 -0.4771
 4217ntf    on524371   4.218   0.011   1.536  0.8681  0.3100 -0.1506
 4217ntf    on524372   4.001   0.076   1.630 -0.2816  0.3656 -0.7833
 4217ntf    fn424373   4.326   0.215   1.741 -0.0002  0.2764 -0.1398
 4217ntf    fn424374   4.136   0.259   1.800 -0.5861  0.3423  0.4357
 4217ntf    fn424375   4.220   0.058   1.819  0.3358  0.1417 -1.1197
 4218ntf    cn124376   6.926   5.867   6.617 -0.4731  0.1497 -0.1387
 4218ntf    sn224377   6.876   5.885   6.791  0.3390  0.1217  0.1010
 4218ntf    nn324378   6.990   5.822   6.880  0.2762 -0.0083  0.0899
 4218ntf    sn224379   7.014   5.677   6.934  0.0293 -0.0806  0.0102
 4218ntf    cn124380   6.987   5.686   7.114 -0.2303 -0.2854 -0.0188
 4218ntf    fn424381   7.036   5.935   6.590 -0.3425  0.0797  0.2089
 4218ntf    fn424382   6.946   5.742   6.581 -0.0769  0.2148 -0.1470
 4218ntf    fn424383   6.826   5.905   6.539 -0.3982  0.1244 -0.2469
 4218ntf    on524384   6.879   6.028   6.804  0.3978  0.1061  0.2739
 4218ntf    on524385   6.742   5.831   6.797  0.3431  0.1605  0.5886
 4218ntf    on524386   7.150   5.629   6.923 -0.0844 -0.3086 -0.3961
 4218ntf    on524387   6.914   5.583   6.890 -0.4995  0.2681  0.4456
 4218ntf    fn424388   7.054   5.786   7.169 -0.5771  0.1560 -0.3837
 4218ntf    fn424389   6.857   5.701   7.135 -0.2502 -0.2681 -0.1500
 4218ntf    fn424390   7.023   5.574   7.174 -0.2684 -0.3430 -0.1026
 4219ntf    cn124391   0.314   7.300   4.369  0.6962  0.0592 -0.3633
 4219ntf    sn224392   0.292   7.431   4.244 -0.1503  0.2443 -0.0300
 4219ntf    nn324393   0.415   7.518   4.287 -0.0756  0.0090  0.2402
 4219ntf    sn224394   0.543   7.572   4.212 -0.3472 -0.0897 -0.2991
 4219ntf    cn124395   0.599   7.706   4.321 -0.1628 -0.0021 -0.5036
 4219ntf    fn424396   0.317   7.341   4.495 -0.1701 -0.4772 -0.1543
 4219ntf    fn424397   0.205   7.224   4.369  0.6245  0.1577  0.0703
 4219ntf    fn424398   0.419   7.222   4.349  0.3536 -0.4552 -0.1881
 4219ntf    on524399   0.317   7.373   4.115  0.5027  0.3149  0.0584
 4219ntf    on524400   0.159   7.472   4.281 -0.0494 -0.1770  0.8488
 4219ntf    on524401   0.520   7.638   4.086 -0.0394 -0.1436 -0.3853
 4219ntf    on524402   0.658   7.485   4.216 -0.2871  0.0107  0.2183
 4219ntf    fn424403   0.514   7.804   4.344 -0.6486 -0.5654  0.1472
 4219ntf    fn424404   0.623   7.663   4.444  0.2159  0.2527 -0.4860
 4219ntf    fn424405   0.710   7.766   4.280  0.0445 -0.0210  0.0220
 4220ntf    cn124406   3.629   6.349   4.434  0.1613 -0.4875  0.3976
 4220ntf    sn224407   3.644   6.461   4.292 -0.2461 -0.4941  0.3493
 4220ntf    nn324408   3.782   6.419   4.230 -0.3546  0.0400 -0.2613
 4220ntf    sn224409   3.810   6.306   4.125  0.2331 -0.0403 -0.0228
 4220ntf    cn124410   3.963   6.382   4.064  0.4555 -0.3040  0.2057
 4220ntf    fn424411   3.730   6.365   4.518  0.3384  0.6608 -0.0152
 4220ntf    fn424412   3.521   6.365   4.508  0.0810  0.3602  0.0997
 4220ntf    fn424413   3.622   6.223   4.392  0.4170 -0.4541  0.2562
 4220ntf    on524414   3.524   6.429   4.217 -0.6572  0.8871  0.3966
 4220ntf    on524415   3.647   6.596   4.342 -0.0419 -0.1978 -0.4399
 4220ntf    on524416   3.728   6.294   4.007  0.0598  0.5321  0.0386
 4220ntf    on524417   3.844   6.180   4.187 -0.2277  0.1906  0.7166
 4220ntf    fn424418   3.946   6.499   4.005  0.4414 -0.5858 -0.3520
 4220ntf    fn424419   4.034   6.406   4.174  0.2609  0.1460  0.2367
 4220ntf    fn424420   4.039   6.305   3.988  0.1343 -0.1804 -0.2437
 4221ntf    cn124421   1.322   1.686   7.023 -0.0740 -0.0491  0.1040
 4221ntf    sn224422   1.185   1.729   6.911  0.1076  0.0717 -0.0714
 4221ntf    nn324423   1.158   1.584   6.859 -0.3729 -0.0274  0.4459
 4221ntf    sn224424   1.045   1.524   6.767  0.0753  0.3834 -0.3833
 4221ntf    cn124425   1.148   1.481   6.623 -0.1373 -0.0265 -0.4147
 4221ntf    fn424426   1.413   1.626   6.947 -0.0794  0.2553 -0.1438
 4221ntf    fn424427   1.382   1.797   7.061 -0.0187  0.0209 -0.1828
 4221ntf    fn424428   1.304   1.611   7.130 -0.2241 -0.0013  0.1127
 4221ntf    on524429   1.085   1.766   7.008 -0.2322 -0.3598 -0.2564
 4221ntf    on524430   1.233   1.808   6.800  0.0013 -0.0971 -0.2383
 4221ntf    on524431   0.943   1.612   6.717 -1.0984 -0.5573  0.2960
 4221ntf    on524432   1.000   1.401   6.828  0.0501  0.5969  0.0301
 4221ntf    fn424433   1.080   1.436   6.519 -0.0308  0.7583 -0.8322
 4221ntf    fn424434   1.212   1.587   6.577  1.0129 -0.5653 -0.0865
 4221ntf    fn424435   1.239   1.388   6.646  0.0939  0.3421  0.1927
 4222ntf    cn124436   2.600   2.077   6.781  0.1773  0.1121 -0.2526
 4222ntf    sn224437   2.559   1.907   6.733 -0.0030  0.1888 -0.3728
 4222ntf    nn324438   2.402   1.902   6.733 -0.0018  0.1335  0.0239
 4222ntf    sn224439   2.297   1.894   6.850  0.0007  0.5448  0.0580
 4222ntf    cn124440   2.239   1.722   6.838  0.3962  0.3987  0.2488
 4222ntf    fn424441   2.537   2.117   6.891 -0.1841  0.2150 -0.4951
 4222ntf    fn424442   2.729   2.081   6.807  0.0992 -0.3419  0.2223
 4222ntf    fn424443   2.567   2.167   6.690 -0.2908  0.2042  0.0032
 4222ntf    on524444   2.604   1.902   6.596  0.1696 -0.1516 -0.3066
 4222ntf    on524445   2.627   1.819   6.826 -0.1693  0.7189  0.2580
 4222ntf    on524446   2.176   1.967   6.821 -0.5696 -0.2940  0.2649
 4222ntf    on524447   2.358   1.907   6.979 -0.2898  0.1948  0.2343
 4222ntf    fn424448   2.164   1.708   6.730  0.2427  0.5050  0.3418
 4222ntf    fn424449   2.346   1.646   6.820  0.0303 -0.2259  0.6305
 4222ntf    fn424450   2.171   1.674   6.941  0.3541 -0.5453 -0.2024
 4223ntf    cn124451   4.115   6.825   1.131 -0.1810  0.6358  0.1617
 4223ntf    sn224452   4.192   6.793   1.293  0.2030  0.1883 -0.1076
 4223ntf    nn324453   4.339   6.757   1.250  0.0828 -0.2163 -0.1804
 4223ntf    sn224454   4.440   6.644   1.290 -0.0473 -0.2971 -0.0794
 4223ntf    cn124455   4.515   6.603   1.129  0.0135  0.0968 -0.1514
 4223ntf    fn424456   4.110   6.715   1.058  0.5387  0.2590  0.6681
 4223ntf    fn424457   3.997   6.884   1.142 -0.3144  0.4481 -0.2433
 4223ntf    fn424458   4.183   6.911   1.056  0.9630  0.0074  0.4474
 4223ntf    on524459   4.173   6.922   1.354 -0.2996 -0.1031  0.3571
 4223ntf    on524460   4.119   6.687   1.358  0.4943 -0.3040 -0.5692
 4223ntf    on524461   4.376   6.522   1.335  0.2700 -0.4421 -0.0171
 4223ntf    on524462   4.551   6.688   1.371 -0.0345  0.3531 -0.4473
 4223ntf    fn424463   4.424   6.574   1.038  0.0860  0.0340 -0.2033
 4223ntf    fn424464   4.596   6.701   1.091 -0.1877  0.2836 -0.0976
 4223ntf    fn424465   4.590   6.494   1.132  0.2427  0.2396 -0.7100
 4224ntf    cn124466   5.765   5.262   4.079 -0.1823  0.0057 -0.0101
 4224ntf    sn224467   5.852   5.113   4.135 -0.1736  0.1211  0.2811
 4224ntf    nn324468   5.995   5.147   4.079 -0.1276 -0.6315 -0.0665
 4224ntf    sn224469   6.137   5.097   4.126 -0.0596 -0.2195  0.1751
 4224ntf    cn124470   6.127   4.919   4.090 -0.1616 -0.0691 -0.5578
 4224ntf    fn424471   5.653   5.285   4.145  0.0446  0.0266  0.3639
 4224ntf    fn424472   5.825   5.379   4.086 -0.7853  0.3106  0.1592
 4224ntf    fn424473   5.726   5.252   3.952 -0.0945  0.2492 -0.0580
 4224ntf    on524474   5.838   5.126   4.278 -0.8989  0.2170  0.2023
 4224ntf    on524475   5.791   5.001   4.068  1.0645 -0.3126 -0.1577
 4224ntf    on524476   6.162   5.097   4.268  0.5673 -0.4633  0.0665
 4224ntf    on524477   6.243   5.126   4.033 -0.0353 -0.0727  0.2500
 4224ntf    fn424478   6.230   4.858   4.146 -0.2625  0.5206  0.2833
 4224ntf    fn424479   6.019   4.852   4.128 -0.0459 -0.3134 -0.6610
 4224ntf    fn424480   6.146   4.898   3.961  0.3110 -0.4514 -0.4262
 4225ntf    cn124481   1.520   4.776   1.747  0.2312  0.1100 -0.3645
 4225ntf    sn224482   1.386   4.737   1.630 -0.1458  0.1936  0.0392
 4225ntf    nn324483   1.266   4.698   1.723 -0.1452 -0.3924 -0.2064
 4225ntf    sn224484   1.131   4.624   1.689 -0.3332 -0.0396 -0.2260
 4225ntf    cn124485   1.010   4.751   1.738  0.0055  0.1572  0.1095
 4225ntf    fn424486   1.484   4.849   1.852 -0.5628 -0.2579 -0.3744
 4225ntf    fn424487   1.570   4.669   1.808 -0.0871  0.1764  0.0149
 4225ntf    fn424488   1.621   4.845   1.697  0.3468  0.1729 -0.0477
 4225ntf    on524489   1.366   4.863   1.563 -0.5682  0.1567  0.0893
 4225ntf    on524490   1.438   4.628   1.553 -0.2254  0.1934 -0.0132
 4225ntf    on524491   1.102   4.507   1.767  0.0542 -0.3672 -0.5695
 4225ntf    on524492   1.101   4.612   1.548 -0.7558  0.0454 -0.1449
 4225ntf    fn424493   1.000   4.850   1.651 -0.4029  0.5373  0.5868
 4225ntf    fn424494   0.892   4.694   1.751  0.1669 -0.1746  0.1368
 4225ntf    fn424495   1.043   4.806   1.853  0.2292 -0.1667  0.2017
 4226ntf    cn124496   1.905   0.949   1.124 -0.6883 -0.0435 -0.3014
 4226ntf    sn224497   2.060   0.892   1.048 -0.2088  0.1704  0.5025
 4226ntf    nn324498   2.066   0.742   1.095 -0.1779 -0.0353 -0.1484
 4226ntf    sn224499   2.199   0.669   1.134  0.0332  0.3482 -0.1466
 4226ntf    cn124500   2.211   0.563   0.986  0.4957 -0.0394  0.1643
 4226ntf    fn424501   1.910   0.912   1.251 -0.2896  0.6198 -0.1161
 4226ntf    fn424502   1.902   1.082   1.122 -0.6330 -0.0308  0.2490
 4226ntf    fn424503   1.799   0.901   1.063 -0.8531 -0.0124 -0.0394
 4226ntf    on524504   2.041   0.902   0.905  0.2019 -0.0748  0.4260
 4226ntf    on524505   2.157   0.982   1.106  0.2059  0.3779 -0.4828
 4226ntf    on524506   2.186   0.572   1.240  0.2845  0.3383 -0.1235
 4226ntf    on524507   2.323   0.742   1.127  0.0980  0.3083  0.4913
 4226ntf    fn424508   2.129   0.459   0.991  0.5745 -0.0932  0.3692
 4226ntf    fn424509   2.177   0.640   0.884  0.0751 -0.3415  0.0760
 4226ntf    fn424510   2.335   0.520   0.972  0.3847 -0.2202 -0.2542
 4227ntf    cn124511   3.450   2.881   3.589  0.0857 -0.2518  0.1605
 4227ntf    sn224512   3.283   2.862   3.658 -0.0134 -0.1305 -0.0434
 4227ntf    nn324513   3.307   2.953   3.784 -0.0796 -0.2826  0.0806
 4227ntf    sn224514   3.211   2.993   3.902  0.1655  0.0059  0.1839
 4227ntf    cn124515   3.184   3.165   3.851  0.0225  0.0353  0.3602
 4227ntf    fn424516   3.537   2.802   3.650 -0.2508 -0.4728  0.3623
 4227ntf    fn424517   3.458   2.840   3.464 -0.3390 -0.4001  0.1792
 4227ntf    fn424518   3.503   3.002   3.598 -0.3885  0.0849 -1.2569
 4227ntf    on524519   3.194   2.924   3.563  0.3131 -0.2796 -0.4471
 4227ntf    on524520   3.284   2.722   3.695  0.4197 -0.0461  0.2692
 4227ntf    on524521   3.271   2.990   4.033  0.5095 -0.2304  0.0245
 4227ntf    on524522   3.081   2.933   3.886  0.4059 -0.5885  0.4007
 4227ntf    fn424523   3.176   3.173   3.719 -0.4835 -0.2451  0.3748
 4227ntf    fn424524   3.068   3.202   3.902 -0.1288  0.1302 -0.0490
 4227ntf    fn424525   3.281   3.249   3.884 -0.0269  0.4051 -0.4157
 4228ntf    cn124526   6.341   0.179   0.941 -0.2705  0.0787  0.1320
 4228ntf    sn224527   6.471   0.272   1.028 -0.1835  0.0923 -0.0118
 4228ntf    nn324528   6.408   0.416   1.032 -0.2416  0.0775 -0.3898
 4228ntf    sn224529   6.281   0.461   1.113 -0.0819  0.1126 -0.1603
 4228ntf    cn124530   6.356   0.578   1.231 -0.0583  0.1765 -0.2385
 4228ntf    fn424531   6.311   0.233   0.824  0.3641  0.4799  0.1498
 4228ntf    fn424532   6.378   0.054   0.922  0.1003  0.2587 -0.3349
 4228ntf    fn424533   6.228   0.171   1.010 -0.3422  0.4861  0.0631
 4228ntf    on524534   6.483   0.202   1.154 -0.2130  0.3189  0.1172
 4228ntf    on524535   6.587   0.270   0.943 -0.5206 -0.6112 -0.4600
 4228ntf    on524536   6.203   0.368   1.191 -0.2228  0.4308  0.0816
 4228ntf    on524537   6.208   0.558   1.036 -0.0270  0.3904  0.1357
 4228ntf    fn424538   6.433   0.504   1.309  0.2501  0.2924 -0.4292
 4228ntf    fn424539   6.433   0.671   1.176  0.2652  0.3750  0.5313
 4228ntf    fn424540   6.269   0.637   1.311  0.0092 -0.2618  0.1598
 4229ntf    cn124541   6.699   2.959   2.876 -0.1316  0.0210  0.3630
 4229ntf    sn224542   6.860   3.008   2.808 -0.2173  0.3946  0.4274
 4229ntf    nn324543   6.841   3.163   2.795  0.2579  0.4553  0.4413
 4229ntf    sn224544   6.894   3.277   2.889  0.4558  0.5595  0.2047
 4229ntf    cn124545   7.073   3.281   2.858  0.3818 -0.4731 -0.3885
 4229ntf    fn424546   6.600   2.994   2.796  0.1077  0.6829  0.3557
 4229ntf    fn424547   6.670   2.835   2.912  0.5734 -0.2548 -0.0156
 4229ntf    fn424548   6.672   3.035   2.981 -0.2393 -0.0860  0.4136
 4229ntf    on524549   6.950   2.958   2.910 -0.4206  0.2791  0.5500
 4229ntf    on524550   6.864   2.948   2.677  0.7576  0.3877  0.4522
 4229ntf    on524551   6.870   3.255   3.029  0.6556 -0.4929  0.0790
 4229ntf    on524552   6.847   3.406   2.843 -0.0395  0.3653  0.1678
 4229ntf    fn424553   7.102   3.279   2.728  0.4880  0.0707 -0.3767
 4229ntf    fn424554   7.126   3.390   2.911 -0.0007 -0.6804  0.4243
 4229ntf    fn424555   7.137   3.177   2.910  0.0412 -0.7397 -0.4955
 4230ntf    cn124556   1.643   5.410   2.868 -0.1840  0.6351  0.0556
 4230ntf    sn224557   1.540   5.386   3.016  0.2573 -0.4232  0.2070
 4230ntf    nn324558   1.441   5.275   2.966  0.1865 -0.2265 -0.0962
 4230ntf    sn224559   1.296   5.294   2.908  0.0740 -0.0736  0.2340
 4230ntf    cn124560   1.202   5.306   3.063  0.2682 -0.0745  0.3535
 4230ntf    fn424561   1.678   5.289   2.826  0.2745  0.7544  0.0870
 4230ntf    fn424562   1.590   5.473   2.765  0.7802  0.6824 -0.4239
 4230ntf    fn424563   1.759   5.470   2.888  0.1163  0.2187 -0.4284
 4230ntf    on524564   1.631   5.340   3.118  0.3226 -0.0200  0.3313
 4230ntf    on524565   1.493   5.521   3.037  0.2273 -0.4661  0.4200
 4230ntf    on524566   1.242   5.171   2.856 -0.9920  0.3152  0.3975
 4230ntf    on524567   1.258   5.414   2.838 -0.0329 -0.2036  0.0691
 4230ntf    fn424568   1.225   5.418   3.129  0.4025  0.2551 -0.2481
 4230ntf    fn424569   1.073   5.283   3.044  0.1290  0.5303  0.5647
 4230ntf    fn424570   1.233   5.207   3.146  0.2586 -0.1695  0.2440
 4231ntf    cn124571   7.124   7.107   6.845 -0.0587 -0.0994  0.1096
 4231ntf    sn224572   7.000   7.067   6.972 -0.2874 -0.1345 -0.1230
 4231ntf    nn324573   6.877   7.037   6.878 -0.1277  0.3821 -0.5051
 4231ntf    sn224574   6.775   6.918   6.879  0.3833 -0.0634  0.0940
 4231ntf    cn124575   6.621   6.997   6.824 -0.0469 -0.7719  0.2668
 4231ntf    fn424576   7.237   7.151   6.897  0.1248  0.0914 -0.4438
 4231ntf    fn424577   7.153   6.995   6.782 -0.2494 -0.2126  0.2230
 4231ntf    fn424578   7.092   7.198   6.754 -0.2586 -0.4256 -0.1496
 4231ntf    on524579   7.071   6.957   7.032 -0.4135 -0.2724 -0.2253
 4231ntf    on524580   6.986   7.197   7.033  0.0770 -0.0973 -0.1168
 4231ntf    on524581   6.747   6.854   7.005  0.0145 -0.4363 -0.1732
 4231ntf    on524582   6.795   6.831   6.766  1.2100 -0.1483  0.3000
 4231ntf    fn424583   6.627   7.060   6.707  0.2181 -0.5007  0.4263
 4231ntf    fn424584   6.524   6.911   6.797  0.0289 -0.6039 -0.5743
 4231ntf    fn424585   6.575   7.083   6.914  0.2469 -0.1383 -0.1779
 4232ntf    cn124586   3.627   3.966   6.077  0.3587 -0.2326  0.1097
 4232ntf    sn224587   3.798   3.952   6.137  0.2008  0.2632  0.6871
 4232ntf    nn324588   3.796   3.809   6.202 -0.0385 -0.1682 -0.2519
 4232ntf    sn224589   3.903   3.695   6.212  0.4809  0.3489  0.1759
 4232ntf    cn124590   3.887   3.621   6.377  0.2465 -0.0891 -0.0416
 4232ntf    fn424591   3.538   3.984   6.174 -0.2548 -0.4307 -0.4060
 4232ntf    fn424592   3.612   4.058   5.983  0.2317 -0.1413  0.2191
 4232ntf    fn424593   3.581   3.855   6.021 -0.2674  0.0230  0.0972
 4232ntf    on524594   3.877   3.962   6.017 -0.8048 -0.5102 -0.0591
 4232ntf    on524595   3.809   4.052   6.240  0.0719  0.5841  0.3934
 4232ntf    on524596   4.038   3.745   6.218  0.6721 -0.0878 -0.4212
 4232ntf    on524597   3.859   3.587   6.127  0.1203 -0.1401  0.9710
 4232ntf    fn424598   3.852   3.717   6.461 -0.1059  0.2788 -0.6050
 4232ntf    fn424599   3.792   3.532   6.401  0.2187  0.0003  0.1855
 4232ntf    fn424600   4.000   3.567   6.419  0.3056  0.3576  0.3798
 4233ntf    cn124601   0.926   0.466   2.415  0.1633 -0.1076 -0.5665
 4233ntf    sn224602   1.028   0.543   2.286  0.2216  0.5356 -0.1422
 4233ntf    nn324603   1.121   0.628   2.379  0.7943 -0.0067 -0.2147
 4233ntf    sn224604   1.103   0.779   2.415 -0.0334 -0.1597  0.0215
 4233ntf    cn124605   1.152   0.779   2.590  0.0311  0.4146  0.0059
 4233ntf    fn424606   0.992   0.404   2.512  0.3544  0.2143 -0.4880
 4233ntf    fn424607   0.849   0.551   2.480  0.2869 -0.3762 -0.0580
 4233ntf    fn424608   0.849   0.376   2.356 -0.0127  0.0031 -0.5072
 4233ntf    on524609   1.093   0.430   2.224 -0.1010  0.2861 -0.0339
 4233ntf    on524610   0.927   0.606   2.204 -0.1479 -0.3015 -0.3456
 4233ntf    on524611   0.964   0.817   2.424  0.0789  0.3543 -0.3695
 4233ntf    on524612   1.204   0.864   2.356  0.3396 -0.0881  0.7420
 4233ntf    fn424613   1.282   0.756   2.590  0.0160  0.3310  0.0052
 4233ntf    fn424614   1.136   0.894   2.655  0.0576  0.5339 -0.1994
 4233ntf    fn424615   1.096   0.686   2.666 -0.1161  0.0466 -0.5464
 4234ntf    cn124616   3.883   5.787   0.168  0.2365 -0.3441  0.3095
 4234ntf    sn224617   3.854   5.966   0.166  0.1989 -0.3536 -0.2880
 4234ntf    nn324618   3.759   5.973   0.291 -0.1364  0.2721 -0.5747
 4234ntf    sn224619   3.609   6.012   0.317  0.0008  0.3847  0.0644
 4234ntf    cn124620   3.624   6.053   0.494  0.2850 -0.2928  0.2000
 4234ntf    fn424621   3.927   5.733   0.056 -0.8871 -0.3117 -0.1637
 4234ntf    fn424622   3.960   5.749   0.268 -0.2292 -0.8102  0.4986
 4234ntf    fn424623   3.769   5.720   0.181 -0.3050  0.4400 -0.2894
 4234ntf    on524624   3.984   6.024   0.189  0.4273 -0.8559 -0.3047
 4234ntf    on524625   3.793   5.984   0.037 -0.4384 -0.0281  0.0531
 4234ntf    on524626   3.533   5.890   0.311 -0.1068  0.4764 -0.5502
 4234ntf    on524627   3.563   6.134   0.256  0.1786  0.6856  0.5270
 4234ntf    fn424628   3.510   6.096   0.544  0.2024  0.2159 -0.4085
 4234ntf    fn424629   3.671   5.946   0.557 -0.2249 -0.5668  0.1174
 4234ntf    fn424630   3.713   6.148   0.521  0.4809 -0.3924 -0.0776
 4235ntf    cn124631   3.822   5.143   1.946 -0.5460  0.2164 -0.1990
 4235ntf    sn224632   3.758   5.307   1.989 -0.1550  0.3057  0.0480
 4235ntf    nn324633   3.893   5.385   2.004 -0.0037  0.0684 -0.0859
 4235ntf    sn224634   3.954   5.475   1.890  0.2337 -0.2776 -0.2369
 4235ntf    cn124635   3.947   5.642   1.964 -0.0096 -0.2265 -0.3728
 4235ntf    fn424636   3.869   5.137   1.822  0.3981  0.1693  0.1503
 4235ntf    fn424637   3.920   5.111   2.028 -0.7993 -0.0506  0.0004
 4235ntf    fn424638   3.733   5.046   1.958 -0.2815  0.0400  0.3484
 4235ntf    on524639   3.667   5.347   1.884 -0.3108 -0.3936 -0.0866
 4235ntf    on524640   3.694   5.284   2.116  0.3619 -0.2050  0.2173
 4235ntf    on524641   3.874   5.501   1.773 -0.5295  0.5549  0.4531
 4235ntf    on524642   4.098   5.470   1.884  0.2354 -0.3288 -0.1604
 4235ntf    fn424643   3.983   5.735   1.876 -0.0301  0.3316  0.2044
 4235ntf    fn424644   3.831   5.687   2.007  0.2740  0.4577 -0.3190
 4235ntf    fn424645   4.022   5.660   2.071 -1.0322 -0.1840  0.3488
 4236ntf    cn124646   5.666   7.263   5.954 -0.0286  0.0457  0.1628
 4236ntf    sn224647   5.499   7.234   5.888 -0.0106  0.4214 -0.0531
 4236ntf    nn324648   5.519   7.110   5.793 -0.2990  0.2344  0.1302
 4236ntf    sn224649   5.413   6.998   5.764 -0.1799  0.2379 -0.3172
 4236ntf    cn124650   5.342   7.059   5.608  0.1347  0.5709 -0.3316
 4236ntf    fn424651   5.725   7.158   6.008 -0.1420 -0.1131 -0.0205
 4236ntf    fn424652   5.746   7.310   5.859 -0.1154  0.2105  0.1712
 4236ntf    fn424653   5.661   7.355   6.049 -0.1407  0.3004 -0.0874
 4236ntf    on524654   5.422   7.208   6.007 -0.0181  0.1572 -0.1143
 4236ntf    on524655   5.477   7.355   5.813  0.6373  0.6671  0.1446
 4236ntf    on524656   5.309   6.987   5.863  0.2006  0.1032  0.0731
 4236ntf    on524657   5.468   6.871   5.725  0.1604  0.2565  0.0890
 4236ntf    fn424658   5.426   7.072   5.507 -0.0319  0.3253 -0.5043
 4236ntf    fn424659   5.250   6.970   5.573  0.1876  0.1112  0.6613
 4236ntf    fn424660   5.274   7.172   5.617  0.1473  0.5515  0.0165
 4237ntf    cn124661   0.450   0.426   1.520  0.4075  0.0133 -0.0392
 4237ntf    sn224662   0.545   0.377   1.666  0.2326 -0.0680  0.0482
 4237ntf    nn324663   0.652   0.277   1.608 -0.1803 -0.2360 -0.4222
 4237ntf    sn224664   0.801   0.257   1.651 -0.1425  0.1328 -0.3786
 4237ntf    cn124665   0.788   0.088   1.716  0.3296  0.1935 -0.1160
 4237ntf    fn424666   0.342   0.495   1.553  0.3718  0.1885 -0.5116
 4237ntf    fn424667   0.527   0.491   1.435  0.6770 -0.2698 -0.0108
 4237ntf    fn424668   0.398   0.319   1.463  0.3036  0.1633 -0.2290
 4237ntf    on524669   0.601   0.504   1.704  0.2693 -0.0014 -0.2317
 4237ntf    on524670   0.449   0.320   1.757  0.4302 -0.4128  0.0428
 4237ntf    on524671   0.849   0.339   1.760  0.8688 -0.7899 -0.1060
 4237ntf    on524672   0.890   0.232   1.540 -0.3925  0.4858 -0.6599
 4237ntf    fn424673   0.907   0.037   1.742  0.1538 -0.0176  0.2908
 4237ntf    fn424674   0.717   0.073   1.827  0.0129 -0.1549 -0.3636
 4237ntf    fn424675   0.734   0.011   1.623  0.2375 -0.1989  0.2563
 4238ntf    cn124676   3.769   1.193   4.232 -0.0154  0.1970  0.0175
 4238ntf    sn224677   3.910   1.079   4.220 -0.0455  0.1709 -0.0918
 4238ntf    nn324678   3.837   0.957   4.154  0.0976  0.1010 -0.1212
 4238ntf    sn224679   3.824   0.808   4.201 -0.1111  0.1608  0.0121
 4238ntf    cn124680   3.990   0.737   4.224 -0.3519 -0.2630  0.4752
 4238ntf    fn424681   3.736   1.252   4.118 -0.4738  0.1861  0.1429
 4238ntf    fn424682   3.665   1.124   4.275  0.0013  0.2070  0.0738
 4238ntf    fn424683   3.784   1.292   4.318 -0.1049  0.3610 -0.1533
 4238ntf    on524684   4.007   1.140   4.131 -0.4136  0.1556 -0.5099
 4238ntf    on524685   3.961   1.073   4.354  0.1312  0.5658 -0.1381
 4238ntf    on524686   3.765   0.726   4.098  0.3464  0.0352 -0.1503
 4238ntf    on524687   3.777   0.805   4.337 -0.0903 -0.1066  0.0149
 4238ntf    fn424688   4.051   0.789   4.329 -0.5479 -1.1740  1.0476
 4238ntf    fn424689   3.983   0.607   4.247 -0.4661 -0.2358  0.5987
 4238ntf    fn424690   4.061   0.751   4.113 -0.4674 -0.0669  0.4248
 4239ntf    cn124691   2.182   1.199   2.000 -0.0856 -0.4843  0.3305
 4239ntf    sn224692   2.204   1.020   1.977 -0.2749 -0.4672  0.0096
 4239ntf    nn324693   2.316   1.002   2.086 -0.1291 -0.3503 -0.1210
 4239ntf    sn224694   2.471   0.983   2.073 -0.0892 -0.1292  0.0296
 4239ntf    cn124695   2.475   0.802   2.094 -0.2489 -0.1128  0.2005
 4239ntf    fn424696   2.114   1.255   1.901  0.4367  0.2669  0.3857
 4239ntf    fn424697   2.114   1.232   2.109  0.3764 -0.1686  0.5257
 4239ntf    fn424698   2.296   1.265   2.016 -0.1890 -0.3124  0.3548
 4239ntf    on524699   2.072   0.968   2.007 -0.3979 -0.2008 -0.0670
 4239ntf    on524700   2.245   1.018   1.839  0.3181 -0.0993  0.1757
 4239ntf    on524701   2.541   1.043   2.184  0.4805 -0.0653 -0.3579
 4239ntf    on524702   2.526   0.997   1.941 -0.3342  0.2604 -0.0308
 4239ntf    fn424703   2.440   0.773   2.219 -0.4675  0.1824  0.2081
 4239ntf    fn424704   2.393   0.741   2.011  0.0604  0.1266 -0.2823
 4239ntf    fn424705   2.596   0.752   2.076 -0.2733 -0.0583 -0.1163
 4240ntf    cn124706   0.709   4.094   2.838  0.1076  0.3020 -0.1438
 4240ntf    sn224707   0.657   4.204   2.973  0.0915  0.1402 -0.0183
 4240ntf    nn324708   0.557   4.311   2.919 -0.6318 -0.2907  0.4435
 4240ntf    sn224709   0.517   4.333   2.769  0.5940 -0.0511  0.1395
 4240ntf    cn124710   0.385   4.458   2.780  0.2268 -0.4122 -0.1273
 4240ntf    fn424711   0.805   4.015   2.883 -0.2501  0.3509  0.7225
 4240ntf    fn424712   0.614   4.015   2.790  0.0655  0.0681  0.3179
 4240ntf    fn424713   0.774   4.152   2.738  0.2446  0.0832 -0.1822
 4240ntf    on524714   0.586   4.118   3.065 -0.1042  0.4236  0.0941
 4240ntf    on524715   0.780   4.260   3.025  0.1259 -0.0096  0.0645
 4240ntf    on524716   0.439   4.222   2.720  0.2618  0.0443  0.4444
 4240ntf    on524717   0.615   4.390   2.680  0.4793  0.6304  0.4436
 4240ntf    fn424718   0.426   4.573   2.831 -0.3661  0.1419 -0.8812
 4240ntf    fn424719   0.342   4.486   2.658 -0.1169 -0.1922  0.0434
 4240ntf    fn424720   0.277   4.424   2.849 -0.1905  0.7901 -0.1573
 4241ntf    cn124721   7.065   2.878   6.006 -0.1903 -0.1423  0.2345
 4241ntf    sn224722   7.120   3.049   5.979 -0.0605 -0.2265 -0.0311
 4241ntf    nn324723   7.074   3.129   6.106 -0.0440 -0.2907  0.0150
 4241ntf    sn224724   7.152   3.132   6.242  0.0249 -0.0274 -0.0306
 4241ntf    cn124725   7.281   3.260   6.228  0.2002 -0.1385  0.5316
 4241ntf    fn424726   6.933   2.868   5.997 -0.2052  0.0582  0.2256
 4241ntf    fn424727   7.116   2.799   5.913 -0.5294  0.0408 -0.1091
 4241ntf    fn424728   7.105   2.835   6.125  0.1270  0.8414  0.4890
 4241ntf    on524729   7.263   3.040   5.963 -0.1084 -0.4640 -0.3406
 4241ntf    on524730   7.046   3.085   5.861  0.2697  0.2990 -0.0808
 4241ntf    on524731   7.219   3.006   6.261  0.5206  0.1592 -0.4965
 4241ntf    on524732   7.062   3.179   6.345 -0.0065  0.3655 -0.2349
 4241ntf    fn424733   7.344   3.235   6.115 -0.3870  0.5145  0.0457
 4241ntf    fn424734   7.239   3.386   6.226  0.3218 -0.1008  0.4080
 4241ntf    fn424735   7.366   3.257   6.329  0.2204  0.1936  0.5265
 4242ntf    cn124736   2.960   4.140   5.386  0.0603  0.1747 -0.2680
 4242ntf    sn224737   2.971   4.019   5.521 -0.0473  0.2792 -0.1657
 4242ntf    nn324738   2.940   3.884   5.446 -0.6322  0.4941 -0.3152
 4242ntf    sn224739   2.810   3.798   5.463  0.0197 -0.4042  0.1930
 4242ntf    cn124740   2.753   3.801   5.290  0.6064  0.1990  0.0046
 4242ntf    fn424741   2.844   4.126   5.324  0.1165  0.4880 -0.4459
 4242ntf    fn424742   2.964   4.265   5.430 -0.3124  0.0553  0.1167
 4242ntf    fn424743   3.053   4.133   5.292  0.4245  0.2310  0.0855
 4242ntf    on524744   3.109   4.024   5.562  0.0287 -0.3621 -0.3391
 4242ntf    on524745   2.872   4.078   5.608  0.0482  0.3014 -0.0715
 4242ntf    on524746   2.696   3.859   5.527  0.0212  0.2123 -0.3792
 4242ntf    on524747   2.836   3.659   5.489  0.2919 -0.3795  0.0552
 4242ntf    fn424748   2.647   3.722   5.276  0.8903 -0.0540 -0.7685
 4242ntf    fn424749   2.725   3.918   5.236 -0.0849  0.1183  0.1770
 4242ntf    fn424750   2.834   3.744   5.203 -0.0946 -0.1015 -0.4673
 4243ntf    cn124751   3.640   0.160   6.503  0.1642 -0.1021  0.5696
 4243ntf    sn224752   3.679  -0.014   6.538 -0.0058 -0.2732 -0.0884
 4243ntf    nn324753   3.819  -0.022   6.468  0.1503  0.1566  0.1711
 4243ntf    sn224754   3.966   0.019   6.508  0.0701  0.2890  0.3300
 4243ntf    cn124755   4.031   0.084   6.351 -0.0472 -0.0966  0.1190
 4243ntf    fn424756   3.699   0.203   6.392 -0.2997 -0.3559  0.2243
 4243ntf    fn424757   3.511   0.184   6.493  0.1359 -0.4119  0.2102
 4243ntf    fn424758   3.681   0.243   6.598 -0.3379  0.5661  0.2135
 4243ntf    on524759   3.654  -0.024   6.679  0.6929  0.3727  0.0853
 4243ntf    on524760   3.581  -0.083   6.459  0.1193 -0.3374 -0.1879
 4243ntf    on524761   4.049  -0.096   6.534 -0.3699  0.0722  0.7955
 4243ntf    on524762   3.971   0.135   6.593  0.7063  0.2643  0.3252
 4243ntf    fn424763   3.948   0.173   6.297 -0.1171 -0.2854 -0.0848
 4243ntf    fn424764   4.151   0.137   6.366 -0.1231 -0.1179  0.8223
 4243ntf    fn424765   4.051  -0.005   6.256  0.1650  0.2121 -0.1290
 4244ntf    cn124766   7.090   1.569   0.192  0.4392  0.0876  0.2481
 4244ntf    sn224767   7.053   1.714   0.089  0.1360 -0.2556 -0.1291
 4244ntf    nn324768   7.123   1.662  -0.042  0.4916 -0.2934  0.0746
 4244ntf    sn224769   7.074   1.651  -0.190  0.4301 -0.1935  0.0868
 4244ntf    cn124770   7.052   1.471  -0.205  0.0872 -0.1506  0.0618
 4244ntf    fn424771   6.988   1.487   0.211  0.1520  0.3139 -0.2931
 4244ntf    fn424772   7.184   1.498   0.132  0.3065 -0.1497  0.3188
 4244ntf    fn424773   7.136   1.604   0.311  0.0423 -0.2343  0.4996
 4244ntf    on524774   6.909   1.725   0.088  0.1341 -0.2148  0.3373
 4244ntf    on524775   7.127   1.817   0.157  0.4861 -0.7680  0.2705
 4244ntf    on524776   7.187   1.674  -0.276  0.2839 -0.1049 -0.0828
 4244ntf    on524777   6.948   1.710  -0.227  0.4006 -0.4196 -0.1773
 4244ntf    fn424778   7.165   1.409  -0.175 -0.0032 -0.1921  0.3206
 4244ntf    fn424779   6.963   1.426  -0.118  0.2114 -0.7573 -0.1198
 4244ntf    fn424780   7.021   1.437  -0.329 -0.6552 -0.1868  0.2505
 4245ntf    cn124781   4.481   3.066   3.397 -0.4871 -0.1503  0.0281
 4245ntf    sn224782   4.334   3.143   3.471 -0.3117  0.1834  0.0294
 4245ntf    nn324783   4.402   3.276   3.519 -0.2775  0.1580  0.0514
 4245ntf    sn224784   4.381   3.417   3.453 -0.3647  0.2495  0.2736
 4245ntf    cn124785   4.432   3.531   3.586  0.5766  0.0490  0.0913
 4245ntf    fn424786   4.574   3.060   3.491 -0.5771 -0.3800  0.1042
 4245ntf    fn424787   4.450   2.945   3.353 -0.2495 -0.1337 -0.1790
 4245ntf    fn424788   4.535   3.131   3.296  0.3610 -0.8103  0.0461
 4245ntf    on524789   4.243   3.152   3.359 -0.2808  0.6658  0.0393
 4245ntf    on524790   4.294   3.058   3.581 -0.0221 -0.1498 -0.1232
 4245ntf    on524791   4.245   3.462   3.438 -0.2415  0.5612  0.0759
 4245ntf    on524792   4.470   3.432   3.341  0.0545 -0.0275  0.5652
 4245ntf    fn424793   4.439   3.658   3.548  0.1594  0.0494  0.0185
 4245ntf    fn424794   4.354   3.529   3.692  1.0731  0.0871  0.4603
 4245ntf    fn424795   4.552   3.495   3.631  0.5447  0.0516  0.1782
 4246ntf    cn124796   3.047   5.460   0.887 -0.1354 -0.5181  0.3375
 4246ntf    sn224797   3.177   5.562   0.812 -0.4190 -0.0764  0.4450
 4246ntf    nn324798   3.262   5.600   0.939  0.2675 -0.3766  0.0807
 4246ntf    sn224799   3.419   5.593   0.944  0.2764 -0.1631  0.1262
 4246ntf    cn124800   3.463   5.754   0.870 -0.3339  0.0394  0.2016
 4246ntf    fn424801   2.979   5.540   0.968 -0.0738 -0.1457  0.0246
 4246ntf    fn424802   2.962   5.400   0.805 -0.1812  0.2487 -0.1796
 4246ntf    fn424803   3.107   5.371   0.965  0.6514 -0.4896 -0.2230
 4246ntf    on524804   3.239   5.485   0.707 -0.2527  0.4680  0.1362
 4246ntf    on524805   3.114   5.684   0.768  0.3017  0.6563  1.3988
 4246ntf    on524806   3.476   5.489   0.861 -0.1521 -0.1238 -0.2221
 4246ntf    on524807   3.469   5.600   1.079  0.1377 -0.8253  0.2140
 4246ntf    fn424808   3.402   5.845   0.945 -0.5181  0.3017 -0.2642
 4246ntf    fn424809   3.593   5.775   0.866 -0.3132 -0.1340 -0.0387
 4246ntf    fn424810   3.414   5.756   0.747  0.3491 -0.5790 -0.0901
 4247ntf    cn124811   3.482   6.392   3.389  0.1347  0.3412 -0.4000
 4247ntf    sn224812   3.600   6.356   3.523 -0.2114  0.0678 -0.1671
 4247ntf    nn324813   3.665   6.495   3.554 -0.0603 -0.0829  0.2001
 4247ntf    sn224814   3.818   6.524   3.578 -0.0767  0.1869 -0.0016
 4247ntf    cn124815   3.876   6.368   3.653  0.0413  0.1503 -0.1691
 4247ntf    fn424816   3.375   6.451   3.439  0.0194 -0.4276  0.2816
 4247ntf    fn424817   3.528   6.476   3.297  0.2136  0.3191 -0.3807
 4247ntf    fn424818   3.451   6.281   3.325 -0.2441 -0.0295  0.4093
 4247ntf    on524819   3.516   6.302   3.627  0.2875 -0.2815  0.0569
 4247ntf    on524820   3.694   6.262   3.467  0.3289  0.5898 -0.1436
 4247ntf    on524821   3.844   6.628   3.674  0.2266  0.1956 -0.0937
 4247ntf    on524822   3.885   6.546   3.453  0.7813  0.3062  0.4668
 4247ntf    fn424823   3.985   6.395   3.724 -0.2669 -0.0851  0.4003
 4247ntf    fn424824   3.790   6.321   3.742  0.2672  0.1158  0.0327
 4247ntf    fn424825   3.918   6.268   3.578  0.2616 -0.1199  0.3112
 4248ntf    cn124826   2.918   5.081   7.307  0.0904  0.0950  0.2330
 4248ntf    sn224827   3.064   5.182   7.266 -0.1778  0.3227 -0.1740
 4248ntf    nn324828   2.989   5.307   7.207  0.0577  0.5878  0.0897
 4248ntf    sn224829   2.953   5.326   7.056  0.0480  0.3312  0.0593
 4248ntf    cn124830   2.800   5.418   7.089  0.0780  0.3880  0.0382
 4248ntf    fn424831   2.833   5.054   7.209  0.0529  0.2446  0.2235
 4248ntf    fn424832   2.942   4.966   7.367  0.3327 -0.2244 -0.4581
 4248ntf    fn424833   2.847   5.149   7.395 -0.1841 -0.0382  0.1154
 4248ntf    on524834   3.125   5.212   7.393 -0.7087  0.3989  0.0652
 4248ntf    on524835   3.141   5.097   7.178  0.1677  0.3477  0.1051
 4248ntf    on524836   2.902   5.204   6.997  0.0766  0.6024 -0.5343
 4248ntf    on524837   3.034   5.409   6.970  0.5374  0.0703  0.2664
 4248ntf    fn424838   2.814   5.542   7.133 -0.1445  0.5335 -0.2927
 4248ntf    fn424839   2.729   5.422   6.977 -0.0051 -0.2184  0.0669
 4248ntf    fn424840   2.723   5.367   7.184 -0.4319  0.5070 -0.3023
 4249ntf    cn124841   2.059   6.198   4.994 -0.2540 -0.4050  0.0727
 4249ntf    sn224842   2.039   6.032   4.922  0.0703 -0.3768 -0.0806
 4249ntf    nn324843   2.129   6.033   4.793  0.0280 -0.1567 -0.1081
 4249ntf    sn224844   2.097   6.096   4.653  0.1531 -0.0548 -0.0917
 4249ntf    cn124845   2.247   6.076   4.551  0.1939  0.0082 -0.0434
 4249ntf    fn424846   2.033   6.204   5.123 -0.5234 -0.0167  0.0004
 4249ntf    fn424847   2.184   6.238   4.981 -0.2381 -0.5723 -0.3238
 4249ntf    fn424848   1.983   6.288   4.933 -0.1906 -0.3585  0.0631
 4249ntf    on524849   2.090   5.939   5.019 -0.6652 -0.5341  0.1612
 4249ntf    on524850   1.898   6.021   4.897 -0.0433 -0.2203  0.4771
 4249ntf    on524851   2.070   6.238   4.646  0.0560 -0.0891 -0.4482
 4249ntf    on524852   2.012   6.011   4.573 -0.1026  0.1701 -0.0582
 4249ntf    fn424853   2.218   6.118   4.429  0.1891 -0.2348 -0.1262
 4249ntf    fn424854   2.351   6.135   4.606  0.2349 -0.0914 -0.0154
 4249ntf    fn424855   2.278   5.948   4.556  0.5078  0.0977  0.2953
 4250ntf    cn124856   4.556   6.827   7.145 -0.4295  0.6077 -0.0671
 4250ntf    sn224857   4.420   6.712   7.182 -0.1263  0.1975 -0.2208
 4250ntf    nn324858   4.348   6.808   7.283 -0.3725 -0.0756 -0.1338
 4250ntf    sn224859   4.195   6.844   7.286 -0.3265  0.1018  0.1014
 4250ntf    cn124860   4.132   6.685   7.347  0.0078 -0.0893 -0.0485
 4250ntf    fn424861   4.654   6.765   7.081 -0.2930  0.5777  0.1731
 4250ntf    fn424862   4.510   6.916   7.058  0.1210  1.2090  0.2486
 4250ntf    fn424863   4.619   6.901   7.234 -0.0896  0.9252 -0.5604
 4250ntf    on524864   4.353   6.688   7.057 -0.3103 -0.0453 -0.0772
 4250ntf    on524865   4.490   6.601   7.243 -0.1989  0.2780  0.0083
 4250ntf    on524866   4.139   6.865   7.155  0.1095 -0.1814 -0.1325
 4250ntf    on524867   4.172   6.933   7.397 -0.1157 -0.7519  0.8419
 4250ntf    fn424868   4.158   6.584   7.266  0.6512  0.2734 -0.2978
 4250ntf    fn424869   4.201   6.651   7.455 -0.0279 -0.8829 -0.2734
 4250ntf    fn424870   4.003   6.692   7.377  0.1161 -0.2480  0.4740
 4251ntf    cn124871   4.280   1.789   7.154 -0.0346  0.0151 -0.2571
 4251ntf    sn224872   4.299   1.970   7.153 -0.0132  0.0141  0.0065
 4251ntf    nn324873   4.443   1.987   7.092  0.1531  0.2003  0.4439
 4251ntf    sn224874   4.578   1.916   7.127  0.1770 -0.0212 -0.0850
 4251ntf    cn124875   4.679   2.066   7.108 -0.0140  0.1727  0.4066
 4251ntf    fn424876   4.358   1.720   7.235 -0.5658  0.6734  0.8326
 4251ntf    fn424877   4.155   1.754   7.180  0.1225 -0.5019 -0.1781
 4251ntf    fn424878   4.309   1.740   7.034  0.2975  0.2865 -0.2865
 4251ntf    on524879   4.202   2.010   7.054 -0.0028  0.1607  0.0563
 4251ntf    on524880   4.288   2.023   7.287  0.0001  0.1276 -0.0374
 4251ntf    on524881   4.624   1.826   7.024 -0.1716 -0.0676 -0.1997
 4251ntf    on524882   4.589   1.860   7.260  0.7981 -0.7259 -0.4215
 4251ntf    fn424883   4.801   2.054   7.158 -0.0231 -0.7014  0.2336
 4251ntf    fn424884   4.683   2.094   6.978 -0.1725  0.3616  0.4419
 4251ntf    fn424885   4.628   2.165   7.178 -0.5673  0.0622  0.1687
 4252ntf    cn124886   3.106   0.296   4.463  0.2888  0.0505 -0.0801
 4252ntf    sn224887   3.272   0.253   4.404  0.3251 -0.0994  0.1292
 4252ntf    nn324888   3.281   0.101   4.441  0.1965 -0.0795  0.2450
 4252ntf    sn224889   3.312  -0.029   4.358 -0.0224 -0.1630  0.2949
 4252ntf    cn124890   3.170  -0.118   4.429 -0.0497 -0.1535  0.2519
 4252ntf    fn424891   3.016   0.204   4.432  0.5323 -0.1359 -0.2299
 4252ntf    fn424892   3.093   0.309   4.594  0.3320  0.1439 -0.0857
 4252ntf    fn424893   3.072   0.411   4.406  0.1093  0.0556  0.0347
 4252ntf    on524894   3.261   0.283   4.263  0.4717  0.3403  0.2091
 4252ntf    on524895   3.353   0.344   4.480 -0.2646  0.3162  0.2684
 4252ntf    on524896   3.427  -0.104   4.402  0.1867 -0.3223 -0.5017
 4252ntf    on524897   3.290  -0.011   4.217 -0.3694  0.1176  0.3824
 4252ntf    fn424898   3.172  -0.247   4.397 -0.1869 -0.1593  0.2671
 4252ntf    fn424899   3.157  -0.114   4.560 -0.1154  0.1474  0.2369
 4252ntf    fn424900   3.051  -0.077   4.386  0.1079 -0.1038 -0.1393
 4253ntf    cn124901   4.616   0.573   4.976  0.3810  0.0518 -0.3662
 4253ntf    sn224902   4.792   0.556   5.017  0.1564 -0.2070  0.5079
 4253ntf    nn324903   4.819   0.680   5.110 -0.1271  0.2070  0.0416
 4253ntf    sn224904   4.815   0.696   5.266  0.2228  0.1122  0.0634
 4253ntf    cn124905   4.991   0.730   5.296  0.1126  0.6063  0.1543
 4253ntf    fn424906   4.591   0.672   4.892  0.0330  0.1367 -0.1636
 4253ntf    fn424907   4.561   0.467   4.918  0.0336 -0.0642  0.1704
 4253ntf    fn424908   4.535   0.594   5.079  0.4581 -0.1230 -0.2699
 4253ntf    on524909   4.799   0.424   5.075  0.1135 -0.6031 -0.3708
 4253ntf    on524910   4.860   0.571   4.891 -0.3204  0.1332  0.2915
 4253ntf    on524911   4.797   0.575   5.342 -0.1050  0.2646  0.2282
 4253ntf    on524912   4.734   0.805   5.314  0.0824 -0.1386  0.3990
 4253ntf    fn424913   5.081   0.648   5.244 -0.2051  0.0158  0.5308
 4253ntf    fn424914   5.022   0.850   5.248 -0.0297  0.3084 -0.7050
 4253ntf    fn424915   5.001   0.742   5.427  0.1780  0.0609  0.1990
 4254ntf    cn124916   3.120   1.769   1.034 -0.4963  0.0648 -0.0989
 4254ntf    sn224917   3.090   1.628   1.145 -0.1858 -0.0548 -0.1678
 4254ntf    nn324918   3.206   1.537   1.090  0.2492  0.5280 -0.2330
 4254ntf    sn224919   3.321   1.457   1.161  0.0730  0.1396 -0.3826
 4254ntf    cn124920   3.454   1.580   1.176  0.4022 -0.2888  0.2550
 4254ntf    fn424921   3.037   1.872   1.041 -0.1780  0.3221 -0.0962
 4254ntf    fn424922   3.242   1.816   1.053 -0.2614 -0.6244  0.1181
 4254ntf    fn424923   3.106   1.716   0.914 -0.5514  0.2045 -0.1552
 4254ntf    on524924   3.126   1.685   1.273 -1.0603  0.4970 -0.1607
 4254ntf    on524925   2.955   1.585   1.123 -0.2044 -0.0532 -0.0581
 4254ntf    on524926   3.381   1.356   1.077 -0.1899 -0.2144 -0.1471
 4254ntf    on524927   3.296   1.425   1.299 -0.4371 -0.0227 -0.5082
 4254ntf    fn424928   3.571   1.526   1.205  0.6608  0.1873  0.1007
 4254ntf    fn424929   3.474   1.646   1.063  0.0099  0.5086  0.6399
 4254ntf    fn424930   3.424   1.670   1.268 -0.1274 -0.5215  0.3132
 4255ntf    cn124931   5.658   0.612   2.093 -0.0682 -0.3353 -0.1556
 4255ntf    sn224932   5.761   0.762   2.101 -0.3999 -0.0846 -0.5820
 4255ntf    nn324933   5.663   0.851   2.016 -0.6262  0.5113  0.2975
 4255ntf    sn224934   5.691   0.927   1.882  0.0451  0.0543  0.1774
 4255ntf    cn124935   5.654   0.790   1.768  0.0110 -0.2103  0.5053
 4255ntf    fn424936   5.568   0.622   1.997  0.0171  0.2620 -0.1739
 4255ntf    fn424937   5.734   0.508   2.061 -0.2858 -0.5755  0.1069
 4255ntf    fn424938   5.585   0.585   2.199 -0.4010 -0.7753 -0.4938
 4255ntf    on524939   5.758   0.781   2.244  0.1283 -0.1027 -0.5665
 4255ntf    on524940   5.889   0.730   2.044  0.0404  0.4464  0.0997
 4255ntf    on524941   5.829   0.957   1.853 -0.2225  0.4389 -0.7394
 4255ntf    on524942   5.590   1.025   1.856 -0.9082 -1.0325 -0.3134
 4255ntf    fn424943   5.666   0.817   1.639 -0.0703  0.2208  0.5871
 4255ntf    fn424944   5.725   0.680   1.788  0.5297 -0.0902 -0.6141
 4255ntf    fn424945   5.528   0.751   1.787 -0.1175 -0.0787 -0.0577
 4256ntf    cn124946   6.200   5.891   5.897  0.0282  0.0826 -0.4444
 4256ntf    sn224947   6.131   5.865   6.063  0.0974 -0.0676 -0.4395
 4256ntf    nn324948   5.977   5.864   6.034  0.0579 -0.3420 -0.2269
 4256ntf    sn224949   5.875   5.748   6.060 -0.0948 -0.0451  0.5214
 4256ntf    cn124950   5.766   5.743   5.914  0.4975 -0.0076  0.0742
 4256ntf    fn424951   6.156   6.005   5.846 -0.2379  0.4862  0.6637
 4256ntf    fn424952   6.332   5.897   5.889  0.0864 -0.6017 -0.0668
 4256ntf    fn424953   6.152   5.801   5.813  0.0482  0.0601 -0.4315
 4256ntf    on524954   6.188   5.744   6.117  0.4515  0.1452 -0.3344
 4256ntf    on524955   6.154   5.982   6.143  0.7438 -0.3623 -0.1856
 4256ntf    on524956   5.788   5.786   6.168 -0.0420  0.0500  0.5301
 4256ntf    on524957   5.912   5.608   6.067 -0.5579 -0.2071 -0.0999
 4256ntf    fn424958   5.712   5.861   5.890  0.3689 -0.0072  0.3556
 4256ntf    fn424959   5.842   5.712   5.810  0.2025  0.0586 -0.1612
 4256ntf    fn424960   5.669   5.653   5.917  0.4088  0.0862 -0.0117
 4257ntf    cn124961   0.970   5.353   4.802  0.1810 -0.1232  0.0866
 4257ntf    sn224962   0.955   5.431   4.638  0.1832  0.2568  0.2660
 4257ntf    nn324963   1.101   5.441   4.581  0.0874  0.6391  0.0809
 4257ntf    sn224964   1.149   5.495   4.442  0.0316 -0.3978 -0.3549
 4257ntf    cn124965   1.162   5.340   4.348  0.1845 -0.4039 -0.3256
 4257ntf    fn424966   1.035   5.239   4.791 -0.1790 -0.3137 -0.0967
 4257ntf    fn424967   1.042   5.431   4.881  0.1840 -0.2054  0.1644
 4257ntf    fn424968   0.855   5.323   4.860 -0.0346  0.4195 -0.0552
 4257ntf    on524969   0.874   5.328   4.577  0.3539 -0.0065  0.4821
 4257ntf    on524970   0.891   5.556   4.669  0.2636  0.3965 -0.1289
 4257ntf    on524971   1.286   5.541   4.448 -0.1515  0.1332 -0.1515
 4257ntf    on524972   1.049   5.577   4.379 -0.1073 -0.3530 -0.0785
 4257ntf    fn424973   1.060   5.257   4.356 -0.0241 -0.1932 -0.7204
 4257ntf    fn424974   1.178   5.365   4.219 -0.5286 -0.2888 -0.3989
 4257ntf    fn424975   1.266   5.269   4.386 -0.3649 -0.9029  0.2714
 4258ntf    cn124976   0.089   6.096   1.714  0.0439  0.1244  0.4512
 4258ntf    sn224977   0.245   6.097   1.808  0.1793  0.2983  0.2241
 4258ntf    nn324978   0.210   6.200   1.921  0.5380  0.9033 -0.2124
 4258ntf    sn224979   0.259   6.211   2.069 -0.0383 -0.0442  0.0574
 4258ntf    cn124980   0.110   6.157   2.159 -0.1113  0.3346  0.1672
 4258ntf    fn424981   0.060   6.218   1.670  0.4076  0.0339 -0.0468
 4258ntf    fn424982   0.098   6.016   1.609 -0.1547  0.4135  0.2116
 4258ntf    fn424983  -0.025   6.058   1.769 -0.3757  0.3610 -0.2394
 4258ntf    on524984   0.252   5.958   1.845  0.0429  0.3111  0.2992
 4258ntf    on524985   0.350   6.158   1.730  0.0327 -0.3164 -0.4711
 4258ntf    on524986   0.276   6.348   2.112 -0.0036 -0.0800  0.1571
 4258ntf    on524987   0.359   6.116   2.108 -0.5256 -0.4085  0.4289
 4258ntf    fn424988   0.102   6.028   2.135 -1.1259  0.4490 -0.1377
 4258ntf    fn424989   0.108   6.168   2.291 -0.2863  0.4492  0.1547
 4258ntf    fn424990   0.001   6.211   2.109  0.1732  0.6748 -0.0926
 4259ntf    cn124991   6.402   2.814   3.434  0.0094 -0.0079 -0.1734
 4259ntf    sn224992   6.474   2.836   3.599 -0.2808  0.1682 -0.0697
 4259ntf    nn324993   6.409   2.973   3.641 -0.2070  0.3215 -0.4476
 4259ntf    sn224994   6.284   2.995   3.734  0.1610 -0.2867  0.2027
 4259ntf    cn124995   6.299   3.173   3.770  0.1677 -0.2203 -0.1294
 4259ntf    fn424996   6.439   2.914   3.356 -0.2344  0.1966 -0.0277
 4259ntf    fn424997   6.439   2.697   3.383  0.3677  0.0332 -0.0091
 4259ntf    fn424998   6.270   2.817   3.439  0.0337  0.2267  0.4145
 4259ntf    on524999   6.436   2.714   3.666  0.5987  0.4882  1.0402
 4259ntf    on525000   6.615   2.855   3.576 -0.3802  0.4439 -0.4483
 4259ntf    on525001   6.290   2.932   3.864  0.0823 -0.0716  0.3110
 4259ntf    on525002   6.160   2.993   3.660 -0.2505  0.1617  0.8681
 4259ntf    fn425003   6.246   3.246   3.673  0.2637  0.1569  0.1026
 4259ntf    fn425004   6.247   3.219   3.882 -0.3222 -0.3264 -0.3094
 4259ntf    fn425005   6.428   3.200   3.772  0.1674 -0.1998 -0.3011
 4260ntf    cn125006   3.382   3.846   6.785  0.1341  0.2872 -0.0222
 4260ntf    sn225007   3.543   3.831   6.703 -0.0620 -0.0767 -0.3477
 4260ntf    nn325008   3.638   3.860   6.825 -0.0078 -0.4886 -0.2908
 4260ntf    sn225009   3.712   3.773   6.933 -0.0531 -0.0171  0.1241
 4260ntf    cn125010   3.863   3.873   6.950  0.0316  0.0068 -0.7297
 4260ntf    fn425011   3.382   3.761   6.887 -0.6242  0.0809 -0.1875
 4260ntf    fn425012   3.358   3.966   6.834  0.4529  0.4877 -0.3590
 4260ntf    fn425013   3.276   3.809   6.714  0.4276 -0.5003 -0.0678
 4260ntf    on525014   3.556   3.701   6.642  0.3303  0.0971 -0.6401
 4260ntf    on525015   3.550   3.946   6.616  0.0761 -0.4546 -0.8419
 4260ntf    on525016   3.763   3.644   6.895 -0.0231  0.0912 -0.2073
 4260ntf    on525017   3.649   3.790   7.062  0.2959 -0.0702  0.3023
 4260ntf    fn425018   3.940   3.854   6.844 -0.3482 -0.2869 -0.9564
 4260ntf    fn425019   3.841   4.003   6.954  0.0901  0.0138 -0.6415
 4260ntf    fn425020   3.938   3.832   7.051 -0.5627 -0.3304 -0.4226
 4261ntf    cn125021   4.309   4.578   6.203 -0.1638 -0.1180  0.2332
 4261ntf    sn225022   4.150   4.622   6.127  0.0299 -0.1528 -0.1946
 4261ntf    nn325023   4.186   4.709   6.002  0.9535 -0.1346  0.0823
 4261ntf    sn225024   4.219   4.653   5.859 -0.2677 -0.1368 -0.2043
 4261ntf    cn125025   4.182   4.807   5.769  0.1829 -0.1270 -0.3790
 4261ntf    fn425026   4.388   4.680   6.232 -0.0268 -0.2636  0.3729
 4261ntf    fn425027   4.288   4.506   6.312 -0.2949 -0.3470  0.0582
 4261ntf    fn425028   4.376   4.503   6.117 -0.6506 -0.1066 -0.1652
 4261ntf    on525029   4.094   4.490   6.107  0.3342 -0.2648 -0.3212
 4261ntf    on525030   4.099   4.696   6.239  0.3268  0.0007 -0.1622
 4261ntf    on525031   4.120   4.562   5.807 -0.0216 -0.7435  0.3778
 4261ntf    on525032   4.359   4.634   5.830 -0.0659  0.7027  0.1841
 4261ntf    fn425033   4.053   4.822   5.741  0.1149  0.0599  0.0176
 4261ntf    fn425034   4.214   4.912   5.843 -0.7337  0.1312 -0.3371
 4261ntf    fn425035   4.250   4.822   5.657 -0.0551 -0.0490 -0.5127
 4262ntf    cn125036   4.175   6.388   4.498 -0.3082  0.0409  0.0969
 4262ntf    sn225037   4.330   6.438   4.580 -0.1369  0.2385 -0.3412
 4262ntf    nn325038   4.410   6.304   4.597 -0.4550  0.1092  0.1585
 4262ntf    sn225039   4.515   6.282   4.711 -0.0686  0.1434 -0.1910
 4262ntf    cn125040   4.437   6.149   4.806  0.3727  0.0816  0.0904
 4262ntf    fn425041   4.188   6.331   4.379 -0.2133 -0.3706  0.3056
 4262ntf    fn425042   4.102   6.312   4.576  0.0404 -0.2408  0.1518
 4262ntf    fn425043   4.103   6.496   4.471 -0.2933  0.1338  0.4262
 4262ntf    on525044   4.388   6.526   4.482 -0.1295  0.0712 -0.4862
 4262ntf    on525045   4.283   6.491   4.706  0.4919  0.0754 -0.0374
 4262ntf    on525046   4.544   6.386   4.807  0.1367  0.0089 -0.1065
 4262ntf    on525047   4.631   6.213   4.659 -0.0819 -0.1202  0.1283
 4262ntf    fn425048   4.315   6.182   4.847  0.1736  0.1638 -0.5670
 4262ntf    fn425049   4.417   6.041   4.732 -0.2945  0.3619 -0.1450
 4262ntf    fn425050   4.510   6.112   4.911 -0.2290 -0.2481  0.4011
 4263ntf    cn125051   1.107   1.964   1.928 -0.0154  0.0814  0.4797
 4263ntf    sn225052   1.127   1.790   1.882 -0.2951  0.0916  0.3153
 4263ntf    nn325053   1.278   1.786   1.927 -0.1100 -0.1429 -0.3119
 4263ntf    sn225054   1.365   1.667   1.982  0.1617  0.1922 -0.0155
 4263ntf    cn125055   1.330   1.672   2.160  0.0788  0.2085 -0.0323
 4263ntf    fn425056   1.178   2.052   1.859 -0.4155 -0.0031 -0.0427
 4263ntf    fn425057   0.982   2.003   1.906 -0.2974 -0.6230  0.7932
 4263ntf    fn425058   1.129   1.981   2.057 -1.3442  0.0950  0.7235
 4263ntf    on525059   1.041   1.709   1.964 -0.0177 -0.6387 -0.1004
 4263ntf    on525060   1.101   1.790   1.740  0.3395 -0.6482  0.1863
 4263ntf    on525061   1.506   1.694   1.974  0.3219 -0.5750  0.1770
 4263ntf    on525062   1.317   1.541   1.930  0.5476  0.0377  0.0011
 4263ntf    fn425063   1.412   1.605   2.240 -0.3168  0.3583  0.5055
 4263ntf    fn425064   1.343   1.793   2.211  0.0988  0.1058  0.2074
 4263ntf    fn425065   1.210   1.622   2.185  0.2198 -0.1372 -0.0360
 4264ntf    cn125066   4.570   7.093   2.449  0.1039 -0.3395 -0.1481
 4264ntf    sn225067   4.394   7.123   2.482  0.1698 -0.1316  0.0161
 4264ntf    nn325068   4.329   7.100   2.341 -0.4264  0.7503  0.1390
 4264ntf    sn225069   4.183   7.138   2.298 -0.4694  0.2938 -0.1290
 4264ntf    cn125070   4.202   7.313   2.253  0.0689  0.3192  0.1875
 4264ntf    fn425071   4.641   7.204   2.440  0.2234 -0.3923  0.1225
 4264ntf    fn425072   4.626   7.015   2.541  1.1882  0.0501 -0.4568
 4264ntf    fn425073   4.600   7.025   2.339 -0.2048 -0.5094 -0.1304
 4264ntf    on525074   4.361   7.009   2.564  0.4280 -0.2067  0.0161
 4264ntf    on525075   4.393   7.258   2.532  0.1774 -0.2719  0.4021
 4264ntf    on525076   4.086   7.128   2.404 -0.0247 -0.2600  0.2371
 4264ntf    on525077   4.155   7.080   2.169 -0.1842  0.0299 -0.0738
 4264ntf    fn425078   4.103   7.368   2.185 -0.3392 -0.4741  0.1330
 4264ntf    fn425079   4.217   7.396   2.356 -0.2112  0.2704  0.2688
 4264ntf    fn425080   4.307   7.319   2.173 -0.0025  0.1287  0.0807
 4265ntf    cn125081   6.484   3.827   4.577 -0.2902 -0.3265  0.1516
 4265ntf    sn225082   6.630   3.842   4.469 -0.2929 -0.0448  0.1860
 4265ntf    nn325083   6.742   3.809   4.575 -0.3405 -0.4596  0.1104
 4265ntf    sn225084   6.808   3.671   4.610  0.2493 -0.1622  0.1857
 4265ntf    cn125085   6.818   3.710   4.787 -0.4813  0.4804  0.0916
 4265ntf    fn425086   6.514   3.900   4.683  0.8330  0.5172 -0.7223
 4265ntf    fn425087   6.373   3.865   4.516 -0.5764 -0.4048  0.6220
 4265ntf    fn425088   6.481   3.700   4.615 -0.1378 -0.3459  0.1021
 4265ntf    on525089   6.617   3.741   4.367 -0.4394 -0.2356  0.3927
 4265ntf    on525090   6.630   3.982   4.436 -0.4939 -0.0935 -0.0182
 4265ntf    on525091   6.944   3.655   4.565  0.1452 -0.4840 -0.0179
 4265ntf    on525092   6.725   3.553   4.612 -0.6644  0.4508 -0.4573
 4265ntf    fn425093   6.705   3.754   4.839 -0.8771 -0.0584 -0.3051
 4265ntf    fn425094   6.861   3.606   4.857  0.0116  0.7128  0.1441
 4265ntf    fn425095   6.908   3.807   4.802 -0.1563  0.3160 -0.7580
 4266ntf    cn125096   6.608   5.185   7.253  0.0481 -0.3214  0.2898
 4266ntf    sn225097   6.489   5.253   7.373 -0.3191 -0.1293 -0.1786
 4266ntf    nn325098   6.596   5.330   7.458 -0.4363 -0.2233  0.0556
 4266ntf    sn225099   6.568   5.472   7.519 -0.1864 -0.0383 -0.2542
 4266ntf    cn125100   6.625   5.579   7.383  0.0394  0.0112 -0.1197
 4266ntf    fn425101   6.690   5.281   7.216  0.2524 -0.4446  0.4215
 4266ntf    fn425102   6.699   5.103   7.304  0.4103  0.0912  0.3067
 4266ntf    fn425103   6.556   5.116   7.152 -0.2912 -0.0106  0.2496
 4266ntf    on525104   6.401   5.325   7.285 -0.4890  0.1942  0.2488
 4266ntf    on525105   6.427   5.143   7.443 -0.5819  0.0466 -0.1361
 4266ntf    on525106   6.665   5.501   7.622  0.1815 -0.0333 -0.6018
 4266ntf    on525107   6.427   5.498   7.536 -0.0797  0.1543  0.3451
 4266ntf    fn425108   6.757   5.569   7.382  0.0255 -0.1821 -0.2891
 4266ntf    fn425109   6.596   5.530   7.264 -0.4563 -0.3316  0.1389
 4266ntf    fn425110   6.596   5.707   7.396  0.2201  0.0188  0.2471
 4267ntf    cn125111   2.605   5.979   3.178  0.2018  0.4604 -0.0224
 4267ntf    sn225112   2.574   6.031   3.006 -0.1197 -0.1028 -0.1384
 4267ntf    nn325113   2.452   5.944   2.958 -0.7277  0.6944 -0.0642
 4267ntf    sn225114   2.394   5.922   2.814 -0.3024  0.0478 -0.1420
 4267ntf    cn125115   2.215   5.942   2.842 -0.2692  0.1127  0.0218
 4267ntf    fn425116   2.508   6.014   3.261 -0.0947 -0.1307 -0.1107
 4267ntf    fn425117   2.615   5.848   3.196 -0.2759  0.4557  0.2433
 4267ntf    fn425118   2.718   6.032   3.220  0.4891  0.2389 -0.5082
 4267ntf    on525119   2.536   6.169   3.023  0.2296 -0.0905  0.5635
 4267ntf    on525120   2.703   6.013   2.946 -0.0646  0.3509 -0.1587
 4267ntf    on525121   2.405   5.784   2.776 -0.1368  0.2361 -0.7817
 4267ntf    on525122   2.439   6.015   2.714 -0.9039  0.2721 -0.2093
 4267ntf    fn425123   2.201   6.062   2.898  0.8633  0.0677  0.4364
 4267ntf    fn425124   2.142   5.935   2.732  0.8758  0.1391 -0.7522
 4267ntf    fn425125   2.155   5.857   2.924  0.3982 -0.3361  0.0570
 4268ntf    cn125126   3.902   5.252   3.346  0.2376  0.4978 -0.3239
 4268ntf    sn225127   3.814   5.130   3.245 -0.2358  0.5946 -0.0321
 4268ntf    nn325128   3.767   5.038   3.363 -0.2317  0.3473 -0.2237
 4268ntf    sn225129   3.657   4.926   3.370 -0.1315  0.2794  0.2513
 4268ntf    cn125130   3.676   4.832   3.216  0.2734  0.2341  0.3282
 4268ntf    fn425131   3.832   5.317   3.438  0.2603  0.2708 -0.1472
 4268ntf    fn425132   4.000   5.199   3.417  0.1643  0.2832 -0.3836
 4268ntf    fn425133   3.957   5.348   3.273  0.4676  0.2726 -0.4459
 4268ntf    on525134   3.708   5.203   3.179 -0.2810  0.0134 -0.6213
 4268ntf    on525135   3.912   5.064   3.163 -0.2782 -0.1775  0.5260
 4268ntf    on525136   3.520   4.968   3.362 -0.2995 -0.3352 -0.1501
 4268ntf    on525137   3.681   4.831   3.476  0.0140  0.2027  0.1509
 4268ntf    fn425138   3.624   4.897   3.114  0.5142  0.3934  0.3063
 4268ntf    fn425139   3.801   4.804   3.182  0.0184 -0.3914 -0.1134
 4268ntf    fn425140   3.613   4.716   3.215  0.0284  0.3686  0.1806
 4269ntf    cn125141   6.134   1.492   6.248 -0.4267  0.3416  0.1066
 4269ntf    sn225142   6.139   1.391   6.097 -0.2455  0.0762  0.2871
 4269ntf    nn325143   5.986   1.375   6.070 -0.2923  0.1916  0.4811
 4269ntf    sn225144   5.876   1.484   6.044 -0.1724  0.1753 -0.1135
 4269ntf    cn125145   5.812   1.410   5.891  0.1358 -0.1227 -0.1004
 4269ntf    fn425146   6.255   1.537   6.274 -0.1264 -0.6376  0.4864
 4269ntf    fn425147   6.060   1.601   6.237 -0.3675  0.3594 -0.1065
 4269ntf    fn425148   6.096   1.433   6.361  0.4090 -0.2263  0.1017
 4269ntf    on525149   6.208   1.466   5.994 -0.1018  0.1378  0.4282
 4269ntf    on525150   6.201   1.270   6.143 -0.5531  0.0698  0.6793
 4269ntf    on525151   5.929   1.617   6.026  0.1829  0.1638  0.7547
 4269ntf    on525152   5.757   1.471   6.124 -0.0425 -0.0942  0.0377
 4269ntf    fn425153   5.891   1.436   5.789  0.4553  0.2154  0.2266
 4269ntf    fn425154   5.805   1.279   5.908 -0.2660 -0.0114  0.6804
 4269ntf    fn425155   5.695   1.468   5.869  0.4694  0.6380  0.0920
 4270ntf    cn125156   1.129   0.334   5.351 -0.1135 -0.1177  0.5390
 4270ntf    sn225157   1.287   0.286   5.427  0.1510  0.3473  0.2861
 4270ntf    nn325158   1.378   0.358   5.322  0.0609 -0.6400 -0.4777
 4270ntf    sn225159   1.535   0.354   5.317  0.0983  0.1162 -0.0842
 4270ntf    cn125160   1.568   0.220   5.198 -0.3484  0.1418 -0.2385
 4270ntf    fn425161   1.132   0.434   5.265  0.2268 -0.3713  0.2548
 4270ntf    fn425162   1.062   0.237   5.291  0.2299  0.2494 -0.4478
 4270ntf    fn425163   1.056   0.376   5.453  0.2507  0.7021  0.4666
 4270ntf    on525164   1.289   0.353   5.555 -0.5127  0.6365  0.1495
 4270ntf    on525165   1.286   0.142   5.419 -0.1739  0.3524  0.2276
 4270ntf    on525166   1.603   0.318   5.439 -0.5910 -0.4018  0.1562
 4270ntf    on525167   1.593   0.466   5.247 -0.6916  0.1461 -0.7055
 4270ntf    fn425168   1.531   0.237   5.072 -0.3937 -0.4270 -0.3071
 4270ntf    fn425169   1.693   0.178   5.196 -0.4412 -0.1470 -0.1307
 4270ntf    fn425170   1.511   0.107   5.238  0.3821  0.0023  0.4482
 4271ntf    cn125171   0.590   3.607   5.188  0.1564 -0.1206  0.1270
 4271ntf    sn225172   0.424   3.679   5.170  0.0701 -0.3359  0.0594
 4271ntf    nn325173   0.457   3.795   5.069 -0.3327 -0.4813 -0.2439
 4271ntf    sn225174   0.462   3.779   4.913 -0.0250  0.3023 -0.3179
 4271ntf    cn125175   0.603   3.883   4.865  0.2228  0.0735 -0.0869
 4271ntf    fn425176   0.640   3.611   5.310  0.3674  0.6788  0.0173
 4271ntf    fn425177   0.578   3.478   5.163 -0.7083  0.0290 -0.2619
 4271ntf    fn425178   0.680   3.665   5.110  0.1236  0.1398  0.2824
 4271ntf    on525179   0.341   3.576   5.111 -0.1398 -0.0480 -0.1516
 4271ntf    on525180   0.386   3.723   5.302 -0.3239 -0.4040 -0.0302
 4271ntf    on525181   0.341   3.841   4.864 -0.5160 -0.2027  0.2350
 4271ntf    on525182   0.500   3.653   4.854  0.0411  0.0500  0.2575
 4271ntf    fn425183   0.650   3.945   4.971  0.3752 -0.4057  0.1254
 4271ntf    fn425184   0.706   3.814   4.819 -0.1253 -0.8645  0.4978
 4271ntf    fn425185   0.569   3.973   4.774 -0.1440  0.3008  0.2724
 4272ntf    cn125186   0.384   6.048   4.620  0.3129 -0.4037  0.0980
 4272ntf    sn225187   0.342   6.012   4.448 -0.4726 -0.4193  0.2922
 4272ntf    nn325188   0.453   6.087   4.367 -0.7998 -0.4754 -0.2212
 4272ntf    sn225189   0.438   6.129   4.217  0.0089 -0.3814 -0.2839
 4272ntf    cn125190   0.576   6.244   4.189 -0.2383  0.0572  0.2766
 4272ntf    fn425191   0.290   6.019   4.709 -0.1433 -0.2225 -0.3231
 4272ntf    fn425192   0.493   5.984   4.659  0.2080 -0.5219  0.1955
 4272ntf    fn425193   0.395   6.180   4.634 -0.0841 -0.3304 -0.2689
 4272ntf    on525194   0.359   5.868   4.446  0.2078 -0.3342 -0.0956
 4272ntf    on525195   0.207   6.062   4.439 -0.0669  0.5229 -0.9184
 4272ntf    on525196   0.320   6.206   4.186  0.0359  0.1157  0.8070
 4272ntf    on525197   0.472   6.015   4.136  0.0639 -0.4653 -0.1422
 4272ntf    fn425198   0.560   6.344   4.274 -0.2806  0.0969  0.2216
 4272ntf    fn425199   0.686   6.183   4.232  0.0982  0.5265  0.0822
 4272ntf    fn425200   0.604   6.298   4.072  0.0462  0.0172  0.3271
 4273ntf    cn125201   5.375   1.191   7.103  0.4382 -0.4571  0.2703
 4273ntf    sn225202   5.527   1.110   7.045  0.3083 -0.3814 -0.1777
 4273ntf    nn325203   5.614   1.232   6.999 -0.5509  0.2062 -0.2729
 4273ntf    sn225204   5.639   1.290   6.855 -0.0437 -0.1930 -0.3492
 4273ntf    cn125205   5.794   1.206   6.809  0.1996 -0.1522  0.3717
 4273ntf    fn425206   5.269   1.112   7.098 -0.0222  0.1617  0.0704
 4273ntf    fn425207   5.380   1.237   7.227 -0.3023 -0.0640  0.1565
 4273ntf    fn425208   5.340   1.291   7.023 -0.0909 -0.4699  0.4836
 4273ntf    on525209   5.594   1.061   7.163 -0.0072 -0.1838  0.0856
 4273ntf    on525210   5.485   1.003   6.958 -0.0233 -0.0363 -0.4459
 4273ntf    on525211   5.675   1.430   6.858 -0.6241 -0.0447  0.0068
 4273ntf    on525212   5.540   1.248   6.759  0.3141 -0.1977 -0.7185
 4273ntf    fn425213   5.846   1.268   6.704  0.3134  0.3240  0.7072
 4273ntf    fn425214   5.881   1.209   6.908 -0.3593  0.6348  0.8512
 4273ntf    fn425215   5.773   1.079   6.780  0.0370 -0.0403 -0.0168
 4274ntf    cn125216   0.634   1.322   0.143  0.0120  0.6107  0.0616
 4274ntf    sn225217   0.497   1.203   0.143  0.4246  0.1308 -0.1522
 4274ntf    nn325218   0.492   1.140  -0.001 -0.3129  0.1319 -0.1333
 4274ntf    sn225219   0.607   1.058  -0.069 -0.3811  0.0536 -0.1545
 4274ntf    cn125220   0.515   0.903  -0.093 -0.2726  0.0367 -0.4636
 4274ntf    fn425221   0.635   1.410   0.242  0.7634  0.1976  0.4289
 4274ntf    fn425222   0.755   1.269   0.130 -0.2846 -0.0414 -0.0652
 4274ntf    fn425223   0.635   1.394   0.031  0.2608  0.0419 -0.3087
 4274ntf    on525224   0.534   1.107   0.244 -0.3576  0.1832  0.1927
 4274ntf    on525225   0.387   1.292   0.169 -0.0462 -0.5883  0.3707
 4274ntf    on525226   0.725   1.027   0.008 -0.2701  0.3055 -0.2216
 4274ntf    on525227   0.630   1.096  -0.206  0.3349 -0.3428 -0.1515
 4274ntf    fn425228   0.403   0.934  -0.157 -0.4548  1.1353  0.3575
 4274ntf    fn425229   0.568   0.809  -0.169  0.5816  0.2077 -0.0866
 4274ntf    fn425230   0.480   0.855   0.025 -0.4786 -0.2615 -0.6472
 4275ntf    cn125231   1.461   2.736   5.817 -0.4437 -0.2125 -0.1771
 4275ntf    sn225232   1.424   2.830   5.969 -0.1061 -0.6524  0.1800
 4275ntf    nn325233   1.335   2.940   5.901 -0.3396 -0.7181  0.3777
 4275ntf    sn225234   1.188   2.934   5.845 -0.1404  0.1851 -0.2624
 4275ntf    cn125235   1.082   2.991   5.981 -0.0244  0.0857 -0.1294
 4275ntf    fn425236   1.521   2.817   5.732 -0.9821  0.3018 -0.0806
 4275ntf    fn425237   1.554   2.644   5.835 -0.3941 -0.2041 -0.3997
 4275ntf    fn425238   1.359   2.678   5.757 -0.2416 -0.3496 -0.3870
 4275ntf    on525239   1.368   2.744   6.070  0.1304 -0.9296  0.0765
 4275ntf    on525240   1.551   2.888   6.004 -0.3686 -0.0621  0.1782
 4275ntf    on525241   1.137   2.801   5.827 -0.8759  0.4343 -0.0402
 4275ntf    on525242   1.163   3.026   5.736 -0.2123  0.8712  0.3235
 4275ntf    fn425243   1.076   2.908   6.084 -0.7101 -0.3430 -0.5069
 4275ntf    fn425244   1.118   3.109   6.028 -0.6429  0.1883  0.1018
 4275ntf    fn425245   0.954   2.997   5.947 -0.1309 -0.0678  0.2370
 4276ntf    cn125246   1.117   3.916   1.113  0.1902 -0.0856  0.7322
 4276ntf    sn225247   0.982   4.037   1.132  0.1342 -0.0143 -0.0803
 4276ntf    nn325248   0.859   3.941   1.120 -0.0047  0.1992 -0.3616
 4276ntf    sn225249   0.753   3.899   1.228  0.0936  0.1030 -0.3032
 4276ntf    cn125250   0.829   3.760   1.318 -0.3628 -0.0054 -0.0812
 4276ntf    fn425251   1.233   3.978   1.128 -0.0116  0.3414  0.5668
 4276ntf    fn425252   1.121   3.819   1.202 -0.3690 -0.8709 -0.0837
 4276ntf    fn425253   1.120   3.864   0.991 -0.8523  0.4752  0.4606
 4276ntf    on525254   0.996   4.087   1.267  0.2979 -0.4348  0.0616
 4276ntf    on525255   1.005   4.120   1.016 -0.1771  0.1819 -0.0013
 4276ntf    on525256   0.635   3.832   1.179 -0.0154  0.4314 -0.4880
 4276ntf    on525257   0.726   4.004   1.323  0.8468 -0.3903  0.4700
 4276ntf    fn425258   0.753   3.709   1.413 -0.2426 -0.0238  0.0063
 4276ntf    fn425259   0.876   3.662   1.242 -0.4590  0.4198 -0.6955
 4276ntf    fn425260   0.943   3.798   1.374 -0.5413  0.4010  0.0100
 4277ntf    cn125261   4.913   0.602   1.755  0.1446 -0.2619 -0.2539
 4277ntf    sn225262   5.040   0.589   1.626  0.0208  0.1752 -0.4193
 4277ntf    nn325263   5.075   0.739   1.596 -0.2366  0.3146 -0.0299
 4277ntf    sn225264   5.217   0.787   1.549 -0.1279  0.2814  0.2626
 4277ntf    cn125265   5.145   0.891   1.418  0.1299  0.1986  0.0540
 4277ntf    fn425266   4.841   0.712   1.745  0.0914 -0.2816 -0.1017
 4277ntf    fn425267   4.828   0.500   1.757 -0.1561 -0.0069 -0.0250
 4277ntf    fn425268   4.972   0.606   1.874 -0.5009 -0.3703  0.0761
 4277ntf    on525269   5.138   0.502   1.685 -0.2526  0.0222 -0.1898
 4277ntf    on525270   4.963   0.545   1.511  0.6995  0.1044 -0.8528
 4277ntf    on525271   5.297   0.690   1.479  0.0539  0.7102 -0.1309
 4277ntf    on525272   5.272   0.886   1.637 -0.1866  0.0145  0.6014
 4277ntf    fn425273   5.233   0.953   1.342 -0.2581  0.5442 -0.1196
 4277ntf    fn425274   5.069   0.823   1.333  0.0285 -0.0664  0.3546
 4277ntf    fn425275   5.072   0.987   1.472 -0.2877  0.0139 -0.1692
 4278ntf    cn125276   5.575   0.986   3.654 -0.1379  0.1734  0.0403
 4278ntf    sn225277   5.572   1.119   3.530 -0.0184  0.0915 -0.0514
 4278ntf    nn325278   5.439   1.083   3.454 -0.4992  0.4886  0.5877
 4278ntf    sn225279   5.378   1.136   3.320 -0.0155  0.5618  0.3945
 4278ntf    cn125280   5.252   1.246   3.390 -0.5490  0.0755  0.2086
 4278ntf    fn425281   5.659   1.007   3.754 -0.7209  0.3098  0.5089
 4278ntf    fn425282   5.460   0.951   3.710 -0.1442 -0.4990 -0.3739
 4278ntf    fn425283   5.615   0.869   3.606 -0.2963 -0.1958  0.7824
 4278ntf    on525284   5.579   1.245   3.601 -0.5703  0.0787  0.0348
 4278ntf    on525285   5.684   1.089   3.445  0.2616 -0.0049  0.3465
 4278ntf    on525286   5.306   1.040   3.240  0.4041 -0.0915  0.7923
 4278ntf    on525287   5.457   1.229   3.242  0.5860 -0.4380 -0.2140
 4278ntf    fn425288   5.311   1.342   3.459  0.2762 -0.3392  0.0899
 4278ntf    fn425289   5.167   1.298   3.303  0.0273  0.3207 -0.2204
 4278ntf    fn425290   5.182   1.177   3.478 -0.0690 -0.2512  0.3367
 4279ntf    cn125291   6.347   3.560   0.781  0.3658  0.1535 -0.9264
 4279ntf    sn225292   6.478   3.538   0.905 -0.2001 -0.2089 -0.3861
 4279ntf    nn325293   6.430   3.407   0.979 -0.3071 -0.3052 -0.6255
 4279ntf    sn225294   6.475   3.257   0.968 -0.2461 -0.3404  0.1133
 4279ntf    cn125295   6.622   3.252   1.076  0.0854  0.3396 -0.3008
 4279ntf    fn425296   6.229   3.586   0.837  0.5041 -0.3565 -0.3848
 4279ntf    fn425297   6.363   3.654   0.690 -0.6708  0.6354 -0.6217
 4279ntf    fn425298   6.328   3.445   0.718 -0.0821 -0.2195 -0.1328
 4279ntf    on525299   6.600   3.538   0.828 -0.2076 -0.4559 -0.4008
 4279ntf    on525300   6.468   3.649   0.996  0.0126 -0.8582  0.4395
 4279ntf    on525301   6.529   3.228   0.838  0.4379  0.3231  0.2399
 4279ntf    on525302   6.383   3.165   1.028  0.0623 -0.5244  0.3093
 4279ntf    fn425303   6.713   3.335   1.026  0.5500  0.1184  0.1729
 4279ntf    fn425304   6.601   3.283   1.203  0.3925 -0.2679 -0.1023
 4279ntf    fn425305   6.686   3.137   1.079  0.2456  0.4245 -0.4412
 4280ntf    cn125306   4.890   1.202   5.535 -0.1101  0.2853  0.0853
 4280ntf    sn225307   4.898   1.356   5.631  0.1226  0.1093  0.3500
 4280ntf    nn325308   4.784   1.326   5.735  0.1358  0.1882  0.3869
 4280ntf    sn225309   4.691   1.437   5.796 -0.1963  0.0122  0.2071
 4280ntf    cn125310   4.764   1.472   5.958  0.1880  0.0018  0.0393
 4280ntf    fn425311   4.979   1.199   5.437 -0.0778  0.9607  0.0847
 4280ntf    fn425312   4.917   1.094   5.607  0.4788  0.5119  0.2106
 4280ntf    fn425313   4.768   1.183   5.489 -0.2868  0.0989  0.6150
 4280ntf    on525314   5.032   1.344   5.684  0.3555 -0.3066 -0.3288
 4280ntf    on525315   4.872   1.462   5.537 -0.0932  0.3761  0.7049
 4280ntf    on525316   4.563   1.381   5.830 -0.3570  0.1257 -0.1966
 4280ntf    on525317   4.693   1.564   5.726  0.2997  0.1387  0.4423
 4280ntf    fn425318   4.694   1.553   6.037  0.1918 -0.4515  0.5118
 4280ntf    fn425319   4.751   1.361   6.028 -0.2229  0.1007  0.1223
 4280ntf    fn425320   4.893   1.501   5.955  0.1403  0.2898  0.5612
 4281ntf    cn125321   1.682   1.224   5.257  0.0525  0.1208  0.0955
 4281ntf    sn225322   1.507   1.239   5.302  0.1131 -0.0152  0.3797
 4281ntf    nn325323   1.499   1.394   5.279  0.1637 -0.0404  0.1921
 4281ntf    sn225324   1.447   1.500   5.382 -0.0623 -0.1314  0.1722
 4281ntf    cn125325   1.525   1.647   5.310  0.0082 -0.3528 -0.2048
 4281ntf    fn425326   1.705   1.299   5.150 -1.0812  1.0057  0.4577
 4281ntf    fn425327   1.764   1.270   5.351  0.5900 -0.1416 -0.2399
 4281ntf    fn425328   1.726   1.102   5.229 -0.7759 -0.2517  0.3891
 4281ntf    on525329   1.441   1.167   5.195 -0.1982 -0.0498  0.5918
 4281ntf    on525330   1.504   1.182   5.434 -0.4200 -0.2965  0.2507
 4281ntf    on525331   1.507   1.491   5.513 -0.0031  0.2036  0.1693
 4281ntf    on525332   1.307   1.536   5.379  0.0438  0.2900  0.1958
 4281ntf    fn425333   1.652   1.655   5.346  0.1009 -0.1473 -0.5697
 4281ntf    fn425334   1.529   1.641   5.178  0.1252 -0.5628 -0.1920
 4281ntf    fn425335   1.472   1.762   5.348  0.1828 -0.6245  0.9100
 4282ntf    cn125336   0.219   1.630   5.485 -0.0008  0.4041 -0.3926
 4282ntf    sn225337   0.177   1.652   5.309 -0.3338 -0.0594 -0.3721
 4282ntf    nn325338   0.078   1.774   5.323  0.3617  0.4363  0.3622
 4282ntf    sn225339  -0.030   1.821   5.219  0.0195  0.1211  0.5708
 4282ntf    cn125340   0.075   1.937   5.126 -0.2718 -0.0361  0.0418
 4282ntf    fn425341   0.293   1.528   5.526  0.2540  0.9029  0.4091
 4282ntf    fn425342   0.275   1.740   5.533 -0.2651  0.1395  0.5303
 4282ntf    fn425343   0.108   1.623   5.556  0.0150 -0.6496 -0.4686
 4282ntf    on525344   0.301   1.669   5.238  0.0946 -0.4785  0.2706
 4282ntf    on525345   0.113   1.526   5.280  0.1470 -0.3937  0.0003
 4282ntf    on525346  -0.135   1.900   5.276 -0.3874 -0.2723  0.3725
 4282ntf    on525347  -0.067   1.719   5.124  0.2214  0.3069  0.2882
 4282ntf    fn425348   0.030   1.992   5.014  0.5248 -0.2055 -0.3680
 4282ntf    fn425349   0.110   2.036   5.206  0.4430  0.0360 -0.3549
 4282ntf    fn425350   0.188   1.877   5.093 -0.1995  0.1112  0.0220
 4283ntf    cn125351   1.055   3.934   3.893 -0.0054  0.1001 -0.0221
 4283ntf    sn225352   1.236   3.925   3.885 -0.0198 -0.1971 -0.0221
 4283ntf    nn325353   1.259   3.770   3.895 -0.3426 -0.2395  0.0735
 4283ntf    sn225354   1.376   3.688   3.830 -0.2722  0.0000 -0.1027
 4283ntf    cn125355   1.502   3.701   3.961 -0.0572 -0.3132 -0.2792
 4283ntf    fn425356   1.001   3.875   3.788 -0.3253 -0.2071  0.3083
 4283ntf    fn425357   1.008   3.871   4.000  0.3676 -0.7165 -0.3380
 4283ntf    fn425358   1.006   4.057   3.890 -0.6990 -0.1790 -0.2606
 4283ntf    on525359   1.263   3.980   3.754 -0.2607 -0.1109 -0.0357
 4283ntf    on525360   1.273   3.999   4.003 -0.5384 -0.1271  0.0989
 4283ntf    on525361   1.433   3.745   3.710  0.1002 -0.4257 -0.1321
 4283ntf    on525362   1.348   3.547   3.824 -0.2651 -0.0683  1.0683
 4283ntf    fn425363   1.439   3.721   4.076  0.1897 -0.7454 -0.0639
 4283ntf    fn425364   1.580   3.594   3.969  0.1560 -0.1339  0.0726
 4283ntf    fn425365   1.589   3.799   3.943 -0.5559  0.2814  0.4860
 4284ntf    cn125366   2.893   3.155   7.000  0.1161  0.0620  0.3462
 4284ntf    sn225367   2.970   3.201   7.159 -0.1484 -0.1402  0.5332
 4284ntf    nn325368   3.037   3.337   7.121  0.5382 -0.6571 -0.1384
 4284ntf    sn225369   3.175   3.372   7.055  0.5253 -0.1515  0.0955
 4284ntf    cn125370   3.123   3.413   6.885 -0.3570 -0.1975  0.3518
 4284ntf    fn425371   2.824   3.249   6.938  0.2508 -0.0203  0.0739
 4284ntf    fn425372   2.981   3.112   6.911 -0.2585  0.3730 -0.1777
 4284ntf    fn425373   2.809   3.056   7.023  0.1140  0.0179  0.1435
 4284ntf    on525374   2.852   3.225   7.239 -0.2852 -0.1222  0.3275
 4284ntf    on525375   3.049   3.086   7.194 -0.2467 -0.5993 -0.6849
 4284ntf    on525376   3.277   3.271   7.042  0.5706 -0.1815  0.6613
 4284ntf    on525377   3.225   3.504   7.085  0.1176  0.0202  0.0324
 4284ntf    fn425378   3.057   3.314   6.827 -0.4400 -0.5124  0.9642
 4284ntf    fn425379   3.047   3.521   6.879  0.2990  0.2455 -0.1773
 4284ntf    fn425380   3.236   3.435   6.821 -0.4669 -0.9908 -0.1344
 4285ntf    cn125381   0.476   7.274   0.171  0.1078  0.0399 -0.5846
 4285ntf    sn225382   0.446   7.136   0.056  0.2193  0.0254 -0.5964
 4285ntf    nn325383   0.583   7.060   0.061  0.1571 -0.0428  0.1488
 4285ntf    sn225384   0.672   7.021  -0.062 -0.0508 -0.1792  0.0410
 4285ntf    cn125385   0.714   6.854  -0.002 -0.0944 -0.2074 -0.0062
 4285ntf    fn425386   0.391   7.373   0.151  0.3518  0.4576  0.3864
 4285ntf    fn425387   0.467   7.244   0.299 -0.0241  0.4781 -0.4922
 4285ntf    fn425388   0.602   7.314   0.161  0.4531 -0.9494 -0.4041
 4285ntf    on525389   0.343   7.057   0.117  0.5310  0.3379  0.3442
 4285ntf    on525390   0.409   7.196  -0.070  0.1925  0.1515 -0.5289
 4285ntf    on525391   0.799   7.089  -0.066  0.0846 -0.4368 -0.0854
 4285ntf    on525392   0.608   6.989  -0.188  0.3889 -0.3222 -0.1488
 4285ntf    fn425393   0.817   6.816  -0.076 -0.4049 -0.2272 -0.4341
 4285ntf    fn425394   0.759   6.866   0.122 -0.0464 -0.3408 -0.0113
 4285ntf    fn425395   0.615   6.766  -0.003 -0.6320  0.3856 -0.3167
 4286ntf    cn125396   2.884   0.637   3.699 -0.2030  0.3321 -0.3095
 4286ntf    sn225397   2.950   0.479   3.637  0.2742  0.4864 -0.2015
 4286ntf    nn325398   3.007   0.534   3.502  0.5303  0.3141 -0.1634
 4286ntf    sn225399   3.148   0.513   3.436  0.4620  0.4956 -0.3699
 4286ntf    cn125400   3.255   0.636   3.517 -0.2736  0.6956  0.3056
 4286ntf    fn425401   2.866   0.627   3.830 -0.8470  0.4286 -0.3875
 4286ntf    fn425402   2.969   0.738   3.691  0.0237  0.1275 -0.5086
 4286ntf    fn425403   2.774   0.669   3.633 -0.2094 -0.2521 -0.5980
 4286ntf    on525404   3.035   0.433   3.744  0.0089  0.1539 -0.1305
 4286ntf    on525405   2.830   0.403   3.611  0.1621  0.7561 -0.4693
 4286ntf    on525406   3.143   0.558   3.299  0.0310  0.1663 -0.4635
 4286ntf    on525407   3.205   0.383   3.464 -0.3521  0.0616 -0.7000
 4286ntf    fn425408   3.207   0.759   3.505  0.0605  0.7536 -0.4486
 4286ntf    fn425409   3.273   0.620   3.647 -0.3008 -0.0958  0.2190
 4286ntf    fn425410   3.380   0.640   3.474 -0.1618  0.6846  0.6248
 4287ntf    cn125411   2.013   6.729   3.087 -0.1297  0.0100  0.1121
 4287ntf    sn225412   1.958   6.802   3.244 -0.0195  0.1672  0.0777
 4287ntf    nn325413   1.803   6.794   3.226 -0.0149 -0.2493  0.2060
 4287ntf    sn225414   1.705   6.890   3.150 -0.0604 -0.2976  0.2032
 4287ntf    cn125415   1.623   6.758   3.056 -0.0713 -0.0913 -0.0809
 4287ntf    fn425416   1.936   6.748   2.981  0.0779 -0.0526 -0.0520
 4287ntf    fn425417   2.140   6.750   3.057 -0.1509 -0.3383 -0.2199
 4287ntf    fn425418   2.010   6.597   3.095  0.1208 -0.0190 -0.2286
 4287ntf    on525419   1.995   6.698   3.337  0.1446  0.2882  0.1494
 4287ntf    on525420   2.022   6.931   3.255 -0.0636  0.2126 -0.1979
 4287ntf    on525421   1.762   6.976   3.049  0.2707 -0.6859  0.0571
 4287ntf    on525422   1.602   6.955   3.227 -0.2889 -0.3211 -0.0780
 4287ntf    fn425423   1.546   6.675   3.125 -0.7418  0.4832 -0.1279
 4287ntf    fn425424   1.537   6.806   2.968  0.2025  0.4891 -0.0369
 4287ntf    fn425425   1.705   6.688   2.980  0.1200  0.2176 -0.1573
 4288ntf    cn125426   6.057   4.748   6.087 -0.0863 -0.2781  0.3446
 4288ntf    sn225427   5.880   4.741   6.128 -0.2633  0.3625 -0.2882
 4288ntf    nn325428   5.847   4.617   6.038 -0.8183  0.3310 -0.0453
 4288ntf    sn225429   5.786   4.473   6.056 -0.2876  0.0851 -0.2017
 4288ntf    cn125430   5.635   4.509   5.961 -0.3412 -0.1151 -0.1936
 4288ntf    fn425431   6.115   4.856   6.138 -0.0168 -0.4591  0.6520
 4288ntf    fn425432   6.127   4.642   6.124  0.5932  0.1033  0.1644
 4288ntf    fn425433   6.075   4.767   5.957  0.3744 -0.4307  0.3839
 4288ntf    on525434   5.877   4.716   6.270 -0.1559 -0.0365 -0.3549
 4288ntf    on525435   5.825   4.866   6.081 -0.2503  0.3757 -0.2681
 4288ntf    on525436   5.740   4.432   6.186 -0.8358  0.5322 -0.2546
 4288ntf    on525437   5.861   4.383   5.971  0.2173  0.4141 -0.1104
 4288ntf    fn425438   5.658   4.575   5.848 -0.3504 -0.4417 -0.3853
 4288ntf    fn425439   5.569   4.399   5.933  0.0817 -0.3999 -0.0833
 4288ntf    fn425440   5.560   4.588   6.036 -0.1410  0.2716 -0.3952
 4289ntf    cn125441   2.849   1.010   0.581 -0.0736  0.6440 -0.0948
 4289ntf    sn225442   3.011   0.958   0.644 -0.3068  0.0769  0.0452
 4289ntf    nn325443   3.100   1.018   0.529  0.2774 -0.0646  0.4170
 4289ntf    sn225444   3.158   0.946   0.402 -0.2943  0.1691  0.0174
 4289ntf    cn125445   3.046   1.004   0.271 -0.2311  0.4711  0.0966
 4289ntf    fn425446   2.764   1.048   0.675 -0.1886  1.0390 -0.3587
 4289ntf    fn425447   2.855   1.105   0.489  0.6498  0.1452 -0.5759
 4289ntf    fn425448   2.796   0.908   0.515 -0.0764  0.6101 -0.0401
 4289ntf    on525449   3.020   1.033   0.766 -0.2745  0.3040 -0.0966
 4289ntf    on525450   3.006   0.814   0.649 -0.2714  0.0878  0.3767
 4289ntf    on525451   3.144   0.802   0.402 -0.3476  0.1721 -0.4330
 4289ntf    on525452   3.285   1.005   0.368  0.2008 -0.7656  0.2033
 4289ntf    fn425453   3.073   0.952   0.153  0.1174  0.7439  0.0564
 4289ntf    fn425454   2.919   0.983   0.300 -0.1048  0.0666  0.3693
 4289ntf    fn425455   3.052   1.134   0.247 -0.6414  0.4822  0.0463
 4290ntf    cn125456   5.443   5.254   3.168 -0.3011  0.1461 -0.2804
 4290ntf    sn225457   5.371   5.098   3.227 -0.0537  0.2526  0.3056
 4290ntf    nn325458   5.247   5.078   3.134  0.2620 -0.2247 -0.0138
 4290ntf    sn225459   5.222   4.985   3.010 -0.0741  0.2601 -0.3114
 4290ntf    cn125460   5.280   5.091   2.874  0.1757  0.1176 -0.3166
 4290ntf    fn425461   5.525   5.316   3.252 -0.2905  0.0833 -0.2438
 4290ntf    fn425462   5.513   5.251   3.056  0.2461  0.0467  0.0574
 4290ntf    fn425463   5.340   5.334   3.144 -0.2348  0.2458 -0.2354
 4290ntf    on525464   5.480   5.005   3.215  0.1905  0.4768  0.7241
 4290ntf    on525465   5.328   5.118   3.363  0.7507  0.3186  0.5579
 4290ntf    on525466   5.081   4.959   2.992  0.1278 -0.4672 -0.9186
 4290ntf    on525467   5.310   4.871   3.011 -0.1921  0.1667 -0.4415
 4290ntf    fn425468   5.411   5.111   2.877  0.0918  0.7201 -0.4911
 4290ntf    fn425469   5.249   5.038   2.757  0.5669 -0.0520 -0.3462
 4290ntf    fn425470   5.233   5.215   2.884 -0.3631 -0.1128  0.0319
 4291ntf    cn125471   5.667   5.955   3.147  0.5053  0.1132  0.2661
 4291ntf    sn225472   5.654   6.031   2.982 -0.1560 -0.0298  0.2510
 4291ntf    nn325473   5.689   5.906   2.894 -0.2300  0.1850 -0.0866
 4291ntf    sn225474   5.816   5.884   2.804 -0.5058 -0.1332 -0.4050
 4291ntf    cn125475   5.941   5.843   2.929 -0.6684 -0.0171 -0.2025
 4291ntf    fn425476   5.797   5.951   3.172  0.3738 -0.2920  0.8999
 4291ntf    fn425477   5.614   6.031   3.241 -0.3824  0.0061 -0.1309
 4291ntf    fn425478   5.613   5.835   3.161 -0.3765  0.4646 -0.0202
 4291ntf    on525479   5.516   6.069   2.959 -0.1455  0.0172  0.2651
 4291ntf    on525480   5.748   6.139   2.974  0.1697 -0.3671 -0.6009
 4291ntf    on525481   5.864   6.002   2.736  0.0521 -0.2058 -0.1467
 4291ntf    on525482   5.811   5.764   2.725 -0.1754 -0.5833  0.2481
 4291ntf    fn425483   5.909   5.728   2.987  0.4636 -0.3986 -0.3018
 4291ntf    fn425484   6.057   5.821   2.868 -0.4961 -0.1344  0.1597
 4291ntf    fn425485   5.961   5.921   3.034  0.0040 -1.0280  0.4469
 4292ntf    cn125486   6.115   4.502   6.977 -0.1870  0.3487 -0.3898
 4292ntf    sn225487   6.226   4.583   6.858  0.4943 -0.3670 -0.2531
 4292ntf    nn325488   6.116   4.627   6.755  0.1430  0.0324  0.2871
 4292ntf    sn225489   6.016   4.748   6.764 -0.2344 -0.2240 -0.3783
 4292ntf    cn125490   6.046   4.813   6.597 -0.1863  0.1921 -0.2098
 4292ntf    fn425491   6.182   4.419   7.055  0.1570  0.5911 -0.4279
 4292ntf    fn425492   6.049   4.590   7.051 -0.1536  0.1290 -0.0948
 4292ntf    fn425493   6.030   4.422   6.914 -0.0272 -0.1615  0.0317
 4292ntf    on525494   6.284   4.687   6.939  0.1516 -0.3773  0.0086
 4292ntf    on525495   6.316   4.477   6.822  0.3525 -0.7404  0.4641
 4292ntf    on525496   6.050   4.866   6.841 -0.3255  0.0347 -0.7330
 4292ntf    on525497   5.877   4.710   6.756 -0.1803 -0.4487 -0.2792
 4292ntf    fn425498   6.032   4.710   6.515 -0.1137  0.1943 -0.2256
 4292ntf    fn425499   5.958   4.908   6.568 -0.0718  0.3205 -0.1381
 4292ntf    fn425500   6.167   4.864   6.582 -0.0546  0.0804  0.4464
 4293ntf    cn125501   3.094   7.324   2.069 -0.2968  0.1584  0.3587
 4293ntf    sn225502   3.256   7.365   2.140 -0.2315  0.2366  0.1633
 4293ntf    nn325503   3.229   7.517   2.172 -0.3750  0.3227 -0.3616
 4293ntf    sn225504   3.258   7.640   2.078 -0.0035  0.3212 -0.2519
 4293ntf    cn125505   3.435   7.670   2.102 -0.0339 -0.0075  0.4119
 4293ntf    fn425506   3.099   7.199   2.026 -0.0265  0.0149  0.7965
 4293ntf    fn425507   2.985   7.334   2.145 -0.1906  0.2121  0.5050
 4293ntf    fn425508   3.068   7.399   1.964 -0.1358  0.4484  0.5261
 4293ntf    on525509   3.255   7.277   2.254  0.0085  0.1924  0.1312
 4293ntf    on525510   3.356   7.341   2.040 -0.3685 -0.5189  0.2014
 4293ntf    on525511   3.201   7.763   2.128 -0.2897  0.1230 -0.0830
 4293ntf    on525512   3.247   7.617   1.936 -0.4555 -0.5398 -0.0875
 4293ntf    fn425513   3.516   7.573   2.062  0.3014  0.4713 -0.0877
 4293ntf    fn425514   3.473   7.779   2.039  0.0378 -0.4016 -0.2365
 4293ntf    fn425515   3.465   7.694   2.229  0.1418  0.1407  0.3422
 4294ntf    cn125516   7.185   2.016   4.776 -0.1658  0.2572 -0.0662
 4294ntf    sn225517   7.045   1.911   4.728 -0.1244  0.1343  0.0795
 4294ntf    nn325518   7.121   1.818   4.626 -0.5185  0.0439 -0.1356
 4294ntf    sn225519   7.115   1.832   4.470  0.0863  0.2722 -0.1386
 4294ntf    cn125520   7.274   1.917   4.447 -0.0898  0.5117 -0.4776
 4294ntf    fn425521   7.282   1.933   4.813 -0.2609  0.3923  0.5030
 4294ntf    fn425522   7.216   2.096   4.676  0.3160  0.4454  0.2321
 4294ntf    fn425523   7.159   2.098   4.877 -0.1346 -0.2474  0.3604
 4294ntf    on525524   6.999   1.838   4.843 -0.3105  0.2995  0.1114
 4294ntf    on525525   6.952   2.007   4.672 -0.2871 -0.1865 -0.2101
 4294ntf    on525526   7.020   1.920   4.408 -0.2431  0.0944  0.1065
 4294ntf    on525527   7.136   1.700   4.414 -0.5683  0.3521 -0.5825
 4294ntf    fn425528   7.328   1.907   4.327  0.0836  1.0904 -0.4504
 4294ntf    fn425529   7.263   2.046   4.470  0.0017  0.4110  0.1661
 4294ntf    fn425530   7.369   1.871   4.528 -0.4217  0.3210 -0.1960
 4295ntf    cn125531   2.573   6.451   4.497  0.1612  0.3621  0.0533
 4295ntf    sn225532   2.569   6.368   4.335  0.0480  0.2270  0.1257
 4295ntf    nn325533   2.471   6.456   4.250 -0.0785 -0.2737 -0.2498
 4295ntf    sn225534   2.425   6.437   4.101  0.0089 -0.0040 -0.3117
 4295ntf    cn125535   2.256   6.377   4.131  0.1585 -0.0917  0.3733
 4295ntf    fn425536   2.453   6.466   4.549  0.2285  0.4278  0.1901
 4295ntf    fn425537   2.647   6.387   4.586  0.2924  0.4943  0.0413
 4295ntf    fn425538   2.630   6.570   4.488  0.1283  0.4001  0.3537
 4295ntf    on525539   2.710   6.375   4.305  0.0756  0.4669  0.3100
 4295ntf    on525540   2.517   6.235   4.352  0.4424  0.0603  0.0304
 4295ntf    on525541   2.493   6.336   4.024 -0.2584 -0.4164 -0.0154
 4295ntf    on525542   2.390   6.563   4.040 -0.5709 -0.0257 -0.0332
 4295ntf    fn425543   2.245   6.272   4.210  0.5607 -0.2893  0.1658
 4295ntf    fn425544   2.188   6.474   4.190  0.0391 -0.1266  0.2969
 4295ntf    fn425545   2.183   6.350   4.023  0.4550 -0.3368  0.2329
 4296ntf    cn125546   7.308   3.141   1.702 -0.0300  0.5058  0.4838
 4296ntf    sn225547   7.220   3.079   1.849 -0.6293 -0.1747 -0.1605
 4296ntf    nn325548   7.328   3.116   1.956 -0.3524 -0.1705 -0.4371
 4296ntf    sn225549   7.314   3.249   2.040 -0.2292 -0.0181 -0.6582
 4296ntf    cn125550   7.494   3.277   2.040 -0.1520 -0.5054  0.1243
 4296ntf    fn425551   7.305   3.272   1.684  0.4584  0.3851 -0.5598
 4296ntf    fn425552   7.430   3.096   1.678 -0.3310 -0.0566 -0.0138
 4296ntf    fn425553   7.247   3.097   1.593  0.5172 -0.2289  0.4651
 4296ntf    on525554   7.097   3.155   1.844 -0.5231 -0.0056 -0.1923
 4296ntf    on525555   7.208   2.935   1.839  0.2920 -0.2526 -0.1833
 4296ntf    on525556   7.301   3.232   2.182 -0.0742 -0.0069 -0.6424
 4296ntf    on525557   7.253   3.358   1.968  0.3517  0.7403 -0.0198
 4296ntf    fn425558   7.541   3.377   2.113 -0.2107 -0.3116 -0.1060
 4296ntf    fn425559   7.548   3.166   2.088 -0.0668 -0.6020 -0.1978
 4296ntf    fn425560   7.540   3.284   1.916 -0.2162  0.4688  0.1498
 4297ntf    cn125561   6.434   0.720   2.291  0.1027 -0.2777  0.1018
 4297ntf    sn225562   6.463   0.578   2.401  0.0914 -0.0507  0.4023
 4297ntf    nn325563   6.337   0.499   2.350 -0.2926  0.4184  0.6232
 4297ntf    sn225564   6.205   0.463   2.426 -0.2676  0.1763  0.5534
 4297ntf    cn125565   6.119   0.353   2.310  0.4851  0.0031  0.1525
 4297ntf    fn425566   6.499   0.832   2.322 -0.4115  0.0254  0.0840
 4297ntf    fn425567   6.462   0.689   2.166  0.0004  0.3983 -0.0923
 4297ntf    fn425568   6.306   0.751   2.300  0.2502  0.2329  0.5278
 4297ntf    on525569   6.588   0.520   2.357 -0.0490 -0.1005  0.0602
 4297ntf    on525570   6.460   0.634   2.533 -0.1212  0.1109  0.3290
 4297ntf    on525571   6.115   0.575   2.439 -0.0009  0.4465  0.1003
 4297ntf    on525572   6.217   0.380   2.543  0.4322 -0.0855  0.3010
 4297ntf    fn425573   6.130   0.396   2.186 -0.1954  0.1258  0.1284
 4297ntf    fn425574   6.168   0.230   2.316  0.7087  0.1116  0.6243
 4297ntf    fn425575   5.989   0.344   2.337  0.5174  0.0641  0.3288
 4298ntf    cn125576   2.073   1.815   1.107  0.1400  0.0267  0.2732
 4298ntf    sn225577   2.010   1.719   1.247  0.0343 -0.2031  0.0687
 4298ntf    nn325578   2.018   1.836   1.351  0.1231 -0.3059  0.1771
 4298ntf    sn225579   1.911   1.915   1.434 -0.1031 -0.2689 -0.1538
 4298ntf    cn125580   1.998   2.065   1.489 -0.8691  0.0611  0.1819
 4298ntf    fn425581   2.010   1.931   1.095  0.4898  0.2000  0.0807
 4298ntf    fn425582   2.199   1.856   1.118 -0.0075  0.4093  0.5427
 4298ntf    fn425583   2.072   1.755   0.989 -0.1496 -0.3484  0.4641
 4298ntf    on525584   1.881   1.675   1.199  0.0396 -0.0283 -0.1054
 4298ntf    on525585   2.116   1.624   1.265 -0.0659 -0.2399  0.4734
 4298ntf    on525586   1.881   1.852   1.560  0.0120  0.0981  0.0590
 4298ntf    on525587   1.801   1.977   1.363 -0.1185  0.1491  0.2325
 4298ntf    fn425588   1.926   2.147   1.562 -0.7176  0.3404  0.0198
 4298ntf    fn425589   2.098   2.023   1.565 -0.2345  0.2017 -0.5608
 4298ntf    fn425590   2.043   2.137   1.387 -0.4594 -0.7718 -0.2353
 4299ntf    cn125591   3.248   6.747   6.749 -0.2508  0.1646  0.4625
 4299ntf    sn225592   3.261   6.874   6.619  0.3706 -0.4521 -0.0867
 4299ntf    nn325593   3.268   6.789   6.487 -0.1407 -0.2601 -0.2402
 4299ntf    sn225594   3.225   6.826   6.340  0.0900  0.1131 -0.2153
 4299ntf    cn125595   3.294   6.679   6.259  0.2149 -0.1093  0.2866
 4299ntf    fn425596   3.124   6.704   6.757 -0.2671  0.1667  0.2291
 4299ntf    fn425597   3.327   6.644   6.723 -0.4431  0.1493 -0.0793
 4299ntf    fn425598   3.277   6.788   6.872  0.1308  0.0854  0.3995
 4299ntf    on525599   3.138   6.950   6.630  0.3932 -0.3807 -0.3333
 4299ntf    on525600   3.383   6.947   6.641  0.5254 -0.5023 -0.7582
 4299ntf    on525601   3.302   6.930   6.277  0.6986 -0.2729 -0.1217
 4299ntf    on525602   3.083   6.820   6.313  0.0684  0.3309 -0.1544
 4299ntf    fn425603   3.270   6.566   6.323  0.2899 -0.3369 -0.0792
 4299ntf    fn425604   3.242   6.680   6.137  0.1027  0.0133  0.3357
 4299ntf    fn425605   3.426   6.687   6.255  0.2103 -0.2171 -0.1899
 4300ntf    cn125606   5.554   6.839   0.188  0.0318  0.2000  0.3670
 4300ntf    sn225607   5.399   6.834   0.283 -0.2861 -0.0588 -0.1565
 4300ntf    nn325608   5.432   6.757   0.416  0.5354  0.1802 -0.2134
 4300ntf    sn225609   5.478   6.607   0.426  0.5267  0.1945  0.0507
 4300ntf    cn125610   5.321   6.516   0.439  0.5885  0.0691 -0.0841
 4300ntf    fn425611   5.659   6.854   0.267  0.2544  0.0350  0.1052
 4300ntf    fn425612   5.569   6.730   0.114 -0.3648  0.3430  0.0685
 4300ntf    fn425613   5.566   6.941   0.105  0.5911  0.3066  0.5748
 4300ntf    on525614   5.378   6.975   0.306  0.0698  0.0148 -0.2741
 4300ntf    on525615   5.308   6.760   0.200  0.2231 -0.2824 -0.5214
 4300ntf    on525616   5.528   6.576   0.557  0.1267 -0.5970  0.0197
 4300ntf    on525617   5.550   6.554   0.313  0.0627  0.0737 -0.1929
 4300ntf    fn425618   5.337   6.385   0.452  0.0363 -0.0663 -0.7135
 4300ntf    fn425619   5.261   6.546   0.553  0.5207 -0.2784 -0.0254
 4300ntf    fn425620   5.231   6.547   0.347  0.3911 -0.4710 -0.0777
 4301ntf    cn125621   7.301   2.103   3.133 -0.0656 -0.1914 -0.0671
 4301ntf    sn225622   7.351   1.941   3.199 -0.0709 -0.0232  0.3532
 4301ntf    nn325623   7.496   1.943   3.139 -0.2542 -0.1470 -0.0962
 4301ntf    sn225624   7.590   1.829   3.086  0.4830  0.1589  0.5212
 4301ntf    cn125625   7.542   1.815   2.911 -0.3745  0.3281  0.7340
 4301ntf    fn425626   7.198   2.166   3.188 -0.0879 -0.3119  0.0315
 4301ntf    fn425627   7.406   2.175   3.168 -0.1416  0.1025 -0.4441
 4301ntf    fn425628   7.285   2.105   3.002 -0.0273 -0.3713 -0.0753
 4301ntf    on525629   7.349   1.969   3.341 -0.4455 -0.2409  0.3937
 4301ntf    on525630   7.256   1.848   3.144 -0.0193  0.1289  0.0024
 4301ntf    on525631   7.580   1.694   3.136 -0.1500  0.1159  0.2925
 4301ntf    on525632   7.724   1.881   3.076  0.3516  0.4691  0.3632
 4301ntf    fn425633   7.640   1.767   2.835 -0.3726  0.1834  0.8271
 4301ntf    fn425634   7.445   1.726   2.898  0.0946 -0.1921  0.7068
 4301ntf    fn425635   7.498   1.924   2.851  0.1987  0.0889 -0.1583
 4302ntf    cn125636   1.661   3.905   4.582 -0.2079  0.5020 -0.2666
 4302ntf    sn225637   1.832   3.960   4.556 -0.0505 -0.0301 -0.3835
 4302ntf    nn325638   1.899   3.847   4.470  0.3741 -0.3212  0.3180
 4302ntf    sn225639   1.994   3.866   4.346  0.2288  0.3694  0.3093
 4302ntf    cn125640   1.878   3.805   4.221  0.4479  0.4445  0.0702
 4302ntf    fn425641   1.670   3.783   4.633 -0.0657  0.4833 -0.3339
 4302ntf    fn425642   1.582   3.977   4.660  0.1180  0.4076  0.1542
 4302ntf    fn425643   1.602   3.874   4.468  0.1766 -0.4626 -0.2194
 4302ntf    on525644   1.827   4.094   4.502 -0.6885  0.1415  0.0988
 4302ntf    on525645   1.893   3.955   4.687 -0.0487 -0.2455 -0.3927
 4302ntf    on525646   2.089   3.759   4.332 -0.1729  0.1112 -0.4997
 4302ntf    on525647   2.030   4.000   4.307 -0.3576  0.4260 -0.0458
 4302ntf    fn425648   1.823   3.696   4.272 -0.3071  0.5305 -0.5332
 4302ntf    fn425649   1.776   3.885   4.198  0.0106 -0.0878  0.1343
 4302ntf    fn425650   1.937   3.772   4.107 -0.1805  0.7702 -0.3530
 4303ntf    cn125651   7.042   0.059   2.648  0.3930  0.1375  0.0308
 4303ntf    sn225652   7.056   0.043   2.829 -0.3615  0.2318  0.1034
 4303ntf    nn325653   6.905   0.022   2.865 -0.4297  0.4348 -0.0619
 4303ntf    sn225654   6.830   0.082   2.990 -0.3856  0.1410  0.1065
 4303ntf    cn125655   6.765   0.233   2.914 -0.1517  0.1042 -0.1728
 4303ntf    fn425656   7.159   0.083   2.591  0.1863 -0.0508 -0.4723
 4303ntf    fn425657   6.994  -0.052   2.594  0.3413 -0.0414  0.4406
 4303ntf    fn425658   6.973   0.160   2.597 -0.0102  0.0727  0.4401
 4303ntf    on525659   7.124  -0.083   2.849  0.3833  0.7002  0.5756
 4303ntf    on525660   7.119   0.165   2.873  0.8486 -0.0801 -0.6882
 4303ntf    on525661   6.914   0.119   3.101 -0.4525  0.0668  0.1818
 4303ntf    on525662   6.710   0.010   3.025 -0.1340 -0.1884  0.3077
 4303ntf    fn425663   6.755   0.221   2.782 -0.4072 -0.1454 -0.1309
 4303ntf    fn425664   6.640   0.253   2.954 -0.0709  0.7427 -0.2355
 4303ntf    fn425665   6.830   0.345   2.939 -0.1234  0.1002 -0.2254
 4304ntf    cn125666   6.914   6.046   4.114  0.1252 -0.0686  0.0499
 4304ntf    sn225667   6.787   6.155   4.185  0.2857  0.0128  0.2148
 4304ntf    nn325668   6.671   6.073   4.118 -0.0065  0.7881 -0.2369
 4304ntf    sn225669   6.521   6.046   4.157  0.2064 -0.3886 -0.2079
 4304ntf    cn125670   6.422   6.172   4.070  0.0759 -0.5316 -0.2666
 4304ntf    fn425671   7.033   6.039   4.172  0.0859 -0.2083  0.1139
 4304ntf    fn425672   6.869   5.925   4.144 -1.2921  0.3803 -0.2416
 4304ntf    fn425673   6.918   6.042   3.982  0.3539 -0.0890  0.0569
 4304ntf    on525674   6.805   6.141   4.327 -0.3167  0.5321  0.3466
 4304ntf    on525675   6.798   6.288   4.131 -0.1305 -0.1262 -0.2129
 4304ntf    on525676   6.487   6.066   4.295  0.1931 -1.0263 -0.1158
 4304ntf    on525677   6.462   5.924   4.108 -0.3350 -0.0213 -0.4881
 4304ntf    fn425678   6.428   6.295   4.118  0.0235 -0.4316 -0.5206
 4304ntf    fn425679   6.452   6.170   3.942 -0.3301 -0.1505 -0.3712
 4304ntf    fn425680   6.294   6.139   4.081 -0.0342 -0.2557 -0.7096
 4305ntf    cn125681   6.092   1.487   6.960 -0.2166 -0.1688  0.2555
 4305ntf    sn225682   6.144   1.547   7.124 -0.0367  0.1826  0.0716
 4305ntf    nn325683   6.153   1.699   7.087 -0.0477  0.1104 -0.2284
 4305ntf    sn225684   6.041   1.806   7.110 -0.1635 -0.0463 -0.0622
 4305ntf    cn125685   6.143   1.956   7.121 -0.5021  0.1961 -0.2129
 4305ntf    fn425686   5.989   1.558   6.917 -0.3099 -0.5908 -0.2216
 4305ntf    fn425687   6.181   1.477   6.863 -0.2680  0.5050  0.1293
 4305ntf    fn425688   6.044   1.365   6.972 -0.8002  0.0345  0.0203
 4305ntf    on525689   6.050   1.491   7.218 -0.0519 -0.4473 -0.3145
 4305ntf    on525690   6.276   1.490   7.124 -0.3867 -0.6533 -0.5513
 4305ntf    on525691   5.976   1.797   7.238 -0.2224  0.7706 -0.0273
 4305ntf    on525692   5.965   1.822   6.989  0.2963 -0.1655 -0.3670
 4305ntf    fn425693   6.177   2.007   7.003  0.5549 -0.8309 -0.3766
 4305ntf    fn425694   6.078   2.053   7.184 -0.1549  0.4660 -0.2648
 4305ntf    fn425695   6.254   1.933   7.188 -0.6116  0.2242 -0.0235
 4306ntf    cn125696   4.866   5.062   4.486 -0.4443 -0.0575 -0.0462
 4306ntf    sn225697   5.025   5.137   4.439 -0.2877 -0.2029  0.2488
 4306ntf    nn325698   4.993   5.182   4.292  0.2255  0.1981  0.2563
 4306ntf    sn225699   4.938   5.319   4.240  0.0155  0.1138  0.2517
 4306ntf    cn125700   5.067   5.377   4.125 -0.2936  0.3231  0.0067
 4306ntf    fn425701   4.828   4.972   4.397  0.4864 -0.0858 -0.4241
 4306ntf    fn425702   4.882   4.989   4.595  0.4954  0.0155 -0.1272
 4306ntf    fn425703   4.773   5.155   4.502 -1.0479 -0.7515  0.5628
 4306ntf    on525704   5.045   5.240   4.537 -0.4026 -0.1710  0.2389
 4306ntf    on525705   5.117   5.026   4.431 -0.5602 -0.4075 -0.1026
 4306ntf    on525706   4.925   5.422   4.340  0.0715  0.5398 -0.1680
 4306ntf    on525707   4.830   5.300   4.146  0.3083 -0.0848 -0.0466
 4306ntf    fn425708   5.190   5.364   4.174 -0.1891 -0.5916 -0.4694
 4306ntf    fn425709   5.073   5.311   4.011 -0.0121 -0.3224  0.3875
 4306ntf    fn425710   5.064   5.507   4.099  0.1322  0.2498 -0.4227
 4307ntf    cn125711   1.200   3.365   3.024  0.1901  0.2336 -0.5838
 4307ntf    sn225712   1.194   3.453   2.865  0.2645 -0.0292 -0.7336
 4307ntf    nn325713   1.092   3.361   2.788 -0.0355 -0.0236 -0.3511
 4307ntf    sn225714   1.138   3.239   2.700 -0.0121 -0.0481 -0.3054
 4307ntf    cn125715   0.984   3.147   2.669 -0.1230 -0.0792  0.3327
 4307ntf    fn425716   1.264   3.433   3.117  0.0570 -0.4328  0.0071
 4307ntf    fn425717   1.087   3.317   3.072  0.4917 -0.1726 -0.2679
 4307ntf    fn425718   1.267   3.251   3.013 -0.0428  0.0270  0.1008
 4307ntf    on525719   1.136   3.579   2.904  0.5315 -0.1614  0.1014
 4307ntf    on525720   1.327   3.456   2.811  0.5723  0.3102  0.0375
 4307ntf    on525721   1.221   3.138   2.760 -0.3950 -0.4899 -0.5109
 4307ntf    on525722   1.172   3.280   2.566  0.8043 -0.0916 -0.1150
 4307ntf    fn425723   1.016   3.033   2.610 -0.5606 -0.1806  0.2871
 4307ntf    fn425724   0.926   3.105   2.781 -0.2600 -0.3542  0.1583
 4307ntf    fn425725   0.898   3.217   2.597 -0.0503  0.2444  0.5549
 4308ntf    cn125726   2.360   4.830   6.319  0.1061  0.1079  0.0453
 4308ntf    sn225727   2.354   4.917   6.478 -0.2206 -0.1871  0.1955
 4308ntf    nn325728   2.265   4.822   6.566 -0.1129 -0.1894  0.3035
 4308ntf    sn225729   2.120   4.854   6.619 -0.2714  0.1598 -0.3256
 4308ntf    cn125730   2.088   4.692   6.694  0.2301  0.1725 -0.0768
 4308ntf    fn425731   2.435   4.723   6.338  0.3154  0.1360 -0.6022
 4308ntf    fn425732   2.242   4.801   6.267  0.1517  0.0753 -0.0392
 4308ntf    fn425733   2.416   4.899   6.220  0.2737  0.0077  0.0703
 4308ntf    on525734   2.488   4.918   6.531 -0.0599  0.4393 -0.2157
 4308ntf    on525735   2.292   5.044   6.447  0.6101  0.0539 -0.5024
 4308ntf    on525736   2.021   4.871   6.515 -0.5964  0.2522 -0.0009
 4308ntf    on525737   2.110   4.953   6.723  0.4603  0.5136 -0.5827
 4308ntf    fn425738   2.186   4.657   6.776  0.1076 -0.2399 -0.1014
 4308ntf    fn425739   1.974   4.678   6.759  0.4085  0.0260  0.2065
 4308ntf    fn425740   2.080   4.599   6.600  0.0445  0.1739 -0.0634
 4309ntf    cn125741   1.831   6.101   2.469  0.1898 -0.0179  0.1426
 4309ntf    sn225742   1.789   6.278   2.469 -0.0083 -0.0604 -0.5651
 4309ntf    nn325743   1.886   6.335   2.579 -0.4136 -0.2283 -0.1171
 4309ntf    sn225744   1.842   6.385   2.721 -0.5786 -0.0877 -0.2175
 4309ntf    cn125745   1.998   6.400   2.813 -0.3301 -0.3712 -0.5867
 4309ntf    fn425746   1.767   6.042   2.569 -0.2423 -0.0411 -0.1424
 4309ntf    fn425747   1.786   6.039   2.361  0.0222  0.9059 -0.3271
 4309ntf    fn425748   1.958   6.071   2.491  0.2750  0.0549 -0.2451
 4309ntf    on525749   1.823   6.325   2.337 -0.2665  0.1782 -0.5454
 4309ntf    on525750   1.648   6.284   2.497  0.1480  0.4374  0.1447
 4309ntf    on525751   1.774   6.285   2.799  0.2277 -0.1275  0.4465
 4309ntf    on525752   1.787   6.519   2.717 -0.5571 -0.0647  0.2386
 4309ntf    fn425753   2.070   6.503   2.772 -0.4133 -0.5390 -1.1616
 4309ntf    fn425754   1.973   6.413   2.943 -0.5056 -0.4414 -0.6125
 4309ntf    fn425755   2.073   6.291   2.814 -0.3995 -0.4201  0.0997
 4310ntf    cn125756   1.491   4.621   4.786 -0.1913 -0.2413  0.2801
 4310ntf    sn225757   1.566   4.456   4.802  0.1422 -0.1014  0.1565
 4310ntf    nn325758   1.489   4.410   4.931  0.0063  0.0754  0.1401
 4310ntf    sn225759   1.396   4.286   4.957  0.4152 -0.1978  0.3270
 4310ntf    cn125760   1.231   4.343   4.903  0.4738 -0.1657  0.1809
 4310ntf    fn425761   1.359   4.612   4.795 -0.1997 -0.3660  0.0551
 4310ntf    fn425762   1.525   4.704   4.883 -0.7638 -0.3532  0.5794
 4310ntf    fn425763   1.518   4.680   4.670 -0.3024  0.3908  0.5725
 4310ntf    on525764   1.532   4.395   4.676 -0.1043  0.5036 -0.0762
 4310ntf    on525765   1.701   4.493   4.836  0.1967 -0.3139  0.1720
 4310ntf    on525766   1.386   4.251   5.096  0.0316 -0.2090  0.2980
 4310ntf    on525767   1.418   4.173   4.871  0.7935  0.0547  0.0900
 4310ntf    fn425768   1.137   4.319   4.993  0.4167 -0.2565  0.0979
 4310ntf    fn425769   1.220   4.471   4.875 -0.1854 -0.2367  0.0950
 4310ntf    fn425770   1.192   4.279   4.794 -0.1403  0.1274  0.2284
 4311ntf    cn125771   1.778   6.917   1.648 -0.0837 -0.0642 -0.2784
 4311ntf    sn225772   1.709   6.930   1.816 -0.0884 -0.0378 -0.2822
 4311ntf    nn325773   1.840   6.961   1.897 -0.2665  0.3336 -0.1331
 4311ntf    sn225774   1.874   7.078   1.995  0.1290  0.1787 -0.0815
 4311ntf    cn125775   1.952   7.191   1.877  0.3405  0.0652 -0.0508
 4311ntf    fn425776   1.794   7.034   1.589 -0.3197 -0.0535 -0.3225
 4311ntf    fn425777   1.889   6.847   1.636 -0.1097 -0.0131 -0.8263
 4311ntf    fn425778   1.690   6.857   1.570 -0.8017  0.0959  0.3840
 4311ntf    on525779   1.623   7.045   1.806 -0.0471 -0.0014 -0.2147
 4311ntf    on525780   1.645   6.804   1.846 -0.3748  0.1220 -0.2129
 4311ntf    on525781   1.979   7.040   2.087  0.0032 -0.3590 -0.1586
 4311ntf    on525782   1.760   7.146   2.052  0.3704  0.1655  0.4254
 4311ntf    fn425783   2.081   7.162   1.875  0.3411  0.0821 -0.7411
 4311ntf    fn425784   1.894   7.171   1.759 -0.2194  0.1532  0.2053
 4311ntf    fn425785   1.943   7.320   1.907  0.1987  0.0087  0.1509
 4312ntf    cn125786   6.100   4.119   4.346 -0.1503  0.0568 -0.1339
 4312ntf    sn225787   6.067   3.947   4.298  0.0035  0.0434 -0.1936
 4312ntf    nn325788   6.046   3.945   4.142 -0.1505 -0.0011 -0.1730
 4312ntf    sn225789   6.144   3.943   4.019  0.1245  0.2332  0.0417
 4312ntf    cn125790   6.149   3.765   3.983 -0.2661  0.2038  0.1336
 4312ntf    fn425791   5.988   4.190   4.349 -0.5313 -0.5556  0.4601
 4312ntf    fn425792   6.150   4.132   4.468 -0.3906 -0.5292  0.0351
 4312ntf    fn425793   6.189   4.168   4.262  0.2340 -0.0327  0.2161
 4312ntf    on525794   6.179   3.869   4.344 -0.0147  0.2560  0.2172
 4312ntf    on525795   5.949   3.921   4.377  0.1396  0.2779  0.0844
 4312ntf    on525796   6.282   3.974   4.047  0.2333 -0.3147  0.1353
 4312ntf    on525797   6.082   3.996   3.900  0.2590 -0.0363 -0.1499
 4312ntf    fn425798   6.233   3.730   3.888 -0.5350 -0.6207  0.1839
 4312ntf    fn425799   6.166   3.692   4.093 -0.0940 -0.3722 -0.2673
 4312ntf    fn425800   6.032   3.728   3.933 -0.2761 -0.2670  0.4878
 4313ntf    cn125801   1.824   2.895   5.450  0.2085  0.2368  0.0002
 4313ntf    sn225802   1.957   2.890   5.574  0.4327  0.1055 -0.2419
 4313ntf    nn325803   2.021   2.748   5.557  0.7504  0.1903  0.2100
 4313ntf    sn225804   2.046   2.653   5.435  0.2471  0.2271  0.0729
 4313ntf    cn125805   2.170   2.558   5.529  0.2209 -0.2405 -0.3617
 4313ntf    fn425806   1.727   2.818   5.495  0.0452  0.0053 -0.7352
 4313ntf    fn425807   1.780   3.019   5.431  0.1879  0.1943 -0.2363
 4313ntf    fn425808   1.866   2.848   5.333  0.4974 -0.1166  0.2443
 4313ntf    on525809   2.051   2.996   5.549  0.0703  0.5198  0.1121
 4313ntf    on525810   1.881   2.901   5.697  0.0195  0.1532 -0.4984
 4313ntf    on525811   2.110   2.712   5.320 -0.1096  0.5437  0.0385
 4313ntf    on525812   1.933   2.566   5.410 -0.0196  0.5360  0.2059
 4313ntf    fn425813   2.214   2.451   5.463  0.0693 -0.4137 -0.1830
 4313ntf    fn425814   2.276   2.632   5.557 -0.0344 -0.2379  0.6062
 4313ntf    fn425815   2.124   2.516   5.645  0.0485 -0.1640 -0.4019
 4314ntf    cn125816   3.538   3.754   4.020 -0.3731  0.0757 -0.2070
 4314ntf    sn225817   3.492   3.901   3.923 -0.2959  0.1886 -0.0755
 4314ntf    nn325818   3.619   3.986   3.957 -0.0599 -0.1156 -0.1928
 4314ntf    sn225819   3.773   3.965   3.934 -0.0818 -0.4833 -0.0080
 4314ntf    cn125820   3.817   4.139   3.908  0.3766 -0.5299  0.4481
 4314ntf    fn425821   3.566   3.780   4.147 -0.3570  1.1689 -0.4240
 4314ntf    fn425822   3.442   3.664   4.025 -0.5604  0.2790 -0.0964
 4314ntf    fn425823   3.641   3.689   3.968  0.2995  0.9584 -0.0220
 4314ntf    on525824   3.480   3.837   3.795 -0.3825  0.1278 -0.0375
 4314ntf    on525825   3.369   3.953   3.979 -0.4928  0.0696 -0.3954
 4314ntf    on525826   3.811   3.893   3.814  0.1127 -0.2752 -0.0714
 4314ntf    on525827   3.845   3.942   4.056 -0.2227 -0.0256  0.1603
 4314ntf    fn425828   3.764   4.219   4.000  0.3433 -0.1752  0.1218
 4314ntf    fn425829   3.947   4.162   3.912  0.4587 -0.8958 -0.0782
 4314ntf    fn425830   3.759   4.182   3.797  0.5330 -0.1845  0.5002
 4315ntf    cn125831   6.274   3.348   5.735 -0.2657 -0.0754  0.0596
 4315ntf    sn225832   6.219   3.248   5.594 -0.1250 -0.0885  0.0136
 4315ntf    nn325833   6.062   3.259   5.604 -0.1105  0.1935 -0.0479
 4315ntf    sn225834   5.964   3.137   5.616 -0.0668  0.1342 -0.2866
 4315ntf    cn125835   5.975   3.070   5.447 -0.3594 -0.1139 -0.2083
 4315ntf    fn425836   6.268   3.478   5.713  0.0419 -0.0390  0.1784
 4315ntf    fn425837   6.205   3.319   5.844 -0.1325  0.1566  0.2070
 4315ntf    fn425838   6.400   3.340   5.777 -0.2320 -0.8207 -0.1680
 4315ntf    on525839   6.271   3.331   5.488  0.3041 -0.0079  0.2865
 4315ntf    on525840   6.287   3.122   5.611 -0.2867 -0.2307 -0.3741
 4315ntf    on525841   5.829   3.186   5.630 -0.1939 -0.2038 -0.3116
 4315ntf    on525842   6.008   3.041   5.714  0.5841  0.6044 -0.1118
 4315ntf    fn425843   5.958   3.175   5.368 -0.7858  0.4293  0.5889
 4315ntf    fn425844   6.100   3.029   5.428 -0.1282  0.0811  0.8155
 4315ntf    fn425845   5.889   2.973   5.422  0.1115 -0.5736 -0.0819
 4316ntf    cn125846   3.450   2.434   4.534 -0.5336 -0.4512 -0.2701
 4316ntf    sn225847   3.422   2.321   4.673 -0.2968 -0.1459  0.0271
 4316ntf    nn325848   3.269   2.287   4.662 -0.4098  0.4675 -0.2950
 4316ntf    sn225849   3.195   2.154   4.624 -0.0009  0.0529  0.3515
 4316ntf    cn125850   3.077   2.139   4.762 -0.1763  0.1825  0.2151
 4316ntf    fn425851   3.573   2.440   4.486 -0.3492  0.4432  0.3037
 4316ntf    fn425852   3.379   2.412   4.425 -0.5261 -0.0011 -0.3670
 4316ntf    fn425853   3.423   2.557   4.573  0.0687 -0.3652 -0.1130
 4316ntf    on525854   3.497   2.201   4.643 -0.6277 -0.1599 -0.7551
 4316ntf    on525855   3.453   2.390   4.796 -0.4013 -0.0871  0.0210
 4316ntf    on525856   3.258   2.026   4.641 -0.6294 -0.2771  0.2291
 4316ntf    on525857   3.112   2.165   4.507  0.2197  0.0847  0.1981
 4316ntf    fn425858   3.135   2.142   4.881  0.0775  0.6029  0.0820
 4316ntf    fn425859   2.995   2.242   4.779 -0.3905  0.1518 -0.5938
 4316ntf    fn425860   3.007   2.027   4.752  0.3662 -0.1245 -0.2033
 4317ntf    cn125861   7.230   3.150   0.060 -0.3061  0.2020  0.0465
 4317ntf    sn225862   7.371   3.213   0.156 -0.3343  0.1092  0.1482
 4317ntf    nn325863   7.452   3.081   0.179 -0.5399  0.0068  0.2866
 4317ntf    sn225864   7.580   3.074   0.270 -0.3721 -0.0134  0.0530
 4317ntf    cn125865   7.701   3.008   0.151 -0.5536  0.0397 -0.1613
 4317ntf    fn425866   7.247   3.178  -0.069 -0.1813  0.4977  0.1248
 4317ntf    fn425867   7.202   3.022   0.079  0.1049  0.0939 -0.0491
 4317ntf    fn425868   7.128   3.225   0.097 -0.4904  0.1105 -0.2687
 4317ntf    on525869   7.431   3.308   0.064  0.1539 -0.2434  0.1001
 4317ntf    on525870   7.307   3.268   0.273  0.1607  0.0855  0.4320
 4317ntf    on525871   7.566   2.973   0.373  0.1276 -0.2608 -0.1212
 4317ntf    on525872   7.639   3.203   0.294 -0.0802 -0.1142 -0.1204
 4317ntf    fn425873   7.811   2.985   0.221 -0.2451  0.3131 -0.5556
 4317ntf    fn425874   7.672   2.891   0.097 -0.1184 -0.0220 -0.2579
 4317ntf    fn425875   7.719   3.089   0.048  0.6636 -0.4305 -0.3325
 4318ntf    cn125876   0.226   5.429   3.825 -0.1230  0.3258 -0.2208
 4318ntf    sn225877   0.244   5.386   4.001  0.2319  0.3492 -0.2521
 4318ntf    nn325878   0.289   5.237   3.985 -0.1286  0.1811  0.3002
 4318ntf    sn225879   0.427   5.162   3.972 -0.1016  0.3377 -0.3199
 4318ntf    cn125880   0.383   5.016   3.873  0.0867 -0.0637  0.1877
 4318ntf    fn425881   0.345   5.448   3.772  0.0241  0.1346  0.0419
 4318ntf    fn425882   0.171   5.327   3.762  0.0643  0.2128 -0.2016
 4318ntf    fn425883   0.164   5.546   3.814 -0.5350  0.0754 -0.6102
 4318ntf    on525884   0.353   5.471   4.045 -0.1375  0.6313  0.1254
 4318ntf    on525885   0.112   5.403   4.055  0.4793 -0.0742  0.4966
 4318ntf    on525886   0.468   5.101   4.096 -0.4241  0.1504 -0.3043
 4318ntf    on525887   0.530   5.225   3.893  0.3614 -0.1558 -0.1123
 4318ntf    fn425888   0.290   4.949   3.939  0.4947 -0.4251  0.4017
 4318ntf    fn425889   0.349   5.041   3.748 -0.3246  0.0724  0.3234
 4318ntf    fn425890   0.479   4.925   3.877 -0.2038 -0.3665  0.3892
 4319ntf    cn125891   1.813   5.112   4.171  0.2449 -0.2911 -0.0171
 4319ntf    sn225892   1.879   5.139   4.004 -0.1550  0.5128 -0.0449
 4319ntf    nn325893   2.020   5.072   4.016 -0.3319  0.1647  0.0900
 4319ntf    sn225894   2.069   4.960   3.917 -0.1015  0.2173  0.1454
 4319ntf    cn125895   2.250   4.977   3.923  0.0030 -0.4799 -0.7949
 4319ntf    fn425896   1.697   5.174   4.186  0.5298  0.2767 -0.1594
 4319ntf    fn425897   1.803   4.980   4.182 -0.0446 -0.2246  0.6136
 4319ntf    fn425898   1.890   5.158   4.269 -0.0227 -0.2968  0.1967
 4319ntf    on525899   1.781   5.066   3.928  0.0675  0.4199 -0.2420
 4319ntf    on525900   1.899   5.281   3.986  0.6524  0.4446  0.2797
 4319ntf    on525901   2.042   4.986   3.778 -0.4338 -0.0311  0.1633
 4319ntf    on525902   2.035   4.828   3.962 -0.3350  0.4077  0.5290
 4319ntf    fn425903   2.283   5.068   3.833 -0.0845  0.2326 -0.1197
 4319ntf    fn425904   2.296   5.022   4.039 -0.3844 -0.8069 -0.5114
 4319ntf    fn425905   2.312   4.863   3.897  0.5252 -0.3421 -0.1907
 4320ntf    cn125906   3.089   0.770   6.240 -0.3755  0.5180 -0.2595
 4320ntf    sn225907   3.189   0.922   6.251 -0.0354  0.2866 -0.1597
 4320ntf    nn325908   3.259   0.910   6.391 -0.3935  0.2509  0.0190
 4320ntf    sn225909   3.391   0.980   6.439 -0.0537 -0.2101 -0.2290
 4320ntf    cn125910   3.338   1.078   6.582 -0.3196 -0.1467 -0.3715
 4320ntf    fn425911   3.176   0.673   6.263 -0.6805  0.2607 -0.1823
 4320ntf    fn425912   2.986   0.762   6.322 -0.0360 -0.5604  0.0725
 4320ntf    fn425913   3.044   0.758   6.116  0.1941  0.2859 -0.4450
 4320ntf    on525914   3.264   0.915   6.128  0.4113 -0.2150  0.1340
 4320ntf    on525915   3.085   1.021   6.246 -0.0794  0.2504  0.0510
 4320ntf    on525916   3.427   1.090   6.352  0.1760  0.1684  0.3394
 4320ntf    on525917   3.502   0.904   6.490  0.3722  0.9269  0.5748
 4320ntf    fn425918   3.249   1.016   6.658 -0.0327  0.2584  0.3161
 4320ntf    fn425919   3.443   1.108   6.657 -0.3548 -0.2463 -0.2836
 4320ntf    fn425920   3.271   1.184   6.539 -0.0334  0.0715 -0.2812
   7.36285   7.36285   7.36285
