Converted from moscito
 1728
    1SOL     ow    1   1.785   1.758   5.139 -0.1453 -0.2576 -0.3091
    1SOL     hw    2   1.765   1.791   5.052  1.1216  1.0755 -0.1382
    1SOL     hw    3   1.713   1.790   5.194  0.5000  1.3651 -0.3575
    1SOL     vw    4   1.773   1.767   5.135  0.1070  0.1324 -0.2930
    2SOL     ow    5   0.681   0.521   1.825 -0.8122  0.4642 -0.0088
    2SOL     hw    6   0.654   0.580   1.895 -0.4831 -0.1861  0.6926
    2SOL     hw    7   0.599   0.486   1.790 -0.9634  0.2504  0.5457
    2SOL     vw    8   0.666   0.524   1.830 -0.7887  0.3502  0.1569
    3SOL     ow    9   0.063   0.356   0.680 -0.1781  1.4313 -0.3988
    3SOL     hw   10   0.089   0.391   0.594 -0.4785  0.5119 -0.8800
    3SOL     hw   11  -0.028   0.385   0.690 -0.2737  1.2052 -0.5836
    3SOL     vw   12   0.054   0.365   0.670 -0.2304  1.2802 -0.4866
    4SOL     ow   13   0.599   2.277   4.168  0.0473 -0.4279 -0.0216
    4SOL     hw   14   0.672   2.280   4.107  1.3525 -1.9929  1.3908
    4SOL     hw   15   0.632   2.319   4.248 -1.1480  0.3045  0.1171
    4SOL     vw   16   0.613   2.283   4.171  0.0618 -0.5377  0.1831
    5SOL     ow   17   1.827   1.715   6.214 -0.3322  0.2792  0.2123
    5SOL     hw   18   1.879   1.785   6.174 -2.0909 -0.0526 -2.9347
    5SOL     hw   19   1.747   1.759   6.245  0.0013  0.1409  1.3259
    5SOL     vw   20   1.823   1.730   6.213 -0.5202  0.2171 -0.0560
    6SOL     ow   21   1.123   0.131   4.879  0.3840  0.0918  0.4407
    6SOL     hw   22   1.083   0.172   4.956  0.0532 -0.2800  0.4719
    6SOL     hw   23   1.069   0.054   4.862  0.3016  0.3141 -0.3320
    6SOL     vw   24   1.111   0.126   4.887  0.3295  0.0721  0.3426
    7SOL     ow   25   0.730   0.167   4.314 -0.4875 -0.3141  0.4154
    7SOL     hw   26   0.802   0.170   4.250 -0.5415  2.0312  0.3761
    7SOL     hw   27   0.772   0.149   4.397  0.2957  1.6588  0.4951
    7SOL     vw   28   0.745   0.165   4.316 -0.3913  0.2557  0.4208
    8SOL     ow   29   1.724   1.754   0.285  0.0512  0.1822 -0.1874
    8SOL     hw   30   1.811   1.771   0.248  0.4896 -0.0947  0.6941
    8SOL     hw   31   1.684   1.692   0.223  0.2810  0.6928 -0.8614
    8SOL     vw   32   1.730   1.748   0.272  0.1394  0.2131 -0.1600
    9SOL     ow   33   0.281   0.662   5.972  0.9413  0.6294  0.3285
    9SOL     hw   34   0.367   0.690   6.003  1.8927 -2.4751  0.8894
    9SOL     hw   35   0.263   0.581   6.020 -2.1730  0.9549 -0.0471
    9SOL     vw   36   0.290   0.655   5.982  0.6559  0.2628  0.3529
   10SOL     ow   37   0.252   0.023   5.782  0.0166 -0.3607 -0.1488
   10SOL     hw   38   0.238  -0.011   5.693  0.6175 -1.7738  0.2761
   10SOL     hw   39   0.252   0.118   5.771 -3.0246 -0.3535 -1.1969
   10SOL     vw   40   0.250   0.031   5.769 -0.3054 -0.5462 -0.2310
   11SOL     ow   41   1.996   0.236   3.428 -0.2396 -0.5368 -0.1069
   11SOL     hw   42   2.035   0.215   3.344  1.8296  1.3241  0.3076
   11SOL     hw   43   1.903   0.251   3.409 -0.3033 -2.4679 -1.5925
   11SOL     vw   44   1.989   0.235   3.415  0.0250 -0.5460 -0.2483
   12SOL     ow   45   0.194   0.832   3.094  0.3322 -0.5250 -0.0400
   12SOL     hw   46   0.101   0.849   3.104  0.2489  0.0827 -1.5860
   12SOL     hw   47   0.202   0.795   3.006  1.5245 -0.7683  0.1528
   12SOL     vw   48   0.183   0.829   3.084  0.4785 -0.4769 -0.2185
   13SOL     ow   49   0.489   2.265   3.280  0.0263  0.3520  0.2171
   13SOL     hw   50   0.519   2.313   3.202  1.0798  1.4182  1.2423
   13SOL     hw   51   0.568   2.226   3.316 -0.6378 -1.1694  0.1045
   13SOL     vw   52   0.503   2.266   3.274  0.0777  0.2919  0.3376
   14SOL     ow   53   0.615   2.136   2.028 -1.0415 -0.2644 -0.0885
   14SOL     hw   54   0.689   2.193   2.049 -0.0457 -1.4753 -0.2167
   14SOL     hw   55   0.551   2.154   2.097 -0.2992  0.2048  0.4985
   14SOL     vw   56   0.616   2.146   2.040 -0.8122 -0.3620 -0.0279
   15SOL     ow   57   1.779   0.607   6.316  0.4583  0.8396  0.0850
   15SOL     hw   58   1.842   0.679   6.321  0.2996  0.9393  0.9302
   15SOL     hw   59   1.698   0.647   6.286  0.6246  0.8280 -0.3876
   15SOL     vw   60   1.777   0.621   6.313  0.4593  0.8512  0.1338
   16SOL     ow   61   0.762   0.422   2.296  0.0072 -0.2010  0.2765
   16SOL     hw   62   0.819   0.472   2.238 -0.7243 -0.6068 -0.8255
   16SOL     hw   63   0.732   0.348   2.242 -1.3025 -0.1705  0.9255
   16SOL     vw   64   0.765   0.419   2.281 -0.2621 -0.2505  0.2168
   17SOL     ow   65   0.209   0.812   1.066 -0.2227 -0.0272 -0.3528
   17SOL     hw   66   0.285   0.830   1.121  0.5423 -3.0913 -0.2198
   17SOL     hw   67   0.174   0.899   1.044  1.3800  1.4015  2.2070
   17SOL     vw   68   0.214   0.826   1.071  0.0897 -0.2429  0.0025
   18SOL     ow   69   1.842   0.337   0.083 -0.0997  0.1533 -0.0410
   18SOL     hw   70   1.909   0.355   0.149  0.3225  0.8406 -0.6325
   18SOL     hw   71   1.787   0.269   0.122  1.5529 -1.2140  0.0472
   18SOL     vw   72   1.843   0.330   0.097  0.1740  0.0636 -0.1074
   19SOL     ow   73   0.745   2.044   5.570  0.3768 -0.1377  0.1484
   19SOL     hw   74   0.653   2.021   5.553  0.5200 -0.9247  0.4092
   19SOL     hw   75   0.743   2.139   5.586 -0.5067 -0.2666  0.9109
   19SOL     vw   76   0.732   2.054   5.570  0.2791 -0.2586  0.2835
   20SOL     ow   77   0.306   0.434   4.751 -0.0637 -0.5106  0.0189
   20SOL     hw   78   0.240   0.366   4.737 -1.7219  1.4980 -2.8846
   20SOL     hw   79   0.260   0.503   4.798  0.8425 -0.2735  0.5911
   20SOL     vw   80   0.291   0.434   4.756 -0.1629 -0.2143 -0.2887
   21SOL     ow   81   0.054   1.057   1.802  0.3894 -0.4056 -0.2207
   21SOL     hw   82   0.101   1.040   1.884  3.1143 -0.1698 -1.6152
   21SOL     hw   83   0.005   1.138   1.818  0.7665 -0.4348  1.2020
   21SOL     vw   84   0.054   1.065   1.815  0.7987 -0.3784 -0.2170
   22SOL     ow   85   0.305   0.194   0.728 -0.7912 -0.1229 -0.7854
   22SOL     hw   86   0.312   0.187   0.633 -3.9498  1.5855 -1.2566
   22SOL     hw   87   0.395   0.180   0.759  0.4129 -0.4214 -3.9910
   22SOL     vw   88   0.318   0.191   0.720 -1.0491  0.0631 -1.2705
   23SOL     ow   89   0.091   1.823   2.493  0.3758 -0.0731 -0.5961
   23SOL     hw   90   0.083   1.769   2.571 -3.3426  1.4287  0.3218
   23SOL     hw   91   0.040   1.777   2.426  0.7392  0.2560 -1.1093
   23SOL     vw   92   0.083   1.810   2.494 -0.0668  0.1685 -0.5426
   24SOL     ow   93   1.302   0.055   0.878 -0.0871 -0.4240  0.5750
   24SOL     hw   94   1.246   0.132   0.890  2.2451  1.4432  0.1965
   24SOL     hw   95   1.322   0.054   0.785 -0.5052 -1.8419  0.4826
   24SOL     vw   96   1.297   0.065   0.867  0.1654 -0.3647  0.5129
   25SOL     ow   97   0.945   1.329   5.688 -0.2082  0.5658 -0.3425
   25SOL     hw   98   0.898   1.383   5.752 -1.5443  1.6513 -2.1502
   25SOL     hw   99   0.913   1.241   5.703  1.8432  0.1613  2.5174
   25SOL     vw  100   0.935   1.325   5.699 -0.1138  0.6557 -0.2036
   26SOL     ow  101   0.441   0.987   3.223 -0.2820  0.5223 -0.7145
   26SOL     hw  102   0.488   1.067   3.246  0.6609  0.0959 -1.1297
   26SOL     hw  103   0.422   0.996   3.130 -0.1281  0.2340 -0.7724
   26SOL     vw  104   0.444   0.999   3.214 -0.1373  0.4280 -0.7768
   27SOL     ow  105   2.113   0.436   3.613  0.1543 -0.1854  0.0504
   27SOL     hw  106   2.080   0.446   3.703  2.5435 -2.0174  1.2569
   27SOL     hw  107   2.123   0.526   3.582 -0.7492  0.5026  1.6072
   27SOL     vw  108   2.110   0.449   3.621  0.3505 -0.3363  0.4151
   28SOL     ow  109   0.813   1.124   0.341  0.4551  0.1640 -0.5784
   28SOL     hw  110   0.771   1.181   0.406  1.5592  2.5975 -1.8540
   28SOL     hw  111   0.803   1.035   0.376 -2.1753  1.0133  1.0815
   28SOL     vw  112   0.806   1.120   0.354  0.2538  0.5971 -0.5277
   29SOL     ow  113   1.803   0.826   2.437  0.0747  0.1435  0.2465
   29SOL     hw  114   1.841   0.892   2.379  1.8821  0.5529  1.8268
   29SOL     hw  115   1.843   0.743   2.409 -0.0296  0.1397  0.1053
   29SOL     vw  116   1.813   0.823   2.425  0.2994  0.1970  0.4365
   30SOL     ow  117   0.076   0.579   0.897 -0.5382 -0.1957 -0.0807
   30SOL     hw  118   0.034   0.598   0.813 -0.8309  1.7421  0.4564
   30SOL     hw  119   0.006   0.542   0.950 -0.8574  0.3868 -0.0873
   30SOL     vw  120   0.061   0.576   0.893 -0.6189  0.1368 -0.0107
   31SOL     ow  121   2.056   1.615   4.388  0.3455 -0.1837  0.0896
   31SOL     hw  122   2.004   1.694   4.372 -0.2354 -1.2026 -4.2007
   31SOL     hw  123   2.063   1.610   4.484 -2.2350  3.3074  0.6558
   31SOL     vw  124   2.050   1.625   4.399 -0.0716  0.1425 -0.4020
   32SOL     ow  125   0.567   2.202   1.681 -0.1010  0.1974 -0.1374
   32SOL     hw  126   0.502   2.273   1.681  1.6711  2.0054 -2.8606
   32SOL     hw  127   0.521   2.126   1.646 -1.2878  0.8072  0.0570
   32SOL     vw  128   0.553   2.202   1.677 -0.0238  0.5164 -0.4711
   33SOL     ow  129   1.618   0.141   3.117 -0.3343  0.0791 -0.1442
   33SOL     hw  130   1.590   0.131   3.209 -0.6915  0.4013 -0.2172
   33SOL     hw  131   1.539   0.124   3.066  0.2256 -1.7896 -0.4752
   33SOL     vw  132   1.604   0.137   3.123 -0.3075 -0.1250 -0.1976
   34SOL     ow  133   1.296   1.325   5.739  0.8206  0.4812 -0.3161
   34SOL     hw  134   1.374   1.340   5.686  1.0525  0.4318  0.0139
   34SOL     hw  135   1.301   1.234   5.765 -0.5848 -0.2626 -2.3070
   34SOL     vw  136   1.307   1.315   5.735  0.6657  0.3765 -0.5350
   35SOL     ow  137   0.446   1.985   3.111 -0.3077 -0.0833 -0.3265
   35SOL     hw  138   0.528   1.967   3.065 -0.8433 -1.9065 -0.6808
   35SOL     hw  139   0.387   1.916   3.081 -1.4752  0.2061  1.1730
   35SOL     vw  140   0.449   1.974   3.101 -0.5324 -0.2857 -0.1755
   36SOL     ow  141   1.686   2.080   0.370 -0.5972  0.3380 -0.6398
   36SOL     hw  142   1.745   2.100   0.298 -0.2596 -0.5262 -0.6128
   36SOL     hw  143   1.672   2.164   0.414  0.1421  0.6538 -0.9949
   36SOL     vw  144   1.692   2.094   0.367 -0.4551  0.2656 -0.6831
   37SOL     ow  145   1.075   2.011   5.581 -0.7676 -0.0044 -0.0901
   37SOL     hw  146   1.116   1.924   5.583 -2.8699 -1.0451  0.4657
   37SOL     hw  147   1.148   2.072   5.591  1.1766 -1.4883 -3.6016
   37SOL     vw  148   1.090   2.008   5.583 -0.7885 -0.3375 -0.4799
   38SOL     ow  149   1.369   1.213   4.916 -0.0952  0.4574  0.1463
   38SOL     hw  150   1.422   1.251   4.845 -0.9845  1.4912 -0.0022
   38SOL     hw  151   1.417   1.136   4.944  0.3686  0.1221 -1.4789
   38SOL     vw  152   1.382   1.208   4.910 -0.1513  0.5496 -0.0882
   39SOL     ow  153   0.985   0.113   6.257 -0.2602  0.0161  0.6985
   39SOL     hw  154   0.988   0.136   6.349 -0.1916 -0.8974  0.9321
   39SOL     hw  155   1.023   0.189   6.212  0.4514  0.1373  1.4793
   39SOL     vw  156   0.991   0.126   6.263 -0.1572 -0.0884  0.8323
   40SOL     ow  157   1.902   1.560   1.415  0.0158 -0.3835  0.1405
   40SOL     hw  158   1.935   1.501   1.483  0.0412  1.0740  1.4460
   40SOL     hw  159   1.969   1.627   1.407 -0.0318 -0.4812 -1.2906
   40SOL     vw  160   1.915   1.561   1.423  0.0129 -0.2041  0.1239
   41SOL     ow  161   1.820   0.106   5.273  1.3006 -0.3064  0.4195
   41SOL     hw  162   1.727   0.131   5.273  1.1325 -0.8458 -1.0638
   41SOL     hw  163   1.867   0.189   5.264  0.9497 -0.0761  0.6823
   41SOL     vw  164   1.814   0.121   5.272  1.2321 -0.3471  0.2582
   42SOL     ow  165   0.703   1.829   4.631 -0.0544 -0.1844  0.1131
   42SOL     hw  166   0.785   1.826   4.583  0.2340  0.8463  0.5207
   42SOL     hw  167   0.725   1.870   4.715 -0.9013 -0.2802  0.3977
   42SOL     vw  168   0.717   1.834   4.636 -0.1281 -0.0611  0.2043
   43SOL     ow  169   1.228   1.949   2.916  0.1822 -0.4096 -0.1669
   43SOL     hw  170   1.229   1.866   2.870  0.4994 -0.0284 -0.8519
   43SOL     hw  171   1.166   1.936   2.988 -1.9824 -0.3523 -1.9275
   43SOL     vw  172   1.220   1.937   2.920 -0.0615 -0.3518 -0.4895
   44SOL     ow  173   0.886   1.140   1.241  0.5020 -0.7212  0.5353
   44SOL     hw  174   0.792   1.125   1.230  0.5358 -0.9705  0.5875
   44SOL     hw  175   0.926   1.054   1.231  0.7672 -0.5486  0.0851
   44SOL     vw  176   0.879   1.127   1.238  0.5415 -0.7313  0.4828
   45SOL     ow  177   0.660   0.729   3.399  0.2094  0.1771  0.2978
   45SOL     hw  178   0.639   0.822   3.392 -2.0938 -0.3201 -0.5167
   45SOL     hw  179   0.660   0.711   3.493  0.2939  0.9255  0.4468
   45SOL     vw  180   0.657   0.739   3.410 -0.0833  0.2102  0.2099
   46SOL     ow  181   1.770   1.089   0.442  0.0087  0.2172 -0.2661
   46SOL     hw  182   1.729   1.061   0.524  0.1380  0.0961 -0.2409
   46SOL     hw  183   1.824   1.014   0.416  0.9182  0.6931  0.1760
   46SOL     vw  184   1.772   1.076   0.449  0.1458  0.2640 -0.2045
   47SOL     ow  185   1.605   0.786   0.729  0.7203 -0.4671  0.4052
   47SOL     hw  186   1.612   0.882   0.720 -1.8546 -0.0950  1.5460
   47SOL     hw  187   1.563   0.758   0.649  1.2232 -0.6278  0.1932
   47SOL     vw  188   1.600   0.795   0.717  0.4470 -0.4391  0.5277
   48SOL     ow  189   0.283   2.029   2.345 -0.0479 -0.9817 -0.6957
   48SOL     hw  190   0.268   2.026   2.250  0.6117  2.0567 -0.9935
   48SOL     hw  191   0.345   2.101   2.357 -3.5890  1.9577  2.3600
   48SOL     vw  192   0.289   2.038   2.334 -0.4281 -0.1930 -0.3318
   49SOL     ow  193   1.284   0.126   4.621 -0.8186  0.1549 -0.0640
   49SOL     hw  194   1.230   0.053   4.652 -0.4527  0.6858  1.9601
   49SOL     hw  195   1.372   0.089   4.615 -0.9679 -0.0695 -0.9702
   49SOL     vw  196   1.288   0.112   4.624 -0.7899  0.1953  0.0837
   50SOL     ow  197   1.974   2.088   5.372  0.1620 -0.1436 -0.3100
   50SOL     hw  198   1.953   2.108   5.463 -0.3028  0.0821 -0.4583
   50SOL     hw  199   2.009   1.999   5.374 -1.1042 -0.6654 -0.0654
   50SOL     vw  200   1.976   2.079   5.384 -0.0664 -0.1827 -0.2973
   51SOL     ow  201   0.540   0.602   2.476  0.0463  0.4826 -0.2340
   51SOL     hw  202   0.549   0.693   2.505 -0.7056  0.5534 -0.2025
   51SOL     hw  203   0.450   0.596   2.445  0.7340  0.3647 -2.3991
   51SOL     vw  204   0.529   0.614   2.476  0.0379  0.4764 -0.5156
   52SOL     ow  205   0.608   1.389   5.179 -0.7064  0.2797  0.1043
   52SOL     hw  206   0.683   1.373   5.122 -2.3100 -0.2919 -2.0083
   52SOL     hw  207   0.641   1.448   5.246  1.9195 -0.9478  0.0245
   52SOL     vw  208   0.622   1.394   5.180 -0.5715  0.0424 -0.1850
   53SOL     ow  209   0.211   1.512   0.359 -0.1529  0.0952 -0.5503
   53SOL     hw  210   0.184   1.551   0.275 -2.1637 -1.3929 -0.6388
   53SOL     hw  211   0.167   1.565   0.425 -0.3411 -0.0819 -0.5334
   53SOL     vw  212   0.202   1.524   0.357 -0.4430 -0.1246 -0.5597
   54SOL     ow  213   0.587   0.504   4.897 -0.1551  0.2592 -0.2354
   54SOL     hw  214   0.679   0.522   4.880  0.9673 -3.1561  1.2109
   54SOL     hw  215   0.581   0.494   4.992 -1.9412  0.0485 -0.3234
   54SOL     vw  216   0.598   0.505   4.907 -0.2427 -0.2193 -0.0563
   55poe    c31  217   0.550   0.683   2.096 -0.4235  0.3935  0.2920
   55poe     o2  218   0.622   0.708   1.978 -0.4668  0.0808  0.2003
   55poe    c23  219   0.624   0.840   1.929 -0.3966 -0.0577 -0.1786
   55poe    c23  220   0.719   0.882   1.816  0.1867 -0.4854  0.1505
   55poe     o2  221   0.740   0.784   1.717  0.0152 -0.4301  0.0595
   55poe    c23  222   0.819   0.842   1.615  0.2847 -0.5113  0.2198
   55poe    c23  223   0.849   0.736   1.507 -0.1498 -0.2070 -0.2078
   55poe     o2  224   0.904   0.631   1.583  0.2289 -0.0543 -0.2668
   55poe    c23  225   0.942   0.517   1.509 -0.4683 -0.5740  0.1623
   55poe    c23  226   0.980   0.394   1.594  0.2206  0.1023  0.8506
   55poe     o2  227   0.907   0.385   1.714 -0.1162 -0.4519  0.6095
   55poe    c31  228   0.957   0.279   1.792  0.4011 -0.3489  0.4223
   56poe    c31  229   1.115   1.612   3.757  0.7397 -0.0853 -0.3362
   56poe     o2  230   1.155   1.598   3.622  0.4828 -0.6951 -0.3522
   56poe    c23  231   1.078   1.676   3.533  0.5124  0.3971  0.5557
   56poe    c23  232   1.162   1.704   3.407 -0.1431 -0.0348  0.0218
   56poe     o2  233   1.204   1.575   3.369 -0.4810 -0.0988 -0.1468
   56poe    c23  234   1.232   1.549   3.233  0.4398  0.6984 -0.1207
   56poe    c23  235   1.250   1.397   3.221 -0.5586  0.5163  0.5585
   56poe     o2  236   1.290   1.353   3.349 -0.3710  0.2154  0.3976
   56poe    c23  237   1.222   1.236   3.386  0.1553 -0.4347 -0.6323
   56poe    c23  238   1.268   1.208   3.531  0.6066  0.6319 -0.5627
   56poe     o2  239   1.235   1.316   3.615  0.0678 -0.0284  0.0812
   56poe    c31  240   1.298   1.316   3.741  0.7547  0.9511 -0.2504
   57poe    c31  241   0.182   1.094   2.118  0.4703  0.3827  0.2826
   57poe     o2  242   0.161   0.997   2.018 -0.2665  0.3229  0.4857
   57poe    c23  243   0.265   0.902   2.013 -0.2095  0.4139 -0.1460
   57poe    c23  244   0.237   0.786   1.915 -0.4342  0.4806 -0.1610
   57poe     o2  245   0.214   0.818   1.780 -0.1245 -0.1468 -0.3668
   57poe    c23  246   0.286   0.738   1.689 -0.0061 -0.2421 -0.1897
   57poe    c23  247   0.291   0.808   1.552 -0.6351  0.5428  0.1812
   57poe     o2  248   0.158   0.850   1.529 -0.7260  0.4866  0.5933
   57poe    c23  249   0.133   0.899   1.399  0.0017 -0.7546 -0.0400
   57poe    c23  250  -0.019   0.917   1.385  0.0819 -0.1041 -0.1419
   57poe     o2  251  -0.062   0.970   1.509  0.5446 -0.2448  0.0798
   57poe    c31  252  -0.179   1.047   1.491 -0.1192 -1.3865 -0.5735
   58poe    c31  253   1.130   1.355   0.355  0.3763 -0.3376 -0.1134
   58poe     o2  254   1.078   1.231   0.312 -0.0649 -0.2082  0.0489
   58poe    c23  255   1.124   1.124   0.391  0.5028  0.4284  0.5911
   58poe    c23  256   1.135   0.998   0.303  0.3284  0.3690  0.6530
   58poe     o2  257   1.025   0.980   0.217  0.8490 -0.4027  0.1409
   58poe    c23  258   1.060   0.888   0.116  0.2131 -0.2658 -0.2036
   58poe    c23  259   0.954   0.916   0.007 -0.3153 -0.1784  0.3254
   58poe     o2  260   0.937   1.056   0.007 -0.3744 -0.1858  0.1921
   58poe    c23  261   1.021   1.131  -0.078 -0.7592 -0.0008 -0.0275
   58poe    c23  262   0.983   1.278  -0.051 -0.4109  0.1039 -0.1064
   58poe     o2  263   0.928   1.291   0.078 -0.6889 -0.7591 -0.1272
   58poe    c31  264   0.899   1.427   0.101 -0.4220 -0.8685  0.8973
   59poe    c31  265   0.402   1.610   1.947 -0.4509  0.0330  0.8798
   59poe     o2  266   0.530   1.553   1.938 -0.5561 -0.1575  0.5866
   59poe    c23  267   0.529   1.430   1.868  0.5350 -0.0804  0.4173
   59poe    c23  268   0.673   1.383   1.842  0.3112 -0.3696 -0.3304
   59poe     o2  269   0.743   1.436   1.952 -0.0939  0.4790 -0.4777
   59poe    c23  270   0.882   1.418   1.934 -0.0851 -0.0410  0.0851
   59poe    c23  271   0.931   1.498   2.055  0.2640  0.1870 -0.2057
   59poe     o2  272   0.856   1.617   2.067  0.5652  0.3409  0.1881
   59poe    c23  273   0.861   1.667   2.199  0.4648 -0.5203  0.5210
   59poe    c23  274   0.748   1.770   2.210  0.2154 -0.6926 -0.3344
   59poe     o2  275   0.625   1.716   2.168 -0.1181 -0.2265  0.0277
   59poe    c31  276   0.529   1.776   2.251  0.2313  0.9569 -0.4003
   60poe    c31  277   0.903   0.906   0.720  0.0541  0.0619  0.3144
   60poe     o2  278   0.938   1.038   0.754  0.0538  0.4588 -1.1573
   60poe    c23  279   1.053   1.062   0.831 -0.6732 -0.5841  0.2977
   60poe    c23  280   1.071   1.206   0.882  0.3576 -0.4988 -0.2815
   60poe     o2  281   0.978   1.249   0.979  0.2277  0.0347 -0.6340
   60poe    c23  282   0.906   1.360   0.932 -0.6000 -0.2574 -0.0831
   60poe    c23  283   0.811   1.401   1.047  0.5985  0.8523  0.5421
   60poe     o2  284   0.886   1.417   1.165  0.6458  0.3839  0.5793
   60poe    c23  285   0.813   1.484   1.266 -0.2827  0.4228 -0.1012
   60poe    c23  286   0.919   1.514   1.374  0.2347 -0.3708 -0.3798
   60poe     o2  287   0.963   1.392   1.427 -0.0302 -0.1071  0.4560
   60poe    c31  288   1.059   1.405   1.530  0.3737  0.2164  0.0409
   61poe    c31  289   1.708   1.217   1.351  0.0395 -0.2815  0.1208
   61poe     o2  290   1.715   1.345   1.293 -0.0219 -0.3618 -0.0660
   61poe    c23  291   1.772   1.339   1.164  0.0788 -0.6070 -0.0115
   61poe    c23  292   1.718   1.467   1.097  0.3554 -0.0559  0.8095
   61poe     o2  293   1.737   1.576   1.185  0.9911  0.4682  0.0452
   61poe    c23  294   1.717   1.702   1.125 -0.6842  0.4903  0.6043
   61poe    c23  295   1.722   1.787   1.253 -0.3337 -0.0654  0.9617
   61poe     o2  296   1.608   1.751   1.327 -0.8948  0.2119  0.2468
   61poe    c23  297   1.614   1.791   1.462  0.3275  0.0971  0.2326
   61poe    c23  298   1.532   1.686   1.539  0.3974 -0.1923 -0.0843
   61poe     o2  299   1.587   1.561   1.503  0.0536 -0.2079 -0.5630
   61poe    c31  300   1.513   1.468   1.578  0.1760  0.4014  0.3354
   62poe    c31  301   1.541   0.790   3.622 -0.6460 -0.2404  0.5184
   62poe     o2  302   1.506   0.894   3.711  0.1631  0.5631 -0.0811
   62poe    c23  303   1.615   0.934   3.791  0.0182  0.3447  0.2265
   62poe    c23  304   1.564   1.034   3.896 -0.3182  0.2291  0.1760
   62poe     o2  305   1.492   0.984   4.007 -0.1816 -0.1191  0.1089
   62poe    c23  306   1.471   1.087   4.100  0.0341  0.1891 -0.1790
   62poe    c23  307   1.385   1.042   4.220 -0.3855  0.1004 -0.5116
   62poe     o2  308   1.271   0.971   4.177 -0.4565  0.0276 -0.2082
   62poe    c23  309   1.177   0.932   4.274 -0.6303  0.0715 -0.3565
   62poe    c23  310   1.045   0.883   4.212 -0.6688  0.2000 -0.3756
   62poe     o2  311   1.077   0.775   4.127 -0.4022 -0.3573  0.4225
   62poe    c31  312   0.963   0.697   4.099 -0.5572  0.1186 -0.3131
   63poe    c31  313   1.695   2.054   4.065  0.0325 -0.7395 -0.2817
   63poe     o2  314   1.566   2.055   4.009  0.0254  0.1327 -0.2573
   63poe    c23  315   1.570   2.008   3.876  0.2180  0.3230 -0.3184
   63poe    c23  316   1.445   2.050   3.798  0.1221  0.2643 -0.1962
   63poe     o2  317   1.342   2.015   3.889 -0.0934 -0.1201 -0.5831
   63poe    c23  318   1.213   2.023   3.833 -0.2588  0.3034 -0.1460
   63poe    c23  319   1.091   2.018   3.927 -0.1460  0.5956  0.0178
   63poe     o2  320   1.160   2.056   4.044  0.2392  0.4263 -0.1546
   63poe    c23  321   1.132   1.976   4.156 -0.0891  0.2909 -0.3324
   63poe    c23  322   1.223   2.016   4.274 -0.3602  0.9355 -0.3438
   63poe     o2  323   1.353   2.047   4.228 -0.0500 -0.1173 -0.1892
   63poe    c31  324   1.460   2.027   4.317 -0.5506  0.0707  0.4619
   64poe    c31  325   0.859   1.733   5.570  0.2334 -0.1025  0.2421
   64poe     o2  326   0.946   1.792   5.476  0.2494 -0.5631 -0.0326
   64poe    c23  327   0.927   1.762   5.339 -0.2854  0.2059 -0.1345
   64poe    c23  328   1.016   1.854   5.254  0.3502 -0.2167  0.0715
   64poe     o2  329   0.997   1.979   5.316  0.5809 -0.3046  0.3246
   64poe    c23  330   1.058   2.082   5.242 -0.4010  0.0982  0.0535
   64poe    c23  331   0.964   2.203   5.260 -0.0634  0.3403  0.1992
   64poe     o2  332   0.923   2.205   5.395 -0.1545 -0.0816  0.1793
   64poe    c23  333   0.938   2.332   5.453 -0.4955 -0.1612  0.4481
   64poe    c23  334   0.797   2.390   5.475 -0.4976 -0.1683  0.4528
   64poe     o2  335   0.740   2.319   5.583 -0.2702 -0.5304  0.3379
   64poe    c31  336   0.604   2.359   5.583 -0.0969  0.0821  0.0723
   65poe    c31  337   1.527   0.838   2.691  0.2568 -0.7651 -1.1130
   65poe     o2  338   1.649   0.906   2.707 -0.2707 -0.0755  0.1603
   65poe    c23  339   1.622   1.039   2.747 -0.0665  0.2520 -0.7506
   65poe    c23  340   1.762   1.096   2.773 -0.1810  0.2865 -0.1879
   65poe     o2  341   1.836   1.052   2.661 -0.1065  0.4354 -0.1982
   65poe    c23  342   1.965   1.107   2.660  0.1551 -0.1651  0.0013
   65poe    c23  343   2.058   1.043   2.556  0.4202  0.0245  0.1192
   65poe     o2  344   2.046   0.902   2.556  0.0118  0.0590  0.3764
   65poe    c23  345   2.120   0.847   2.662  0.6752  0.3040  0.0458
   65poe    c23  346   2.032   0.735   2.722  0.4830  0.1949 -0.4307
   65poe     o2  347   1.901   0.782   2.744 -0.0007 -0.9715 -0.7524
   65poe    c31  348   1.832   0.685   2.819 -0.7324  0.0141 -0.1262
   66poe    c31  349   1.981   2.061   5.735  0.3499 -0.3749 -0.3741
   66poe     o2  350   1.958   2.143   5.622 -0.3737  0.0027  0.0362
   66poe    c23  351   1.971   2.280   5.652  0.1644 -0.0354 -0.0045
   66poe    c23  352   2.075   2.352   5.564 -0.0277  0.3676  0.0932
   66poe     o2  353   2.059   2.338   5.425 -0.1865 -0.4443  0.1872
   66poe    c23  354   2.191   2.352   5.377 -0.4572  0.0084 -0.4345
   66poe    c23  355   2.196   2.335   5.224  0.0934  0.0372 -0.4225
   66poe     o2  356   2.121   2.223   5.183 -0.1285 -0.0037  0.0841
   66poe    c23  357   2.089   2.238   5.046  0.0896 -0.4446 -0.0175
   66poe    c23  358   1.976   2.135   5.023 -0.1394 -0.0785 -0.5487
   66poe     o2  359   1.894   2.154   5.136  0.0639 -0.4380 -0.3393
   66poe    c31  360   1.765   2.098   5.123 -0.1744 -0.0189  0.2047
   67poe    c31  361   2.196   1.551   4.679 -0.3373 -0.3959  0.0301
   67poe     o2  362   2.076   1.502   4.622 -0.2793 -0.3447 -0.1360
   67poe    c23  363   2.038   1.368   4.646 -0.0184 -0.2964  0.5490
   67poe    c23  364   1.894   1.348   4.596  0.2114 -0.3769 -0.0849
   67poe     o2  365   1.875   1.383   4.461 -0.4133  0.0519  0.1103
   67poe    c23  366   1.767   1.473   4.448 -0.1251  0.3963  0.0780
   67poe    c23  367   1.738   1.484   4.297  0.1445  0.1465  0.0082
   67poe     o2  368   1.859   1.501   4.227  0.3000 -0.0382  0.2298
   67poe    c23  369   1.851   1.456   4.093  0.6519 -0.4928  0.3553
   67poe    c23  370   1.978   1.519   4.034 -0.3507  1.0574 -0.2118
   67poe     o2  371   2.078   1.482   4.125 -0.2902  0.8888 -0.3461
   67poe    c31  372   2.208   1.483   4.071 -0.0931 -1.4884 -0.0206
   68poe    c31  373   0.905   0.598   2.549  0.5096 -0.6243 -0.0410
   68poe     o2  374   0.804   0.501   2.570 -0.1769  0.0105 -0.3542
   68poe    c23  375   0.860   0.380   2.616 -0.1259 -0.0531 -0.5840
   68poe    c23  376   0.746   0.277   2.629 -0.3360  0.2637  0.1632
   68poe     o2  377   0.663   0.304   2.518  0.3152  0.0521 -0.3888
   68poe    c23  378   0.546   0.229   2.538  0.2228  0.3892  0.4008
   68poe    c23  379   0.442   0.235   2.424  0.1529  0.1820  0.4525
   68poe     o2  380   0.404   0.370   2.409 -0.3280 -0.0061 -0.0550
   68poe    c23  381   0.349   0.397   2.282 -0.0741  0.0964 -0.1420
   68poe    c23  382   0.239   0.501   2.307  0.0781  0.3030 -0.3308
   68poe     o2  383   0.288   0.615   2.374 -0.2753  0.4661 -0.3457
   68poe    c31  384   0.190   0.675   2.456 -0.0956  0.0933  0.1487
   69poe    c31  385   0.472   2.123   4.489  0.3659 -0.5483 -0.1662
   69poe     o2  386   0.452   1.988   4.522 -0.0961 -0.3794  0.2565
   69poe    c23  387   0.313   1.966   4.533 -0.0737 -0.2105  0.8936
   69poe    c23  388   0.303   1.813   4.553 -0.1334 -0.3908 -0.4688
   69poe     o2  389   0.405   1.740   4.488  0.4991  0.2641 -0.2258
   69poe    c23  390   0.376   1.603   4.505 -0.2028  0.5022  0.5267
   69poe    c23  391   0.493   1.530   4.436 -0.1714  0.5835  0.4939
   69poe     o2  392   0.608   1.606   4.469  0.0102  0.5491 -0.0626
   69poe    c23  393   0.718   1.559   4.394 -0.2855 -0.0796 -0.1173
   69poe    c23  394   0.854   1.567   4.467 -0.5782  0.3231  0.3904
   69poe     o2  395   0.882   1.702   4.498 -0.1795  0.3140  0.0779
   69poe    c31  396   1.014   1.719   4.544 -0.2731 -0.0677  0.4944
   70poe    c31  397   1.933   1.279   6.039 -0.2358  0.0564  0.3563
   70poe     o2  398   1.838   1.368   6.094 -0.2945  0.5931 -0.5928
   70poe    c23  399   1.707   1.329   6.058 -0.0727 -0.1320 -0.6303
   70poe    c23  400   1.617   1.454   6.063  0.4692  0.2218  0.6393
   70poe     o2  401   1.700   1.560   6.019  0.0587  0.1064 -0.4452
   70poe    c23  402   1.668   1.599   5.887 -0.3980  1.0113 -0.0779
   70poe    c23  403   1.789   1.690   5.861 -0.1937  0.8330  0.2352
   70poe     o2  404   1.901   1.622   5.913  0.0788  0.7886 -0.4046
   70poe    c23  405   2.028   1.678   5.884  0.2039  1.0694  0.6644
   70poe    c23  406   2.133   1.615   5.978 -0.3544 -0.7271  0.1210
   70poe     o2  407   2.069   1.598   6.102 -0.1688 -0.0331  0.3149
   70poe    c31  408   2.162   1.520   6.173 -0.0902  0.0123  0.2628
   71poe    c31  409   2.264   1.714   3.169  0.3740 -0.7011 -0.3702
   71poe     o2  410   2.135   1.671   3.129  0.1643 -0.3988 -0.0214
   71poe    c23  411   2.154   1.567   3.036 -0.1932 -0.5053  0.0251
   71poe    c23  412   2.022   1.549   2.958 -0.1240  0.3214 -0.2956
   71poe     o2  413   1.920   1.553   3.055  0.1619 -0.2464  0.0372
   71poe    c23  414   1.795   1.518   3.000  0.2189 -0.0309 -0.2305
   71poe    c23  415   1.693   1.468   3.104  0.6166  0.2583  0.2962
   71poe     o2  416   1.709   1.331   3.132  0.3082  0.1028 -0.2978
   71poe    c23  417   1.750   1.312   3.265 -0.4522 -0.6574 -0.1595
   71poe    c23  418   1.654   1.328   3.385  0.1876  0.1415  0.2529
   71poe     o2  419   1.556   1.227   3.385  0.5050 -0.1717 -0.2701
   71poe    c31  420   1.604   1.117   3.459  1.0718 -0.2356 -0.7230
   72poe    c31  421   0.930   0.492   3.499 -0.1726 -0.0676 -0.0718
   72poe     o2  422   0.833   0.502   3.398 -0.5087 -0.5168  0.2037
   72poe    c23  423   0.802   0.371   3.354 -0.6242 -0.3593 -0.1913
   72poe    c23  424   0.689   0.399   3.253 -1.0101 -0.1555  0.2903
   72poe     o2  425   0.746   0.489   3.160 -0.3138 -0.4995  0.3767
   72poe    c23  426   0.655   0.537   3.064  0.5991 -0.3208 -0.4177
   72poe    c23  427   0.709   0.661   2.991  0.0835 -0.0497 -0.3476
   72poe     o2  428   0.764   0.743   3.091 -0.2981  0.3681 -0.4787
   72poe    c23  429   0.875   0.815   3.044 -0.1603  0.1720 -0.4530
   72poe    c23  430   0.934   0.880   3.171  0.2364 -0.0922 -0.5004
   72poe     o2  431   0.928   0.793   3.281  0.1829  0.4609 -0.0660
   72poe    c31  432   1.000   0.832   3.397  0.1377  0.0889  0.0900
   73poe    c31  433   1.503   0.797   6.318  0.0526  1.0080  0.2912
   73poe     o2  434   1.572   0.744   6.208 -0.9351 -0.2578  0.2597
   73poe    c23  435   1.556   0.850   6.116  0.7889 -0.0548  0.1507
   73poe    c23  436   1.615   0.806   5.980 -0.2034 -0.7444 -0.0674
   73poe     o2  437   1.540   0.701   5.921 -0.1239 -0.6768 -0.2879
   73poe    c23  438   1.590   0.658   5.797  0.2464  0.1398 -0.4339
   73poe    c23  439   1.547   0.510   5.792  0.2898  0.1135 -0.0531
   73poe     o2  440   1.406   0.513   5.780  0.3682  0.0784 -1.0770
   73poe    c23  441   1.350   0.405   5.710 -0.3810 -0.0101 -0.3591
   73poe    c23  442   1.214   0.454   5.657 -0.6885 -0.1891  0.2523
   73poe     o2  443   1.166   0.545   5.753 -0.3949  0.1140  0.1136
   73poe    c31  444   1.028   0.573   5.746 -0.4098  0.1396  0.4809
   74poe    c31  445   1.621   1.871   5.437 -0.4128  0.1146 -0.1776
   74poe     o2  446   1.605   1.792   5.321 -0.4702  0.1759 -0.2121
   74poe    c23  447   1.541   1.674   5.363 -0.0718  0.0913  0.1691
   74poe    c23  448   1.514   1.569   5.254  0.0298 -0.2718  0.4885
   74poe     o2  449   1.625   1.527   5.179 -0.2379 -0.3203  0.1144
   74poe    c23  450   1.575   1.435   5.084  0.0178 -0.0866 -0.2472
   74poe    c23  451   1.701   1.367   5.027  0.2400  0.3351 -0.2670
   74poe     o2  452   1.799   1.468   5.032  0.4088  0.1641 -0.0406
   74poe    c23  453   1.924   1.411   5.001  0.6257  0.4725  0.2634
   74poe    c23  454   2.039   1.511   5.024  0.9910  0.1765 -0.2546
   74poe     o2  455   1.994   1.586   5.135  0.5467 -0.0084 -0.3088
   74poe    c31  456   2.105   1.643   5.199  0.2308  0.0122  0.2252
   75poe    c31  457   2.009   1.684   0.138 -0.8267 -0.2633 -0.2538
   75poe     o2  458   1.970   1.762   0.248  0.0980 -0.0334 -0.0754
   75poe    c23  459   2.078   1.796   0.332 -0.2037 -0.0891  0.3447
   75poe    c23  460   2.036   1.869   0.460 -0.2284 -0.5295  0.5893
   75poe     o2  461   1.931   1.812   0.534 -0.3937 -0.2871  0.5426
   75poe    c23  462   1.897   1.863   0.661  0.2540  0.3801  0.4494
   75poe    c23  463   1.754   1.815   0.691  0.1771 -0.0299 -0.5338
   75poe     o2  464   1.658   1.858   0.598 -0.2559 -0.0032 -0.0800
   75poe    c23  465   1.527   1.825   0.639  0.0528 -0.6740  0.3890
   75poe    c23  466   1.429   1.878   0.533  0.8532  0.7380  0.3206
   75poe     o2  467   1.472   1.855   0.400 -0.4018  0.3733 -0.0410
   75poe    c31  468   1.387   1.930   0.316 -0.0139  0.1837 -0.6034
   76poe    c31  469   0.097   0.820   4.137 -0.4373  0.1414  0.2434
   76poe     o2  470   0.110   0.688   4.087 -0.5229  0.2351 -0.0256
   76poe    c23  471   0.009   0.656   3.993 -0.4480  0.4781 -0.1901
   76poe    c23  472  -0.060   0.526   4.037  0.6098  0.0127  0.1465
   76poe     o2  473   0.044   0.438   4.072  0.5598  0.1181  0.5661
   76poe    c23  474  -0.001   0.349   4.171 -0.2190  0.2051  0.2945
   76poe    c23  475   0.111   0.311   4.269  0.3357  0.2664 -0.3063
   76poe     o2  476   0.182   0.431   4.291 -0.0370  0.3433  0.5226
   76poe    c23  477   0.310   0.418   4.348  0.3586 -0.2787 -0.4810
   76poe    c23  478   0.369   0.560   4.351 -0.2229 -0.0432  0.0155
   76poe     o2  479   0.338   0.626   4.230 -0.3975 -0.3787 -0.1233
   76poe    c31  480   0.427   0.735   4.224 -0.8015 -0.0472 -0.1270
   77poe    c31  481   0.600   0.315   4.586 -0.7363  0.6780 -0.1092
   77poe     o2  482   0.552   0.282   4.714  0.0219  0.2121  0.0604
   77poe    c23  483   0.552   0.143   4.738 -0.8908  0.2448  0.2959
   77poe    c23  484   0.530   0.127   4.889 -0.1948  0.3917  0.4177
   77poe     o2  485   0.435   0.220   4.936 -0.5407  0.2968 -0.0924
   77poe    c23  486   0.423   0.210   5.076 -0.2667 -0.2987 -0.1097
   77poe    c23  487   0.320   0.320   5.107  0.2051  0.2298 -0.4060
   77poe     o2  488   0.361   0.432   5.031 -0.2422  0.1339 -0.7916
   77poe    c23  489   0.292   0.545   5.079 -0.4924 -0.0451 -0.7256
   77poe    c23  490   0.291   0.668   4.986  0.2821  0.3958 -0.1660
   77poe     o2  491   0.209   0.644   4.874  0.0568  0.2339  0.0326
   77poe    c31  492   0.232   0.750   4.784  0.2339  0.2288  0.0710
   78poe    c31  493   1.635   0.735   1.979 -0.2055  0.0397  0.4762
   78poe     o2  494   1.576   0.734   1.851 -0.1141  0.3778  0.4310
   78poe    c23  495   1.506   0.854   1.824  0.1885  0.3169 -0.6654
   78poe    c23  496   1.477   0.858   1.672 -0.4436 -0.1920 -0.5600
   78poe     o2  497   1.476   0.723   1.632  0.1309 -0.5483  0.5903
   78poe    c23  498   1.420   0.701   1.505  0.2930 -0.7663  0.5556
   78poe    c23  499   1.348   0.565   1.513 -0.8591 -0.1469  0.9542
   78poe     o2  500   1.450   0.492   1.578 -0.3679 -0.1952  0.1379
   78poe    c23  501   1.398   0.369   1.624 -0.3572  0.0202  0.7266
   78poe    c23  502   1.504   0.328   1.728  0.1035  0.1851  0.3275
   78poe     o2  503   1.532   0.436   1.815  0.0034  0.4252  0.0644
   78poe    c31  504   1.582   0.377   1.933  0.8346  0.4309 -0.2787
   79poe    c31  505   1.962   1.160   0.181 -0.2351  0.6118 -0.0187
   79poe     o2  506   1.950   1.234   0.301 -0.4309  0.1079  0.2759
   79poe    c23  507   2.061   1.320   0.314 -0.1900 -0.1737  0.1051
   79poe    c23  508   1.997   1.441   0.385 -0.3621 -0.1666 -0.0612
   79poe     o2  509   1.923   1.396   0.496  0.3168 -0.1014  0.4191
   79poe    c23  510   1.850   1.487   0.576  0.0283  0.2347 -0.2218
   79poe    c23  511   1.801   1.391   0.686 -0.7109  0.7695 -0.0804
   79poe     o2  512   1.724   1.285   0.634 -0.0128  0.5041 -0.5880
   79poe    c23  513   1.647   1.226   0.736  0.8302  0.1113 -0.1794
   79poe    c23  514   1.524   1.152   0.681  1.0941  0.0235 -0.6598
   79poe     o2  515   1.543   1.028   0.616  0.3133 -0.1022 -0.6557
   79poe    c31  516   1.428   0.998   0.541  0.3975 -0.1065 -0.7833
   80poe    c31  517   0.262   2.218   4.223 -0.2037 -0.1416  0.4953
   80poe     o2  518   0.315   2.175   4.099  0.1784  0.8046  0.3225
   80poe    c23  519   0.243   2.232   3.993 -0.0204  0.4318  0.2559
   80poe    c23  520   0.305   2.186   3.860 -0.3407  0.0328  0.2420
   80poe     o2  521   0.442   2.221   3.872 -0.2488 -0.3270  0.2636
   80poe    c23  522   0.501   2.175   3.753  0.1930  0.0631  0.3314
   80poe    c23  523   0.640   2.240   3.747  0.0649  0.3070 -0.0643
   80poe     o2  524   0.705   2.234   3.873 -0.4064  0.5346  0.1914
   80poe    c23  525   0.825   2.304   3.847  0.0386 -0.2629  0.0739
   80poe    c23  526   0.921   2.339   3.962 -0.1269 -0.0300  0.1410
   80poe     o2  527   0.856   2.421   4.057 -0.0391 -0.2105  0.3578
   80poe    c31  528   0.922   2.545   4.044 -0.5912  0.0836  0.3012
   81poe    c31  529   2.189   0.742   5.901 -0.2127 -0.1201 -0.5653
   81poe     o2  530   2.299   0.708   5.818 -0.1724 -0.4294 -0.3871
   81poe    c23  531   2.280   0.764   5.690  0.6282  0.2059 -0.2339
   81poe    c23  532   2.402   0.736   5.600  0.5575 -0.4683 -0.1254
   81poe     o2  533   2.513   0.782   5.673  0.1841 -0.1585  0.2510
   81poe    c23  534   2.628   0.798   5.593 -0.2398  0.0428 -0.3192
   81poe    c23  535   2.728   0.873   5.682 -0.3986 -0.4712  0.2952
   81poe     o2  536   2.713   0.868   5.823 -0.2261 -0.4292  0.3156
   81poe    c23  537   2.839   0.883   5.884 -0.0276 -0.3472 -0.1084
   81poe    c23  538   2.828   0.886   6.038 -0.5542  0.0083 -0.1484
   81poe     o2  539   2.770   0.764   6.079  0.5694 -0.3401  0.4473
   81poe    c31  540   2.722   0.773   6.211 -0.5131 -0.6896  0.0889
   82poe    c31  541   0.702   1.215   2.699  0.1954  0.1298  0.0346
   82poe     o2  542   0.718   1.355   2.697  0.7808  0.0684  0.0962
   82poe    c23  543   0.647   1.416   2.592  0.4710 -0.1162  0.1945
   82poe    c23  544   0.710   1.550   2.550 -0.0444  0.1201  0.1663
   82poe     o2  545   0.731   1.610   2.676  0.3847  0.0715  0.1209
   82poe    c23  546   0.774   1.744   2.674  0.2846  0.0993 -0.2349
   82poe    c23  547   0.819   1.771   2.819 -0.1331  0.0620 -0.0979
   82poe     o2  548   0.886   1.656   2.866  0.5828  0.3181 -0.4810
   82poe    c23  549   0.908   1.654   3.005 -0.5347 -0.1604 -0.3067
   82poe    c23  550   0.908   1.503   3.037 -0.0672 -0.0063  0.4211
   82poe     o2  551   0.804   1.446   2.962 -0.0821  0.1655  0.3111
   82poe    c31  552   0.800   1.319   3.022  0.2081  0.2457  0.5010
   83poe    c31  553   0.391   2.049   6.106 -0.3003 -0.5983 -0.1854
   83poe     o2  554   0.274   2.109   6.057  0.4291  0.6673 -0.4085
   83poe    c23  555   0.171   2.086   6.151  0.5716 -0.3187 -0.4930
   83poe    c23  556   0.046   2.164   6.107  0.4031 -0.0115  0.5205
   83poe     o2  557   0.087   2.284   6.047 -0.3114 -0.1643 -0.2844
   83poe    c23  558  -0.023   2.372   6.034 -0.2281 -0.0837 -0.4455
   83poe    c23  559   0.010   2.510   5.974  0.8609 -0.0243  0.2618
   83poe     o2  560   0.031   2.501   5.834  0.0594 -0.3523  0.1623
   83poe    c23  561   0.059   2.623   5.770  0.0473 -0.5836 -0.2851
   83poe    c23  562   0.195   2.685   5.809 -0.2050 -0.1010 -0.1757
   83poe     o2  563   0.311   2.624   5.759 -0.3748 -0.0894 -0.5865
   83poe    c31  564   0.436   2.685   5.784  0.0805 -0.9492 -0.7202
   84poe    c31  565   0.269   1.641   5.920  0.6227  0.0305  0.9794
   84poe     o2  566   0.337   1.522   5.888  0.1169 -0.0431  0.1351
   84poe    c23  567   0.349   1.472   6.019 -0.1588 -0.6163 -0.0549
   84poe    c23  568   0.474   1.382   6.021  0.4625  0.2196 -0.3208
   84poe     o2  569   0.459   1.287   5.918  0.3222 -0.2240  0.1025
   84poe    c23  570   0.587   1.262   5.865  0.3062  0.1817 -0.1313
   84poe    c23  571   0.565   1.261   5.713 -0.5049  0.1138 -0.0185
   84poe     o2  572   0.469   1.357   5.675 -0.0734  0.7074  0.3683
   84poe    c23  573   0.453   1.365   5.535 -0.1501  0.6018  0.3706
   84poe    c23  574   0.348   1.478   5.533 -0.5281  0.2393 -0.5176
   84poe     o2  575   0.251   1.457   5.634 -0.1049  0.0134 -0.1525
   84poe    c31  576   0.130   1.483   5.566 -0.5586 -0.1634  0.5817
   85poe    c31  577   0.805   0.841   3.804 -0.6343  0.2077 -0.0942
   85poe     o2  578   0.942   0.854   3.771 -0.5553 -0.5351 -0.0819
   85poe    c23  579   0.985   0.976   3.827 -0.1015 -0.8011  0.1618
   85poe    c23  580   1.136   1.001   3.820 -0.1735 -0.3580  0.1564
   85poe     o2  581   1.210   0.903   3.890 -0.2893 -0.4012  0.2171
   85poe    c23  582   1.245   0.794   3.808  0.1394 -0.2920  0.2516
   85poe    c23  583   1.293   0.672   3.890 -0.8327 -0.5818  0.4045
   85poe     o2  584   1.376   0.730   3.988  0.2750 -0.0242 -0.8399
   85poe    c23  585   1.442   0.623   4.050  0.0241  0.2048 -0.1726
   85poe    c23  586   1.534   0.657   4.169  0.2312 -0.3130 -0.1795
   85poe     o2  587   1.649   0.730   4.135  0.2149 -0.1674  0.0702
   85poe    c31  588   1.717   0.785   4.245 -0.3229 -0.3057  0.4733
   86poe    c31  589   0.539   1.028   5.099 -0.1873  0.1650  0.7205
   86poe     o2  590   0.530   1.150   5.028 -0.0411 -0.0501  0.3284
   86poe    c23  591   0.620   1.135   4.920 -0.2041 -0.0363  0.1917
   86poe    c23  592   0.592   1.235   4.807 -0.3707 -0.2542  0.0369
   86poe     o2  593   0.560   1.351   4.881 -0.7476 -0.4476  0.1791
   86poe    c23  594   0.531   1.462   4.798  0.1467 -0.3698 -0.0411
   86poe    c23  595   0.510   1.588   4.884  0.2171  0.2315 -0.8985
   86poe     o2  596   0.373   1.608   4.908  0.4017  0.0777  0.3267
   86poe    c23  597   0.348   1.723   4.986 -0.4754 -0.0280  0.2113
   86poe    c23  598   0.352   1.682   5.135  0.0252  0.0727  0.2242
   86poe     o2  599   0.477   1.654   5.195 -0.0906  0.0931  0.4768
   86poe    c31  600   0.546   1.769   5.237  0.1435  0.4074 -0.7321
   87poe    c31  601   1.548   2.129   3.041 -0.3871 -0.8958 -0.2844
   87poe     o2  602   1.414   2.170   3.022 -0.1138 -0.0572 -0.4297
   87poe    c23  603   1.353   2.215   3.140 -0.4455  0.2920 -0.7346
   87poe    c23  604   1.227   2.289   3.089  0.0959  1.4503 -0.4381
   87poe     o2  605   1.175   2.207   2.986  0.0965 -0.2114  0.8300
   87poe    c23  606   1.096   2.269   2.887  0.3333 -0.0815  0.7193
   87poe    c23  607   1.185   2.309   2.768 -0.1975  0.0892  0.3780
   87poe     o2  608   1.270   2.205   2.725  0.4524  0.8464 -0.1949
   87poe    c23  609   1.364   2.238   2.625  0.5754  0.2444 -0.2801
   87poe    c23  610   1.462   2.119   2.622 -0.1285 -0.3395 -0.4245
   87poe     o2  611   1.485   2.073   2.753 -0.0229  0.0915 -0.2917
   87poe    c31  612   1.548   1.947   2.750 -0.1514  0.0303 -0.4315
   88poe    c31  613   0.239   2.014   2.726 -0.2151 -1.1574  0.2882
   88poe     o2  614   0.171   2.071   2.617  0.6657  0.0617  0.3571
   88poe    c23  615   0.114   2.196   2.652  0.3659  0.0750 -0.1642
   88poe    c23  616  -0.017   2.208   2.572 -0.5051 -0.6350  1.1016
   88poe     o2  617   0.015   2.156   2.444 -0.1941  0.9353  0.5176
   88poe    c23  618  -0.098   2.140   2.362  0.3002  0.0165  0.0121
   88poe    c23  619  -0.057   2.062   2.235 -0.2412  0.0579 -0.1925
   88poe     o2  620  -0.010   1.933   2.270 -0.4365  0.0342 -0.0191
   88poe    c23  621  -0.082   1.840   2.192  0.1018  0.0559 -0.5415
   88poe    c23  622  -0.019   1.700   2.174  0.1349  0.0414 -0.3169
   88poe     o2  623   0.005   1.642   2.301 -0.0522  0.3146 -0.1545
   88poe    c31  624   0.065   1.516   2.283 -0.5426 -0.0100  0.4866
   89poe    c31  625   2.051   0.513   1.080  0.5574  0.1073 -0.2595
   89poe     o2  626   2.185   0.471   1.092  0.4502 -0.3028 -0.4838
   89poe    c23  627   2.242   0.534   1.204 -0.0062  0.1725 -0.5113
   89poe    c23  628   2.375   0.475   1.256 -0.3527 -0.4898 -0.3681
   89poe     o2  629   2.468   0.509   1.157  0.2087  0.6933  0.5466
   89poe    c23  630   2.604   0.491   1.188  0.3225 -0.1612 -0.4081
   89poe    c23  631   2.682   0.460   1.059  0.6338  0.1350 -0.2935
   89poe     o2  632   2.655   0.576   0.983 -0.0036  0.2233  0.0558
   89poe    c23  633   2.732   0.566   0.865 -0.5810 -0.2276 -0.2916
   89poe    c23  634   2.710   0.703   0.796  0.0431  0.0833  0.1159
   89poe     o2  635   2.583   0.763   0.805  0.0730  0.1555  0.0556
   89poe    c31  636   2.591   0.892   0.751 -0.0121  0.2454  0.2569
   90poe    c31  637   0.441   1.307   0.135  0.0123 -0.1462  0.0843
   90poe     o2  638   0.390   1.282   0.264  0.5243  0.8423  0.4920
   90poe    c23  639   0.416   1.152   0.312 -0.5430  0.3607 -0.1811
   90poe    c23  640   0.293   1.093   0.383 -0.1351 -0.5058 -0.1793
   90poe     o2  641   0.230   1.195   0.457 -0.2065 -0.4304 -0.3429
   90poe    c23  642   0.103   1.157   0.508  0.1817 -0.6330  0.4964
   90poe    c23  643   0.065   1.246   0.627  0.2358  0.1165 -0.0421
   90poe     o2  644   0.073   1.383   0.593  0.3259  0.0475 -0.3016
   90poe    c23  645   0.107   1.476   0.693  0.3535  0.3612 -0.6005
   90poe    c23  646   0.074   1.622   0.656 -0.3810  0.5674  0.8021
   90poe     o2  647   0.136   1.683   0.545 -0.1102  0.1645  0.7303
   90poe    c31  648   0.105   1.820   0.554  1.0448  0.5077 -0.3118
   91poe    c31  649   1.693   0.051   2.753  0.0424  0.0299 -0.7279
   91poe     o2  650   1.764   0.101   2.864 -0.3031 -0.3505 -0.3318
   91poe    c23  651   1.835   0.212   2.814 -0.6929  0.0432 -0.0285
   91poe    c23  652   1.920   0.280   2.923 -0.4351  0.2955 -0.3840
   91poe     o2  653   1.840   0.284   3.039  0.4070  0.3639  0.1966
   91poe    c23  654   1.872   0.395   3.121  0.1826  0.4370  0.1859
   91poe    c23  655   1.766   0.415   3.230 -0.0131  0.1701  0.0458
   91poe     o2  656   1.776   0.315   3.329  0.5292  0.2667  0.0913
   91poe    c23  657   1.671   0.329   3.422  0.0714 -0.1666 -0.3526
   91poe    c23  658   1.635   0.197   3.494 -0.6677  0.1035 -0.2186
   91poe     o2  659   1.604   0.108   3.390 -0.3283  0.2119 -0.4160
   91poe    c31  660   1.524   0.002   3.438  0.4195 -0.1661  0.0191
   92poe    c31  661   0.857   0.397   0.175  0.5277 -0.7052  0.3791
   92poe     o2  662   0.792   0.276   0.205  0.2996 -0.6103  0.2682
   92poe    c23  663   0.661   0.261   0.154 -0.0627 -0.1282  1.0418
   92poe    c23  664   0.626   0.117   0.195  0.9792 -0.6649  0.1125
   92poe     o2  665   0.650   0.095   0.333 -0.2173  0.3133  0.4957
   92poe    c23  666   0.609  -0.039   0.351  0.8546 -0.1211 -0.1835
   92poe    c23  667   0.611  -0.093   0.496  0.1395 -0.2788 -0.2277
   92poe     o2  668   0.516  -0.037   0.583  0.1054 -0.5094 -0.1162
   92poe    c23  669   0.531  -0.083   0.715 -0.5719  0.2108  0.2210
   92poe    c23  670   0.618   0.011   0.802  0.1889 -0.0498 -0.2484
   92poe     o2  671   0.551   0.133   0.825  0.5069  0.0184  0.3512
   92poe    c31  672   0.634   0.246   0.838  0.3451  0.0631  1.0118
   93poe    c31  673   1.796   0.037   1.666 -0.1884  0.0625 -1.1519
   93poe     o2  674   1.895   0.104   1.740 -0.5072 -0.3719 -0.3190
   93poe    c23  675   1.851   0.134   1.871  0.3605 -0.2911 -0.0426
   93poe    c23  676   1.976   0.174   1.952  0.1383  0.1611  0.0765
   93poe     o2  677   2.053   0.256   1.867  0.2471 -0.1281 -0.1053
   93poe    c23  678   2.191   0.256   1.892  0.0590 -0.3379  0.9908
   93poe    c23  679   2.246   0.136   1.813  0.0244  0.3286 -0.0708
   93poe     o2  680   2.195   0.166   1.685 -0.2376 -0.1300 -0.0752
   93poe    c23  681   2.218   0.068   1.586 -0.1536 -0.4014  0.2116
   93poe    c23  682   2.179   0.140   1.456  0.2759  0.2336  0.4283
   93poe     o2  683   2.049   0.189   1.483  0.0700  0.0685 -0.2353
   93poe    c31  684   2.004   0.224   1.354  0.0616  0.6784 -0.0731
   94poe    c31  685   0.561   1.902   3.501  0.1073  0.4773  0.0510
   94poe     o2  686   0.451   1.936   3.420 -0.4605 -1.1269  0.1099
   94poe    c23  687   0.328   1.939   3.489 -0.2060  0.4730  0.5376
   94poe    c23  688   0.211   1.944   3.388  0.1395 -0.2881  0.0888
   94poe     o2  689   0.217   2.060   3.309 -0.0359 -0.2037  0.1964
   94poe    c23  690   0.127   2.070   3.200 -0.0439  0.2006  0.2383
   94poe    c23  691   0.161   2.199   3.124  0.1704 -0.4517 -0.7975
   94poe     o2  692   0.296   2.214   3.085  0.2843  0.0044 -0.2365
   94poe    c23  693   0.313   2.336   3.015 -0.0975 -0.1675 -0.6285
   94poe    c23  694   0.445   2.373   2.947  0.0736  0.7830  0.1987
   94poe     o2  695   0.553   2.351   3.036 -0.1645  0.0245  0.3050
   94poe    c31  696   0.684   2.366   2.986 -0.4282  0.2133 -0.3410
   95poe    c31  697   1.583   0.351   6.174 -0.1181 -0.6510  0.8448
   95poe     o2  698   1.722   0.340   6.190  0.0584 -0.4632 -0.4085
   95poe    c23  699   1.798   0.266   6.097 -0.1368 -1.0368 -0.1176
   95poe    c23  700   1.948   0.269   6.133 -0.2141 -0.4624  0.1598
   95poe     o2  701   1.968   0.388   6.206 -0.3236  0.0852 -0.6882
   95poe    c23  702   2.103   0.385   6.248 -0.4462  0.2126 -0.2874
   95poe    c23  703   2.145   0.525   6.297 -0.1306 -0.0594  0.2386
   95poe     o2  704   2.053   0.573   6.393 -0.6336 -0.1023 -0.2133
   95poe    c23  705   2.089   0.693   6.458 -0.5348 -0.0738 -0.3195
   95poe    c23  706   2.050   0.827   6.392 -0.0576  0.3392  0.2283
   95poe     o2  707   1.912   0.837   6.363 -0.0909  0.4094  0.4113
   95poe    c31  708   1.900   0.959   6.293  0.2023  0.1057 -0.1737
   96poe    c31  709   1.303   2.097   6.163  0.3318  0.1473  0.1155
   96poe     o2  710   1.179   2.149   6.119  0.1932  0.1361  0.4896
   96poe    c23  711   1.174   2.132   5.979 -0.2720  0.5017  0.4603
   96poe    c23  712   1.096   2.247   5.913  0.1890  0.3762 -0.3075
   96poe     o2  713   0.970   2.253   5.975 -0.0323  0.1639 -0.7291
   96poe    c23  714   0.864   2.181   5.917 -0.1632 -0.4465  0.2328
   96poe    c23  715   0.779   2.165   6.044 -0.4926 -0.5355  0.0041
   96poe     o2  716   0.867   2.120   6.145 -0.2507 -0.1787 -0.0478
   96poe    c23  717   0.787   2.079   6.253  0.0194  0.1271  0.2718
   96poe    c23  718   0.882   2.043   6.369 -0.0395 -0.0971  0.2509
   96poe     o2  719   1.000   2.119   6.355 -0.4819  0.6133  0.3595
   96poe    c31  720   1.075   2.112   6.473 -0.3493 -0.0298  0.2409
   97poe    c31  721   0.307   2.031   1.373  0.5516  0.2934 -0.1481
   97poe     o2  722   0.278   1.893   1.386  0.8660  0.2480  0.0748
   97poe    c23  723   0.276   1.862   1.524 -0.7291  0.3860  0.1037
   97poe    c23  724   0.241   1.712   1.534  0.0609  0.1704 -0.3049
   97poe     o2  725   0.147   1.690   1.432  0.3664 -0.6805 -0.4081
   97poe    c23  726   0.082   1.566   1.446 -0.0184 -0.4097  0.2234
   97poe    c23  727   0.001   1.534   1.318  0.1602 -0.0443  0.0187
   97poe     o2  728   0.060   1.611   1.215 -0.4639 -0.0396 -0.3359
   97poe    c23  729   0.149   1.547   1.127 -0.1093 -0.3165  0.2148
   97poe    c23  730   0.202   1.659   1.034  0.2659 -0.5638  0.1294
   97poe     o2  731   0.247   1.766   1.114  0.4062 -0.6294  0.1393
   97poe    c31  732   0.336   1.850   1.045 -0.1454 -0.0296  0.1428
   98poe    c31  733   1.508   1.411   4.694 -0.8752  0.2843  0.9961
   98poe     o2  734   1.477   1.274   4.701 -0.0282  0.0218 -0.1814
   98poe    c23  735   1.398   1.230   4.593 -0.2212  0.4551 -0.2161
   98poe    c23  736   1.244   1.242   4.585 -0.2976 -0.2909  0.0760
   98poe     o2  737   1.175   1.178   4.690 -0.1527 -0.7217 -0.0880
   98poe    c23  738   1.043   1.142   4.658 -0.3068 -0.2972  0.0629
   98poe    c23  739   1.003   1.013   4.731 -0.4453 -0.3983 -0.1890
   98poe     o2  740   1.029   1.038   4.868 -0.3359 -0.2534 -0.2362
   98poe    c23  741   1.021   0.921   4.947 -0.0236 -0.5198 -0.5943
   98poe    c23  742   1.094   0.952   5.078 -0.2763  0.7383 -0.7322
   98poe     o2  743   1.226   0.997   5.057  0.0114  0.0095 -0.5325
   98poe    c31  744   1.296   1.010   5.178  0.1515  0.7514 -0.6848
   99poe    c31  745   1.758   0.537   4.975  0.0217 -0.3371  0.2150
   99poe     o2  746   1.871   0.620   4.989  0.1181 -0.4839  0.3149
   99poe    c23  747   1.948   0.620   4.871 -0.8021  0.3904 -0.3104
   99poe    c23  748   2.073   0.709   4.884 -0.1329 -0.5352 -0.2715
   99poe     o2  749   2.030   0.800   4.982  0.6937 -0.2870 -0.1322
   99poe    c23  750   2.125   0.897   5.022  0.5801  0.0613 -0.6965
   99poe    c23  751   2.039   0.989   5.111  0.3203 -0.5593 -0.2952
   99poe     o2  752   1.943   0.904   5.168  0.4406 -0.1371  0.5656
   99poe    c23  753   1.861   0.965   5.265 -0.3475 -0.2683 -0.0022
   99poe    c23  754   1.760   0.862   5.319 -0.3771 -0.4007 -0.3063
   99poe     o2  755   1.721   0.782   5.210  0.1138 -0.4726 -0.4336
   99poe    c31  756   1.581   0.768   5.221  0.1274 -0.2687  0.0459
  100poe    c31  757   1.060   0.309   0.910 -0.1744 -0.3832 -0.0028
  100poe     o2  758   1.107   0.186   0.961  0.1569 -0.3312 -0.1824
  100poe    c23  759   1.044   0.141   1.078  0.3430  0.2116  0.1345
  100poe    c23  760   1.036  -0.013   1.084 -0.0897  0.2158 -0.3418
  100poe     o2  761   1.160  -0.078   1.094 -0.0670  0.3009 -0.0644
  100poe    c23  762   1.138  -0.213   1.058  0.1867  0.3789 -0.5263
  100poe    c23  763   1.266  -0.299   1.062  0.2301  0.4569 -0.2388
  100poe     o2  764   1.365  -0.221   0.998  0.2691  0.5803 -0.0306
  100poe    c23  765   1.492  -0.281   0.993 -0.1179 -0.2186 -0.5851
  100poe    c23  766   1.610  -0.202   0.931  0.3386 -0.4748 -0.0547
  100poe     o2  767   1.579  -0.179   0.796 -0.4353 -0.3967  0.1267
  100poe    c31  768   1.651  -0.069   0.744 -0.2862 -0.7092 -0.3372
  101poe    c31  769   1.614   2.234   4.597  0.0661  0.1826 -0.0241
  101poe     o2  770   1.553   2.321   4.689  0.6140 -0.3902  0.8902
  101poe    c23  771   1.632   2.432   4.729  0.3206 -0.1980  0.9421
  101poe    c23  772   1.568   2.501   4.851 -0.2967  0.1541  0.4261
  101poe     o2  773   1.444   2.565   4.831 -0.0810  0.2942 -0.5490
  101poe    c23  774   1.407   2.650   4.938 -0.3037 -0.2933 -0.1539
  101poe    c23  775   1.300   2.750   4.891  0.0613  0.3631  0.3844
  101poe     o2  776   1.191   2.687   4.825  0.8579 -0.4568 -0.1741
  101poe    c23  777   1.104   2.783   4.770 -0.1928 -1.2744  0.0265
  101poe    c23  778   1.107   2.778   4.616  0.4397  0.1303 -0.0249
  101poe     o2  779   1.095   2.639   4.591  0.2458  0.0969  0.2486
  101poe    c31  780   1.033   2.609   4.468 -0.1452  0.1645  0.4277
  102poe    c31  781   0.080   0.350   3.387  0.3898 -0.5572 -0.1852
  102poe     o2  782   0.008   0.245   3.447 -0.1357 -0.1272 -0.0488
  102poe    c23  783   0.091   0.139   3.488 -0.1489  0.0740  0.5023
  102poe    c23  784  -0.002   0.033   3.550 -0.3374 -0.1870 -0.2122
  102poe     o2  785  -0.093   0.100   3.634 -0.1567 -0.5715  0.3015
  102poe    c23  786  -0.166   0.008   3.711 -0.5296 -0.4523  0.0922
  102poe    c23  787  -0.245   0.102   3.805  0.1052 -0.0528  0.2301
  102poe     o2  788  -0.353   0.160   3.737 -0.1716  0.0375  0.7377
  102poe    c23  789  -0.436   0.227   3.828 -0.4700 -0.0032  0.4976
  102poe    c23  790  -0.441   0.378   3.799  0.2943 -0.0583  0.0604
  102poe     o2  791  -0.320   0.449   3.814  0.2125 -0.1001  1.0064
  102poe    c31  792  -0.366   0.570   3.869 -0.5043 -0.1812  0.6056
  103poe    c31  793   0.212   0.548   0.439  0.1482 -0.7715 -0.5143
  103poe     o2  794   0.161   0.420   0.467 -0.2534 -0.4673  0.1819
  103poe    c23  795   0.146   0.350   0.346  0.0579  0.1028 -0.1912
  103poe    c23  796   0.095   0.206   0.366 -0.0887  0.1402 -0.2900
  103poe     o2  797   0.180   0.136   0.455  0.0925 -0.0341 -0.5968
  103poe    c23  798   0.153  -0.001   0.477  0.0267  0.0138 -0.3705
  103poe    c23  799   0.025  -0.031   0.557  0.1211  0.0294 -0.2135
  103poe     o2  800   0.059   0.007   0.688 -0.5949 -0.6659  0.1816
  103poe    c23  801  -0.040  -0.014   0.786 -0.8858 -0.2448 -0.0195
  103poe    c23  802   0.002   0.047   0.921  0.1878  0.0454 -0.4825
  103poe     o2  803   0.053   0.178   0.904  0.1895  0.0864 -0.1705
  103poe    c31  804   0.136   0.206   1.015  0.0176  0.1284 -0.0534
  104poe    c31  805   0.341   0.644   3.361 -0.3891  0.0387  0.4916
  104poe     o2  806   0.274   0.768   3.370 -0.2551  0.1400  0.1094
  104poe    c23  807   0.233   0.808   3.499 -0.2129 -0.1952  0.2273
  104poe    c23  808   0.137   0.927   3.486  0.8473  0.7261  0.6834
  104poe     o2  809   0.188   1.021   3.394 -0.0786  0.6657  0.1001
  104poe    c23  810   0.101   1.132   3.385 -0.4936  0.3595  0.2869
  104poe    c23  811   0.168   1.220   3.278 -0.2343 -0.2422 -0.0464
  104poe     o2  812   0.156   1.148   3.157  0.1571 -0.4434  0.0333
  104poe    c23  813   0.185   1.230   3.047 -0.7721 -0.0537  0.0771
  104poe    c23  814   0.216   1.141   2.925 -0.3974  0.1192  0.0448
  104poe     o2  815   0.333   1.064   2.931 -0.6728 -0.2723  0.4248
  104poe    c31  816   0.368   0.995   2.813 -0.3913  0.6814 -0.0573
  105poe    c31  817   1.617   1.322   2.535  0.2443  0.0058 -0.1281
  105poe     o2  818   1.716   1.248   2.467  0.4520  0.1841 -0.0202
  105poe    c23  819   1.662   1.159   2.373  0.5765  0.4605 -0.3550
  105poe    c23  820   1.764   1.131   2.261  0.7690 -0.2509 -0.0091
  105poe     o2  821   1.865   1.039   2.296  0.8162  0.0834  0.7341
  105poe    c23  822   1.953   1.009   2.191 -0.9315 -0.6437 -0.5839
  105poe    c23  823   2.057   0.897   2.211  0.4015  0.5590 -0.5659
  105poe     o2  824   1.997   0.769   2.212  0.4405  0.5417  0.0336
  105poe    c23  825   2.085   0.667   2.253 -0.4551 -0.4637 -0.4808
  105poe    c23  826   2.003   0.548   2.306  0.0958 -0.5325  0.2327
  105poe     o2  827   1.919   0.592   2.410  0.1002 -0.0110  0.0165
  105poe    c31  828   1.858   0.486   2.479  0.4275 -0.1033  0.1699
  106poe    c31  829   1.757   0.739   1.083 -0.2730  0.2608  0.0856
  106poe     o2  830   1.680   0.649   1.007  0.4771 -0.8211  0.5704
  106poe    c23  831   1.566   0.601   1.075 -0.1672 -0.2149 -0.0624
  106poe    c23  832   1.510   0.493   0.981 -0.2475 -0.4958  0.3019
  106poe     o2  833   1.523   0.528   0.844  0.1433 -0.7659  0.2671
  106poe    c23  834   1.399   0.496   0.785 -0.1339  0.1160  0.3477
  106poe    c23  835   1.419   0.479   0.633 -0.2195  0.2080  0.3268
  106poe     o2  836   1.464   0.601   0.579 -0.8568  0.1130 -0.4340
  106poe    c23  837   1.435   0.605   0.441  0.1119  0.2301 -0.6409
  106poe    c23  838   1.572   0.631   0.375  0.0524 -0.4961 -1.0638
  106poe     o2  839   1.612   0.766   0.374 -0.1201 -0.4274  0.1956
  106poe    c31  840   1.694   0.784   0.261 -0.1734 -0.3271  0.1727
  107poe    c31  841   0.673   1.561   3.766 -0.7407  0.1252 -0.9382
  107poe     o2  842   0.604   1.465   3.843 -0.1526  0.3374 -0.1326
  107poe    c23  843   0.676   1.424   3.957 -0.1581 -0.0162 -0.2522
  107poe    c23  844   0.603   1.307   4.025  0.3654  0.1453  0.6052
  107poe     o2  845   0.471   1.356   4.038  0.2930 -0.0539  0.6239
  107poe    c23  846   0.373   1.258   4.064 -0.0482  0.0682 -0.1735
  107poe    c23  847   0.236   1.305   4.012 -0.0726 -0.5103 -0.6442
  107poe     o2  848   0.259   1.371   3.889  0.7874 -0.0740 -0.2578
  107poe    c23  849   0.166   1.346   3.786  0.4624 -0.0289  0.0232
  107poe    c23  850   0.197   1.455   3.683  0.2532 -0.1380 -0.1549
  107poe     o2  851   0.334   1.485   3.696  0.2717 -0.1557 -0.2991
  107poe    c31  852   0.386   1.524   3.572  0.2565 -0.1342 -0.2984
  108poe    c31  853   1.401   1.884   1.899  0.4388 -1.0348  0.2926
  108poe     o2  854   1.363   1.939   2.023 -0.8316 -0.2755 -0.4115
  108poe    c23  855   1.378   2.079   2.013 -0.1375 -0.3139 -0.0218
  108poe    c23  856   1.262   2.140   2.095  0.1520  0.1471  0.0499
  108poe     o2  857   1.265   2.059   2.210  0.2492  0.6074  0.3757
  108poe    c23  858   1.137   2.057   2.268 -0.1606 -0.4466 -0.5186
  108poe    c23  859   1.143   1.985   2.404 -0.4775  0.4548 -0.0182
  108poe     o2  860   1.240   1.883   2.412 -0.3701  0.5621  0.0492
  108poe    c23  861   1.202   1.759   2.355  0.3179  0.3243  0.0953
  108poe    c23  862   1.337   1.690   2.331  0.2117 -0.0179  0.4711
  108poe     o2  863   1.421   1.746   2.232  0.4139 -0.4191  0.4117
  108poe    c31  864   1.519   1.656   2.187  0.5683  0.0102 -0.1179
  109lim     li  865   2.038   0.232   1.685  0.4140  0.0027 -0.2897
  110lim     li  866   0.682   1.597   2.019  0.4368 -0.5680  0.1823
  111lim     li  867   1.218   0.241   4.745  0.9980 -0.3656 -0.6014
  112lim     li  868   1.249   1.483   3.529  0.0950  1.5891 -0.0425
  113lim     li  869   0.923   2.026   5.467  1.0108 -0.2549 -0.4132
  114lim     li  870   0.202   0.547   4.156  0.2553  0.0077 -0.7967
  115lim     li  871   0.423   1.457   3.853 -1.1990  0.2075 -0.1317
  116lim     li  872   2.024   1.467   4.281  0.6594 -0.2504 -0.3779
  117lim     li  873   1.314   0.619   5.878 -0.6335  0.1632 -0.3003
  118lim     li  874   1.959   1.699   3.184 -0.0810  1.0062 -0.2209
  119lim     li  875   1.009   1.291   1.179 -0.5848  0.3859  0.5959
  120lim     li  876   0.132   2.001   2.463  0.9058  0.1940 -0.5252
  121lim     li  877   1.877   1.572   6.096  1.2978  0.8068 -0.2156
  122lim     li  878   0.272   0.912   3.263  0.4718  0.0555 -0.6485
  123lim     li  879   0.483   2.206   4.041  0.4894 -0.4271 -1.3244
  124lim     li  880   0.590   2.116   1.848  0.7521 -1.4340 -0.1230
  125lim     li  881   0.239   2.265   5.976 -0.7098 -0.3927 -0.5801
  126lim     li  882   0.804   0.663   3.297  1.0835  0.0138 -0.3727
  127lim     li  883   1.697   1.550   1.365 -0.5662  0.2810 -0.7161
  128lim     li  884   2.123   0.248   3.559  0.0165 -0.4808  0.4105
  129lim     li  885   1.658   1.896   0.408 -0.3652  0.8944 -0.4686
  130lim     li  886   0.464   0.377   4.836  1.0056  0.7835  0.4180
  131lim     li  887   1.802   1.584   5.184  0.7444  1.4904  0.0305
  132lim     li  888   0.287   1.357   0.400 -0.8110  0.2212  0.1188
  133lim     li  889   1.792   0.111   3.060 -0.8674 -0.5426  0.0251
  134lim     li  890   1.815   0.882   2.616 -0.1711 -0.8908 -0.0152
  135lim     li  891   1.856   0.789   5.060  0.5981  0.0855  0.0835
  136lim     li  892   0.238   0.799   5.854 -0.9095 -0.9686 -0.0043
  137lim     li  893   1.954   2.252   5.278 -0.4074 -0.9359 -0.1827
  138lim     li  894   1.015   2.220   6.182  1.1922 -0.1474  0.1685
  139lim     li  895   1.198   1.143   4.894  0.1943  0.1645  0.0672
  140lim     li  896   0.672   0.471   2.456  0.3170  0.1073  0.7374
  141lim     li  897   0.167   1.764   1.267  0.6030 -0.7934  0.7611
  142lim     li  898   1.824   0.420   6.312 -0.3323 -0.5779  0.2665
  143lim     li  899   0.814   1.476   2.786  0.2414  0.6682  0.7529
  144lim     li  900   1.368   2.085   4.041  1.1322 -0.3174  0.2941
  145lim     li  901   0.116   0.184   0.747  0.8276 -0.0017 -0.5413
  146lim     li  902   1.331   0.896   4.012 -0.3181  0.7291 -1.0327
  147lim     li  903   0.052   0.920   1.664 -1.2830 -0.1158  0.1186
  148lim     li  904   0.575   1.796   4.490 -0.6683 -0.0299 -0.7002
  149lim     li  905   0.830   0.587   1.740 -0.7699 -0.0348  0.9246
  150lim     li  906   0.785   0.214   0.372 -0.8680 -0.7941 -0.2756
  151lim     li  907   0.325   1.389   5.768 -0.1978 -0.8140  0.0521
  152lim     li  908   0.492   1.317   5.048  0.5864  0.2306  0.4219
  153lim     li  909   0.385   2.126   3.218 -0.0000  0.7376 -0.0158
  154lim     li  910   1.134   1.399   5.657  0.1073  0.6139 -0.3023
  155lim     li  911   1.387   1.913   2.217  0.9259 -0.0591 -0.0093
  156lim     li  912   0.225   0.672   0.940  1.0672 -0.5376  0.4282
  157lim     li  913   1.658   0.619   0.815 -0.4101 -0.0977 -0.7785
  158lim     li  914   1.333   2.248   1.040 -0.6877 -0.9807  0.9546
  159lim     li  915   0.928   1.172   0.206 -1.3631 -0.6472  0.4029
  160lim     li  916   1.545   0.602   1.737  0.2249  0.1911 -0.1280
  161lim     li  917   1.814   1.265   0.422  0.0574 -1.9324 -0.2038
  162lim     li  918   1.322   2.108   2.872 -0.8341  0.0726  0.4148
  163ntf    cn1  919   1.698   1.179   5.656  0.1208 -0.0367  0.2562
  163ntf    sn2  920   1.685   1.319   5.540 -0.1207 -0.1630  0.1314
  163ntf    nn3  921   1.800   1.411   5.592 -0.2635 -0.1462  0.4226
  163ntf    sn2  922   1.901   1.487   5.498 -0.3477 -0.7781 -0.1782
  163ntf    cn1  923   2.040   1.370   5.507  0.2204 -0.1209 -0.3801
  163ntf    fn4  924   1.814   1.118   5.643  0.1572 -0.0366  0.5622
  163ntf    fn4  925   1.684   1.220   5.781  0.1572  0.3425  0.1374
  163ntf    fn4  926   1.603   1.089   5.637 -0.4334  0.5658  0.0869
  163ntf    on5  927   1.696   1.263   5.408  0.5310  0.2801 -0.0059
  163ntf    on5  928   1.554   1.367   5.578 -0.1016  0.1823 -0.2432
  163ntf    on5  929   1.951   1.607   5.560  0.4516 -0.6928 -0.9570
  163ntf    on5  930   1.861   1.509   5.361 -0.3008  0.5955  0.0146
  163ntf    fn4  931   2.000   1.263   5.441 -0.2972 -0.2551  0.1497
  163ntf    fn4  932   2.152   1.417   5.454  0.1173  0.3791 -0.1655
  163ntf    fn4  933   2.066   1.333   5.631  0.4259  0.8859 -0.1080
  164ntf    cn1  934   0.399   0.381   1.588 -0.0069 -0.0857  0.3781
  164ntf    sn2  935   0.410   0.226   1.494 -0.0671  0.1552 -0.0322
  164ntf    nn3  936   0.547   0.241   1.419 -0.2572 -0.2640 -0.4647
  164ntf    sn2  937   0.585   0.198   1.273  0.1463 -0.2404 -0.3681
  164ntf    cn1  938   0.688   0.051   1.301  0.0117 -0.1690  0.5073
  164ntf    fn4  939   0.512   0.450   1.583 -0.2802  0.3916  0.6699
  164ntf    fn4  940   0.308   0.464   1.540 -0.0995 -0.6257 -0.3980
  164ntf    fn4  941   0.375   0.364   1.717 -0.1334 -0.6731  0.2761
  164ntf    on5  942   0.417   0.131   1.603  0.4100  0.5420  0.2793
  164ntf    on5  943   0.287   0.238   1.420 -0.0505 -0.2504 -0.1292
  164ntf    on5  944   0.679   0.287   1.208 -0.5251  0.6318 -0.1563
  164ntf    on5  945   0.478   0.149   1.190  0.3731 -0.3879 -0.5770
  164ntf    fn4  946   0.790   0.079   1.380  0.5652  0.1643 -0.3128
  164ntf    fn4  947   0.618  -0.042   1.365 -0.5961 -0.3669 -0.4304
  164ntf    fn4  948   0.735  -0.001   1.189 -0.7511  0.3405 -0.0603
  165ntf    cn1  949   0.711   1.443   3.379  0.0914 -0.1389  0.1245
  165ntf    sn2  950   0.808   1.300   3.435  0.5090 -0.0746 -0.4272
  165ntf    nn3  951   0.716   1.238   3.546 -0.0197  0.4476 -0.5692
  165ntf    sn2  952   0.596   1.139   3.523  0.1052  0.1948 -0.1566
  165ntf    cn1  953   0.516   1.158   3.685  0.2217  0.2074 -0.1001
  165ntf    fn4  954   0.607   1.396   3.312 -0.0218  0.4095 -0.0868
  165ntf    fn4  955   0.658   1.503   3.485  0.1260 -0.4648  0.3286
  165ntf    fn4  956   0.776   1.533   3.308  0.1634 -0.0082  0.3543
  165ntf    on5  957   0.824   1.214   3.321 -0.0637 -0.5255 -0.1734
  165ntf    on5  958   0.925   1.360   3.495  0.2313 -0.4632  0.5355
  165ntf    on5  959   0.638   1.002   3.530 -0.0900  0.1426  0.0179
  165ntf    on5  960   0.500   1.187   3.427 -0.1450  0.0308  0.0113
  165ntf    fn4  961   0.605   1.144   3.782  0.0650 -0.3032 -0.0281
  165ntf    fn4  962   0.458   1.273   3.716  0.2305  0.2655 -0.2996
  165ntf    fn4  963   0.420   1.067   3.696  0.2047  0.1869 -0.4235
  166ntf    cn1  964   1.589   1.609   3.733 -0.6641 -0.2347 -0.0338
  166ntf    sn2  965   1.515   1.663   3.576 -0.1016  0.0153 -0.2179
  166ntf    nn3  966   1.639   1.677   3.480  0.3903  0.7724  0.5191
  166ntf    sn2  967   1.669   1.786   3.372  0.2108  0.3257  0.0148
  166ntf    cn1  968   1.709   1.931   3.474  0.4160 -0.1643  0.6407
  166ntf    fn4  969   1.496   1.566   3.817 -0.1590 -0.0214  0.6500
  166ntf    fn4  970   1.666   1.504   3.710 -0.4360 -0.1040  0.1289
  166ntf    fn4  971   1.663   1.706   3.786 -0.5025 -0.3030 -0.1331
  166ntf    on5  972   1.442   1.541   3.551  0.0777 -0.1122 -0.1210
  166ntf    on5  973   1.447   1.785   3.611  0.1492 -0.0039  0.3383
  166ntf    on5  974   1.562   1.842   3.293 -0.0050 -0.6410 -0.3899
  166ntf    on5  975   1.795   1.768   3.303  0.2463  0.7190 -0.0246
  166ntf    fn4  976   1.810   1.902   3.553  0.8485  0.2221  0.2334
  166ntf    fn4  977   1.749   2.028   3.393 -0.4247 -0.2984  0.0522
  166ntf    fn4  978   1.608   1.986   3.541  0.0399 -0.0684  0.0085
  167ntf    cn1  979   0.583   1.652   0.157 -0.1789 -0.1629  0.1789
  167ntf    sn2  980   0.479   1.652   0.008  0.2620 -0.1098 -0.1284
  167ntf    nn3  981   0.347   1.633   0.090  0.2921  0.1012 -0.0314
  167ntf    sn2  982   0.207   1.700   0.063  0.3045  0.0333 -0.2672
  167ntf    cn1  983   0.225   1.856   0.154  0.0710  0.2978 -0.6719
  167ntf    fn4  984   0.566   1.548   0.238  0.1376 -0.4270 -0.0943
  167ntf    fn4  985   0.710   1.659   0.122 -0.1606  0.4934  0.3740
  167ntf    fn4  986   0.566   1.766   0.223  0.6288 -0.1078  0.2932
  167ntf    on5  987   0.510   1.779  -0.053 -0.6947  0.4121  0.4450
  167ntf    on5  988   0.521   1.532  -0.060  0.3606 -0.0299 -0.2093
  167ntf    on5  989   0.095   1.631   0.121  0.3599 -0.0595 -0.2706
  167ntf    on5  990   0.187   1.730  -0.077  0.7572  0.0941 -0.3220
  167ntf    fn4  991   0.193   1.830   0.280  0.3930 -0.1701 -0.6887
  167ntf    fn4  992   0.346   1.909   0.161  0.2981 -0.2227 -0.6082
  167ntf    fn4  993   0.140   1.949   0.111 -0.2082  0.4128  0.0943
  168ntf    cn1  994   1.448   1.547   2.791 -0.1680 -0.5212  0.1036
  168ntf    sn2  995   1.267   1.546   2.808 -0.1829 -0.4873 -0.0543
  168ntf    nn3  996   1.226   1.514   2.660  0.1664  0.2565 -0.3159
  168ntf    sn2  997   1.092   1.452   2.608  0.1658  0.0255 -0.0375
  168ntf    cn1  998   1.135   1.276   2.590  0.4682  0.1018 -0.0569
  168ntf    fn4  999   1.511   1.618   2.883 -0.2153 -0.5228  0.1372
  168ntf    fn4 1000   1.501   1.426   2.789  0.2232 -0.3535  0.2791
  168ntf    fn4 1001   1.478   1.605   2.676 -0.2640 -0.4068  0.1361
  168ntf    on5 1002   1.236   1.438   2.898 -0.1444 -0.2385  0.2581
  168ntf    on5 1003   1.240   1.680   2.854 -0.3183 -0.4693 -0.1851
  168ntf    on5 1004   1.067   1.490   2.471 -1.1010  0.0633  0.1909
  168ntf    on5 1005   0.981   1.439   2.700  0.4137 -0.4233  0.2011
  168ntf    fn4 1006   1.191   1.244   2.706 -0.2518 -0.2335  0.2071
  168ntf    fn4 1007   1.033   1.192   2.583  0.5442 -0.0563  0.6045
  168ntf    fn4 1008   1.227   1.248   2.499  0.5178  0.4022 -0.1020
  169ntf    cn1 1009   0.271   0.476   0.047 -0.5922 -0.2104  0.1500
  169ntf    sn2 1010   0.251   0.369  -0.099 -0.0006  0.1092 -0.1653
  169ntf    nn3 1011   0.388   0.291  -0.105  0.1031  0.2409  0.3743
  169ntf    sn2 1012   0.414   0.169  -0.200  0.3493  0.5794 -0.0017
  169ntf    cn1 1013   0.564   0.222  -0.288  0.3770  0.4076 -0.0583
  169ntf    fn4 1014   0.162   0.537   0.091 -0.1118  0.3484  0.5756
  169ntf    fn4 1015   0.331   0.409   0.144 -0.6673 -0.0899  0.2800
  169ntf    fn4 1016   0.346   0.582   0.024 -0.8173 -0.0752  0.0289
  169ntf    on5 1017   0.137   0.285  -0.074 -0.5298  0.6408 -0.7562
  169ntf    on5 1018   0.239   0.461  -0.209  0.3753  0.6041  0.2032
  169ntf    on5 1019   0.312   0.141  -0.298  0.2935 -0.1070  0.2429
  169ntf    on5 1020   0.463   0.049  -0.136 -0.4275  0.3863  0.2496
  169ntf    fn4 1021   0.671   0.224  -0.211  0.6037 -0.2643 -0.3480
  169ntf    fn4 1022   0.589   0.132  -0.381 -0.0678 -0.3223  0.5140
  169ntf    fn4 1023   0.544   0.341  -0.341 -0.4364  0.3744  0.1583
  170ntf    cn1 1024   2.117   0.615   1.912 -0.2043 -0.1551 -0.4558
  170ntf    sn2 1025   2.125   0.649   1.733  0.1513  0.0077 -0.4095
  170ntf    nn3 1026   1.970   0.659   1.714  0.1638 -0.3460 -0.6875
  170ntf    sn2 1027   1.874   0.555   1.646 -0.2442 -0.0713 -0.5346
  170ntf    cn1 1028   1.897   0.596   1.471 -0.0871 -0.4069 -0.5920
  170ntf    fn4 1029   2.014   0.544   1.953  0.4218 -0.5743  0.4374
  170ntf    fn4 1030   2.224   0.550   1.955 -0.3327  0.0386  0.1654
  170ntf    fn4 1031   2.113   0.720   1.992 -0.1493 -0.0402 -0.6025
  170ntf    on5 1032   2.194   0.776   1.731  0.2310 -0.0256  0.0231
  170ntf    on5 1033   2.188   0.535   1.672 -0.0197 -0.1720 -0.2498
  170ntf    on5 1034   1.736   0.590   1.669  0.0845  0.7413  0.2650
  170ntf    on5 1035   1.914   0.416   1.651  0.0778  0.0295 -0.3149
  170ntf    fn4 1036   1.814   0.536   1.387 -0.7827 -0.2509 -0.0130
  170ntf    fn4 1037   1.869   0.723   1.451 -0.0494 -0.3087 -0.0301
  170ntf    fn4 1038   2.021   0.571   1.430  0.0267  0.0097 -0.4964
  171ntf    cn1 1039   1.256   1.677   0.806  0.0321  0.3301  0.3183
  171ntf    sn2 1040   1.362   1.562   0.898  0.1334  0.0994 -0.0859
  171ntf    nn3 1041   1.340   1.621   1.042 -0.1010  0.3194 -0.2108
  171ntf    sn2 1042   1.296   1.540   1.169  0.3731  0.1121 -0.1740
  171ntf    cn1 1043   1.230   1.682   1.262  0.2648  0.1283 -0.2756
  171ntf    fn4 1044   1.296   1.802   0.787  0.1843  0.2014 -0.2070
  171ntf    fn4 1045   1.239   1.627   0.685  0.4482  0.6501  0.1245
  171ntf    fn4 1046   1.138   1.687   0.865 -0.3880 -0.0212 -0.4505
  171ntf    on5 1047   1.295   1.437   0.873  0.1385  0.1474 -0.3456
  171ntf    on5 1048   1.497   1.580   0.850  0.0710  0.6762 -0.0505
  171ntf    on5 1049   1.408   1.505   1.252 -0.1406 -0.0683  0.4533
  171ntf    on5 1050   1.180   1.455   1.157  0.8190 -0.4938 -0.2302
  171ntf    fn4 1051   1.168   1.635   1.369 -0.1451  0.3629 -0.4061
  171ntf    fn4 1052   1.319   1.761   1.319 -0.3352  0.1585  0.6427
  171ntf    fn4 1053   1.143   1.763   1.205  0.0971  0.2451  0.1494
  172ntf    cn1 1054   2.060   1.965   4.656 -0.1497  0.1012 -0.0893
  172ntf    sn2 1055   1.903   1.951   4.565 -0.1366 -0.2002 -0.0679
  172ntf    nn3 1056   1.810   1.936   4.691 -0.5362 -0.0739 -0.3460
  172ntf    sn2 1057   1.737   1.812   4.754  0.1040 -0.1816  0.1955
  172ntf    cn1 1058   1.571   1.834   4.683  0.1441  0.3982  0.2727
  172ntf    fn4 1059   2.086   1.858   4.730 -0.2620 -0.1750 -0.4488
  172ntf    fn4 1060   2.170   1.991   4.588 -0.2373  0.1669 -0.2051
  172ntf    fn4 1061   2.050   2.057   4.751  0.1186  0.2622 -0.2172
  172ntf    on5 1062   1.892   2.079   4.499  0.4408  0.0955  0.4023
  172ntf    on5 1063   1.918   1.834   4.482 -0.0370  0.1535 -0.5552
  172ntf    on5 1064   1.705   1.820   4.895 -0.5188 -0.2357  0.0611
  172ntf    on5 1065   1.778   1.681   4.710  0.2047 -0.2485  0.4860
  172ntf    fn4 1066   1.522   1.951   4.722  0.0791  0.3442  0.3542
  172ntf    fn4 1067   1.577   1.832   4.551 -0.0871 -0.3279  0.2695
  172ntf    fn4 1068   1.488   1.733   4.706  0.5381  0.0159  0.0384
  173ntf    cn1 1069   0.337   0.461   2.750  0.3637  0.0078  0.1031
  173ntf    sn2 1070   0.224   0.506   2.884  0.3569  0.1878  0.0374
  173ntf    nn3 1071   0.089   0.460   2.818  0.5280  0.0650 -0.2286
  173ntf    sn2 1072   0.047   0.312   2.788  0.2379  0.0366  0.3059
  173ntf    cn1 1073  -0.025   0.341   2.624  0.4065  0.1386  0.2507
  173ntf    fn4 1074   0.280   0.466   2.630  0.3922 -0.1223  0.0835
  173ntf    fn4 1075   0.439   0.545   2.735  0.3809 -0.0079  0.1326
  173ntf    fn4 1076   0.377   0.335   2.753 -0.6330 -0.3312 -0.2364
  173ntf    on5 1077   0.269   0.428   2.997 -0.3829  0.1587  0.3190
  173ntf    on5 1078   0.241   0.649   2.888 -0.2186  0.2818 -0.6062
  173ntf    on5 1079  -0.063   0.256   2.863 -0.0111  0.2201  0.0787
  173ntf    on5 1080   0.158   0.223   2.768  0.4610  0.3227  0.2754
  173ntf    fn4 1081   0.062   0.370   2.529  0.1097 -0.2069 -0.1330
  173ntf    fn4 1082  -0.082   0.231   2.577 -0.4640  0.4338  0.6101
  173ntf    fn4 1083  -0.116   0.437   2.624  0.2398 -0.0075 -0.6192
  174ntf    cn1 1084   0.446   1.211   1.500  0.1640 -0.6329  0.1941
  174ntf    sn2 1085   0.351   1.228   1.346  0.1885  0.3549  0.2820
  174ntf    nn3 1086   0.391   1.092   1.279  0.0669  0.5864 -0.2743
  174ntf    sn2 1087   0.485   1.061   1.158  0.0080 -0.4874 -0.0580
  174ntf    cn1 1088   0.431   1.167   1.021  0.1687 -0.5274 -0.1527
  174ntf    fn4 1089   0.396   1.301   1.583 -0.1191 -0.6854  0.0820
  174ntf    fn4 1090   0.433   1.088   1.546  0.1857 -0.6359  0.1920
  174ntf    fn4 1091   0.575   1.233   1.482 -0.0364  0.3235 -0.1682
  174ntf    on5 1092   0.215   1.230   1.394 -0.3770  0.5178 -1.2677
  174ntf    on5 1093   0.408   1.344   1.282  0.0388  0.2086 -0.1236
  174ntf    on5 1094   0.459   0.931   1.101  0.1763 -0.5457 -0.0022
  174ntf    on5 1095   0.623   1.098   1.181 -0.2386 -0.2051  1.0249
  174ntf    fn4 1096   0.457   1.296   1.036  0.3439 -0.5116 -0.5716
  174ntf    fn4 1097   0.493   1.136   0.908  0.3243  0.0336 -0.2248
  174ntf    fn4 1098   0.300   1.163   1.003  0.0706  0.0510  0.3844
  175ntf    cn1 1099   1.035   1.532   5.037  0.6020  0.0154  0.3614
  175ntf    sn2 1100   1.007   1.354   5.063  0.0461  0.0312 -0.1009
  175ntf    nn3 1101   1.068   1.336   5.206  0.4469  0.4662 -0.2148
  175ntf    sn2 1102   0.997   1.367   5.343  0.0162 -0.0779 -0.3115
  175ntf    cn1 1103   0.957   1.193   5.377  0.7921 -0.1714  0.1452
  175ntf    fn4 1104   1.054   1.559   4.909 -0.3884 -0.0500  0.1928
  175ntf    fn4 1105   0.935   1.605   5.084  0.3657 -0.0224 -0.0768
  175ntf    fn4 1106   1.144   1.581   5.093  0.1060  0.4230  0.9800
  175ntf    on5 1107   0.867   1.319   5.060 -0.0579  0.4899 -0.7942
  175ntf    on5 1108   1.092   1.306   4.957  0.4808  0.9596 -0.1805
  175ntf    on5 1109   0.875   1.444   5.338 -0.0405 -0.1200  0.4235
  175ntf    on5 1110   1.097   1.414   5.435  0.2875  0.2020 -0.7458
  175ntf    fn4 1111   0.885   1.175   5.487  0.2945 -0.4974 -0.2258
  175ntf    fn4 1112   0.878   1.133   5.289  0.0935  0.0992  0.5752
  175ntf    fn4 1113   1.066   1.119   5.386  0.8091 -0.0877  0.6580
  176ntf    cn1 1114   0.124   1.095   5.454  0.0395 -0.2253 -0.1861
  176ntf    sn2 1115   0.213   1.106   5.296 -0.0146 -0.3811 -0.2277
  176ntf    nn3 1116   0.131   1.224   5.233  0.3409  0.0345  0.0794
  176ntf    sn2 1117   0.166   1.329   5.122 -0.2126 -0.0059 -0.1372
  176ntf    cn1 1118   0.051   1.276   4.992 -0.0080  0.3313 -0.4557
  176ntf    fn4 1119   0.196   1.053   5.556 -0.0834 -0.1514 -0.0683
  176ntf    fn4 1120   0.060   1.208   5.477  0.0289 -0.2284 -0.2008
  176ntf    fn4 1121   0.028   1.005   5.438 -0.4503  0.1571  0.5517
  176ntf    on5 1122   0.349   1.135   5.336 -0.2505  0.2737  0.1132
  176ntf    on5 1123   0.180   0.980   5.234 -0.7286 -0.4174  0.2126
  176ntf    on5 1124   0.294   1.322   5.056  0.0298  0.2875  0.2986
  176ntf    on5 1125   0.125   1.465   5.149  0.1327  0.0849 -0.0622
  176ntf    fn4 1126   0.079   1.154   4.948 -0.7025 -0.4463  1.2038
  176ntf    fn4 1127  -0.076   1.275   5.028  0.1991  0.4282  0.2822
  176ntf    fn4 1128   0.070   1.348   4.882 -0.1554  0.6009 -0.3053
  177ntf    cn1 1129   1.406   1.088   1.024  0.6076  0.0130  0.1274
  177ntf    sn2 1130   1.318   1.021   1.168  0.2188  0.1874 -0.0306
  177ntf    nn3 1131   1.277   0.879   1.113  0.4494  0.1264 -0.0457
  177ntf    sn2 1132   1.177   0.772   1.170  0.3737  0.1161 -0.1973
  177ntf    cn1 1133   1.086   0.723   1.021  0.1425  0.2028 -0.0844
  177ntf    fn4 1134   1.340   1.071   0.911  0.4870  0.1575  0.1768
  177ntf    fn4 1135   1.451   1.212   1.027 -0.5076  0.4236  0.0302
  177ntf    fn4 1136   1.521   1.025   1.001  0.4265 -0.5463  0.7187
  177ntf    on5 1137   1.401   1.021   1.285  0.2918  0.5193 -0.0821
  177ntf    on5 1138   1.210   1.116   1.176 -0.0519 -0.1618  0.5911
  177ntf    on5 1139   1.076   0.810   1.266  0.2529  0.1746 -0.3494
  177ntf    on5 1140   1.247   0.649   1.197 -0.3224 -0.2563 -0.0590
  177ntf    fn4 1141   1.152   0.640   0.942 -0.0361 -0.0909  0.0740
  177ntf    fn4 1142   0.973   0.663   1.056  0.5032 -0.2317  0.3412
  177ntf    fn4 1143   1.053   0.832   0.954  0.1367  0.4984  0.3946
  178ntf    cn1 1144   0.392   0.155   1.995  0.2724  0.3537  0.2034
  178ntf    sn2 1145   0.310   0.023   2.090  0.2760  0.1822 -0.0310
  178ntf    nn3 1146   0.259  -0.072   1.976 -0.1688 -0.0963  0.3991
  178ntf    sn2 1147   0.286  -0.225   1.955 -0.0514 -0.0456  0.1835
  178ntf    cn1 1148   0.146  -0.263   1.845  0.0592  0.5213 -0.1570
  178ntf    fn4 1149   0.491   0.123   1.913 -0.1174 -0.2826 -0.0329
  178ntf    fn4 1150   0.297   0.219   1.929  0.3028  0.4975  0.2999
  178ntf    fn4 1151   0.441   0.240   2.083  0.6348 -0.1640  0.5105
  178ntf    on5 1152   0.409  -0.040   2.175 -0.0538  0.0642  0.2674
  178ntf    on5 1153   0.199   0.090   2.153  0.6028  0.2749  0.4561
  178ntf    on5 1154   0.269  -0.306   2.073 -0.2982 -1.1401 -0.5826
  178ntf    on5 1155   0.397  -0.239   1.864 -0.2277 -0.2373 -0.0040
  178ntf    fn4 1156   0.025  -0.249   1.897  0.1516  0.0403  0.1970
  178ntf    fn4 1157   0.143  -0.192   1.734  0.3303 -0.1158 -0.5791
  178ntf    fn4 1158   0.154  -0.390   1.810  0.0123  0.5287 -0.1937
  179ntf    cn1 1159   1.402   0.279   1.263 -0.1989  0.1226  0.4741
  179ntf    sn2 1160   1.491   0.121   1.276 -0.0361  0.1802  0.0718
  179ntf    nn3 1161   1.488   0.092   1.430  0.0728 -0.2758 -0.0105
  179ntf    sn2 1162   1.392   0.012   1.525  0.0173 -0.2916 -0.0806
  179ntf    cn1 1163   1.450  -0.160   1.514  0.5055 -0.1406  0.1420
  179ntf    fn4 1164   1.469   0.388   1.296  0.0792  0.1630 -0.2165
  179ntf    fn4 1165   1.374   0.292   1.135  0.2625  0.4528  0.4046
  179ntf    fn4 1166   1.288   0.284   1.330 -0.1283 -0.2025  0.6216
  179ntf    on5 1167   1.416   0.033   1.190 -0.7819  0.4994  0.3864
  179ntf    on5 1168   1.620   0.152   1.220  0.1539 -0.2807  0.2530
  179ntf    on5 1169   1.255   0.008   1.478  0.2763 -0.3732 -0.8456
  179ntf    on5 1170   1.414   0.032   1.666 -0.1293 -0.4115 -0.0398
  179ntf    fn4 1171   1.446  -0.215   1.394  0.7740 -0.4709  0.2819
  179ntf    fn4 1172   1.577  -0.158   1.551  0.5055 -0.4831  0.1645
  179ntf    fn4 1173   1.383  -0.241   1.594 -0.0729  0.4278  0.2420
  180ntf    cn1 1174   2.150   1.975   2.873 -0.6214  0.0703 -0.1847
  180ntf    sn2 1175   2.013   2.008   2.987 -0.2508  0.0365  0.2716
  180ntf    nn3 1176   2.093   2.101   3.085 -0.4945 -0.1293  0.6315
  180ntf    sn2 1177   2.040   2.213   3.181 -0.6385  0.4682 -0.1298
  180ntf    cn1 1178   2.012   2.102   3.322  0.0367  0.4715  0.0117
  180ntf    fn4 1179   2.111   1.920   2.759 -0.3306 -0.1991 -0.1578
  180ntf    fn4 1180   2.202   2.091   2.838  0.1782 -0.3574 -0.4527
  180ntf    fn4 1181   2.250   1.894   2.908  0.0381  0.8757 -0.1746
  180ntf    on5 1182   1.914   2.079   2.910 -0.3720  0.5429  0.8846
  180ntf    on5 1183   1.985   1.879   3.046  0.0319  0.2605  0.9105
  180ntf    on5 1184   1.908   2.266   3.156 -0.6723  0.4269 -0.0410
  180ntf    on5 1185   2.142   2.305   3.226 -0.2674 -0.0394  0.0760
  180ntf    fn4 1186   1.936   2.000   3.285 -0.1561  0.7411 -0.3446
  180ntf    fn4 1187   2.121   2.054   3.380 -0.5791 -0.3275  0.5467
  180ntf    fn4 1188   1.950   2.164   3.421 -0.2987 -0.2175  0.2465
  181ntf    cn1 1189   1.200   0.838   5.544  0.2097  0.0979 -0.0003
  181ntf    sn2 1190   1.218   0.916   5.707  0.0459  0.3488 -0.1018
  181ntf    nn3 1191   1.064   0.940   5.730 -0.0361 -0.2961  0.0611
  181ntf    sn2 1192   0.990   1.010   5.849  0.1380  0.4903 -0.2853
  181ntf    cn1 1193   0.922   0.860   5.927  0.3351  0.1152 -0.8274
  181ntf    fn4 1194   1.173   0.923   5.446  0.3518 -0.5143 -0.5805
  181ntf    fn4 1195   1.306   0.766   5.509  0.1618 -0.5013  1.0506
  181ntf    fn4 1196   1.092   0.762   5.540 -0.1559  0.6170  0.0297
  181ntf    on5 1197   1.261   0.811   5.797 -0.3762  0.2141 -0.0530
  181ntf    on5 1198   1.299   1.030   5.675  0.1063  0.3249 -0.0360
  181ntf    on5 1199   0.876   1.091   5.812  0.1842  0.5155 -0.3731
  181ntf    on5 1200   1.067   1.076   5.952  0.6488 -0.2611 -0.1790
  181ntf    fn4 1201   1.014   0.793   5.994 -0.5200 -0.5871 -0.3444
  181ntf    fn4 1202   0.831   0.898   6.015  0.5245 -0.3051 -0.4432
  181ntf    fn4 1203   0.864   0.777   5.843  0.0237  0.2135 -0.7087
  182ntf    cn1 1204   0.286   2.117   5.276 -0.0043  0.6346  0.0802
  182ntf    sn2 1205   0.326   2.085   5.450 -0.2005  0.1911  0.0463
  182ntf    nn3 1206   0.223   1.969   5.473 -0.0691  0.0823  0.0864
  182ntf    sn2 1207   0.087   1.961   5.550  0.0100  0.2599  0.2432
  182ntf    cn1 1208  -0.016   1.908   5.410  0.4482 -0.2614  0.1174
  182ntf    fn4 1209   0.360   2.208   5.214 -0.0142  0.6020  0.0213
  182ntf    fn4 1210   0.305   2.007   5.205 -0.1506  0.8410 -0.2818
  182ntf    fn4 1211   0.159   2.152   5.263 -0.1313  0.4270  0.7195
  182ntf    on5 1212   0.458   2.027   5.457 -0.2880 -0.0000  0.0972
  182ntf    on5 1213   0.309   2.203   5.532 -0.3025  0.6307 -0.6073
  182ntf    on5 1214   0.014   2.077   5.596 -0.4036  0.2719 -0.4352
  182ntf    on5 1215   0.083   1.840   5.628  0.6450 -0.3567 -0.6658
  182ntf    fn4 1216   0.048   1.815   5.341  0.2001  0.3158 -0.9115
  182ntf    fn4 1217  -0.134   1.858   5.440  0.3174 -0.0245 -0.0005
  182ntf    fn4 1218  -0.038   2.008   5.326 -0.3233  0.4678  1.1551
  183ntf    cn1 1219   0.242   1.446   2.646 -0.0705 -0.2049  0.0114
  183ntf    sn2 1220   0.258   1.599   2.742 -0.0493 -0.1856 -0.0230
  183ntf    nn3 1221   0.266   1.546   2.890 -0.3052 -0.2479 -0.0304
  183ntf    sn2 1222   0.312   1.624   3.018 -0.3094 -0.1190 -0.1078
  183ntf    cn1 1223   0.487   1.574   3.022 -0.3440 -0.2274  0.0165
  183ntf    fn4 1224   0.290   1.451   2.523 -0.4293  0.7268 -0.0971
  183ntf    fn4 1225   0.321   1.354   2.701  0.0872 -0.2398 -0.2722
  183ntf    fn4 1226   0.123   1.388   2.654 -0.3696  0.3731 -0.2163
  183ntf    on5 1227   0.383   1.657   2.700 -0.1564 -0.0236 -0.1164
  183ntf    on5 1228   0.132   1.662   2.712 -0.1054  0.1304  0.8389
  183ntf    on5 1229   0.263   1.565   3.139  0.8116 -1.1162 -0.1240
  183ntf    on5 1230   0.310   1.769   3.015 -0.1334 -0.1196 -0.3107
  183ntf    fn4 1231   0.511   1.454   3.073 -0.1205 -0.0920  0.2344
  183ntf    fn4 1232   0.547   1.581   2.905 -0.4084  0.1453  0.0071
  183ntf    fn4 1233   0.560   1.652   3.099 -0.7983 -0.0975  0.3176
  184ntf    cn1 1234   1.799   1.942   2.366 -0.0890 -0.6213 -0.7377
  184ntf    sn2 1235   1.695   2.057   2.270 -0.0425 -0.1124 -0.1847
  184ntf    nn3 1236   1.712   2.189   2.353 -0.0163 -0.2232 -0.0120
  184ntf    sn2 1237   1.791   2.321   2.321  0.1736 -0.3754 -0.1759
  184ntf    cn1 1238   1.680   2.407   2.205  0.1550  0.3653  0.3804
  184ntf    fn4 1239   1.819   1.817   2.328  0.1216 -0.9389  0.3964
  184ntf    fn4 1240   1.919   1.996   2.377 -0.3603 -0.0955 -0.3210
  184ntf    fn4 1241   1.753   1.928   2.489 -0.0182  0.1891 -0.6129
  184ntf    on5 1242   1.759   2.054   2.141 -0.0932  0.2260 -0.2164
  184ntf    on5 1243   1.565   1.997   2.287  0.0627 -0.2914 -0.0088
  184ntf    on5 1244   1.913   2.299   2.248  0.4027 -0.2983  0.1808
  184ntf    on5 1245   1.795   2.407   2.436  0.0133  0.3675 -0.7160
  184ntf    fn4 1246   1.732   2.524   2.173  0.7581  0.0443  0.1688
  184ntf    fn4 1247   1.659   2.335   2.095  0.2474  0.4985  0.2751
  184ntf    fn4 1248   1.564   2.417   2.266  0.0162 -0.2189  0.2200
  185ntf    cn1 1249   0.882   2.135   4.412 -0.3632  0.1882  0.4201
  185ntf    sn2 1250   0.908   2.217   4.572 -0.1619  0.4927  0.2322
  185ntf    nn3 1251   0.867   2.102   4.670  0.4301 -0.2489 -0.3847
  185ntf    sn2 1252   0.904   2.085   4.822 -0.0304  0.0220 -0.2423
  185ntf    cn1 1253   1.065   2.001   4.818  0.0400  0.1174  0.4432
  185ntf    fn4 1254   0.947   2.019   4.409 -0.4021  0.1856 -0.8320
  185ntf    fn4 1255   0.756   2.115   4.376 -0.2421 -0.0604  0.1284
  185ntf    fn4 1256   0.931   2.213   4.317 -0.4556  0.2020  0.3845
  185ntf    on5 1257   1.048   2.251   4.575 -0.1224  0.3799 -0.2221
  185ntf    on5 1258   0.817   2.329   4.576 -0.4002  0.2988  0.2627
  185ntf    on5 1259   0.812   1.986   4.873 -0.2414 -0.1683 -0.9832
  185ntf    on5 1260   0.928   2.203   4.901 -0.4815  0.2483 -0.4387
  185ntf    fn4 1261   1.098   1.942   4.932 -0.3808 -0.4263  0.2891
  185ntf    fn4 1262   1.074   1.892   4.743  0.1192  0.4659 -0.0576
  185ntf    fn4 1263   1.170   2.069   4.772 -0.1678  0.2723  0.1933
  186ntf    cn1 1264   2.218   1.502   1.764  0.2878 -0.3258  0.2199
  186ntf    sn2 1265   2.080   1.386   1.786 -0.0335  0.0066 -0.0291
  186ntf    nn3 1266   1.990   1.469   1.884  0.2678  0.5899 -0.2449
  186ntf    sn2 1267   1.837   1.500   1.896  0.2508  0.4570 -0.1281
  186ntf    cn1 1268   1.839   1.681   1.904 -0.0787  0.4587 -0.0706
  186ntf    fn4 1269   2.310   1.455   1.681  0.1860  0.0766 -0.1223
  186ntf    fn4 1270   2.190   1.622   1.716  0.7441 -0.1992  0.2651
  186ntf    fn4 1271   2.284   1.523   1.877 -0.0704  0.1228  0.3509
  186ntf    on5 1272   2.032   1.378   1.650 -0.2077 -0.1593  0.0416
  186ntf    on5 1273   2.144   1.270   1.843  0.0150 -0.1537 -0.4075
  186ntf    on5 1274   1.778   1.471   2.025  0.1646  0.3163 -0.1993
  186ntf    on5 1275   1.758   1.469   1.780 -0.3449 -0.1079  0.4160
  186ntf    fn4 1276   1.894   1.723   2.017  0.1859 -0.2784  0.0726
  186ntf    fn4 1277   1.917   1.728   1.808  0.3705  0.2635  0.1975
  186ntf    fn4 1278   1.721   1.739   1.885 -0.2708 -0.1600 -0.8323
  187ntf    cn1 1279   2.082   2.127   0.060 -0.0701 -0.3091  0.0990
  187ntf    sn2 1280   1.912   2.179   0.022 -0.0110 -0.3107 -0.1679
  187ntf    nn3 1281   1.880   2.067  -0.084  0.3764 -0.3807 -0.2127
  187ntf    sn2 1282   1.891   2.077  -0.240 -0.0572  0.0458 -0.2199
  187ntf    cn1 1283   1.715   2.078  -0.285 -0.1946 -0.0895  0.3070
  187ntf    fn4 1284   2.087   1.998   0.089  0.9180 -0.2509  0.1945
  187ntf    fn4 1285   2.163   2.142  -0.043 -0.0245 -0.5866  0.0926
  187ntf    fn4 1286   2.139   2.195   0.157 -0.8958  0.1345  0.2864
  187ntf    on5 1287   1.847   2.154   0.148  0.8096  0.5078  0.4204
  187ntf    on5 1288   1.906   2.315  -0.025 -0.3176 -0.3832 -0.3453
  187ntf    on5 1289   1.935   1.952  -0.297 -0.0949  0.1420 -0.4632
  187ntf    on5 1290   1.950   2.199  -0.291 -0.1416  0.4018  0.5242
  187ntf    fn4 1291   1.707   2.046  -0.413  0.4746  0.7363  0.0480
  187ntf    fn4 1292   1.653   1.988  -0.211 -0.0089  0.0150  0.5927
  187ntf    fn4 1293   1.653   2.194  -0.269 -0.1171  0.0134 -0.1316
  188ntf    cn1 1294   0.121   2.211   4.739  0.0263 -0.4215  0.0554
  188ntf    sn2 1295   0.120   2.364   4.642  0.4249 -0.3008  0.2440
  188ntf    nn3 1296  -0.033   2.396   4.635  0.6493  0.7805  0.0535
  188ntf    sn2 1297  -0.111   2.527   4.673 -0.2403  0.2048  0.2440
  188ntf    cn1 1298  -0.244   2.518   4.549  0.1827 -0.2062 -0.1804
  188ntf    fn4 1299   0.046   2.117   4.682  0.0184 -0.0966 -0.4715
  188ntf    fn4 1300   0.247   2.173   4.746  0.2121  0.2199  0.2342
  188ntf    fn4 1301   0.083   2.233   4.864  0.2754 -0.7051  0.1815
  188ntf    on5 1302   0.202   2.449   4.727  0.0573  0.0086  0.2925
  188ntf    on5 1303   0.184   2.325   4.519  0.5755  0.1503  0.1740
  188ntf    on5 1304  -0.042   2.651   4.648  0.1540 -0.0610  0.0020
  188ntf    on5 1305  -0.178   2.515   4.801 -0.0090 -0.4074  0.3097
  188ntf    fn4 1306  -0.303   2.400   4.550 -0.1239 -0.0527 -0.3369
  188ntf    fn4 1307  -0.332   2.609   4.587  0.1750 -0.0750 -0.5166
  188ntf    fn4 1308  -0.199   2.545   4.428  0.5895  0.3674  0.0953
  189ntf    cn1 1309   1.295   0.121   5.241  0.2018 -0.3250  0.1801
  189ntf    sn2 1310   1.416   0.184   5.361 -0.2165  0.1056  0.3767
  189ntf    nn3 1311   1.382   0.091   5.483 -0.2938 -0.3722 -0.0101
  189ntf    sn2 1312   1.421  -0.060   5.503  0.3994 -0.1633  0.2459
  189ntf    cn1 1313   1.573  -0.028   5.597  0.4537  0.3895 -0.0311
  189ntf    fn4 1314   1.298   0.183   5.124  0.0906  0.3782  0.5469
  189ntf    fn4 1315   1.300  -0.007   5.208  0.0112 -0.3521  0.2543
  189ntf    fn4 1316   1.174   0.145   5.288 -0.0436 -0.0821 -0.5631
  189ntf    on5 1317   1.545   0.174   5.298 -0.5837  0.7000 -0.4966
  189ntf    on5 1318   1.367   0.318   5.385 -0.0665  0.2641 -0.1917
  189ntf    on5 1319   1.458  -0.133   5.384  0.3615 -0.4920  0.4335
  189ntf    on5 1320   1.338  -0.133   5.596  0.0179  0.1632  0.1654
  189ntf    fn4 1321   1.672   0.026   5.527  0.5524 -0.0030 -0.1925
  189ntf    fn4 1322   1.550   0.045   5.705  0.5654  0.2254  0.1028
  189ntf    fn4 1323   1.619  -0.137   5.655 -0.2691 -0.2008 -0.5529
  190ntf    cn1 1324   0.792   1.939   1.415  0.1164 -0.3498 -0.2004
  190ntf    sn2 1325   0.668   1.857   1.519 -0.1323  0.1387 -0.1114
  190ntf    nn3 1326   0.745   1.792   1.640 -0.1019  0.3379 -0.0240
  190ntf    sn2 1327   0.768   1.845   1.786 -0.1139 -0.2642  0.1975
  190ntf    cn1 1328   0.949   1.836   1.785 -0.0926  0.1492 -0.0844
  190ntf    fn4 1329   0.852   2.037   1.480 -0.8011 -0.0052  0.1453
  190ntf    fn4 1330   0.879   1.855   1.360  0.0743 -0.0418 -0.7483
  190ntf    fn4 1331   0.732   1.996   1.311  0.2212 -0.3619 -0.2678
  190ntf    on5 1332   0.570   1.955   1.559 -0.0914  0.3938 -0.6246
  190ntf    on5 1333   0.622   1.752   1.432  0.0033  0.2716 -0.3429
  190ntf    on5 1334   0.718   1.750   1.882  0.2239 -0.5302  0.1093
  190ntf    on5 1335   0.740   1.984   1.811  0.1115 -0.2650  0.4580
  190ntf    fn4 1336   1.001   1.928   1.706  0.4229 -0.0737 -0.0079
  190ntf    fn4 1337   0.996   1.858   1.907 -0.0329 -0.0929 -0.0625
  190ntf    fn4 1338   1.008   1.724   1.744  0.1226  0.3587 -0.3471
  191ntf    cn1 1339   1.216   0.232   3.753 -0.3791 -0.0758 -0.0964
  191ntf    sn2 1340   1.383   0.247   3.824 -0.3709 -0.0240 -0.1278
  191ntf    nn3 1341   1.356   0.250   3.978  0.6470  0.2030  0.0521
  191ntf    sn2 1342   1.357   0.122   4.070 -0.4128  0.0863 -0.0863
  191ntf    cn1 1343   1.522   0.154   4.139 -0.4868  0.0627  0.1007
  191ntf    fn4 1344   1.234   0.228   3.622 -0.1413  0.2093 -0.0748
  191ntf    fn4 1345   1.158   0.117   3.785 -0.1435 -0.2416 -0.2590
  191ntf    fn4 1346   1.135   0.326   3.796 -0.1138 -0.0579  0.3777
  191ntf    on5 1347   1.459   0.135   3.773  0.5386  0.5004  0.0553
  191ntf    on5 1348   1.428   0.378   3.783 -0.0025 -0.0676  0.1355
  191ntf    on5 1349   1.358  -0.009   4.012  0.1007  0.0979 -0.1122
  191ntf    on5 1350   1.272   0.130   4.186  0.3458 -0.1514  0.4955
  191ntf    fn4 1351   1.620   0.139   4.051 -0.5574 -0.4317  0.1052
  191ntf    fn4 1352   1.534   0.279   4.181  0.3664 -0.1059  0.3851
  191ntf    fn4 1353   1.548   0.068   4.237  0.6517  0.0207 -0.2211
  192ntf    cn1 1354   0.579   0.678   0.231  0.1170 -0.0253  0.1261
  192ntf    sn2 1355   0.654   0.703   0.394 -0.2973 -0.2108  0.3444
  192ntf    nn3 1356   0.735   0.570   0.412 -0.1294 -0.2792 -0.8674
  192ntf    sn2 1357   0.769   0.490   0.543  0.2225  0.3117 -0.5935
  192ntf    cn1 1358   0.947   0.526   0.541  0.4050 -0.5094  0.2679
  192ntf    fn4 1359   0.668   0.635   0.143 -0.1694  0.4406 -0.3989
  192ntf    fn4 1360   0.477   0.595   0.241  0.1893 -0.0908  0.3060
  192ntf    fn4 1361   0.547   0.798   0.183  0.2020  0.1477  0.4979
  192ntf    on5 1362   0.744   0.814   0.381 -0.4853 -0.0881  0.0862
  192ntf    on5 1363   0.535   0.712   0.475 -0.1646  0.3444  0.4805
  192ntf    on5 1364   0.762   0.351   0.506 -0.0943  0.1465  0.0758
  192ntf    on5 1365   0.713   0.531   0.670 -0.3459 -0.6680 -0.5189
  192ntf    fn4 1366   1.007   0.544   0.425  0.0612 -0.7719  0.0485
  192ntf    fn4 1367   0.970   0.642   0.600  0.3188 -0.1754 -0.3473
  192ntf    fn4 1368   1.027   0.449   0.614  0.5651 -0.3611  0.2485
  193ntf    cn1 1369   0.319   1.078   4.596 -0.0600  0.1307 -0.2135
  193ntf    sn2 1370   0.450   1.046   4.473  0.1274 -0.0806  0.0403
  193ntf    nn3 1371   0.503   0.903   4.511 -0.5265 -0.3249  0.0544
  193ntf    sn2 1372   0.647   0.841   4.515 -0.3615  0.0436 -0.0648
  193ntf    cn1 1373   0.644   0.733   4.661  0.2798  0.0695 -0.0279
  193ntf    fn4 1374   0.222   0.992   4.571 -0.3442  0.5584 -0.6256
  193ntf    fn4 1375   0.380   1.061   4.712  0.2025  0.0238 -0.3643
  193ntf    fn4 1376   0.264   1.198   4.599 -0.8150 -0.1896 -0.9470
  193ntf    on5 1377   0.374   1.054   4.351  0.6517  0.4641 -0.2573
  193ntf    on5 1378   0.548   1.145   4.512  0.5241 -0.4917  0.0984
  193ntf    on5 1379   0.755   0.928   4.557  0.3550 -0.5863 -0.5736
  193ntf    on5 1380   0.674   0.741   4.415  0.5364  0.3831 -0.1706
  193ntf    fn4 1381   0.572   0.624   4.642 -0.1203  0.3749 -0.2723
  193ntf    fn4 1382   0.766   0.696   4.697  0.0411 -0.5807  0.1203
  193ntf    fn4 1383   0.600   0.791   4.772  0.3761  0.1557 -0.0347
  194ntf    cn1 1384   0.411   0.692   3.803 -0.2524 -0.1387  0.2446
  194ntf    sn2 1385   0.546   0.572   3.785 -0.0953  0.0862 -0.0760
  194ntf    nn3 1386   0.479   0.430   3.788  0.5650 -0.2215  0.2096
  194ntf    sn2 1387   0.381   0.377   3.899  0.0430  0.0338 -0.1272
  194ntf    cn1 1388   0.488   0.276   4.006 -0.0188  0.1783  0.0703
  194ntf    fn4 1389   0.445   0.812   3.760 -0.1492 -0.4452 -0.5489
  194ntf    fn4 1390   0.304   0.673   3.727  0.2285 -0.1079 -0.4456
  194ntf    fn4 1391   0.355   0.717   3.920  0.3693 -0.3194  0.5805
  194ntf    on5 1392   0.607   0.601   3.657  0.2220  0.8578  0.2479
  194ntf    on5 1393   0.620   0.593   3.906  0.1803 -0.1673 -0.1985
  194ntf    on5 1394   0.286   0.278   3.855 -0.3947  0.2043  0.4307
  194ntf    on5 1395   0.333   0.481   3.986 -0.3592 -0.1816 -0.0894
  194ntf    fn4 1396   0.434   0.157   4.029  0.3251  0.0985  0.4910
  194ntf    fn4 1397   0.604   0.256   3.947 -0.2062 -0.1259 -0.1973
  194ntf    fn4 1398   0.511   0.320   4.129 -0.2193 -0.5103  0.3631
  195ntf    cn1 1399   2.097   0.602   5.297 -0.3097 -0.1871 -0.3723
  195ntf    sn2 1400   2.097   0.430   5.356  0.4725 -0.0404  0.0699
  195ntf    nn3 1401   2.061   0.437   5.508  0.2228  0.3196 -0.0038
  195ntf    sn2 1402   1.938   0.503   5.580  0.0254 -0.1042  0.0526
  195ntf    cn1 1403   1.883   0.372   5.694 -0.1024 -0.1439 -0.0538
  195ntf    fn4 1404   2.193   0.673   5.355 -0.3540 -0.3752 -0.0628
  195ntf    fn4 1405   2.127   0.611   5.169  0.5055 -0.4832 -0.2139
  195ntf    fn4 1406   1.984   0.664   5.325 -0.1277 -0.0706  0.1154
  195ntf    on5 1407   2.007   0.352   5.275  0.0572 -0.0517  0.5427
  195ntf    on5 1408   2.234   0.385   5.343  0.3847 -0.2808 -0.0287
  195ntf    on5 1409   1.822   0.523   5.497 -0.2286  0.6520  0.5781
  195ntf    on5 1410   1.972   0.613   5.667  0.2253 -0.0859 -0.0463
  195ntf    fn4 1411   1.987   0.315   5.753  0.3192  0.2165 -0.4331
  195ntf    fn4 1412   1.794   0.417   5.780  0.2653 -0.1096  0.3132
  195ntf    fn4 1413   1.817   0.282   5.623  0.2466 -0.0830 -0.4654
  196ntf    cn1 1414   1.374   0.029   0.369 -0.5879 -0.0584  0.0682
  196ntf    sn2 1415   1.239   0.078   0.480 -0.2377 -0.1717  0.5477
  196ntf    nn3 1416   1.144  -0.047   0.468 -0.0012 -0.3824  0.8485
  196ntf    sn2 1417   0.988  -0.061   0.472 -0.0464 -0.0965  0.2530
  196ntf    cn1 1418   0.963  -0.133   0.637  0.3510 -0.4963  0.1400
  196ntf    fn4 1419   1.459  -0.059   0.419  0.1321  0.4240 -0.2725
  196ntf    fn4 1420   1.322  -0.012   0.255  0.3832 -0.1174 -0.3672
  196ntf    fn4 1421   1.445   0.133   0.327 -0.5382 -0.1286 -0.0217
  196ntf    on5 1422   1.313   0.081   0.604  0.1329 -0.5214  0.3394
  196ntf    on5 1423   1.195   0.200   0.417  0.1646 -0.1927  0.2249
  196ntf    on5 1424   0.958  -0.175   0.388 -0.0703  0.1888 -0.1248
  196ntf    on5 1425   0.905   0.056   0.461 -0.3765 -0.2431  1.1023
  196ntf    fn4 1426   1.048  -0.081   0.724  0.1597  0.5458 -0.2807
  196ntf    fn4 1427   0.839  -0.123   0.680  0.2494 -0.2680 -0.2055
  196ntf    fn4 1428   0.972  -0.265   0.642  0.6922 -0.4618  0.4906
  197ntf    cn1 1429   1.514   0.686   4.669 -0.1088 -0.0573 -0.1928
  197ntf    sn2 1430   1.471   0.863   4.678 -0.2780 -0.1085  0.0193
  197ntf    nn3 1431   1.606   0.937   4.707  0.0551 -0.7368  0.0888
  197ntf    sn2 1432   1.668   0.979   4.845  0.0266  0.0073 -0.1202
  197ntf    cn1 1433   1.806   1.085   4.792 -0.0443 -0.0207 -0.3631
  197ntf    fn4 1434   1.412   0.613   4.630 -0.0418  0.0972 -0.6598
  197ntf    fn4 1435   1.610   0.669   4.580  0.0280  0.7977 -0.2192
  197ntf    fn4 1436   1.562   0.647   4.786  0.3440 -0.1403 -0.4021
  197ntf    on5 1437   1.436   0.893   4.541  0.4131  0.1570 -0.1063
  197ntf    on5 1438   1.372   0.865   4.783 -0.1086  0.0693  0.1758
  197ntf    on5 1439   1.741   0.874   4.911  0.4622  0.2231 -0.2565
  197ntf    on5 1440   1.585   1.056   4.934  0.0639 -0.2556  0.1449
  197ntf    fn4 1441   1.909   1.011   4.754  0.0334 -0.0351 -0.1267
  197ntf    fn4 1442   1.759   1.156   4.691  0.1890 -0.0834 -0.5172
  197ntf    fn4 1443   1.838   1.164   4.893 -0.2529 -0.3506 -0.0318
  198ntf    cn1 1444   1.254   1.682   5.962 -0.0927 -0.7238 -0.3608
  198ntf    sn2 1445   1.130   1.699   5.831 -0.0205  0.1352 -0.3194
  198ntf    nn3 1446   1.000   1.722   5.916  0.1480  0.0987 -0.0517
  198ntf    sn2 1447   0.905   1.615   5.979 -0.0356  0.3798  0.1505
  198ntf    cn1 1448   0.758   1.720   6.001  0.0104  0.4031  0.3462
  198ntf    fn4 1449   1.254   1.569   6.032  0.2586 -0.4579  0.0738
  198ntf    fn4 1450   1.378   1.696   5.917  0.2341 -0.1162  0.6941
  198ntf    fn4 1451   1.239   1.777   6.053 -0.5181 -0.4722 -0.6915
  198ntf    on5 1452   1.170   1.820   5.763  0.3508  0.2812  0.1575
  198ntf    on5 1453   1.138   1.575   5.759 -0.1169 -0.2355  0.3050
  198ntf    on5 1454   0.947   1.579   6.112  0.2420 -0.0359 -0.0447
  198ntf    on5 1455   0.859   1.513   5.887  0.1737  0.2724  0.1655
  198ntf    fn4 1456   0.715   1.785   5.895  0.1412  0.1256  0.1203
  198ntf    fn4 1457   0.661   1.652   6.061 -0.1335  0.1359 -0.1890
  198ntf    fn4 1458   0.792   1.814   6.088 -0.5560 -0.3451  1.3976
  199ntf    cn1 1459   0.833   2.049   3.097  0.1430  0.1503 -0.4160
  199ntf    sn2 1460   0.947   1.989   3.226 -0.0702 -0.0606 -0.3257
  199ntf    nn3 1461   0.963   2.129   3.295  0.0955 -0.3437  0.2164
  199ntf    sn2 1462   0.925   2.174   3.440 -0.2386  0.0480  0.0082
  199ntf    cn1 1463   1.038   2.314   3.464 -0.4312  0.2069 -0.0108
  199ntf    fn4 1464   0.881   2.154   3.032  0.3992  0.1569 -0.2180
  199ntf    fn4 1465   0.812   1.959   3.002 -0.3944  0.1418 -0.2929
  199ntf    fn4 1466   0.720   2.094   3.147 -0.0800 -0.0612 -0.7242
  199ntf    on5 1467   0.875   1.891   3.303 -0.0568  0.0227 -0.2069
  199ntf    on5 1468   1.066   1.940   3.162  0.3336 -0.0938  0.4465
  199ntf    on5 1469   0.970   2.085   3.544  0.2073  0.5066  0.2097
  199ntf    on5 1470   0.789   2.224   3.441 -0.1517  0.2864  0.0063
  199ntf    fn4 1471   1.004   2.397   3.561 -0.3126  0.0876  0.1330
  199ntf    fn4 1472   1.161   2.276   3.494 -0.3186  0.1673 -0.5057
  199ntf    fn4 1473   1.050   2.374   3.347  0.1333  0.6401  0.2639
  200ntf    cn1 1474   1.053   0.471   5.215  0.0383 -0.2229  0.2365
  200ntf    sn2 1475   0.890   0.406   5.169  0.0690 -0.0129 -0.1799
  200ntf    nn3 1476   0.809   0.454   5.295  0.0442 -0.1386 -0.1474
  200ntf    sn2 1477   0.663   0.508   5.317  0.1041 -0.0509  0.0334
  200ntf    cn1 1478   0.677   0.679   5.379 -0.1354 -0.0322  0.0387
  200ntf    fn4 1479   1.075   0.599   5.191 -0.4322 -0.2515 -0.3612
  200ntf    fn4 1480   1.085   0.448   5.341  0.1443  0.6064  0.3629
  200ntf    fn4 1481   1.140   0.402   5.142 -0.2782 -0.1722 -0.1972
  200ntf    on5 1482   0.861   0.478   5.048 -0.2303  0.4329  0.1504
  200ntf    on5 1483   0.901   0.262   5.164 -0.1824 -0.0436  0.1126
  200ntf    on5 1484   0.592   0.431   5.417 -0.0905  0.0442 -0.0306
  200ntf    on5 1485   0.599   0.555   5.197 -0.2135  0.0719  0.2487
  200ntf    fn4 1486   0.558   0.725   5.413 -0.0949  0.5808 -0.6195
  200ntf    fn4 1487   0.751   0.694   5.488  0.0445 -0.0892 -0.0742
  200ntf    fn4 1488   0.722   0.765   5.289 -0.0491 -0.2881 -0.1673
  201ntf    cn1 1489   1.192   0.584   2.004 -0.3282 -0.1728 -0.1082
  201ntf    sn2 1490   1.037   0.676   1.979 -0.1107  0.2680  0.1535
  201ntf    nn3 1491   1.074   0.821   2.028 -0.3716  0.3515  0.1039
  201ntf    sn2 1492   1.128   0.938   1.940 -0.0672  0.0831 -0.0672
  201ntf    cn1 1493   1.233   1.038   2.050  0.3855 -0.5222  0.0569
  201ntf    fn4 1494   1.297   0.627   1.934  0.1036 -0.2639  0.4762
  201ntf    fn4 1495   1.243   0.577   2.126 -0.4363 -0.5022 -0.0816
  201ntf    fn4 1496   1.177   0.459   1.965  0.0857 -0.1613 -0.3184
  201ntf    on5 1497   0.984   0.673   1.846 -0.0501  0.2213  0.1303
  201ntf    on5 1498   0.953   0.603   2.071 -0.1833  0.1489 -0.0080
  201ntf    on5 1499   1.021   1.024   1.896  0.2849  0.4454 -0.2341
  201ntf    on5 1500   1.219   0.897   1.835 -0.3978  0.0391 -0.3382
  201ntf    fn4 1501   1.329   0.964   2.103  0.5503 -0.1375  0.2981
  201ntf    fn4 1502   1.281   1.142   1.984 -0.9344 -0.1507 -0.3583
  201ntf    fn4 1503   1.169   1.083   2.157 -0.3081 -0.9077 -0.1881
  202ntf    cn1 1504   1.455   1.476   0.406 -0.0387  0.5981 -0.0111
  202ntf    sn2 1505   1.555   1.417   0.266 -0.0582  0.0692  0.1933
  202ntf    nn3 1506   1.457   1.304   0.219  0.2382 -0.4615  0.8483
  202ntf    sn2 1507   1.468   1.199   0.103  0.2056  0.5676 -0.0923
  202ntf    cn1 1508   1.366   1.272  -0.030 -0.1271  0.2951  0.0110
  202ntf    fn4 1509   1.394   1.377   0.468  0.9795  0.1009  0.2253
  202ntf    fn4 1510   1.519   1.547   0.498  0.1071  0.7411 -0.2224
  202ntf    fn4 1511   1.363   1.554   0.352 -0.1872  0.0902 -0.5043
  202ntf    on5 1512   1.567   1.539   0.190  0.1213 -0.1212 -0.0853
  202ntf    on5 1513   1.674   1.368   0.329 -0.2285 -0.1684  0.3285
  202ntf    on5 1514   1.400   1.075   0.130  0.3245  0.4161 -0.4770
  202ntf    on5 1515   1.599   1.174   0.049  0.3418 -0.4979  0.7183
  202ntf    fn4 1516   1.314   1.184  -0.113 -0.8514  0.4385  0.3090
  202ntf    fn4 1517   1.253   1.325   0.013 -0.3856  0.0799 -0.4055
  202ntf    fn4 1518   1.429   1.364  -0.102  0.0952  0.1888  0.0671
  203ntf    cn1 1519   0.129   1.159   6.308  0.0877  0.0731 -0.2735
  203ntf    sn2 1520   0.013   1.113   6.176  0.0317  0.1071 -0.2353
  203ntf    nn3 1521   0.089   1.179   6.056  0.1513  0.5193  0.0666
  203ntf    sn2 1522   0.121   1.114   5.917  0.0865  0.3928  0.1113
  203ntf    cn1 1523  -0.048   1.104   5.851  0.1644 -0.0900 -0.0217
  203ntf    fn4 1524   0.145   1.290   6.308  0.2264  0.0590  0.3865
  203ntf    fn4 1525   0.077   1.128   6.426 -0.7926  0.4083 -0.5685
  203ntf    fn4 1526   0.250   1.106   6.299  0.1443  0.1138  0.1856
  203ntf    on5 1527   0.008   0.969   6.178 -0.6266  0.1303  0.5730
  203ntf    on5 1528  -0.110   1.185   6.199 -0.0867 -0.0628 -0.3277
  203ntf    on5 1529   0.170   0.979   5.930  0.2724  0.4453 -0.0530
  203ntf    on5 1530   0.185   1.207   5.828 -0.8382  0.5792 -0.3704
  203ntf    fn4 1531  -0.124   1.009   5.903  0.0659 -0.2916 -0.5218
  203ntf    fn4 1532  -0.117   1.213   5.881 -0.5901 -0.5859  0.0758
  203ntf    fn4 1533  -0.051   1.093   5.719  0.0582 -0.7188  0.0332
  204ntf    cn1 1534   1.386   0.393   2.704  0.0145 -0.1842  0.0993
  204ntf    sn2 1535   1.437   0.409   2.878  0.2464  0.2120 -0.0030
  204ntf    nn3 1536   1.339   0.514   2.941 -0.0589  0.1033 -0.2925
  204ntf    sn2 1537   1.183   0.518   2.931 -0.0739  0.0711 -0.0625
  204ntf    cn1 1538   1.136   0.562   3.101 -0.1635  0.2381 -0.1305
  204ntf    fn4 1539   1.436   0.487   2.626  0.6336 -0.4790  0.1386
  204ntf    fn4 1540   1.428   0.278   2.656 -0.1124 -0.0508 -0.3336
  204ntf    fn4 1541   1.257   0.408   2.676 -0.0685  0.2468  0.6833
  204ntf    on5 1542   1.417   0.278   2.936 -0.1792  0.2508 -0.0602
  204ntf    on5 1543   1.570   0.464   2.871  0.3073  0.0987  0.2575
  204ntf    on5 1544   1.122   0.389   2.912 -0.1730  0.0614  0.3140
  204ntf    on5 1545   1.133   0.632   2.857  0.0959 -0.2098 -0.6109
  204ntf    fn4 1546   1.005   0.551   3.116 -0.0899 -0.0955  0.2714
  204ntf    fn4 1547   1.183   0.491   3.202 -0.0059  0.1892 -0.2395
  204ntf    fn4 1548   1.166   0.687   3.134  0.1799  0.0095  0.4266
  205ntf    cn1 1549   1.916   1.097   3.947 -0.2190  0.0746  0.4830
  205ntf    sn2 1550   2.082   1.052   4.004 -0.2041 -0.2824  0.1645
  205ntf    nn3 1551   2.069   1.141   4.133  0.3753  0.8869 -0.5644
  205ntf    sn2 1552   2.157   1.169   4.259  0.0341 -0.4227 -0.0256
  205ntf    cn1 1553   2.067   1.059   4.373  0.3568  0.1541  0.7980
  205ntf    fn4 1554   1.872   1.017   3.851 -0.2894  0.1766  0.4308
  205ntf    fn4 1555   1.835   1.084   4.051  0.2244 -0.2446  0.7893
  205ntf    fn4 1556   1.901   1.221   3.904 -0.0485 -0.2476 -0.5171
  205ntf    on5 1557   2.086   0.913   4.043 -0.1993 -0.0460  1.0278
  205ntf    on5 1558   2.163   1.105   3.896  0.6024  0.2205  0.9963
  205ntf    on5 1559   2.129   1.295   4.323  0.7233 -0.1865 -0.1781
  205ntf    on5 1560   2.296   1.131   4.244  0.1249  0.0443 -0.3627
  205ntf    fn4 1561   2.087   0.929   4.354 -0.5068  0.0757  0.4022
  205ntf    fn4 1562   2.115   1.078   4.495  0.4598  0.2523  0.7424
  205ntf    fn4 1563   1.937   1.079   4.385  0.2433 -0.1687  0.1307
  206ntf    cn1 1564   1.280   1.662   4.241  0.1673 -0.0389 -0.1562
  206ntf    sn2 1565   1.285   1.481   4.223 -0.0440 -0.0640  0.0380
  206ntf    nn3 1566   1.132   1.453   4.207 -0.1108  0.1520  0.2902
  206ntf    sn2 1567   1.067   1.373   4.088 -0.0286  0.1423  0.2523
  206ntf    cn1 1568   0.943   1.281   4.182  0.1031  0.0289  0.3163
  206ntf    fn4 1569   1.160   1.715   4.234  0.1436 -0.0438  0.2106
  206ntf    fn4 1570   1.342   1.700   4.352 -0.1239 -0.3186  0.1023
  206ntf    fn4 1571   1.350   1.717   4.143  0.7167 -0.0834  0.2078
  206ntf    on5 1572   1.361   1.456   4.103 -0.7507 -0.5936 -0.3053
  206ntf    on5 1573   1.354   1.437   4.342  0.5294  1.1509  0.1731
  206ntf    on5 1574   1.145   1.264   4.034  0.6237  0.5679  0.3253
  206ntf    on5 1575   0.990   1.456   3.998 -0.3657 -0.3326  0.0966
  206ntf    fn4 1576   0.978   1.217   4.293 -0.1881 -0.8722 -0.1006
  206ntf    fn4 1577   0.848   1.365   4.221 -0.2329 -0.0038 -0.4231
  206ntf    fn4 1578   0.881   1.190   4.109 -0.6202  0.3101  0.5596
  207ntf    cn1 1579   1.815   0.173   0.371 -0.2841 -0.0029 -0.1687
  207ntf    sn2 1580   1.955   0.244   0.463 -0.1029 -0.0208 -0.4268
  207ntf    nn3 1581   1.879   0.321   0.577  0.1884 -0.2359 -0.0854
  207ntf    sn2 1582   1.929   0.376   0.716  0.1319 -0.7341  0.1330
  207ntf    cn1 1583   1.928   0.224   0.816  0.1718 -0.4929  0.5000
  207ntf    fn4 1584   1.728   0.271   0.357 -0.1535  0.1923  0.3899
  207ntf    fn4 1585   1.849   0.127   0.251  0.3615  0.0720 -0.0175
  207ntf    fn4 1586   1.765   0.072   0.441  0.0524  0.2931  0.5051
  207ntf    on5 1587   2.021   0.125   0.511  0.4577  0.4701  0.0330
  207ntf    on5 1588   2.018   0.328   0.365  0.6484 -0.2774 -0.1698
  207ntf    on5 1589   1.841   0.475   0.772  0.0862 -0.5906 -0.1928
  207ntf    on5 1590   2.069   0.411   0.714 -0.1133  0.2817  0.0950
  207ntf    fn4 1591   1.865   0.119   0.767 -0.0948 -0.0153 -0.1968
  207ntf    fn4 1592   2.049   0.176   0.838  0.5564  0.4793  0.5734
  207ntf    fn4 1593   1.869   0.247   0.932  0.4104  0.1759  0.4951
  208ntf    cn1 1594   2.032   1.444   3.574 -0.1592 -0.3085  0.2650
  208ntf    sn2 1595   2.116   1.587   3.499 -0.3535 -0.1995  0.2550
  208ntf    nn3 1596   2.072   1.696   3.604 -0.0599  0.5991 -0.4410
  208ntf    sn2 1597   2.162   1.767   3.710  0.2781  0.0471 -0.3542
  208ntf    cn1 1598   2.033   1.841   3.814 -0.1668 -0.7161 -0.3539
  208ntf    fn4 1599   1.901   1.459   3.581 -0.1288  0.2466 -0.1916
  208ntf    fn4 1600   2.052   1.327   3.515 -0.2398 -0.2923  0.2047
  208ntf    fn4 1601   2.071   1.434   3.700  0.1434 -0.9148  0.1281
  208ntf    on5 1602   2.259   1.566   3.489 -0.0650  1.5337  0.3419
  208ntf    on5 1603   2.042   1.604   3.377 -0.5447  0.2711  0.4328
  208ntf    on5 1604   2.244   1.875   3.661  0.0409  0.3778 -0.0310
  208ntf    on5 1605   2.219   1.678   3.808  0.1121  0.2928 -0.0321
  208ntf    fn4 1606   2.091   1.905   3.914 -0.4160 -0.3982 -0.4100
  208ntf    fn4 1607   1.961   1.928   3.744  0.3853  0.4196  0.4427
  208ntf    fn4 1608   1.953   1.751   3.867 -0.7271  0.1459  0.2994
  209ntf    cn1 1609   0.668   1.724   0.825  0.1911  0.5174 -0.3060
  209ntf    sn2 1610   0.569   1.707   0.674 -0.1659  0.2346 -0.0443
  209ntf    nn3 1611   0.638   1.579   0.615 -0.3390  0.0598  0.1346
  209ntf    sn2 1612   0.582   1.440   0.567 -0.2807  0.0411  0.1216
  209ntf    cn1 1613   0.610   1.336   0.713 -0.2199 -0.2537 -0.0985
  209ntf    fn4 1614   0.629   1.830   0.894 -0.4668 -0.1341  0.3391
  209ntf    fn4 1615   0.655   1.607   0.886  0.7266  0.4776 -0.2573
  209ntf    fn4 1616   0.799   1.740   0.812  0.2263  0.4444 -0.0544
  209ntf    on5 1617   0.435   1.700   0.724 -0.2345  0.9261 -0.1138
  209ntf    on5 1618   0.600   1.831   0.606 -0.0073  0.2292  0.0169
  209ntf    on5 1619   0.673   1.374   0.475 -0.4599  0.5324 -0.4162
  209ntf    on5 1620   0.445   1.420   0.528 -0.1017 -0.4627 -0.2690
  209ntf    fn4 1621   0.566   1.401   0.819  0.1054 -0.3083  0.0726
  209ntf    fn4 1622   0.553   1.218   0.696 -0.1564 -0.2930 -0.0425
  209ntf    fn4 1623   0.740   1.311   0.726 -0.2422 -0.3058  0.0242
  210ntf    cn1 1624   2.006   1.045   3.123 -0.0309  0.4597  0.1926
  210ntf    sn2 1625   2.095   0.895   3.175 -0.2480  0.2750  0.0362
  210ntf    nn3 1626   2.071   0.898   3.330 -0.5133  0.6847 -0.0077
  210ntf    sn2 1627   2.000   0.788   3.416 -0.0525  0.5127  0.1606
  210ntf    cn1 1628   1.993   0.891   3.566  0.0268  0.0520  0.4844
  210ntf    fn4 1629   2.036   1.086   3.001  0.3653 -0.1355  0.0848
  210ntf    fn4 1630   1.875   1.044   3.144  0.0091  0.1575  0.4304
  210ntf    fn4 1631   2.031   1.157   3.189 -0.6113  1.1696 -0.7510
  210ntf    on5 1632   2.022   0.790   3.108 -0.3253  0.2253  0.1963
  210ntf    on5 1633   2.229   0.918   3.128  0.0711 -0.8345  0.3893
  210ntf    on5 1634   2.088   0.681   3.455  0.0936  0.2319 -0.9275
  210ntf    on5 1635   1.859   0.766   3.394  0.0488  0.1206 -0.1035
  210ntf    fn4 1636   1.939   1.010   3.547  0.1225  0.0404  0.1347
  210ntf    fn4 1637   1.921   0.839   3.664  0.3812  0.2060  0.8270
  210ntf    fn4 1638   2.112   0.909   3.621 -0.0628 -0.0633  0.7181
  211ntf    cn1 1639   0.780   1.841   4.114 -0.2048  0.0936 -0.1221
  211ntf    sn2 1640   0.610   1.878   4.167 -0.1145 -0.1516  0.3443
  211ntf    nn3 1641   0.532   1.756   4.106  0.4463 -0.2081 -0.2780
  211ntf    sn2 1642   0.409   1.757   4.009  0.2125 -0.0275  0.0161
  211ntf    cn1 1643   0.282   1.779   4.137 -0.0377 -0.4513 -0.1583
  211ntf    fn4 1644   0.819   1.719   4.149 -0.3807 -0.0791 -0.5129
  211ntf    fn4 1645   0.805   1.852   3.984  0.0202  0.1251 -0.0772
  211ntf    fn4 1646   0.868   1.924   4.168 -0.3312  0.3329 -0.2830
  211ntf    on5 1647   0.617   1.872   4.311  0.0344 -0.4689  0.3250
  211ntf    on5 1648   0.582   2.004   4.103  0.3596 -0.3452 -0.2492
  211ntf    on5 1649   0.383   1.630   3.946 -0.3368 -0.2194  0.6229
  211ntf    on5 1650   0.395   1.871   3.920  0.6913  0.2429  0.2840
  211ntf    fn4 1651   0.165   1.740   4.089 -0.7174  0.1761  0.9650
  211ntf    fn4 1652   0.302   1.715   4.251 -0.0775  0.1701  0.2009
  211ntf    fn4 1653   0.276   1.905   4.178 -0.2119 -0.3339 -0.5316
  212ntf    cn1 1654   0.968   0.120   2.276  0.3787 -0.2411 -0.5405
  212ntf    sn2 1655   0.806   0.039   2.259  0.0822  0.2944 -0.2960
  212ntf    nn3 1656   0.759  -0.006   2.401 -0.2736 -0.2731 -0.5918
  212ntf    sn2 1657   0.757  -0.152   2.461  0.0335  0.0455  0.2092
  212ntf    cn1 1658   0.619  -0.130   2.577 -0.2124 -0.2291 -0.0291
  212ntf    fn4 1659   0.986   0.190   2.387 -0.9651 -0.2754 -0.2851
  212ntf    fn4 1660   1.068   0.033   2.277  0.4083 -0.2034 -0.3336
  212ntf    fn4 1661   0.984   0.203   2.173 -0.0652  0.1134 -0.3284
  212ntf    on5 1662   0.717   0.144   2.215  0.2426  0.6918  0.3103
  212ntf    on5 1663   0.831  -0.069   2.167  0.0814 -0.3520  0.4510
  212ntf    on5 1664   0.869  -0.173   2.550 -0.4347 -0.3906  0.7004
  212ntf    on5 1665   0.721  -0.256   2.369 -0.5397  0.4022  0.0266
  212ntf    fn4 1666   0.585  -0.238   2.646 -0.5975 -0.2925 -0.3148
  212ntf    fn4 1667   0.652  -0.037   2.665 -0.1697 -0.0752 -0.2066
  212ntf    fn4 1668   0.509  -0.087   2.518 -0.2281  0.1582  0.2763
  213ntf    cn1 1669   2.058   0.759   0.733 -0.5265 -0.1037 -0.0365
  213ntf    sn2 1670   2.044   0.939   0.709  0.1681 -0.0332  0.0663
  213ntf    nn3 1671   2.164   0.992   0.797  0.6377 -0.3533 -0.3774
  213ntf    sn2 1672   2.162   1.003   0.953  0.4798  0.3688 -0.4261
  213ntf    cn1 1673   2.085   1.164   0.986  0.1759  0.1405 -0.0044
  213ntf    fn4 1674   2.005   0.720   0.848  0.0973  0.0708  0.3180
  213ntf    fn4 1675   1.994   0.702   0.633  0.7406 -0.2089 -0.8064
  213ntf    fn4 1676   2.183   0.715   0.740 -0.5099 -0.0262  0.1865
  213ntf    on5 1677   2.076   0.963   0.571 -0.3373  0.1504 -0.0200
  213ntf    on5 1678   1.911   0.973   0.752 -0.1184 -0.6635 -0.3129
  213ntf    on5 1679   2.298   1.014   0.999  0.3485  0.1403  0.0305
  213ntf    on5 1680   2.081   0.902   1.018  0.1835  0.2855 -0.9233
  213ntf    fn4 1681   2.098   1.213   1.109  0.3810 -0.5008  0.2347
  213ntf    fn4 1682   2.126   1.258   0.902  0.5561 -0.3806 -0.4106
  213ntf    fn4 1683   1.955   1.164   0.964  0.0664  0.0502  0.6323
  214ntf    cn1 1684   0.389   1.085   2.498  0.3102 -0.0399 -0.0051
  214ntf    sn2 1685   0.518   0.975   2.433  0.1293  0.1019 -0.6081
  214ntf    nn3 1686   0.626   1.079   2.387  0.5986 -0.1785 -0.1422
  214ntf    sn2 1687   0.636   1.144   2.245  0.4655  0.1301 -0.0103
  214ntf    cn1 1688   0.769   1.038   2.182  0.0802 -0.1673 -0.3364
  214ntf    fn4 1689   0.343   1.156   2.396 -0.7384  0.2230  0.6411
  214ntf    fn4 1690   0.287   1.019   2.550  0.6012 -0.3352  0.1925
  214ntf    fn4 1691   0.422   1.172   2.592  0.3161  0.1962 -0.2235
  214ntf    on5 1692   0.549   0.898   2.551 -0.2351  0.5351 -0.2270
  214ntf    on5 1693   0.455   0.896   2.330 -0.1105 -0.2220 -0.2174
  214ntf    on5 1694   0.694   1.275   2.263 -0.4341  0.5295  0.0870
  214ntf    on5 1695   0.533   1.124   2.145  0.0208 -0.1189  0.4923
  214ntf    fn4 1696   0.744   0.909   2.173  0.1716 -0.2102  0.0158
  214ntf    fn4 1697   0.822   1.077   2.067  1.0974  0.5599  0.3577
  214ntf    fn4 1698   0.874   1.046   2.263  0.0266 -0.7601 -0.2044
  215ntf    cn1 1699   1.001   0.585   6.183  0.1733  0.2794 -0.1595
  215ntf    sn2 1700   1.153   0.490   6.153  0.2003  0.1462  0.3989
  215ntf    nn3 1701   1.222   0.504   6.294  0.6676 -0.2974  0.2169
  215ntf    sn2 1702   1.200   0.430   6.430  0.2288 -0.5826 -0.0080
  215ntf    cn1 1703   1.371   0.390   6.478  0.1856  0.1316  0.7653
  215ntf    fn4 1704   1.038   0.711   6.200  0.1604  0.1780  0.6731
  215ntf    fn4 1705   0.902   0.573   6.096  0.2253 -0.2025 -0.1551
  215ntf    fn4 1706   0.957   0.537   6.298 -0.1220  0.5972 -0.1389
  215ntf    on5 1707   1.114   0.355   6.119 -0.7561  0.4458  0.2870
  215ntf    on5 1708   1.226   0.552   6.046 -0.5223  0.2581 -0.0269
  215ntf    on5 1709   1.133   0.304   6.409  0.0258 -0.4634 -0.0788
  215ntf    on5 1710   1.155   0.514   6.538 -0.2468 -0.3554 -0.3807
  215ntf    fn4 1711   1.390   0.402   6.608 -1.0377  0.3698  0.9386
  215ntf    fn4 1712   1.400   0.264   6.450 -0.1301  0.2595 -0.1723
  215ntf    fn4 1713   1.459   0.469   6.419 -0.2463 -0.3145 -0.5197
  216ntf    cn1 1714   2.094   2.080   1.335 -0.4069 -0.3023  0.4436
  216ntf    sn2 1715   2.116   1.916   1.260 -0.2503 -0.0355 -0.1000
  216ntf    nn3 1716   2.054   1.931   1.117 -0.5818 -0.2745  0.0148
  216ntf    sn2 1717   2.128   1.935   0.978 -0.1714  0.1298  0.2421
  216ntf    cn1 1718   2.104   1.758   0.944 -0.2400  0.2689 -0.4597
  216ntf    fn4 1719   2.156   2.183   1.280  0.0111 -0.4800  0.5792
  216ntf    fn4 1720   1.966   2.115   1.343 -0.2133  0.5174  0.0685
  216ntf    fn4 1721   2.136   2.096   1.459  0.2702 -0.2489  0.2113
  216ntf    on5 1722   2.258   1.895   1.268 -0.1646  0.5067 -0.2109
  216ntf    on5 1723   2.030   1.842   1.350  0.2641 -0.0246  0.4028
  216ntf    on5 1724   2.270   1.957   0.974 -0.0459 -0.5733  0.8266
  216ntf    on5 1725   2.053   1.996   0.871  0.6226  0.2265 -0.2693
  216ntf    fn4 1726   2.186   1.693   1.026 -0.3816  0.2468 -0.3360
  216ntf    fn4 1727   1.980   1.722   0.969  0.0159 -0.2505  0.0851
  216ntf    fn4 1728   2.133   1.726   0.819  0.7873 -0.8432  0.0404
   2.28813   2.28813   6.39159
