Converted from moscito
 1944
    1SOL     ow    1   1.696   1.801   5.160 -0.0803 -0.1828 -0.4058
    1SOL     hw    2   1.624   1.738   5.162  0.9071 -1.3735 -0.7231
    1SOL     hw    3   1.771   1.751   5.126  0.8996  1.0079 -0.0934
    1SOL     vw    4   1.697   1.786   5.156 -0.0069  0.0172 -0.0443
    2SOL     ow    5   0.211   0.450   5.789 -0.0145  0.1152 -0.3127
    2SOL     hw    6   0.202   0.420   5.698 -0.3330 -1.5983  0.2462
    2SOL     hw    7   0.247   0.539   5.781  3.1684 -1.1511 -2.0827
    2SOL     vw    8   0.215   0.458   5.776 -0.0153  0.0309 -0.0088
    3SOL     ow    9   1.658   0.996   1.600 -0.3653 -0.8729  0.4871
    3SOL     hw   10   1.620   0.912   1.626  0.0026 -0.5596  2.1952
    3SOL     hw   11   1.623   1.059   1.663  1.3971 -0.2284  0.9046
    3SOL     vw   12   1.649   0.993   1.612  0.0323  0.0347 -0.0072
    4SOL     ow   13   1.934   2.037   5.157  0.5671  0.9068 -0.0677
    4SOL     hw   14   2.013   2.002   5.116  0.8193  1.3002  0.0770
    4SOL     hw   15   1.928   2.128   5.127 -1.1232  0.2372 -1.9665
    4SOL     vw   16   1.943   2.045   5.148 -0.0363 -0.0405  0.0360
    5SOL     ow   17   0.858   0.108   2.083  0.1702 -0.5485 -0.3787
    5SOL     hw   18   0.927   0.044   2.065 -0.5081 -1.9513  1.6995
    5SOL     hw   19   0.875   0.138   2.172 -0.7220  0.6379 -0.5863
    5SOL     vw   20   0.869   0.103   2.092  0.0588  0.0476 -0.0573
    6SOL     ow   21   1.047   1.722   6.080  0.4210  0.3411  0.1665
    6SOL     hw   22   0.963   1.752   6.044 -1.5067 -3.1851  1.1890
    6SOL     hw   23   1.078   1.795   6.134 -1.9653  1.8070 -0.2799
    6SOL     vw   24   1.040   1.736   6.082  0.0433  0.1101  0.0741
    7SOL     ow   25   0.385   1.155   4.248 -0.2130  0.0158 -0.6388
    7SOL     hw   26   0.390   1.130   4.341  1.1127 -1.0192 -0.9592
    7SOL     hw   27   0.306   1.209   4.242 -0.5776 -0.2791  1.0000
    7SOL     vw   28   0.375   1.159   4.260 -0.0229  0.0293 -0.0312
    8SOL     ow   29   1.061   1.814   2.538 -0.5195  0.0423  0.2890
    8SOL     hw   30   1.028   1.725   2.532 -1.5751  0.3650  0.9845
    8SOL     hw   31   0.999   1.859   2.596  0.9729  0.7700  1.3979
    8SOL     vw   32   1.049   1.808   2.545 -0.0265 -0.0142  0.0687
    9SOL     ow   33   0.588   1.341   1.916 -0.1551  0.3548 -0.0203
    9SOL     hw   34   0.634   1.348   2.000 -0.0784  2.6238 -0.1978
    9SOL     hw   35   0.503   1.382   1.932 -1.0796 -1.2963 -0.4590
    9SOL     vw   36   0.582   1.348   1.930 -0.0436 -0.1344  0.0566
   10SOL     ow   37   1.712   2.270   3.699 -0.0908 -1.1638 -0.1851
   10SOL     hw   38   1.676   2.206   3.760 -1.7369  0.3096  0.4761
   10SOL     hw   39   1.635   2.314   3.662  0.9665  0.5958 -0.4066
   10SOL     vw   40   1.697   2.267   3.702  0.0564  0.0683  0.0181
   11SOL     ow   41   1.271   0.261   1.348  0.0006  0.3899 -0.9395
   11SOL     hw   42   1.285   0.348   1.386 -0.4616  0.4649 -0.9403
   11SOL     hw   43   1.183   0.237   1.376 -0.8855  0.9937 -3.0214
   11SOL     vw   44   1.262   0.269   1.357  0.0255 -0.0263  0.0051
   12SOL     ow   45   1.806   0.973   2.494 -0.3739  0.0504  0.1424
   12SOL     hw   46   1.790   0.883   2.523  0.9443 -0.3605 -0.3496
   12SOL     hw   47   1.900   0.986   2.506 -0.1322  0.5615 -1.9507
   12SOL     vw   48   1.816   0.963   2.499 -0.0066  0.0561  0.0064
   13SOL     ow   49   0.702   0.698   0.362 -0.5907 -0.0015 -0.3608
   13SOL     hw   50   0.795   0.708   0.381 -0.4069  0.7188 -1.5671
   13SOL     hw   51   0.679   0.776   0.311 -1.9743  0.0756  0.3180
   13SOL     vw   52   0.711   0.710   0.358  0.0300  0.0005 -0.0624
   14SOL     ow   53   2.083   1.784   3.370 -0.8782 -0.8879  0.0589
   14SOL     hw   54   2.013   1.778   3.435 -2.4451 -0.1224 -1.4764
   14SOL     hw   55   2.062   1.864   3.320  2.6442  1.0048  1.2658
   14SOL     vw   56   2.071   1.794   3.372  0.0713 -0.0038 -0.0604
   15SOL     ow   57   0.963   0.638   4.976 -0.3987  0.2825  0.1601
   15SOL     hw   58   1.051   0.673   4.961  0.3642 -1.5499  0.0687
   15SOL     hw   59   0.962   0.616   5.070 -0.7915  0.3763  0.1796
   15SOL     vw   60   0.975   0.639   4.987 -0.0167 -0.0471 -0.0427
   16SOL     ow   61   0.960   2.066   4.846  0.7580  0.1871  0.0866
   16SOL     hw   62   0.958   2.161   4.846  1.0935  0.2051  1.0480
   16SOL     hw   63   1.049   2.044   4.817  1.6628  0.2534  2.5100
   16SOL     vw   64   0.972   2.075   4.842 -0.0364 -0.0278 -0.0510
   17SOL     ow   65   0.508   1.190   2.522 -0.1236 -0.0757 -0.5523
   17SOL     hw   66   0.601   1.210   2.511 -0.1256 -0.4323 -1.2274
   17SOL     hw   67   0.506   1.119   2.586  0.0409  0.2010 -0.2358
   17SOL     vw   68   0.520   1.183   2.529  0.0632 -0.0637 -0.0968
   18SOL     ow   69   1.982   1.829   6.358 -0.0639  0.0181 -0.1745
   18SOL     hw   70   2.070   1.867   6.369  0.0184  0.1594 -1.2009
   18SOL     hw   71   1.979   1.757   6.421  0.1775  1.0510  1.0343
   18SOL     vw   72   1.993   1.824   6.367 -0.0122 -0.0206 -0.0119
   19SOL     ow   73   1.200   0.267   0.785 -0.5907  0.5165 -0.4904
   19SOL     hw   74   1.219   0.349   0.740 -0.6104 -0.1247 -1.7024
   19SOL     hw   75   1.257   0.203   0.744 -0.7257 -0.1246  0.2981
   19SOL     vw   76   1.210   0.270   0.774  0.0400  0.0653 -0.1190
   20SOL     ow   77   0.544   1.476   1.619 -0.7953  0.1718 -0.0636
   20SOL     hw   78   0.462   1.439   1.586 -0.8207  0.2130 -0.0476
   20SOL     hw   79   0.547   1.565   1.582 -0.7511  0.1654 -0.0755
   20SOL     vw   80   0.533   1.483   1.610 -0.0089 -0.0392  0.0079
   21SOL     ow   81   1.575   1.029   3.100 -0.2103 -0.3204 -0.3462
   21SOL     hw   82   1.488   1.065   3.118 -1.2998 -3.7356  2.5524
   21SOL     hw   83   1.635   1.089   3.144 -1.9358 -1.5594  4.4218
   21SOL     vw   84   1.572   1.041   3.108  0.0032 -0.1685  0.0130
   22SOL     ow   85   0.320   0.354   0.763  0.5222 -0.0713  0.6197
   22SOL     hw   86   0.226   0.342   0.745  0.4088 -1.8080  2.0825
   22SOL     hw   87   0.364   0.299   0.699  0.4213 -0.9088  1.2503
   22SOL     vw   88   0.313   0.345   0.753 -0.0331 -0.0582  0.0072
   23SOL     ow   89   1.882   1.024   0.082  0.1261  0.0774 -0.7330
   23SOL     hw   90   1.834   1.105   0.067 -2.0535 -0.9170  0.4404
   23SOL     hw   91   1.830   0.957   0.038  0.8389 -0.9509 -0.0430
   23SOL     vw   92   1.869   1.026   0.074  0.0134 -0.0561  0.0442
   24SOL     ow   93   1.673   2.040   5.376  0.2861  0.4384 -0.0740
   24SOL     hw   94   1.673   2.134   5.357 -0.6277  0.4977  0.1917
   24SOL     hw   95   1.588   2.024   5.416  0.1543 -0.6325 -0.7677
   24SOL     vw   96   1.662   2.051   5.379  0.0036 -0.0250  0.0017
   25SOL     ow   97   0.192   2.258   2.916 -0.1134 -0.1257  0.5827
   25SOL     hw   98   0.164   2.167   2.904 -1.7955  0.5271 -0.9029
   25SOL     hw   99   0.195   2.269   3.011 -1.4270 -1.3078  0.8015
   25SOL     vw  100   0.189   2.247   2.927  0.0109 -0.0235 -0.0024
   26SOL     ow  101   1.912   0.881   5.727  1.0849 -0.3212  0.9965
   26SOL     hw  102   1.988   0.823   5.726  1.9463  0.7461 -0.4685
   26SOL     hw  103   1.940   0.957   5.778  0.8401 -0.1333  0.8584
   26SOL     vw  104   1.926   0.883   5.734 -0.0018 -0.0761 -0.0277
   27SOL     ow  105   0.944   0.114   4.069  0.0234 -0.1158 -0.7126
   27SOL     hw  106   0.950   0.061   4.149 -1.2499  1.0748  0.2201
   27SOL     hw  107   0.905   0.196   4.098 -0.5748  0.3075 -2.5996
   27SOL     vw  108   0.940   0.118   4.083 -0.0824  0.0259  0.1209
   28SOL     ow  109   0.600   1.012   5.900  0.6016  0.5158 -0.1864
   28SOL     hw  110   0.575   1.053   5.983  2.2216  2.5331 -0.6098
   28SOL     hw  111   0.558   1.066   5.833 -0.7402 -1.1322 -0.7459
   28SOL     vw  112   0.591   1.025   5.902  0.0648  0.0148 -0.0172
   29SOL     ow  113   1.054   0.332   1.011 -0.1853  0.1047 -0.0092
   29SOL     hw  114   1.119   0.394   0.979 -0.7516  0.8865  0.3257
   29SOL     hw  115   1.013   0.376   1.086 -0.5482 -0.6997  0.2845
   29SOL     vw  116   1.057   0.346   1.017 -0.0383  0.1110  0.0774
   30SOL     ow  117   2.102   1.058   0.864 -0.5835  0.1955 -0.1349
   30SOL     hw  118   2.163   1.132   0.859  0.4997 -0.6932 -0.3158
   30SOL     hw  119   2.125   1.013   0.946 -2.3219  0.9465  0.8421
   30SOL     vw  120   2.113   1.062   0.874 -0.0156 -0.0439 -0.0553
   31SOL     ow  121   1.134   2.021   2.294  0.5184  0.5609  0.1459
   31SOL     hw  122   1.096   2.096   2.340  2.2506  1.1649  0.6944
   31SOL     hw  123   1.128   2.043   2.201  0.7511  1.2532  0.2910
   31SOL     vw  124   1.128   2.034   2.288  0.0163  0.1529 -0.0944
   32SOL     ow  125   0.650   1.913   4.408 -0.2124 -0.2093 -0.2628
   32SOL     hw  126   0.720   1.934   4.469 -0.1154  1.6087 -0.9193
   32SOL     hw  127   0.695   1.892   4.326 -0.3987  0.1765 -0.4684
   32SOL     vw  128   0.665   1.913   4.405  0.0095  0.0080  0.0052
   33SOL     ow  129   1.964   1.497   3.843  0.1221  0.1027 -0.1210
   33SOL     hw  130   1.913   1.563   3.796 -2.4303 -1.2833  0.4903
   33SOL     hw  131   2.011   1.546   3.911  1.3132  1.6954 -1.9829
   33SOL     vw  132   1.964   1.512   3.846  0.0097 -0.0436  0.0311
   34SOL     ow  133   1.388   1.056   5.218  0.1141 -0.4573  0.2855
   34SOL     hw  134   1.393   0.999   5.141 -0.5350 -0.1234 -0.0031
   34SOL     hw  135   1.319   1.018   5.272 -0.2259 -0.0231  0.1575
   34SOL     vw  136   1.380   1.043   5.215  0.0171  0.0278  0.0105
   35SOL     ow  137   2.224   0.123   3.550  0.0671  0.1009 -0.1608
   35SOL     hw  138   2.162   0.103   3.480  0.1023 -0.3616 -0.0609
   35SOL     hw  139   2.310   0.114   3.509  0.0702  1.5844 -0.5308
   35SOL     vw  140   2.227   0.119   3.536 -0.0108 -0.0552  0.0499
   36SOL     ow  141   1.986   0.996   4.145  0.2942  0.0795 -0.2077
   36SOL     hw  142   1.983   1.076   4.092  1.7014  0.3961  0.1491
   36SOL     hw  143   2.014   0.928   4.084  0.9039  0.2360 -0.1058
   36SOL     vw  144   1.989   0.998   4.130 -0.0200  0.0141  0.0114
   37SOL     ow  145   2.234   1.907   6.387 -0.0661 -0.2125  0.3433
   37SOL     hw  146   2.289   1.959   6.329 -0.2373 -0.1579  0.2281
   37SOL     hw  147   2.275   1.916   6.473  0.9840 -1.4213 -0.0124
   37SOL     vw  148   2.246   1.915   6.391  0.0129 -0.0214 -0.0348
   38SOL     ow  149   0.348   2.032   5.492  0.0873  0.5438  0.2424
   38SOL     hw  150   0.317   2.023   5.402 -2.5849 -0.5441  1.1819
   38SOL     hw  151   0.442   2.049   5.483  0.0099 -0.0590 -2.7186
   38SOL     vw  152   0.357   2.033   5.479 -0.0784 -0.0811  0.0360
   39SOL     ow  153   1.342   2.107   5.983  0.1562 -0.2910 -0.2209
   39SOL     hw  154   1.254   2.126   5.950  0.2895  0.1830 -0.3162
   39SOL     hw  155   1.328   2.076   6.073 -0.0501  0.7381  0.1195
   39SOL     vw  156   1.329   2.106   5.991  0.0340  0.0007 -0.0267
   40SOL     ow  157   1.070   0.278   3.857 -0.2792  0.2666 -0.1439
   40SOL     hw  158   1.133   0.271   3.785  0.4807 -0.0948  0.5537
   40SOL     hw  159   1.123   0.295   3.934 -0.9486 -0.8707  0.5947
   40SOL     vw  160   1.085   0.279   3.858 -0.0167  0.0246  0.0054
   41SOL     ow  161   0.445   2.261   2.793  0.3415  0.1717 -0.4571
   41SOL     hw  162   0.506   2.188   2.777  0.6836  0.1479  0.8627
   41SOL     hw  163   0.471   2.295   2.879  0.0820  1.7574 -0.9809
   41SOL     vw  164   0.457   2.256   2.802  0.0177  0.0074 -0.0279
   42SOL     ow  165   0.855   0.695   2.178  0.7710 -0.5867 -0.4558
   42SOL     hw  166   0.936   0.692   2.228  0.0475  0.4772  0.8389
   42SOL     hw  167   0.787   0.671   2.241  0.1152 -2.1444 -1.6886
   42SOL     vw  168   0.856   0.691   2.193 -0.0163 -0.1305 -0.0299
   43SOL     ow  169   1.172   1.230   5.291 -0.1216 -0.0052 -0.0594
   43SOL     hw  170   1.104   1.286   5.254 -1.3823 -0.9189  0.7821
   43SOL     hw  171   1.126   1.148   5.312  1.6284 -1.3458 -1.1635
   43SOL     vw  172   1.157   1.226   5.289  0.0684  0.0590  0.0319
   44SOL     ow  173   1.172   0.036   0.955  0.0770  0.1428 -0.5612
   44SOL     hw  174   1.244   0.008   0.899 -0.0029  0.4908 -0.8372
   44SOL     hw  175   1.189  -0.007   1.039  0.9598  0.7509 -0.4230
   44SOL     vw  176   1.184   0.027   0.959  0.0249 -0.1051  0.0850
   45SOL     ow  177   2.148   0.823   0.650 -0.1801  0.5989 -0.4882
   45SOL     hw  178   2.141   0.753   0.584 -1.0352  0.2446 -0.0359
   45SOL     hw  179   2.236   0.813   0.686  0.0284  0.3239 -1.0605
   45SOL     vw  180   2.159   0.812   0.646 -0.0757 -0.0353  0.1173
   46SOL     ow  181   0.521   1.623   6.274  0.6466 -0.7000  0.2077
   46SOL     hw  182   0.448   1.561   6.266 -1.0098  1.1398  0.3242
   46SOL     hw  183   0.498   1.695   6.216  1.4359  0.8041  1.6664
   46SOL     vw  184   0.508   1.624   6.265  0.0006 -0.0014  0.0224
   47SOL     ow  185   0.990   0.964   3.978  0.1825  0.5441  0.0800
   47SOL     hw  186   0.947   0.893   4.025  1.1503  0.6343  1.1351
   47SOL     hw  187   1.047   1.005   4.043  1.1125  1.0492 -1.0277
   47SOL     vw  188   0.991   0.960   3.993 -0.0168 -0.0020 -0.0613
   48SOL     ow  189   0.824   1.890   5.036  0.1870  0.3830 -0.7122
   48SOL     hw  190   0.900   1.857   5.084 -0.3940 -1.4155 -0.9696
   48SOL     hw  191   0.771   1.933   5.103 -1.1105 -2.9621  0.6143
   48SOL     vw  192   0.827   1.892   5.051 -0.0170 -0.1433 -0.0157
   49SOL     ow  193   2.283   0.161   4.473 -0.3848 -0.6091 -0.4608
   49SOL     hw  194   2.341   0.234   4.495  1.3427 -1.9741 -0.3054
   49SOL     hw  195   2.292   0.100   4.546 -3.2350 -0.2278  0.3267
   49SOL     vw  196   2.292   0.163   4.485 -0.0767  0.0046  0.0348
   50SOL     ow  197   1.708   1.781   4.413 -0.2027  0.6492 -0.7012
   50SOL     hw  198   1.740   1.697   4.445  0.7092 -0.0298 -3.1805
   50SOL     hw  199   1.784   1.822   4.372 -0.9636  2.0832 -0.7356
   50SOL     vw  200   1.722   1.775   4.412 -0.0002  0.0353  0.0341
   51SOL     ow  201   2.196   1.326   2.100  0.0075 -0.4491  0.0580
   51SOL     hw  202   2.241   1.398   2.144 -0.7858  0.6675 -0.8877
   51SOL     hw  203   2.217   1.249   2.152  0.3949  0.5627  1.4509
   51SOL     vw  204   2.205   1.325   2.113 -0.0193  0.0353  0.0142
   52SOL     ow  205   0.313   0.249   5.958  0.3327 -0.3295  0.1630
   52SOL     hw  206   0.355   0.209   5.882  0.4945  1.3060 -0.6606
   52SOL     hw  207   0.384   0.262   6.021  0.3679 -0.8566  0.2353
   52SOL     vw  208   0.328   0.246   5.956  0.0528 -0.0479  0.0229
   53SOL     ow  209   0.992   0.213   4.908  0.2630 -0.1819  0.0273
   53SOL     hw  210   0.950   0.169   4.834  1.4176  0.7114 -1.2016
   53SOL     hw  211   0.936   0.193   4.982 -1.2918 -0.5860 -1.1970
   53SOL     vw  212   0.979   0.205   4.908 -0.0167  0.0211 -0.0687
   54SOL     ow  213   0.006   0.891   3.224 -0.0385  0.4839  0.1750
   54SOL     hw  214   0.080   0.931   3.268 -2.0570  2.4595  2.0201
   54SOL     hw  215  -0.050   0.964   3.199 -1.8811 -0.9546 -0.1567
   54SOL     vw  216   0.008   0.906   3.226 -0.0591  0.0102  0.0474
   55SOL     ow  217   2.081   0.516   2.580  0.8449  0.1840  0.5565
   55SOL     hw  218   2.160   0.567   2.557  2.0304 -2.1400 -0.9644
   55SOL     hw  219   2.098   0.485   2.669  2.1080 -0.9585 -0.0360
   55SOL     vw  220   2.094   0.519   2.588 -0.0074  0.0428  0.0117
   56SOL     ow  221   1.824   0.672   5.944 -0.0342 -0.4628 -0.0362
   56SOL     hw  222   1.912   0.666   5.982  0.1682 -1.2715 -0.6107
   56SOL     hw  223   1.776   0.600   5.983 -0.6276  0.3218  0.7135
   56SOL     vw  224   1.830   0.662   5.954 -0.0364  0.1167  0.0250
   57SOL     ow  225   0.657   2.030   4.803  0.2449 -0.5336  0.2230
   57SOL     hw  226   0.582   1.974   4.822 -1.9829  1.5424 -1.7730
   57SOL     hw  227   0.622   2.119   4.809  3.2474  0.6877  1.7741
   57SOL     vw  228   0.642   2.034   4.806 -0.0263 -0.0396 -0.0215
   58SOL     ow  229   0.036   1.614   3.265 -0.3787  0.6235  0.0227
   58SOL     hw  230   0.122   1.624   3.223  1.1828 -0.0010  2.8253
   58SOL     hw  231   0.006   1.527   3.237 -0.4657  1.1024 -1.4861
   58SOL     vw  232   0.043   1.604   3.256  0.0132 -0.0415 -0.0014
   59SOL     ow  233   0.090   0.670   4.927  0.5045  0.2505 -0.1786
   59SOL     hw  234   0.174   0.716   4.926  0.1341  0.9638 -2.4882
   59SOL     hw  235   0.080   0.642   5.018  2.5625  1.3752  0.4619
   59SOL     vw  236   0.100   0.672   4.939 -0.0452  0.0049  0.0024
   60SOL     ow  237   1.661   1.099   4.112 -0.2921 -0.4353 -0.1587
   60SOL     hw  238   1.565   1.094   4.110 -0.3075 -0.0795 -0.4166
   60SOL     hw  239   1.689   1.011   4.134 -0.6936 -0.4464  0.3310
   60SOL     vw  240   1.652   1.087   4.115  0.0122  0.0392  0.1090
   61SOL     ow  241   1.862   0.108   2.255  0.7539  0.3890  0.7652
   61SOL     hw  242   1.872   0.170   2.328  0.5111  0.4609  0.7386
   61SOL     hw  243   1.851   0.164   2.178  2.0413  0.3262  0.5111
   61SOL     vw  244   1.862   0.124   2.255 -0.0452  0.0064  0.0585
   62SOL     ow  245   1.681   2.077   4.463  0.2019 -0.1878 -0.0356
   62SOL     hw  246   1.652   2.167   4.448  2.1865  0.4571 -0.3328
   62SOL     hw  247   1.718   2.078   4.551 -1.2594 -1.1506  0.6094
   62SOL     vw  248   1.682   2.089   4.473  0.0064 -0.1040 -0.0393
   63SOL     ow  249   1.251   0.005   4.891  0.2129 -1.0176  0.0007
   63SOL     hw  250   1.314  -0.005   4.820  1.8531  0.8204  1.0576
   63SOL     hw  251   1.254  -0.078   4.938  0.7872 -1.4573 -0.7970
   63SOL     vw  252   1.260  -0.007   4.888  0.0625 -0.0811  0.0136
   64SOL     ow  253   0.487   1.868   4.160  0.5172 -0.2290 -0.1789
   64SOL     hw  254   0.421   1.815   4.114  0.1658  0.8499 -0.9738
   64SOL     hw  255   0.550   1.891   4.092  1.2676 -0.5310  0.3989
   64SOL     vw  256   0.486   1.864   4.145  0.0328 -0.0352  0.0772
   65SOL     ow  257   1.548   2.068   2.858 -0.0219  0.1065 -0.1503
   65SOL     hw  258   1.552   2.046   2.765  1.5699 -1.6635  0.2750
   65SOL     hw  259   1.620   2.019   2.898  2.1743  4.0819  1.3900
   65SOL     vw  260   1.558   2.059   2.851 -0.0122 -0.0607 -0.0696
   66SOL     ow  261   1.637   1.289   2.415  0.3232 -0.3608 -0.2713
   66SOL     hw  262   1.598   1.307   2.329  1.1344  1.5347 -0.3051
   66SOL     hw  263   1.643   1.376   2.456  1.1812 -1.0691  1.1562
   66SOL     vw  264   1.632   1.303   2.409  0.0009 -0.0879 -0.0161
   67SOL     ow  265   0.846   0.441   3.409 -0.2334  0.7780 -0.0069
   67SOL     hw  266   0.868   0.480   3.494  2.5527  0.5251 -0.5084
   67SOL     hw  267   0.905   0.366   3.402 -2.2349 -0.7682 -1.0990
   67SOL     vw  268   0.857   0.436   3.420  0.0158 -0.0006  0.0095
   68SOL     ow  269   2.104   0.772   4.292 -0.0100  0.0110 -0.5241
   68SOL     hw  270   2.075   0.704   4.231  2.1828 -0.3112 -1.2775
   68SOL     hw  271   2.199   0.766   4.293  0.1810  2.0392  0.6051
   68SOL     vw  272   2.112   0.763   4.284 -0.0175  0.0328 -0.0303
   69SOL     ow  273   1.601   1.966   5.917 -0.0368  0.1146  0.4418
   69SOL     hw  274   1.620   1.939   6.007 -0.5042  0.8123  0.7680
   69SOL     hw  275   1.641   1.899   5.862  3.4300  1.4765  1.0364
   69SOL     vw  276   1.609   1.954   5.922 -0.0325  0.0163 -0.0410
   70SOL     ow  277   0.561   0.023   2.002  0.7385  0.6205 -0.6919
   70SOL     hw  278   0.472   0.055   1.985  1.0796  2.8888  1.3165
   70SOL     hw  279   0.552  -0.036   2.076  1.1326  3.0361  1.4179
   70SOL     vw  280   0.548   0.020   2.009  0.0239 -0.0400 -0.0492
   71SOL     ow  281   0.008   1.149   5.232 -0.3119 -0.0896 -0.5754
   71SOL     hw  282  -0.044   1.110   5.161  1.1706 -0.1017 -1.7084
   71SOL     hw  283   0.034   1.074   5.286  0.3221 -0.3521 -1.2367
   71SOL     vw  284   0.004   1.134   5.230  0.0442 -0.0332 -0.0319
   72SOL     ow  285   2.027   0.540   4.151 -0.3792  0.3381  0.1149
   72SOL     hw  286   1.958   0.500   4.204  0.0207 -2.2437 -1.1284
   72SOL     hw  287   1.993   0.534   4.061  1.3207 -0.8483 -0.5038
   72SOL     vw  288   2.013   0.534   4.146 -0.0253  0.0849  0.0131
   73SOL     ow  289   1.311   1.874   1.617  0.1658 -0.2047 -0.1101
   73SOL     hw  290   1.291   1.965   1.634  0.9465  0.3678 -1.9710
   73SOL     hw  291   1.354   1.843   1.696 -1.3617  0.6068  1.0878
   73SOL     vw  292   1.314   1.882   1.629 -0.0266  0.0152  0.0172
   74SOL     ow  293   2.286   0.033   4.170  0.1116  0.3095  0.1306
   74SOL     hw  294   2.319   0.013   4.082 -1.8443  0.3179 -0.6379
   74SOL     hw  295   2.289  -0.051   4.215 -0.4726 -0.0560 -0.4965
   74SOL     vw  296   2.291   0.019   4.164 -0.0342  0.0030 -0.0010
   75SOL     ow  297   1.134   1.701   2.295 -0.0037 -0.2607  0.0716
   75SOL     hw  298   1.075   1.633   2.263  1.1220 -1.0130 -0.4769
   75SOL     hw  299   1.198   1.653   2.349 -0.6672  0.7109  1.8063
   75SOL     vw  300   1.135   1.686   2.298  0.0060 -0.1722 -0.1204
   76SOL     ow  301   1.416   1.633   1.490 -0.0543  0.2988  1.0230
   76SOL     hw  302   1.432   1.580   1.568 -0.7350  0.9286  1.6067
   76SOL     hw  303   1.402   1.570   1.420  1.7356 -0.2778  1.1495
   76SOL     vw  304   1.416   1.618   1.491  0.0911 -0.1265  0.0082
   77SOL     ow  305   0.566   0.473   3.311  0.4170 -0.5034  0.9138
   77SOL     hw  306   0.482   0.427   3.323  1.3806 -2.3862  0.7540
   77SOL     hw  307   0.546   0.564   3.332 -2.3754 -0.2782 -1.9938
   77SOL     vw  308   0.552   0.479   3.316 -0.0412 -0.0776  0.0634
   78SOL     ow  309   0.969   1.583   3.301  0.6263 -0.2415  0.2983
   78SOL     hw  310   0.964   1.493   3.269  0.6920 -0.3269  0.5270
   78SOL     hw  311   0.919   1.582   3.383  1.2134 -0.2352  0.6605
   78SOL     vw  312   0.962   1.571   3.307  0.0158 -0.0123  0.0212
   79SOL     ow  313   1.505   0.759   2.940  0.6996 -0.0299 -0.2118
   79SOL     hw  314   1.520   0.670   2.908  1.8467  0.2941 -0.6268
   79SOL     hw  315   1.417   0.781   2.911  0.0387 -1.3615  0.6875
   79SOL     vw  316   1.495   0.750   2.932 -0.0011  0.0207  0.0606
   80SOL     ow  317   0.940   0.078   0.810  0.1540  0.0184 -0.3287
   80SOL     hw  318   0.940   0.055   0.717  2.1163 -2.2039  0.1289
   80SOL     hw  319   0.889   0.008   0.851  1.4917 -0.4946  0.5162
   80SOL     vw  320   0.933   0.066   0.803  0.0423  0.0052  0.0686
   81SOL     ow  321   0.785   2.171   0.915  0.3692 -0.3055 -0.3238
   81SOL     hw  322   0.706   2.200   0.869 -0.5631  0.8106  1.8110
   81SOL     hw  323   0.755   2.151   1.004  2.5951  0.9860  0.8096
   81SOL     vw  324   0.770   2.173   0.921  0.0228  0.0118  0.0037
   82SOL     ow  325   1.989   1.457   1.194  0.4412  0.1877 -0.1130
   82SOL     hw  326   1.909   1.414   1.164 -0.0943  1.1061 -0.0377
   82SOL     hw  327   1.973   1.473   1.288  0.4387  0.9428 -0.2339
   82SOL     vw  328   1.976   1.453   1.203 -0.0664 -0.0208 -0.0073
   83SOL     ow  329   1.397   2.036   5.710 -0.5783 -0.4141 -0.2127
   83SOL     hw  330   1.412   2.018   5.617 -0.8678  0.1713 -0.3781
   83SOL     hw  331   1.341   1.964   5.739  1.5261 -1.9913  0.1382
   83SOL     vw  332   1.391   2.025   5.701  0.0395  0.0393 -0.1047
   84SOL     ow  333   1.008   1.637   0.584  0.4961 -0.0018 -0.9253
   84SOL     hw  334   1.036   1.611   0.496  1.5981 -1.7975 -0.0924
   84SOL     hw  335   1.077   1.605   0.642 -0.6467  0.3367  0.6894
   84SOL     vw  336   1.021   1.629   0.580 -0.0358 -0.0519  0.0108
   85SOL     ow  337   1.858   0.293   2.472 -0.1643 -0.5296 -0.0871
   85SOL     hw  338   1.849   0.221   2.534  0.3729  0.5356  1.2787
   85SOL     hw  339   1.769   0.322   2.456 -0.5272 -2.3315 -1.7459
   85SOL     vw  340   1.845   0.287   2.478  0.0163  0.0388  0.0803
   86SOL     ow  341   1.570   0.083   1.748  0.1061 -0.4561  0.1520
   86SOL     hw  342   1.602   0.168   1.778  0.2583  0.9572 -3.5201
   86SOL     hw  343   1.479   0.081   1.778 -0.2270  1.5385 -0.5336
   86SOL     vw  344   1.562   0.094   1.756 -0.0278 -0.0685 -0.0826
   87SOL     ow  345   1.282   2.046   3.031 -1.1864 -0.0124  0.4216
   87SOL     hw  346   1.244   2.079   3.113 -1.7396  2.4713 -0.7433
   87SOL     hw  347   1.217   1.983   2.998 -1.1601 -0.7140  1.6472
   87SOL     vw  348   1.268   2.042   3.038 -0.1538 -0.0672  0.0134
   88SOL     ow  349   1.559   0.092   1.472 -0.4737 -0.2304 -0.0765
   88SOL     hw  350   1.551   0.088   1.567  0.3648  2.2560  0.1694
   88SOL     hw  351   1.649   0.065   1.453 -0.7594 -1.1131 -0.2315
   88SOL     vw  352   1.570   0.088   1.482  0.0336 -0.0155  0.0334
   89SOL     ow  353   1.881   1.232   4.019  0.4374  0.6166  0.2679
   89SOL     hw  354   1.810   1.186   4.064  1.1273 -0.8979 -0.1693
   89SOL     hw  355   1.914   1.294   4.085  1.2559 -1.3603  1.8177
   89SOL     vw  356   1.876   1.234   4.034 -0.0113 -0.0561  0.0772
   90SOL     ow  357   2.223   1.462   5.217 -0.5658 -0.4306  0.0580
   90SOL     hw  358   2.174   1.471   5.135 -0.9866  0.1941  0.3716
   90SOL     hw  359   2.156   1.455   5.284 -0.3061  2.1259  0.6864
   90SOL     vw  360   2.208   1.462   5.215  0.0412 -0.0207 -0.0737
   91SOL     ow  361   0.018   0.192   1.437 -0.0869  0.1975 -0.0842
   91SOL     hw  362  -0.030   0.275   1.441 -0.3164  0.0244  1.2512
   91SOL     hw  363  -0.050   0.125   1.448  0.2799 -0.1031  0.3799
   91SOL     vw  364   0.002   0.194   1.439 -0.0150 -0.0410 -0.0465
   92SOL     ow  365   2.133   1.479   1.824 -0.3397 -0.4402 -0.0881
   92SOL     hw  366   2.091   1.553   1.866 -1.4543 -0.0829 -1.7211
   92SOL     hw  367   2.212   1.516   1.784 -0.7098 -0.1796 -0.5982
   92SOL     vw  368   2.138   1.493   1.824 -0.0149  0.0538 -0.0806
   93SOL     ow  369   0.971   0.991   3.625  0.0556  0.1614  0.6969
   93SOL     hw  370   0.901   1.054   3.609 -0.3610 -0.8408 -1.8508
   93SOL     hw  371   1.042   1.019   3.567 -0.3564 -1.9565 -0.9469
   93SOL     vw  372   0.971   1.003   3.616 -0.0219 -0.0935 -0.0919
   94SOL     ow  373   1.183   0.942   5.395  0.4745  0.0321  0.4586
   94SOL     hw  374   1.158   0.851   5.408  1.3123 -0.1771  0.6858
   94SOL     hw  375   1.212   0.971   5.482  0.0344  0.5728  0.4301
   94SOL     vw  376   1.184   0.934   5.408 -0.0022  0.0723 -0.0167
   95SOL     ow  377   0.765   0.840   4.869 -0.5646 -0.7262  0.1094
   95SOL     hw  378   0.795   0.867   4.782 -1.1060 -2.9453 -0.8335
   95SOL     hw  379   0.680   0.882   4.879 -1.5836 -2.2682 -1.4902
   95SOL     vw  380   0.758   0.849   4.859  0.0170 -0.0550 -0.0546
   96SOL     ow  381   0.214   2.264   5.747  0.2153  0.0552  0.6868
   96SOL     hw  382   0.290   2.320   5.764  1.4828 -1.6706  0.8945
   96SOL     hw  383   0.177   2.245   5.833  1.0886 -1.1515  0.8162
   96SOL     vw  384   0.219   2.269   5.760  0.0893 -0.1076 -0.1178
   97SOL     ow  385   1.043   2.254   2.425 -0.1544 -1.2632  0.3122
   97SOL     hw  386   0.992   2.225   2.501  0.6820  0.1536  1.4633
   97SOL     hw  387   1.108   2.314   2.461 -0.6130  0.5605 -1.6871
   97SOL     vw  388   1.045   2.258   2.440  0.0004  0.0144 -0.0077
   98SOL     ow  389   2.274   1.200   1.859 -0.6458 -0.0410  0.3616
   98SOL     hw  390   2.315   1.214   1.774 -2.2995 -1.1721 -0.6864
   98SOL     hw  391   2.331   1.138   1.903  0.6837  1.1977  0.4700
   98SOL     vw  392   2.287   1.194   1.853 -0.0704 -0.0252 -0.0032
   99SOL     ow  393   2.097   0.279   4.266  0.5359 -0.2823 -0.0775
   99SOL     hw  394   2.009   0.248   4.285  0.6043 -1.3501 -1.3884
   99SOL     hw  395   2.084   0.363   4.221  0.2401  0.0496  0.6143
   99SOL     vw  396   2.084   0.286   4.263 -0.1078  0.0236  0.0226
  100SOL     ow  397   1.642   1.255   1.404  0.0962 -0.9675 -0.0799
  100SOL     hw  398   1.597   1.316   1.346  1.4255  0.9121  0.7738
  100SOL     hw  399   1.731   1.289   1.411  0.9652 -3.1282  0.3053
  100SOL     vw  400   1.648   1.268   1.397 -0.0044 -0.0232  0.0527
  101SOL     ow  401   0.774   1.844   0.602 -0.9914  0.2480 -0.7211
  101SOL     hw  402   0.766   1.929   0.558  0.6173  0.9226  0.2073
  101SOL     hw  403   0.689   1.832   0.645 -0.9182  1.8914 -0.0335
  101SOL     vw  404   0.762   1.853   0.602  0.0004 -0.0404 -0.0219
  102SOL     ow  405   1.332   0.601   0.127  0.4146  0.6162 -0.1094
  102SOL     hw  406   1.327   0.693   0.104  1.4572  0.5904 -0.4791
  102SOL     hw  407   1.389   0.598   0.203 -1.9798  0.5623  1.7952
  102SOL     vw  408   1.339   0.613   0.134 -0.0148  0.0365  0.0233
  103SOL     ow  409   1.733   1.858   6.137  1.0089  0.3029 -0.0162
  103SOL     hw  410   1.672   1.848   6.210  2.6987  0.2465  1.4647
  103SOL     hw  411   1.749   1.953   6.132  0.9707  0.2978 -0.2566
  103SOL     vw  412   1.727   1.869   6.146  0.0097  0.0036  0.0496
  104SOL     ow  413   0.438   0.542   1.010  0.0376 -0.5449 -0.0203
  104SOL     hw  414   0.381   0.522   1.084 -1.1356  1.8459 -0.2136
  104SOL     hw  415   0.411   0.629   0.981  2.0059 -0.4638 -1.8329
  104SOL     vw  416   0.427   0.551   1.016 -0.0213 -0.0138 -0.0785
  105SOL     ow  417   2.177   0.619   3.078  0.2235 -0.0739  0.8725
  105SOL     hw  418   2.170   0.570   2.996 -3.4016 -0.7836  1.4125
  105SOL     hw  419   2.165   0.553   3.147  1.0861  0.8098  1.9095
  105SOL     vw  420   2.174   0.604   3.076 -0.0061  0.0603 -0.0085
  106SOL     ow  421   1.991   0.201   3.736  0.5814  0.4037  0.6209
  106SOL     hw  422   2.006   0.294   3.753  3.2290  0.4403 -1.2561
  106SOL     hw  423   2.076   0.169   3.705 -0.6850 -2.2600 -0.3554
  106SOL     vw  424   2.004   0.209   3.734 -0.0377 -0.0281 -0.0951
  107SOL     ow  425   0.912   0.185   2.321  0.0304 -0.5607 -0.4980
  107SOL     hw  426   0.945   0.264   2.363  2.4689 -1.7452 -0.0462
  107SOL     hw  427   0.953   0.113   2.369 -2.2672 -2.1578 -0.7631
  107SOL     vw  428   0.922   0.186   2.333  0.0451 -0.0096 -0.0039
  108SOL     ow  429   2.154   0.787   4.875 -0.2925 -0.3523  0.2756
  108SOL     hw  430   2.168   0.868   4.924  0.8228  0.9377 -2.0188
  108SOL     hw  431   2.239   0.742   4.877  0.1148  0.2723 -1.3267
  108SOL     vw  432   2.167   0.791   4.882 -0.0541 -0.0457  0.0122
  109poe    c31  433   0.775   2.300   5.037  0.4037  0.1725 -0.0795
  109poe     o2  434   0.816   2.429   5.078 -0.6160  0.5266 -0.1360
  109poe    c23  435   0.881   2.422   5.203 -0.1177 -0.1946 -0.4246
  109poe    c23  436   1.020   2.357   5.200 -0.2064 -0.4276  0.2458
  109poe     o2  437   1.100   2.457   5.140  0.1562 -0.4995  0.6079
  109poe    c23  438   1.211   2.502   5.215 -0.0144  0.6073  0.2013
  109poe    c23  439   1.257   2.636   5.153 -0.5870  0.5365 -0.3881
  109poe     o2  440   1.271   2.606   5.016  0.0401 -0.4074 -0.1365
  109poe    c23  441   1.287   2.727   4.944  0.4017 -0.5494 -0.2943
  109poe    c23  442   1.330   2.672   4.807  0.4237 -0.3453 -0.3693
  109poe     o2  443   1.246   2.570   4.758 -0.2876  0.1314 -0.1657
  109poe    c31  444   1.278   2.553   4.622 -0.5358 -0.2616 -0.1774
  110poe    c31  445   0.251   1.901   2.963  0.3598 -0.3157 -0.1983
  110poe     o2  446   0.192   1.990   2.871  0.3507 -0.1968 -0.0766
  110poe    c23  447   0.239   1.952   2.744  0.1302 -0.0145 -0.2134
  110poe    c23  448   0.190   2.044   2.630 -0.1055  0.2936  0.1329
  110poe     o2  449   0.246   2.173   2.622 -0.2273  0.3372 -0.0023
  110poe    c23  450   0.202   2.235   2.503  0.0705  0.3203 -0.1222
  110poe    c23  451   0.265   2.374   2.484 -0.1193  0.3806 -0.3212
  110poe     o2  452   0.256   2.433   2.612  0.2803 -0.6265  0.1752
  110poe    c23  453   0.339   2.547   2.618  0.3210 -0.6383 -0.1771
  110poe    c23  454   0.301   2.618   2.749 -0.4047 -0.4929 -0.4563
  110poe     o2  455   0.337   2.545   2.865  0.2820  0.1943 -0.2237
  110poe    c31  456   0.446   2.593   2.939 -0.5474  0.0475  1.1265
  111poe    c31  457   1.584   0.036   2.499  0.4965 -0.3951 -0.3033
  111poe     o2  458   1.615   0.014   2.363  0.2545 -0.3622 -0.3635
  111poe    c23  459   1.495   0.005   2.290 -0.1061 -0.2316  0.2067
  111poe    c23  460   1.537   0.035   2.145 -0.0459 -0.3626  0.1982
  111poe     o2  461   1.662  -0.029   2.128 -0.0374 -0.1651 -0.5479
  111poe    c23  462   1.655  -0.120   2.021 -0.0001 -0.4058 -0.3482
  111poe    c23  463   1.798  -0.177   2.027  0.2426  0.2740  0.5776
  111poe     o2  464   1.813  -0.214   2.162 -0.4005 -0.6308  0.4077
  111poe    c23  465   1.951  -0.220   2.189 -0.2902  0.0755  0.0239
  111poe    c23  466   1.962  -0.258   2.338 -0.0162 -0.3024 -0.0910
  111poe     o2  467   1.875  -0.163   2.396 -0.4214 -0.7402  0.0317
  111poe    c31  468   1.887  -0.174   2.536 -0.1999  0.0670  0.0837
  112poe    c31  469   0.072   1.745   1.659 -0.4009 -0.0824 -0.5490
  112poe     o2  470   0.003   1.724   1.780  0.4505  0.3234  0.0156
  112poe    c23  471  -0.041   1.851   1.824 -0.3455  0.0063  0.1497
  112poe    c23  472  -0.157   1.830   1.924 -0.2578 -0.4320  0.1621
  112poe     o2  473  -0.254   1.745   1.867 -0.1216 -0.2517 -0.3486
  112poe    c23  474  -0.371   1.739   1.946  0.1492  0.5083  0.1226
  112poe    c23  475  -0.368   1.633   2.058 -0.1301  0.2055 -0.1525
  112poe     o2  476  -0.367   1.506   1.998  0.0753  0.0720  0.1311
  112poe    c23  477  -0.422   1.398   2.070  0.2896 -0.2075 -0.1201
  112poe    c23  478  -0.469   1.283   1.978  0.1624 -0.4233  0.2104
  112poe     o2  479  -0.351   1.246   1.909  0.2733 -0.0202  0.1761
  112poe    c31  480  -0.362   1.109   1.877  0.2876  0.0464 -0.1108
  113poe    c31  481   1.356   1.547   6.116 -0.1133  0.2541 -0.1454
  113poe     o2  482   1.224   1.512   6.148 -0.0428 -0.4795 -0.6460
  113poe    c23  483   1.216   1.387   6.212  0.3057  0.0830  0.5120
  113poe    c23  484   1.067   1.350   6.228  0.1930  0.2152 -0.2104
  113poe     o2  485   0.987   1.385   6.117  0.4096  0.1450 -0.3901
  113poe    c23  486   0.851   1.368   6.152  0.3818  0.4866 -0.3283
  113poe    c23  487   0.758   1.440   6.052  0.4143 -0.3692 -0.9824
  113poe     o2  488   0.796   1.575   6.057 -1.0976  0.0249  0.6563
  113poe    c23  489   0.729   1.646   5.954 -0.7694 -0.4622  0.1031
  113poe    c23  490   0.731   1.797   5.982  0.3713 -0.4315 -0.0931
  113poe     o2  491   0.857   1.857   5.999 -0.2211  0.8123  0.0105
  113poe    c31  492   0.839   1.996   6.016  0.1184  0.8455  0.1158
  114poe    c31  493   0.879   0.834   0.853 -0.2737  0.1791 -0.2374
  114poe     o2  494   0.799   0.944   0.893 -0.4121 -0.0390  0.0907
  114poe    c23  495   0.685   0.933   0.810  0.3217  0.3193 -0.9867
  114poe    c23  496   0.632   1.077   0.794 -0.1467  0.2667  0.0242
  114poe     o2  497   0.624   1.134   0.923 -0.3735  0.4752 -0.0810
  114poe    c23  498   0.555   1.256   0.917  0.0515  0.7141 -0.1021
  114poe    c23  499   0.509   1.296   1.059  0.0089 -1.1982  0.4442
  114poe     o2  500   0.617   1.324   1.145 -0.2982 -0.4083  0.5776
  114poe    c23  501   0.590   1.326   1.283 -0.7352  0.3111  0.4890
  114poe    c23  502   0.692   1.406   1.366 -0.0636 -0.1134  0.0792
  114poe     o2  503   0.821   1.350   1.370 -0.0334 -0.0422  0.0981
  114poe    c31  504   0.918   1.441   1.322  0.0712 -0.2980 -0.1842
  115poe    c31  505   0.413   1.284   5.766  0.2947  0.2302 -0.7318
  115poe     o2  506   0.509   1.188   5.730  0.1861 -0.2886  0.3335
  115poe    c23  507   0.599   1.229   5.629  0.2781 -0.4330  0.3556
  115poe    c23  508   0.641   1.106   5.547  0.3339  0.0119 -0.2916
  115poe     o2  509   0.667   0.997   5.633 -0.7831 -0.2669 -0.2909
  115poe    c23  510   0.741   0.905   5.556 -0.8119  0.1808 -0.8607
  115poe    c23  511   0.719   0.765   5.616 -0.3190  0.2200 -0.5915
  115poe     o2  512   0.762   0.779   5.750 -0.4707 -0.0912 -0.5094
  115poe    c23  513   0.722   0.660   5.814 -0.3514  0.1338 -0.0087
  115poe    c23  514   0.774   0.666   5.958 -0.0910  0.6093 -0.1212
  115poe     o2  515   0.750   0.801   5.993 -0.5284  0.5635 -0.2455
  115poe    c31  516   0.755   0.814   6.133  0.3150 -0.2118 -0.1994
  116poe    c31  517   0.831   1.361   0.720  0.3336 -0.0219  0.5528
  116poe     o2  518   0.846   1.301   0.846 -0.0025 -0.3428  0.4421
  116poe    c23  519   0.978   1.262   0.876  0.2695  0.3270  0.1348
  116poe    c23  520   1.002   1.224   1.023 -0.4606 -0.2643  0.1027
  116poe     o2  521   0.918   1.114   1.054 -0.2213 -0.4116  0.2330
  116poe    c23  522   0.972   1.067   1.175  0.4379 -0.6241 -0.1364
  116poe    c23  523   0.890   0.942   1.212 -0.0899 -0.3351 -0.3186
  116poe     o2  524   0.756   0.975   1.186  0.0403  0.0946 -0.4639
  116poe    c23  525   0.667   0.902   1.268 -0.0094  0.7760  0.1058
  116poe    c23  526   0.527   0.966   1.270 -0.0398  0.7298 -0.3277
  116poe     o2  527   0.464   0.959   1.144 -0.3299 -0.0725 -0.1428
  116poe    c31  528   0.328   0.997   1.146 -0.2618  0.1533  0.5688
  117poe    c31  529   0.019   0.486   4.588  0.7977  0.1835 -0.5344
  117poe     o2  530   0.102   0.386   4.533  1.1256 -0.0780  0.4076
  117poe    c23  531   0.189   0.429   4.430  0.4194 -0.2992 -0.2979
  117poe    c23  532   0.177   0.335   4.309  0.2935  0.2736 -0.7338
  117poe     o2  533   0.051   0.325   4.246  0.1375 -0.2620 -0.3505
  117poe    c23  534   0.041   0.407   4.132 -0.3625 -0.0928 -0.1843
  117poe    c23  535   0.103   0.352   4.002  0.1833  0.1104 -0.0115
  117poe     o2  536   0.033   0.242   3.948  0.0164  0.1835  0.0554
  117poe    c23  537   0.109   0.167   3.856  0.2972 -0.1952  0.5899
  117poe    c23  538   0.061   0.024   3.826 -0.1795  0.0808  0.0123
  117poe     o2  539   0.086  -0.061   3.936  0.3762  0.0142 -0.1607
  117poe    c31  540   0.211  -0.126   3.943  0.0221 -0.6937 -0.3020
  118poe    c31  541   0.822   1.694   6.382  0.6206  0.7876  0.0760
  118poe     o2  542   0.711   1.749   6.450 -0.1912 -0.1248 -0.4878
  118poe    c23  543   0.710   1.889   6.431  0.1483 -0.1225 -0.4869
  118poe    c23  544   0.596   1.941   6.519  0.2540 -0.2005 -0.3025
  118poe     o2  545   0.481   1.869   6.479 -0.1671  0.1385  0.2711
  118poe    c23  546   0.359   1.900   6.542 -0.0522  0.2240  0.4543
  118poe    c23  547   0.266   1.822   6.447  0.3093  0.4880 -0.1208
  118poe     o2  548   0.309   1.688   6.449 -0.0533  0.3702 -0.0099
  118poe    c23  549   0.198   1.601   6.448  0.2590 -0.0381  0.3494
  118poe    c23  550   0.179   1.535   6.310 -0.6201  0.1024  0.3990
  118poe     o2  551   0.297   1.474   6.264 -0.5148  0.1398  0.6171
  118poe    c31  552   0.278   1.413   6.138  0.4151  0.1058  0.4856
  119poe    c31  553   2.195   0.069   0.258  0.5875 -0.6933  0.4367
  119poe     o2  554   2.132  -0.056   0.268 -0.3689 -0.2640 -0.0707
  119poe    c23  555   2.046  -0.066   0.157  0.3397 -0.2188 -0.6241
  119poe    c23  556   1.945  -0.182   0.159 -0.3068  0.3405 -0.3891
  119poe     o2  557   1.929  -0.183   0.299  0.2860 -0.1044 -0.3191
  119poe    c23  558   1.814  -0.261   0.328  0.1029  0.2153 -0.1778
  119poe    c23  559   1.797  -0.252   0.481  0.3827  0.7693 -0.1748
  119poe     o2  560   1.928  -0.254   0.534  0.1258 -0.0065  0.4515
  119poe    c23  561   1.911  -0.201   0.663  0.0879 -0.1289  0.4969
  119poe    c23  562   2.047  -0.135   0.692 -0.2346  0.6877  0.1786
  119poe     o2  563   2.102  -0.086   0.571  0.0051  0.3218  0.1352
  119poe    c31  564   2.201   0.007   0.608 -0.2858  0.8177 -0.3141
  120poe    c31  565   0.055   1.947   5.672  0.0540 -0.3497 -0.0580
  120poe     o2  566   0.060   2.071   5.605 -0.0122 -0.0760  0.4412
  120poe    c23  567  -0.012   2.074   5.484  0.4915 -0.2077  0.1326
  120poe    c23  568   0.024   2.207   5.416 -0.0479 -0.3064 -0.3503
  120poe     o2  569   0.162   2.234   5.428 -0.1318  0.0059 -0.0748
  120poe    c23  570   0.207   2.352   5.367  0.1758 -0.0788 -0.0158
  120poe    c23  571   0.358   2.380   5.379  0.1250 -0.0453  0.5421
  120poe     o2  572   0.402   2.360   5.511  0.5795 -0.3748  0.3405
  120poe    c23  573   0.520   2.427   5.552  0.2926  0.5396 -0.3023
  120poe    c23  574   0.560   2.338   5.671 -0.1630  0.8078  0.0517
  120poe     o2  575   0.464   2.334   5.774 -0.3862 -0.4449 -0.1985
  120poe    c31  576   0.520   2.271   5.887 -0.4695 -0.4293 -0.1477
  121poe    c31  577   0.316   1.863   4.533  0.5615 -0.3603 -0.2596
  121poe     o2  578   0.358   1.966   4.446 -0.3837  0.0845 -0.1975
  121poe    c23  579   0.291   2.089   4.467 -0.1127  0.0579  0.9141
  121poe    c23  580   0.389   2.196   4.413  0.1826 -0.3851  0.5599
  121poe     o2  581   0.456   2.159   4.294 -0.5179 -0.0250  0.0458
  121poe    c23  582   0.554   2.251   4.251  0.3748 -0.7102  0.5844
  121poe    c23  583   0.638   2.204   4.132 -0.6118 -0.1307 -0.3560
  121poe     o2  584   0.685   2.078   4.175  0.2762  0.3483  0.1061
  121poe    c23  585   0.806   2.049   4.109  0.2694 -0.0081  0.2449
  121poe    c23  586   0.874   1.922   4.162 -0.1163 -0.3506 -0.0697
  121poe     o2  587   0.789   1.810   4.170 -0.4884 -0.0324  0.5035
  121poe    c31  588   0.850   1.690   4.213 -0.0526 -0.0289 -0.1004
  122poe    c31  589   1.506   1.336   5.471  0.3520  0.3694  0.0793
  122poe     o2  590   1.490   1.325   5.332 -0.6974 -0.4474  0.2515
  122poe    c23  591   1.575   1.418   5.268 -0.9122 -0.1475  0.4034
  122poe    c23  592   1.573   1.384   5.118 -0.2999 -0.0410  0.3689
  122poe     o2  593   1.440   1.354   5.082 -0.2878  0.1912  0.1303
  122poe    c23  594   1.437   1.303   4.950  0.1233  0.1604  0.1310
  122poe    c23  595   1.298   1.259   4.902  0.4374 -0.7035  0.0025
  122poe     o2  596   1.192   1.343   4.941  0.9262 -0.1079  0.0474
  122poe    c23  597   1.068   1.280   4.962  0.7080  0.2274 -0.2250
  122poe    c23  598   0.980   1.377   5.043  0.5514 -0.0016 -0.1190
  122poe     o2  599   1.026   1.409   5.173  0.4189  0.9067 -0.2862
  122poe    c31  600   0.929   1.489   5.237 -0.4980 -0.0163 -0.4812
  123poe    c31  601   1.394   1.778   1.947  0.3789  0.6393  0.4758
  123poe     o2  602   1.450   1.791   1.818  0.1307 -0.2365  0.2721
  123poe    c23  603   1.578   1.848   1.827 -0.0049  0.1886 -0.3596
  123poe    c23  604   1.609   1.954   1.719 -0.1981  0.2519 -0.3518
  123poe     o2  605   1.612   1.886   1.595  0.3337 -0.4881  0.0581
  123poe    c23  606   1.643   1.974   1.489  0.3373 -0.2103  0.2873
  123poe    c23  607   1.651   1.873   1.373  0.0065  0.0691  0.0175
  123poe     o2  608   1.534   1.810   1.326 -0.2078  0.2362  0.3247
  123poe    c23  609   1.476   1.889   1.225 -1.0675 -0.3078  0.3788
  123poe    c23  610   1.334   1.840   1.192 -0.8054 -0.4921 -0.5219
  123poe     o2  611   1.271   1.831   1.318 -0.7813  0.1552 -0.4622
  123poe    c31  612   1.136   1.793   1.303 -0.8357  0.2597 -0.2457
  124poe    c31  613   1.589   0.982   2.226  0.2333  0.2906  0.5480
  124poe     o2  614   1.570   0.994   2.365  0.4679 -0.3109  0.6352
  124poe    c23  615   1.436   1.017   2.401  0.0870 -0.6423 -0.5195
  124poe    c23  616   1.407   1.018   2.553  0.4362 -0.1449 -0.4549
  124poe     o2  617   1.499   1.109   2.608 -0.2189  0.4062 -0.2495
  124poe    c23  618   1.491   1.147   2.744  0.3655 -0.1950 -0.0359
  124poe    c23  619   1.605   1.244   2.777  0.1320  0.0741 -0.0091
  124poe     o2  620   1.705   1.230   2.679 -0.2587 -0.7256 -0.3035
  124poe    c23  621   1.821   1.299   2.719 -0.2728 -0.7921 -0.1471
  124poe    c23  622   1.927   1.333   2.611  0.1287 -0.3277  0.3829
  124poe     o2  623   1.975   1.212   2.557 -0.1139 -0.0038 -0.5695
  124poe    c31  624   2.066   1.241   2.453 -0.1275 -0.1278 -0.6162
  125poe    c31  625   1.074   0.880   1.959 -0.1152 -0.0982 -0.1201
  125poe     o2  626   0.978   0.898   2.060  0.1346 -0.1680  0.1286
  125poe    c23  627   1.015   1.003   2.146  0.1567  0.1323 -0.2479
  125poe    c23  628   0.932   1.000   2.276  0.4314  0.0857 -0.0722
  125poe     o2  629   0.799   0.997   2.229  0.3877 -0.0410  0.0605
  125poe    c23  630   0.711   0.964   2.335  0.1872 -0.0705 -0.1139
  125poe    c23  631   0.579   0.960   2.257  0.1314  0.7215 -0.0702
  125poe     o2  632   0.607   0.864   2.158 -0.1733  0.4136  0.1411
  125poe    c23  633   0.511   0.867   2.054  0.3811  0.2372 -0.3861
  125poe    c23  634   0.583   0.798   1.937 -0.0181  0.0050 -0.4979
  125poe     o2  635   0.707   0.866   1.938  0.1525 -0.3052  0.2200
  125poe    c31  636   0.725   0.926   1.811  0.1095 -0.2067  0.2602
  126poe    c31  637   0.664   0.706   5.136  0.1829  0.1186  0.2601
  126poe     o2  638   0.678   0.625   5.022 -0.4599  0.2248  0.1044
  126poe    c23  639   0.607   0.505   5.040 -0.5252  0.1808 -0.4392
  126poe    c23  640   0.664   0.405   4.938  0.2524 -0.0583  0.2233
  126poe     o2  641   0.683   0.487   4.825  0.6233 -0.3789  0.0493
  126poe    c23  642   0.762   0.424   4.727  0.6128 -0.0365 -0.1823
  126poe    c23  643   0.796   0.523   4.615  0.1107  0.4838  0.1194
  126poe     o2  644   0.867   0.634   4.666  0.6921  0.1486  0.0529
  126poe    c23  645   0.959   0.683   4.572  0.9033 -0.3957 -0.0258
  126poe    c23  646   1.000   0.824   4.618 -0.3570 -0.0187 -0.0123
  126poe     o2  647   0.903   0.925   4.622 -0.2228  0.1242 -0.3367
  126poe    c31  648   0.963   1.044   4.667  0.6507 -0.4282 -0.0261
  127poe    c31  649   1.712   1.094   5.951 -0.1684  0.2965  0.3995
  127poe     o2  650   1.665   0.971   5.901  0.2737  0.4380 -0.3902
  127poe    c23  651   1.531   0.967   5.857 -0.0015 -0.0458  0.4585
  127poe    c23  652   1.500   0.819   5.832 -0.3071  0.0200  0.4476
  127poe     o2  653   1.595   0.760   5.746 -0.2975  0.0230  0.4559
  127poe    c23  654   1.553   0.638   5.689  0.3656  0.0862 -0.1881
  127poe    c23  655   1.658   0.590   5.587 -0.2584 -0.3648 -0.6214
  127poe     o2  656   1.774   0.574   5.666 -0.3850  0.0727 -0.3465
  127poe    c23  657   1.890   0.541   5.594  0.1347  0.1804  0.4333
  127poe    c23  658   2.023   0.535   5.671  0.5588  0.2423 -0.2861
  127poe     o2  659   2.048   0.647   5.754 -0.4331 -0.4344  0.9542
  127poe    c31  660   2.158   0.630   5.840  0.2148  0.0275  0.2252
  128poe    c31  661   1.201   1.851   3.326 -0.6490  0.0198 -0.1540
  128poe     o2  662   1.172   1.790   3.202 -0.2983  0.6455 -0.5542
  128poe    c23  663   1.263   1.687   3.170  0.1931  1.0630 -0.5148
  128poe    c23  664   1.215   1.625   3.037  0.3853 -0.3659  0.0647
  128poe     o2  665   1.074   1.616   3.039  0.3458 -0.0193 -0.7291
  128poe    c23  666   1.027   1.629   2.907 -0.9528 -0.0139 -0.2798
  128poe    c23  667   0.877   1.657   2.925 -0.8736  0.1462  0.1598
  128poe     o2  668   0.867   1.753   3.027  0.0214  0.0687  0.3273
  128poe    c23  669   0.739   1.743   3.086  0.0994 -0.6488  0.3746
  128poe    c23  670   0.736   1.856   3.190  0.5847 -0.1447 -0.1503
  128poe     o2  671   0.853   1.834   3.265  0.5676 -0.2752 -0.1611
  128poe    c31  672   0.851   1.918   3.378  0.4355  0.0726 -0.4152
  129poe    c31  673   1.265   1.725   5.764 -0.1303 -0.3825  0.3787
  129poe     o2  674   1.242   1.864   5.757  0.0837 -0.3541  0.2327
  129poe    c23  675   1.108   1.897   5.784  0.0723 -0.1371 -0.0869
  129poe    c23  676   1.064   2.035   5.730  0.3480 -0.0698 -0.1428
  129poe     o2  677   1.117   2.129   5.820  0.9431  0.2074 -0.7729
  129poe    c23  678   1.088   2.261   5.780 -0.7439  0.3232  0.6933
  129poe    c23  679   1.206   2.356   5.805  0.1878 -0.6491  0.0781
  129poe     o2  680   1.333   2.306   5.768  0.3093 -0.3321  0.0651
  129poe    c23  681   1.424   2.410   5.737 -0.2060 -0.0823 -0.6382
  129poe    c23  682   1.558   2.347   5.696 -0.1185 -0.1624 -0.2319
  129poe     o2  683   1.597   2.265   5.804 -0.2767 -0.5381 -0.4585
  129poe    c31  684   1.735   2.241   5.791 -0.0015  0.9212 -0.3707
  130poe    c31  685   0.265   2.219   1.556 -0.3812 -0.0554 -0.2689
  130poe     o2  686   0.263   2.359   1.535  0.3407  0.0089  0.0734
  130poe    c23  687   0.397   2.404   1.529  0.3826 -0.1359 -0.0881
  130poe    c23  688   0.412   2.547   1.476  0.1480 -0.0197  0.1595
  130poe     o2  689   0.311   2.631   1.531  0.2960  0.3626 -0.1484
  130poe    c23  690   0.332   2.763   1.487  0.2576  0.1660 -0.7682
  130poe    c23  691   0.207   2.838   1.534  0.1934 -0.3073 -0.1757
  130poe     o2  692   0.094   2.762   1.497  0.0073  0.0797 -0.4083
  130poe    c23  693  -0.013   2.837   1.550 -0.0810 -0.1000 -0.3298
  130poe    c23  694  -0.143   2.756   1.563  0.2019 -0.4200  0.5415
  130poe     o2  695  -0.186   2.680   1.452  0.1587 -0.2299  0.4284
  130poe    c31  696  -0.321   2.640   1.456  0.0240  0.1403 -0.2330
  131poe    c31  697   0.918   1.727   0.987  0.3758 -0.2065  0.6763
  131poe     o2  698   1.003   1.781   0.889 -0.3454  0.0580  0.1894
  131poe    c23  699   1.017   1.919   0.914 -0.3299  0.1444 -0.2909
  131poe    c23  700   1.104   1.988   0.807  0.1606 -0.1310 -0.0709
  131poe     o2  701   1.061   1.965   0.675 -0.5536  0.0498  0.1302
  131poe    c23  702   1.132   2.039   0.578 -0.5383 -0.1670 -0.0251
  131poe    c23  703   1.088   1.983   0.442 -0.6590 -0.0088 -0.0523
  131poe     o2  704   1.081   1.842   0.442 -0.7896 -0.0042  0.5645
  131poe    c23  705   1.075   1.811   0.304 -0.5933 -0.4471  0.6551
  131poe    c23  706   1.130   1.670   0.274  0.5265 -0.1677  1.3215
  131poe     o2  707   1.041   1.570   0.320 -0.2467 -0.1452 -0.0795
  131poe    c31  708   1.090   1.439   0.309 -0.4845 -0.2198 -0.2508
  132poe    c31  709   1.308   0.060   2.788 -0.1376 -0.2783 -0.1078
  132poe     o2  710   1.372  -0.004   2.896  0.3963  0.4126 -0.0057
  132poe    c23  711   1.399   0.103   2.984 -0.6250  0.4554  0.2673
  132poe    c23  712   1.499   0.047   3.086 -0.2210 -0.1019 -0.4196
  132poe     o2  713   1.459  -0.080   3.133  0.0625 -0.1833 -0.3983
  132poe    c23  714   1.548  -0.122   3.233 -0.6039  0.3236  0.4201
  132poe    c23  715   1.507  -0.266   3.273 -0.0927 -0.0400 -0.3540
  132poe     o2  716   1.536  -0.357   3.169  0.5061 -0.0529 -0.1809
  132poe    c23  717   1.668  -0.406   3.166  0.2298 -0.8475  0.5189
  132poe    c23  718   1.675  -0.503   3.046 -0.2097  0.0440 -0.2384
  132poe     o2  719   1.723  -0.447   2.926  0.5133 -0.1266 -0.0347
  132poe    c31  720   1.757  -0.553   2.839  0.1468  0.1406 -0.5067
  133poe    c31  721   1.843   0.877   2.941  0.5445  0.2881  0.3221
  133poe     o2  722   1.764   0.840   3.052 -0.1868  0.4249 -0.1484
  133poe    c23  723   1.836   0.775   3.154 -0.3437  0.2369 -0.1563
  133poe    c23  724   1.745   0.786   3.278 -0.0738  0.0999  0.0552
  133poe     o2  725   1.619   0.741   3.235  0.0727 -0.0635 -0.2091
  133poe    c23  726   1.532   0.751   3.346  0.1027 -0.0517 -0.1867
  133poe    c23  727   1.397   0.697   3.297 -0.1660  0.2135  0.2536
  133poe     o2  728   1.343   0.772   3.190 -0.4013 -0.0132  0.2125
  133poe    c23  729   1.224   0.715   3.139 -0.5351 -0.1839  0.7112
  133poe    c23  730   1.163   0.810   3.034  0.0682 -0.7836 -0.1936
  133poe     o2  731   1.249   0.822   2.923 -0.0431 -0.0925 -0.2084
  133poe    c31  732   1.195   0.798   2.795  0.5739 -0.3217 -0.4283
  134poe    c31  733   0.581   0.605   0.658  0.3220 -0.3098  0.0381
  134poe     o2  734   0.586   0.479   0.722 -0.2042 -0.3127  0.0779
  134poe    c23  735   0.702   0.478   0.802  0.2467  0.0170 -0.5596
  134poe    c23  736   0.722   0.338   0.862 -0.1774 -0.0501 -0.5721
  134poe     o2  737   0.597   0.292   0.908 -0.0913  0.1352 -0.1445
  134poe    c23  738   0.611   0.202   1.015 -0.2173  0.2168 -0.0593
  134poe    c23  739   0.469   0.142   1.032 -0.0632 -0.2674 -0.4487
  134poe     o2  740   0.385   0.255   1.033 -0.4646 -0.5665 -0.4920
  134poe    c23  741   0.260   0.226   1.092 -0.2691  0.0381  0.2297
  134poe    c23  742   0.162   0.345   1.098 -0.0252  0.2672 -0.2812
  134poe     o2  743   0.236   0.456   1.143  0.4676  0.0119 -0.4537
  134poe    c31  744   0.146   0.558   1.181  0.1493 -0.6614  0.6443
  135poe    c31  745   2.000   0.372   3.218  0.1300 -0.0533  0.7965
  135poe     o2  746   2.121   0.441   3.240  0.3100 -0.1007  0.0035
  135poe    c23  747   2.142   0.474   3.375  0.6119 -0.3288  0.0128
  135poe    c23  748   2.294   0.498   3.382  0.5649 -0.0321  0.0507
  135poe     o2  749   2.340   0.595   3.291 -0.2912  0.2047 -0.1370
  135poe    c23  750   2.481   0.583   3.290 -0.3372 -0.3839  0.1755
  135poe    c23  751   2.557   0.667   3.186  0.0048 -0.5835  0.2631
  135poe     o2  752   2.486   0.686   3.066  0.1505  0.2743  0.3055
  135poe    c23  753   2.541   0.785   2.982  0.0955  0.3124  0.3140
  135poe    c23  754   2.439   0.833   2.878  0.3810  0.6637  0.1954
  135poe     o2  755   2.318   0.844   2.951 -0.0507 -0.3593 -0.3509
  135poe    c31  756   2.208   0.891   2.878 -0.1167  0.4136  0.2388
  136poe    c31  757   0.772   1.185   3.411  0.0870  0.2550  0.0088
  136poe     o2  758   0.790   1.159   3.548  0.1594  0.1454 -0.0211
  136poe    c23  759   0.811   1.281   3.616 -0.4945  0.2068  0.0766
  136poe    c23  760   0.838   1.275   3.767  0.0798  0.1729 -0.0275
  136poe     o2  761   0.964   1.223   3.802  0.0653 -0.0522 -0.3037
  136poe    c23  762   1.075   1.307   3.781 -0.1725  0.2802 -0.2273
  136poe    c23  763   1.194   1.234   3.845 -0.7429 -0.0684  0.4400
  136poe     o2  764   1.200   1.105   3.788 -0.2086 -0.0556  0.4628
  136poe    c23  765   1.321   1.035   3.805 -0.1286  0.0237  0.2101
  136poe    c23  766   1.291   0.905   3.729 -0.4787  0.0611  0.2861
  136poe     o2  767   1.174   0.847   3.785 -0.4105 -0.2964  0.0653
  136poe    c31  768   1.159   0.715   3.739 -0.4708 -0.4615  0.5617
  137poe    c31  769   2.037   0.034   3.294  0.1917 -0.3891 -0.1047
  137poe     o2  770   2.031   0.002   3.431  0.0005  0.6940  0.1497
  137poe    c23  771   1.963  -0.119   3.453 -0.0528  0.6610 -0.1910
  137poe    c23  772   2.018  -0.183   3.582 -0.2960 -0.1490 -0.4809
  137poe     o2  773   2.009  -0.106   3.700  0.8672 -0.3686 -0.2372
  137poe    c23  774   2.030  -0.187   3.813  0.8072  0.0635  0.0873
  137poe    c23  775   2.003  -0.119   3.949  0.1845 -0.3207  0.1578
  137poe     o2  776   1.903  -0.023   3.926 -0.1813 -0.7415 -0.0356
  137poe    c23  777   1.896   0.051   4.046 -0.2966 -0.4944 -0.1930
  137poe    c23  778   1.765   0.130   4.027 -0.0744 -0.1912 -0.4717
  137poe     o2  779   1.770   0.217   3.916  0.5730  0.2320 -0.1195
  137poe    c31  780   1.674   0.319   3.926  0.6915  0.2943  0.4167
  138poe    c31  781   2.238   0.218   5.705  0.2975  0.8518  0.4317
  138poe     o2  782   2.274   0.259   5.835  1.4995 -0.1672  0.4369
  138poe    c23  783   2.249   0.166   5.938 -0.9738 -0.3705 -0.2752
  138poe    c23  784   2.242   0.247   6.069  0.0879  0.0627 -0.4669
  138poe     o2  785   2.358   0.323   6.092  0.2942 -0.3501 -0.1071
  138poe    c23  786   2.343   0.440   6.170 -0.1162 -0.1306 -0.5048
  138poe    c23  787   2.485   0.495   6.189 -0.0008 -0.4254 -0.5005
  138poe     o2  788   2.531   0.533   6.061  0.0205  0.2413 -0.3024
  138poe    c23  789   2.596   0.657   6.075  0.5050  0.0033 -0.4374
  138poe    c23  790   2.588   0.755   5.957  0.0370 -0.0238 -0.4297
  138poe     o2  791   2.625   0.694   5.836  0.4312 -0.5139 -0.0641
  138poe    c31  792   2.628   0.792   5.735  0.0558 -0.0192  0.4006
  139poe    c31  793   1.977   0.630   4.598 -0.4806 -0.5463 -0.1154
  139poe     o2  794   1.961   0.597   4.734  0.5889  0.3763  0.2461
  139poe    c23  795   1.995   0.462   4.758 -0.7159 -0.1149 -0.5578
  139poe    c23  796   1.963   0.424   4.903 -0.0156  0.2655 -0.2986
  139poe     o2  797   2.024   0.524   4.982 -0.0236  0.2689 -0.2966
  139poe    c23  798   1.999   0.512   5.120 -0.4618  0.2138 -0.3782
  139poe    c23  799   2.048   0.643   5.186  0.6621 -0.4903  0.2182
  139poe     o2  800   2.010   0.754   5.108 -0.1390 -0.5523  0.5065
  139poe    c23  801   2.011   0.863   5.198 -0.0847 -0.0761 -0.0652
  139poe    c23  802   2.018   0.995   5.119  0.1231  0.0277  0.1243
  139poe     o2  803   2.139   1.043   5.063  0.3063 -0.4344  0.1222
  139poe    c31  804   2.114   1.121   4.948  0.0115 -0.2631  0.2991
  140poe    c31  805   0.245   1.404   2.385 -0.4250  0.6224  0.2871
  140poe     o2  806   0.329   1.418   2.497 -0.6510  0.0287  0.5313
  140poe    c23  807   0.358   1.552   2.527 -0.3334  0.2167 -0.5707
  140poe    c23  808   0.401   1.559   2.674 -0.4464 -0.2500 -0.5168
  140poe     o2  809   0.497   1.458   2.693  0.1364  0.4309  0.2315
  140poe    c23  810   0.542   1.455   2.826  0.1642 -0.4531  0.2118
  140poe    c23  811   0.603   1.319   2.866 -0.1508 -0.4394  0.7610
  140poe     o2  812   0.516   1.226   2.805  0.1076 -0.4667  0.4286
  140poe    c23  813   0.422   1.168   2.892 -0.2524 -1.0007 -0.3120
  140poe    c23  814   0.289   1.159   2.815 -0.0614 -0.3079 -0.7275
  140poe     o2  815   0.275   1.276   2.736  0.1929  0.1070 -0.1687
  140poe    c31  816   0.137   1.305   2.743 -0.0098 -0.8487  0.0024
  141poe    c31  817   1.929   2.046   4.675 -0.2716 -0.1079 -0.0901
  141poe     o2  818   1.789   2.053   4.689 -0.2465  0.2098  0.0030
  141poe    c23  819   1.755   1.941   4.768  0.2296  0.4337  0.5380
  141poe    c23  820   1.609   1.891   4.770  0.3483  0.0681  0.2316
  141poe     o2  821   1.542   1.871   4.647  0.3147 -0.3133  0.3114
  141poe    c23  822   1.435   1.781   4.666  0.1800 -0.3049 -0.3982
  141poe    c23  823   1.350   1.780   4.537 -0.3976  0.4056 -0.0293
  141poe     o2  824   1.430   1.827   4.431 -0.1614 -0.2912 -0.1614
  141poe    c23  825   1.338   1.843   4.326 -0.3044 -0.6585 -0.0915
  141poe    c23  826   1.398   1.914   4.204 -0.4036  0.2271  0.3645
  141poe     o2  827   1.471   2.026   4.248  0.3354  0.0797 -0.4646
  141poe    c31  828   1.529   2.095   4.139  0.5216 -0.0555 -0.4531
  142poe    c31  829   1.899   1.575   1.529 -0.0977  0.0882 -0.2072
  142poe     o2  830   1.922   1.457   1.457  0.3322  0.0474 -0.0068
  142poe    c23  831   1.989   1.350   1.519 -0.3674 -0.1343  0.4439
  142poe    c23  832   2.018   1.234   1.422  0.0456 -0.0971  0.5229
  142poe     o2  833   1.901   1.166   1.384  0.2465 -0.2967  0.2558
  142poe    c23  834   1.943   1.034   1.354  0.2427 -0.3244  0.3703
  142poe    c23  835   1.848   0.968   1.252 -0.0950 -0.5049  0.7989
  142poe     o2  836   1.716   0.956   1.300 -0.3415 -0.1038  0.2370
  142poe    c23  837   1.628   0.883   1.218 -0.4657  0.2287  0.0763
  142poe    c23  838   1.500   0.863   1.301 -0.5597 -0.3560 -0.2042
  142poe     o2  839   1.492   0.989   1.364  0.0172 -0.3157 -0.2070
  142poe    c31  840   1.361   1.018   1.406  0.1040 -0.0436 -0.1219
  143poe    c31  841   1.993   1.174   3.721  0.1519  0.5184 -0.0072
  143poe     o2  842   1.870   1.235   3.753  0.0464  0.0813  0.4273
  143poe    c23  843   1.758   1.192   3.679  0.0345 -0.1344  0.5691
  143poe    c23  844   1.641   1.293   3.686 -0.0553 -0.1978  0.0319
  143poe     o2  845   1.645   1.314   3.826 -0.5374  0.1499 -0.0085
  143poe    c23  846   1.576   1.433   3.860  0.1469  0.6486 -0.3413
  143poe    c23  847   1.590   1.464   4.011  0.0177 -0.3381 -0.1177
  143poe     o2  848   1.730   1.471   4.026 -0.0828  0.3341  0.5403
  143poe    c23  849   1.754   1.530   4.152 -0.1859  0.6591  0.4113
  143poe    c23  850   1.902   1.536   4.194  0.1196 -0.3025 -0.4694
  143poe     o2  851   1.955   1.406   4.183 -0.2782 -0.5400  0.3688
  143poe    c31  852   2.051   1.391   4.285  0.2767 -0.4544 -0.1328
  144poe    c31  853   0.511   1.452   0.180 -0.5069  0.1337 -0.5925
  144poe     o2  854   0.561   1.583   0.165 -0.6266  0.3098  0.5035
  144poe    c23  855   0.635   1.638   0.272 -0.3417  0.4140  0.2547
  144poe    c23  856   0.553   1.674   0.398 -0.2824  0.0757  0.3927
  144poe     o2  857   0.505   1.566   0.474 -0.3697 -0.1131  0.0700
  144poe    c23  858   0.402   1.604   0.562  0.1671  0.4477  0.4576
  144poe    c23  859   0.452   1.660   0.697  0.2460  0.0961  0.5743
  144poe     o2  860   0.497   1.793   0.686  0.0097  0.1146 -0.2335
  144poe    c23  861   0.469   1.872   0.799  0.0973 -0.1095 -0.0550
  144poe    c23  862   0.324   1.922   0.790  0.0422 -0.3633 -0.5788
  144poe     o2  863   0.295   1.969   0.919 -0.4641 -0.4096 -0.6717
  144poe    c31  864   0.183   2.055   0.915  0.1114  0.3314 -1.0560
  145poe    c31  865   0.026   1.401   4.565 -0.3029 -0.3599  0.0533
  145poe     o2  866   0.088   1.358   4.445  0.1950  0.1306  0.1317
  145poe    c23  867   0.152   1.462   4.374  0.4524 -0.0098  0.1603
  145poe    c23  868   0.110   1.457   4.226  0.2359 -0.3343  0.2307
  145poe     o2  869   0.171   1.346   4.163  0.6216  0.2163 -0.3838
  145poe    c23  870   0.124   1.347   4.030  0.3669  0.8137 -0.2954
  145poe    c23  871   0.140   1.201   3.983 -0.0251  0.7804 -0.3276
  145poe     o2  872   0.270   1.149   3.968 -0.2949  0.0282 -0.0928
  145poe    c23  873   0.267   1.017   3.916 -0.1281  0.2735 -0.7403
  145poe    c23  874   0.413   0.985   3.882  0.0318  0.2694 -0.0594
  145poe     o2  875   0.509   1.001   3.985  0.0447  0.6234 -0.1230
  145poe    c31  876   0.631   0.956   3.931 -0.0157  0.3909 -0.0709
  146poe    c31  877   1.781   0.515   2.904  0.2102  0.4163 -0.3083
  146poe     o2  878   1.723   0.582   2.795 -1.0424  0.5180  0.3978
  146poe    c23  879   1.631   0.499   2.727  0.5443 -0.8834 -0.1101
  146poe    c23  880   1.625   0.545   2.580  0.2569  0.5451  0.3294
  146poe     o2  881   1.743   0.559   2.503  0.2840  0.5290  0.3682
  146poe    c23  882   1.722   0.608   2.373 -0.0485  0.6541  0.4684
  146poe    c23  883   1.854   0.638   2.299  0.1394 -0.0776  0.5054
  146poe     o2  884   1.936   0.523   2.305 -0.0668 -0.2318  0.3975
  146poe    c23  885   2.052   0.546   2.228 -0.2984 -0.0968  0.0854
  146poe    c23  886   2.136   0.418   2.208  0.3735  0.3480  0.0152
  146poe     o2  887   2.135   0.358   2.335 -0.0149  0.0709 -0.1187
  146poe    c31  888   2.212   0.240   2.339  0.1644  0.1852 -0.1982
  147poe    c31  889   0.093   1.401   4.935  0.5473  0.2849  0.1698
  147poe     o2  890   0.137   1.359   5.062  0.4651 -0.0063  0.1025
  147poe    c23  891   0.269   1.404   5.085  0.5280  0.0394 -0.3389
  147poe    c23  892   0.304   1.380   5.233 -0.1181 -0.0298 -0.1968
  147poe     o2  893   0.186   1.406   5.307 -0.1637 -0.1426 -0.2306
  147poe    c23  894   0.227   1.392   5.441 -0.2614  0.4391 -0.1379
  147poe    c23  895   0.103   1.420   5.528 -0.3355 -0.0362 -0.0848
  147poe     o2  896  -0.001   1.335   5.486 -0.4592  0.5589 -1.0036
  147poe    c23  897  -0.115   1.371   5.561  0.0161 -0.1762  0.0808
  147poe    c23  898  -0.248   1.333   5.494  0.2911 -0.6514 -0.2009
  147poe     o2  899  -0.249   1.371   5.358  0.4338  0.1733  0.0248
  147poe    c31  900  -0.380   1.366   5.308  0.2308 -0.2135  0.5912
  148poe    c31  901   1.675   0.763   4.145  0.1249  0.3116 -0.1771
  148poe     o2  902   1.719   0.871   4.224  0.4219  0.0469  0.0221
  148poe    c23  903   1.683   0.859   4.360 -0.1211 -0.6980 -0.1842
  148poe    c23  904   1.753   0.971   4.439 -0.2723 -0.3381 -0.5541
  148poe     o2  905   1.893   0.959   4.443 -0.3002 -0.5065 -0.0076
  148poe    c23  906   1.936   1.067   4.522 -0.2474 -0.1238 -0.5501
  148poe    c23  907   2.089   1.059   4.544 -0.3357 -0.2037  0.0528
  148poe     o2  908   2.147   1.037   4.418 -0.0729 -0.3488  0.1972
  148poe    c23  909   2.285   1.028   4.443  0.0226  0.0154 -0.1940
  148poe    c23  910   2.369   0.997   4.317 -0.1698  0.0960 -0.3420
  148poe     o2  911   2.332   0.873   4.262 -0.3582 -0.0470  0.0980
  148poe    c31  912   2.437   0.805   4.196  0.3046  0.8210  0.2442
  149poe    c31  913   2.185   1.441   0.843 -1.0269 -0.1252  0.2345
  149poe     o2  914   2.204   1.505   0.967 -0.2734 -0.6085  0.3807
  149poe    c23  915   2.326   1.470   1.027  0.1186 -0.1952 -0.1646
  149poe    c23  916   2.373   1.581   1.124 -0.3705 -0.5956  0.5378
  149poe     o2  917   2.249   1.610   1.185 -0.3686  0.0307  0.2474
  149poe    c23  918   2.264   1.719   1.273 -0.0475  0.6165 -0.5251
  149poe    c23  919   2.114   1.749   1.290 -0.0305  0.2602  0.2742
  149poe     o2  920   2.058   1.732   1.162 -0.4376 -0.2566  0.5151
  149poe    c23  921   1.942   1.807   1.139  0.0803  0.3703 -0.1123
  149poe    c23  922   1.927   1.800   0.985  0.3827 -0.1436 -0.1216
  149poe     o2  923   1.955   1.666   0.952 -0.0270 -0.3466  0.3375
  149poe    c31  924   1.915   1.645   0.819  0.6757  0.3044  0.0167
  150poe    c31  925   2.270   0.988   1.172  0.3348  0.2452  0.0672
  150poe     o2  926   2.175   0.942   1.079 -0.2979  0.4118  0.6228
  150poe    c23  927   2.160   0.803   1.097 -0.4204  0.3772  0.2626
  150poe    c23  928   2.076   0.739   0.985  0.0195  0.0957  0.0889
  150poe     o2  929   1.936   0.745   1.007  0.0599  0.5349  0.2402
  150poe    c23  930   1.870   0.660   0.916  0.0866  0.3123  0.4253
  150poe    c23  931   1.797   0.746   0.811  0.3976 -0.3382 -0.3410
  150poe     o2  932   1.870   0.837   0.732  0.4077 -0.0798 -0.0383
  150poe    c23  933   1.775   0.916   0.664  0.3672  0.5963  0.7933
  150poe    c23  934   1.837   0.973   0.535 -0.3718  0.6773  0.4674
  150poe     o2  935   1.962   1.036   0.552 -0.0507  0.2461 -0.2739
  150poe    c31  936   1.966   1.153   0.474  0.4156  0.1119 -0.4578
  151poe    c31  937   0.694   0.167   3.790  0.3769  0.0223 -0.1708
  151poe     o2  938   0.824   0.112   3.796  0.3223 -0.0878  0.0109
  151poe    c23  939   0.834  -0.001   3.714  0.1216  0.1568 -0.3550
  151poe    c23  940   0.981  -0.042   3.690 -0.0829 -0.8330  0.0115
  151poe     o2  941   1.031  -0.055   3.821  0.4654  0.0960 -0.0943
  151poe    c23  942   1.162  -0.108   3.817  0.7533  0.7657  0.3327
  151poe    c23  943   1.235  -0.078   3.949  0.5664  0.3288  0.5361
  151poe     o2  944   1.216   0.059   3.977  0.1141  0.4343 -0.2571
  151poe    c23  945   1.280   0.099   4.096  0.4596 -0.6815 -0.0544
  151poe    c23  946   1.316   0.249   4.087 -0.0830 -0.4790  1.0085
  151poe     o2  947   1.213   0.342   4.064  0.4295 -0.1997 -0.2461
  151poe    c31  948   1.258   0.475   4.076  0.3008 -0.1652 -0.1396
  152poe    c31  949   0.476   1.361   3.907  0.2226  0.2893 -0.2729
  152poe     o2  950   0.528   1.291   4.018 -0.2789  0.1912 -0.0975
  152poe    c23  951   0.606   1.377   4.098  0.1579 -0.3376  0.0487
  152poe    c23  952   0.730   1.292   4.132  0.5966  0.3522  0.1802
  152poe     o2  953   0.693   1.162   4.173 -0.3609  0.5088 -0.1517
  152poe    c23  954   0.717   1.147   4.312  0.4200 -0.4254 -0.3777
  152poe    c23  955   0.691   0.999   4.344 -0.7350 -0.1153  0.1580
  152poe     o2  956   0.577   0.953   4.276 -0.0399 -0.4295 -0.8078
  152poe    c23  957   0.552   0.816   4.298  0.0999 -0.3769 -0.3160
  152poe    c23  958   0.471   0.789   4.426  0.1856 -0.1323 -0.2086
  152poe     o2  959   0.334   0.823   4.428  0.0615 -0.6340  0.0003
  152poe    c31  960   0.285   0.781   4.553  0.0420 -0.2188  0.1322
  153poe    c31  961   1.662   0.780   0.280 -0.3616 -0.6973  0.0692
  153poe     o2  962   1.623   0.653   0.232  0.6352 -0.7101 -0.7578
  153poe    c23  963   1.683   0.549   0.306  0.1463 -0.1321  0.4846
  153poe    c23  964   1.662   0.414   0.234  0.2278 -0.0138  0.2409
  153poe     o2  965   1.532   0.372   0.202  0.2632  0.1191 -0.0865
  153poe    c23  966   1.524   0.243   0.146  0.3542  0.3237 -0.5759
  153poe    c23  967   1.376   0.206   0.125  0.2814  0.0126  0.4410
  153poe     o2  968   1.334   0.307   0.035  0.1961 -0.0772  0.3793
  153poe    c23  969   1.219   0.255  -0.027  0.0515  0.3677  0.2692
  153poe    c23  970   1.142   0.371  -0.092  0.4262  0.0626 -0.7541
  153poe     o2  971   1.235   0.463  -0.143  0.2998  0.5857 -0.0542
  153poe    c31  972   1.172   0.563  -0.221  0.1365  0.1015 -0.5504
  154poe    c31  973   2.062   1.480   3.501  0.2827  0.0185 -0.4244
  154poe     o2  974   2.188   1.542   3.486  0.1769  0.2713 -0.2811
  154poe    c23  975   2.256   1.532   3.609  0.0497  0.5164 -0.1925
  154poe    c23  976   2.386   1.615   3.615  0.2616  0.1607  0.1916
  154poe     o2  977   2.361   1.734   3.543 -0.1095 -0.0601 -0.0514
  154poe    c23  978   2.470   1.821   3.525 -0.3562  0.0866 -0.8811
  154poe    c23  979   2.422   1.950   3.456  0.0441  0.4435 -0.4975
  154poe     o2  980   2.344   1.929   3.341 -0.4905 -0.2388 -0.0095
  154poe    c23  981   2.319   2.042   3.262 -0.8996 -0.1061  0.3009
  154poe    c23  982   2.223   2.017   3.144 -0.1910  0.3316 -0.3856
  154poe     o2  983   2.096   1.965   3.176  0.3309 -0.5333  0.3114
  154poe    c31  984   2.028   1.922   3.061 -0.4249  0.4806  0.3687
  155poe    c31  985   0.989   0.889   0.357 -0.7917  0.1109  0.8963
  155poe     o2  986   0.951   0.754   0.344  0.0610 -0.0091 -0.6575
  155poe    c23  987   1.039   0.662   0.285  0.1314 -0.1166 -0.3866
  155poe    c23  988   1.017   0.526   0.353  0.3954 -0.2575 -0.5780
  155poe     o2  989   0.895   0.458   0.331 -0.0628  0.0889  0.7563
  155poe    c23  990   0.880   0.355   0.425 -0.2046 -0.0920  0.5359
  155poe    c23  991   0.737   0.299   0.413 -0.0727 -0.2788 -0.2735
  155poe     o2  992   0.638   0.394   0.380 -0.0795 -0.0054  0.4989
  155poe    c23  993   0.508   0.344   0.360 -0.1791  0.4757 -0.0788
  155poe    c23  994   0.411   0.463   0.349 -0.4652  0.2086 -0.5401
  155poe     o2  995   0.484   0.546   0.261  0.3239 -0.2751 -0.3520
  155poe    c31  996   0.418   0.671   0.259 -0.1659 -0.4912  1.0041
  156poe    c31  997   0.199   1.824   5.285  0.0735  0.4214 -0.5709
  156poe     o2  998   0.214   1.965   5.280  0.1484  0.4631  0.5453
  156poe    c23  999   0.231   2.018   5.151  0.0822  0.5912  0.5884
  156poe    c23 1000   0.377   2.032   5.103 -0.1682  0.1473 -0.3404
  156poe     o2 1001   0.441   1.916   5.057 -0.6935 -0.3184  0.0892
  156poe    c23 1002   0.384   1.849   4.946 -0.2185 -0.4407 -0.0820
  156poe    c23 1003   0.470   1.723   4.924  0.2116 -0.1946  0.1763
  156poe     o2 1004   0.562   1.773   4.829  0.3395  0.4653  0.6369
  156poe    c23 1005   0.649   1.667   4.797 -0.3056  0.3232 -0.7353
  156poe    c23 1006   0.748   1.714   4.689 -0.0395  1.0282 -0.1978
  156poe     o2 1007   0.849   1.794   4.745  0.3495  0.4573 -0.0796
  156poe    c31 1008   0.979   1.747   4.715  0.1551  0.2069 -0.5399
  157poe    c31 1009   0.451   2.036   2.156  0.0965  0.0453  0.6172
  157poe     o2 1010   0.549   2.132   2.187  0.4364 -0.2313  0.4048
  157poe    c23 1011   0.562   2.170   2.322  0.0550  0.1124  0.3491
  157poe    c23 1012   0.618   2.309   2.357  0.3604 -0.0288  0.4301
  157poe     o2 1013   0.534   2.407   2.300  0.2937 -0.0223  0.5393
  157poe    c23 1014   0.563   2.541   2.330  0.5977  0.1740 -0.5864
  157poe    c23 1015   0.517   2.629   2.212 -0.1980 -0.0405 -0.4414
  157poe     o2 1016   0.602   2.599   2.104  0.3307  0.6369 -0.2140
  157poe    c23 1017   0.613   2.711   2.018 -0.2681  0.5014 -0.4678
  157poe    c23 1018   0.703   2.696   1.895 -0.5606  0.2091 -0.6472
  157poe     o2 1019   0.727   2.559   1.871  0.3061  0.2499 -0.0751
  157poe    c31 1020   0.825   2.543   1.771 -0.1678 -0.5642 -0.4195
  158poe    c31 1021   0.815   0.166   3.129 -0.3428 -0.1633 -0.0279
  158poe     o2 1022   0.830   0.304   3.154  0.5693 -0.2575 -0.0170
  158poe    c23 1023   0.837   0.372   3.031  0.8989 -0.3689 -0.0602
  158poe    c23 1024   0.866   0.523   3.032 -0.4743 -0.0823 -0.6135
  158poe     o2 1025   0.793   0.569   3.143  0.1602  0.1271 -0.2754
  158poe    c23 1026   0.764   0.707   3.132 -0.0108  0.0724 -0.5218
  158poe    c23 1027   0.732   0.775   3.267  0.0210  0.2580 -0.6081
  158poe     o2 1028   0.640   0.708   3.350  0.0575  0.6531 -0.2443
  158poe    c23 1029   0.590   0.792   3.451  0.0429  0.5874 -0.1968
  158poe    c23 1030   0.522   0.707   3.560  0.2314  0.7687  0.0625
  158poe     o2 1031   0.403   0.648   3.512  0.4117  0.4186  0.0394
  158poe    c31 1032   0.348   0.572   3.618  0.4434  0.1566 -0.1322
  159poe    c31 1033   2.056   1.285   0.070  0.0736  0.6899 -0.1511
  159poe     o2 1034   2.131   1.168   0.095 -0.3230  0.4190 -0.2083
  159poe    c23 1035   2.236   1.183   0.189 -0.5397 -0.0409  0.1128
  159poe    c23 1036   2.295   1.041   0.193 -0.2792  0.0779  0.4228
  159poe     o2 1037   2.189   0.950   0.202 -0.1980 -0.1328 -0.6626
  159poe    c23 1038   2.216   0.813   0.225  0.2804  0.0007 -0.4137
  159poe    c23 1039   2.084   0.737   0.198 -0.2538  0.6907  0.2031
  159poe     o2 1040   2.033   0.779   0.074 -0.0283  0.5955  0.0767
  159poe    c23 1041   1.921   0.699   0.043 -0.0587  0.6738 -0.0164
  159poe    c23 1042   1.849   0.740  -0.087 -0.1595  0.2125 -0.1093
  159poe     o2 1043   1.768   0.847  -0.045  0.0651  0.1482  0.5020
  159poe    c31 1044   1.659   0.860  -0.134  0.1032 -0.3025  0.3893
  160poe    c31 1045   1.643   2.214   6.180 -0.2009  0.6973 -0.8815
  160poe     o2 1046   1.746   2.124   6.143 -0.7695  0.0194 -0.8299
  160poe    c23 1047   1.875   2.165   6.180 -0.6024 -0.9181 -0.3514
  160poe    c23 1048   1.972   2.099   6.080 -0.0104 -0.1822 -0.2768
  160poe     o2 1049   1.994   1.965   6.118 -0.3623 -0.2536 -0.3199
  160poe    c23 1050   2.104   1.928   6.038 -0.1888 -0.1703 -0.1185
  160poe    c23 1051   2.139   1.781   6.065  0.4093 -0.0052  0.0325
  160poe     o2 1052   2.013   1.718   6.055  0.1789  0.4998 -0.2540
  160poe    c23 1053   2.024   1.580   6.078 -0.0117  0.5557  0.1728
  160poe    c23 1054   1.893   1.520   6.134  0.0636 -0.3915 -0.6375
  160poe     o2 1055   1.850   1.602   6.240 -0.5468 -0.4623 -0.8286
  160poe    c31 1056   1.764   1.542   6.334 -0.6931  0.3380 -0.4410
  161poe    c31 1057   1.408   0.411   1.622  0.5781 -0.1062  0.1311
  161poe     o2 1058   1.424   0.409   1.482 -0.1222 -0.1461  0.0443
  161poe    c23 1059   1.539   0.486   1.456 -0.5278  0.3368 -0.3355
  161poe    c23 1060   1.569   0.460   1.307  0.1781  0.2630 -0.1861
  161poe     o2 1061   1.564   0.320   1.288 -0.1380  0.1602  0.6157
  161poe    c23 1062   1.583   0.279   1.155  0.4382  0.6221  0.5522
  161poe    c23 1063   1.562   0.127   1.146  0.4012  0.6569  0.0147
  161poe     o2 1064   1.445   0.081   1.211  0.5149 -0.1688 -0.3436
  161poe    c23 1065   1.435  -0.059   1.201  0.1435 -0.1664 -0.0188
  161poe    c23 1066   1.300  -0.106   1.258 -0.0485  0.6512  0.2089
  161poe     o2 1067   1.185  -0.068   1.185 -0.0639 -0.1975 -0.2173
  161poe    c31 1068   1.068  -0.088   1.262 -0.0244 -0.5407 -0.2461
  162poe    c31 1069   0.271   1.255   1.985 -0.1395 -0.0009 -0.3464
  162poe     o2 1070   0.341   1.377   1.972 -0.2487  0.1758  0.6721
  162poe    c23 1071   0.261   1.480   1.917 -0.0430  0.0732  0.1819
  162poe    c23 1072   0.338   1.610   1.948  0.0060 -0.1209  0.8835
  162poe     o2 1073   0.458   1.621   1.876 -0.2709  0.1366  0.4593
  162poe    c23 1074   0.529   1.738   1.910 -0.1271  0.1763  0.0288
  162poe    c23 1075   0.652   1.755   1.818  0.1028 -0.2163  0.2626
  162poe     o2 1076   0.709   1.627   1.814 -0.0550 -0.2712 -0.2261
  162poe    c23 1077   0.842   1.630   1.769 -0.1054  0.2247 -0.3403
  162poe    c23 1078   0.911   1.503   1.823  0.1909  0.3784 -0.3522
  162poe     o2 1079   0.826   1.405   1.767  0.5658 -0.1228 -0.0468
  162poe    c31 1080   0.902   1.294   1.725 -0.2852 -0.5748 -0.3974
  163lim     li 1081   2.252   0.181   4.283  0.9163 -0.0578 -0.5708
  164lim     li 1082   0.187   0.385   5.964  0.9137 -0.0418 -0.1842
  165lim     li 1083   1.570   1.922   4.419  0.9884  0.6177  0.3137
  166lim     li 1084   1.588   0.840   3.095 -0.1991  0.6183 -0.2244
  167lim     li 1085   1.659   1.065   1.414  0.9558 -0.6713  0.0309
  168lim     li 1086   1.168   0.165   4.932 -0.6223  0.8375 -0.0983
  169lim     li 1087   0.434   0.384   0.903  0.6995  0.1425  0.7728
  170lim     li 1088   2.094   1.572   1.098  0.5550 -0.1851  0.2592
  171lim     li 1089   0.417   1.311   2.627 -0.7038 -0.5691 -0.4077
  172lim     li 1090   2.120   1.330   1.927  0.3417  0.5239 -0.7780
  173lim     li 1091   1.454   0.199   1.358 -0.9363  0.3723  0.9261
  174lim     li 1092   0.764   0.917   5.864  0.1205  0.2708 -0.5198
  175lim     li 1093   0.170   0.217   1.540 -0.1490 -0.7294  0.3556
  176lim     li 1094   1.987   0.686   4.927  0.3870  0.7070 -0.4972
  177lim     li 1095   2.258   1.704   3.403  0.0294 -0.8840 -0.5925
  178lim     li 1096   1.892   0.028   3.754  0.8413 -0.0001 -0.3205
  179lim     li 1097   0.965   1.815   0.632 -0.6283  0.7545  0.3437
  180lim     li 1098   0.751   1.067   1.024 -0.4876  0.2705 -0.2130
  181lim     li 1099   1.913   1.794   6.179  1.6451 -0.2088 -0.6778
  182lim     li 1100   1.058   1.000   3.798 -0.5702 -0.2308 -0.2306
  183lim     li 1101   0.508   1.688   0.020  0.5316 -0.7201  0.3316
  184lim     li 1102   1.767   0.784   5.791 -0.1173 -0.5987  0.7120
  185lim     li 1103   0.787   0.651   4.886  0.2612  0.8539 -1.3399
  186lim     li 1104   0.736   0.445   3.256  0.3453  0.7064  0.0671
  187lim     li 1105   0.231   2.165   5.576  1.3786  0.2860 -0.1188
  188lim     li 1106   1.785   1.938   5.256  0.5939  0.0889 -0.2367
  189lim     li 1107   0.020   0.743   3.104  0.1388 -0.7268  0.4534
  190lim     li 1108   1.368   1.251   5.222  0.4484  0.0366 -0.3636
  191lim     li 1109   0.794   0.845   2.080  0.2642 -1.6685 -0.0440
  192lim     li 1110   1.078   1.544   6.064  0.2368 -1.6219  1.3992
  193lim     li 1111   1.657   1.116   2.513 -0.6022  0.2647 -0.5759
  194lim     li 1112   1.809   1.351   3.895 -0.3474  0.8069 -1.1281
  195lim     li 1113   0.494   1.985   4.333 -0.3526 -0.9734 -0.4305
  196lim     li 1114   1.367   0.470   6.433  0.0812  0.1715 -0.0903
  197lim     li 1115   1.992   0.419   2.448 -0.9846 -0.5862  0.9589
  198lim     li 1116   0.044   1.325   5.253 -0.7921 -0.6889 -0.0181
  199lim     li 1117   2.028   0.942   4.328 -0.3633 -0.1529  0.7793
  200lim     li 1118   1.022   0.095   3.910  0.6515  1.2944 -0.2914
  201lim     li 1119   0.968   1.713   3.162 -0.8550 -0.8252  0.0359
  202lim     li 1120   0.811   1.941   4.859  0.2172  0.9377  0.5479
  203lim     li 1121   1.140   1.861   2.374 -1.8184  0.0184  0.6319
  204lim     li 1122   0.691   0.150   2.016  0.0897 -0.4751 -0.6571
  205lim     li 1123   0.506   1.140   4.099  0.2269 -0.7758 -1.1395
  206lim     li 1124   1.413   2.141   2.950 -0.0512  0.7825 -1.3553
  207lim     li 1125   1.087   0.190   0.907  0.4714  0.5374 -0.0407
  208lim     li 1126   1.489   2.117   5.850  0.5980  0.1824 -0.5579
  209lim     li 1127   0.661   0.541   0.267  0.2396  0.4203  0.1497
  210lim     li 1128   0.646   1.465   1.785  0.3219  0.2842  0.4072
  211lim     li 1129   2.066   0.964   0.074  0.3557  0.1254 -2.0110
  212lim     li 1130   1.377   1.808   1.459 -0.2288  0.4843 -0.0007
  213lim     li 1131   1.766   2.249   2.273  0.1910  0.5558  1.2076
  214lim     li 1132   2.060   2.123   0.412  0.4207 -0.4090 -0.4127
  215lim     li 1133   0.267   0.015   2.755  0.7763 -0.2265  0.2208
  216lim     li 1134   2.024   0.953   0.721  0.2054  0.5117  0.8110
  217ntf    cn1 1135   0.125   1.314   1.372 -0.2401  0.0786  0.0881
  217ntf    sn2 1136   0.199   1.226   1.513 -0.2038  0.1574  0.1179
  217ntf    nn3 1137   0.222   1.079   1.464 -0.2657  0.2613 -0.2258
  217ntf    sn2 1138   0.140   0.953   1.508  0.0528  0.1822  0.1476
  217ntf    cn1 1139   0.243   0.899   1.647  0.1917  0.0545 -0.0031
  217ntf    fn4 1140   0.208   1.317   1.269  0.0191 -0.3273  0.2858
  217ntf    fn4 1141   0.018   1.253   1.324 -0.2403  0.0245  0.1571
  217ntf    fn4 1142   0.103   1.442   1.398 -0.3506  0.0611  0.0823
  217ntf    on5 1143   0.327   1.294   1.512 -0.5702  0.8571  0.0950
  217ntf    on5 1144   0.110   1.250   1.623  0.3251 -0.0349  0.5920
  217ntf    on5 1145   0.151   0.842   1.416  0.4119  0.4243 -0.1060
  217ntf    on5 1146   0.010   0.977   1.565  0.1719  0.4713  0.2980
  217ntf    fn4 1147   0.243   0.992   1.742 -0.3043 -0.0835  0.1334
  217ntf    fn4 1148   0.192   0.794   1.709  0.3390  0.2087  0.3872
  217ntf    fn4 1149   0.365   0.874   1.603  0.3149  0.2944  0.1951
  218ntf    cn1 1150   2.130   1.619   2.596  0.0297  0.1902 -0.1072
  218ntf    sn2 1151   2.287   1.702   2.557 -0.0537  0.3385 -0.1284
  218ntf    nn3 1152   2.326   1.629   2.423 -0.3239 -0.2895  0.1301
  218ntf    sn2 1153   2.288   1.674   2.278  0.0007  0.1742  0.1858
  218ntf    cn1 1154   2.417   1.793   2.232  0.3404 -0.1685  0.2505
  218ntf    fn4 1155   2.052   1.633   2.491 -0.1021  0.0843 -0.0241
  218ntf    fn4 1156   2.153   1.491   2.619 -0.0203  0.1941 -0.0368
  218ntf    fn4 1157   2.074   1.665   2.707  0.3852  0.0061  0.1508
  218ntf    on5 1158   2.245   1.839   2.552 -0.1155  0.3278  0.0742
  218ntf    on5 1159   2.377   1.667   2.664 -0.6521  0.3853  0.3985
  218ntf    on5 1160   2.170   1.755   2.261 -0.3151 -0.2362  0.3872
  218ntf    on5 1161   2.304   1.568   2.181 -1.1812 -0.0556  0.2206
  218ntf    fn4 1162   2.540   1.751   2.257  0.4694 -0.4263 -0.7635
  218ntf    fn4 1163   2.410   1.829   2.105 -0.3015  0.3878  0.4413
  218ntf    fn4 1164   2.408   1.905   2.302 -0.1483 -0.2348  0.2927
  219ntf    cn1 1165   0.462   1.616   5.433 -0.2690  0.2628 -0.0470
  219ntf    sn2 1166   0.605   1.686   5.520  0.1882 -0.2166 -0.4095
  219ntf    nn3 1167   0.583   1.841   5.507  0.3790 -0.1183  0.3911
  219ntf    sn2 1168   0.680   1.935   5.426  0.1980 -0.1062  0.1873
  219ntf    cn1 1169   0.807   1.971   5.551  0.0394  0.2838  0.2378
  219ntf    fn4 1170   0.476   1.487   5.407 -0.1400  0.2861 -0.0941
  219ntf    fn4 1171   0.350   1.631   5.501 -0.2671  0.1700 -0.0239
  219ntf    fn4 1172   0.444   1.681   5.319 -0.0824  0.3514 -0.0262
  219ntf    on5 1173   0.584   1.631   5.651  0.6099 -0.3308 -0.3872
  219ntf    on5 1174   0.717   1.631   5.447  0.3451 -0.3316 -0.0830
  219ntf    on5 1175   0.615   2.063   5.416  0.2520 -0.1135 -0.2518
  219ntf    on5 1176   0.748   1.883   5.310  0.2188 -0.0389  0.1697
  219ntf    fn4 1177   0.751   1.963   5.671 -0.4041 -0.3347 -0.0063
  219ntf    fn4 1178   0.910   1.889   5.540  0.3382  0.7033 -0.0910
  219ntf    fn4 1179   0.852   2.094   5.536  0.0845  0.2624  0.1988
  220ntf    cn1 1180   1.465   1.988   3.700 -0.3013 -0.3049 -0.2500
  220ntf    sn2 1181   1.612   1.944   3.797 -0.2872  0.1108 -0.0791
  220ntf    nn3 1182   1.694   1.906   3.668 -0.0094 -0.1497  0.1733
  220ntf    sn2 1183   1.765   1.772   3.627 -0.1695 -0.2070  0.0817
  220ntf    cn1 1184   1.641   1.686   3.525 -0.1698 -0.4476  0.2850
  220ntf    fn4 1185   1.351   1.988   3.768 -0.5600  0.4804 -0.6650
  220ntf    fn4 1186   1.479   2.106   3.641 -0.5786 -0.3564 -0.4206
  220ntf    fn4 1187   1.445   1.908   3.597 -0.1458 -0.4019 -0.2047
  220ntf    on5 1188   1.657   2.061   3.868  0.2179  0.2381 -0.5987
  220ntf    on5 1189   1.568   1.832   3.877 -0.5039  0.4497  0.2796
  220ntf    on5 1190   1.805   1.678   3.728  0.5741 -0.3737 -0.3575
  220ntf    on5 1191   1.871   1.802   3.533 -0.1293  0.0847  0.2187
  220ntf    fn4 1192   1.535   1.660   3.600 -0.4287  0.4975  0.2710
  220ntf    fn4 1193   1.597   1.768   3.431  0.3239 -0.0926  0.3608
  220ntf    fn4 1194   1.686   1.576   3.468  0.1855 -0.1120 -0.0826
  221ntf    cn1 1195   2.275   0.778   6.180 -0.1398 -0.0242  0.0400
  221ntf    sn2 1196   2.150   0.909   6.168  0.0993  0.2203  0.1933
  221ntf    nn3 1197   2.216   1.013   6.070 -0.2391 -0.1227 -0.4092
  221ntf    sn2 1198   2.163   1.092   5.945 -0.0596  0.2610 -0.2431
  221ntf    cn1 1199   2.297   1.052   5.829  0.2990  0.2414  0.1727
  221ntf    fn4 1200   2.392   0.837   6.202 -0.2279  0.2814 -0.3000
  221ntf    fn4 1201   2.248   0.707   6.288 -0.5587  0.0793  0.0062
  221ntf    fn4 1202   2.279   0.696   6.077  0.2476 -0.0042  0.0358
  221ntf    on5 1203   2.033   0.846   6.112  0.0700 -0.0523  0.5612
  221ntf    on5 1204   2.137   0.958   6.303  0.0178 -0.0629  0.2879
  221ntf    on5 1205   2.170   1.236   5.956 -0.9500  0.3064 -0.2181
  221ntf    on5 1206   2.041   1.047   5.883 -0.3661  0.4233  0.2342
  221ntf    fn4 1207   2.262   1.108   5.715  0.0347  0.3010  0.2820
  221ntf    fn4 1208   2.415   1.103   5.860  0.4179 -0.2441  0.5419
  221ntf    fn4 1209   2.318   0.921   5.819 -0.5275  0.0685  0.5815
  222ntf    cn1 1210   0.809   2.271   0.326  0.2270  0.1471  0.3901
  222ntf    sn2 1211   0.758   2.225   0.495 -0.3235 -0.0790  0.1636
  222ntf    nn3 1212   0.634   2.321   0.507 -0.1496  0.1560  0.0760
  222ntf    sn2 1213   0.527   2.311   0.621 -0.0908 -0.3229  0.0884
  222ntf    cn1 1214   0.393   2.205   0.556 -0.2659 -0.0666  0.0274
  222ntf    fn4 1215   0.709   2.275   0.240  0.2714  0.4081  0.3522
  222ntf    fn4 1216   0.856   2.394   0.331 -0.0424  0.2812 -0.3550
  222ntf    fn4 1217   0.901   2.197   0.267  0.0060 -0.0043  0.2324
  222ntf    on5 1218   0.724   2.087   0.471 -0.3423 -0.0653  0.1120
  222ntf    on5 1219   0.877   2.260   0.567 -0.5211  0.6157  0.1634
  222ntf    on5 1220   0.457   2.437   0.629  0.3010 -0.0774 -0.3091
  222ntf    on5 1221   0.578   2.258   0.745  0.0680 -0.0833  0.1249
  222ntf    fn4 1222   0.327   2.267   0.460 -0.5785  0.0841  0.3373
  222ntf    fn4 1223   0.434   2.088   0.511  0.3083  0.1049  0.0923
  222ntf    fn4 1224   0.301   2.184   0.649 -0.1884 -0.0141  0.1163
  223ntf    cn1 1225   0.917   2.061   1.875 -0.3055 -0.0465 -0.3857
  223ntf    sn2 1226   1.082   2.121   1.919 -0.4788  0.0707  0.1050
  223ntf    nn3 1227   1.149   2.119   1.777 -0.1757  0.0450  0.2471
  223ntf    sn2 1228   1.234   2.228   1.704 -0.1346 -0.1731 -0.0325
  223ntf    cn1 1229   1.101   2.307   1.608 -0.2335 -0.0616  0.1959
  223ntf    fn4 1230   0.835   2.059   1.979  0.4196  0.1451  0.1899
  223ntf    fn4 1231   0.870   2.142   1.781 -0.3777  0.0121 -0.2989
  223ntf    fn4 1232   0.911   1.938   1.824 -0.0736 -0.0052 -0.5148
  223ntf    on5 1233   1.061   2.255   1.968 -0.3926  0.1497 -0.0763
  223ntf    on5 1234   1.135   2.026   2.014 -0.1237 -0.0939 -0.2565
  223ntf    on5 1235   1.314   2.174   1.597  0.1276  0.3168 -0.0890
  223ntf    on5 1236   1.300   2.332   1.778 -0.0710 -0.4079  0.2408
  223ntf    fn4 1237   1.012   2.381   1.672 -0.3246  0.3052 -0.3466
  223ntf    fn4 1238   1.155   2.401   1.533 -0.0001 -0.5258 -0.2279
  223ntf    fn4 1239   1.035   2.224   1.529 -0.1650  0.0961 -0.0269
  224ntf    cn1 1240   2.243   0.454   0.347  0.1818  0.1344  0.1112
  224ntf    sn2 1241   2.110   0.455   0.470 -0.0090  0.1241 -0.0939
  224ntf    nn3 1242   2.171   0.355   0.575  0.6035 -0.1350 -0.6903
  224ntf    sn2 1243   2.221   0.375   0.723 -0.3684 -0.0642 -0.3605
  224ntf    cn1 1244   2.081   0.296   0.807 -0.1573  0.1439  0.1851
  224ntf    fn4 1245   2.338   0.542   0.375  0.1227  0.2398 -0.0157
  224ntf    fn4 1246   2.292   0.331   0.346  0.3255  0.1917  0.0560
  224ntf    fn4 1247   2.197   0.473   0.224 -0.2733 -0.0052  0.2579
  224ntf    on5 1248   2.110   0.593   0.510  0.3871  0.0724  0.0835
  224ntf    on5 1249   1.996   0.414   0.391 -0.2753 -0.0657  0.3838
  224ntf    on5 1250   2.220   0.509   0.775  0.0657 -0.2978  0.2615
  224ntf    on5 1251   2.340   0.300   0.757 -0.4007  0.0212 -0.0574
  224ntf    fn4 1252   1.968   0.336   0.752 -0.1843  0.4064  0.4289
  224ntf    fn4 1253   2.087   0.164   0.808 -0.3242  0.1344 -0.2511
  224ntf    fn4 1254   2.081   0.332   0.935  0.4584  0.0634  0.2100
  225ntf    cn1 1255   1.514   0.308   6.084 -0.1392 -0.3889 -0.2449
  225ntf    sn2 1256   1.609   0.417   6.193 -0.4155 -0.0937 -0.2966
  225ntf    nn3 1257   1.706   0.314   6.261 -0.1592  0.3681  0.0502
  225ntf    sn2 1258   1.859   0.289   6.235 -0.2917 -0.1356 -0.2788
  225ntf    cn1 1259   1.907   0.240   6.404 -0.4329  0.1155 -0.1639
  225ntf    fn4 1260   1.465   0.212   6.161 -0.3201  0.0109  0.1438
  225ntf    fn4 1261   1.416   0.371   6.021 -0.0767  0.4511  0.4871
  225ntf    fn4 1262   1.585   0.255   5.986 -0.0846 -0.2057 -0.3054
  225ntf    on5 1263   1.678   0.509   6.107 -0.1014 -0.3941 -0.3683
  225ntf    on5 1264   1.514   0.471   6.287 -0.7148  0.0810 -0.6950
  225ntf    on5 1265   1.941   0.404   6.207  0.3462 -0.5869 -0.2808
  225ntf    on5 1266   1.890   0.173   6.155 -0.5983 -0.1640 -0.3571
  225ntf    fn4 1267   1.828   0.149   6.458 -0.4635  0.2931  0.0933
  225ntf    fn4 1268   2.030   0.192   6.410 -0.3481  0.2600 -0.7050
  225ntf    fn4 1269   1.907   0.335   6.496  0.3530 -0.4539  0.4374
  226ntf    cn1 1270   2.299   2.232   1.964  0.1104  0.1258 -0.2377
  226ntf    sn2 1271   2.436   2.332   2.030 -0.1491  0.3391 -0.0199
  226ntf    nn3 1272   2.399   2.476   1.978 -0.7586 -0.0312 -0.6259
  226ntf    sn2 1273   2.485   2.558   1.875 -0.0875 -0.5922 -0.5235
  226ntf    cn1 1274   2.454   2.730   1.921  0.2204 -0.6045 -0.2703
  226ntf    fn4 1275   2.193   2.289   2.019  0.3640  0.4241 -0.0476
  226ntf    fn4 1276   2.305   2.240   1.832 -0.2306  0.5170 -0.2291
  226ntf    fn4 1277   2.310   2.106   2.002  0.1245  0.0959 -0.3432
  226ntf    on5 1278   2.403   2.332   2.171 -0.3870 -0.5588 -0.0715
  226ntf    on5 1279   2.556   2.269   1.981 -0.1019  0.3847  0.0356
  226ntf    on5 1280   2.423   2.540   1.745 -1.0248  0.3997 -0.2286
  226ntf    on5 1281   2.627   2.543   1.892 -0.1244 -0.2363  0.1310
  226ntf    fn4 1282   2.514   2.823   1.849  0.4309 -0.4940  0.0427
  226ntf    fn4 1283   2.327   2.762   1.900  0.1946 -0.4308  0.1342
  226ntf    fn4 1284   2.481   2.747   2.050 -0.3926  0.0439 -0.2159
  227ntf    cn1 1285   0.445   2.131   3.301  0.3880  0.1109 -0.0676
  227ntf    sn2 1286   0.385   2.276   3.209 -0.1402 -0.0396  0.0390
  227ntf    nn3 1287   0.423   2.399   3.300  0.1673 -0.4002  0.4020
  227ntf    sn2 1288   0.339   2.465   3.415  0.0344  0.1249  0.0084
  227ntf    cn1 1289   0.443   2.432   3.560 -0.2363 -0.3559  0.0958
  227ntf    fn4 1290   0.481   2.032   3.220 -0.2146 -0.1397 -0.0298
  227ntf    fn4 1291   0.558   2.159   3.364  0.5105  0.0844 -0.2719
  227ntf    fn4 1292   0.366   2.073   3.389  0.0250 -0.1196 -0.5408
  227ntf    on5 1293   0.470   2.279   3.093 -0.3201 -0.2849 -0.1003
  227ntf    on5 1294   0.243   2.256   3.191 -0.1794  0.4728 -0.2391
  227ntf    on5 1295   0.214   2.399   3.444  0.2481 -0.2160  0.1672
  227ntf    on5 1296   0.341   2.609   3.411 -0.2146  0.1272 -0.0379
  227ntf    fn4 1297   0.568   2.460   3.528 -0.3567 -0.4541 -0.4779
  227ntf    fn4 1298   0.418   2.509   3.664  0.1502 -0.7170  0.4619
  227ntf    fn4 1299   0.435   2.305   3.596 -0.1435 -0.3042  0.2993
  228ntf    cn1 1300   0.224   2.279   6.216 -0.5261 -0.4216  0.2893
  228ntf    sn2 1301   0.180   2.137   6.111 -0.1727 -0.2380 -0.1116
  228ntf    nn3 1302   0.317   2.062   6.102 -0.0768 -0.1136  0.2867
  228ntf    sn2 1303   0.346   1.911   6.067 -0.1795 -0.0568 -0.0366
  228ntf    cn1 1304   0.408   1.929   5.897 -0.3406  0.3598 -0.0530
  228ntf    fn4 1305   0.120   2.358   6.236 -0.1380  0.1672  0.0330
  228ntf    fn4 1306   0.268   2.231   6.331  0.2148 -0.4802 -0.0131
  228ntf    fn4 1307   0.318   2.356   6.163  0.0222 -1.0279  0.3606
  228ntf    on5 1308   0.089   2.072   6.202  0.0261 -0.0668  0.2136
  228ntf    on5 1309   0.139   2.196   5.987 -0.2691  0.2141  0.1326
  228ntf    on5 1310   0.230   1.827   6.052 -0.5045  0.2357  0.7684
  228ntf    on5 1311   0.460   1.859   6.138 -0.0244  0.1959 -0.0973
  228ntf    fn4 1312   0.521   1.996   5.878 -0.1263  0.1264  0.3969
  228ntf    fn4 1313   0.437   1.813   5.842 -0.9853  0.0630  0.2226
  228ntf    fn4 1314   0.324   1.993   5.817 -0.4586  0.2512 -0.0157
  229ntf    cn1 1315   1.929   0.711   1.821  0.0175 -0.2460  0.2819
  229ntf    sn2 1316   1.793   0.591   1.822  0.0742 -0.3113  0.1360
  229ntf    nn3 1317   1.823   0.491   1.940 -0.0486 -0.1600  0.2949
  229ntf    sn2 1318   1.771   0.343   1.944 -0.2899 -0.0860 -0.0350
  229ntf    cn1 1319   1.917   0.255   1.880 -0.1749 -0.1681  0.3351
  229ntf    fn4 1320   1.932   0.804   1.727  0.5313 -0.1279  0.4088
  229ntf    fn4 1321   1.933   0.778   1.936 -0.4758 -0.1606  0.2483
  229ntf    fn4 1322   2.043   0.644   1.813  0.3432  0.3531 -0.1579
  229ntf    on5 1323   1.672   0.666   1.841  0.2166 -0.0859  0.1546
  229ntf    on5 1324   1.802   0.546   1.686 -0.3892  0.6281 -0.2117
  229ntf    on5 1325   1.664   0.305   1.855 -0.2363  0.0078 -0.1398
  229ntf    on5 1326   1.763   0.297   2.081  0.0921  0.6987  0.2577
  229ntf    fn4 1327   1.894   0.125   1.874 -0.2467 -0.1357 -0.1228
  229ntf    fn4 1328   1.953   0.301   1.761 -0.5120 -0.1181  0.2518
  229ntf    fn4 1329   2.024   0.277   1.955  0.0783 -0.2047 -0.0143
  230ntf    cn1 1330   2.122   1.712   4.847 -0.0368 -0.2740  0.5390
  230ntf    sn2 1331   1.985   1.607   4.903  0.0487 -0.4096  0.4952
  230ntf    nn3 1332   1.898   1.602   4.772 -0.1862 -0.5027  0.6518
  230ntf    sn2 1333   1.877   1.486   4.668 -0.1510 -0.2231  0.3314
  230ntf    cn1 1334   1.748   1.389   4.751 -0.1160 -0.0215  0.6247
  230ntf    fn4 1335   2.212   1.651   4.773 -0.3089 -0.1009  0.0601
  230ntf    fn4 1336   2.084   1.811   4.767 -0.1221 -0.4164  0.4035
  230ntf    fn4 1337   2.188   1.766   4.948  0.2382 -0.1051  0.2683
  230ntf    on5 1338   2.046   1.484   4.947 -0.1146 -0.4710  0.5553
  230ntf    on5 1339   1.928   1.697   5.001  0.1081  0.0936  0.0667
  230ntf    on5 1340   1.994   1.403   4.654 -0.1405 -0.0618 -0.5854
  230ntf    on5 1341   1.818   1.530   4.544 -0.4342  0.1787  0.6064
  230ntf    fn4 1342   1.679   1.316   4.665  0.3173  0.3218 -0.0231
  230ntf    fn4 1343   1.803   1.309   4.840  0.2426 -0.0360  0.3924
  230ntf    fn4 1344   1.666   1.469   4.818 -0.2610  0.2231  0.1606
  231ntf    cn1 1345   1.856   0.647   3.600  0.4156 -0.0575  0.0285
  231ntf    sn2 1346   1.967   0.638   3.744  0.4083  0.4601  0.0692
  231ntf    nn3 1347   2.066   0.756   3.716  0.2559  0.4405 -0.5563
  231ntf    sn2 1348   2.188   0.791   3.808 -0.3429 -0.1325  0.4694
  231ntf    cn1 1349   2.324   0.747   3.695 -0.4081 -0.1954  0.4158
  231ntf    fn4 1350   1.914   0.684   3.487 -0.1927 -0.1398 -0.3113
  231ntf    fn4 1351   1.796   0.530   3.593  0.1405  0.0631  0.3605
  231ntf    fn4 1352   1.761   0.739   3.596 -0.3161 -0.8185 -0.1996
  231ntf    on5 1353   1.878   0.637   3.858  0.5846  0.6301  0.2097
  231ntf    on5 1354   2.024   0.508   3.720  0.6344  0.4851  0.4686
  231ntf    on5 1355   2.210   0.706   3.922  0.6926  0.2120  0.5405
  231ntf    on5 1356   2.201   0.933   3.824  0.0905 -0.1964  0.7078
  231ntf    fn4 1357   2.443   0.764   3.750 -0.4249 -0.2943  0.4821
  231ntf    fn4 1358   2.324   0.623   3.649 -0.1418 -0.1497  0.2940
  231ntf    fn4 1359   2.316   0.826   3.589  0.1712  0.1922  0.6594
  232ntf    cn1 1360   1.488   1.954   0.739  0.1875  0.0041  0.9896
  232ntf    sn2 1361   1.498   2.129   0.788 -0.4896  0.3390 -0.0430
  232ntf    nn3 1362   1.498   2.204   0.650  0.3100  0.0825 -0.1886
  232ntf    sn2 1363   1.477   2.359   0.634  0.2999  0.0956 -0.0464
  232ntf    cn1 1364   1.601   2.394   0.506  0.5115 -0.2742  0.0550
  232ntf    fn4 1365   1.368   1.923   0.694  0.3553  0.3814  0.2698
  232ntf    fn4 1366   1.571   1.935   0.638  0.1857  0.8790  0.8092
  232ntf    fn4 1367   1.520   1.864   0.831  0.1827 -0.3008  0.6926
  232ntf    on5 1368   1.374   2.139   0.861 -0.6049 -0.1746 -0.1667
  232ntf    on5 1369   1.622   2.126   0.863 -0.0462  0.7328 -0.7443
  232ntf    on5 1370   1.525   2.442   0.742 -0.4691  0.3173  0.1296
  232ntf    on5 1371   1.349   2.389   0.576 -0.0250 -0.8579  0.1551
  232ntf    fn4 1372   1.725   2.387   0.551  0.4288  0.1745  0.3608
  232ntf    fn4 1373   1.604   2.312   0.402  0.5327 -0.0206 -0.1448
  232ntf    fn4 1374   1.589   2.516   0.456 -0.1322  0.0810  1.0373
  233ntf    cn1 1375   1.095   1.201   2.993  0.2141  0.3213  0.1477
  233ntf    sn2 1376   1.043   1.224   3.166  0.1583 -0.1653  0.1947
  233ntf    nn3 1377   1.181   1.261   3.230  0.3704 -0.0229 -0.3422
  233ntf    sn2 1378   1.259   1.179   3.338 -0.3240 -0.3253 -0.0661
  233ntf    cn1 1379   1.297   1.323   3.442  0.3673 -0.3137 -0.3287
  233ntf    fn4 1380   0.988   1.184   2.916  0.6773  0.0103 -0.4375
  233ntf    fn4 1381   1.162   1.306   2.948  0.7063 -0.0208  0.0844
  233ntf    fn4 1382   1.183   1.107   2.967 -0.2812 -0.0395 -0.2474
  233ntf    on5 1383   0.944   1.329   3.165  0.5325  0.1879  0.0045
  233ntf    on5 1384   1.002   1.090   3.200 -0.0131 -0.3658 -0.7618
  233ntf    on5 1385   1.383   1.136   3.279 -0.5115 -0.5528 -0.2984
  233ntf    on5 1386   1.185   1.095   3.430 -0.5667 -0.0952 -0.0519
  233ntf    fn4 1387   1.363   1.412   3.370  0.1627  0.2406  0.1657
  233ntf    fn4 1388   1.185   1.385   3.474  0.5627 -0.0439 -0.1633
  233ntf    fn4 1389   1.359   1.297   3.556 -0.1225 -0.4934 -0.0997
  234ntf    cn1 1390   0.814   0.532   3.868  0.1723  0.0096  0.1160
  234ntf    sn2 1391   0.837   0.564   4.046 -0.1476 -0.2313  0.2018
  234ntf    nn3 1392   0.695   0.532   4.104 -0.2323  0.3829  0.3363
  234ntf    sn2 1393   0.645   0.414   4.196  0.1341 -0.0819 -0.0565
  234ntf    cn1 1394   0.483   0.382   4.118  0.0463 -0.0243  0.1022
  234ntf    fn4 1395   0.920   0.562   3.795 -0.2286  0.2363 -0.3812
  234ntf    fn4 1396   0.794   0.404   3.844  0.0765 -0.0439  0.4716
  234ntf    fn4 1397   0.721   0.610   3.813  0.0455  0.1197  0.4824
  234ntf    on5 1398   0.939   0.471   4.086  0.3020  0.2976  0.2857
  234ntf    on5 1399   0.876   0.702   4.049 -0.8762 -0.0122 -0.1654
  234ntf    on5 1400   0.609   0.462   4.327 -0.1982 -0.4784 -0.0014
  234ntf    on5 1401   0.716   0.290   4.177 -0.4578 -0.3511 -0.5564
  234ntf    fn4 1402   0.489   0.337   3.994  0.2964  0.2964 -0.0039
  234ntf    fn4 1403   0.410   0.288   4.177 -0.2901  0.6224  0.7350
  234ntf    fn4 1404   0.390   0.475   4.126 -0.0805 -0.1412 -0.0302
  235ntf    cn1 1405   0.786   1.129   0.095  0.3788 -0.4168  0.0302
  235ntf    sn2 1406   0.633   1.031   0.105  0.0657  0.0482 -0.1859
  235ntf    nn3 1407   0.606   1.030  -0.050  0.3130 -0.1292 -0.2288
  235ntf    sn2 1408   0.535   1.136  -0.142 -0.1800  0.1210  0.4341
  235ntf    cn1 1409   0.361   1.106  -0.102 -0.1585 -0.4478  0.1175
  235ntf    fn4 1410   0.776   1.257   0.066  0.4484 -0.4897 -0.3205
  235ntf    fn4 1411   0.863   1.120   0.203 -0.1479 -0.7744  0.3795
  235ntf    fn4 1412   0.865   1.082  -0.000  1.0171  0.1638  0.2639
  235ntf    on5 1413   0.673   0.905   0.162  0.0125 -0.0080 -0.2724
  235ntf    on5 1414   0.544   1.109   0.187 -0.2000 -0.2587 -0.1838
  235ntf    on5 1415   0.558   1.103  -0.280  1.8335 -0.1135  0.7830
  235ntf    on5 1416   0.560   1.274  -0.108  0.6384  0.1299 -0.1727
  235ntf    fn4 1417   0.334   0.981  -0.069  0.4069 -0.6595 -0.2250
  235ntf    fn4 1418   0.336   1.171   0.011 -0.3568 -0.1792 -0.0804
  235ntf    fn4 1419   0.279   1.151  -0.196 -0.1244 -0.0905  0.2579
  236ntf    cn1 1420   2.258   2.273   4.940  0.1410 -0.3081 -0.1621
  236ntf    sn2 1421   2.362   2.220   4.801  0.4838  0.2498 -0.1215
  236ntf    nn3 1422   2.503   2.247   4.865  0.3353  0.1793  0.2386
  236ntf    sn2 1423   2.632   2.311   4.802  0.3748 -0.1596 -0.0295
  236ntf    cn1 1424   2.644   2.464   4.899 -0.0559 -0.3806  0.3774
  236ntf    fn4 1425   2.293   2.214   5.054  0.2665 -0.4129 -0.2552
  236ntf    fn4 1426   2.272   2.403   4.961  0.0880 -0.2383 -0.5495
  236ntf    fn4 1427   2.128   2.254   4.923  0.0922 -0.5574  0.4584
  236ntf    on5 1428   2.336   2.080   4.777 -0.3446  0.4279 -0.2908
  236ntf    on5 1429   2.327   2.307   4.691  0.7364 -0.1046 -0.4828
  236ntf    on5 1430   2.618   2.358   4.666 -0.0026 -0.2343 -0.0183
  236ntf    on5 1431   2.754   2.241   4.831  0.4735 -0.0426 -0.1613
  236ntf    fn4 1432   2.736   2.548   4.853 -0.4471 -0.4337 -0.5206
  236ntf    fn4 1433   2.536   2.540   4.890  0.0246 -0.2580  0.4514
  236ntf    fn4 1434   2.670   2.432   5.025  0.5418 -0.6577  0.1895
  237ntf    cn1 1435   1.178   1.478   4.411 -0.3685 -0.3258 -0.4094
  237ntf    sn2 1436   1.191   1.422   4.239 -0.1133  0.2741 -0.5870
  237ntf    nn3 1437   1.286   1.298   4.251 -0.5927 -0.0989 -0.6084
  237ntf    sn2 1438   1.262   1.147   4.217 -0.3913 -0.2572 -0.0598
  237ntf    cn1 1439   1.242   1.089   4.388 -0.1360 -0.0261  0.0496
  237ntf    fn4 1440   1.119   1.597   4.415  0.4291  0.0595  0.1104
  237ntf    fn4 1441   1.106   1.396   4.485  0.0950 -0.0031  0.4159
  237ntf    fn4 1442   1.288   1.487   4.484 -0.7339 -0.0485  0.1158
  237ntf    on5 1443   1.051   1.414   4.204 -0.3637  0.4981  0.3350
  237ntf    on5 1444   1.262   1.537   4.186  0.4634 -0.0812 -0.5945
  237ntf    on5 1445   1.384   1.087   4.168  0.2827  1.0432 -0.0326
  237ntf    on5 1446   1.142   1.104   4.150 -0.3746 -0.4860  0.0586
  237ntf    fn4 1447   1.172   1.170   4.465 -0.6081  0.3521 -0.7598
  237ntf    fn4 1448   1.206   0.962   4.403  0.0384 -0.0777  0.0351
  237ntf    fn4 1449   1.363   1.078   4.440  0.2708  0.3500 -0.7825
  238ntf    cn1 1450   1.623   1.354   0.860 -0.0078  0.0670 -0.1280
  238ntf    sn2 1451   1.656   1.291   1.027 -0.4781 -0.1200 -0.1054
  238ntf    nn3 1452   1.509   1.244   1.059 -0.2361 -0.7494  0.1069
  238ntf    sn2 1453   1.402   1.311   1.152  0.1043 -0.1530  0.0731
  238ntf    cn1 1454   1.333   1.438   1.041  0.5395  0.3984  0.4294
  238ntf    fn4 1455   1.544   1.459   0.854  0.3205  0.3049 -0.3341
  238ntf    fn4 1456   1.729   1.396   0.792 -0.0539  0.8203  0.2598
  238ntf    fn4 1457   1.560   1.264   0.785  0.3521 -0.1313 -0.1944
  238ntf    on5 1458   1.750   1.183   1.009  0.3872  0.3515  1.4069
  238ntf    on5 1459   1.715   1.397   1.103  0.2892 -0.3411 -0.3861
  238ntf    on5 1460   1.455   1.390   1.260  0.1932  0.0001 -0.0811
  238ntf    on5 1461   1.289   1.226   1.180 -0.2618  0.4611  0.4925
  238ntf    fn4 1462   1.226   1.500   1.090 -0.2600 -0.8756  0.3480
  238ntf    fn4 1463   1.420   1.530   1.004  0.3538  0.4527  0.1230
  238ntf    fn4 1464   1.298   1.381   0.928  0.2290  0.3956  0.5257
  239ntf    cn1 1465   0.823   0.447   5.428 -0.3189  0.2644  0.5489
  239ntf    sn2 1466   0.965   0.518   5.339 -0.2764 -0.3115  0.1486
  239ntf    nn3 1467   1.082   0.464   5.429 -0.3036  0.1318  0.4510
  239ntf    sn2 1468   1.183   0.546   5.517 -0.2310  0.5551 -0.0184
  239ntf    cn1 1469   1.074   0.542   5.663  0.3480 -0.1887  0.4019
  239ntf    fn4 1470   0.708   0.500   5.391  0.0602  0.4353 -0.4435
  239ntf    fn4 1471   0.797   0.318   5.409 -0.0485  0.1960  0.6354
  239ntf    fn4 1472   0.824   0.467   5.558  0.2828  0.0277  0.5844
  239ntf    on5 1473   0.943   0.461   5.208 -0.3663  0.4491 -0.1690
  239ntf    on5 1474   0.949   0.661   5.349  0.1871 -0.2271 -0.2545
  239ntf    on5 1475   1.199   0.685   5.485  0.8021  0.5329  0.3540
  239ntf    on5 1476   1.298   0.466   5.551  0.0161  0.2418 -1.5378
  239ntf    fn4 1477   0.972   0.626   5.658  0.4086 -0.1297  0.1374
  239ntf    fn4 1478   1.024   0.422   5.689 -0.1170 -0.1027 -0.0820
  239ntf    fn4 1479   1.130   0.582   5.776  0.5000  0.4687  0.0976
  240ntf    cn1 1480   1.574   1.905   2.372 -0.1397  0.1200  0.0940
  240ntf    sn2 1481   1.456   1.897   2.510  0.0567  0.2005  0.2665
  240ntf    nn3 1482   1.509   1.763   2.574 -0.7625 -0.3311 -0.1470
  240ntf    sn2 1483   1.479   1.614   2.535 -0.6026 -0.3240 -0.2987
  240ntf    cn1 1484   1.415   1.549   2.692 -0.1068 -0.2951 -0.0822
  240ntf    fn4 1485   1.702   1.889   2.401 -0.1333  0.2690  0.1483
  240ntf    fn4 1486   1.546   1.815   2.279 -0.0279 -0.2013  0.3708
  240ntf    fn4 1487   1.568   2.021   2.308  0.0227  0.1121  0.0640
  240ntf    on5 1488   1.475   2.013   2.594  0.0815  0.4397 -0.0667
  240ntf    on5 1489   1.324   1.880   2.455  0.2635 -0.0634 -0.1594
  240ntf    on5 1490   1.597   1.534   2.515 -0.4095 -0.1981  0.3077
  240ntf    on5 1491   1.368   1.590   2.447 -0.9729 -0.6100  0.2382
  240ntf    fn4 1492   1.381   1.421   2.690 -0.1446 -0.2843 -0.1183
  240ntf    fn4 1493   1.507   1.567   2.786 -0.8958  1.2580  0.4087
  240ntf    fn4 1494   1.307   1.616   2.726  0.6014  0.7951  0.0560
  241ntf    cn1 1495   1.004   1.455   5.634  0.5246  0.2993 -0.1391
  241ntf    sn2 1496   1.105   1.389   5.770 -0.0172 -0.5293 -0.1340
  241ntf    nn3 1497   1.013   1.267   5.806 -0.3605 -0.4409 -0.6962
  241ntf    sn2 1498   1.040   1.116   5.776 -0.0801 -0.4498 -0.3963
  241ntf    cn1 1499   1.123   1.070   5.932 -0.3973 -0.0218 -0.1005
  241ntf    fn4 1500   0.978   1.585   5.641 -0.2527  0.1092  0.8676
  241ntf    fn4 1501   1.067   1.427   5.522  0.5509  0.1865 -0.0963
  241ntf    fn4 1502   0.889   1.392   5.619  0.6913  0.0383 -0.3092
  241ntf    on5 1503   1.235   1.350   5.719 -0.0396 -0.2671 -0.3958
  241ntf    on5 1504   1.091   1.487   5.874 -0.3562 -0.7043 -0.0131
  241ntf    on5 1505   1.134   1.077   5.674  0.9296  0.3479  0.1982
  241ntf    on5 1506   0.926   1.029   5.787 -0.5298  0.1537 -0.2344
  241ntf    fn4 1507   1.231   1.141   5.959 -0.1096 -0.5004  0.0090
  241ntf    fn4 1508   1.045   1.085   6.038 -0.2983  0.2737 -0.0692
  241ntf    fn4 1509   1.160   0.943   5.926  0.1029  0.1285 -0.2832
  242ntf    cn1 1510   0.865   2.147   2.914 -0.1226 -0.0612 -0.1074
  242ntf    sn2 1511   0.923   2.056   2.768 -0.1597 -0.1661 -0.0569
  242ntf    nn3 1512   0.820   1.938   2.761  0.0785 -0.3761 -0.0277
  242ntf    sn2 1513   0.679   1.954   2.694 -0.1489 -0.4796  0.4283
  242ntf    cn1 1514   0.707   1.900   2.523  0.5426  0.0199  0.3820
  242ntf    fn4 1515   0.947   2.246   2.944 -0.3678 -0.0300  0.4740
  242ntf    fn4 1516   0.742   2.197   2.905 -0.1004  0.0002 -0.0697
  242ntf    fn4 1517   0.852   2.071   3.022 -0.4804 -0.0167 -0.1169
  242ntf    on5 1518   0.913   2.151   2.660 -0.0359 -0.1471 -0.0527
  242ntf    on5 1519   1.056   2.011   2.799 -0.2087 -0.4610 -0.2696
  242ntf    on5 1520   0.633   2.088   2.670  0.1440 -0.5066 -0.2774
  242ntf    on5 1521   0.585   1.859   2.750 -0.6153  0.0261  0.5180
  242ntf    fn4 1522   0.602   1.829   2.483 -0.2026  1.0725  0.4223
  242ntf    fn4 1523   0.721   1.993   2.429  0.4503 -0.0697  0.2794
  242ntf    fn4 1524   0.814   1.822   2.522  0.0410 -0.6694 -0.0860
  243ntf    cn1 1525   1.138   0.020   3.309  0.2838  0.1447 -0.0967
  243ntf    sn2 1526   1.186   0.191   3.346 -0.0248  0.1297  0.3674
  243ntf    nn3 1527   1.327   0.165   3.410  0.4169  0.4134 -0.4802
  243ntf    sn2 1528   1.363   0.194   3.560  0.1772 -0.2341 -0.2977
  243ntf    cn1 1529   1.398   0.371   3.547  0.2397 -0.2860 -0.8458
  243ntf    fn4 1530   1.211  -0.047   3.221  0.1768  0.2341 -0.2557
  243ntf    fn4 1531   1.151  -0.061   3.413  0.1264 -0.2205 -0.3582
  243ntf    fn4 1532   1.015   0.016   3.260  0.0538  0.6121  0.4352
  243ntf    on5 1533   1.204   0.239   3.212 -0.7718  0.5446  0.4070
  243ntf    on5 1534   1.077   0.246   3.424 -0.0225  0.9139 -0.1685
  243ntf    on5 1535   1.492   0.143   3.597 -0.0526 -0.6976 -0.1250
  243ntf    on5 1536   1.255   0.188   3.657  0.4784  0.0769  0.0606
  243ntf    fn4 1537   1.385   0.429   3.665  0.3784 -0.1698 -0.8862
  243ntf    fn4 1538   1.522   0.389   3.503  0.2776  0.0802 -0.6007
  243ntf    fn4 1539   1.318   0.436   3.464 -0.3394  0.1589  0.0434
  244ntf    cn1 1540   1.128   1.958   5.377  0.3762  0.7440 -0.0278
  244ntf    sn2 1541   1.294   1.967   5.302  0.3584  0.3467 -0.1169
  244ntf    nn3 1542   1.293   1.843   5.206  0.5250  0.2802 -0.0319
  244ntf    sn2 1543   1.233   1.833   5.062 -0.2751  0.1476  0.3048
  244ntf    cn1 1544   1.323   1.687   5.002 -0.3121  0.2666 -0.0429
  244ntf    fn4 1545   1.087   2.075   5.423  0.2949  0.6998  0.0128
  244ntf    fn4 1546   1.037   1.920   5.290  0.3587  0.2432  0.2038
  244ntf    fn4 1547   1.119   1.876   5.480  0.0961  0.3108 -0.3973
  244ntf    on5 1548   1.289   2.098   5.241  0.5134  0.7363  0.6946
  244ntf    on5 1549   1.390   1.946   5.407 -0.2498 -0.3264  0.3138
  244ntf    on5 1550   1.280   1.932   4.969  0.2669  0.0769  0.5023
  244ntf    on5 1551   1.097   1.784   5.057 -0.2158  0.0308 -0.1987
  244ntf    fn4 1552   1.328   1.596   5.098  0.4100  0.6272  0.2691
  244ntf    fn4 1553   1.273   1.624   4.897 -0.4671  0.1958  0.0721
  244ntf    fn4 1554   1.448   1.721   4.975 -0.2711  0.3905  0.2986
  245ntf    cn1 1555   0.070   1.824   0.439 -0.0519 -0.1377 -0.3537
  245ntf    sn2 1556  -0.071   1.853   0.328 -0.1226 -0.0588 -0.2439
  245ntf    nn3 1557  -0.162   1.729   0.362  0.3453 -0.2824  0.2003
  245ntf    sn2 1558  -0.197   1.611   0.264 -0.1990  0.0014  0.0514
  245ntf    cn1 1559  -0.317   1.524   0.368 -0.3021 -0.0559 -0.1157
  245ntf    fn4 1560   0.134   1.713   0.406 -0.7040 -0.7724  0.4679
  245ntf    fn4 1561   0.168   1.912   0.450 -0.1087 -0.0947 -0.1869
  245ntf    fn4 1562   0.029   1.805   0.564  0.2553 -0.0446 -0.2380
  245ntf    on5 1563  -0.118   1.979   0.379 -0.2668  0.1374 -0.8519
  245ntf    on5 1564   0.005   1.853   0.206  0.3847 -0.1244  0.0688
  245ntf    on5 1565  -0.086   1.521   0.246  0.0317  0.3949 -0.5036
  245ntf    on5 1566  -0.273   1.643   0.146  0.6686 -0.0776 -0.5325
  245ntf    fn4 1567  -0.405   1.611   0.416 -0.1509  0.0231  0.0176
  245ntf    fn4 1568  -0.384   1.425   0.310  0.2479 -0.1523 -0.5809
  245ntf    fn4 1569  -0.267   1.478   0.482 -0.4141  0.0302 -0.0315
  246ntf    cn1 1570   0.137   1.757   3.999 -0.1456  0.5350  0.2827
  246ntf    sn2 1571  -0.044   1.775   3.996 -0.2335 -0.3591  0.0020
  246ntf    nn3 1572  -0.073   1.897   4.090  0.1789 -0.1756 -0.1048
  246ntf    sn2 1573  -0.022   1.930   4.235  0.3262  0.0096 -0.1977
  246ntf    cn1 1574  -0.171   1.887   4.330  0.6410  0.1434  0.3599
  246ntf    fn4 1575   0.170   1.650   3.929 -0.0663  0.7405  0.0065
  246ntf    fn4 1576   0.194   1.864   3.945 -0.1792  0.0761 -0.6665
  246ntf    fn4 1577   0.192   1.742   4.118  0.4676  0.2291 -0.0385
  246ntf    on5 1578  -0.073   1.803   3.858  0.3475 -0.6617 -0.1846
  246ntf    on5 1579  -0.092   1.649   4.047  0.0369 -0.5916 -0.3150
  246ntf    on5 1580  -0.009   2.071   4.263  0.1892 -0.0583  0.2169
  246ntf    on5 1581   0.071   1.836   4.292 -0.2809 -0.2752  0.3352
  246ntf    fn4 1582  -0.175   1.930   4.455 -0.0797  0.3721  0.2586
  246ntf    fn4 1583  -0.280   1.924   4.266  0.6582  0.0857  0.2970
  246ntf    fn4 1584  -0.201   1.758   4.330 -0.3632  0.3696 -0.7506
  247ntf    cn1 1585   0.748   0.154   6.210 -0.3463  0.0905  0.2986
  247ntf    sn2 1586   0.694   0.316   6.147  0.0987  0.1536  0.0767
  247ntf    nn3 1587   0.716   0.401   6.277  0.2419  0.5356 -0.1957
  247ntf    sn2 1588   0.619   0.441   6.393  0.2812 -0.3114  0.1344
  247ntf    cn1 1589   0.553   0.592   6.317 -0.0143 -0.5254 -0.0382
  247ntf    fn4 1590   0.669   0.116   6.309 -0.1061 -0.6481  0.2133
  247ntf    fn4 1591   0.732   0.062   6.116  0.4693 -0.5747  0.7973
  247ntf    fn4 1592   0.873   0.144   6.252 -0.4420 -0.3789  0.4774
  247ntf    on5 1593   0.792   0.337   6.043  0.3476 -0.4124  0.1906
  247ntf    on5 1594   0.559   0.293   6.102  0.0080 -0.1131  0.4828
  247ntf    on5 1595   0.680   0.493   6.513 -0.1376  0.6916 -0.0786
  247ntf    on5 1596   0.509   0.348   6.410  0.1059 -0.0614  0.3765
  247ntf    fn4 1597   0.622   0.696   6.362 -0.3323  0.0154 -0.7735
  247ntf    fn4 1598   0.558   0.600   6.185  0.0883 -0.1975 -0.0157
  247ntf    fn4 1599   0.429   0.612   6.358  0.0517  0.2178 -0.1903
  248ntf    cn1 1600   1.978   0.019   1.184 -0.1105  0.1900 -0.2848
  248ntf    sn2 1601   1.891  -0.104   1.286  0.1766  0.1101 -0.1354
  248ntf    nn3 1602   2.012  -0.187   1.343 -0.2482 -0.2236  0.2833
  248ntf    sn2 1603   2.108  -0.163   1.464  0.1026  0.3157 -0.0999
  248ntf    cn1 1604   2.011  -0.207   1.611  0.1705  0.6049  0.0326
  248ntf    fn4 1605   2.053  -0.048   1.097 -0.4012 -0.7510  0.1764
  248ntf    fn4 1606   1.899   0.102   1.118 -0.6810  0.0485  0.2220
  248ntf    fn4 1607   2.069   0.095   1.243 -0.1279  0.1611 -0.2207
  248ntf    on5 1608   1.824  -0.035   1.394  0.0828 -0.1539 -0.0253
  248ntf    on5 1609   1.807  -0.172   1.191  0.0275  0.2470 -0.1017
  248ntf    on5 1610   2.158  -0.029   1.481 -0.3995  0.4662  0.2176
  248ntf    on5 1611   2.204  -0.270   1.467  0.0916  0.3246  0.8034
  248ntf    fn4 1612   1.908  -0.126   1.632 -0.0126  0.4817 -0.3976
  248ntf    fn4 1613   1.959  -0.328   1.604  0.2214  0.5806  0.0670
  248ntf    fn4 1614   2.079  -0.197   1.725 -0.0105 -0.1235  0.2123
  249ntf    cn1 1615   1.279   1.375   2.114 -0.0111  0.0174 -0.0411
  249ntf    sn2 1616   1.433   1.299   2.054 -0.0090 -0.0928  0.1031
  249ntf    nn3 1617   1.468   1.385   1.927 -0.5829  0.2278  0.1577
  249ntf    sn2 1618   1.464   1.334   1.779  0.1115  0.0376  0.1980
  249ntf    cn1 1619   1.287   1.296   1.763  0.0817  0.1853  0.1707
  249ntf    fn4 1620   1.250   1.344   2.239 -0.4416  0.2320 -0.0865
  249ntf    fn4 1621   1.291   1.507   2.113 -0.3630  0.0497 -0.3513
  249ntf    fn4 1622   1.172   1.345   2.043  0.1264  0.4744 -0.4542
  249ntf    on5 1623   1.532   1.339   2.150 -0.0184  0.2546 -0.0299
  249ntf    on5 1624   1.409   1.157   2.037  0.0589 -0.0822 -0.0930
  249ntf    on5 1625   1.526   1.206   1.755  0.0483  0.0629 -0.1078
  249ntf    on5 1626   1.478   1.438   1.680  0.3554  0.3323  0.5419
  249ntf    fn4 1627   1.258   1.255   1.641  0.7449  0.1639  0.0191
  249ntf    fn4 1628   1.246   1.213   1.858 -0.3379 -0.0529 -0.2168
  249ntf    fn4 1629   1.204   1.396   1.789 -0.4479 -0.3238  0.4700
  250ntf    cn1 1630   1.063   1.352   2.449 -0.2016 -0.1290 -0.1609
  250ntf    sn2 1631   0.911   1.412   2.530  0.0111  0.0315  0.1199
  250ntf    nn3 1632   0.813   1.373   2.414 -0.0091 -0.2882  0.2428
  250ntf    sn2 1633   0.791   1.453   2.280 -0.2101 -0.2269  0.3123
  250ntf    cn1 1634   0.671   1.577   2.335 -0.0482  0.0728 -0.0084
  250ntf    fn4 1635   1.113   1.445   2.369 -0.8581  0.4917  0.1307
  250ntf    fn4 1636   1.165   1.312   2.523 -0.3323  0.0163  0.0996
  250ntf    fn4 1637   1.038   1.242   2.380  0.2443  0.2576 -0.9451
  250ntf    on5 1638   0.902   1.332   2.650  0.1997  0.0845  0.1700
  250ntf    on5 1639   0.947   1.550   2.552  0.3907 -0.0980  0.3323
  250ntf    on5 1640   0.733   1.361   2.185 -0.3540 -0.5787  0.7341
  250ntf    on5 1641   0.904   1.530   2.235  0.0151 -0.5162  0.3723
  250ntf    fn4 1642   0.682   1.688   2.264  0.3549  0.2416  0.3166
  250ntf    fn4 1643   0.545   1.542   2.314 -0.0366 -0.3818  0.6636
  250ntf    fn4 1644   0.687   1.614   2.461 -0.1703  0.4111 -0.0912
  251ntf    cn1 1645   1.541   1.788   0.173 -0.1899  0.0035 -0.0811
  251ntf    sn2 1646   1.510   1.890   0.026  0.0293  0.0433 -0.0987
  251ntf    nn3 1647   1.355   1.907   0.040  0.0168 -0.0409 -0.1337
  251ntf    sn2 1648   1.270   1.997  -0.056 -0.1938 -0.1895 -0.0872
  251ntf    cn1 1649   1.248   2.147   0.044 -0.1806  0.1061 -0.5255
  251ntf    fn4 1650   1.499   1.666   0.143  0.4930 -0.1863 -0.2607
  251ntf    fn4 1651   1.670   1.782   0.199 -0.3115 -0.3006  0.4680
  251ntf    fn4 1652   1.476   1.838   0.277 -0.3997 -0.0906 -0.1657
  251ntf    on5 1653   1.596   2.003   0.049  0.0734 -0.1213  0.5489
  251ntf    on5 1654   1.547   1.809  -0.088  0.6646  0.6794 -0.3540
  251ntf    on5 1655   1.136   1.946  -0.072 -0.3144 -0.0808  0.5691
  251ntf    on5 1656   1.335   2.044  -0.176  0.5600 -0.0682  0.3666
  251ntf    fn4 1657   1.159   2.228  -0.011  0.5134  0.8415 -0.5958
  251ntf    fn4 1658   1.203   2.135   0.168 -0.4063 -0.5012 -0.6669
  251ntf    fn4 1659   1.359   2.220   0.049 -0.0980 -0.0294 -0.3592
  252ntf    cn1 1660   0.170   1.154   3.469 -0.3881 -0.0238  0.2482
  252ntf    sn2 1661   0.267   1.196   3.321 -0.3421 -0.0888  0.2599
  252ntf    nn3 1662   0.267   1.353   3.311  0.1842 -0.1095 -0.1316
  252ntf    sn2 1663   0.385   1.445   3.267  0.2652 -0.1575 -0.0145
  252ntf    cn1 1664   0.433   1.498   3.434  0.0241 -0.2305  0.0774
  252ntf    fn4 1665   0.154   1.023   3.473  0.6553 -0.1944 -0.5760
  252ntf    fn4 1666   0.233   1.179   3.583  0.1620  0.2775 -0.1150
  252ntf    fn4 1667   0.050   1.208   3.476 -0.1974  0.3582  0.6916
  252ntf    on5 1668   0.394   1.135   3.352  0.2388  0.8293 -0.2596
  252ntf    on5 1669   0.192   1.126   3.220  0.4743  0.1823 -0.5475
  252ntf    on5 1670   0.334   1.569   3.213 -0.6486 -0.4339  0.2049
  252ntf    on5 1671   0.500   1.390   3.199  0.4134 -0.0581  0.1556
  252ntf    fn4 1672   0.547   1.442   3.473  0.1072 -0.0716  0.0605
  252ntf    fn4 1673   0.451   1.628   3.450  0.6496 -0.3033 -0.0029
  252ntf    fn4 1674   0.337   1.457   3.516 -0.3063 -0.1800 -0.2802
  253ntf    cn1 1675   1.623   0.495   4.508  0.1054  0.0902 -0.2922
  253ntf    sn2 1676   1.657   0.415   4.348  0.0107 -0.2566 -0.1414
  253ntf    nn3 1677   1.615   0.270   4.389 -0.0985 -0.1939 -0.0271
  253ntf    sn2 1678   1.706   0.145   4.419 -0.0231 -0.1656 -0.1347
  253ntf    cn1 1679   1.740   0.139   4.598  0.3869 -0.3194 -0.2182
  253ntf    fn4 1680   1.697   0.437   4.602 -0.3209 -0.4590 -0.2905
  253ntf    fn4 1681   1.652   0.624   4.502 -0.3494  0.2375  0.5289
  253ntf    fn4 1682   1.496   0.490   4.545  0.0904 -0.0703 -0.3616
  253ntf    on5 1683   1.557   0.479   4.266  0.2267  0.0360 -0.1804
  253ntf    on5 1684   1.795   0.445   4.318 -0.0754 -0.2620 -0.5538
  253ntf    on5 1685   1.842   0.149   4.370  0.1447 -0.1934  0.3194
  253ntf    on5 1686   1.630   0.023   4.411 -0.0859 -0.1444  0.1118
  253ntf    fn4 1687   1.628   0.117   4.665  0.1663  0.3550 -0.3631
  253ntf    fn4 1688   1.812   0.034   4.636  0.1331 -0.4118  0.0107
  253ntf    fn4 1689   1.803   0.244   4.647 -0.8800 -0.1472  1.0935
  254ntf    cn1 1690   0.383   1.372   4.663  0.0507 -0.5316  0.0861
  254ntf    sn2 1691   0.443   1.201   4.656  0.2313 -0.4622 -0.0509
  254ntf    nn3 1692   0.403   1.163   4.803  0.3838  0.1493  0.1500
  254ntf    sn2 1693   0.428   1.029   4.881  0.0817  0.1025  0.1656
  254ntf    cn1 1694   0.254   0.975   4.881  0.1386 -0.0836  0.0848
  254ntf    fn4 1695   0.444   1.443   4.756 -0.3516 -0.7538  0.5286
  254ntf    fn4 1696   0.383   1.440   4.550 -0.6782  0.0448  0.4180
  254ntf    fn4 1697   0.253   1.362   4.689  0.1219  0.4051  0.8845
  254ntf    on5 1698   0.363   1.154   4.546  0.2050 -0.8630  0.1361
  254ntf    on5 1699   0.585   1.220   4.636  0.1931 -0.1732 -0.0445
  254ntf    on5 1700   0.470   1.049   5.017  0.3739  0.5462  0.0091
  254ntf    on5 1701   0.499   0.925   4.811 -0.2898 -0.0000 -0.0649
  254ntf    fn4 1702   0.238   0.858   4.940 -0.4045  0.2313  0.5702
  254ntf    fn4 1703   0.171   1.060   4.940 -0.4584 -0.3256 -0.3960
  254ntf    fn4 1704   0.220   0.966   4.753 -0.2401  0.5774  0.1317
  255ntf    cn1 1705   0.241   0.764   0.605  0.0482 -0.0375  0.2491
  255ntf    sn2 1706   0.223   0.841   0.769  0.0875  0.2910  0.1004
  255ntf    nn3 1707   0.247   0.994   0.742  0.0755  0.3928  0.6579
  255ntf    sn2 1708   0.126   1.090   0.715 -0.0029  0.1331  0.0625
  255ntf    cn1 1709   0.209   1.224   0.625  0.0159 -0.0788 -0.2359
  255ntf    fn4 1710   0.126   0.746   0.542  0.5901 -0.5327 -0.6146
  255ntf    fn4 1711   0.330   0.821   0.525 -0.4463  0.1047 -0.2065
  255ntf    fn4 1712   0.281   0.639   0.622  0.6161  0.1437  0.2649
  255ntf    on5 1713   0.092   0.797   0.810  0.4637 -0.6779  0.2878
  255ntf    on5 1714   0.336   0.795   0.845  0.0767 -0.1389 -0.1395
  255ntf    on5 1715   0.083   1.157   0.836 -0.3439  0.1334 -0.0588
  255ntf    on5 1716   0.027   1.046   0.620  0.3445  0.0198 -0.2493
  255ntf    fn4 1717   0.205   1.333   0.701  0.5167 -0.2600  0.0480
  255ntf    fn4 1718   0.333   1.183   0.606  0.1394  0.6237 -1.0473
  255ntf    fn4 1719   0.159   1.244   0.504  0.1373 -0.1889 -0.3044
  256ntf    cn1 1720   1.063   1.698   3.826  0.3398 -0.1129 -0.2336
  256ntf    sn2 1721   0.950   1.775   3.706  0.2078 -0.1793 -0.1518
  256ntf    nn3 1722   0.826   1.771   3.803  0.3020  0.0531 -0.0201
  256ntf    sn2 1723   0.682   1.714   3.782  0.2550  0.1120  0.1437
  256ntf    cn1 1724   0.613   1.831   3.661 -0.2123  0.0192  0.3146
  256ntf    fn4 1725   1.028   1.572   3.849 -0.0006  0.0808  0.3117
  256ntf    fn4 1726   1.189   1.697   3.785  0.3792  0.6201 -0.1361
  256ntf    fn4 1727   1.062   1.758   3.944 -0.5705 -0.3561 -0.1150
  256ntf    on5 1728   1.005   1.907   3.685 -0.3513  0.0208 -0.3705
  256ntf    on5 1729   0.951   1.675   3.603 -0.0910 -0.0207 -0.3105
  256ntf    on5 1730   0.601   1.738   3.899 -0.3345 -0.7624 -0.0694
  256ntf    on5 1731   0.661   1.583   3.725 -0.2309 -0.0276  0.6273
  256ntf    fn4 1732   0.626   1.792   3.536 -0.3856  0.7543  0.0624
  256ntf    fn4 1733   0.485   1.861   3.670 -0.0497  0.7737  0.2179
  256ntf    fn4 1734   0.676   1.948   3.660 -0.1031 -0.0427  0.0518
  257ntf    cn1 1735   1.748   1.528   5.699  0.0769  0.4751  0.0701
  257ntf    sn2 1736   1.756   1.697   5.631 -0.4050  0.4714  0.0015
  257ntf    nn3 1737   1.910   1.718   5.613 -0.2898 -0.3382 -0.0255
  257ntf    sn2 1738   1.990   1.817   5.519 -0.4924  0.0492  0.2075
  257ntf    cn1 1739   2.000   1.959   5.632  0.5843  0.1894 -0.0559
  257ntf    fn4 1740   1.621   1.497   5.722  0.3489 -0.5271  0.2398
  257ntf    fn4 1741   1.801   1.440   5.617 -0.0238  0.2797  0.2149
  257ntf    fn4 1742   1.805   1.511   5.817  0.1346 -0.8234 -0.1370
  257ntf    on5 1743   1.676   1.682   5.511 -0.0759  0.0735 -0.1697
  257ntf    on5 1744   1.703   1.762   5.748  0.1829  0.5581  0.2196
  257ntf    on5 1745   1.911   1.859   5.406 -0.1731  0.7053  0.2281
  257ntf    on5 1746   2.123   1.769   5.494 -0.3104  0.3271  0.6304
  257ntf    fn4 1747   2.037   2.075   5.581  0.9736  0.0497 -0.0896
  257ntf    fn4 1748   1.883   1.984   5.688  0.4005  0.0253 -0.3639
  257ntf    fn4 1749   2.080   1.934   5.735  0.5269 -0.2052 -0.1070
  258ntf    cn1 1750   2.258   0.872   5.467  0.0497  0.0292 -0.0926
  258ntf    sn2 1751   2.409   0.849   5.368  0.2197  0.0344  0.1633
  258ntf    nn3 1752   2.462   0.711   5.419  0.3796  0.1601  0.3384
  258ntf    sn2 1753   2.440   0.563   5.371 -0.1517  0.3369  0.0255
  258ntf    cn1 1754   2.609   0.540   5.307 -0.1613  0.0535  0.1031
  258ntf    fn4 1755   2.172   0.775   5.440  0.7403 -0.7382  0.4081
  258ntf    fn4 1756   2.281   0.874   5.598 -0.0780 -0.0646 -0.0688
  258ntf    fn4 1757   2.195   0.985   5.443 -0.2304 -0.2185 -0.5381
  258ntf    on5 1758   2.359   0.845   5.233  0.7395  0.2812 -0.0401
  258ntf    on5 1759   2.500   0.959   5.391 -0.0428  0.2362  0.2460
  258ntf    on5 1760   2.369   0.531   5.249  0.1408  0.5894 -0.2127
  258ntf    on5 1761   2.439   0.463   5.475  0.8841 -0.1425 -0.4036
  258ntf    fn4 1762   2.630   0.415   5.269 -0.3534  0.2366 -0.6168
  258ntf    fn4 1763   2.633   0.615   5.201 -0.2865 -0.1090 -0.0398
  258ntf    fn4 1764   2.700   0.569   5.398  0.2857  0.1241 -0.3638
  259ntf    cn1 1765   1.175   1.126   0.122 -0.1470  0.2463  0.0298
  259ntf    sn2 1766   1.305   1.025   0.043 -0.1885  0.1844  0.0405
  259ntf    nn3 1767   1.434   1.088   0.106 -0.3030  0.4831 -0.0203
  259ntf    sn2 1768   1.523   1.211   0.065 -0.0355  0.3082  0.0309
  259ntf    cn1 1769   1.536   1.277   0.234 -0.3407 -0.1561  0.2400
  259ntf    fn4 1770   1.064   1.058   0.101 -0.0826  0.1432  0.0233
  259ntf    fn4 1771   1.187   1.141   0.253 -0.0891  0.1011  0.0412
  259ntf    fn4 1772   1.159   1.247   0.070 -0.2655  0.0131 -0.4826
  259ntf    on5 1773   1.283   0.895   0.100  0.3257  0.0772 -0.0075
  259ntf    on5 1774   1.287   1.041  -0.099 -0.0059  0.0646  0.0041
  259ntf    on5 1775   1.453   1.317  -0.004 -0.1190 -0.0026 -0.3661
  259ntf    on5 1776   1.663   1.188   0.039 -0.0345 -0.1298  0.4190
  259ntf    fn4 1777   1.593   1.396   0.246 -0.2403 -0.1294 -0.4494
  259ntf    fn4 1778   1.420   1.288   0.296 -0.3280  0.4433  0.1649
  259ntf    fn4 1779   1.603   1.194   0.311 -0.0694  0.4528  0.6698
  260ntf    cn1 1780   1.297   2.189   4.492 -0.1557  0.4286  0.3117
  260ntf    sn2 1781   1.129   2.125   4.464 -0.0770  0.3944 -0.0874
  260ntf    nn3 1782   1.043   2.255   4.483  0.0003  0.4896 -0.3780
  260ntf    sn2 1783   0.915   2.279   4.571  0.1419  0.2006 -0.0910
  260ntf    cn1 1784   0.833   2.408   4.473 -0.0684  0.2587  0.1600
  260ntf    fn4 1785   1.299   2.243   4.612  0.1588  0.6459  0.2090
  260ntf    fn4 1786   1.397   2.103   4.499  0.1373  0.7407  0.0179
  260ntf    fn4 1787   1.334   2.287   4.412 -0.2284 -0.3645 -0.7188
  260ntf    on5 1788   1.131   2.072   4.329  0.3664  0.6910 -0.2007
  260ntf    on5 1789   1.109   2.022   4.562 -0.7312  0.8652  0.2762
  260ntf    on5 1790   0.932   2.343   4.699  0.4780  0.2408 -0.1536
  260ntf    on5 1791   0.818   2.172   4.567 -0.0047  0.2879  0.8996
  260ntf    fn4 1792   0.825   2.368   4.347  0.2791  0.1830  0.1591
  260ntf    fn4 1793   0.713   2.449   4.510 -0.1992  0.0335 -0.0125
  260ntf    fn4 1794   0.906   2.518   4.458  0.9538 -0.4383 -0.0977
  261ntf    cn1 1795   0.705   2.127   1.472  0.1696 -0.2170 -0.2761
  261ntf    sn2 1796   0.714   2.035   1.316 -0.1175 -0.2349 -0.2825
  261ntf    nn3 1797   0.595   1.935   1.335 -0.1026 -0.2331 -0.1770
  261ntf    sn2 1798   0.599   1.778   1.331  0.1664 -0.2270 -0.1271
  261ntf    cn1 1799   0.465   1.750   1.212 -0.1398  0.3284  0.0859
  261ntf    fn4 1800   0.782   2.235   1.474  0.0643 -0.1484  1.0056
  261ntf    fn4 1801   0.582   2.170   1.491  0.3618  0.3674 -0.3281
  261ntf    fn4 1802   0.728   2.048   1.576 -0.0956 -0.0409 -0.0823
  261ntf    on5 1803   0.701   2.133   1.211 -0.3430  0.2212  0.1669
  261ntf    on5 1804   0.845   1.975   1.322  0.2382  0.5217 -0.3509
  261ntf    on5 1805   0.551   1.722   1.455 -0.2502  0.4964  0.0398
  261ntf    on5 1806   0.716   1.719   1.270  0.1060 -0.4516 -0.0276
  261ntf    fn4 1807   0.440   1.624   1.180  0.0104  0.3523 -0.1212
  261ntf    fn4 1808   0.350   1.807   1.246 -0.0760  0.4118  0.1627
  261ntf    fn4 1809   0.488   1.804   1.093 -0.4979  0.0083 -0.1300
  262ntf    cn1 1810   2.164   0.857   2.111  0.1925 -0.1527 -0.0466
  262ntf    sn2 1811   2.294   0.966   2.178  0.2057 -0.2036  0.0117
  262ntf    nn3 1812   2.359   0.880   2.291 -0.6231 -0.8072  0.0415
  262ntf    sn2 1813   2.327   0.858   2.443  0.1567 -0.1549  0.3105
  262ntf    cn1 1814   2.428   0.994   2.509  0.0262  0.1934 -0.2012
  262ntf    fn4 1815   2.216   0.738   2.087  0.3531 -0.0712 -0.1033
  262ntf    fn4 1816   2.063   0.854   2.197  0.4129 -0.3825  0.2102
  262ntf    fn4 1817   2.118   0.892   1.993  0.0784  0.0087  0.0458
  262ntf    on5 1818   2.382   0.988   2.066  0.2296  0.1974  0.1062
  262ntf    on5 1819   2.219   1.082   2.221  0.4115 -0.2542  0.5084
  262ntf    on5 1820   2.393   0.743   2.499  0.3088 -0.1778  0.0820
  262ntf    on5 1821   2.191   0.887   2.481  0.1587 -0.0399  0.2299
  262ntf    fn4 1822   2.558   0.969   2.520 -0.0588 -0.0825  0.1901
  262ntf    fn4 1823   2.418   1.112   2.449  0.8543  0.0606 -0.6270
  262ntf    fn4 1824   2.384   1.018   2.631 -0.2183  0.0213 -0.2550
  263ntf    cn1 1825   0.771   0.940   2.759 -0.6424  0.3884  0.0968
  263ntf    sn2 1826   0.624   0.850   2.702 -0.0360 -0.3533 -0.3316
  263ntf    nn3 1827   0.688   0.768   2.585  1.0272 -0.0784  0.0452
  263ntf    sn2 1828   0.662   0.622   2.534  0.0137  0.1428 -0.1038
  263ntf    cn1 1829   0.815   0.538   2.586 -0.2739 -0.1837  0.2261
  263ntf    fn4 1830   0.790   1.041   2.675 -0.5366  0.4527  0.1982
  263ntf    fn4 1831   0.769   1.000   2.876 -0.3288 -0.3397  0.4847
  263ntf    fn4 1832   0.871   0.853   2.757 -0.6042  0.4388 -0.2536
  263ntf    on5 1833   0.593   0.774   2.820  0.0734  0.0031 -0.0704
  263ntf    on5 1834   0.537   0.960   2.666  0.3602  0.2296  0.4759
  263ntf    on5 1835   0.662   0.611   2.390  0.1500  0.1336 -0.1030
  263ntf    on5 1836   0.564   0.542   2.604 -0.1230  0.0438 -0.4061
  263ntf    fn4 1837   0.821   0.497   2.711  0.1697 -0.4169  0.1306
  263ntf    fn4 1838   0.835   0.436   2.504  0.0179 -0.1923  0.3088
  263ntf    fn4 1839   0.920   0.614   2.557 -0.3734 -0.2072 -0.2036
  264ntf    cn1 1840   2.007   0.048   5.355  0.4621 -0.0568  0.1392
  264ntf    sn2 1841   1.847   0.126   5.391  0.3154 -0.1770 -0.2438
  264ntf    nn3 1842   1.815   0.174   5.245  0.1586 -0.3656 -0.2709
  264ntf    sn2 1843   1.676   0.220   5.188  0.0791  0.0500  0.2451
  264ntf    cn1 1844   1.616   0.061   5.122  0.4561 -0.0692  0.1886
  264ntf    fn4 1845   2.005  -0.044   5.260 -0.5557  0.2340 -0.1306
  264ntf    fn4 1846   2.093   0.140   5.315  0.0401  0.4160  0.3159
  264ntf    fn4 1847   2.068   0.001   5.463 -0.1436 -0.4692  0.3091
  264ntf    on5 1848   1.774   0.013   5.440  0.1648 -0.1929 -0.5015
  264ntf    on5 1849   1.892   0.226   5.485  0.4408 -0.6105  0.1586
  264ntf    on5 1850   1.697   0.306   5.074 -0.5372 -0.2307 -0.0918
  264ntf    on5 1851   1.575   0.253   5.285 -0.0775 -0.8240  0.3909
  264ntf    fn4 1852   1.526   0.007   5.202 -0.1786 -0.0274 -0.4905
  264ntf    fn4 1853   1.564   0.058   5.000 -0.6331  0.0501  0.6384
  264ntf    fn4 1854   1.712  -0.029   5.112  0.3226 -0.2188  0.2476
  265ntf    cn1 1855   1.411   0.930   4.696  0.0181 -0.0244  0.4180
  265ntf    sn2 1856   1.402   0.848   4.858 -0.2589 -0.6850  0.0714
  265ntf    nn3 1857   1.545   0.785   4.857  0.3793  0.7385  0.0175
  265ntf    sn2 1858   1.669   0.816   4.949  0.3339 -0.2176  0.4116
  265ntf    cn1 1859   1.607   0.748   5.106  0.0204 -0.1373  0.3250
  265ntf    fn4 1860   1.532   0.976   4.670  0.0030 -0.1942  0.0401
  265ntf    fn4 1861   1.385   0.850   4.594 -1.0178  0.0431  0.6234
  265ntf    fn4 1862   1.328   1.032   4.694  0.2332  0.1493  0.3479
  265ntf    on5 1863   1.384   0.953   4.955  0.3993 -0.6084  0.1092
  265ntf    on5 1864   1.291   0.755   4.851 -0.2936 -0.6145 -0.3140
  265ntf    on5 1865   1.690   0.954   4.982  0.3956 -0.2115  0.3465
  265ntf    on5 1866   1.788   0.739   4.921  0.2015 -0.2577 -0.0431
  265ntf    fn4 1867   1.532   0.835   5.172 -0.1237 -0.2607  0.3223
  265ntf    fn4 1868   1.538   0.637   5.088  0.2462 -0.3427  0.6979
  265ntf    fn4 1869   1.705   0.712   5.188 -0.2117  0.6356  0.9552
  266ntf    cn1 1870   1.315   0.503   2.176 -0.4286  0.0647  0.0085
  266ntf    sn2 1871   1.223   0.554   2.324 -0.4319 -0.0368  0.0414
  266ntf    nn3 1872   1.175   0.418   2.387  0.0389 -0.1677  0.1222
  266ntf    sn2 1873   1.249   0.332   2.495  0.0965 -0.2916 -0.0162
  266ntf    cn1 1874   1.195   0.409   2.650 -0.3611 -0.0375 -0.3004
  266ntf    fn4 1875   1.247   0.406   2.116 -0.6950  0.2340  0.0342
  266ntf    fn4 1876   1.331   0.595   2.082  0.7695 -0.3825 -0.2324
  266ntf    fn4 1877   1.436   0.454   2.199 -0.6404 -0.4495  0.0547
  266ntf    on5 1878   1.315   0.627   2.407 -0.0876 -0.2641 -0.1391
  266ntf    on5 1879   1.110   0.628   2.275  0.3657  0.7399 -0.6408
  266ntf    on5 1880   1.393   0.340   2.493  0.0630  0.2421 -0.4384
  266ntf    on5 1881   1.199   0.197   2.503  0.0898 -0.3069 -0.3075
  266ntf    fn4 1882   1.221   0.539   2.650 -0.2841 -0.0507  0.0141
  266ntf    fn4 1883   1.072   0.399   2.698 -0.2068  0.1768  0.1449
  266ntf    fn4 1884   1.268   0.360   2.749 -1.0306  0.0575  0.2440
  267ntf    cn1 1885   1.993   2.279   2.871  0.3175 -0.2153  0.1450
  267ntf    sn2 1886   1.899   2.433   2.852  0.0878 -0.4170 -0.3658
  267ntf    nn3 1887   2.000   2.535   2.915 -0.5496  0.1745 -0.2923
  267ntf    sn2 1888   2.125   2.604   2.850 -0.1804 -0.2602 -0.0474
  267ntf    cn1 1889   2.265   2.568   2.961  0.2164 -0.2832 -0.5545
  267ntf    fn4 1890   1.922   2.175   2.831 -0.5269  0.3503  0.1629
  267ntf    fn4 1891   2.104   2.267   2.800  0.1059 -0.1250 -0.2021
  267ntf    fn4 1892   2.031   2.266   2.997  0.1065  0.1315  0.2427
  267ntf    on5 1893   1.863   2.449   2.713  0.3847  0.3789 -0.3536
  267ntf    on5 1894   1.791   2.406   2.944  0.2519  0.0737 -0.0245
  267ntf    on5 1895   2.126   2.748   2.856 -0.3630 -0.2663  0.1340
  267ntf    on5 1896   2.178   2.552   2.727 -0.2946 -0.0718 -0.1771
  267ntf    fn4 1897   2.244   2.509   3.077 -0.4213 -0.1486 -0.5970
  267ntf    fn4 1898   2.352   2.487   2.901  0.7604  0.2043 -0.4300
  267ntf    fn4 1899   2.339   2.673   2.991 -0.5187  0.1548 -0.2504
  268ntf    cn1 1900   1.351   0.731   0.530  0.2009 -0.0658  0.0757
  268ntf    sn2 1901   1.228   0.667   0.648  0.1254 -0.0319  0.0159
  268ntf    nn3 1902   1.308   0.725   0.770 -0.2640 -0.1328  0.3196
  268ntf    sn2 1903   1.333   0.659   0.910  0.0340 -0.2371  0.2176
  268ntf    cn1 1904   1.271   0.798   1.010 -0.2793  0.0120 -0.3230
  268ntf    fn4 1905   1.348   0.862   0.511  0.0944 -0.0465  0.2283
  268ntf    fn4 1906   1.476   0.704   0.564  0.2592 -0.1132 -0.1706
  268ntf    fn4 1907   1.339   0.674   0.411 -0.0658  0.0942  0.0239
  268ntf    on5 1908   1.104   0.734   0.618 -0.0594 -0.4203 -0.0885
  268ntf    on5 1909   1.233   0.524   0.635 -0.3595  0.0076 -0.6319
  268ntf    on5 1910   1.474   0.667   0.942  0.0234  0.4581  0.1061
  268ntf    on5 1911   1.256   0.546   0.955 -0.3786 -0.0179  0.0664
  268ntf    fn4 1912   1.162   0.851   0.956 -0.3301  0.0130 -0.2198
  268ntf    fn4 1913   1.242   0.760   1.133 -0.3531  0.6996 -0.1202
  268ntf    fn4 1914   1.366   0.891   1.014 -0.0241 -0.2698  0.1661
  269ntf    cn1 1915   0.716   0.464   1.370  0.2963 -0.0855  0.5023
  269ntf    sn2 1916   0.892   0.485   1.333  0.2012  0.2776  0.2513
  269ntf    nn3 1917   0.914   0.629   1.391  0.0764  0.4081 -0.0253
  269ntf    sn2 1918   0.928   0.670   1.541  0.1108 -0.2641  0.1574
  269ntf    cn1 1919   1.106   0.709   1.545  0.1856 -0.5988  0.0893
  269ntf    fn4 1920   0.683   0.476   1.498  0.6364 -0.2001  0.6003
  269ntf    fn4 1921   0.636   0.550   1.309  0.4182 -0.4666 -0.2128
  269ntf    fn4 1922   0.674   0.344   1.331  0.1168  0.1334  0.0162
  269ntf    on5 1923   0.958   0.384   1.412 -0.3985  0.0096  0.4171
  269ntf    on5 1924   0.908   0.483   1.189  0.0664 -0.0491  0.2387
  269ntf    on5 1925   0.908   0.568   1.641  0.5035 -0.4105  0.0892
  269ntf    on5 1926   0.888   0.806   1.566  0.8665 -0.0677  0.3248
  269ntf    fn4 1927   1.143   0.746   1.666 -0.0977  0.1366 -0.0425
  269ntf    fn4 1928   1.185   0.608   1.512  0.3809 -0.3061 -0.3496
  269ntf    fn4 1929   1.135   0.810   1.465  0.1026 -0.0407  0.7578
  270ntf    cn1 1930   1.742   1.423   3.193 -0.3286 -0.3438 -0.5754
  270ntf    sn2 1931   1.847   1.285   3.248  0.0576  0.1052 -0.1695
  270ntf    nn3 1932   1.981   1.335   3.183 -0.4446  0.0830 -1.2378
  270ntf    sn2 1933   2.113   1.260   3.145  0.0985  0.3859  0.0220
  270ntf    cn1 1934   2.089   1.252   2.965 -0.0910  0.1409  0.0587
  270ntf    fn4 1935   1.612   1.405   3.205 -0.3035 -0.1330  0.0900
  270ntf    fn4 1936   1.772   1.538   3.251 -0.6062  0.0110 -1.1317
  270ntf    fn4 1937   1.750   1.449   3.064 -0.4114  0.0669 -0.4985
  270ntf    on5 1938   1.836   1.288   3.392  0.5262 -0.2948 -0.1219
  270ntf    on5 1939   1.782   1.173   3.184  0.2860 -0.1370  0.0210
  270ntf    on5 1940   2.141   1.125   3.187 -0.7185  0.2048 -0.0132
  270ntf    on5 1941   2.221   1.355   3.160  0.1400  0.3578 -0.0937
  270ntf    fn4 1942   2.192   1.198   2.901  0.4635  0.5302  0.6121
  270ntf    fn4 1943   1.983   1.175   2.947 -0.1187  0.1974 -0.0198
  270ntf    fn4 1944   2.073   1.371   2.910 -0.3878  0.0736 -0.0027
   2.30338   2.30338   6.43415
