Converted from moscito
23760
    1SOL     ow    1   0.938   4.593   4.516  0.0032 -0.4143  0.3345
    1SOL     hw    2   0.851   4.623   4.543  0.0748 -0.6407  0.8293
    1SOL     hw    3   0.948   4.625   4.427 -0.3001  0.2374  0.5282
    1SOL     vw    4   0.928   4.601   4.508 -0.0274 -0.3586  0.4253
    2SOL     ow    5   5.517   0.596   0.999  0.1814 -0.3243  0.0512
    2SOL     hw    6   5.475   0.573   1.082 -0.8833 -0.0669 -0.4053
    2SOL     hw    7   5.466   0.669   0.964  3.0224  2.3425  1.0679
    2SOL     vw    8   5.505   0.602   1.005  0.4158  0.0615  0.1252
    3SOL     ow    9   4.590   3.348   5.583 -0.6439 -0.0898 -0.1908
    3SOL     hw   10   4.639   3.416   5.628 -1.3149  1.0128 -1.0790
    3SOL     hw   11   4.655   3.307   5.524 -0.9046  1.9344 -2.0044
    3SOL     vw   12   4.605   3.352   5.581 -0.7668  0.3228 -0.5472
    4SOL     ow   13   4.990   1.529   4.906  0.2248 -0.1291 -0.0366
    4SOL     hw   14   5.063   1.571   4.860 -1.5106  1.5529 -1.3731
    4SOL     hw   15   5.033   1.472   4.970  2.7209  1.4712 -0.1375
    4SOL     vw   16   5.006   1.527   4.909  0.3254  0.3040 -0.2260
    5SOL     ow   17   6.676   6.317   3.827 -0.1438 -0.0126 -0.2711
    5SOL     hw   18   6.687   6.346   3.737 -0.1738 -0.6957 -0.4922
    5SOL     hw   19   6.653   6.397   3.875  2.1208  0.8026 -0.4318
    5SOL     vw   20   6.674   6.332   3.822  0.1509  0.0048 -0.3215
    6SOL     ow   21   6.387   0.641   2.915 -0.2530  0.0586 -0.2937
    6SOL     hw   22   6.388   0.578   2.842 -1.1939 -1.8000  1.2036
    6SOL     hw   23   6.307   0.692   2.902 -1.1032 -1.1324  0.0866
    6SOL     vw   24   6.376   0.639   2.903 -0.4892 -0.3438 -0.0459
    7SOL     ow   25   2.833   6.734   2.888 -0.1300  0.7201 -0.1357
    7SOL     hw   26   2.813   6.646   2.918  0.5128  0.7559  0.4242
    7SOL     hw   27   2.926   6.731   2.863  0.7941  1.9097  2.6507
    7SOL     vw   28   2.843   6.722   2.889  0.0768  0.8814  0.3057
    8SOL     ow   29   5.713   2.260   3.096 -0.3159  0.3005  0.0632
    8SOL     hw   30   5.646   2.292   3.156  0.5218 -1.9433  2.3913
    8SOL     hw   31   5.787   2.237   3.153  1.5107  0.3527 -2.1286
    8SOL     vw   32   5.714   2.261   3.112  0.0355  0.0112  0.0812
    9SOL     ow   33   3.918   4.255   4.717  0.3252 -0.2496  0.4648
    9SOL     hw   34   3.951   4.342   4.736  2.2780 -0.1586 -2.6083
    9SOL     hw   35   3.975   4.222   4.648 -1.8461 -3.0128 -0.2172
    9SOL     vw   36   3.930   4.262   4.711  0.2964 -0.6022 -0.0305
   10SOL     ow   37   6.599   5.211   2.818 -0.5888  0.1510  0.4011
   10SOL     hw   38   6.548   5.282   2.856 -1.6538  0.3305 -1.2966
   10SOL     hw   39   6.535   5.146   2.791  0.2896 -0.9011  0.7588
   10SOL     vw   40   6.584   5.212   2.819 -0.6137  0.0358  0.2244
   11SOL     ow   41   2.759   3.570   5.819  1.0966  0.5517 -0.3592
   11SOL     hw   42   2.672   3.588   5.784  0.7596 -0.9095 -0.3351
   11SOL     hw   43   2.743   3.532   5.905  1.8070  1.2399  0.0923
   11SOL     vw   44   2.746   3.567   5.826  1.1458  0.4498 -0.2964
   12SOL     ow   45   4.185   0.711   6.452  0.0504  0.3631  0.1915
   12SOL     hw   46   4.275   0.740   6.438  0.5232 -0.6562  0.9694
   12SOL     hw   47   4.171   0.644   6.386  0.1658 -0.0882  0.6202
   12SOL     vw   48   4.195   0.706   6.442  0.1280  0.1691  0.3510
   13SOL     ow   49   1.072   4.379   2.942 -0.5571  0.5675 -0.2708
   13SOL     hw   50   0.978   4.367   2.926 -0.5821  0.7092 -0.2336
   13SOL     hw   51   1.106   4.417   2.861  0.1687 -2.8602 -1.7309
   13SOL     vw   52   1.064   4.382   2.929 -0.4646  0.1338 -0.4585
   14SOL     ow   53   4.169   1.256   1.757  0.4353  0.8509 -0.0486
   14SOL     hw   54   4.156   1.322   1.689  0.0375  0.0901 -0.7362
   14SOL     hw   55   4.243   1.204   1.726  0.3209  0.5634  0.1541
   14SOL     vw   56   4.177   1.257   1.744  0.3676  0.7125 -0.1126
   15SOL     ow   57   2.876   5.165   3.316  0.7930  0.1410 -0.5025
   15SOL     hw   58   2.815   5.234   3.290 -2.3619 -2.2151  0.1228
   15SOL     hw   59   2.895   5.183   3.408  1.3125  1.0364 -0.7721
   15SOL     vw   60   2.871   5.177   3.325  0.4452 -0.0513 -0.4555
   16SOL     ow   61   6.271   1.616   5.000 -0.1552 -0.1146 -0.8008
   16SOL     hw   62   6.179   1.641   5.001 -0.1113  0.0517 -0.0541
   16SOL     hw   63   6.285   1.572   5.084  0.5598  0.2916 -0.6927
   16SOL     vw   64   6.261   1.614   5.011 -0.0551 -0.0390 -0.6876
   17SOL     ow   65   5.945   1.233   2.153  0.1788 -0.2034 -0.1651
   17SOL     hw   66   5.964   1.321   2.187 -3.6514  0.6905  0.1044
   17SOL     hw   67   5.936   1.179   2.232 -0.1155 -0.2110 -0.2058
   17SOL     vw   68   5.947   1.238   2.168 -0.3655 -0.0865 -0.1349
   18SOL     ow   69   6.561   4.524   0.051  0.1227  0.2464 -0.6008
   18SOL     hw   70   6.494   4.504   0.116 -1.2052 -2.1822 -2.5355
   18SOL     hw   71   6.641   4.487   0.088 -0.6937 -1.4823 -0.4321
   18SOL     vw   72   6.563   4.517   0.064 -0.1602 -0.3023 -0.8338
   19SOL     ow   73   2.305   3.740   1.568 -0.1330  0.3049 -0.1857
   19SOL     hw   74   2.312   3.663   1.512  0.1967  1.4702 -1.8593
   19SOL     hw   75   2.296   3.813   1.506 -1.8852  1.4915  1.3379
   19SOL     vw   76   2.304   3.740   1.552 -0.3206  0.6152 -0.2055
   20SOL     ow   77   2.435   3.303   5.120 -0.2361  0.6874  0.4995
   20SOL     hw   78   2.427   3.346   5.035 -0.3990 -0.0255  0.1428
   20SOL     hw   79   2.483   3.365   5.174 -0.9515  1.5469  0.1732
   20SOL     vw   80   2.440   3.317   5.116 -0.3518  0.7066  0.4091
   21SOL     ow   81   5.554   0.451   0.644  0.0138  0.1193 -0.0698
   21SOL     hw   82   5.492   0.428   0.713  0.2693 -0.2214  0.0501
   21SOL     hw   83   5.640   0.444   0.686  0.1385  0.5821 -0.2357
   21SOL     vw   84   5.558   0.447   0.659  0.0639  0.1354 -0.0758
   22SOL     ow   85   4.859   0.570   0.655 -0.5141 -0.2886  0.1749
   22SOL     hw   86   4.767   0.593   0.669 -0.9334 -0.2115 -2.2723
   22SOL     hw   87   4.901   0.653   0.631  0.5957 -0.0338  2.6424
   22SOL     vw   88   4.852   0.584   0.654 -0.4230 -0.2448  0.1776
   23SOL     ow   89   3.465   4.613   6.719  0.2684 -0.4567 -0.2399
   23SOL     hw   90   3.402   4.671   6.676  2.0226  0.2857 -1.9769
   23SOL     hw   91   3.469   4.644   6.810 -0.3492  0.8053 -0.6211
   23SOL     vw   92   3.457   4.624   6.725  0.4184 -0.1924 -0.5195
   24SOL     ow   93   1.485   6.290   5.487 -0.2757  0.1909  0.0793
   24SOL     hw   94   1.463   6.245   5.405  0.8031  0.4334 -0.3633
   24SOL     hw   95   1.484   6.383   5.464 -1.4829  0.3582  0.7378
   24SOL     vw   96   1.482   6.296   5.473 -0.2926  0.2449  0.1075
   25SOL     ow   97   2.626   5.238   6.857 -0.3500  0.0100  0.3979
   25SOL     hw   98   2.668   5.272   6.936  0.8874 -0.6029  0.0319
   25SOL     hw   99   2.678   5.160   6.835 -1.4364 -0.5323 -0.3204
   25SOL     vw  100   2.639   5.232   6.865 -0.3301 -0.1426  0.2551
   26SOL     ow  101   2.295   3.094   1.663  0.1962  0.7044  0.4734
   26SOL     hw  102   2.389   3.114   1.663  0.4729 -0.1200 -2.2078
   26SOL     hw  103   2.288   3.017   1.605 -2.2363  1.4304 -0.2931
   26SOL     vw  104   2.306   3.086   1.655 -0.0882  0.6914  0.0186
   27SOL     ow  105   2.178   3.510   4.989 -0.2701 -0.8188  0.9082
   27SOL     hw  106   2.125   3.433   4.967  0.2652 -1.3457  1.4136
   27SOL     hw  107   2.219   3.536   4.906 -1.7722 -0.0329  0.3842
   27SOL     vw  108   2.177   3.503   4.975 -0.3978 -0.7845  0.9058
   28SOL     ow  109   6.614   2.944   5.856 -0.0167 -0.7753  0.1744
   28SOL     hw  110   6.579   3.033   5.865  0.5075 -0.3962 -1.1969
   28SOL     hw  111   6.633   2.916   5.945  1.3941  1.1607  0.5526
   28SOL     vw  112   6.612   2.952   5.869  0.2387 -0.4699  0.0432
   29SOL     ow  113   5.378   2.036   6.216 -0.2317 -0.3588  0.1705
   29SOL     hw  114   5.307   2.094   6.189 -1.5189 -1.6297  0.6606
   29SOL     hw  115   5.361   2.021   6.310  0.6649 -0.7131  0.2826
   29SOL     vw  116   5.366   2.042   6.225 -0.2835 -0.5733  0.2501
   30SOL     ow  117   2.697   5.616   1.334  0.3698  0.3038 -0.1560
   30SOL     hw  118   2.780   5.656   1.362  0.2024 -0.7504  1.9887
   30SOL     hw  119   2.630   5.677   1.364  0.2105 -0.6627  1.6003
   30SOL     vw  120   2.699   5.630   1.342  0.3266  0.0374  0.3587
   31SOL     ow  121   5.740   2.160   1.984  0.3504  0.0455 -0.5169
   31SOL     hw  122   5.812   2.101   1.963 -1.3349 -1.2757 -2.9524
   31SOL     hw  123   5.684   2.110   2.044 -1.3169 -1.1651 -2.9375
   31SOL     vw  124   5.742   2.146   1.989 -0.0918 -0.2885 -1.1576
   32SOL     ow  125   2.745   5.579   1.017 -0.2425 -0.1015  0.1890
   32SOL     hw  126   2.711   5.610   1.101 -0.5688 -1.6427  0.6581
   32SOL     hw  127   2.667   5.550   0.969  0.1771 -1.9930  0.5624
   32SOL     vw  128   2.730   5.579   1.022 -0.2301 -0.5541  0.3002
   33SOL     ow  129   6.907   2.911   0.014  0.0135  0.0018  0.6232
   33SOL     hw  130   6.971   2.852  -0.025  0.5957 -0.9531  2.9072
   33SOL     hw  131   6.905   2.986  -0.046  1.9893 -0.6921 -0.4102
   33SOL     vw  132   6.915   2.913   0.001  0.3510 -0.2158  0.7882
   34SOL     ow  133   0.438   6.598   0.062  0.3472  0.1515 -0.0669
   34SOL     hw  134   0.403   6.665   0.004 -2.2427 -1.2709 -0.2963
   34SOL     hw  135   0.394   6.613   0.146  2.3825  0.8238  0.9386
   34SOL     vw  136   0.428   6.609   0.065  0.2740  0.0525  0.0355
   35SOL     ow  137   2.954   2.268   2.207  0.4556 -0.1812 -0.5031
   35SOL     hw  138   2.955   2.349   2.156 -1.0181  0.6651  0.7407
   35SOL     hw  139   2.910   2.292   2.289 -0.4929 -2.3660 -0.3264
   35SOL     vw  140   2.948   2.282   2.211  0.1359 -0.3577 -0.3159
   36SOL     ow  141   2.287   1.091   4.930  0.2992 -0.2930  0.2280
   36SOL     hw  142   2.307   0.997   4.934 -0.2003 -0.6767 -3.0891
   36SOL     hw  143   2.373   1.134   4.932  0.5194 -0.7629  2.0255
   36SOL     vw  144   2.301   1.084   4.931  0.2623 -0.4056  0.0274
   37SOL     ow  145   1.742   2.031   1.021 -0.4903  0.4993  1.0590
   37SOL     hw  146   1.812   2.097   1.022 -2.1311  2.4361 -0.8220
   37SOL     hw  147   1.696   2.044   1.104 -0.9167  1.9691  0.6320
   37SOL     vw  148   1.745   2.042   1.032 -0.7630  0.9488  0.7546
   38SOL     ow  149   4.548   1.297   1.709  0.5237  0.2855  0.6114
   38SOL     hw  150   4.522   1.332   1.794 -0.3887  1.7115 -0.2141
   38SOL     hw  151   4.631   1.340   1.689 -0.9492  2.7617 -0.7368
   38SOL     vw  152   4.556   1.307   1.717  0.2089  0.8004  0.3246
   39SOL     ow  153   1.164   6.252   7.055  0.2315  0.4466 -0.5350
   39SOL     hw  154   1.130   6.236   7.144  1.2388  2.6543  0.3140
   39SOL     hw  155   1.107   6.320   7.019 -0.4333 -0.7278 -1.7997
   39SOL     vw  156   1.152   6.259   7.062  0.2768  0.5829 -0.5898
   40SOL     ow  157   0.469   3.536   6.598 -0.6332 -0.3381  0.6426
   40SOL     hw  158   0.440   3.584   6.520  1.0463 -0.1395  0.1027
   40SOL     hw  159   0.502   3.604   6.657  0.5715 -0.7021  0.4068
   40SOL     vw  160   0.469   3.551   6.596 -0.2526 -0.3599  0.5403
   41SOL     ow  161   0.318   0.733   3.561  0.1586 -0.1246 -0.4356
   41SOL     hw  162   0.397   0.787   3.564  1.5202 -2.0263 -0.4458
   41SOL     hw  163   0.292   0.723   3.653  0.6913 -0.5392 -0.3263
   41SOL     vw  164   0.325   0.739   3.574  0.4086 -0.4302 -0.4225
   42SOL     ow  165   6.107   3.173   4.533 -0.3348  0.6180 -0.4265
   42SOL     hw  166   6.112   3.078   4.522 -1.1095 -0.0444  3.3414
   42SOL     hw  167   6.017   3.195   4.508 -1.0826 -0.2204  1.3367
   42SOL     vw  168   6.096   3.163   4.529 -0.5357  0.4199  0.3033
   43SOL     ow  169   0.059   0.573   1.183 -0.7474 -0.1944 -0.3033
   43SOL     hw  170   0.024   0.517   1.252  1.2800 -0.4326  0.6030
   43SOL     hw  171   0.133   0.524   1.148  0.3560  1.3910 -0.2868
   43SOL     vw  172   0.064   0.559   1.188 -0.3343 -0.0167 -0.1816
   44SOL     ow  173   2.938   4.111   1.498 -0.2447 -0.1238  0.3865
   44SOL     hw  174   2.949   4.199   1.535  0.5734  1.1374 -2.5538
   44SOL     hw  175   2.849   4.087   1.522 -0.1612  1.0593  2.1067
   44SOL     vw  176   2.928   4.120   1.506 -0.1256  0.1988  0.2255
   45SOL     ow  177   5.694   6.021   3.852 -0.4539 -0.1338 -0.6417
   45SOL     hw  178   5.680   6.059   3.938  0.5829  0.0112 -0.5304
   45SOL     hw  179   5.780   5.979   3.857 -0.4231 -0.2093 -1.5734
   45SOL     vw  180   5.703   6.020   3.864 -0.3133 -0.1245 -0.7499
   46SOL     ow  181   1.921   0.846   4.925 -0.1991 -0.0512 -0.2800
   46SOL     hw  182   1.993   0.827   4.866  0.2739 -1.3219  0.6668
   46SOL     hw  183   1.850   0.789   4.896 -0.5297  0.5302 -0.6377
   46SOL     vw  184   1.921   0.836   4.914 -0.1803 -0.1422 -0.2024
   47SOL     ow  185   5.213   5.203   0.781 -0.1914 -0.1366  0.3264
   47SOL     hw  186   5.169   5.163   0.706 -0.7541  2.3722 -0.7756
   47SOL     hw  187   5.253   5.129   0.827  0.2407 -1.7879 -2.4604
   47SOL     vw  188   5.212   5.188   0.777 -0.2089 -0.0234 -0.1867
   48SOL     ow  189   1.900   4.494   3.899 -0.1163 -0.0725  0.0860
   48SOL     hw  190   1.836   4.549   3.945  0.7074  0.7237  0.3192
   48SOL     hw  191   1.917   4.541   3.818  1.4166  0.6246  0.7750
   48SOL     vw  192   1.893   4.508   3.895  0.1946  0.1245  0.2077
   49SOL     ow  193   3.963   6.500   5.142 -0.3063 -0.5498 -0.0317
   49SOL     hw  194   4.050   6.481   5.179 -0.2973  1.6019  1.1872
   49SOL     hw  195   3.923   6.414   5.132  2.1204 -1.6732 -1.1002
   49SOL     vw  196   3.969   6.486   5.146  0.0151 -0.4144 -0.0114
   50SOL     ow  197   1.170   3.535   0.501 -0.2268 -0.3133  0.3086
   50SOL     hw  198   1.192   3.621   0.537  0.6407  0.8144 -2.6120
   50SOL     hw  199   1.226   3.474   0.549  1.1297  1.1131  0.6364
   50SOL     vw  200   1.180   3.539   0.512  0.0666  0.0236 -0.0334
   51SOL     ow  201   1.389   5.331   2.096  0.7897  0.2694 -0.0763
   51SOL     hw  202   1.438   5.289   2.025 -0.7074 -0.7866 -0.5560
   51SOL     hw  203   1.410   5.279   2.174 -0.0250 -0.6099 -0.4125
   51SOL     vw  204   1.398   5.319   2.097  0.4846  0.0141 -0.1839
   52SOL     ow  205   2.306   1.514   1.313 -0.5537  0.0607 -0.8670
   52SOL     hw  206   2.241   1.445   1.304 -2.4414  1.6227 -0.1265
   52SOL     hw  207   2.293   1.570   1.236  0.5325 -0.0679 -1.1616
   52SOL     vw  208   2.296   1.513   1.302 -0.6595  0.2498 -0.8081
   53SOL     ow  209   2.406   5.336   5.128 -0.6811 -0.0780  0.1008
   53SOL     hw  210   2.331   5.360   5.073 -1.2726 -1.9219  0.0342
   53SOL     hw  211   2.478   5.321   5.065  0.4037  3.5683  0.2707
   53SOL     vw  212   2.406   5.337   5.112 -0.6161  0.1595  0.1144
   54SOL     ow  213   1.937   1.563   0.431  0.6069  0.4085  0.3318
   54SOL     hw  214   1.948   1.483   0.482  1.3778  0.3788  0.1239
   54SOL     hw  215   2.000   1.624   0.468  1.0673  0.4346 -0.4768
   54SOL     vw  216   1.947   1.560   0.442  0.7694  0.4081  0.1977
   55SOL     ow  217   1.736   0.650   1.101 -0.4945 -0.3017 -0.2294
   55SOL     hw  218   1.791   0.586   1.146 -2.5254 -2.3789 -0.4937
   55SOL     hw  219   1.734   0.619   1.010 -1.4027  0.2020 -0.3902
   55SOL     vw  220   1.743   0.637   1.095 -0.8823 -0.5093 -0.2854
   56SOL     ow  221   1.398   3.923   3.766 -0.6078  0.4267  0.6093
   56SOL     hw  222   1.366   3.856   3.705  0.0162  0.9502 -0.3171
   56SOL     hw  223   1.447   3.874   3.832 -1.8315 -0.2121  1.0735
   56SOL     vw  224   1.400   3.908   3.767 -0.6869  0.4115  0.5485
   57SOL     ow  225   5.970   1.799   7.081  0.3092  0.3338  0.2787
   57SOL     hw  226   6.063   1.820   7.090  1.0354 -0.5868 -3.4303
   57SOL     hw  227   5.968   1.706   7.058 -1.3901  0.6586 -1.1137
   57SOL     vw  228   5.982   1.789   7.079  0.1807  0.2552 -0.3943
   58SOL     ow  229   6.338   1.581   6.314  0.1407 -0.3249 -0.0374
   58SOL     hw  230   6.371   1.649   6.254 -0.4869  0.5977  0.6287
   58SOL     hw  231   6.253   1.556   6.276  0.9722 -1.7515 -1.0328
   58SOL     vw  232   6.331   1.587   6.301  0.1674 -0.3914 -0.0806
   59SOL     ow  233   5.996   0.660   6.964  0.1231 -0.5454  0.3194
   59SOL     hw  234   6.034   0.665   6.876  2.6187 -0.7619  1.3053
   59SOL     hw  235   5.928   0.594   6.956  0.5018 -0.7957 -1.3890
   59SOL     vw  236   5.992   0.652   6.951  0.5021 -0.6070  0.2239
   60SOL     ow  237   3.930   2.748   4.691  0.3121 -0.6804  0.2097
   60SOL     hw  238   3.904   2.835   4.721 -0.4730 -0.3496 -1.3502
   60SOL     hw  239   4.011   2.730   4.738 -1.0899 -0.4734  2.9839
   60SOL     vw  240   3.937   2.757   4.701  0.0235 -0.6094  0.3700
   61SOL     ow  241   3.028   2.859   5.650  0.2260  0.0615  0.2627
   61SOL     hw  242   3.028   2.943   5.604 -0.6218 -0.0420  0.0606
   61SOL     hw  243   3.099   2.810   5.609 -1.2185 -0.4536 -1.7611
   61SOL     vw  244   3.037   2.864   5.638 -0.0764 -0.0201 -0.0312
   62SOL     ow  245   2.441   0.112   5.753  0.1859 -0.5611  0.2767
   62SOL     hw  246   2.412   0.144   5.668  0.8945  0.2701  0.3254
   62SOL     hw  247   2.377   0.147   5.815  0.6792  0.3937  0.2733
   62SOL     vw  248   2.429   0.121   5.750  0.3445 -0.3254  0.2828
   63SOL     ow  249   6.269   2.040   3.464  0.6326 -0.2680 -0.1472
   63SOL     hw  250   6.240   2.112   3.520  1.8336  0.6980 -0.7103
   63SOL     hw  251   6.203   2.035   3.395  0.0494 -0.3276  0.4148
   63SOL     vw  252   6.257   2.049   3.462  0.7141 -0.1485 -0.1472
   64SOL     ow  253   6.659   5.450   1.518  0.0565 -0.3755 -0.1734
   64SOL     hw  254   6.613   5.367   1.507  0.2857 -0.5621  0.2434
   64SOL     hw  255   6.723   5.433   1.586  0.3274  0.0558 -0.3154
   64SOL     vw  256   6.661   5.437   1.525  0.1225 -0.3433 -0.1372
   65SOL     ow  257   5.842   4.435   3.747 -0.8312  0.2706  0.2614
   65SOL     hw  258   5.907   4.488   3.792  0.3947 -1.1292  0.2010
   65SOL     hw  259   5.893   4.376   3.692 -2.2385  0.9637 -1.9075
   65SOL     vw  260   5.857   4.434   3.746 -0.8552  0.1776 -0.0328
   66SOL     ow  261   3.162   1.265   6.743  0.4890 -0.0414  0.2967
   66SOL     hw  262   3.153   1.346   6.794  2.5712  1.3079 -1.2911
   66SOL     hw  263   3.257   1.251   6.739  0.1901 -2.1721 -0.0951
   66SOL     vw  264   3.173   1.274   6.749  0.7242 -0.1445  0.0353
   67SOL     ow  265   1.760   1.109   4.966 -0.8389 -0.0895  0.5683
   67SOL     hw  266   1.710   1.065   4.897 -1.6388  2.7414 -0.7922
   67SOL     hw  267   1.740   1.202   4.955  2.3388  0.8907  1.9470
   67SOL     vw  268   1.751   1.115   4.955 -0.5252  0.4133  0.5708
   68SOL     ow  269   6.118   0.445   6.047 -0.5743  0.1583  0.3239
   68SOL     hw  270   6.147   0.415   5.961 -2.1911  1.4692 -0.7511
   68SOL     hw  271   6.127   0.368   6.103 -2.2386 -1.6949 -1.7115
   68SOL     vw  272   6.123   0.431   6.043 -1.0073  0.0867 -0.0868
   69SOL     ow  273   1.003   3.047   3.620  0.0525  0.1847 -0.0582
   69SOL     hw  274   0.909   3.064   3.616 -0.3746 -1.9526 -0.5804
   69SOL     hw  275   1.012   2.957   3.589  2.2630  0.2692  0.1826
   69SOL     vw  276   0.992   3.037   3.615  0.2879 -0.0862 -0.0954
   70SOL     ow  277   0.322   0.775   2.354 -0.2511  0.2346 -0.3823
   70SOL     hw  278   0.286   0.711   2.293 -1.6072  1.2976 -0.7583
   70SOL     hw  279   0.397   0.812   2.307  0.4991 -0.9940 -0.1873
   70SOL     vw  280   0.327   0.772   2.340 -0.3311  0.2127 -0.4061
   71SOL     ow  281   1.583   3.714   1.634  0.2183  0.7627  0.0573
   71SOL     hw  282   1.618   3.788   1.585  0.8682 -0.1572 -0.9052
   71SOL     hw  283   1.535   3.754   1.707  2.6208  2.0999  1.0052
   71SOL     vw  284   1.581   3.729   1.637  0.6211  0.8178  0.0554
   72SOL     ow  285   4.177   6.529   1.709 -0.3532  0.1549  0.2369
   72SOL     hw  286   4.086   6.520   1.681 -0.3787  0.7428  0.1203
   72SOL     hw  287   4.217   6.587   1.644  0.6569 -1.7309 -0.9319
   72SOL     vw  288   4.170   6.535   1.696 -0.2232 -0.0165  0.0673
   73SOL     ow  289   0.014   6.266   3.233 -0.4075  0.3328 -0.3281
   73SOL     hw  290  -0.055   6.287   3.296  1.0887  0.5832  1.3127
   73SOL     hw  291  -0.031   6.263   3.148 -2.6097 -0.5369  0.7697
   73SOL     vw  292  -0.001   6.268   3.230 -0.5007  0.2515  0.0333
   74SOL     ow  293   5.917   5.383   6.761  0.8144 -0.8443 -0.7571
   74SOL     hw  294   5.958   5.427   6.687  1.3525 -0.2172 -0.0976
   74SOL     hw  295   5.987   5.330   6.799  1.2697  0.7608  0.7887
   74SOL     vw  296   5.932   5.382   6.756  0.9456 -0.5500 -0.4663
   75SOL     ow  297   2.842   4.579   6.851  0.0831 -0.3879  0.0844
   75SOL     hw  298   2.866   4.669   6.873  1.2201 -0.5361 -0.4718
   75SOL     hw  299   2.809   4.542   6.933 -1.7894  0.9502 -0.0082
   75SOL     vw  300   2.841   4.586   6.865 -0.0139 -0.2310 -0.0012
   76SOL     ow  301   4.554   3.868   5.139  0.3040 -0.3665  0.2355
   76SOL     hw  302   4.462   3.889   5.125  0.5482  0.9434  0.5000
   76SOL     hw  303   4.553   3.804   5.210 -0.3660  0.0944  0.6545
   76SOL     vw  304   4.542   3.862   5.146  0.2477 -0.1329  0.3259
   77SOL     ow  305   3.139   6.453   7.115 -0.5002  0.1404  0.0833
   77SOL     hw  306   3.099   6.384   7.062  1.0966  0.4435 -1.6063
   77SOL     hw  307   3.191   6.504   7.053  0.4952  1.2561  1.7639
   77SOL     vw  308   3.140   6.451   7.100 -0.1582  0.3278  0.0820
   78SOL     ow  309   1.772   1.181   5.668 -0.1025 -0.3546  0.4620
   78SOL     hw  310   1.866   1.166   5.662  0.0758  0.4502  1.0779
   78SOL     hw  311   1.740   1.112   5.726  0.2684 -0.0333  1.0533
   78SOL     vw  312   1.780   1.170   5.675 -0.0301 -0.2061  0.6213
   79SOL     ow  313   2.290   0.609   1.893  0.6248  0.7017 -0.1771
   79SOL     hw  314   2.338   0.538   1.936  0.0175  0.7270  0.5740
   79SOL     hw  315   2.357   0.659   1.848  1.1216 -0.0926 -0.3511
   79SOL     vw  316   2.305   0.606   1.893  0.6101  0.6002 -0.1010
   80SOL     ow  317   2.604   2.325   5.818 -0.1951 -0.3950 -0.0489
   80SOL     hw  318   2.671   2.375   5.771 -1.1596  1.5609  0.5618
   80SOL     hw  319   2.599   2.367   5.904 -2.2663 -0.4287 -0.1188
   80SOL     vw  320   2.612   2.337   5.823 -0.5957 -0.1413  0.0226
   81SOL     ow  321   3.193   5.264   2.680  0.1156  0.3453  0.2833
   81SOL     hw  322   3.172   5.323   2.753 -0.7174  0.3221  0.0750
   81SOL     hw  323   3.288   5.256   2.682  0.1552  0.8942  0.9410
   81SOL     vw  324   3.203   5.270   2.690  0.0110  0.4148  0.3427
   82SOL     ow  325   1.996   5.228   0.950 -0.0530  0.0162  0.2019
   82SOL     hw  326   2.038   5.314   0.940  1.4557 -0.8323 -1.5017
   82SOL     hw  327   1.904   5.248   0.964  0.2054  1.9186 -0.4478
   82SOL     vw  328   1.990   5.242   0.950  0.1802  0.1557 -0.1086
   83SOL     ow  329   5.240   2.770   2.271 -0.6008 -0.3019 -0.3360
   83SOL     hw  330   5.322   2.722   2.273  0.2125  0.9773 -1.2258
   83SOL     hw  331   5.234   2.812   2.358 -0.2403 -0.2927 -0.3143
   83SOL     vw  332   5.250   2.769   2.283 -0.4458 -0.1320 -0.4505
   84SOL     ow  333   0.309   3.647   2.382  0.4064  0.3604  0.3006
   84SOL     hw  334   0.247   3.694   2.327  1.3123  0.6054 -0.5486
   84SOL     hw  335   0.268   3.644   2.468 -1.5842 -1.0643 -0.6262
   84SOL     vw  336   0.296   3.653   2.386  0.2633  0.2048  0.0662
   85SOL     ow  337   0.694   2.247   2.406 -0.3172 -0.3088  0.0516
   85SOL     hw  338   0.785   2.277   2.402 -0.0222 -0.9354  1.4796
   85SOL     hw  339   0.695   2.178   2.471 -2.0196  0.4154  0.8937
   85SOL     vw  340   0.706   2.242   2.414 -0.5029 -0.2958  0.3511
   86SOL     ow  341   0.039   6.531   4.567  0.0145  0.5480  0.2421
   86SOL     hw  342  -0.003   6.617   4.572 -0.9556  0.1676 -0.8568
   86SOL     hw  343  -0.032   6.471   4.546  1.1608 -0.0139 -2.5231
   86SOL     vw  344   0.024   6.534   4.565  0.0377  0.4237 -0.2675
   87SOL     ow  345   5.275   5.462   4.459 -0.0962 -0.5099 -0.3428
   87SOL     hw  346   5.316   5.377   4.451  1.4290  0.2319 -0.7991
   87SOL     hw  347   5.313   5.501   4.538  0.7434  0.4993 -1.2040
   87SOL     vw  348   5.285   5.456   4.468  0.2160 -0.2787 -0.5167
   88SOL     ow  349   2.740   1.792   0.874 -0.0846 -0.0859 -0.3758
   88SOL     hw  350   2.688   1.872   0.878  1.1941  0.7395  0.5948
   88SOL     hw  351   2.748   1.773   0.780 -0.1026  1.1402 -0.6384
   88SOL     vw  352   2.734   1.800   0.862  0.0818  0.1848 -0.2824
   89SOL     ow  353   0.568   2.480   2.421 -0.2375 -0.0693  0.2619
   89SOL     hw  354   0.619   2.402   2.398  0.8240  0.3381  1.1634
   89SOL     hw  355   0.494   2.478   2.361 -0.0963 -1.6367  0.1012
   89SOL     vw  356   0.565   2.470   2.410 -0.0788 -0.2224  0.3597
   90SOL     ow  357   4.334   4.134   1.825  0.1666 -0.0089 -0.3349
   90SOL     hw  358   4.313   4.096   1.740 -1.4818 -0.1848  0.1039
   90SOL     hw  359   4.258   4.189   1.846 -0.3408 -1.3992  1.8019
   90SOL     vw  360   4.321   4.136   1.817 -0.1180 -0.2153  0.0049
   91SOL     ow  361   5.388   2.181   4.771  0.4780  0.5326 -0.1214
   91SOL     hw  362   5.430   2.120   4.711 -0.6631 -0.0772 -0.3247
   91SOL     hw  363   5.373   2.260   4.718  0.3851  0.3663 -0.3410
   91SOL     vw  364   5.392   2.183   4.756  0.3152  0.4302 -0.1774
   92SOL     ow  365   1.238   4.245   3.778 -0.1405  0.0685  0.5795
   92SOL     hw  366   1.243   4.317   3.715  2.0632 -0.3534  0.1763
   92SOL     hw  367   1.223   4.288   3.862 -0.1947  0.8895  0.1633
   92SOL     vw  368   1.236   4.260   3.781  0.1431  0.1211  0.4714
   93SOL     ow  369   3.508   0.796   3.878 -0.6997  0.0836  0.1818
   93SOL     hw  370   3.576   0.827   3.818 -0.3237  0.6629  0.8892
   93SOL     hw  371   3.544   0.812   3.965 -2.4426  2.0436  0.6107
   93SOL     vw  372   3.522   0.802   3.882 -0.8800  0.4186  0.3318
   94SOL     ow  373   2.665   6.610   4.612  0.3654  0.5295 -0.5607
   94SOL     hw  374   2.697   6.670   4.545 -2.0009 -0.1227 -2.4030
   94SOL     hw  375   2.579   6.582   4.581 -0.6701 -0.1776  2.5534
   94SOL     vw  376   2.658   6.614   4.599 -0.0834  0.3502 -0.3932
   95SOL     ow  377   1.363   5.031   3.151 -0.3347 -0.0510 -0.5452
   95SOL     hw  378   1.310   5.085   3.210 -0.8859 -0.2334 -0.8629
   95SOL     hw  379   1.453   5.057   3.169 -0.5203  0.1949  0.0812
   95SOL     vw  380   1.368   5.041   3.161 -0.4318 -0.0424 -0.5045
   96SOL     ow  381   2.599   4.453   2.691  0.2715 -0.1383 -0.5399
   96SOL     hw  382   2.527   4.469   2.629 -1.8398 -1.4501  1.3987
   96SOL     hw  383   2.621   4.539   2.725 -1.5165  0.1878 -0.0779
   96SOL     vw  384   2.592   4.466   2.687 -0.2429 -0.2685 -0.2232
   97SOL     ow  385   1.738   7.086   3.835  0.6529  0.1811 -0.5467
   97SOL     hw  386   1.775   7.095   3.747 -1.0019 -0.0366 -1.3044
   97SOL     hw  387   1.762   6.998   3.862 -2.3526 -1.4327 -2.5942
   97SOL     vw  388   1.746   7.076   3.827  0.0381 -0.0606 -0.9170
   98SOL     ow  389   5.913   3.886   6.158 -0.0682 -0.1571 -0.3301
   98SOL     hw  390   5.827   3.874   6.120 -0.2515  1.0759 -0.3333
   98SOL     hw  391   5.953   3.956   6.106  1.3689 -1.4302 -1.0335
   98SOL     vw  392   5.907   3.894   6.146  0.0970 -0.1624 -0.4234
   99SOL     ow  393   5.923   0.140   2.120  0.3223 -0.5587  0.4641
   99SOL     hw  394   5.902   0.210   2.059 -1.8044 -1.2569  0.3243
   99SOL     hw  395   5.894   0.060   2.077 -1.2836 -1.0695  2.3236
   99SOL     vw  396   5.916   0.139   2.107 -0.1700 -0.7182  0.6911
  100SOL     ow  397   2.066   5.759   2.189 -0.4614  0.2970 -0.3117
  100SOL     hw  398   2.051   5.690   2.254 -1.8903  0.7485 -0.1372
  100SOL     hw  399   2.066   5.712   2.105 -1.4070  0.0717 -0.1954
  100SOL     vw  400   2.064   5.743   2.186 -0.7747  0.3271 -0.2733
  101SOL     ow  401   1.419   6.875   1.017  0.4194 -0.0140 -0.3236
  101SOL     hw  402   1.439   6.898   0.927 -0.0582 -0.8056 -0.6461
  101SOL     hw  403   1.455   6.787   1.028 -0.3025 -0.2807 -0.0216
  101SOL     vw  404   1.427   6.866   1.007  0.2611 -0.1533 -0.3263
  102SOL     ow  405   4.726   6.251   2.982  0.3031  0.0987 -0.2340
  102SOL     hw  406   4.706   6.312   2.910 -1.7675 -0.0136  0.1701
  102SOL     hw  407   4.712   6.165   2.944  0.6961 -0.0181 -0.1096
  102SOL     vw  408   4.721   6.248   2.967  0.0820  0.0687 -0.1643
  103SOL     ow  409   6.674   5.795   5.412 -0.0945 -0.4312 -0.1611
  103SOL     hw  410   6.683   5.813   5.319  0.6107 -2.1409 -0.4570
  103SOL     hw  411   6.735   5.856   5.454 -2.5818  2.5613 -0.4603
  103SOL     vw  412   6.683   5.806   5.405 -0.3297 -0.2620 -0.2398
  104SOL     ow  413   5.126   0.455   0.743 -0.6817 -0.4185  0.2282
  104SOL     hw  414   5.154   0.450   0.651 -1.3996  0.1903 -0.0389
  104SOL     hw  415   5.206   0.441   0.793 -0.2253 -0.4754 -0.4965
  104SOL     vw  416   5.140   0.453   0.737 -0.7162 -0.3457  0.0974
  105SOL     ow  417   3.586   3.595   0.922  0.3770  0.2879 -0.6335
  105SOL     hw  418   3.658   3.565   0.978 -0.8214 -0.0018  0.8295
  105SOL     hw  419   3.507   3.562   0.966 -0.7283  1.8209 -1.3964
  105SOL     vw  420   3.585   3.587   0.935  0.0730  0.4518 -0.5411
  106SOL     ow  421   2.148   5.403   4.982  0.4122 -0.2939  0.1471
  106SOL     hw  422   2.105   5.360   5.057  0.4019  0.5996  0.6647
  106SOL     hw  423   2.155   5.495   5.008  2.2483 -0.3220 -0.1131
  106SOL     vw  424   2.143   5.410   4.995  0.6531 -0.1800  0.1807
  107SOL     ow  425   5.835   3.638   1.693  0.0627  0.1273  0.1631
  107SOL     hw  426   5.901   3.606   1.631 -0.5950  1.9443 -1.5979
  107SOL     hw  427   5.884   3.652   1.774  1.8393  1.1469 -0.9974
  107SOL     vw  428   5.851   3.636   1.696  0.2103  0.5015 -0.2224
  108SOL     ow  429   3.635   1.590   3.632  0.0231 -1.1835  0.2098
  108SOL     hw  430   3.594   1.631   3.709  0.7488  0.7161 -0.3739
  108SOL     hw  431   3.639   1.497   3.655 -0.4811 -0.7864  2.1464
  108SOL     vw  432   3.630   1.583   3.645  0.0523 -0.8805  0.3883
  109SOL     ow  433   2.140   5.693   6.401  0.0831 -0.0146  0.0600
  109SOL     hw  434   2.137   5.789   6.397 -0.9802 -0.0675 -3.2249
  109SOL     hw  435   2.207   5.674   6.466  1.8565  2.9673 -0.7111
  109SOL     vw  436   2.148   5.703   6.409  0.1767  0.3717 -0.4754
  110SOL     ow  437   0.776   5.538   1.733 -0.1714  0.2171 -0.0176
  110SOL     hw  438   0.805   5.582   1.813  1.0188 -0.9984  0.2499
  110SOL     hw  439   0.830   5.576   1.664  0.7756 -0.7163  0.1960
  110SOL     vw  440   0.787   5.549   1.734  0.1106 -0.0665  0.0459
  111SOL     ow  441   6.319   6.516   1.533  0.3878  0.3489 -0.4536
  111SOL     hw  442   6.376   6.441   1.513  2.5315  1.6366  0.4606
  111SOL     hw  443   6.265   6.485   1.606  0.2806 -0.7427 -0.9778
  111SOL     vw  444   6.320   6.502   1.540  0.6566  0.3750 -0.4022
  112SOL     ow  445   0.923   5.611   2.361  0.2895  0.6120  0.6958
  112SOL     hw  446   1.002   5.665   2.357  0.0163  1.0306  0.8539
  112SOL     hw  447   0.916   5.586   2.453 -0.3611  1.4984  0.9056
  112SOL     vw  448   0.933   5.615   2.373  0.1676  0.7839  0.7443
  113SOL     ow  449   0.546   2.692   2.610  0.4912 -0.1293  0.2943
  113SOL     hw  450   0.531   2.737   2.693 -2.5280  0.3507 -0.3953
  113SOL     hw  451   0.594   2.755   2.556 -1.9176  1.5887  0.0289
  113SOL     vw  452   0.551   2.706   2.614 -0.2249  0.1608  0.1684
  114SOL     ow  453   6.552   7.110   3.073  0.2147 -0.1937 -0.5447
  114SOL     hw  454   6.554   7.204   3.090 -0.4448 -0.2668 -0.0565
  114SOL     hw  455   6.466   7.094   3.033  0.3298 -0.5855 -0.6463
  114SOL     vw  456   6.541   7.120   3.070  0.1431 -0.2551 -0.4936
  115SOL     ow  457   6.794   0.632   6.600  0.4569 -0.1364 -0.2155
  115SOL     hw  458   6.747   0.705   6.559  1.1581 -0.5186 -1.7727
  115SOL     hw  459   6.856   0.604   6.533  1.2659 -1.1627  0.9442
  115SOL     vw  460   6.796   0.638   6.586  0.6559 -0.3222 -0.2680
  116SOL     ow  461   4.295   0.524   5.750  0.2476  0.4268 -0.1302
  116SOL     hw  462   4.351   0.493   5.679  0.1002 -0.8623  0.2925
  116SOL     hw  463   4.206   0.508   5.719  0.1934 -1.4341  0.8596
  116SOL     vw  464   4.291   0.518   5.736  0.2208  0.0112  0.0565
  117SOL     ow  465   6.066   5.208   5.208 -0.6941  0.8157  0.4749
  117SOL     hw  466   6.129   5.272   5.240 -0.4264  0.5053  0.5751
  117SOL     hw  467   6.116   5.128   5.197 -0.7509  0.9431 -0.8661
  117SOL     vw  468   6.081   5.206   5.211 -0.6661  0.7915  0.3116
  118SOL     ow  469   2.799   0.606   0.665 -0.3887 -0.5385 -0.4404
  118SOL     hw  470   2.788   0.515   0.640  1.6275 -1.1543  0.6167
  118SOL     hw  471   2.786   0.607   0.760 -1.5869  0.5254 -0.5880
  118SOL     vw  472   2.796   0.594   0.674 -0.2809 -0.4794 -0.3204
  119SOL     ow  473   4.888   3.095   0.126  0.3386  0.3676 -1.3047
  119SOL     hw  474   4.818   3.051   0.174  0.4285  2.3254  0.8203
  119SOL     hw  475   4.945   3.024   0.096 -1.9181 -1.1886 -2.1244
  119SOL     vw  476   4.887   3.080   0.128  0.0527  0.4207 -1.1325
  120SOL     ow  477   4.640   0.265   1.923  0.0355 -0.2935 -0.3663
  120SOL     hw  478   4.665   0.306   2.006  1.0394 -1.4850 -0.0544
  120SOL     hw  479   4.718   0.271   1.868 -0.2767 -0.4752 -0.8418
  120SOL     vw  480   4.654   0.271   1.926  0.1268 -0.4747 -0.3879
  121SOL     ow  481   4.871   3.386   0.370  0.1477  0.2595 -0.2841
  121SOL     hw  482   4.903   3.475   0.389 -2.1648  0.7915  1.6407
  121SOL     hw  483   4.839   3.354   0.454 -0.1800 -1.9635 -1.1920
  121SOL     vw  484   4.871   3.394   0.384 -0.2007  0.0364 -0.1500
  122SOL     ow  485   3.047   0.103   6.819 -0.0072  0.5202 -0.0190
  122SOL     hw  486   2.953   0.106   6.835  0.1797 -0.6202  1.6103
  122SOL     hw  487   3.086   0.117   6.906  1.2303 -2.3582  0.0023
  122SOL     vw  488   3.040   0.106   6.833  0.1806 -0.0100  0.1988
  123SOL     ow  489   5.298   5.763   0.940  0.5122  0.5809 -0.1307
  123SOL     hw  490   5.206   5.777   0.961  0.3162  0.1760 -0.6942
  123SOL     hw  491   5.340   5.747   1.024 -0.3857 -1.7516 -0.0626
  123SOL     vw  492   5.292   5.763   0.954  0.3676  0.2196 -0.1960
  124SOL     ow  493   1.960   6.442   4.542 -0.6770  0.1247  0.0212
  124SOL     hw  494   2.022   6.397   4.484 -0.1820 -1.7418  1.8745
  124SOL     hw  495   1.883   6.385   4.544 -0.0181 -0.7728  2.4693
  124SOL     vw  496   1.958   6.428   4.535 -0.5248 -0.2401  0.5884
  125SOL     ow  497   0.140   0.521   4.781 -0.2052 -0.2268 -0.2570
  125SOL     hw  498   0.194   0.533   4.858  1.0021 -0.8883 -0.9697
  125SOL     hw  499   0.088   0.601   4.775 -0.1695 -0.0794  1.1048
  125SOL     vw  500   0.140   0.533   4.790 -0.0412 -0.2946 -0.1719
  126SOL     ow  501   0.599   4.927   2.778  0.2397  0.7373  0.1307
  126SOL     hw  502   0.619   4.916   2.685 -0.7464  3.0129 -0.4449
  126SOL     hw  503   0.523   4.870   2.793  0.9200 -0.2864 -0.2218
  126SOL     vw  504   0.591   4.918   2.768  0.1993  0.9024  0.0081
  127SOL     ow  505   2.492   0.667   0.750  0.0297  0.3862 -0.6847
  127SOL     hw  506   2.422   0.715   0.793 -1.4563  0.0547 -2.5693
  127SOL     hw  507   2.551   0.641   0.820 -2.1893 -0.0662  1.1173
  127SOL     vw  508   2.491   0.670   0.765 -0.4591  0.2827 -0.6956
  128SOL     ow  509   4.585   6.811   4.846  0.5127 -0.4904 -0.2295
  128SOL     hw  510   4.542   6.726   4.838  0.1400 -0.3333  0.1186
  128SOL     hw  511   4.537   6.869   4.787 -1.6043  0.4145  2.2117
  128SOL     vw  512   4.573   6.808   4.837  0.1841 -0.3502  0.1388
  129SOL     ow  513   2.176   3.534   1.708  0.5000  0.3254 -0.4521
  129SOL     hw  514   2.110   3.474   1.741 -0.0426  1.1603  0.0115
  129SOL     hw  515   2.257   3.482   1.705  0.0732 -0.3812  0.0617
  129SOL     vw  516   2.178   3.519   1.712  0.3721  0.3424 -0.3232
  130SOL     ow  517   4.337   3.298   5.740  0.4273 -0.4340 -0.0219
  130SOL     hw  518   4.245   3.320   5.731  1.2000  2.0978 -4.1683
  130SOL     hw  519   4.361   3.331   5.827 -2.2115  0.0635  0.6020
  130SOL     vw  520   4.328   3.305   5.750  0.1810 -0.0343 -0.4866
  131SOL     ow  521   3.803   3.568   1.075  0.1936  0.1149 -0.5612
  131SOL     hw  522   3.826   3.520   1.154  2.4266  0.9446 -0.6238
  131SOL     hw  523   3.887   3.582   1.030 -0.5410  2.6302 -1.3270
  131SOL     vw  524   3.817   3.564   1.079  0.3912  0.5563 -0.6705
  132SOL     ow  525   6.229   6.879   4.818 -0.2732  0.6248  0.0435
  132SOL     hw  526   6.270   6.965   4.822 -0.0238  0.4618  2.7936
  132SOL     hw  527   6.150   6.892   4.765 -0.0648  2.4703  0.1403
  132SOL     vw  528   6.224   6.892   4.811 -0.2129  0.8469  0.4194
  133SOL     ow  529   0.481   6.239   5.555  0.1838  0.1158  0.3646
  133SOL     hw  530   0.437   6.314   5.595 -1.3249  0.2007 -1.3033
  133SOL     hw  531   0.565   6.274   5.524 -1.0235  1.5331 -1.5560
  133SOL     vw  532   0.486   6.254   5.556 -0.1746  0.3140 -0.1090
  134SOL     ow  533   6.985   3.265   4.053  0.1299 -0.4651 -0.1669
  134SOL     hw  534   7.052   3.202   4.079  1.1673  0.5056 -0.3885
  134SOL     hw  535   7.032   3.329   3.999 -1.2622 -0.5131 -1.5112
  134SOL     vw  536   7.000   3.265   4.049  0.0830 -0.3434 -0.3734
  135SOL     ow  537   1.814   6.862   2.249 -0.1918  1.0303 -0.2146
  135SOL     hw  538   1.791   6.809   2.324  1.5751  1.1158  0.4363
  135SOL     hw  539   1.823   6.951   2.283  2.8676  0.7262  0.0528
  135SOL     vw  540   1.812   6.867   2.263  0.4449  1.0014 -0.0933
  136SOL     ow  541   2.912   4.104   0.802 -0.6908 -0.7557  0.6425
  136SOL     hw  542   2.949   4.191   0.815 -1.0263 -0.4984 -0.0712
  136SOL     hw  543   2.988   4.046   0.792 -0.4457 -0.1092 -1.6333
  136SOL     vw  544   2.927   4.108   0.803 -0.7027 -0.6363  0.2481
  137SOL     ow  545   5.537   4.681   2.276 -0.1579  0.0378 -0.1045
  137SOL     hw  546   5.581   4.596   2.267  0.8522  0.5200  0.1163
  137SOL     hw  547   5.602   4.737   2.318 -1.3074  0.5490  1.0673
  137SOL     vw  548   5.552   4.677   2.280 -0.1762  0.1690  0.0792
  138SOL     ow  549   0.588   3.741   6.785 -1.0293 -0.1633 -0.0078
  138SOL     hw  550   0.655   3.716   6.848 -1.5377  0.0042  0.6131
  138SOL     hw  551   0.522   3.787   6.837 -1.0443  0.7536 -0.8027
  138SOL     vw  552   0.588   3.744   6.800 -1.0983 -0.0203 -0.0310
  139SOL     ow  553   3.784   3.480   5.835  0.0846 -0.6206  0.2354
  139SOL     hw  554   3.803   3.422   5.908 -0.2171 -0.4532  0.4535
  139SOL     hw  555   3.770   3.422   5.761 -0.4740 -0.8439  0.5088
  139SOL     vw  556   3.785   3.465   5.835 -0.0290 -0.6280  0.3002
  140SOL     ow  557   3.935   3.955   6.997 -0.3472 -0.1390 -0.3211
  140SOL     hw  558   3.847   3.921   7.012 -0.7774  1.4786  1.0165
  140SOL     hw  559   3.925   4.015   6.923 -0.1883 -0.5571 -0.6891
  140SOL     vw  560   3.922   3.958   6.989 -0.3830  0.0193 -0.1931
  141SOL     ow  561   0.178   2.964   1.454 -0.0154 -0.6870 -0.1065
  141SOL     hw  562   0.262   2.988   1.415 -1.2842 -1.2620 -3.4665
  141SOL     hw  563   0.131   3.047   1.463 -0.7867 -0.7534 -2.7138
  141SOL     vw  564   0.183   2.978   1.450 -0.2846 -0.7719 -0.8939
  142SOL     ow  565   4.074   0.711   2.205 -0.3758  0.3588 -0.1162
  142SOL     hw  566   4.077   0.712   2.301  1.0748  1.8843 -0.1291
  142SOL     hw  567   4.030   0.629   2.183 -0.8442  0.0288  1.8503
  142SOL     vw  568   4.068   0.701   2.215 -0.2460  0.5165  0.1415
  143SOL     ow  569   0.096   5.267   6.970 -0.5436  1.1080 -0.0601
  143SOL     hw  570   0.058   5.300   6.889 -0.3046 -0.2815 -0.7579
  143SOL     hw  571   0.186   5.244   6.947 -0.6099  0.2706  0.4846
  143SOL     vw  572   0.103   5.268   6.956 -0.5208  0.8142 -0.0801
  144SOL     ow  573   2.217   1.466   3.376  0.2956 -0.0590  0.0059
  144SOL     hw  574   2.172   1.412   3.441  2.2822  0.9310  2.3736
  144SOL     hw  575   2.242   1.546   3.424  0.6311  1.3652 -2.3830
  144SOL     vw  576   2.215   1.470   3.391  0.6020  0.2596  0.0031
  145SOL     ow  577   6.016   3.614   6.285 -0.0226 -0.0080 -0.4882
  145SOL     hw  578   6.000   3.536   6.232  2.5529  0.6534 -2.4167
  145SOL     hw  579   6.022   3.581   6.374 -0.1273 -1.8390 -1.1106
  145SOL     vw  580   6.015   3.599   6.290  0.3033 -0.1622 -0.8249
  146SOL     ow  581   3.954   0.307   2.867 -0.1134  0.0617  0.1012
  146SOL     hw  582   3.917   0.243   2.805 -2.1260 -0.2891  1.5545
  146SOL     hw  583   3.966   0.386   2.815 -2.0699 -0.1177 -0.7283
  146SOL     vw  584   3.951   0.309   2.852 -0.6369 -0.0083  0.1835
  147SOL     ow  585   5.004   3.126   5.074 -0.1377  0.1667  0.2007
  147SOL     hw  586   4.958   3.165   5.000 -0.4754  1.4147  1.0466
  147SOL     hw  587   5.031   3.200   5.128  1.8293 -0.6033  0.3496
  147SOL     vw  588   5.001   3.141   5.071  0.0772  0.2298  0.3321
  148SOL     ow  589   6.660   5.264   2.515 -0.3093  0.2461  0.3715
  148SOL     hw  590   6.706   5.336   2.472  1.0551  0.0104  1.3695
  148SOL     hw  591   6.625   5.212   2.443  2.0263 -0.2201 -0.5200
  148SOL     vw  592   6.661   5.267   2.500  0.1791  0.1535  0.3856
  149SOL     ow  593   5.488   2.629   2.239 -0.4230  0.2745 -0.0489
  149SOL     hw  594   5.582   2.643   2.226 -0.4735  1.5164  0.7386
  149SOL     hw  595   5.462   2.570   2.168  0.9252  0.0025 -0.3421
  149SOL     vw  596   5.497   2.623   2.228 -0.2518  0.4025  0.0165
  150SOL     ow  597   5.464   0.474   1.994  0.0495 -0.4396 -0.4463
  150SOL     hw  598   5.388   0.417   2.004 -0.0419 -0.3879 -0.8207
  150SOL     hw  599   5.482   0.506   2.082  0.1344 -1.0883 -0.2209
  150SOL     vw  600   5.457   0.471   2.007  0.0486 -0.5184 -0.4660
  151SOL     ow  601   0.878   6.632   1.988 -0.2758  0.1538 -0.6309
  151SOL     hw  602   0.788   6.639   2.018  0.2772  2.0128  0.7394
  151SOL     hw  603   0.924   6.588   2.060  0.0391 -0.3404 -1.1172
  151SOL     vw  604   0.873   6.627   2.001 -0.1613  0.3340 -0.5143
  152SOL     ow  605   0.531   6.947   0.393 -0.6488  1.1091 -0.3417
  152SOL     hw  606   0.477   6.911   0.463 -1.5893 -1.9765 -2.4388
  152SOL     hw  607   0.507   7.040   0.390 -2.7473  0.7226  1.5135
  152SOL     vw  608   0.520   6.955   0.402 -1.0498  0.6509 -0.3736
  153SOL     ow  609   0.047   6.414   6.706  0.0777  0.1551 -0.1670
  153SOL     hw  610   0.041   6.393   6.800 -0.7384  1.5015  0.1143
  153SOL     hw  611   0.090   6.339   6.667  0.8235 -0.2481  1.3653
  153SOL     vw  612   0.052   6.402   6.713  0.0684  0.2797  0.0720
  154SOL     ow  613   0.020   1.533   3.411 -0.0129 -0.1675 -0.0365
  154SOL     hw  614   0.108   1.523   3.447 -0.4375 -3.0702  0.3777
  154SOL     hw  615   0.035   1.550   3.318  0.9731 -0.3731  0.0664
  154SOL     vw  616   0.034   1.534   3.404  0.0612 -0.5776  0.0317
  155SOL     ow  617   5.435   4.130   7.058 -0.1782  0.5939  0.3886
  155SOL     hw  618   5.470   4.199   7.002  0.7878 -0.5167 -0.4162
  155SOL     hw  619   5.347   4.113   7.024  0.3455  0.0312 -0.7450
  155SOL     vw  620   5.428   4.137   7.046  0.0186  0.3731  0.1328
  156SOL     ow  621   3.048   6.695   3.638 -0.7324  0.5900 -0.0200
  156SOL     hw  622   3.118   6.634   3.615  0.0788  1.6424 -0.3812
  156SOL     hw  623   3.000   6.650   3.708  0.9129  0.2778  0.9596
  156SOL     vw  624   3.051   6.681   3.644 -0.4083  0.6878  0.0616
  157SOL     ow  625   6.761   5.851   4.628  0.4232 -0.0741 -0.3529
  157SOL     hw  626   6.741   5.880   4.717 -0.0061  0.3397 -0.5814
  157SOL     hw  627   6.692   5.889   4.574 -0.6399 -2.1293 -0.5654
  157SOL     vw  628   6.749   5.860   4.633  0.2265 -0.2906 -0.4113
  158SOL     ow  629   4.656   4.186   5.773 -0.0381 -0.1173 -0.0053
  158SOL     hw  630   4.664   4.278   5.750 -0.2308  0.0857  0.7040
  158SOL     hw  631   4.595   4.149   5.709  0.2247  0.1948 -0.4312
  158SOL     vw  632   4.649   4.193   5.762 -0.0291 -0.0491  0.0322
  159SOL     ow  633   6.509   2.013   3.564 -0.1128 -0.3839  0.5782
  159SOL     hw  634   6.497   1.941   3.626 -0.8547 -1.6419 -0.9406
  159SOL     hw  635   6.426   2.017   3.515 -0.1407  1.6170  0.7150
  159SOL     vw  636   6.497   2.004   3.565 -0.2143 -0.2859  0.3958
  160SOL     ow  637   3.682   1.393   0.504 -1.1875  0.1139 -0.8934
  160SOL     hw  638   3.738   1.385   0.427 -1.0659 -2.7483 -0.5931
  160SOL     hw  639   3.742   1.413   0.575 -1.1202  1.2849 -1.2564
  160SOL     vw  640   3.697   1.395   0.503 -1.1625 -0.1093 -0.9017
  161SOL     ow  641   3.735   3.748   5.626  0.4529  0.8185  0.3739
  161SOL     hw  642   3.650   3.733   5.585  0.4912  0.5659  0.3900
  161SOL     hw  643   3.796   3.761   5.553  0.8696 -1.3498  0.2696
  161SOL     vw  644   3.732   3.748   5.611  0.5128  0.4991  0.3622
  162SOL     ow  645   4.477   4.232   3.622  0.4325  0.0545 -0.7451
  162SOL     hw  646   4.540   4.292   3.582 -0.6277  0.8741 -1.2360
  162SOL     hw  647   4.507   4.223   3.712 -0.1504  2.4824 -0.2362
  162SOL     vw  648   4.489   4.239   3.629  0.2155  0.4833 -0.7427
  163SOL     ow  649   5.700   2.382   2.827  0.0991 -0.2989 -0.5212
  163SOL     hw  650   5.686   2.367   2.920  0.0044  0.1037 -0.4710
  163SOL     hw  651   5.795   2.384   2.817  0.1289 -1.5216 -0.6244
  163SOL     vw  652   5.711   2.380   2.838  0.0904 -0.4070 -0.5281
  164SOL     ow  653   6.456   6.752   4.686  0.4819 -0.7177  0.7178
  164SOL     hw  654   6.467   6.693   4.611  1.2198 -0.1093  0.3378
  164SOL     hw  655   6.545   6.777   4.710  0.1739  2.3604 -0.8600
  164SOL     vw  656   6.469   6.748   4.679  0.5388 -0.2313  0.4594
  165SOL     ow  657   1.465   0.376   4.604 -0.9170  0.2148 -0.4660
  165SOL     hw  658   1.526   0.311   4.638 -0.2004  1.4117  0.6255
  165SOL     hw  659   1.501   0.400   4.518 -1.3320 -0.9750 -0.9955
  165SOL     vw  660   1.478   0.371   4.597 -0.8772  0.2158 -0.3917
  166SOL     ow  661   1.975   4.342   1.747  0.8320 -0.0217  0.4791
  166SOL     hw  662   2.003   4.254   1.773  2.9902  0.7349  0.8994
  166SOL     hw  663   1.962   4.388   1.830  1.2555  0.4949  0.2632
  166SOL     vw  664   1.977   4.336   1.761  1.1727  0.1462  0.5060
  167SOL     ow  665   3.011   0.889   2.727  0.6247  0.4671 -0.3911
  167SOL     hw  666   2.950   0.908   2.656 -0.4093 -0.1317  0.3114
  167SOL     hw  667   3.078   0.956   2.719  0.8137  0.1096 -2.2381
  167SOL     vw  668   3.012   0.901   2.716  0.5132  0.3409 -0.5420
  168SOL     ow  669   1.897   0.319   0.805 -0.8649  0.0451  0.3750
  168SOL     hw  670   1.859   0.322   0.717 -3.4349  0.0729  1.4144
  168SOL     hw  671   1.909   0.226   0.823 -1.1377  0.0010  0.3274
  168SOL     vw  672   1.894   0.308   0.796 -1.2401  0.0429  0.5058
  169SOL     ow  673   4.946   5.731   6.329  0.4855  0.3552  0.5107
  169SOL     hw  674   4.979   5.694   6.412 -1.0140 -0.8817  0.5847
  169SOL     hw  675   4.857   5.698   6.322 -0.7836  3.5757  0.2891
  169SOL     vw  676   4.939   5.721   6.339  0.1202  0.6170  0.4909
  170SOL     ow  677   6.985   1.947   5.874 -0.2693 -0.5668  0.5245
  170SOL     hw  678   7.041   1.920   5.801  1.0979  0.1961  1.2429
  170SOL     hw  679   6.897   1.949   5.837  0.6849  2.8105 -2.0712
  170SOL     vw  680   6.981   1.944   5.859  0.0370 -0.0205  0.2763
  171SOL     ow  681   4.672   6.189   6.696 -0.2573 -0.1400 -0.0287
  171SOL     hw  682   4.699   6.271   6.738 -2.9020  0.2292  1.1634
  171SOL     hw  683   4.638   6.217   6.611  2.2820 -0.5310 -1.2596
  171SOL     vw  684   4.671   6.204   6.690 -0.2713 -0.1431 -0.0339
  172SOL     ow  685   0.970   2.554   4.090 -0.0717 -0.2136 -0.3702
  172SOL     hw  686   0.998   2.513   4.172 -2.4054 -0.6039  0.3203
  172SOL     hw  687   1.006   2.499   4.021  2.9665  0.7973  0.2786
  172SOL     vw  688   0.978   2.541   4.092  0.0212 -0.1317 -0.1934
  173SOL     ow  689   1.506   4.099   1.432  0.0369 -0.1536  0.1853
  173SOL     hw  690   1.577   4.046   1.468  0.6508  0.1500 -0.5660
  173SOL     hw  691   1.445   4.035   1.395  0.0857 -0.3963  0.5170
  173SOL     vw  692   1.507   4.083   1.432  0.1243 -0.1454  0.1299
  174SOL     ow  693   6.189   1.010   4.294  0.3819  0.5303 -0.2262
  174SOL     hw  694   6.098   1.009   4.264  0.5232  1.1532 -0.6989
  174SOL     hw  695   6.210   1.103   4.305  0.8415  0.3779  0.2636
  174SOL     vw  696   6.180   1.022   4.292  0.4611  0.5923 -0.2239
  175SOL     ow  697   5.640   4.887   5.854  0.0004 -0.0827 -0.1305
  175SOL     hw  698   5.576   4.958   5.861 -0.7297 -0.6725 -0.6490
  175SOL     hw  699   5.724   4.931   5.841 -0.4144  0.6870 -0.2339
  175SOL     vw  700   5.643   4.902   5.853 -0.1507 -0.0589 -0.2124
  176SOL     ow  701   6.886   6.730   1.950 -0.3332 -0.6777  0.0354
  176SOL     hw  702   6.882   6.686   1.865  1.1310 -1.1271  0.1716
  176SOL     hw  703   6.883   6.823   1.929 -3.1379 -0.7493 -0.2823
  176SOL     vw  704   6.885   6.736   1.936 -0.5102 -0.7465  0.0114
  177SOL     ow  705   1.339   3.083   3.681  0.3328  0.0506  0.0212
  177SOL     hw  706   1.401   3.012   3.696  1.6371  1.1063 -0.1564
  177SOL     hw  707   1.389   3.148   3.631 -0.7125  1.2147  0.4288
  177SOL     vw  708   1.354   3.083   3.677  0.3669  0.3434  0.0517
  178SOL     ow  709   1.467   0.663   6.742  0.2846 -0.0527 -0.3306
  178SOL     hw  710   1.394   0.620   6.786 -0.5422  1.5043 -0.1041
  178SOL     hw  711   1.432   0.691   6.658  0.0836  2.0733  0.3853
  178SOL     vw  712   1.453   0.661   6.737  0.1490  0.4332 -0.2062
  179SOL     ow  713   2.053   1.526   1.503  0.0391  0.2155 -0.7058
  179SOL     hw  714   2.057   1.453   1.442 -0.8070 -0.0989 -0.4038
  179SOL     hw  715   1.981   1.581   1.471  1.3823  1.5262 -1.5724
  179SOL     vw  716   2.044   1.524   1.491  0.1047  0.3469 -0.7803
  180SOL     ow  717   7.018   2.354   6.906 -0.3767  0.2295  0.3128
  180SOL     hw  718   7.104   2.338   6.945  0.6789  0.0104 -1.9377
  180SOL     hw  719   7.014   2.295   6.830 -2.1861  0.8113 -0.1032
  180SOL     vw  720   7.029   2.344   6.901 -0.4761  0.2773 -0.0391
  181SOL     ow  721   6.796   6.212   0.549 -0.2029  0.1548 -0.2912
  181SOL     hw  722   6.724   6.173   0.500 -0.5030 -2.1800  1.8156
  181SOL     hw  723   6.853   6.139   0.572  0.2151  1.1706  2.2760
  181SOL     vw  724   6.794   6.197   0.546 -0.1874 -0.0193  0.3255
  182SOL     ow  725   1.392   1.073   1.597 -0.2636  0.5119  0.2726
  182SOL     hw  726   1.368   1.024   1.676 -0.1449 -0.0014 -0.0044
  182SOL     hw  727   1.483   1.049   1.581  0.1325  1.6325  0.7168
  182SOL     vw  728   1.401   1.063   1.606 -0.1957  0.5920  0.2947
  183SOL     ow  729   5.136   6.324   0.157 -0.2174 -0.1325  0.8649
  183SOL     hw  730   5.215   6.369   0.128 -0.6935 -0.2676 -0.7094
  183SOL     hw  731   5.149   6.233   0.132 -1.3049  0.0347 -0.4174
  183SOL     vw  732   5.148   6.318   0.150 -0.4234 -0.1285  0.4880
  184SOL     ow  733   5.785   6.424   1.062  0.1678  0.0729  0.2277
  184SOL     hw  734   5.781   6.415   1.157  0.0288  1.1732  0.3383
  184SOL     hw  735   5.878   6.434   1.042  0.5483 -3.1836 -0.0901
  184SOL     vw  736   5.796   6.424   1.071  0.1996 -0.2115  0.2004
  185SOL     ow  737   3.174   0.198   7.042 -0.0854  0.2376 -0.3695
  185SOL     hw  738   3.228   0.152   7.105 -0.0604 -0.0892 -0.6263
  185SOL     hw  739   3.121   0.258   7.095 -1.1471 -1.0766  0.1366
  185SOL     vw  740   3.174   0.200   7.057 -0.2221  0.0210 -0.3364
  186SOL     ow  741   0.495   0.811   2.781  0.2053 -0.3710 -0.2422
  186SOL     hw  742   0.586   0.838   2.769  0.0781  0.7108  1.0424
  186SOL     hw  743   0.499   0.736   2.839  0.2107  0.8175  1.3675
  186SOL     vw  744   0.507   0.805   2.787  0.1892 -0.0714  0.1397
  187SOL     ow  745   2.386   0.494   4.179  0.5813  0.3138  0.6563
  187SOL     hw  746   2.351   0.406   4.174 -1.2362  1.0534 -1.3341
  187SOL     hw  747   2.377   0.519   4.271  1.4503 -1.6516  1.3122
  187SOL     vw  748   2.380   0.486   4.190  0.4562  0.1521  0.4802
  188SOL     ow  749   6.854   4.011   2.564 -0.4094 -0.1368  0.4426
  188SOL     hw  750   6.924   3.963   2.610  0.0612 -0.5374 -0.6448
  188SOL     hw  751   6.900   4.055   2.492 -1.2565 -0.2695 -0.1839
  188SOL     vw  752   6.870   4.010   2.561 -0.4590 -0.2074  0.2165
  189SOL     ow  753   2.243   6.802   5.915 -0.6088 -0.4576 -0.3030
  189SOL     hw  754   2.218   6.889   5.947 -2.4090 -0.8212 -0.6171
  189SOL     hw  755   2.172   6.745   5.945  0.7943 -1.9371  0.3423
  189SOL     vw  756   2.230   6.806   5.923 -0.6613 -0.7007 -0.2592
  190SOL     ow  757   2.467   4.113   4.446  0.0632  0.4551  0.2249
  190SOL     hw  758   2.468   4.191   4.502 -1.2123  0.7753 -0.1754
  190SOL     hw  759   2.377   4.104   4.418  0.6431  0.2188 -1.6999
  190SOL     vw  760   2.456   4.122   4.450 -0.0286  0.4663 -0.0818
  191SOL     ow  761   0.791   4.101   1.529  0.0913 -0.7465  0.2122
  191SOL     hw  762   0.704   4.082   1.564  0.1938  0.3047  1.0975
  191SOL     hw  763   0.851   4.074   1.598  0.4916 -1.5964 -0.4511
  191SOL     vw  764   0.788   4.095   1.543  0.1577 -0.7200  0.2414
  192SOL     ow  765   6.825   3.385   4.254 -0.5779  0.0773 -0.4212
  192SOL     hw  766   6.813   3.345   4.340 -1.5238  1.8106  0.3185
  192SOL     hw  767   6.888   3.456   4.269 -1.4976  1.0307 -0.8942
  192SOL     vw  768   6.831   3.389   4.268 -0.8242  0.4317 -0.3860
  193SOL     ow  769   2.400   0.588   6.966  0.2672 -0.6786  0.0688
  193SOL     hw  770   2.492   0.582   6.940  0.9678  0.7489  1.9457
  193SOL     hw  771   2.395   0.537   7.046 -0.7415 -1.2684 -0.3591
  193SOL     vw  772   2.412   0.581   6.973  0.2265 -0.5681  0.2601
  194SOL     ow  773   1.773   3.791   0.112 -0.3386  0.2548 -0.7688
  194SOL     hw  774   1.800   3.825   0.198 -0.0544  0.8898 -1.0966
  194SOL     hw  775   1.703   3.850   0.084 -0.6759 -0.1655 -0.8232
  194SOL     vw  776   1.768   3.804   0.119 -0.3455  0.2829 -0.8193
  195SOL     ow  777   4.141   6.936   4.920 -0.1565 -0.2386  0.3379
  195SOL     hw  778   4.186   6.898   4.844  0.2593  0.4720  0.2219
  195SOL     hw  779   4.185   7.020   4.934 -1.5747  0.5735  0.1059
  195SOL     vw  780   4.153   6.942   4.912 -0.2890 -0.0374  0.2923
  196SOL     ow  781   4.002   6.604   0.523  0.1165 -0.1199 -0.0118
  196SOL     hw  782   4.059   6.593   0.446 -0.9598  0.9041 -1.0062
  196SOL     hw  783   4.010   6.697   0.545 -0.3724 -0.1935  0.4705
  196SOL     vw  784   4.011   6.615   0.516 -0.0899  0.0052 -0.0794
  197SOL     ow  785   0.803   4.274   2.906 -0.3799 -0.3612 -0.2840
  197SOL     hw  786   0.769   4.216   2.974 -1.3253  1.0170  0.4640
  197SOL     hw  787   0.868   4.222   2.860 -1.0318 -1.9283  0.5114
  197SOL     vw  788   0.807   4.260   2.909 -0.5906 -0.3865 -0.0803
  198SOL     ow  789   1.006   0.664   2.234  0.4705 -0.4945  0.4517
  198SOL     hw  790   1.056   0.601   2.182  0.7046  1.6065 -2.0871
  198SOL     hw  791   0.962   0.719   2.169 -0.7169  1.1840  2.5463
  198SOL     vw  792   1.007   0.663   2.218  0.3448  0.0042  0.3930
  199SOL     ow  793   3.688   0.698   6.543 -0.1057 -0.2301 -0.6884
  199SOL     hw  794   3.689   0.620   6.599  0.4142  0.2856  0.0320
  199SOL     hw  795   3.653   0.767   6.599 -2.1545 -0.2727 -1.8054
  199SOL     vw  796   3.683   0.697   6.558 -0.3073 -0.1677 -0.7408
  200SOL     ow  797   3.333   0.132   2.018  0.2646  0.3137 -0.3638
  200SOL     hw  798   3.389   0.112   2.093  0.4156  1.8725 -0.0236
  200SOL     hw  799   3.372   0.083   1.945 -0.4826 -2.0424  0.7295
  200SOL     vw  800   3.345   0.123   2.018  0.1860  0.2085 -0.1746
  201SOL     ow  801   1.821   3.837   4.939  0.6730 -0.5115  0.6111
  201SOL     hw  802   1.760   3.910   4.948  1.9186  0.6607  0.0893
  201SOL     hw  803   1.785   3.784   4.868  1.3077  1.3574 -1.2397
  201SOL     vw  804   1.808   3.840   4.931  0.9211 -0.1104  0.2983
  202SOL     ow  805   0.252   2.654   1.605  0.3365 -0.2732 -0.5244
  202SOL     hw  806   0.306   2.732   1.599  1.2280 -0.9252 -1.4906
  202SOL     hw  807   0.273   2.615   1.689 -1.6860  1.5845  0.9529
  202SOL     vw  808   0.262   2.659   1.615  0.1873 -0.1142 -0.4569
  203SOL     ow  809   2.183   4.389   3.881  0.0983  0.5552  0.0935
  203SOL     hw  810   2.247   4.319   3.881  0.3716  0.7998 -0.5307
  203SOL     hw  811   2.213   4.450   3.814 -0.8711  0.5850 -0.3440
  203SOL     vw  812   2.195   4.388   3.872  0.0064  0.5913 -0.0466
  204SOL     ow  813   7.082   0.580   0.931 -0.3878  0.0255 -0.6498
  204SOL     hw  814   7.172   0.578   0.899  0.2613  1.0518  0.9813
  204SOL     hw  815   7.091   0.581   1.027 -2.0851  1.4563 -0.4736
  204SOL     vw  816   7.095   0.580   0.940 -0.5260  0.3496 -0.4113
  205SOL     ow  817   1.115   3.311   1.897 -0.4132 -0.4988  0.3436
  205SOL     hw  818   1.074   3.225   1.893  0.3862 -0.9273  1.0697
  205SOL     hw  819   1.099   3.350   1.811  0.0812 -1.7581 -0.3400
  205SOL     vw  820   1.107   3.305   1.885 -0.2425 -0.7215  0.3492
  206SOL     ow  821   0.501   1.385   2.294  0.0410  0.6115  0.3988
  206SOL     hw  822   0.505   1.404   2.388  0.6149  1.6369  0.1900
  206SOL     hw  823   0.426   1.434   2.263 -0.3125  0.0514  0.3634
  206SOL     vw  824   0.492   1.394   2.302  0.0701  0.6728  0.3667
  207SOL     ow  825   3.324   6.277   4.827 -0.0085 -0.5301 -0.3903
  207SOL     hw  826   3.368   6.331   4.892 -0.2050 -0.2672 -0.4778
  207SOL     hw  827   3.268   6.218   4.878 -1.2163  0.5941 -0.3762
  207SOL     vw  828   3.323   6.276   4.842 -0.1937 -0.3471 -0.4003
  208SOL     ow  829   6.981   1.818   2.012 -0.8553 -0.3270 -0.1009
  208SOL     hw  830   6.926   1.859   2.079 -0.2604  0.7527 -0.2559
  208SOL     hw  831   7.054   1.781   2.061 -1.1519 -0.8109 -0.0126
  208SOL     vw  832   6.983   1.818   2.027 -0.8159 -0.2484 -0.1098
  209SOL     ow  833   0.505   2.799   2.869  0.2399  0.0594 -0.7647
  209SOL     hw  834   0.421   2.766   2.898  0.1310  1.9571  1.3993
  209SOL     hw  835   0.568   2.768   2.935  1.2550 -1.1648 -2.2348
  209SOL     vw  836   0.502   2.791   2.882  0.3595  0.1482 -0.6733
  210SOL     ow  837   5.918   6.501   6.758 -0.3165  0.4671 -0.6879
  210SOL     hw  838   5.925   6.590   6.725 -0.4301  0.5531 -0.4847
  210SOL     hw  839   5.979   6.450   6.705  1.1159  1.0019  0.3926
  210SOL     vw  840   5.927   6.506   6.747 -0.1426  0.5491 -0.5183
  211SOL     ow  841   1.960   5.548   5.298  0.2304  0.1238 -0.1971
  211SOL     hw  842   2.034   5.608   5.288  0.3397 -0.1215 -0.9655
  211SOL     hw  843   1.883   5.603   5.286  0.2988  0.3225  0.2780
  211SOL     vw  844   1.960   5.563   5.295  0.2539  0.1178 -0.2356
  212SOL     ow  845   5.714   1.581   2.071  0.0840  0.3178  0.0650
  212SOL     hw  846   5.619   1.585   2.066  0.0380 -0.6576  0.0944
  212SOL     hw  847   5.738   1.647   2.137 -0.5040  1.0901 -0.4732
  212SOL     vw  848   5.705   1.590   2.079  0.0007  0.2910 -0.0023
  213SOL     ow  849   1.240   1.118   1.328  0.0902  0.1384 -0.2023
  213SOL     hw  850   1.198   1.090   1.247 -0.4330  1.6544 -0.4852
  213SOL     hw  851   1.309   1.178   1.300 -0.9190  1.6879  0.4948
  213SOL     vw  852   1.243   1.122   1.314 -0.1120  0.5428 -0.1477
  214SOL     ow  853   0.240   1.035   6.536 -0.4085  0.0202  0.1815
  214SOL     hw  854   0.260   0.978   6.462 -0.1585 -0.5913  0.7154
  214SOL     hw  855   0.307   1.103   6.533 -1.1280  0.7144 -0.8816
  214SOL     vw  856   0.251   1.036   6.526 -0.4705  0.0312  0.1118
  215SOL     ow  857   6.988   5.296   0.059  0.1527  0.9278 -0.1005
  215SOL     hw  858   6.984   5.375   0.005  1.0283  1.2707  0.3095
  215SOL     hw  859   6.975   5.326   0.149 -2.0138  0.2677 -0.1359
  215SOL     vw  860   6.986   5.310   0.064 -0.0174  0.8860 -0.0511
  216SOL     ow  861   5.656   3.934   6.062 -0.1631  0.2592  0.1397
  216SOL     hw  862   5.572   3.888   6.064 -2.2814  3.7791  0.3493
  216SOL     hw  863   5.655   3.990   6.139  2.5133  0.3059  0.2317
  216SOL     vw  864   5.645   3.936   6.072 -0.0894  0.7297  0.1791
  217SOL     ow  865   5.665   7.020   1.382 -0.1026 -0.2110 -0.2060
  217SOL     hw  866   5.673   7.108   1.345 -1.8326  0.3058  0.5713
  217SOL     hw  867   5.695   6.962   1.312  3.8878  1.0334  0.2063
  217SOL     vw  868   5.670   7.024   1.368  0.1957  0.0217 -0.0491
  218SOL     ow  869   2.791   7.008   6.159 -0.1382 -0.5877  0.0709
  218SOL     hw  870   2.828   6.974   6.078  1.8368 -1.7166  1.3728
  218SOL     hw  871   2.831   6.955   6.228  0.7634  2.4119  2.0381
  218SOL     vw  872   2.801   6.997   6.158  0.2415 -0.3407  0.5021
  219SOL     ow  873   6.126   3.156   5.198  0.1014 -0.3773  0.0479
  219SOL     hw  874   6.203   3.202   5.164 -1.0689  0.4306 -1.6461
  219SOL     hw  875   6.160   3.101   5.269  1.6242  2.8478  2.0122
  219SOL     vw  876   6.141   3.155   5.203  0.1481  0.1546  0.0837
  220SOL     ow  877   6.790   6.948   3.222  0.3373  0.2579  0.3409
  220SOL     hw  878   6.850   6.938   3.296  1.6068 -2.2189 -0.8798
  220SOL     hw  879   6.840   6.995   3.155  0.4939 -0.6495 -0.2007
  220SOL     vw  880   6.804   6.953   3.223  0.5255 -0.1886  0.1082
  221SOL     ow  881   3.025   6.240   5.868 -0.0834  0.0718 -0.5109
  221SOL     hw  882   3.044   6.216   5.958 -2.1862 -2.1884 -0.5802
  221SOL     hw  883   2.962   6.312   5.875  0.2075  0.2974 -0.1893
  221SOL     vw  884   3.019   6.246   5.881 -0.3225 -0.1967 -0.4776
  222SOL     ow  885   3.487   4.702   5.343 -0.0962  0.1115 -0.5591
  222SOL     hw  886   3.500   4.753   5.262 -0.4202  0.0972 -0.6225
  222SOL     hw  887   3.538   4.749   5.409  0.5293 -0.1242 -0.8656
  222SOL     vw  888   3.496   4.715   5.341 -0.0564  0.0784 -0.6080
  223SOL     ow  889   3.570   4.438   5.478 -0.2069  0.1371 -0.5042
  223SOL     hw  890   3.624   4.362   5.457  0.0077  0.5866 -1.6283
  223SOL     hw  891   3.545   4.425   5.570  1.0457 -0.5371 -0.2419
  223SOL     vw  892   3.573   4.427   5.487 -0.0132  0.1073 -0.6180
  224SOL     ow  893   4.324   0.787   5.751 -0.0850 -0.2559 -0.1154
  224SOL     hw  894   4.412   0.777   5.788 -0.9368 -0.2439  2.0963
  224SOL     hw  895   4.286   0.699   5.754 -1.7317  0.3694  3.5486
  224SOL     vw  896   4.331   0.774   5.756 -0.4148 -0.1718  0.6597
  225SOL     ow  897   5.153   2.719   1.982  0.1866  0.0196 -0.3115
  225SOL     hw  898   5.217   2.757   1.921 -1.7601 -1.4962 -3.5757
  225SOL     hw  899   5.128   2.636   1.941 -0.9662 -1.3678  2.8915
  225SOL     vw  900   5.158   2.713   1.968 -0.2222 -0.3635 -0.3195
  226SOL     ow  901   0.213   1.158   2.831  0.0355 -0.0375 -0.2421
  226SOL     hw  902   0.153   1.211   2.780  0.6224 -0.6980 -1.6781
  226SOL     hw  903   0.291   1.212   2.840  0.4684 -0.4525 -1.3244
  226SOL     vw  904   0.216   1.172   2.826  0.1700 -0.1794 -0.5744
  227SOL     ow  905   6.571   4.429   4.074  0.7617 -0.0152 -0.7204
  227SOL     hw  906   6.533   4.508   4.114  0.8228 -0.2941 -0.1004
  227SOL     hw  907   6.497   4.386   4.031  1.0708  1.3744 -2.7651
  227SOL     vw  908   6.556   4.434   4.073  0.8104  0.1314 -0.9084
  228SOL     ow  909   4.685   2.909   3.864 -0.1942 -0.0807  0.5874
  228SOL     hw  910   4.689   2.816   3.843 -1.0453 -0.3409  1.4907
  228SOL     hw  911   4.677   2.911   3.960  0.0664  0.9321  0.5974
  228SOL     vw  912   4.685   2.897   3.874 -0.2720  0.0186  0.7079
  229SOL     ow  913   3.402   0.168   4.667  0.3420  0.1666  0.1229
  229SOL     hw  914   3.423   0.113   4.592 -0.4891 -1.4447  1.0110
  229SOL     hw  915   3.316   0.205   4.647  1.6220  2.5828 -1.2228
  229SOL     vw  916   3.393   0.165   4.655  0.4014  0.2728  0.0625
  230SOL     ow  917   3.402   2.946   6.101  0.4525  0.1393 -0.3341
  230SOL     hw  918   3.324   2.917   6.052  0.9710 -1.0666 -0.4883
  230SOL     hw  919   3.389   2.910   6.189  1.1878 -0.7465 -0.5738
  230SOL     vw  920   3.390   2.937   6.106  0.6180 -0.1367 -0.3858
  231SOL     ow  921   0.764   2.167   6.071 -0.2870  0.7041  0.0881
  231SOL     hw  922   0.719   2.083   6.075 -1.9397  1.5795  1.3757
  231SOL     hw  923   0.704   2.228   6.113  1.9147  2.0588  1.4835
  231SOL     vw  924   0.750   2.164   6.077 -0.2146  0.9983  0.4420
  232SOL     ow  925   3.018   3.694   5.880  0.4730  0.0056  0.4745
  232SOL     hw  926   2.997   3.707   5.973 -1.6090 -0.2862  0.0811
  232SOL     hw  927   3.070   3.613   5.879 -1.0208 -1.0056  1.2308
  232SOL     vw  928   3.022   3.685   5.892  0.0014 -0.1663  0.5224
  233SOL     ow  929   6.462   3.490   4.526 -0.0309 -0.4107 -0.5798
  233SOL     hw  930   6.473   3.551   4.599 -1.9618 -1.0777  0.3527
  233SOL     hw  931   6.528   3.516   4.462  0.6414  1.2403  0.7129
  233SOL     vw  932   6.472   3.501   4.527 -0.1972 -0.2807 -0.2861
  234SOL     ow  933   6.915   0.486   2.489 -0.1798 -0.0566 -0.1872
  234SOL     hw  934   6.837   0.510   2.438 -0.1232 -3.1639 -2.0110
  234SOL     hw  935   6.889   0.501   2.580 -2.2205  0.7399 -0.8346
  234SOL     vw  936   6.901   0.491   2.494 -0.4418 -0.3615 -0.5133
  235SOL     ow  937   3.707   5.927   2.738 -0.4457  0.3304  0.7057
  235SOL     hw  938   3.663   5.964   2.662  4.1848  1.6311 -1.6988
  235SOL     hw  939   3.713   5.833   2.719  1.7893  0.7923 -1.4190
  235SOL     vw  940   3.702   5.920   2.726  0.4600  0.5627  0.1082
  236SOL     ow  941   6.598   5.537   5.345  0.1154 -0.5471 -0.1629
  236SOL     hw  942   6.506   5.556   5.325  0.4845  0.7707 -0.6963
  236SOL     hw  943   6.616   5.456   5.298 -1.3068 -1.9423  1.5423
  236SOL     vw  944   6.588   5.529   5.336 -0.0236 -0.5574 -0.0083
  237SOL     ow  945   1.216   2.938   6.635 -0.3964  0.1581 -0.6644
  237SOL     hw  946   1.292   2.937   6.577 -0.0123  2.3334 -0.3039
  237SOL     hw  947   1.245   2.895   6.715 -0.5982 -1.9015 -1.6420
  237SOL     vw  948   1.230   2.932   6.638 -0.3724  0.1732 -0.7458
  238SOL     ow  949   5.335   1.601   3.045 -0.3253 -0.3761 -0.0005
  238SOL     hw  950   5.255   1.549   3.050 -1.8144  1.8188  0.7931
  238SOL     hw  951   5.324   1.655   2.967 -0.3471  0.9862  0.9055
  238SOL     vw  952   5.323   1.601   3.035 -0.5245  0.0932  0.2236
  239SOL     ow  953   6.234   5.188   3.033  0.0827  0.7332 -0.3064
  239SOL     hw  954   6.328   5.200   3.017  0.3573 -1.9284 -1.1268
  239SOL     hw  955   6.193   5.202   2.948 -0.3420  2.1676  0.1066
  239SOL     vw  956   6.241   5.191   3.020  0.0629  0.5715 -0.3601
  240SOL     ow  957   1.283   0.479   3.516 -0.1689  0.0582 -0.1737
  240SOL     hw  958   1.305   0.532   3.439  0.1728  0.2542  0.0516
  240SOL     hw  959   1.244   0.400   3.481  1.5459 -0.6285 -0.6490
  240SOL     vw  960   1.281   0.476   3.501  0.1025 -0.0065 -0.2067
  241SOL     ow  961   1.859   0.308   0.542  0.3668 -0.4517  0.3900
  241SOL     hw  962   1.841   0.215   0.531 -0.3529 -0.2014 -0.7158
  241SOL     hw  963   1.780   0.352   0.512  0.5684  0.5233  1.2132
  241SOL     vw  964   1.846   0.302   0.537  0.2984 -0.2900  0.3527
  242SOL     ow  965   2.104   6.998   6.273 -0.3363  0.7408 -0.3971
  242SOL     hw  966   2.030   6.996   6.333  0.0860  0.5554  0.1219
  242SOL     hw  967   2.143   6.911   6.279  0.7826  1.2785  0.4215
  242SOL     vw  968   2.099   6.987   6.281 -0.1329  0.7873 -0.2205
  243SOL     ow  969   5.005   2.922   3.081 -0.4294  0.3887  0.2261
  243SOL     hw  970   4.969   2.834   3.079 -1.1077  0.5761  2.1283
  243SOL     hw  971   4.930   2.979   3.094  0.0734  1.1891 -0.2880
  243SOL     vw  972   4.991   2.918   3.083 -0.4523  0.5192  0.4094
  244SOL     ow  973   6.290   5.554   1.281  0.3006 -0.3637  0.0339
  244SOL     hw  974   6.214   5.606   1.308  0.1231 -1.1185  1.0254
  244SOL     hw  975   6.325   5.518   1.362  1.6063 -0.2061 -0.4250
  244SOL     vw  976   6.285   5.556   1.295  0.4497 -0.4425  0.1041
  245SOL     ow  977   5.676   5.886   4.256  0.0492 -0.4760 -0.8327
  245SOL     hw  978   5.762   5.883   4.215  0.4110  1.8032 -0.3921
  245SOL     hw  979   5.672   5.973   4.296 -2.4416 -0.5321 -0.8140
  245SOL     vw  980   5.687   5.897   4.256 -0.2315 -0.1826 -0.7720
  246SOL     ow  981   6.088   6.196   3.239  0.8226  0.2630 -0.0054
  246SOL     hw  982   6.060   6.105   3.250 -2.9026  1.1515 -0.7078
  246SOL     hw  983   6.142   6.194   3.160  0.0356 -1.2263 -0.5643
  246SOL     vw  984   6.091   6.183   3.230  0.2277  0.1838 -0.1719
  247SOL     ow  985   4.176   6.396   2.094 -0.0429  0.0493 -0.3611
  247SOL     hw  986   4.218   6.324   2.141 -1.9488 -0.7512  0.2402
  247SOL     hw  987   4.162   6.463   2.161 -0.1172  0.1223 -0.4492
  247SOL     vw  988   4.180   6.395   2.109 -0.3040 -0.0467 -0.2936
  248SOL     ow  989   4.538   4.494   3.764  0.0222  0.2012  0.0274
  248SOL     hw  990   4.570   4.489   3.673 -2.0250 -1.9029 -0.6642
  248SOL     hw  991   4.576   4.417   3.806 -0.2797  0.3251  0.5228
  248SOL     vw  992   4.548   4.483   3.757 -0.2875 -0.0603  0.0014
  249SOL     ow  993   0.483   2.330   3.756  0.7257  0.0066 -0.1363
  249SOL     hw  994   0.498   2.338   3.850 -0.0522 -0.4877  0.0367
  249SOL     hw  995   0.550   2.386   3.716  2.1948 -1.1087  0.6379
  249SOL     vw  996   0.494   2.338   3.763  0.8169 -0.2058 -0.0113
  250SOL     ow  997   3.843   3.126   3.751 -0.5037 -0.7229  0.2004
  250SOL     hw  998   3.879   3.206   3.713  0.7051 -0.7138  1.2938
  250SOL     hw  999   3.748   3.138   3.746 -0.3522  0.4788 -0.2461
  250SOL     vw 1000   3.835   3.138   3.745 -0.3241 -0.5631  0.2857
  251SOL     ow 1001   1.126   3.818   1.468 -0.6310  0.6837 -0.4446
  251SOL     hw 1002   1.194   3.860   1.415 -0.2994  1.0117  0.2121
  251SOL     hw 1003   1.168   3.741   1.505 -1.1831 -0.1448 -1.4919
  251SOL     vw 1004   1.141   3.814   1.466 -0.6601  0.6177 -0.4962
  252SOL     ow 1005   2.104   6.694   4.695 -0.4042 -0.3134 -0.0904
  252SOL     hw 1006   2.195   6.685   4.721 -0.2157  1.1515 -0.1522
  252SOL     hw 1007   2.080   6.783   4.722 -2.2892 -1.1686  1.3414
  252SOL     vw 1008   2.113   6.704   4.702 -0.6281 -0.2329  0.0904
  253SOL     ow 1009   1.684   1.402   7.010  0.2076  0.5298 -0.1844
  253SOL     hw 1010   1.642   1.485   7.034  2.6225  1.6450  0.3966
  253SOL     hw 1011   1.775   1.412   7.035  1.1871 -1.2925 -2.6128
  253SOL     vw 1012   1.690   1.414   7.017  0.6555  0.4364 -0.4282
  254SOL     ow 1013   3.593   6.049   6.231  0.0146  0.3116 -0.5920
  254SOL     hw 1014   3.658   6.119   6.239 -0.3304  0.4592  1.3212
  254SOL     hw 1015   3.626   5.979   6.287 -0.8231 -0.1398 -0.6442
  254SOL     vw 1016   3.606   6.049   6.239 -0.1415  0.2716 -0.3467
  255SOL     ow 1017   2.968   2.936   4.852  0.5239 -0.2347  0.5901
  255SOL     hw 1018   3.007   2.881   4.920 -0.0705 -1.0794  0.2565
  255SOL     hw 1019   2.916   2.876   4.798  0.1580  0.5894 -0.0047
  255SOL     vw 1020   2.967   2.921   4.854  0.3972 -0.2375  0.4675
  256SOL     ow 1021   4.385   2.576   5.708 -0.2280  0.2692  0.3762
  256SOL     hw 1022   4.471   2.618   5.716 -0.5766  1.0997 -0.0537
  256SOL     hw 1023   4.346   2.617   5.630 -0.6243 -0.8034 -0.0091
  256SOL     vw 1024   4.391   2.587   5.699 -0.3266  0.2373  0.2689
  257SOL     ow 1025   0.042   1.633   5.868 -0.5309 -0.6176  0.3301
  257SOL     hw 1026   0.066   1.722   5.894  0.8977 -1.0795  0.7094
  257SOL     hw 1027   0.039   1.635   5.773  2.1882 -0.7323  0.1499
  257SOL     vw 1028   0.045   1.645   5.859  0.0164 -0.6937  0.3564
  258SOL     ow 1029   1.167   2.921   3.831  0.3513  0.1340  0.3237
  258SOL     hw 1030   1.242   2.893   3.884  1.2010 -0.6349 -1.1949
  258SOL     hw 1031   1.129   2.839   3.799 -1.9053  0.4426  1.9783
  258SOL     vw 1032   1.172   2.907   3.834  0.1656  0.0733  0.3417
  259SOL     ow 1033   5.604   2.892   3.326  0.4922 -0.0827  0.1212
  259SOL     hw 1034   5.643   2.850   3.249  0.6394 -0.6569  0.5033
  259SOL     hw 1035   5.584   2.820   3.386  1.7803  0.4553  1.2621
  259SOL     vw 1036   5.607   2.877   3.324  0.6816 -0.0875  0.3221
  260SOL     ow 1037   0.200   6.597   4.820  0.0119 -0.6434  0.1706
  260SOL     hw 1038   0.144   6.672   4.838 -0.8553 -1.2071 -0.1188
  260SOL     hw 1039   0.240   6.576   4.904 -0.2279 -0.2443  0.3848
  260SOL     vw 1040   0.198   6.604   4.833 -0.1342 -0.6652  0.1609
  261SOL     ow 1041   3.138   0.514   4.512  0.1371 -0.1796 -0.4493
  261SOL     hw 1042   3.074   0.542   4.446 -0.1188 -0.3977 -0.2958
  261SOL     hw 1043   3.161   0.424   4.487 -1.0209 -0.7822  0.5478
  261SOL     vw 1044   3.132   0.506   4.500 -0.0495 -0.2879 -0.2975
  262SOL     ow 1045   0.376   1.353   5.203  0.1003 -0.5890  0.1437
  262SOL     hw 1046   0.355   1.438   5.166  0.1409 -1.0665 -1.0118
  262SOL     hw 1047   0.316   1.292   5.160  0.1230 -1.1648  0.8986
  262SOL     vw 1048   0.366   1.356   5.193  0.1086 -0.7280  0.0906
  263SOL     ow 1049   5.310   3.701   1.219  0.1243  0.3024  0.3986
  263SOL     hw 1050   5.235   3.642   1.223 -0.1769  0.4837 -1.6801
  263SOL     hw 1051   5.275   3.787   1.240 -0.2705  0.3830 -0.5505
  263SOL     vw 1052   5.296   3.704   1.223  0.0327  0.3369 -0.0009
  264SOL     ow 1053   3.219   3.492   2.501  0.8660 -0.6464 -0.0283
  264SOL     hw 1054   3.268   3.556   2.553  0.6201 -0.8242  0.4178
  264SOL     hw 1055   3.287   3.446   2.451  1.1157 -0.5847  0.2498
  264SOL     vw 1056   3.235   3.495   2.501  0.8665 -0.6618  0.0674
  265SOL     ow 1057   2.836   3.786   3.803 -0.3077 -0.4263  0.1476
  265SOL     hw 1058   2.858   3.809   3.893 -0.0844  0.6970 -0.1712
  265SOL     hw 1059   2.902   3.833   3.750  0.1607 -1.8321 -0.5603
  265SOL     vw 1060   2.848   3.796   3.808 -0.2164 -0.4635  0.0120
  266SOL     ow 1061   5.287   3.023   3.131 -0.2262 -0.3354  0.0918
  266SOL     hw 1062   5.345   2.947   3.125  1.3208  0.7869  0.1792
  266SOL     hw 1063   5.280   3.054   3.041  2.0363  1.4158  0.4084
  266SOL     vw 1064   5.294   3.017   3.118  0.2766  0.0437  0.1451
  267SOL     ow 1065   1.248   3.170   2.139 -0.4828 -0.3596 -0.4180
  267SOL     hw 1066   1.158   3.139   2.152 -0.3890 -0.1194  0.8573
  267SOL     hw 1067   1.295   3.140   2.216  0.3630  0.2105 -0.7018
  267SOL     vw 1068   1.242   3.162   2.151 -0.3588 -0.2528 -0.2872
  268SOL     ow 1069   5.649   3.815   6.672 -0.1187 -0.2268 -0.3994
  268SOL     hw 1070   5.624   3.743   6.731  0.8957  0.6218  1.1128
  268SOL     hw 1071   5.612   3.789   6.587 -1.8459 -1.3666  0.6299
  268SOL     vw 1072   5.641   3.802   6.669 -0.2127 -0.2652 -0.0641
  269SOL     ow 1073   5.844   6.030   0.960  0.2022 -0.3055 -0.1548
  269SOL     hw 1074   5.901   6.053   0.887 -0.0790 -0.8954 -0.5676
  269SOL     hw 1075   5.903   6.001   1.029  0.4327 -0.2880 -0.3454
  269SOL     vw 1076   5.859   6.029   0.960  0.1955 -0.3810 -0.2344
  270SOL     ow 1077   5.384   4.798   5.951 -0.3799  1.1438 -0.1066
  270SOL     hw 1078   5.309   4.767   6.002 -0.5598  0.5398 -0.7265
  270SOL     hw 1079   5.362   4.889   5.930 -0.3551  1.3650  0.7804
  270SOL     vw 1080   5.371   4.806   5.955 -0.4008  1.0934 -0.0713
  271SOL     ow 1081   6.133   3.847   5.890  0.1294  0.5456  0.8240
  271SOL     hw 1082   6.075   3.771   5.884  1.5309 -0.5712  0.9710
  271SOL     hw 1083   6.178   3.850   5.806  1.1552  0.3133  1.3519
  271SOL     vw 1084   6.132   3.837   5.878  0.4497  0.3676  0.9129
  272SOL     ow 1085   4.609   2.142   5.790 -0.0891 -0.3726  0.4250
  272SOL     hw 1086   4.576   2.052   5.791  2.1022 -1.2489  0.4660
  272SOL     hw 1087   4.701   2.133   5.815  0.0168  1.9738  1.0545
  272SOL     vw 1088   4.617   2.129   5.794  0.2141 -0.1787  0.5133
  273SOL     ow 1089   5.133   5.585   3.433  0.0957 -0.1585 -0.1628
  273SOL     hw 1090   5.072   5.647   3.473  0.2867  0.6502 -1.0853
  273SOL     hw 1091   5.184   5.637   3.371  1.6814 -0.8372  0.5177
  273SOL     vw 1092   5.132   5.600   3.430  0.3297 -0.1411 -0.1948
  274SOL     ow 1093   0.593   6.948   5.494 -0.0643 -0.5031 -0.4769
  274SOL     hw 1094   0.544   6.950   5.577  1.4172 -1.1236  0.4493
  274SOL     hw 1095   0.673   6.997   5.512  1.1906 -2.2857 -0.8995
  274SOL     vw 1096   0.597   6.954   5.507  0.2967 -0.8202 -0.4106
  275SOL     ow 1097   0.914   6.923   2.025 -0.8105  0.1649 -0.4311
  275SOL     hw 1098   0.896   6.829   2.022 -0.7711  0.0689  1.2087
  275SOL     hw 1099   0.923   6.942   2.119  1.5599  1.3541 -0.8208
  275SOL     vw 1100   0.913   6.913   2.037 -0.4926  0.3090 -0.2662
  276SOL     ow 1101   3.672   2.845   3.769  0.1046  0.2562  0.2830
  276SOL     hw 1102   3.613   2.853   3.844  0.0625 -0.6929  0.3654
  276SOL     hw 1103   3.621   2.877   3.695 -0.3686 -0.1504  0.4263
  276SOL     vw 1104   3.658   2.850   3.769  0.0367  0.0774  0.3127
  277SOL     ow 1105   0.749   0.413   0.127  0.2460  0.3624 -0.3906
  277SOL     hw 1106   0.785   0.500   0.108  0.0448  0.0014 -2.7396
  277SOL     hw 1107   0.682   0.400   0.060 -0.4290 -1.2076  0.5373
  277SOL     vw 1108   0.745   0.423   0.115  0.1304  0.1076 -0.5781
  278SOL     ow 1109   0.509   6.944   5.775  0.0612  0.7735  0.0655
  278SOL     hw 1110   0.593   6.910   5.807 -0.1158 -0.6603 -0.8962
  278SOL     hw 1111   0.454   6.866   5.765 -0.7691  1.4787 -1.0932
  278SOL     vw 1112   0.513   6.929   5.778 -0.0716  0.6776 -0.2143
  279SOL     ow 1113   0.593   2.072   2.242  0.1305  0.1065 -0.1125
  279SOL     hw 1114   0.638   2.149   2.276  0.6661  0.1729 -0.9367
  279SOL     hw 1115   0.605   2.077   2.147 -1.6514  0.1357 -0.3603
  279SOL     vw 1116   0.601   2.083   2.234 -0.0339  0.1191 -0.2539
  280SOL     ow 1117   5.465   5.889   3.170 -0.3348  0.2781 -0.0115
  280SOL     hw 1118   5.495   5.936   3.248 -2.1078 -0.5811  1.2488
  280SOL     hw 1119   5.430   5.806   3.203  0.0526 -0.6954 -1.8772
  280SOL     vw 1120   5.465   5.884   3.185 -0.5176  0.0365 -0.0913
  281SOL     ow 1121   1.487   6.519   4.306 -0.2755  0.3023 -1.1342
  281SOL     hw 1122   1.537   6.601   4.301  0.4610 -0.0215  0.3102
  281SOL     hw 1123   1.457   6.514   4.397 -0.2398 -1.0590 -1.1685
  281SOL     vw 1124   1.490   6.529   4.318 -0.1736  0.0799 -0.9482
  282SOL     ow 1125   4.022   2.062   6.661  0.8352  0.0106  0.7549
  282SOL     hw 1126   4.019   1.967   6.645  1.1236 -0.1049  1.3521
  282SOL     hw 1127   3.955   2.076   6.729 -0.6704  0.5506 -0.7736
  282SOL     vw 1128   4.013   2.051   6.668  0.6747  0.0665  0.6320
  283SOL     ow 1129   0.316   0.945   4.770  0.3186 -0.1910 -0.1112
  283SOL     hw 1130   0.271   0.884   4.828  2.1992  1.0165  2.8390
  283SOL     hw 1131   0.275   1.030   4.788  0.5744  0.1239 -0.9585
  283SOL     vw 1132   0.305   0.948   4.780  0.6005  0.0099  0.1664
  284SOL     ow 1133   0.625   6.666   5.043 -0.7462  0.2435  0.0392
  284SOL     hw 1134   0.718   6.689   5.033 -0.7291  0.7887  1.3287
  284SOL     hw 1135   0.601   6.629   4.958  0.7944 -0.4235 -0.1417
  284SOL     vw 1136   0.634   6.664   5.030 -0.5407  0.2275  0.1853
  285SOL     ow 1137   6.875   0.703   5.371  0.5384 -0.4099 -0.4374
  285SOL     hw 1138   6.820   0.657   5.434  0.1967 -0.1385 -0.5368
  285SOL     hw 1139   6.957   0.654   5.370 -0.0648 -1.4203 -1.0601
  285SOL     vw 1140   6.879   0.691   5.379  0.4139 -0.5074 -0.5326
  286SOL     ow 1141   5.392   0.921   1.890 -0.6625 -0.0347  0.2259
  286SOL     hw 1142   5.483   0.932   1.862 -0.5999 -0.2868  0.3274
  286SOL     hw 1143   5.398   0.899   1.983 -0.8622  0.6400  0.4081
  286SOL     vw 1144   5.404   0.920   1.899 -0.6804  0.0210  0.2633
  287SOL     ow 1145   6.321   1.834   5.490 -0.2083 -0.0459  0.4985
  287SOL     hw 1146   6.345   1.896   5.559  0.7496  2.2019 -1.6814
  287SOL     hw 1147   6.395   1.838   5.428 -0.9615 -2.0272 -0.6187
  287SOL     vw 1148   6.334   1.843   5.491 -0.1814 -0.0107  0.0634
  288SOL     ow 1149   4.857   6.751   0.076  0.3032  0.0696 -0.2611
  288SOL     hw 1150   4.802   6.683   0.114  0.8225  0.2525  0.8532
  288SOL     hw 1151   4.799   6.799   0.016 -0.7595  0.2671  0.8895
  288SOL     vw 1152   4.842   6.748   0.073  0.2315  0.1197  0.0377
  289SOL     ow 1153   0.772   4.990   3.042 -0.2988  0.5752 -0.4931
  289SOL     hw 1154   0.841   4.997   3.108  1.0325 -0.7427 -1.6738
  289SOL     hw 1155   0.690   5.001   3.092  0.6855  0.6765  1.1835
  289SOL     vw 1156   0.770   4.992   3.057  0.0067  0.4146 -0.4276
  290SOL     ow 1157   1.282   6.935   5.507 -0.2487 -0.0242 -0.7329
  290SOL     hw 1158   1.250   6.902   5.591  1.3403 -1.8864 -0.7747
  290SOL     hw 1159   1.371   6.964   5.525  0.3626 -1.0835 -1.8618
  290SOL     vw 1160   1.289   6.934   5.521  0.0416 -0.4096 -0.8872
  291SOL     ow 1161   5.379   3.868   1.648  0.2717  0.4440 -0.5463
  291SOL     hw 1162   5.452   3.831   1.697 -0.4767 -0.0723  0.2093
  291SOL     hw 1163   5.370   3.812   1.571  0.1360 -0.0167 -0.2006
  291SOL     vw 1164   5.387   3.856   1.644  0.1550  0.3151 -0.4010
  292SOL     ow 1165   0.114   4.396   5.768 -0.2590  0.0050 -0.6134
  292SOL     hw 1166   0.186   4.405   5.705 -1.3579 -1.6922 -2.2247
  292SOL     hw 1167   0.061   4.324   5.733 -2.1368  0.4648  1.1261
  292SOL     vw 1168   0.117   4.387   5.756 -0.6518 -0.1581 -0.5965
  293SOL     ow 1169   3.774   4.526   6.296  0.0018 -0.8288 -0.5502
  293SOL     hw 1170   3.791   4.468   6.222  0.4928 -0.8540 -0.4235
  293SOL     hw 1171   3.856   4.527   6.346 -0.7432 -1.9219  0.7796
  293SOL     vw 1172   3.787   4.519   6.293 -0.0317 -0.9763 -0.3579
  294SOL     ow 1173   5.191   3.196   3.542 -0.4863 -0.2530 -0.1381
  294SOL     hw 1174   5.264   3.162   3.595 -1.3817 -1.1596  0.5722
  294SOL     hw 1175   5.147   3.258   3.600  0.5181  1.3781 -1.0663
  294SOL     vw 1176   5.195   3.199   3.557 -0.4718 -0.1574 -0.1670
  295SOL     ow 1177   2.049   1.488   1.767 -0.2495 -0.0337 -0.7125
  295SOL     hw 1178   2.033   1.394   1.776  0.5016 -0.1734 -0.7388
  295SOL     hw 1179   2.057   1.502   1.672  1.8835 -0.3627 -0.6296
  295SOL     vw 1180   2.048   1.478   1.755  0.1310 -0.0955 -0.7051
  296SOL     ow 1181   0.580   3.243   4.537 -0.3163 -0.1911 -0.3453
  296SOL     hw 1182   0.550   3.155   4.515 -2.8737  0.4604  0.1140
  296SOL     hw 1183   0.663   3.253   4.491 -0.6411 -2.3257 -1.5363
  296SOL     vw 1184   0.587   3.233   4.528 -0.6965 -0.3867 -0.4418
  297SOL     ow 1185   2.101   3.117   6.781 -0.1669 -0.0973 -0.4594
  297SOL     hw 1186   2.010   3.125   6.751 -0.7766  0.6590  1.4309
  297SOL     hw 1187   2.122   3.203   6.817  1.2769 -0.3053 -0.7668
  297SOL     vw 1188   2.092   3.129   6.782 -0.0569 -0.0250 -0.2506
  298SOL     ow 1189   5.945   2.088   0.043  0.1498  0.0086 -0.2674
  298SOL     hw 1190   5.956   2.070   0.136 -1.1993  0.3751 -0.0090
  298SOL     hw 1191   5.935   2.183   0.038 -0.3721 -0.0646 -0.7098
  298SOL     vw 1192   5.945   2.098   0.055 -0.0973  0.0472 -0.2917
  299SOL     ow 1193   4.483   1.891   5.811  0.3147  0.5149  0.2928
  299SOL     hw 1194   4.559   1.864   5.863  0.7858 -0.0223 -0.6532
  299SOL     hw 1195   4.457   1.812   5.763  0.4404  1.2078 -0.9550
  299SOL     vw 1196   4.490   1.877   5.811  0.3932  0.5354  0.0036
  300SOL     ow 1197   5.641   0.384   0.382 -0.4799  0.7248  0.1148
  300SOL     hw 1198   5.726   0.347   0.406 -0.6186  0.7327  0.6189
  300SOL     hw 1199   5.613   0.433   0.459 -0.6476  1.2553 -0.2794
  300SOL     vw 1200   5.648   0.385   0.395 -0.5205  0.7958  0.1293
  301SOL     ow 1201   2.533   6.109   3.775 -0.0617  0.1064  0.3130
  301SOL     hw 1202   2.539   6.157   3.693 -0.4975 -1.4076 -0.6281
  301SOL     hw 1203   2.617   6.124   3.818 -0.0542  1.3900 -0.1136
  301SOL     vw 1204   2.544   6.117   3.770 -0.1181  0.0761  0.1324
  302SOL     ow 1205   0.094   2.667   4.374 -0.2151 -0.3361 -0.6437
  302SOL     hw 1206   0.164   2.723   4.407  0.0261 -0.4802 -0.9070
  302SOL     hw 1207   0.120   2.578   4.399  0.1928 -0.4915 -1.6087
  302SOL     vw 1208   0.107   2.663   4.382 -0.1295 -0.3756 -0.8059
  303SOL     ow 1209   6.313   3.317   4.731  0.1001 -0.0887  0.2954
  303SOL     hw 1210   6.394   3.357   4.763 -0.7961  2.0589  0.0861
  303SOL     hw 1211   6.245   3.382   4.750 -1.1548 -0.5998 -2.0154
  303SOL     vw 1212   6.315   3.331   4.738 -0.1838  0.1273 -0.0372
  304SOL     ow 1213   3.251   0.736   2.869  0.5838  0.2513 -0.0793
  304SOL     hw 1214   3.333   0.745   2.821  0.2008 -2.3497 -1.4298
  304SOL     hw 1215   3.265   0.660   2.926 -0.6037  0.2698  0.2770
  304SOL     vw 1216   3.263   0.727   2.870  0.3766 -0.0894 -0.2104
  305SOL     ow 1217   5.943   2.973   5.137  0.5115 -0.3959 -0.2431
  305SOL     hw 1218   5.882   2.979   5.210  0.8449  0.0594  0.0009
  305SOL     hw 1219   6.003   3.047   5.149  0.2235  0.0230 -1.2953
  305SOL     vw 1220   5.943   2.983   5.148  0.5176 -0.2805 -0.3498
  306SOL     ow 1221   5.747   0.017   2.344 -0.3588  0.3742  0.1076
  306SOL     hw 1222   5.709  -0.025   2.421  0.6392 -1.0293 -0.1348
  306SOL     hw 1223   5.679   0.011   2.277 -0.0732 -1.3276 -0.0633
  306SOL     vw 1224   5.733   0.011   2.345 -0.1893 -0.0355  0.0530
  307SOL     ow 1225   4.708   0.670   2.961  0.5699 -0.0597 -0.9829
  307SOL     hw 1226   4.756   0.608   3.015  1.8048  0.8251 -1.0160
  307SOL     hw 1227   4.636   0.619   2.923 -0.3294 -0.7267  1.4180
  307SOL     vw 1228   4.705   0.655   2.963  0.6144 -0.0310 -0.6704
  308SOL     ow 1229   3.809   6.604   4.561  0.0410  0.4245  0.1238
  308SOL     hw 1230   3.791   6.694   4.587 -0.5780  0.0992  0.8526
  308SOL     hw 1231   3.751   6.588   4.486 -0.2433  0.4624  0.3339
  308SOL     vw 1232   3.799   6.614   4.554 -0.0782  0.3867  0.2477
  309SOL     ow 1233   4.965   2.386   6.468  0.6029  0.2804  0.0673
  309SOL     hw 1234   4.888   2.415   6.419  0.7679  2.3774  0.9397
  309SOL     hw 1235   4.971   2.292   6.450 -1.4223  0.3001 -0.9980
  309SOL     vw 1236   4.956   2.377   6.459  0.3576  0.5597  0.0417
  310SOL     ow 1237   6.091   5.464   0.628 -0.5056 -0.5039  0.2760
  310SOL     hw 1238   6.040   5.543   0.608 -1.6433 -1.4965 -0.9809
  310SOL     hw 1239   6.038   5.417   0.693 -0.2586 -0.6410  0.3812
  310SOL     vw 1240   6.077   5.468   0.634 -0.6232 -0.6530  0.1240
  311SOL     ow 1241   1.675   1.296   6.038 -0.1825 -0.1322  0.0982
  311SOL     hw 1242   1.715   1.336   5.961  0.0341  0.2181  0.3937
  311SOL     hw 1243   1.671   1.202   6.017 -0.4504  0.0091 -0.4807
  311SOL     vw 1244   1.680   1.289   6.025 -0.1892 -0.0674  0.0608
  312SOL     ow 1245   0.490   3.900   2.411 -0.0794 -0.2401 -0.3842
  312SOL     hw 1246   0.416   3.959   2.401 -0.5277 -0.8940 -1.0764
  312SOL     hw 1247   0.556   3.952   2.457  0.9689  2.1042 -4.0700
  312SOL     vw 1248   0.489   3.915   2.415 -0.0003 -0.0172 -0.9617
  313SOL     ow 1249   3.250   0.987   6.459 -0.0746 -0.5502  0.0473
  313SOL     hw 1250   3.308   1.064   6.454 -1.2994  0.6527  2.3239
  313SOL     hw 1251   3.170   1.015   6.415 -0.0870 -0.9660 -0.1880
  313SOL     vw 1252   3.247   1.001   6.453 -0.2378 -0.4464  0.3166
  314SOL     ow 1253   0.908   4.426   1.032  0.2222 -0.2020 -0.4214
  314SOL     hw 1254   0.978   4.422   0.967  0.1900 -2.1624 -0.3944
  314SOL     hw 1255   0.890   4.334   1.053 -2.0463  0.2553 -0.1168
  314SOL     vw 1256   0.914   4.413   1.026 -0.0814 -0.4003 -0.3776
  315SOL     ow 1257   2.642   6.477   1.168 -0.7255 -0.3542 -0.5964
  315SOL     hw 1258   2.682   6.515   1.246 -0.9842  0.2677 -0.7583
  315SOL     hw 1259   2.714   6.430   1.125 -0.1214  0.8282 -0.9350
  315SOL     vw 1260   2.657   6.476   1.173 -0.6799 -0.1159 -0.6625
  316SOL     ow 1261   6.358   5.838   2.468 -0.9357  0.7023  0.1224
  316SOL     hw 1262   6.359   5.854   2.562 -0.4852 -1.9508  0.6397
  316SOL     hw 1263   6.413   5.908   2.431 -0.4625  1.3169  1.8929
  316SOL     vw 1264   6.365   5.850   2.476 -0.8140  0.4334  0.4243
  317SOL     ow 1265   4.922   0.563   0.980 -0.3985  0.1509  0.7406
  317SOL     hw 1266   4.900   0.519   1.062  2.0811  1.0095  1.9635
  317SOL     hw 1267   4.868   0.642   0.980 -1.4605 -0.5453  0.7957
  317SOL     vw 1268   4.912   0.567   0.990 -0.2112  0.1724  0.9092
  318SOL     ow 1269   4.903   0.538   3.094  0.0907 -0.5521  0.0724
  318SOL     hw 1270   4.991   0.572   3.082 -0.2422  0.3106 -0.0065
  318SOL     hw 1271   4.915   0.460   3.147  0.8609 -0.1775  0.4710
  318SOL     vw 1272   4.916   0.532   3.099  0.1481 -0.3888  0.1146
  319SOL     ow 1273   2.537   5.017   4.580  0.3202  0.3430 -0.4671
  319SOL     hw 1274   2.548   5.102   4.623 -0.6882  1.4666 -2.3396
  319SOL     hw 1275   2.446   5.015   4.552  0.6566 -0.8264 -1.5829
  319SOL     vw 1276   2.526   5.028   4.582  0.2315  0.3366 -0.8614
  320SOL     ow 1277   1.769   6.428   5.386 -0.4614 -0.3055 -0.6202
  320SOL     hw 1278   1.730   6.503   5.431  0.6724  0.2332 -0.4748
  320SOL     hw 1279   1.715   6.414   5.309  0.0279  1.4873 -1.3306
  320SOL     vw 1280   1.757   6.436   5.382 -0.2473  0.0021 -0.6945
  321SOL     ow 1281   0.915   0.266   3.986 -0.0504  0.3556 -0.2775
  321SOL     hw 1282   0.963   0.242   4.066 -1.5050  0.3213  0.6302
  321SOL     hw 1283   0.940   0.199   3.922  0.9069  0.2034  0.2339
  321SOL     vw 1284   0.925   0.254   3.988 -0.1161  0.3310 -0.0904
  322SOL     ow 1285   3.467   4.238   4.932 -0.0887  0.0973  0.3292
  322SOL     hw 1286   3.393   4.187   4.963 -0.3652 -0.2891 -0.8968
  322SOL     hw 1287   3.429   4.298   4.867  0.5935  0.2309  0.0470
  322SOL     vw 1288   3.452   4.239   4.927 -0.0353  0.0639  0.1302
  323SOL     ow 1289   2.164   0.165   1.552 -0.2468 -0.9024 -0.0496
  323SOL     hw 1290   2.187   0.088   1.605 -0.9243 -1.7970 -1.0124
  323SOL     hw 1291   2.070   0.174   1.562 -0.3079 -0.7810 -0.7055
  323SOL     vw 1292   2.155   0.156   1.560 -0.3443 -1.0044 -0.2632
  324SOL     ow 1293   2.718   3.781   0.422 -0.1309 -0.0530 -0.3347
  324SOL     hw 1294   2.743   3.690   0.438  0.0900 -0.0481 -0.6252
  324SOL     hw 1295   2.735   3.794   0.328  1.6468  0.8288  0.0506
  324SOL     vw 1296   2.724   3.771   0.412  0.1327  0.0639 -0.3222
  325SOL     ow 1297   0.197   3.396   2.255  0.3959  0.4588 -0.1382
  325SOL     hw 1298   0.291   3.380   2.252  0.0408 -2.0467 -0.1524
  325SOL     hw 1299   0.179   3.420   2.346  1.1605  2.1794 -0.4016
  325SOL     vw 1300   0.207   3.397   2.267  0.4499  0.3552 -0.1749
  326SOL     ow 1301   2.305   4.143   3.875 -0.1999 -0.1051 -0.0310
  326SOL     hw 1302   2.230   4.086   3.856  0.6895 -1.6439  0.8540
  326SOL     hw 1303   2.358   4.140   3.795 -0.7699  0.4941 -0.4366
  326SOL     vw 1304   2.302   4.135   3.862 -0.1577 -0.2286  0.0322
  327SOL     ow 1305   2.240   3.123   2.278  0.1313 -0.6847  0.2663
  327SOL     hw 1306   2.193   3.045   2.309 -1.2910  0.4874  1.1554
  327SOL     hw 1307   2.330   3.109   2.306 -0.3130 -1.5363  1.3591
  327SOL     vw 1308   2.246   3.111   2.286 -0.1149 -0.6423  0.5279
  328SOL     ow 1309   5.949   3.819   6.658  0.5822 -0.1371 -0.0229
  328SOL     hw 1310   5.930   3.745   6.601 -0.2216 -0.3085  0.4472
  328SOL     hw 1311   6.030   3.794   6.703  1.5289  0.2366 -1.4498
  328SOL     vw 1312   5.957   3.806   6.657  0.6011 -0.1103 -0.1493
  329SOL     ow 1313   0.708   0.710   2.295 -0.7906  0.3925  0.3799
  329SOL     hw 1314   0.635   0.662   2.334 -0.5578 -0.2325  0.0697
  329SOL     hw 1315   0.721   0.667   2.210 -0.7321  1.1666 -0.0045
  329SOL     vw 1316   0.700   0.698   2.289 -0.7522  0.4122  0.2881
  330SOL     ow 1317   1.071   1.314   0.285 -0.2060 -0.7415  0.5918
  330SOL     hw 1318   1.009   1.387   0.281 -0.0185 -0.6075 -0.1232
  330SOL     hw 1319   1.060   1.270   0.200 -1.3850 -2.4391  1.5717
  330SOL     vw 1320   1.061   1.318   0.273 -0.3368 -0.9477  0.6267
  331SOL     ow 1321   1.725   6.226   5.602 -0.3330 -0.0570 -0.0856
  331SOL     hw 1322   1.704   6.163   5.671  1.3570 -0.6709 -0.0704
  331SOL     hw 1323   1.641   6.260   5.574 -1.1979 -1.2672  0.9110
  331SOL     vw 1324   1.711   6.222   5.608 -0.2242 -0.2978  0.0482
  332SOL     ow 1325   0.005   1.858   0.620  0.2142 -0.1435  0.6533
  332SOL     hw 1326  -0.057   1.834   0.689  0.6869  0.3784  1.2688
  332SOL     hw 1327  -0.047   1.909   0.558 -0.3587 -1.1248  0.2951
  332SOL     vw 1328  -0.010   1.861   0.621  0.2005 -0.2041  0.6872
  333SOL     ow 1329   1.025   4.592   4.805 -0.2470  0.1898 -0.0549
  333SOL     hw 1330   1.077   4.657   4.852 -1.9680  1.0326  0.7703
  333SOL     hw 1331   1.005   4.525   4.870 -1.6468  0.7671  0.1468
  333SOL     vw 1332   1.029   4.592   4.820 -0.6588  0.3774  0.0806
  334SOL     ow 1333   0.575   3.755   1.361 -0.0897 -0.4145 -0.2834
  334SOL     hw 1334   0.524   3.835   1.377  0.7953  0.1767 -0.3233
  334SOL     hw 1335   0.666   3.781   1.380 -0.1186 -2.5761  4.2825
  334SOL     vw 1336   0.580   3.769   1.366  0.0232 -0.6218  0.3138
  335SOL     ow 1337   5.916   7.032   5.886 -0.1112 -0.2754  0.6830
  335SOL     hw 1338   5.997   7.036   5.937  1.5318  1.6453 -1.7758
  335SOL     hw 1339   5.912   6.942   5.854  1.9305 -0.0675 -0.3207
  335SOL     vw 1340   5.926   7.021   5.888  0.3750  0.0055  0.2265
  336SOL     ow 1341   3.176   4.010   1.273  0.5353 -0.1570 -0.1999
  336SOL     hw 1342   3.224   4.020   1.356  0.5561 -0.6137 -0.1569
  336SOL     hw 1343   3.188   3.918   1.249 -1.6107 -0.6902  0.5989
  336SOL     vw 1344   3.184   3.999   1.281  0.2548 -0.2875 -0.0888
  337SOL     ow 1345   6.064   5.481   6.541 -0.5651 -0.3124  0.0172
  337SOL     hw 1346   6.019   5.491   6.457  1.7076 -0.7279 -1.3235
  337SOL     hw 1347   6.086   5.388   6.545 -1.6209 -0.5282  1.6484
  337SOL     vw 1348   6.061   5.470   6.530 -0.4044 -0.3958  0.0556
  338SOL     ow 1349   2.168   1.215   2.380 -0.4832  0.2375  0.0511
  338SOL     hw 1350   2.254   1.238   2.416 -0.0052 -0.1830 -0.8053
  338SOL     hw 1351   2.113   1.292   2.398  0.1577  0.6449  0.3070
  338SOL     vw 1352   2.172   1.228   2.388 -0.3356  0.2358 -0.0281
  339SOL     ow 1353   1.063   2.206   5.950 -0.3316  0.3308  0.6473
  339SOL     hw 1354   1.080   2.256   6.029 -2.5445  3.2139 -0.5247
  339SOL     hw 1355   1.125   2.241   5.886 -1.5542  1.3254 -0.0432
  339SOL     vw 1356   1.073   2.217   5.952 -0.7848  0.8425  0.4017
  340SOL     ow 1357   1.003   4.329   4.941  0.6582  0.7236  0.2784
  340SOL     hw 1358   0.975   4.307   4.852 -0.9279 -0.5736  1.0676
  340SOL     hw 1359   0.964   4.263   4.996  1.8022  1.3801  1.9610
  340SOL     vw 1360   0.994   4.318   4.936  0.5999  0.6387  0.6046
  341SOL     ow 1361   2.503   2.231   6.955  0.5482 -0.3238 -0.1174
  341SOL     hw 1362   2.410   2.251   6.958  0.4187 -1.0389  1.2218
  341SOL     hw 1363   2.543   2.308   6.913 -0.7723 -0.6231 -2.0269
  341SOL     vw 1364   2.496   2.244   6.950  0.3568 -0.4576 -0.1924
  342SOL     ow 1365   5.067   1.464   4.159 -0.8003  0.2850  0.6268
  342SOL     hw 1366   4.985   1.511   4.172 -0.3654  0.4082  3.9027
  342SOL     hw 1367   5.053   1.379   4.200  0.8773  0.6042  2.0103
  342SOL     vw 1368   5.055   1.459   4.166 -0.5219  0.3434  1.2414
  343SOL     ow 1369   0.310   4.575   3.373 -0.1025 -0.0435 -0.2482
  343SOL     hw 1370   0.377   4.513   3.342  0.2280  0.4412 -0.5249
  343SOL     hw 1371   0.301   4.638   3.301  0.6453  1.0827  0.6117
  343SOL     vw 1372   0.318   4.575   3.359  0.0398  0.1690 -0.1713
  344SOL     ow 1373   2.120   6.149   7.055  0.0562 -0.1815 -0.3571
  344SOL     hw 1374   2.212   6.175   7.058  0.4871 -1.5821 -0.5576
  344SOL     hw 1375   2.118   6.077   6.992 -1.1258 -0.3986 -0.0918
  344SOL     vw 1376   2.132   6.143   7.047 -0.0429 -0.3951 -0.3486
  345SOL     ow 1377   2.707   1.016   0.425 -0.5926 -0.2951 -0.4053
  345SOL     hw 1378   2.680   1.034   0.335  0.1093 -0.8328 -0.7271
  345SOL     hw 1379   2.776   0.951   0.417  0.8915  1.1092  0.3805
  345SOL     vw 1380   2.712   1.010   0.412 -0.3042 -0.1808 -0.3441
  346SOL     ow 1381   6.051   3.403   5.270  0.5682 -0.5558  0.0266
  346SOL     hw 1382   6.082   3.322   5.230  2.0537  0.1912 -0.4249
  346SOL     hw 1383   6.049   3.466   5.198 -1.3273 -0.3553  0.2118
  346SOL     vw 1384   6.055   3.401   5.255  0.5140 -0.4307 -0.0086
  347SOL     ow 1385   2.047   3.165   4.095  0.0261 -0.0432 -0.0112
  347SOL     hw 1386   2.020   3.089   4.147  0.1613 -0.4040 -0.4616
  347SOL     hw 1387   2.011   3.240   4.142 -1.9555 -0.5183 -0.6790
  347SOL     vw 1388   2.039   3.165   4.108 -0.2176 -0.1534 -0.1583
  348SOL     ow 1389   6.888   0.641   5.815 -0.0249 -0.3697 -1.5680
  348SOL     hw 1390   6.852   0.564   5.859  1.0182 -1.2857 -2.2483
  348SOL     hw 1391   6.823   0.665   5.749 -0.4301 -0.5674 -1.2371
  348SOL     vw 1392   6.875   0.634   5.812  0.0594 -0.5166 -1.6143
  349SOL     ow 1393   3.056   5.226   1.774  0.1925  0.2212  0.1927
  349SOL     hw 1394   3.070   5.142   1.730 -0.3872 -0.3229  1.0145
  349SOL     hw 1395   2.973   5.258   1.738 -0.1847 -0.1320  0.7421
  349SOL     vw 1396   3.047   5.219   1.763  0.0662  0.1030  0.3736
  350SOL     ow 1397   3.629   6.559   4.362  0.1052  0.0277 -0.2949
  350SOL     hw 1398   3.570   6.487   4.383  0.6717  0.1793  2.1317
  350SOL     hw 1399   3.574   6.637   4.361 -0.0572 -0.0842 -0.0356
  350SOL     vw 1400   3.614   6.560   4.365  0.1584  0.0329  0.0594
  351SOL     ow 1401   1.315   4.478   3.153  0.5394  0.4804 -0.3083
  351SOL     hw 1402   1.407   4.456   3.142  0.7898  1.2499  0.1522
  351SOL     hw 1403   1.315   4.549   3.218 -0.3143  0.9632 -0.8191
  351SOL     vw 1404   1.327   4.485   3.160  0.4598  0.6454 -0.3148
  352SOL     ow 1405   2.058   0.331   5.413 -0.1580  0.6502 -1.0419
  352SOL     hw 1406   2.120   0.264   5.442 -1.7648 -0.0358  1.1145
  352SOL     hw 1407   1.972   0.291   5.427 -1.1357  2.3555 -1.8544
  352SOL     vw 1408   2.055   0.316   5.419 -0.4989  0.7847 -0.8647
  353SOL     ow 1409   5.403   5.687   1.201  0.2229  0.3738  0.0926
  353SOL     hw 1410   5.374   5.661   1.288 -0.5212 -0.1196 -0.2928
  353SOL     hw 1411   5.494   5.658   1.196  0.3012  0.4887  0.7320
  353SOL     vw 1412   5.411   5.680   1.212  0.1349  0.3240  0.1261
  354SOL     ow 1413   6.105   6.031   4.618 -0.0226  0.2498 -0.6607
  354SOL     hw 1414   6.129   6.019   4.526  1.7911  0.5527 -0.2660
  354SOL     hw 1415   6.131   5.949   4.661  0.8819  0.7886 -0.1270
  354SOL     vw 1416   6.112   6.019   4.612  0.3357  0.3610 -0.5386
  355SOL     ow 1417   4.976   7.045   0.157  0.1288 -0.0590  0.6007
  355SOL     hw 1418   4.980   7.129   0.111 -0.2064  0.7697  2.0243
  355SOL     hw 1419   4.897   7.051   0.211  1.1007 -0.5109  2.1388
  355SOL     vw 1420   4.966   7.057   0.158  0.2129 -0.0093  0.9914
  356SOL     ow 1421   2.321   2.182   5.789 -0.0875  0.5054 -0.1944
  356SOL     hw 1422   2.233   2.219   5.782 -0.0977  0.3885 -0.6872
  356SOL     hw 1423   2.307   2.093   5.820 -0.1836  0.2764 -0.8898
  356SOL     vw 1424   2.308   2.175   5.792 -0.1014  0.4598 -0.3514
  357SOL     ow 1425   0.338   0.129   4.727  0.6975 -0.0849 -0.2122
  357SOL     hw 1426   0.335   0.087   4.642 -0.0074  2.3610 -1.5020
  357SOL     hw 1427   0.430   0.130   4.752  0.8341 -1.3606 -0.6360
  357SOL     vw 1428   0.349   0.124   4.719  0.6225  0.0695 -0.4387
  358SOL     ow 1429   6.906   2.293   3.657  0.0728  0.3939  0.3890
  358SOL     hw 1430   6.965   2.368   3.648 -0.1881  0.6534  0.8348
  358SOL     hw 1431   6.964   2.217   3.652  0.1039  0.4844 -2.5806
  358SOL     vw 1432   6.921   2.293   3.655  0.0424  0.4400  0.0560
  359SOL     ow 1433   1.657   1.270   6.345  0.1658  0.2961  0.0236
  359SOL     hw 1434   1.707   1.321   6.409  2.8673 -1.5524 -0.4167
  359SOL     hw 1435   1.589   1.227   6.397  0.9738  0.4612  1.2796
  359SOL     vw 1436   1.655   1.271   6.361  0.6288  0.0740  0.1311
  360SOL     ow 1437   2.496   2.873   2.788  0.1420  0.4949 -0.4822
  360SOL     hw 1438   2.585   2.843   2.773 -0.1591 -0.3845 -0.5531
  360SOL     hw 1439   2.492   2.887   2.883 -0.3053 -1.7296 -0.1159
  360SOL     vw 1440   2.507   2.871   2.799  0.0433  0.0854 -0.4431
  361SOL     ow 1441   6.382   4.162   0.617  0.4332 -0.2159  0.4755
  361SOL     hw 1442   6.448   4.229   0.600 -0.0262  0.4539  1.2701
  361SOL     hw 1443   6.374   4.160   0.712 -2.1159  1.1278  0.3746
  361SOL     vw 1444   6.390   4.171   0.627  0.0362  0.0498  0.5670
  362SOL     ow 1445   4.824   1.423   0.199  0.1259  0.2115 -0.7526
  362SOL     hw 1446   4.882   1.479   0.250 -2.3827  2.1150  0.1985
  362SOL     hw 1447   4.863   1.336   0.206  1.6824  1.0110  1.6284
  362SOL     vw 1448   4.837   1.419   0.206  0.0002  0.5681 -0.3129
  363SOL     ow 1449   7.094   5.982   1.910  0.2839  0.0519 -0.8125
  363SOL     hw 1450   7.126   5.974   2.000 -0.5955 -0.9789 -0.5651
  363SOL     hw 1451   7.153   6.045   1.868  0.6452  0.6158  0.5071
  363SOL     vw 1452   7.106   5.989   1.916  0.2158 -0.0098 -0.6058
  364SOL     ow 1453   1.452   6.355   7.089  0.4098 -0.4530  0.1914
  364SOL     hw 1454   1.521   6.378   7.152  0.3852 -0.6032  0.2757
  364SOL     hw 1455   1.458   6.421   7.021 -0.3409  0.4278  0.9447
  364SOL     vw 1456   1.462   6.367   7.088  0.3075 -0.3567  0.3021
  365SOL     ow 1457   1.122   0.446   2.125  0.4869 -0.3307  0.1807
  365SOL     hw 1458   1.107   0.463   2.031  1.4554  0.3635  0.1404
  365SOL     hw 1459   1.134   0.351   2.130 -1.9896 -0.7356 -0.0281
  365SOL     vw 1460   1.121   0.436   2.113  0.2879 -0.2925  0.1477
  366SOL     ow 1461   2.670   6.127   3.062  0.8062 -0.3758 -0.2012
  366SOL     hw 1462   2.574   6.121   3.061  0.4097  2.4455  2.7582
  366SOL     hw 1463   2.699   6.037   3.048 -2.4244 -1.9828  1.9636
  366SOL     vw 1464   2.661   6.114   3.060  0.3277 -0.2158  0.4749
  367SOL     ow 1465   3.787   1.462   2.712  0.3945 -0.3817 -0.3909
  367SOL     hw 1466   3.739   1.387   2.746 -0.4895  0.1221 -0.5003
  367SOL     hw 1467   3.731   1.498   2.643  0.5956  0.6239 -0.0598
  367SOL     vw 1468   3.774   1.457   2.708  0.3045 -0.1825 -0.3617
  368SOL     ow 1469   5.353   3.243   0.377 -0.3305  0.6547 -0.2048
  368SOL     hw 1470   5.326   3.335   0.371 -0.4663  0.5585 -1.5458
  368SOL     hw 1471   5.444   3.244   0.349 -0.3601  0.3741 -0.3079
  368SOL     vw 1472   5.361   3.256   0.372 -0.3524  0.6052 -0.3953
  369SOL     ow 1473   1.166   5.447   0.922  0.0675  0.5251 -0.1124
  369SOL     hw 1474   1.195   5.536   0.938  0.8783  0.2312  0.0705
  369SOL     hw 1475   1.159   5.440   0.827 -0.9411  1.0662 -0.0963
  369SOL     vw 1476   1.169   5.458   0.912  0.0414  0.5579 -0.0862
  370SOL     ow 1477   2.370   5.900   2.053 -0.2213 -0.3564  0.2439
  370SOL     hw 1478   2.377   5.960   1.978 -0.4366  1.8503  1.8941
  370SOL     hw 1479   2.458   5.863   2.061  0.4561  1.1697  0.2671
  370SOL     vw 1480   2.383   5.903   2.044 -0.1605  0.1364  0.4646
  371SOL     ow 1481   5.520   6.044   3.364  0.1165 -0.5279  0.4018
  371SOL     hw 1482   5.606   6.058   3.405  0.0097 -0.3949  0.5823
  371SOL     hw 1483   5.500   6.127   3.321 -0.1416 -0.3974  0.7715
  371SOL     vw 1484   5.529   6.057   3.364  0.0684 -0.4933  0.4745
  372SOL     ow 1485   2.573   5.721   5.485 -0.1540 -0.1544  0.0380
  372SOL     hw 1486   2.566   5.817   5.488 -1.0926 -0.1352 -1.5146
  372SOL     hw 1487   2.565   5.694   5.576  1.2187  1.2871  0.6341
  372SOL     vw 1488   2.571   5.730   5.497 -0.0966  0.0381 -0.0885
  373SOL     ow 1489   3.658   2.883   5.258 -0.1431 -0.0853 -0.3510
  373SOL     hw 1490   3.566   2.906   5.269 -0.0317 -0.1735  0.8407
  373SOL     hw 1491   3.684   2.846   5.342  1.0797  0.2802 -0.5496
  373SOL     vw 1492   3.649   2.881   5.270  0.0330 -0.0486 -0.2198
  374SOL     ow 1493   2.941   0.472   4.734  0.5201  0.3654  0.0818
  374SOL     hw 1494   2.993   0.439   4.662 -0.8368 -0.8879 -0.3823
  374SOL     hw 1495   2.862   0.508   4.693 -0.0268  0.1333  0.8884
  374SOL     vw 1496   2.937   0.472   4.719  0.2688  0.1694  0.1273
  375SOL     ow 1497   5.504   1.802   3.132 -0.0046  0.5728  0.0412
  375SOL     hw 1498   5.586   1.772   3.173 -0.2508  1.8379  1.5527
  375SOL     hw 1499   5.458   1.721   3.110  1.2830 -0.1600 -0.0947
  375SOL     vw 1500   5.509   1.787   3.135  0.1328  0.6430  0.2227
  376SOL     ow 1501   3.578   4.508   3.529 -0.1383  0.0672 -0.4531
  376SOL     hw 1502   3.620   4.552   3.455  1.2759 -1.7773 -0.8255
  376SOL     hw 1503   3.593   4.415   3.513 -0.2820 -0.4080  1.8794
  376SOL     vw 1504   3.585   4.502   3.517  0.0294 -0.2387 -0.1944
  377SOL     ow 1505   2.277   1.699   3.499  0.1245  0.1546  0.9301
  377SOL     hw 1506   2.270   1.694   3.595 -0.4511 -0.1839  0.8756
  377SOL     hw 1507   2.241   1.784   3.477  0.8167  0.4873  1.0605
  377SOL     vw 1508   2.272   1.709   3.509  0.1398  0.1538  0.9402
  378SOL     ow 1509   1.652   2.021   5.701  0.0267 -0.3680 -0.3381
  378SOL     hw 1510   1.622   1.931   5.706  1.2719 -0.7413  1.4422
  378SOL     hw 1511   1.628   2.060   5.785  1.9701  0.0869  0.0650
  378SOL     vw 1512   1.645   2.014   5.713  0.4473 -0.3573 -0.0501
  379SOL     ow 1513   5.548   3.552   3.786 -0.6187  0.1761 -0.5837
  379SOL     hw 1514   5.624   3.597   3.750 -0.9256  1.2163  0.0245
  379SOL     hw 1515   5.554   3.463   3.752  0.2269  0.5639 -1.4895
  379SOL     vw 1516   5.559   3.546   3.777 -0.5474  0.3645 -0.6230
  380SOL     ow 1517   2.066   0.695   1.737  0.5351  0.0905  0.4292
  380SOL     hw 1518   2.158   0.715   1.721  0.8276  0.3103  2.1950
  380SOL     hw 1519   2.018   0.755   1.680  1.4475 -1.0727 -1.6770
  380SOL     vw 1520   2.072   0.705   1.727  0.6942 -0.0339  0.3843
  381SOL     ow 1521   5.383   0.363   0.151  0.1180  0.8971  0.1507
  381SOL     hw 1522   5.428   0.346   0.234  2.1759  0.8068 -0.9183
  381SOL     hw 1523   5.412   0.451   0.126 -0.1301  0.7521 -0.6867
  381SOL     vw 1524   5.393   0.373   0.159  0.3567  0.8661 -0.1008
  382SOL     ow 1525   2.161   0.619   4.072  0.0584 -0.7366  0.2601
  382SOL     hw 1526   2.099   0.602   4.001  1.2418 -2.7065 -0.3587
  382SOL     hw 1527   2.119   0.581   4.149  0.3424 -1.8376 -0.1095
  382SOL     vw 1528   2.147   0.612   4.073  0.2520 -1.1418  0.1297
  383SOL     ow 1529   0.383   1.002   0.165 -0.1272  0.0872 -0.0763
  383SOL     hw 1530   0.467   1.023   0.124 -0.4293  2.0613  0.2039
  383SOL     hw 1531   0.398   1.014   0.259 -0.6853  0.4064 -0.0199
  383SOL     vw 1532   0.396   1.006   0.172 -0.2407  0.3898 -0.0319
  384SOL     ow 1533   5.118   5.772   2.109  0.9041  0.2376  0.4707
  384SOL     hw 1534   5.199   5.796   2.064  1.5940 -0.7785  1.1128
  384SOL     hw 1535   5.114   5.830   2.184  0.5106  0.9497 -0.0867
  384SOL     vw 1536   5.128   5.783   2.113  0.9434  0.1976  0.4818
  385SOL     ow 1537   6.415   6.699   0.104  0.5082  0.2045  0.1638
  385SOL     hw 1538   6.347   6.695   0.171 -1.2763  1.5126 -1.4403
  385SOL     hw 1539   6.406   6.617   0.055  0.6502  0.0124  0.4571
  385SOL     vw 1540   6.405   6.688   0.106  0.2913  0.3517 -0.0093
  386SOL     ow 1541   6.577   1.354   2.779  0.1922 -0.4162  0.2770
  386SOL     hw 1542   6.656   1.332   2.828  1.3272  1.3601 -0.6306
  386SOL     hw 1543   6.595   1.322   2.690  0.7705  1.6514 -0.4055
  386SOL     vw 1544   6.590   1.347   2.774  0.4182  0.0909  0.0672
  387SOL     ow 1545   2.368   3.465   0.134  0.4209 -0.2835 -0.8172
  387SOL     hw 1546   2.376   3.559   0.117 -0.9916  0.0400  0.1725
  387SOL     hw 1547   2.300   3.435   0.074  0.3296 -0.5151 -0.6000
  387SOL     vw 1548   2.360   3.473   0.124  0.2226 -0.2713 -0.6579
  388SOL     ow 1549   4.928   5.327   3.754 -0.0274 -0.2400  0.0815
  388SOL     hw 1550   4.927   5.308   3.847 -0.6078 -0.1298  0.1072
  388SOL     hw 1551   4.871   5.404   3.745  0.5887  0.1885 -0.2736
  388SOL     vw 1552   4.920   5.335   3.765 -0.0229 -0.1690  0.0380
  389SOL     ow 1553   0.258   5.400   3.784 -0.4574  0.1134 -0.3374
  389SOL     hw 1554   0.337   5.396   3.732  0.3376 -0.1129  0.8540
  389SOL     hw 1555   0.234   5.493   3.784  0.2337  0.2931 -0.0842
  389SOL     vw 1556   0.265   5.412   3.777 -0.2613  0.1073 -0.1467
  390SOL     ow 1557   1.592   0.509   5.275 -0.4374 -0.2951  0.1725
  390SOL     hw 1558   1.526   0.537   5.338  0.6078 -0.0066  1.1640
  390SOL     hw 1559   1.589   0.413   5.279 -2.0706 -0.3674 -1.1894
  390SOL     vw 1560   1.583   0.500   5.283 -0.5150 -0.2665  0.1235
  391SOL     ow 1561   2.255   6.270   3.504 -0.3499  0.0728  0.0245
  391SOL     hw 1562   2.315   6.343   3.511  0.0175 -0.2730  0.5083
  391SOL     hw 1563   2.188   6.300   3.443  0.0367  0.6447 -0.1251
  391SOL     vw 1564   2.254   6.283   3.497 -0.2503  0.1023  0.0685
  392SOL     ow 1565   2.193   4.974   3.068  0.3356  0.6694 -0.0772
  392SOL     hw 1566   2.253   5.037   3.027 -0.5292  0.0354 -2.5095
  392SOL     hw 1567   2.107   5.014   3.061 -0.0991 -0.3186 -0.8126
  392SOL     vw 1568   2.190   4.987   3.061  0.1642  0.4556 -0.4952
  393SOL     ow 1569   3.687   6.308   1.033 -0.1921 -0.3799 -0.2765
  393SOL     hw 1570   3.614   6.355   1.073  0.5915  0.1068  0.6233
  393SOL     hw 1571   3.758   6.372   1.030  0.2233 -0.8599 -1.0919
  393SOL     vw 1572   3.687   6.323   1.038 -0.0340 -0.3791 -0.2653
  394SOL     ow 1573   5.488   1.414   3.302  0.5258  0.1247  0.0536
  394SOL     hw 1574   5.416   1.444   3.359 -0.7409 -0.5156 -1.1483
  394SOL     hw 1575   5.554   1.383   3.363 -1.4065 -1.9680  1.2595
  394SOL     vw 1576   5.487   1.414   3.318  0.1040 -0.2359  0.0542
  395SOL     ow 1577   6.713   4.181   4.015 -0.1527  0.3033 -0.4144
  395SOL     hw 1578   6.743   4.119   4.082  0.2189 -0.5969 -1.3762
  395SOL     hw 1579   6.663   4.247   4.063  1.6223  0.6929  0.9722
  395SOL     vw 1580   6.710   4.181   4.030  0.1307  0.2360 -0.3581
  396SOL     ow 1581   5.978   2.466   6.228 -0.3187  0.2096 -0.1398
  396SOL     hw 1582   6.023   2.382   6.229 -1.6715 -0.5287  0.3764
  396SOL     hw 1583   6.015   2.514   6.302  0.1851 -0.0722 -0.2049
  396SOL     vw 1584   5.989   2.461   6.237 -0.4306  0.0750 -0.0803
  397SOL     ow 1585   3.809   1.359   3.474  0.3999 -0.6309 -0.4029
  397SOL     hw 1586   3.794   1.358   3.379  0.1178 -0.9935 -0.3569
  397SOL     hw 1587   3.742   1.301   3.509 -0.5148  0.7362  0.1771
  397SOL     vw 1588   3.798   1.352   3.466  0.2419 -0.4983 -0.3204
  398SOL     ow 1589   0.005   0.256   2.506 -0.4450 -0.2046 -0.0933
  398SOL     hw 1590   0.049   0.181   2.467  0.7267  0.1466  0.4925
  398SOL     hw 1591   0.063   0.283   2.577 -0.5682  1.5941 -0.6282
  398SOL     vw 1592   0.018   0.250   2.511 -0.3067  0.0791 -0.0867
  399SOL     ow 1593   2.388   4.544   6.384 -0.0979 -0.5075 -0.6972
  399SOL     hw 1594   2.366   4.576   6.471  1.1019 -2.6344  0.4627
  399SOL     hw 1595   2.428   4.619   6.340 -0.8159  0.6255  0.5174
  399SOL     vw 1596   2.390   4.558   6.389 -0.0342 -0.6385 -0.3839
  400SOL     ow 1597   1.553   1.006   2.376 -0.5200 -0.7911  0.7349
  400SOL     hw 1598   1.603   0.955   2.439  1.5319 -1.7258 -1.4963
  400SOL     hw 1599   1.599   1.090   2.372 -0.5000 -0.8191  0.3388
  400SOL     vw 1600   1.566   1.011   2.384 -0.2466 -0.9181  0.3883
  401SOL     ow 1601   4.652   2.201   0.655  0.1923 -0.3077  0.2665
  401SOL     hw 1602   4.575   2.171   0.605  0.2514 -1.6839  0.9453
  401SOL     hw 1603   4.616   2.257   0.723 -0.1846 -0.7127  0.4043
  401SOL     vw 1604   4.637   2.204   0.657  0.1502 -0.5428  0.3742
  402SOL     ow 1605   0.756   3.356   6.932  0.0338 -0.1309  0.1423
  402SOL     hw 1606   0.761   3.451   6.939  0.8359 -0.1009 -0.7421
  402SOL     hw 1607   0.724   3.327   7.018  0.9453  0.8456  0.8250
  402SOL     vw 1608   0.753   3.364   6.944  0.2599  0.0019  0.1156
  403SOL     ow 1609   4.164   2.354   6.627  0.1389  0.1256 -0.7077
  403SOL     hw 1610   4.111   2.416   6.678  0.0039  0.6836 -1.5215
  403SOL     hw 1611   4.173   2.394   6.541  0.6906 -0.6370 -1.0189
  403SOL     vw 1612   4.158   2.367   6.623  0.1941  0.0987 -0.8562
  404SOL     ow 1613   0.869   0.537   3.987 -0.3607  0.2716  0.4676
  404SOL     hw 1614   0.898   0.452   3.956  1.1016  0.0313  2.2938
  404SOL     hw 1615   0.785   0.521   4.030  0.0418 -0.3235  1.0467
  404SOL     vw 1616   0.862   0.524   3.989 -0.1146  0.1613  0.7850
  405SOL     ow 1617   4.395   6.421   5.752 -0.2548 -0.1455  0.0505
  405SOL     hw 1618   4.374   6.511   5.779 -0.8055 -0.8037  1.9670
  405SOL     hw 1619   4.310   6.381   5.735 -0.0817 -0.6589  0.3924
  405SOL     vw 1620   4.381   6.428   5.753 -0.3047 -0.3002  0.3486
  406SOL     ow 1621   2.408   6.034   3.085  0.3162 -0.4530 -0.2463
  406SOL     hw 1622   2.358   6.065   3.010 -0.0063 -2.6970 -1.0295
  406SOL     hw 1623   2.420   5.941   3.069  1.3141 -0.7525  1.9036
  406SOL     vw 1624   2.403   6.026   3.073  0.4053 -0.7887 -0.0658
  407SOL     ow 1625   5.449   3.756   3.575 -0.5188 -0.9824 -0.2044
  407SOL     hw 1626   5.505   3.701   3.520  0.4189 -0.5388  0.2897
  407SOL     hw 1627   5.509   3.815   3.620 -1.4789  0.2845 -0.5205
  407SOL     vw 1628   5.464   3.757   3.574 -0.5217 -0.7567 -0.1808
  408SOL     ow 1629   1.126   3.246   3.808 -0.7357  0.1415 -0.4118
  408SOL     hw 1630   1.106   3.333   3.772 -0.6564  0.2522 -0.1917
  408SOL     hw 1631   1.131   3.260   3.903 -1.3396 -0.2286 -0.3211
  408SOL     vw 1632   1.124   3.259   3.816 -0.8050  0.1073 -0.3710
  409SOL     ow 1633   0.390   6.382   2.575 -0.3006  0.0837  0.0916
  409SOL     hw 1634   0.404   6.287   2.572  0.8834  0.1242  2.1618
  409SOL     hw 1635   0.313   6.393   2.631  0.6774  0.3731  1.4177
  409SOL     vw 1636   0.381   6.371   2.582 -0.0154  0.1273  0.5397
  410SOL     ow 1637   0.105   5.039   6.782 -0.2465  0.0320 -0.4757
  410SOL     hw 1638   0.129   4.975   6.715 -2.3600  2.1210 -3.4821
  410SOL     hw 1639   0.187   5.084   6.803  0.5180 -0.8582 -1.4674
  410SOL     vw 1640   0.119   5.037   6.776 -0.4245  0.1900 -1.0030
  411SOL     ow 1641   0.168   6.943   0.951 -0.0933  0.1621 -0.2548
  411SOL     hw 1642   0.224   6.891   0.893  1.0723  0.8014  0.2634
  411SOL     hw 1643   0.227   7.008   0.990  0.0770 -2.4151  4.4539
  411SOL     vw 1644   0.183   6.945   0.948  0.0829 -0.0937  0.4348
  412SOL     ow 1645   0.707   3.158   0.517  0.5005 -0.0847  0.7518
  412SOL     hw 1646   0.758   3.216   0.459  1.4700  0.1804  1.8233
  412SOL     hw 1647   0.747   3.072   0.506 -0.5421 -0.4605 -0.3692
  412SOL     vw 1648   0.719   3.155   0.508  0.4908 -0.0993  0.7453
  413SOL     ow 1649   6.261   0.798   4.546 -0.0924  0.0511 -0.3065
  413SOL     hw 1650   6.258   0.702   4.543  0.3980  0.0485 -1.6611
  413SOL     hw 1651   6.244   0.820   4.637  0.1323 -1.3394  0.0970
  413SOL     vw 1652   6.259   0.788   4.557  0.0021 -0.1327 -0.4323
  414SOL     ow 1653   2.408   0.789   6.752  0.0052 -0.3604  0.2540
  414SOL     hw 1654   2.493   0.770   6.711  1.3892  1.1534  2.2493
  414SOL     hw 1655   2.369   0.856   6.695 -1.4909 -3.2866 -2.5260
  414SOL     vw 1656   2.414   0.795   6.739 -0.0097 -0.5467  0.1504
  415SOL     ow 1657   2.240   0.622   0.462 -0.2059  0.4139 -0.1514
  415SOL     hw 1658   2.331   0.640   0.485  0.1193 -0.1959 -0.9001
  415SOL     hw 1659   2.246   0.570   0.382 -1.1834 -0.3205  0.2304
  415SOL     vw 1660   2.253   0.617   0.455 -0.2919  0.2365 -0.1998
  416SOL     ow 1661   0.981   5.001   5.621  0.1586  0.3189 -0.3757
  416SOL     hw 1662   0.885   4.996   5.618  0.1868  0.0806 -1.2053
  416SOL     hw 1663   1.002   5.080   5.570  0.3714  0.9180  0.6107
  416SOL     vw 1664   0.971   5.011   5.614  0.1904  0.3664 -0.3550
  417SOL     ow 1665   5.965   2.357   0.069 -0.2738 -0.3492  0.3064
  417SOL     hw 1666   5.995   2.337   0.157  0.3023  0.7316  0.3788
  417SOL     hw 1667   6.043   2.386   0.022 -0.8376  0.5985 -0.0895
  417SOL     vw 1668   5.979   2.358   0.074 -0.2720 -0.0814  0.2637
  418SOL     ow 1669   5.319   4.236   4.878  0.1260 -0.0515 -0.3309
  418SOL     hw 1670   5.412   4.215   4.888  1.0401  3.3416 -0.2607
  418SOL     hw 1671   5.314   4.277   4.791 -1.1633  0.3477 -0.0814
  418SOL     vw 1672   5.331   4.239   4.868  0.0763  0.4487 -0.2887
  419SOL     ow 1673   5.807   3.797   6.926  0.4537 -0.4586  0.0100
  419SOL     hw 1674   5.757   3.768   7.003  0.8692 -0.4604  0.2835
  419SOL     hw 1675   5.898   3.777   6.948  0.5400 -0.7791 -0.6301
  419SOL     vw 1676   5.812   3.790   6.939  0.5200 -0.5012 -0.0384
  420SOL     ow 1677   2.581   1.725   1.405  0.5271 -0.3090  0.2141
  420SOL     hw 1678   2.634   1.695   1.479  1.1035  0.9602  0.3352
  420SOL     hw 1679   2.606   1.816   1.392 -1.0187  0.0798 -0.2841
  420SOL     vw 1680   2.591   1.733   1.413  0.3992 -0.0901  0.1643
  421SOL     ow 1681   3.419   1.927   3.159 -0.6795  0.6096 -0.8911
  421SOL     hw 1682   3.496   1.956   3.208 -0.5930 -0.3850 -0.4058
  421SOL     hw 1683   3.453   1.859   3.100 -1.1203  0.4432 -0.9525
  421SOL     vw 1684   3.434   1.921   3.157 -0.7262  0.4565 -0.8352
  422SOL     ow 1685   5.581   0.137   0.209  0.0483  0.4778  0.7182
  422SOL     hw 1686   5.603   0.226   0.235 -0.1031 -0.0054  2.6828
  422SOL     hw 1687   5.646   0.082   0.252 -0.4658 -0.4280  0.3742
  422SOL     vw 1688   5.592   0.141   0.218 -0.0393  0.2945  0.9320
  423SOL     ow 1689   1.027   3.191   4.749 -0.1477 -0.0233 -0.4992
  423SOL     hw 1690   1.081   3.189   4.670  2.3671  0.6383  1.0940
  423SOL     hw 1691   1.056   3.270   4.796 -3.4259  1.0921 -0.0865
  423SOL     vw 1692   1.038   3.202   4.745 -0.2484  0.2112 -0.2346
  424SOL     ow 1693   5.968   0.463   3.765 -0.4239 -0.5034 -0.1391
  424SOL     hw 1694   5.882   0.496   3.791 -0.0313 -1.3017  2.4125
  424SOL     hw 1695   6.007   0.432   3.846  2.9000  1.1685 -0.9462
  424SOL     vw 1696   5.962   0.463   3.779  0.0665 -0.3881  0.0911
  425SOL     ow 1697   5.727   3.097   3.480 -0.2306 -0.1094 -0.3278
  425SOL     hw 1698   5.816   3.063   3.474 -0.0685  0.4874 -1.5456
  425SOL     hw 1699   5.716   3.119   3.573  0.5558 -1.0419 -0.0006
  425SOL     vw 1700   5.737   3.095   3.492 -0.1056 -0.1535 -0.4454
  426SOL     ow 1701   5.236   3.005   0.542 -0.4859 -0.0077  0.2642
  426SOL     hw 1702   5.157   2.998   0.595 -1.3334  2.2468 -0.6058
  426SOL     hw 1703   5.274   2.917   0.544 -3.2391 -1.2823  0.3120
  426SOL     vw 1704   5.231   2.993   0.550 -0.9608  0.1216  0.1557
  427SOL     ow 1705   2.775   3.021   1.571 -0.5320 -0.1298  0.0933
  427SOL     hw 1706   2.726   2.950   1.612 -1.6912 -1.2991 -3.0073
  427SOL     hw 1707   2.719   3.098   1.580 -0.0533  0.0598  1.9368
  427SOL     vw 1708   2.761   3.022   1.578 -0.6217 -0.2592 -0.0727
  428SOL     ow 1709   1.467   3.363   1.730 -0.0301  0.1145 -0.2983
  428SOL     hw 1710   1.554   3.402   1.721 -0.2984  0.8341  0.1624
  428SOL     hw 1711   1.434   3.357   1.640 -0.3923  1.9129 -0.3176
  428SOL     vw 1712   1.474   3.367   1.717 -0.1133  0.4468 -0.2400
  429SOL     ow 1713   0.835   1.452   6.578  0.2293  0.1412  0.7496
  429SOL     hw 1714   0.844   1.545   6.597  1.7835  0.5328 -1.5141
  429SOL     hw 1715   0.895   1.409   6.640 -0.1358  0.6557  1.4738
  429SOL     vw 1716   0.844   1.458   6.589  0.3861  0.2608  0.5465
  430SOL     ow 1717   4.210   1.394   1.987 -0.0525 -0.3257  0.0277
  430SOL     hw 1718   4.185   1.353   1.905  0.9877  0.4881 -0.7244
  430SOL     hw 1719   4.131   1.437   2.018  0.1095  1.5805 -1.9210
  430SOL     vw 1720   4.197   1.395   1.980  0.1061  0.0332 -0.3286
  431SOL     ow 1721   0.341   5.049   2.158  0.2170 -0.0163  0.1229
  431SOL     hw 1722   0.396   4.991   2.211  0.9706  0.1949 -0.4107
  431SOL     hw 1723   0.339   5.131   2.207 -0.6139 -0.3910  0.7348
  431SOL     vw 1724   0.348   5.052   2.172  0.2068 -0.0377  0.1332
  432SOL     ow 1725   6.206   5.348   3.300 -0.6000  0.0586  0.3478
  432SOL     hw 1726   6.300   5.361   3.291 -0.9015  1.0915 -1.8294
  432SOL     hw 1727   6.194   5.326   3.393  1.7771 -0.2723  0.6338
  432SOL     vw 1728   6.217   5.347   3.311 -0.3262  0.1514  0.0981
  433SOL     ow 1729   0.041   6.665   1.332 -0.1087  0.0046  0.2238
  433SOL     hw 1730   0.076   6.740   1.285  0.8602 -0.4360  0.2137
  433SOL     hw 1731  -0.028   6.701   1.387  1.0379  1.0929  1.0117
  433SOL     vw 1732   0.037   6.680   1.333  0.1704  0.0896  0.3264
  434SOL     ow 1733   4.420   5.478   5.577  0.4228 -0.6001 -0.0596
  434SOL     hw 1734   4.464   5.475   5.661 -0.6871 -0.6155  0.5418
  434SOL     hw 1735   4.440   5.394   5.536  1.0299 -0.5587  0.1533
  434SOL     vw 1736   4.428   5.467   5.583  0.3562 -0.5968  0.0479
  435SOL     ow 1737   1.104   0.501   3.738 -0.1461  0.3274  0.1978
  435SOL     hw 1738   1.171   0.508   3.671 -0.1063  0.8122  0.2812
  435SOL     hw 1739   1.151   0.468   3.815 -0.8155 -3.8053 -0.9202
  435SOL     vw 1740   1.119   0.498   3.740 -0.2292 -0.1539  0.0613
  436SOL     ow 1741   2.027   6.644   6.013 -0.0490 -0.3673 -0.2769
  436SOL     hw 1742   2.009   6.638   6.107 -2.7770  0.1705 -0.6953
  436SOL     hw 1743   1.988   6.565   5.976  0.7448 -0.4223 -1.0308
  436SOL     vw 1744   2.019   6.633   6.021 -0.3041 -0.3037 -0.4318
  437SOL     ow 1745   0.182   1.437   3.642 -0.2068  0.1877 -0.5109
  437SOL     hw 1746   0.231   1.517   3.661  0.7160 -0.2694 -0.8946
  437SOL     hw 1747   0.246   1.380   3.599 -1.2230 -0.2312 -1.4922
  437SOL     vw 1748   0.197   1.440   3.639 -0.2192  0.0721 -0.6909
  438SOL     ow 1749   7.019   5.799   7.068  0.4434  0.0012 -0.1536
  438SOL     hw 1750   6.948   5.804   7.004  0.7284 -0.8469 -0.5549
  438SOL     hw 1751   6.977   5.814   7.152 -1.2110 -5.2709  0.2743
  438SOL     vw 1752   7.004   5.802   7.070  0.2625 -0.8066 -0.1500
  439SOL     ow 1753   4.637   7.097   5.875 -0.3499 -0.0681 -0.0133
  439SOL     hw 1754   4.569   7.140   5.823 -1.1551  0.9691  1.8079
  439SOL     hw 1755   4.598   7.085   5.962  0.9817 -1.6228  0.4325
  439SOL     vw 1756   4.623   7.101   5.880 -0.2804 -0.1364  0.2859
  440SOL     ow 1757   2.722   6.394   4.771 -0.3326 -0.3248 -0.7484
  440SOL     hw 1758   2.707   6.444   4.690 -0.3261 -0.6876 -0.9761
  440SOL     hw 1759   2.717   6.302   4.744 -0.9374 -0.4538 -0.2290
  440SOL     vw 1760   2.719   6.388   4.757 -0.4114 -0.3901 -0.7098
  441SOL     ow 1761   2.832   0.229   6.501  0.1434  0.1348 -0.2449
  441SOL     hw 1762   2.829   0.319   6.534  0.6957 -0.1157  0.4961
  441SOL     hw 1763   2.747   0.192   6.524 -0.1298  0.4912 -0.6528
  441SOL     vw 1764   2.820   0.236   6.508  0.1802  0.1488 -0.2010
  442SOL     ow 1765   1.806   6.761   2.004 -0.4038 -0.1953  0.3103
  442SOL     hw 1766   1.754   6.833   1.968  0.2098  0.0729 -0.0598
  442SOL     hw 1767   1.808   6.777   2.098 -1.9513 -0.8494  0.4873
  442SOL     vw 1768   1.799   6.773   2.011 -0.5271 -0.2463  0.2849
  443SOL     ow 1769   3.321   4.370   4.757 -0.0850 -0.7234 -0.2979
  443SOL     hw 1770   3.284   4.401   4.675  0.8766  1.8995  0.1713
  443SOL     hw 1771   3.253   4.385   4.822  0.1180 -0.2446 -0.1908
  443SOL     vw 1772   3.307   4.376   4.755  0.0687 -0.3145 -0.2217
  444SOL     ow 1773   3.338   4.850   6.564 -0.3765 -0.4236  0.2561
  444SOL     hw 1774   3.266   4.909   6.588  0.1995 -0.9228  3.7259
  444SOL     hw 1775   3.310   4.811   6.481 -1.9649  2.7075 -0.8427
  444SOL     vw 1776   3.325   4.853   6.557 -0.5101 -0.0763  0.5691
  445SOL     ow 1777   1.960   0.476   2.504 -0.2329 -0.5567  0.8455
  445SOL     hw 1778   1.872   0.446   2.481 -0.4937  0.4765  0.3976
  445SOL     hw 1779   1.981   0.540   2.435  1.3773 -1.6872  0.2343
  445SOL     vw 1780   1.951   0.481   2.492 -0.0548 -0.5695  0.7056
  446SOL     ow 1781   5.929   1.889   3.688 -0.5180 -0.0787  0.2616
  446SOL     hw 1782   5.861   1.851   3.633  0.9618 -3.3391  0.4456
  446SOL     hw 1783   5.919   1.983   3.677 -2.3348 -0.5063 -3.0270
  446SOL     vw 1784   5.919   1.896   3.679 -0.5624 -0.5653 -0.1479
  447SOL     ow 1785   1.966   6.003   5.708  0.2600 -0.4919 -0.1415
  447SOL     hw 1786   1.941   6.053   5.630  0.3846 -1.4766 -0.8434
  447SOL     hw 1787   1.923   6.048   5.781 -0.0966  0.2833 -0.8157
  447SOL     vw 1788   1.957   6.015   5.707  0.2294 -0.5195 -0.3231
  448SOL     ow 1789   0.517   0.895   2.211  0.0572  0.2692 -0.4757
  448SOL     hw 1790   0.485   0.839   2.140  0.4355 -0.8158  0.1816
  448SOL     hw 1791   0.600   0.855   2.237 -0.7316 -0.2016  1.4987
  448SOL     vw 1792   0.524   0.882   2.205  0.0030  0.0639 -0.1285
  449SOL     ow 1793   0.818   3.837   1.412  0.5088 -0.0605 -0.1102
  449SOL     hw 1794   0.807   3.910   1.473  1.2663 -0.1801  0.1758
  449SOL     hw 1795   0.902   3.798   1.436 -0.2481 -1.5203  0.2721
  449SOL     vw 1796   0.827   3.841   1.424  0.5088 -0.2689 -0.0221
  450SOL     ow 1797   5.713   5.753   0.898 -0.0000  0.1916 -0.3801
  450SOL     hw 1798   5.698   5.723   0.809 -1.8061  1.1976 -0.4517
  450SOL     hw 1799   5.711   5.674   0.951  1.2624 -0.4345 -1.2226
  450SOL     vw 1800   5.711   5.739   0.893 -0.0718  0.2418 -0.5007
  451SOL     ow 1801   3.692   1.144   5.737 -0.2868  0.1547  0.0084
  451SOL     hw 1802   3.776   1.189   5.729 -1.0054  1.5335 -0.0929
  451SOL     hw 1803   3.694   1.077   5.668  0.2972  0.8739 -0.6953
  451SOL     vw 1804   3.703   1.141   5.727 -0.3046  0.4315 -0.0975
  452SOL     ow 1805   3.145   0.916   0.484  0.5669 -0.4449  0.3070
  452SOL     hw 1806   3.207   0.936   0.554  2.5296  0.5500 -1.5854
  452SOL     hw 1807   3.093   0.996   0.476  1.4450  0.0762 -0.4048
  452SOL     vw 1808   3.147   0.929   0.492  0.9418 -0.2449 -0.0366
  453SOL     ow 1809   6.254   2.974   2.613  0.1445 -0.2227 -0.2173
  453SOL     hw 1810   6.213   3.017   2.688 -0.1005  0.3075 -0.6501
  453SOL     hw 1811   6.180   2.938   2.563  0.1881  0.8245 -1.0545
  453SOL     vw 1812   6.239   2.975   2.616  0.1183 -0.0147 -0.3848
  454SOL     ow 1813   3.547   3.771   4.706  0.4112 -0.8826 -0.3625
  454SOL     hw 1814   3.636   3.779   4.674 -0.0446  2.5341 -1.1915
  454SOL     hw 1815   3.555   3.769   4.801  1.3933 -0.4769 -0.4286
  454SOL     vw 1816   3.560   3.772   4.714  0.4807 -0.3781 -0.4807
  455SOL     ow 1817   2.558   3.228   4.345 -0.2687 -0.3177 -0.3236
  455SOL     hw 1818   2.573   3.134   4.351  0.7349 -0.3764 -2.6927
  455SOL     hw 1819   2.641   3.268   4.372 -1.2253  0.0480  2.4226
  455SOL     vw 1820   2.571   3.221   4.349 -0.2624 -0.2773 -0.2737
  456SOL     ow 1821   5.578   5.946   1.103 -0.4261 -0.1911  0.5834
  456SOL     hw 1822   5.551   5.882   1.168 -0.3507  0.6101  1.4190
  456SOL     hw 1823   5.497   5.988   1.075 -0.7125 -1.8209 -1.2877
  456SOL     vw 1824   5.564   5.943   1.108 -0.4537 -0.3002  0.4467
  457SOL     ow 1825   3.078   3.994   1.761 -0.5190 -0.1670 -0.7699
  457SOL     hw 1826   2.983   4.007   1.769 -0.2992  0.5921  1.1203
  457SOL     hw 1827   3.093   3.905   1.791 -0.2653  1.0618  3.3813
  457SOL     vw 1828   3.067   3.984   1.766 -0.4566  0.0954  0.0272
  458SOL     ow 1829   6.048   0.750   0.982  0.1548  0.3872 -0.0008
  458SOL     hw 1830   6.099   0.830   0.995 -0.1234  0.6047 -0.2486
  458SOL     hw 1831   6.084   0.711   0.902 -0.6733  1.0139 -0.6885
  458SOL     vw 1832   6.060   0.755   0.973  0.0091  0.4985 -0.1242
  459SOL     ow 1833   6.394   5.628   0.654 -0.3868 -0.0147 -0.7295
  459SOL     hw 1834   6.436   5.690   0.714 -0.9585  0.5029 -0.8465
  459SOL     hw 1835   6.406   5.667   0.568  1.7483 -1.4939 -1.1633
  459SOL     vw 1836   6.401   5.642   0.651 -0.1805 -0.1419 -0.8021
  460SOL     ow 1837   6.738   7.039   0.638  0.2019  0.2704 -0.0447
  460SOL     hw 1838   6.751   6.974   0.707  0.0597 -0.7976 -0.9857
  460SOL     hw 1839   6.649   7.071   0.652  0.3284  0.3838  0.5246
  460SOL     vw 1840   6.728   7.034   0.649  0.1998  0.1445 -0.0937
  461SOL     ow 1841   7.089   5.365   3.877  0.1679 -0.9010 -0.5151
  461SOL     hw 1842   7.085   5.421   3.800 -1.8007 -1.6008 -0.9758
  461SOL     hw 1843   7.027   5.404   3.938 -0.2239 -1.7977 -0.3207
  461SOL     vw 1844   7.080   5.378   3.875 -0.1431 -1.1117 -0.5504
  462SOL     ow 1845   5.608   6.540   1.431 -0.1239  0.4535  0.7543
  462SOL     hw 1846   5.532   6.485   1.409  1.3630 -0.9389 -1.3184
  462SOL     hw 1847   5.682   6.478   1.433  1.1892  1.9790  1.2026
  462SOL     vw 1848   5.608   6.524   1.428  0.2453  0.4711  0.5400
  463SOL     ow 1849   0.575   5.856   2.247 -0.9591 -0.3549 -0.2788
  463SOL     hw 1850   0.644   5.921   2.263 -1.6826  0.5105 -0.5791
  463SOL     hw 1851   0.620   5.784   2.203 -0.7714  1.6324 -3.6694
  463SOL     vw 1852   0.590   5.855   2.243 -1.0298  0.0215 -0.7659
  464SOL     ow 1853   3.723   1.799   5.392 -0.6866 -0.2362 -0.3566
  464SOL     hw 1854   3.804   1.752   5.414 -0.7979 -0.2404  0.0434
  464SOL     hw 1855   3.677   1.740   5.332  0.7190  0.7657 -2.5637
  464SOL     vw 1856   3.728   1.785   5.387 -0.5158 -0.1045 -0.5953
  465SOL     ow 1857   3.297   0.324   4.978  0.1992 -0.1611  0.4963
  465SOL     hw 1858   3.383   0.365   4.986  0.2492  0.1559 -1.2835
  465SOL     hw 1859   3.315   0.232   4.961  0.1861 -0.0966  0.1329
  465SOL     vw 1860   3.310   0.318   4.977  0.2041 -0.1108  0.2136
  466SOL     ow 1861   2.249   1.732   4.491 -0.2897  0.1024  0.4109
  466SOL     hw 1862   2.290   1.817   4.509 -0.3415  0.7912 -2.2933
  466SOL     hw 1863   2.155   1.747   4.506 -0.2684  0.4470  0.2122
  466SOL     vw 1864   2.242   1.746   4.495 -0.2936  0.2387  0.0284
  467SOL     ow 1865   3.177   6.245   4.211 -0.0323  0.6157  0.4603
  467SOL     hw 1866   3.209   6.157   4.231 -1.4267 -0.2904 -1.0286
  467SOL     hw 1867   3.223   6.270   4.131  1.7462  2.0689  1.8806
  467SOL     vw 1868   3.187   6.236   4.203  0.0184  0.6878  0.4513
  468SOL     ow 1869   2.435   4.763   4.729  0.0235 -0.1680 -0.0511
  468SOL     hw 1870   2.383   4.704   4.675  0.8480  0.9003 -2.1178
  468SOL     hw 1871   2.371   4.826   4.764 -0.4610 -0.5937 -0.1633
  468SOL     vw 1872   2.420   4.764   4.726  0.0683 -0.0830 -0.3383
  469SOL     ow 1873   4.764   4.438   2.949  0.7493  0.6742  0.8441
  469SOL     hw 1874   4.794   4.375   2.884  0.9152  0.9802  0.6191
  469SOL     hw 1875   4.669   4.427   2.951  0.8224  0.0868  1.1582
  469SOL     vw 1876   4.755   4.428   2.940  0.7806  0.6371  0.8560
  470SOL     ow 1877   0.265   2.133   5.034  0.1742 -0.2242  0.3754
  470SOL     hw 1878   0.176   2.131   5.070 -0.5052 -1.2795 -1.2521
  470SOL     hw 1879   0.300   2.046   5.052  0.5860 -0.0773  0.2946
  470SOL     vw 1880   0.258   2.121   5.041  0.1389 -0.3440  0.1500
  471SOL     ow 1881   5.804   3.782   0.562  0.4331  0.6357 -0.1936
  471SOL     hw 1882   5.761   3.848   0.617 -0.8106  0.7222 -1.2178
  471SOL     hw 1883   5.753   3.782   0.481  0.3586 -1.6611 -0.1897
  471SOL     vw 1884   5.792   3.791   0.558  0.2594  0.3442 -0.3282
  472SOL     ow 1885   0.701   3.618   1.079 -0.5759 -0.1327 -0.5847
  472SOL     hw 1886   0.738   3.530   1.086  0.5877  0.3394 -0.5229
  472SOL     hw 1887   0.758   3.664   1.018 -1.7115  0.3275 -1.3379
  472SOL     vw 1888   0.713   3.613   1.072 -0.5722 -0.0097 -0.6760
  473SOL     ow 1889   2.749   3.817   0.160  0.0132  0.0803  0.0167
  473SOL     hw 1890   2.720   3.876   0.091  0.6816  1.2248  0.6999
  473SOL     hw 1891   2.844   3.820   0.156  0.0560 -0.3740  0.5550
  473SOL     vw 1892   2.757   3.825   0.151  0.1069  0.1713  0.1778
  474SOL     ow 1893   2.482   1.425   5.683  0.1278  0.2799 -0.7315
  474SOL     hw 1894   2.517   1.428   5.772  0.7480  0.1300 -0.9589
  474SOL     hw 1895   2.400   1.377   5.691  0.8262 -0.9141 -0.4268
  474SOL     vw 1896   2.476   1.419   5.696  0.3017  0.1026 -0.7212
  475SOL     ow 1897   0.743   1.376   2.084 -0.1195 -0.1362 -0.2536
  475SOL     hw 1898   0.713   1.433   2.014 -1.7724  1.0410  1.3279
  475SOL     hw 1899   0.838   1.385   2.083 -0.2547  1.6599 -0.8911
  475SOL     vw 1900   0.752   1.385   2.075 -0.3554  0.2561 -0.1291
  476SOL     ow 1901   6.783   1.881   1.234  0.1596 -0.0339 -0.0703
  476SOL     hw 1902   6.878   1.874   1.224  0.1529  0.2662 -0.3511
  476SOL     hw 1903   6.759   1.960   1.186  0.2400  2.0427  3.0565
  476SOL     vw 1904   6.792   1.890   1.226  0.1690  0.2796  0.3052
  477SOL     ow 1905   0.230   3.130   0.985 -0.6728  0.0997 -0.0156
  477SOL     hw 1906   0.308   3.078   0.964  0.0134  1.3131 -0.5916
  477SOL     hw 1907   0.263   3.219   0.994 -1.7704  0.3892  1.3369
  477SOL     vw 1908   0.245   3.135   0.983 -0.7271  0.2980  0.0868
  478SOL     ow 1909   4.518   3.963   2.939 -0.1934  0.4950  0.1850
  478SOL     hw 1910   4.425   3.985   2.945 -0.8841 -2.3994  2.1596
  478SOL     hw 1911   4.555   3.994   3.022  0.4267  0.8124 -0.2037
  478SOL     vw 1912   4.511   3.970   2.951 -0.2024  0.1550  0.3942
  479SOL     ow 1913   5.921   1.367   3.816  0.2967 -0.8063  0.1222
  479SOL     hw 1914   5.874   1.349   3.734 -0.8404  1.3189  0.2357
  479SOL     hw 1915   5.865   1.331   3.884 -0.5080  0.4338  0.1539
  479SOL     vw 1916   5.907   1.360   3.814  0.0405 -0.3622  0.1414
  480SOL     ow 1917   4.212   2.449   0.287 -0.4375 -0.0874 -0.5559
  480SOL     hw 1918   4.137   2.482   0.336  0.4548  2.5413 -0.7918
  480SOL     hw 1919   4.197   2.355   0.279 -1.9834 -0.1887  2.3323
  480SOL     vw 1920   4.200   2.441   0.293 -0.5236  0.2462 -0.2059
  481SOL     ow 1921   3.867   5.090   2.634  0.3375  0.2939 -0.1840
  481SOL     hw 1922   3.955   5.127   2.640  0.5781 -0.0695 -1.2025
  481SOL     hw 1923   3.820   5.127   2.709  1.3318  0.5421  0.3368
  481SOL     vw 1924   3.872   5.100   2.645  0.5006  0.2789 -0.2496
  482SOL     ow 1925   3.950   6.556   3.041  0.0670 -0.4154  0.0277
  482SOL     hw 1926   3.863   6.597   3.040  0.2184 -0.1034 -0.7375
  482SOL     hw 1927   3.952   6.503   2.962  1.4155  1.4134 -1.2601
  482SOL     vw 1928   3.938   6.555   3.030  0.2649 -0.1328 -0.2429
  483SOL     ow 1929   4.464   3.176   4.207  0.5560  0.1819  0.6490
  483SOL     hw 1930   4.447   3.105   4.146 -0.4453 -0.5782  1.7685
  483SOL     hw 1931   4.536   3.144   4.261 -0.3683 -0.3208  1.6224
  483SOL     vw 1932   4.471   3.162   4.206  0.3021  0.0154  0.9251
  484SOL     ow 1933   6.390   3.893   1.454  0.5362 -0.8841  0.3684
  484SOL     hw 1934   6.375   3.929   1.367  0.2329  0.0279  0.7870
  484SOL     hw 1935   6.436   3.810   1.438  0.7046 -0.6093 -0.6409
  484SOL     vw 1936   6.394   3.886   1.440  0.5186 -0.7274  0.2904
  485SOL     ow 1937   1.098   2.821   6.988  0.1375 -0.1015  0.4907
  485SOL     hw 1938   1.131   2.799   7.075  1.9449  1.8460  0.3923
  485SOL     hw 1939   1.008   2.849   7.002 -0.2285 -1.6421  1.4183
  485SOL     vw 1940   1.091   2.822   7.001  0.3276 -0.0478  0.6001
  486SOL     ow 1941   2.884   3.908   5.737  0.6117 -0.5288 -0.2484
  486SOL     hw 1942   2.810   3.964   5.762  1.6619 -0.6164  3.9202
  486SOL     hw 1943   2.938   3.963   5.681 -0.8911  0.7786 -0.4800
  486SOL     vw 1944   2.882   3.923   5.733  0.5519 -0.3679  0.2711
  487SOL     ow 1945   2.420   6.080   1.827 -0.5203  0.0692  0.4148
  487SOL     hw 1946   2.331   6.103   1.801 -0.2672  0.1508 -0.3999
  487SOL     hw 1947   2.471   6.160   1.813 -0.1661 -0.2014  0.1373
  487SOL     vw 1948   2.415   6.094   1.822 -0.4401  0.0441  0.2707
  488SOL     ow 1949   2.023   1.493   2.111 -0.1686  0.2185 -0.3684
  488SOL     hw 1950   2.111   1.455   2.121 -0.7029 -0.7661  0.8570
  488SOL     hw 1951   2.018   1.559   2.181 -0.2193  0.6641 -0.7880
  488SOL     vw 1952   2.034   1.497   2.122 -0.2459  0.1475 -0.2621
  489SOL     ow 1953   2.893   6.023   5.641 -0.1154 -0.2666 -0.4033
  489SOL     hw 1954   2.891   6.003   5.547 -0.8711 -0.0485 -0.4396
  489SOL     hw 1955   2.805   6.052   5.661 -0.7628 -2.8820  0.9746
  489SOL     vw 1956   2.881   6.024   5.631 -0.3004 -0.5834 -0.2265
  490SOL     ow 1957   6.690   2.719   7.051  0.6400  0.3672 -0.0544
  490SOL     hw 1958   6.610   2.763   7.021  0.7858  1.1091  0.5997
  490SOL     hw 1959   6.746   2.791   7.081  1.0644 -0.2484  0.6335
  490SOL     vw 1960   6.687   2.734   7.051  0.7150  0.3839  0.1228
  491SOL     ow 1961   4.119   6.400   0.689  0.1112 -0.0712  0.4759
  491SOL     hw 1962   4.061   6.459   0.640  0.4624  0.0655  0.2158
  491SOL     hw 1963   4.080   6.314   0.677 -0.3014  0.0793  0.6976
  491SOL     vw 1964   4.106   6.397   0.681  0.1030 -0.0331  0.4709
  492SOL     ow 1965   6.719   3.042   0.714 -0.0790 -0.0376 -0.1722
  492SOL     hw 1966   6.789   3.019   0.653 -0.0878 -0.3235 -0.0770
  492SOL     hw 1967   6.661   3.099   0.663  0.7336  1.0075  0.0463
  492SOL     vw 1968   6.720   3.046   0.699  0.0274  0.0625 -0.1308
  493SOL     ow 1969   1.515   1.504   5.413 -0.0789 -0.3166 -0.3633
  493SOL     hw 1970   1.430   1.546   5.418 -1.1515 -2.4834  0.7050
  493SOL     hw 1971   1.567   1.544   5.482 -0.5926  0.2436 -0.3052
  493SOL     vw 1972   1.511   1.514   5.423 -0.2882 -0.5286 -0.2146
  494SOL     ow 1973   2.950   5.749   1.364 -0.0442 -0.4783 -0.6146
  494SOL     hw 1974   2.983   5.818   1.307  1.2243 -0.3250  0.2434
  494SOL     hw 1975   2.947   5.790   1.451  2.2005 -1.8501  0.2136
  494SOL     vw 1976   2.954   5.763   1.368  0.4193 -0.6392 -0.3921
  495SOL     ow 1977   5.683   4.710   3.588 -0.4239 -0.4127  0.2263
  495SOL     hw 1978   5.650   4.799   3.598  2.3252  0.8949 -1.2132
  495SOL     hw 1979   5.656   4.684   3.501 -1.9618 -1.3973  0.9576
  495SOL     vw 1980   5.675   4.718   3.578 -0.2642 -0.3700  0.1328
  496SOL     ow 1981   2.212   5.940   5.795 -0.1810 -0.3669  0.4540
  496SOL     hw 1982   2.261   6.022   5.806 -0.0108 -0.2492 -1.0357
  496SOL     hw 1983   2.132   5.966   5.750 -0.8888 -0.8026  1.4206
  496SOL     vw 1984   2.208   5.954   5.790 -0.2520 -0.4089  0.3850
  497SOL     ow 1985   1.852   5.877   2.109 -0.3844  0.5598 -0.1579
  497SOL     hw 1986   1.890   5.953   2.064  1.0029  0.6203  1.0551
  497SOL     hw 1987   1.926   5.833   2.150 -0.8182 -2.6590 -2.4563
  497SOL     vw 1988   1.866   5.882   2.109 -0.2587  0.1433 -0.3010
  498SOL     ow 1989   3.009   6.425   2.295  0.8174 -0.2089 -0.2715
  498SOL     hw 1990   2.956   6.361   2.344 -0.7952  1.9157  0.9712
  498SOL     hw 1991   2.948   6.497   2.276  2.2267  0.4561 -2.7000
  498SOL     vw 1992   2.994   6.426   2.299  0.7904  0.1590 -0.4281
  499SOL     ow 1993   1.643   5.883   2.546  0.4364 -0.4763 -0.4138
  499SOL     hw 1994   1.723   5.935   2.556  1.5090 -2.0337 -0.3432
  499SOL     hw 1995   1.582   5.920   2.610  2.2036 -1.1732  1.8512
  499SOL     vw 1996   1.646   5.895   2.556  0.8110 -0.7739 -0.1057
  500SOL     ow 1997   3.715   6.780   1.778  0.2128  0.5792  0.2796
  500SOL     hw 1998   3.764   6.824   1.708  1.2130 -0.6195  0.1891
  500SOL     hw 1999   3.652   6.725   1.733  0.5540  0.1458  0.3295
  500SOL     vw 2000   3.713   6.779   1.763  0.3896  0.3638  0.2743
  501SOL     ow 2001   7.025   0.791   0.707 -0.4683  0.2767  0.0267
  501SOL     hw 2002   7.112   0.788   0.667 -0.0619  2.5525  0.6064
  501SOL     hw 2003   6.981   0.864   0.664 -1.3761  0.3809  1.0891
  501SOL     vw 2004   7.031   0.800   0.696 -0.5341  0.5907  0.2434
  502SOL     ow 2005   6.453   4.349   5.222  0.1055  0.2535 -0.4168
  502SOL     hw 2006   6.504   4.389   5.293 -1.2714  0.3358  0.5780
  502SOL     hw 2007   6.405   4.278   5.265 -2.4586  1.6805 -0.7381
  502SOL     vw 2008   6.453   4.345   5.237 -0.4144  0.4525 -0.3278
  503SOL     ow 2009   3.011   4.076   5.550  0.8620 -0.3913 -0.2694
  503SOL     hw 2010   2.932   4.101   5.501  0.1601 -0.5397  0.7457
  503SOL     hw 2011   3.053   4.010   5.496  0.4775 -0.0527 -0.9956
  503SOL     vw 2012   3.006   4.071   5.536  0.7187 -0.3662 -0.2313
  504SOL     ow 2013   1.713   5.487   5.968  0.8673  0.3376  0.6698
  504SOL     hw 2014   1.657   5.558   6.001 -0.1954  0.3534 -1.0513
  504SOL     hw 2015   1.782   5.531   5.919  1.1016  0.2255  0.8946
  504SOL     vw 2016   1.715   5.502   5.966  0.7579  0.3250  0.4723
  505SOL     ow 2017   2.389   6.407   1.078 -0.1442 -0.3458  0.1573
  505SOL     hw 2018   2.346   6.419   1.162 -0.2502  0.0015  0.0547
  505SOL     hw 2019   2.480   6.434   1.094 -0.0633 -0.6657  0.2609
  505SOL     vw 2020   2.396   6.412   1.091 -0.1475 -0.3421  0.1574
  506SOL     ow 2021   1.507   1.211   5.299 -0.3632  0.2231  0.0319
  506SOL     hw 2022   1.433   1.153   5.279 -0.3397  0.3010 -0.2921
  506SOL     hw 2023   1.583   1.154   5.301 -0.1971  0.3717 -1.2404
  506SOL     vw 2024   1.507   1.196   5.296 -0.3382  0.2530 -0.1786
  507SOL     ow 2025   2.967   1.490   3.392  0.1796  0.3325  0.0976
  507SOL     hw 2026   2.924   1.422   3.339  1.3870  0.6632 -1.3619
  507SOL     hw 2027   3.060   1.474   3.381  0.4972  2.2414 -0.3244
  507SOL     vw 2028   2.973   1.479   3.383  0.3809  0.6280 -0.1506
  508SOL     ow 2029   7.031   5.046   6.966  0.3223 -0.1067  0.6086
  508SOL     hw 2030   7.090   5.043   6.891 -1.2571 -1.1906 -0.6535
  508SOL     hw 2031   7.003   4.955   6.978 -1.0326  0.3695  1.2035
  508SOL     vw 2032   7.035   5.033   6.958 -0.0648 -0.1867  0.5207
  509SOL     ow 2033   2.780   2.388   5.388 -0.6780 -0.5524 -0.7898
  509SOL     hw 2034   2.791   2.345   5.303 -1.4820 -0.6148 -0.8681
  509SOL     hw 2035   2.688   2.412   5.390 -0.1268  1.7776 -1.0416
  509SOL     vw 2036   2.769   2.385   5.377 -0.7113 -0.2533 -0.8333
  510SOL     ow 2037   4.834   4.210   6.784  0.2661  0.0215 -0.4437
  510SOL     hw 2038   4.765   4.234   6.846  0.3123  1.5249 -0.9329
  510SOL     hw 2039   4.790   4.156   6.719  0.0951 -1.1060  0.5626
  510SOL     vw 2040   4.819   4.206   6.784  0.2494  0.0710 -0.3753
  511SOL     ow 2041   4.386   2.021   5.228  0.5599  0.2771  0.4716
  511SOL     hw 2042   4.352   2.019   5.139  2.2309 -1.2464 -0.1992
  511SOL     hw 2043   4.374   2.112   5.256 -3.4338  0.0264  0.1836
  511SOL     vw 2044   4.380   2.033   5.220  0.2534  0.0430  0.3448
  512SOL     ow 2045   0.255   0.750   1.297 -0.5038  0.1453  0.1634
  512SOL     hw 2046   0.164   0.731   1.273 -0.0525 -1.2947 -0.4956
  512SOL     hw 2047   0.307   0.700   1.235  0.7565  0.7029  0.7427
  512SOL     vw 2048   0.250   0.741   1.286 -0.2780  0.0288  0.1529
  513SOL     ow 2049   0.100   5.544   0.584  0.3025 -0.0063  0.1482
  513SOL     hw 2050   0.008   5.516   0.585  0.8695 -2.0878 -1.0056
  513SOL     hw 2051   0.136   5.513   0.667  0.4446 -1.0646 -0.2922
  513SOL     vw 2052   0.092   5.537   0.595  0.3961 -0.4206 -0.0621
  514SOL     ow 2053   3.276   5.190   0.990 -0.3774  0.4732 -0.0472
  514SOL     hw 2054   3.255   5.228   0.905  1.9519 -1.3300 -1.5547
  514SOL     hw 2055   3.340   5.250   1.028 -0.3889  0.5799 -0.1946
  514SOL     vw 2056   3.282   5.203   0.984 -0.0716  0.2496 -0.2654
  515SOL     ow 2057   4.732   1.157   3.481  0.3005  0.1666  0.3913
  515SOL     hw 2058   4.808   1.187   3.431 -0.3133 -0.7268 -1.1645
  515SOL     hw 2059   4.761   1.077   3.523  0.6596  0.6287  1.0303
  515SOL     vw 2060   4.745   1.151   3.480  0.2668  0.1097  0.2702
  516SOL     ow 2061   1.984   1.823   4.539 -0.1416  0.3551 -0.4071
  516SOL     hw 2062   1.950   1.751   4.592  0.0709  1.3355  1.1157
  516SOL     hw 2063   1.907   1.860   4.497 -0.5313  0.5165  0.4306
  516SOL     vw 2064   1.970   1.818   4.540 -0.1649  0.5058 -0.0954
  517SOL     ow 2065   4.042   1.359   3.658 -0.4988  0.1522 -0.3741
  517SOL     hw 2066   3.997   1.357   3.742 -0.6598  0.2385 -0.4579
  517SOL     hw 2067   4.067   1.268   3.642 -0.2845  0.1694 -0.1347
  517SOL     vw 2068   4.039   1.347   3.667 -0.4919  0.1659 -0.3536
  518SOL     ow 2069   2.467   5.735   5.774  0.8488 -0.6051  0.0418
  518SOL     hw 2070   2.373   5.719   5.770  0.4372  1.7189 -1.6499
  518SOL     hw 2071   2.475   5.824   5.806  2.5196 -0.9467  0.6727
  518SOL     vw 2072   2.456   5.744   5.777  1.0148 -0.3436 -0.0980
  519SOL     ow 2073   1.452   1.236   6.916 -0.0204 -0.2145  0.4344
  519SOL     hw 2074   1.417   1.177   6.983 -3.2920  1.3023  0.2638
  519SOL     hw 2075   1.400   1.217   6.839 -0.8984  2.5590  0.2699
  519SOL     vw 2076   1.441   1.225   6.915 -0.5679  0.3515  0.3903
  520SOL     ow 2077   6.555   4.215   2.117 -0.3239  0.2941 -0.2124
  520SOL     hw 2078   6.526   4.303   2.139 -0.1769 -0.3798  3.0412
  520SOL     hw 2079   6.482   4.158   2.139 -0.0152 -0.5431 -1.2135
  520SOL     vw 2080   6.542   4.219   2.123 -0.2639  0.0944  0.0846
  521SOL     ow 2081   6.356   5.857   5.530 -0.7873  0.2682  0.0952
  521SOL     hw 2082   6.408   5.913   5.472  2.0949 -0.5046  1.7040
  521SOL     hw 2083   6.353   5.772   5.486 -1.0038  0.4026 -0.1532
  521SOL     vw 2084   6.363   5.853   5.516 -0.4356  0.1841  0.2747
  522SOL     ow 2085   3.432   6.377   4.300  0.5139  0.4501 -0.1526
  522SOL     hw 2086   3.343   6.341   4.299  0.1135  1.2357  1.6357
  522SOL     hw 2087   3.443   6.417   4.214 -0.2685 -1.0068 -0.9636
  522SOL     vw 2088   3.421   6.377   4.289  0.3579  0.3617 -0.0236
  523SOL     ow 2089   4.358   0.534   5.241  0.3423 -0.2167  0.1097
  523SOL     hw 2090   4.340   0.477   5.316 -0.1471  0.7390  0.7426
  523SOL     hw 2091   4.302   0.501   5.172 -1.0879  0.3948  0.9292
  523SOL     vw 2092   4.349   0.522   5.242  0.0889 -0.0100  0.3014
  524SOL     ow 2093   0.113   0.489   2.391 -0.0612 -0.0061  0.1889
  524SOL     hw 2094   0.152   0.522   2.472 -1.1104 -1.1707  1.2119
  524SOL     hw 2095   0.186   0.484   2.330  1.6105 -2.5741  2.1731
  524SOL     vw 2096   0.128   0.493   2.394  0.0209 -0.4986  0.5854
  525SOL     ow 2097   0.203   5.363   4.070 -0.0521  0.2276 -0.7838
  525SOL     hw 2098   0.211   5.458   4.061 -1.1184  0.6549  1.9151
  525SOL     hw 2099   0.285   5.335   4.110  0.0917  0.0475 -1.1927
  525SOL     vw 2100   0.215   5.372   4.074 -0.1738  0.2604 -0.4816
  526SOL     ow 2101   2.620   5.535   6.200 -0.4725 -0.4618 -0.1350
  526SOL     hw 2102   2.710   5.508   6.184 -0.9418 -1.6093 -0.8787
  526SOL     hw 2103   2.628   5.612   6.258  1.0659  0.8483 -1.9708
  526SOL     vw 2104   2.633   5.542   6.205 -0.3314 -0.4404 -0.4754
  527SOL     ow 2105   0.165   6.909   1.230  0.0940  0.1178 -0.6583
  527SOL     hw 2106   0.154   6.909   1.135  1.3381 -1.2502 -0.8249
  527SOL     hw 2107   0.258   6.925   1.244 -0.4591  2.8901  0.4571
  527SOL     vw 2108   0.175   6.911   1.220  0.1852  0.3033 -0.5330
  528SOL     ow 2109   0.170   4.846   2.181  0.3839  0.1102 -0.3961
  528SOL     hw 2110   0.102   4.854   2.249 -0.0314 -2.3819 -0.4476
  528SOL     hw 2111   0.230   4.919   2.199 -0.8004  0.7082  1.3885
  528SOL     vw 2112   0.169   4.857   2.193  0.1729 -0.1397 -0.1675
  529SOL     ow 2113   0.708   5.627   2.199  0.6687  0.1335  0.0453
  529SOL     hw 2114   0.642   5.560   2.214 -2.0147  2.5510 -0.1739
  529SOL     hw 2115   0.775   5.609   2.265 -1.6616 -0.7196  2.3695
  529SOL     vw 2116   0.708   5.616   2.210  0.0072  0.3397  0.3231
  530SOL     ow 2117   6.307   6.532   3.269 -0.3894  0.3728 -0.2767
  530SOL     hw 2118   6.234   6.497   3.217 -1.0081 -1.8508  1.9164
  530SOL     hw 2119   6.385   6.493   3.230 -0.9639 -2.6379  1.2804
  530SOL     vw 2120   6.308   6.522   3.257 -0.5467 -0.3178  0.2182
  531SOL     ow 2121   6.446   6.372   6.324 -0.8465  0.0089  0.3859
  531SOL     hw 2122   6.378   6.333   6.379 -1.0155  1.4626  1.2440
  531SOL     hw 2123   6.491   6.434   6.381 -0.2708  0.7171 -0.8027
  531SOL     vw 2124   6.443   6.375   6.339 -0.7927  0.2942  0.3426
  532SOL     ow 2125   4.596   5.581   6.266  0.3307  0.0171  0.6246
  532SOL     hw 2126   4.677   5.554   6.223 -0.3560 -0.6982 -0.2532
  532SOL     hw 2127   4.539   5.609   6.194 -0.2972  0.2436  1.2040
  532SOL     vw 2128   4.599   5.581   6.251  0.1571 -0.0474  0.5851
  533SOL     ow 2129   3.186   2.853   5.961 -0.0465  0.3140 -0.3849
  533SOL     hw 2130   3.180   2.764   5.927  0.6792  0.4184 -0.7960
  533SOL     hw 2131   3.095   2.880   5.973 -0.2832 -0.2347 -0.8972
  533SOL     vw 2132   3.173   2.845   5.958  0.0181  0.2555 -0.5069
  534SOL     ow 2133   1.708   1.042   5.404  0.5243 -0.0138  0.2407
  534SOL     hw 2134   1.671   0.957   5.430  0.9817 -0.8945 -1.7919
  534SOL     hw 2135   1.741   1.080   5.485  1.3438 -2.3044  1.0604
  534SOL     vw 2136   1.707   1.036   5.418  0.6928 -0.4323  0.0808
  535SOL     ow 2137   5.244   1.399   3.913  0.4226 -0.2032  0.0980
  535SOL     hw 2138   5.234   1.425   3.821  0.6836  0.0538  0.1396
  535SOL     hw 2139   5.332   1.361   3.918  0.5413  0.0919  0.3103
  535SOL     vw 2140   5.254   1.397   3.902  0.4723 -0.1304  0.1314
  536SOL     ow 2141   3.412   2.934   6.371  0.0258  0.0299  0.1994
  536SOL     hw 2142   3.459   3.016   6.355 -0.7508  0.3338 -0.5916
  536SOL     hw 2143   3.320   2.956   6.357 -0.2522 -0.8262  0.6226
  536SOL     vw 2144   3.406   2.948   6.367 -0.1132 -0.0430  0.1509
  537SOL     ow 2145   4.293   0.795   5.193  0.2802  0.0760  0.4377
  537SOL     hw 2146   4.313   0.701   5.191  1.4308  0.2822  1.0432
  537SOL     hw 2147   4.219   0.802   5.254  0.1738 -0.4431  0.3738
  537SOL     vw 2148   4.286   0.783   5.201  0.4179  0.0347  0.5090
  538SOL     ow 2149   4.124   3.747   6.993  0.1725  0.1351 -0.6039
  538SOL     hw 2150   4.045   3.799   7.006 -0.0682 -0.3518 -0.0578
  538SOL     hw 2151   4.095   3.656   7.006  0.1571 -0.3590 -3.3386
  538SOL     vw 2152   4.110   3.742   6.996  0.1388  0.0058 -0.8924
  539SOL     ow 2153   0.080   4.122   0.263 -0.4951  0.2885  0.1775
  539SOL     hw 2154   0.104   4.170   0.184  1.0849 -0.3871  0.2009
  539SOL     hw 2155  -0.007   4.087   0.246  0.0701 -0.3612 -1.5241
  539SOL     vw 2156   0.072   4.124   0.251 -0.2121  0.1137 -0.0440
  540SOL     ow 2157   1.207   3.307   1.281 -0.8178  0.4944  0.2424
  540SOL     hw 2158   1.158   3.373   1.232 -0.5581 -0.5865 -1.5784
  540SOL     hw 2159   1.208   3.231   1.223 -0.2824 -0.7882  1.8730
  540SOL     vw 2160   1.201   3.306   1.267 -0.7129  0.1826  0.2173
  541SOL     ow 2161   1.768   1.919   6.143  0.4693 -0.0209 -1.0306
  541SOL     hw 2162   1.856   1.902   6.109  0.9918  0.8533 -0.1741
  541SOL     hw 2163   1.754   2.012   6.128  0.4364  0.2466  0.4654
  541SOL     vw 2164   1.778   1.929   6.137  0.5339  0.1297 -0.7205
  542SOL     ow 2165   3.140   2.840   6.580  0.3895  0.5629 -0.4837
  542SOL     hw 2166   3.122   2.851   6.486 -0.4037 -1.9070 -0.6988
  542SOL     hw 2167   3.056   2.860   6.622  0.2167 -0.1100 -0.4922
  542SOL     vw 2168   3.126   2.844   6.573  0.2620  0.1483 -0.5133
  543SOL     ow 2169   6.428   6.207   3.809 -0.6526  0.1305 -0.5967
  543SOL     hw 2170   6.519   6.233   3.823 -0.6955 -0.1726  0.2919
  543SOL     hw 2171   6.387   6.215   3.895 -1.4300  0.1113 -0.9573
  543SOL     vw 2172   6.435   6.211   3.822 -0.7606  0.0880 -0.5273
  544SOL     ow 2173   4.505   0.269   6.911 -0.9265  0.5373  0.7905
  544SOL     hw 2174   4.590   0.270   6.867  0.4429  1.4541  3.2524
  544SOL     hw 2175   4.509   0.194   6.970 -0.9925  1.7350  2.3702
  544SOL     vw 2176   4.517   0.260   6.913 -0.7544  0.8163  1.3235
  545SOL     ow 2177   2.111   0.580   0.757  0.2324  0.3882  0.0713
  545SOL     hw 2178   2.163   0.650   0.797 -0.4995 -0.9569  3.7857
  545SOL     hw 2179   2.021   0.601   0.780 -0.0006 -1.6809  1.2703
  545SOL     vw 2180   2.106   0.592   0.765  0.1051 -0.0622  0.7195
  546SOL     ow 2181   5.709   3.138   3.169 -0.2169  0.1296 -0.2311
  546SOL     hw 2182   5.682   3.121   3.079 -1.5916  0.3471  0.1117
  546SOL     hw 2183   5.805   3.133   3.167 -0.1731  0.9721 -1.8726
  546SOL     vw 2184   5.718   3.135   3.157 -0.3924  0.2695 -0.4025
  547SOL     ow 2185   1.066   5.051   5.912 -0.7379 -0.2808 -0.3411
  547SOL     hw 2186   1.014   5.016   5.985 -1.9559  1.3241 -0.3918
  547SOL     hw 2187   1.137   5.099   5.955 -0.8195 -0.2549 -0.2351
  547SOL     vw 2188   1.068   5.053   5.928 -0.9093 -0.0658 -0.3338
  548SOL     ow 2189   6.094   5.235   2.821  0.5552 -0.2903 -0.5992
  548SOL     hw 2190   6.052   5.250   2.736 -0.9938 -1.3515 -0.0680
  548SOL     hw 2191   6.035   5.174   2.866  2.7205 -1.9272  0.1839
  548SOL     vw 2192   6.081   5.229   2.816  0.6363 -0.6464 -0.4257
  549SOL     ow 2193   1.131   0.689   3.988 -0.9190  0.1201  0.3603
  549SOL     hw 2194   1.202   0.625   3.990  0.3005  1.4149  2.7121
  549SOL     hw 2195   1.052   0.637   4.004  0.1243 -0.8049  3.0222
  549SOL     vw 2196   1.130   0.673   3.991 -0.6204  0.1689  1.0217
  550SOL     ow 2197   2.235   6.658   7.026 -0.1688  0.7208  0.0941
  550SOL     hw 2198   2.303   6.653   7.093 -1.0020 -1.1304  0.8965
  550SOL     hw 2199   2.277   6.698   6.951  1.0237  2.0992  1.4512
  550SOL     vw 2200   2.249   6.662   7.025 -0.1214  0.6580  0.3788
  551SOL     ow 2201   4.510   4.681   3.936 -0.5780  0.2296 -0.1450
  551SOL     hw 2202   4.415   4.689   3.945 -0.5047  0.9709  0.0825
  551SOL     hw 2203   4.523   4.621   3.862 -1.2157 -0.3215  0.1820
  551SOL     vw 2204   4.499   4.674   3.928 -0.6526  0.2546 -0.0719
  552SOL     ow 2205   0.658   2.066   6.983  0.5632 -0.1985 -1.0168
  552SOL     hw 2206   0.569   2.069   6.947  1.1554  2.2389 -2.5838
  552SOL     hw 2207   0.670   1.976   7.013 -1.6955 -1.1537 -2.7037
  552SOL     vw 2208   0.648   2.055   6.982  0.3433 -0.0030 -1.4460
  553SOL     ow 2209   1.288   3.610   1.545 -0.2525  0.1024 -0.1649
  553SOL     hw 2210   1.321   3.524   1.520 -0.6842 -0.9547  2.5637
  553SOL     hw 2211   1.367   3.661   1.564  0.0107  0.4327 -1.9402
  553SOL     vw 2212   1.303   3.605   1.544 -0.2747  0.0064 -0.0391
  554SOL     ow 2213   5.484   5.515   5.916  0.2725 -0.3362 -0.4530
  554SOL     hw 2214   5.508   5.529   6.008  0.6375 -0.1970 -0.5692
  554SOL     hw 2215   5.419   5.444   5.919 -1.5676  1.2742  0.1334
  554SOL     vw 2216   5.478   5.507   5.928  0.0782 -0.1056 -0.3908
  555SOL     ow 2217   5.537   6.383   0.874 -0.4363 -0.8525 -0.3489
  555SOL     hw 2218   5.481   6.444   0.824  1.0236  0.0308 -0.9892
  555SOL     hw 2219   5.566   6.320   0.809 -0.8120 -1.4135  0.0214
  555SOL     vw 2220   5.533   6.383   0.859 -0.2933 -0.8101 -0.3846
  556SOL     ow 2221   5.126   2.587   1.723  0.1893 -0.4435  0.5667
  556SOL     hw 2222   5.039   2.554   1.701 -0.0293  1.0114 -0.9389
  556SOL     hw 2223   5.120   2.682   1.711  2.1332 -0.3646 -0.1928
  556SOL     vw 2224   5.114   2.595   1.718  0.4170 -0.2412  0.2678
  557SOL     ow 2225   1.658   1.232   6.706 -0.2393  0.2613 -0.2998
  557SOL     hw 2226   1.625   1.310   6.660  0.1385  0.5352 -0.1087
  557SOL     hw 2227   1.732   1.203   6.654 -1.8883 -1.5032 -1.8322
  557SOL     vw 2228   1.663   1.239   6.693 -0.4070  0.0647 -0.4768
  558SOL     ow 2229   3.131   2.476   0.924 -0.1479  0.5367 -0.7434
  558SOL     hw 2230   3.172   2.546   0.872  0.6860 -0.1390 -1.0210
  558SOL     hw 2231   3.111   2.517   1.008 -2.5376  1.9738 -1.9181
  558SOL     vw 2232   3.134   2.491   0.928 -0.3531  0.6373 -0.9350
  559SOL     ow 2233   3.041   1.824   3.385 -0.2964  0.0471  0.4069
  559SOL     hw 2234   3.001   1.891   3.330 -2.0890  0.6986  2.3739
  559SOL     hw 2235   3.132   1.851   3.394 -0.9328  2.1852  1.0229
  559SOL     vw 2236   3.048   1.836   3.379 -0.6169  0.4152  0.7478
  560SOL     ow 2237   5.160   4.023   4.825  0.0678 -0.1048 -0.4786
  560SOL     hw 2238   5.213   3.945   4.835  0.1538 -0.0943 -0.8343
  560SOL     hw 2239   5.219   4.096   4.845 -0.4723 -0.1972  1.6388
  560SOL     vw 2240   5.175   4.023   4.829  0.0079 -0.1156 -0.2460
  561SOL     ow 2241   1.302   5.401   3.855  0.1698  0.3419  0.2371
  561SOL     hw 2242   1.277   5.457   3.781 -0.8909  1.8306  1.6312
  561SOL     hw 2243   1.343   5.461   3.917 -0.5283 -0.5019  1.5679
  561SOL     vw 2244   1.304   5.416   3.853 -0.0623  0.4270  0.5966
  562SOL     ow 2245   1.999   3.838   4.280 -0.4133  0.1103 -0.1545
  562SOL     hw 2246   1.954   3.820   4.197 -1.9790  2.4157  0.0942
  562SOL     hw 2247   1.934   3.816   4.347 -0.0695  0.5772  0.3378
  562SOL     vw 2248   1.984   3.833   4.278 -0.5746  0.4760 -0.0565
  563SOL     ow 2249   2.114   5.061   3.512  0.3889 -0.2889 -0.5574
  563SOL     hw 2250   2.127   5.135   3.452  0.3677 -1.3047 -1.8752
  563SOL     hw 2251   2.129   5.097   3.599  0.1415  1.3162 -1.1480
  563SOL     vw 2252   2.118   5.076   3.515  0.3536 -0.2115 -0.8091
  564SOL     ow 2253   4.987   2.155   6.366 -0.1709 -0.3571 -0.4839
  564SOL     hw 2254   5.062   2.142   6.308 -0.7930  0.0052 -1.3939
  564SOL     hw 2255   4.955   2.066   6.384  0.4969 -0.5172 -0.0460
  564SOL     vw 2256   4.993   2.141   6.360 -0.1647 -0.3304 -0.5462
  565SOL     ow 2257   5.297   1.535   0.035  0.2814 -0.0224  0.4032
  565SOL     hw 2258   5.376   1.554  -0.016 -0.2986  0.1874 -0.4356
  565SOL     hw 2259   5.290   1.610   0.095  0.8345 -0.1543  0.6466
  565SOL     vw 2260   5.307   1.548   0.036  0.2778 -0.0120  0.3246
  566SOL     ow 2261   3.867   6.125   2.831  0.1564  0.5073  0.3182
  566SOL     hw 2262   3.920   6.094   2.905 -0.2208  0.4109  0.5480
  566SOL     hw 2263   3.823   6.047   2.798 -1.5666  0.9330  1.5164
  566SOL     vw 2264   3.868   6.111   2.836 -0.1206  0.5505  0.5065
  567SOL     ow 2265   6.279   7.066   0.016 -0.0561  0.1632 -0.7184
  567SOL     hw 2266   6.280   7.118   0.097  1.4377  1.2800 -1.3998
  567SOL     hw 2267   6.199   7.093  -0.028 -0.7081 -0.1968  0.2058
  567SOL     vw 2268   6.269   7.077   0.021  0.0551  0.2631 -0.6864
  568SOL     ow 2269   4.814   5.201   4.527 -0.5234 -0.7282 -0.3007
  568SOL     hw 2270   4.747   5.169   4.587 -0.2645  0.2954  0.5564
  568SOL     hw 2271   4.765   5.243   4.457 -0.8283 -1.9780 -0.8704
  568SOL     vw 2272   4.799   5.202   4.526 -0.5295 -0.7584 -0.2627
  569SOL     ow 2273   6.235   4.487   5.032 -0.0729 -0.4130 -0.1991
  569SOL     hw 2274   6.164   4.551   5.044  0.5762  0.4961 -1.0131
  569SOL     hw 2275   6.195   4.403   5.053 -0.7373  0.3278  1.6816
  569SOL     vw 2276   6.220   4.485   5.036 -0.0749 -0.1953 -0.0582
  570SOL     ow 2277   4.664   3.585   0.012  0.0494 -0.4841  0.2075
  570SOL     hw 2278   4.666   3.666   0.062  0.3751  0.4318 -1.2336
  570SOL     hw 2279   4.735   3.595  -0.052  0.8939 -2.4146  0.7480
  570SOL     vw 2280   4.674   3.597   0.010  0.2038 -0.6180  0.0886
  571SOL     ow 2281   7.086   2.081   3.660 -0.3589 -0.1900 -0.1486
  571SOL     hw 2282   7.043   2.024   3.723  0.1405 -0.2600  0.1341
  571SOL     hw 2283   7.066   2.042   3.575 -0.5505 -0.4231  0.0023
  571SOL     vw 2284   7.077   2.068   3.657 -0.3181 -0.2300 -0.0913
  572SOL     ow 2285   3.866   4.865   2.428  0.2887  0.2075  0.5042
  572SOL     hw 2286   3.885   4.937   2.368 -0.3513  0.1501  0.2197
  572SOL     hw 2287   3.898   4.895   2.513  2.0048 -0.0636 -0.0162
  572SOL     vw 2288   3.872   4.879   2.431  0.4307  0.1643  0.3980
  573SOL     ow 2289   1.832   0.643   4.724 -0.1954 -0.5101  0.1620
  573SOL     hw 2290   1.859   0.729   4.692  0.3098 -1.1514 -1.2165
  573SOL     hw 2291   1.838   0.586   4.648 -0.3014 -1.8246  1.0989
  573SOL     vw 2292   1.836   0.647   4.710 -0.1428 -0.7681  0.1035
  574SOL     ow 2293   6.018   4.858   3.031 -0.0540  0.2852 -0.4050
  574SOL     hw 2294   5.979   4.941   3.004  0.4454  0.7027  0.1282
  574SOL     hw 2295   6.107   4.860   2.994  0.6062  0.8202  1.1225
  574SOL     vw 2296   6.025   4.869   3.023  0.0989  0.4108 -0.1330
  575SOL     ow 2297   1.988   6.380   5.567 -0.6450 -0.2957 -0.0632
  575SOL     hw 2298   1.975   6.475   5.567 -2.5680 -0.5086  0.7906
  575SOL     hw 2299   2.065   6.366   5.622 -0.7729  0.7432  0.4001
  575SOL     vw 2300   1.996   6.390   5.574 -0.9156 -0.1867  0.1109
  576SOL     ow 2301   2.009   3.738   1.583 -0.0726 -0.3552  0.3994
  576SOL     hw 2302   1.942   3.670   1.589 -1.9987  1.4339 -0.0099
  576SOL     hw 2303   2.022   3.750   1.489  0.6743 -0.5153  0.4737
  576SOL     vw 2304   2.002   3.730   1.571 -0.2282 -0.1403  0.3552
  577SOL     ow 2305   6.397   0.983   4.031 -0.0196  0.0713  0.5277
  577SOL     hw 2306   6.416   0.957   4.121 -2.1402  0.1041  1.0330
  577SOL     hw 2307   6.467   1.043   4.008  0.2676  0.4958  2.3632
  577SOL     vw 2308   6.409   0.987   4.040 -0.2613  0.1316  0.8366
  578SOL     ow 2309   5.529   6.088   2.921 -0.0831 -0.1859 -0.0531
  578SOL     hw 2310   5.533   6.094   2.826 -0.7067  0.7949 -0.0374
  578SOL     hw 2311   5.593   6.152   2.952 -0.8196  0.4698  0.1671
  578SOL     vw 2312   5.538   6.097   2.913 -0.2625  0.0303 -0.0221
  579SOL     ow 2313   3.017   3.385   2.146  0.4033  0.1029 -0.2132
  579SOL     hw 2314   3.048   3.296   2.162 -1.3320 -0.6291 -0.6972
  579SOL     hw 2315   3.064   3.413   2.067  1.9313  0.1631  0.6662
  579SOL     vw 2316   3.028   3.377   2.138  0.3760  0.0143 -0.1612
  580SOL     ow 2317   2.784   4.848   4.306  0.0192 -0.3256  0.2107
  580SOL     hw 2318   2.791   4.943   4.318  0.5774 -0.4766  1.1826
  580SOL     hw 2319   2.690   4.831   4.307 -0.0616  0.1049  1.0588
  580SOL     vw 2320   2.773   4.858   4.308  0.0823 -0.2890  0.4508
  581SOL     ow 2321   4.794   5.427   6.167 -0.1248  0.3244  1.0299
  581SOL     hw 2322   4.753   5.401   6.085  0.5391  1.4832  0.3017
  581SOL     hw 2323   4.767   5.360   6.230  0.3193 -1.2525 -0.3960
  581SOL     vw 2324   4.785   5.414   6.165  0.0215  0.2694  0.7458
  582SOL     ow 2325   0.171   6.158   6.635 -0.4119  0.1555 -0.7419
  582SOL     hw 2326   0.173   6.069   6.599 -0.9234  0.3114 -1.1611
  582SOL     hw 2327   0.255   6.196   6.609  0.3925 -0.6276  0.5634
  582SOL     vw 2328   0.182   6.151   6.627 -0.3732  0.0727 -0.6249
  583SOL     ow 2329   3.387   1.551   5.401 -0.0962 -0.2489 -0.2280
  583SOL     hw 2330   3.444   1.551   5.478 -0.1592 -0.5132 -0.1802
  583SOL     hw 2331   3.334   1.471   5.410  0.2121 -0.5229 -0.7787
  583SOL     vw 2332   3.387   1.540   5.412 -0.0637 -0.3200 -0.2944
  584SOL     ow 2333   3.948   3.510   0.465  0.4096 -0.2687  0.0424
  584SOL     hw 2334   3.953   3.588   0.411 -1.9653  0.4167  0.7024
  584SOL     hw 2335   3.938   3.438   0.403 -0.7770  0.3416 -0.4973
  584SOL     vw 2336   3.947   3.511   0.450 -0.0604 -0.0976  0.0582
  585SOL     ow 2337   6.713   4.276   1.221  0.8606  0.3059 -0.2277
  585SOL     hw 2338   6.642   4.213   1.207  0.1851  0.9674  0.1813
  585SOL     hw 2339   6.781   4.226   1.266  0.6889 -0.3505 -0.6834
  585SOL     vw 2340   6.713   4.261   1.225  0.7486  0.3064 -0.2338
  586SOL     ow 2341   3.038   6.465   2.009 -0.2917 -0.6168 -0.0253
  586SOL     hw 2342   2.945   6.478   1.991 -0.4431  0.3549  1.3186
  586SOL     hw 2343   3.082   6.496   1.930 -1.0965 -0.9368 -0.6131
  586SOL     vw 2344   3.031   6.471   1.996 -0.4178 -0.5312  0.0744
  587SOL     ow 2345   3.252   5.545   4.659 -0.8373  0.1624 -0.5403
  587SOL     hw 2346   3.342   5.522   4.679 -0.4975  1.2996 -0.6576
  587SOL     hw 2347   3.199   5.486   4.712 -0.0117  0.0237  0.1491
  587SOL     vw 2348   3.257   5.534   4.669 -0.6835  0.2942 -0.4649
  588SOL     ow 2349   3.808   3.085   3.013 -0.3502  0.0384  0.2178
  588SOL     hw 2350   3.831   2.994   2.993  0.0602 -0.2735  1.9649
  588SOL     hw 2351   3.891   3.128   3.032 -0.4732  0.9785 -1.1570
  588SOL     vw 2352   3.822   3.079   3.013 -0.3122  0.1211  0.2669
  589SOL     ow 2353   0.037   4.153   5.631  0.1027  0.5982  0.3849
  589SOL     hw 2354   0.024   4.063   5.659  1.5661  0.1414 -0.2842
  589SOL     hw 2355   0.097   4.146   5.556 -1.7887  1.9333 -1.3629
  589SOL     vw 2356   0.043   4.140   5.625  0.0462  0.7143  0.0660
  590SOL     ow 2357   3.336   0.417   1.955  0.1097  0.3302 -0.5291
  590SOL     hw 2358   3.360   0.471   1.880 -1.4350 -1.2889 -2.2950
  590SOL     hw 2359   3.386   0.453   2.028 -0.0198  3.4104 -1.8334
  590SOL     vw 2360   3.345   0.429   1.955 -0.1111  0.5230 -0.9342
  591SOL     ow 2361   5.902   1.408   1.909  0.6719  0.1055 -0.1661
  591SOL     hw 2362   5.976   1.378   1.856  1.8857  1.4706  0.6862
  591SOL     hw 2363   5.939   1.475   1.966 -1.2168  0.7489  0.3734
  591SOL     vw 2364   5.916   1.413   1.909  0.5829  0.3704  0.0175
  592SOL     ow 2365   2.307   4.964   3.303 -0.1094  0.6817 -0.0634
  592SOL     hw 2366   2.371   5.032   3.323 -0.6123  0.4645  2.6703
  592SOL     hw 2367   2.277   4.985   3.214  1.5684  2.5091 -0.2741
  592SOL     vw 2368   2.312   4.976   3.294  0.0457  0.8943  0.2694
  593SOL     ow 2369   2.895   6.887   6.375  0.1675 -0.2272  0.2949
  593SOL     hw 2370   2.829   6.829   6.413  0.1857 -1.2597 -1.1695
  593SOL     hw 2371   2.954   6.829   6.327  1.6691  0.7660  0.8495
  593SOL     vw 2372   2.894   6.872   6.374  0.3680 -0.2325  0.1748
  594SOL     ow 2373   3.477   4.149   2.146 -0.2157 -0.2536 -0.3639
  594SOL     hw 2374   3.567   4.181   2.151  0.4074 -1.8622 -0.6382
  594SOL     hw 2375   3.486   4.055   2.131 -1.9399 -0.8208  1.6800
  594SOL     vw 2376   3.490   4.141   2.145 -0.3608 -0.5407 -0.1304
  595SOL     ow 2377   2.447   3.392   0.408  0.2069  0.6459  0.7067
  595SOL     hw 2378   2.474   3.327   0.472  1.5266  0.9992  0.5409
  595SOL     hw 2379   2.404   3.461   0.459  0.4615  0.5134  1.0996
  595SOL     vw 2380   2.445   3.393   0.423  0.4147  0.6750  0.7366
  596SOL     ow 2381   6.248   4.277   0.407  0.5524  0.0790 -0.6072
  596SOL     hw 2382   6.316   4.243   0.466 -0.0233 -2.2581 -1.2170
  596SOL     hw 2383   6.177   4.213   0.412 -0.8341  1.4854 -1.4466
  596SOL     vw 2384   6.248   4.264   0.416  0.2937 -0.0439 -0.7984
  597SOL     ow 2385   2.519   1.556   4.424 -0.0918  0.0517  0.1363
  597SOL     hw 2386   2.574   1.583   4.350 -1.0622 -1.4389 -1.1869
  597SOL     hw 2387   2.580   1.519   4.487  0.6109 -0.0578 -0.5907
  597SOL     vw 2388   2.534   1.555   4.422 -0.1272 -0.1594 -0.1342
  598SOL     ow 2389   6.646   5.688   1.294 -0.0572  0.1143  0.1828
  598SOL     hw 2390   6.707   5.736   1.238 -0.3491 -0.0110 -0.2463
  598SOL     hw 2391   6.620   5.613   1.241  2.9816 -2.4806  1.9695
  598SOL     vw 2392   6.651   5.684   1.279  0.3052 -0.2446  0.3619
  599SOL     ow 2393   5.518   3.516   0.699  0.4748  0.4024  0.3814
  599SOL     hw 2394   5.581   3.578   0.735  1.3604 -0.5322  0.4546
  599SOL     hw 2395   5.537   3.513   0.605  1.6243 -1.0751  0.6333
  599SOL     vw 2396   5.529   3.524   0.691  0.7432  0.0842  0.4244
  600SOL     ow 2397   5.342   6.217   0.548  0.0753  0.2184 -0.3080
  600SOL     hw 2398   5.332   6.129   0.510  0.7042 -0.6127  1.3299
  600SOL     hw 2399   5.276   6.220   0.617  2.3028 -0.3944  2.0092
  600SOL     vw 2400   5.332   6.205   0.552  0.4520  0.0281  0.2139
  601SOL     ow 2401   6.876   4.208   3.715  0.0662 -0.3341 -0.3051
  601SOL     hw 2402   6.963   4.186   3.748 -0.3681 -0.1403  1.0143
  601SOL     hw 2403   6.876   4.175   3.625  1.3745 -0.6565 -0.2108
  601SOL     vw 2404   6.888   4.201   3.707  0.1817 -0.3512 -0.1186
  602SOL     ow 2405   1.126   1.707   3.932  0.5856 -0.3547  0.0189
  602SOL     hw 2406   1.186   1.697   4.006  1.7128  1.3213 -0.6264
  602SOL     hw 2407   1.146   1.793   3.896 -1.0288 -0.4827 -1.2957
  602SOL     vw 2408   1.136   1.717   3.937  0.5214 -0.1504 -0.2398
  603SOL     ow 2409   5.236   6.535   5.136 -0.0325  0.2075 -0.4003
  603SOL     hw 2410   5.158   6.544   5.082  1.3918  0.6014 -2.5379
  603SOL     hw 2411   5.222   6.595   5.209 -0.7141  2.1837 -2.0518
  603SOL     vw 2412   5.224   6.544   5.139  0.0656  0.5202 -0.9003
  604SOL     ow 2413   6.632   2.853   3.503 -0.7129  0.1469 -0.1736
  604SOL     hw 2414   6.661   2.803   3.579 -0.9013 -0.7009 -0.6482
  604SOL     hw 2415   6.707   2.908   3.481  1.4514 -3.3505 -2.5479
  604SOL     vw 2416   6.646   2.853   3.510 -0.4523 -0.4264 -0.5494
  605SOL     ow 2417   6.126   6.808   4.412  0.0170 -0.1971  0.5778
  605SOL     hw 2418   6.113   6.788   4.319  0.6741 -0.5571  0.5575
  605SOL     hw 2419   6.221   6.815   4.422  0.1439 -2.6473  1.7216
  605SOL     vw 2420   6.136   6.806   4.401  0.1204 -0.5677  0.7260
  606SOL     ow 2421   2.613   5.788   6.367  0.4443 -0.0623 -0.4561
  606SOL     hw 2422   2.678   5.814   6.432 -1.5743  0.9311  1.3218
  606SOL     hw 2423   2.565   5.869   6.347 -1.2796 -1.0136 -0.3935
  606SOL     vw 2424   2.615   5.802   6.373 -0.0496 -0.0567 -0.2131
  607SOL     ow 2425   1.353   0.049   1.142 -0.6035  0.5271 -0.6055
  607SOL     hw 2426   1.268   0.028   1.181 -0.4422 -0.2225 -0.6469
  607SOL     hw 2427   1.356   0.145   1.141 -1.2738  0.5559 -0.2283
  607SOL     vw 2428   1.343   0.059   1.147 -0.6706  0.4320 -0.5612
  608SOL     ow 2429   0.208   6.695   2.544 -0.0456  0.1938  0.0195
  608SOL     hw 2430   0.168   6.612   2.569  0.1076  0.2885  0.6159
  608SOL     hw 2431   0.201   6.749   2.623 -2.2269  1.5839 -1.0243
  608SOL     vw 2432   0.202   6.691   2.558 -0.3132  0.3898 -0.0395
  609SOL     ow 2433   5.749   6.771   1.254  0.4102  0.6173 -0.3277
  609SOL     hw 2434   5.832   6.797   1.214  1.2066 -0.4790  0.5538
  609SOL     hw 2435   5.762   6.679   1.277 -0.7457  0.6728  0.6109
  609SOL     vw 2436   5.762   6.762   1.252  0.3626  0.4797 -0.0875
  610SOL     ow 2437   6.425   0.835   4.312 -0.2592 -0.1677 -0.4735
  610SOL     hw 2438   6.515   0.842   4.281  0.5957  0.0206  1.8417
  610SOL     hw 2439   6.399   0.745   4.291  1.6666 -1.2992  1.5749
  610SOL     vw 2440   6.433   0.824   4.305  0.1073 -0.2922  0.1023
  611SOL     ow 2441   4.537   1.367   0.113  0.1782 -0.2254 -0.2060
  611SOL     hw 2442   4.461   1.368   0.056  0.0592 -0.4403 -0.0502
  611SOL     hw 2443   4.515   1.306   0.182 -0.0606  0.7402  0.5970
  611SOL     vw 2444   4.524   1.359   0.114  0.1311 -0.1264 -0.0795
  612SOL     ow 2445   2.783   2.740   5.818 -0.0895  0.1377 -0.1071
  612SOL     hw 2446   2.702   2.710   5.861  0.5285 -2.9896 -0.8433
  612SOL     hw 2447   2.825   2.796   5.883 -1.0159 -1.3278  1.8780
  612SOL     vw 2448   2.778   2.743   5.832 -0.1302 -0.4683  0.0577
  613SOL     ow 2449   2.108   6.064   0.813 -0.1431 -0.3849  0.8145
  613SOL     hw 2450   2.065   6.148   0.799 -0.0035 -0.1607  1.6628
  613SOL     hw 2451   2.060   6.024   0.886  0.3298 -0.6552  0.9830
  613SOL     vw 2452   2.096   6.070   0.821 -0.0622 -0.3908  0.9486
  614SOL     ow 2453   1.069   5.749   4.835 -0.3744  0.0005 -0.5972
  614SOL     hw 2454   1.114   5.817   4.784  0.8592 -1.8090 -2.0497
  614SOL     hw 2455   1.039   5.686   4.769 -2.2455 -0.4774  0.6345
  614SOL     vw 2456   1.071   5.750   4.819 -0.4585 -0.3016 -0.6263
  615SOL     ow 2457   6.890   1.010   5.255  0.0527  0.3308 -0.5382
  615SOL     hw 2458   6.948   1.057   5.193  0.0656  0.9348 -0.0780
  615SOL     hw 2459   6.828   1.077   5.284  0.5005  0.2441  0.6642
  615SOL     vw 2460   6.890   1.025   5.250  0.1135  0.3990 -0.3188
  616SOL     ow 2461   6.187   2.378   1.618  0.0216  0.2410 -0.0859
  616SOL     hw 2462   6.142   2.294   1.629  1.2569 -0.3879  0.3898
  616SOL     hw 2463   6.279   2.355   1.602  0.3910  1.4967  0.0757
  616SOL     vw 2464   6.193   2.364   1.618  0.2332  0.3235 -0.0018
  617SOL     ow 2465   6.115   1.591   6.610  0.0244  0.0321  0.4478
  617SOL     hw 2466   6.083   1.520   6.665  0.3495  0.2589  0.9414
  617SOL     hw 2467   6.082   1.670   6.652  0.1862  0.1998  0.2589
  617SOL     vw 2468   6.106   1.592   6.623  0.0885  0.0841  0.4878
  618SOL     ow 2469   1.462   2.863   0.370 -0.0591  0.2008 -0.1103
  618SOL     hw 2470   1.421   2.863   0.456  0.6768 -1.3079  0.2730
  618SOL     hw 2471   1.389   2.855   0.309 -0.4443 -1.2003  0.5011
  618SOL     vw 2472   1.447   2.862   0.373 -0.0128 -0.1832  0.0210
  619SOL     ow 2473   4.817   6.764   2.254  0.5496  0.0646 -0.0138
  619SOL     hw 2474   4.768   6.774   2.336 -1.8054 -0.5928 -1.2623
  619SOL     hw 2475   4.756   6.721   2.194  3.1616 -2.2456 -1.2653
  619SOL     vw 2476   4.802   6.759   2.257  0.5836 -0.3266 -0.3437
  620SOL     ow 2477   0.661   5.204   3.977 -0.3794 -0.0157 -0.9507
  620SOL     hw 2478   0.668   5.294   4.009 -0.6190  0.2105 -1.5218
  620SOL     hw 2479   0.632   5.213   3.886  0.4120 -0.6399 -1.2736
  620SOL     vw 2480   0.658   5.217   3.969 -0.3066 -0.0679 -1.0686
  621SOL     ow 2481   5.464   4.253   0.241  0.3834  0.4075  0.7555
  621SOL     hw 2482   5.497   4.333   0.199  0.6789 -0.1156 -0.0276
  621SOL     hw 2483   5.512   4.248   0.323  0.0339  1.2751  1.0234
  621SOL     vw 2484   5.475   4.263   0.246  0.3762  0.4530  0.6875
  622SOL     ow 2485   4.433   6.382   0.601  0.2390  0.0999 -0.2057
  622SOL     hw 2486   4.408   6.388   0.509  1.3837 -2.8584 -0.8055
  622SOL     hw 2487   4.522   6.416   0.604  0.1689  0.2810 -0.1653
  622SOL     vw 2488   4.441   6.387   0.589  0.3808 -0.2668 -0.2796
  623SOL     ow 2489   2.650   4.050   5.803 -0.8539  0.0743  0.4717
  623SOL     hw 2490   2.649   3.999   5.884 -1.6035  2.7769  2.2916
  623SOL     hw 2491   2.581   4.010   5.749 -0.3621 -1.7596  1.1206
  623SOL     vw 2492   2.641   4.038   5.807 -0.8880  0.1891  0.7975
  624SOL     ow 2493   6.808   5.149   3.864  0.0826 -0.4443  0.4560
  624SOL     hw 2494   6.854   5.193   3.935 -0.5667 -0.8337  1.1337
  624SOL     hw 2495   6.777   5.219   3.807 -0.2565 -0.0703  1.0978
  624SOL     vw 2496   6.810   5.164   3.866 -0.0479 -0.4466  0.6301
  625SOL     ow 2497   0.988   1.877   5.001  1.2202 -1.0321 -0.1832
  625SOL     hw 2498   1.058   1.909   5.058  2.5689 -0.3501 -2.1135
  625SOL     hw 2499   1.014   1.788   4.978  0.8921 -1.1560 -0.0828
  625SOL     vw 2500   1.001   1.870   5.006  1.3549 -0.9585 -0.4244
  626SOL     ow 2501   2.578   3.915   3.739  0.6354 -0.0379 -0.1576
  626SOL     hw 2502   2.484   3.931   3.742  0.3251 -1.8030  2.7866
  626SOL     hw 2503   2.617   4.002   3.735 -1.0445  0.7263 -1.7925
  626SOL     vw 2504   2.571   3.929   3.739  0.3729 -0.1699  0.0151
  627SOL     ow 2505   5.531   6.623   1.081 -0.4455  0.4355  0.2513
  627SOL     hw 2506   5.562   6.710   1.106 -0.3845  0.4631  0.0835
  627SOL     hw 2507   5.443   6.638   1.045 -0.4696  0.4170  0.3026
  627SOL     vw 2508   5.523   6.636   1.079 -0.4408  0.4370  0.2359
  628SOL     ow 2509   6.895   4.133   6.881  0.0376  0.2235  0.1810
  628SOL     hw 2510   6.963   4.104   6.821 -0.1899  2.8047 -1.4445
  628SOL     hw 2511   6.936   4.201   6.934 -0.7944  0.5782  0.3912
  628SOL     vw 2512   6.909   4.138   6.880 -0.1023  0.6111 -0.0060
  629SOL     ow 2513   5.554   0.541   6.665 -0.0089  1.1958  0.0731
  629SOL     hw 2514   5.533   0.621   6.713 -3.6389 -0.5130  1.7843
  629SOL     hw 2515   5.631   0.506   6.709  1.7647  3.7315 -0.8450
  629SOL     vw 2516   5.561   0.547   6.677 -0.2539  1.3049  0.1776
  630SOL     ow 2517   3.002   7.024   1.233  0.3108  0.4360 -0.3821
  630SOL     hw 2518   2.996   6.952   1.171  2.5777 -0.7684  0.6819
  630SOL     hw 2519   2.954   7.096   1.192 -0.5052 -1.1207 -2.2756
  630SOL     vw 2520   2.995   7.024   1.219  0.5022  0.0718 -0.4916
  631SOL     ow 2521   6.033   5.179   0.253 -0.1340  0.0934 -0.3024
  631SOL     hw 2522   6.036   5.256   0.309  2.6515  1.3094 -1.8955
  631SOL     hw 2523   6.011   5.107   0.312  0.3515  1.6371  1.8779
  631SOL     vw 2524   6.031   5.180   0.268  0.2975  0.4573 -0.2249
  632SOL     ow 2525   4.171   6.297   1.845 -0.4003 -0.3701  0.2782
  632SOL     hw 2526   4.173   6.327   1.936  0.5711  0.0815  0.1242
  632SOL     hw 2527   4.165   6.378   1.794 -0.7742 -0.6128 -0.0639
  632SOL     vw 2528   4.170   6.312   1.850 -0.3216 -0.3424  0.2127
  633SOL     ow 2529   4.900   7.052   6.000 -0.1539  0.5363  0.6846
  633SOL     hw 2530   4.932   7.015   6.082 -0.7258  0.7114  0.9896
  633SOL     hw 2531   4.977   7.094   5.962  0.2026  0.1280  0.9453
  633SOL     vw 2532   4.914   7.053   6.006 -0.1826  0.5057  0.7594
  634SOL     ow 2533   1.307   6.043   6.590 -0.1459 -0.5344  0.5149
  634SOL     hw 2534   1.400   6.022   6.585  0.0769 -0.6606  3.2983
  634SOL     hw 2535   1.271   5.981   6.653 -1.8157  0.3978  0.5569
  634SOL     vw 2536   1.314   6.032   6.598 -0.3368 -0.4277  0.8876
  635SOL     ow 2537   4.791   4.601   3.993 -0.2942 -0.4733 -0.2465
  635SOL     hw 2538   4.824   4.528   4.046 -0.1898  0.3238  0.8037
  635SOL     hw 2539   4.870   4.647   3.964 -0.3947  0.5341  0.9883
  635SOL     vw 2540   4.806   4.597   3.996 -0.2940 -0.2351  0.0551
  636SOL     ow 2541   4.695   1.892   5.183 -0.4388 -0.4376 -0.0136
  636SOL     hw 2542   4.752   1.839   5.128  1.3345  1.1445  0.2170
  636SOL     hw 2543   4.738   1.978   5.187 -3.1384  1.0332 -0.3057
  636SOL     vw 2544   4.708   1.896   5.176 -0.5612 -0.0348 -0.0219
  637SOL     ow 2545   1.238   3.513   2.123  1.0724  0.2716  0.5354
  637SOL     hw 2546   1.169   3.576   2.100  1.3395  0.1557 -0.6554
  637SOL     hw 2547   1.304   3.566   2.168  0.8615  0.6604  0.3979
  637SOL     vw 2548   1.237   3.528   2.126  1.0799  0.3078  0.3601
  638SOL     ow 2549   1.468   1.715   5.100  0.3225  0.3913  1.0604
  638SOL     hw 2550   1.507   1.779   5.040 -2.1054  1.3269  0.3683
  638SOL     hw 2551   1.486   1.750   5.187  1.4689  0.4806  0.8126
  638SOL     vw 2552   1.476   1.728   5.103  0.1534  0.5265  0.9365
  639SOL     ow 2553   6.384   0.743   3.230  0.4806  0.4738 -0.3785
  639SOL     hw 2554   6.295   0.730   3.263  1.4464 -2.0476  1.5508
  639SOL     hw 2555   6.412   0.827   3.267 -0.6290  0.6331  0.1193
  639SOL     vw 2556   6.376   0.752   3.239  0.4616  0.1622 -0.0583
  640SOL     ow 2557   4.175   2.023   5.675 -0.1138 -0.2925  0.2706
  640SOL     hw 2558   4.144   1.934   5.662 -1.2539  0.0176  0.7449
  640SOL     hw 2559   4.103   2.068   5.718  1.3370  0.2291  2.3222
  640SOL     vw 2560   4.162   2.017   5.679 -0.0730 -0.1829  0.6037
  641SOL     ow 2561   1.559   1.450   5.103  0.2770  0.0598  0.3934
  641SOL     hw 2562   1.542   1.544   5.093 -0.1616  0.0316  0.8132
  641SOL     hw 2563   1.577   1.419   5.014 -1.7468  0.1304 -0.0752
  641SOL     vw 2564   1.559   1.459   5.090 -0.0479  0.0655  0.3872
  642SOL     ow 2565   0.721   4.614   0.819  0.0659  0.2654  0.1556
  642SOL     hw 2566   0.740   4.652   0.733 -1.0000 -0.3911 -0.3895
  642SOL     hw 2567   0.682   4.529   0.800  0.7754 -0.3470  1.3261
  642SOL     vw 2568   0.718   4.608   0.805  0.0189  0.0980  0.2381
  643SOL     ow 2569   1.104   2.787   2.198 -0.4577  0.3043  0.1573
  643SOL     hw 2570   1.161   2.745   2.133  1.4783  1.9505  0.7054
  643SOL     hw 2571   1.140   2.760   2.283 -0.7557  1.0130  0.5175
  643SOL     vw 2572   1.116   2.778   2.201 -0.2416  0.6151  0.2772
  644SOL     ow 2573   0.471   0.077   5.459  0.1057 -0.3877 -0.2626
  644SOL     hw 2574   0.377   0.077   5.472 -0.0386  0.2269 -1.2153
  644SOL     hw 2575   0.498  -0.014   5.474 -0.5453 -0.4445  0.5783
  644SOL     vw 2576   0.462   0.065   5.462  0.0008 -0.3141 -0.2773
  645SOL     ow 2577   2.917   6.325   3.143 -0.0031 -0.3303  0.9204
  645SOL     hw 2578   3.005   6.363   3.154 -0.4312  0.9151  0.3222
  645SOL     hw 2579   2.861   6.401   3.128 -0.8441 -1.2401 -0.8047
  645SOL     vw 2580   2.921   6.340   3.142 -0.1706 -0.2861  0.6139
  646SOL     ow 2581   1.441   5.400   5.937  0.1995  0.6348  0.3392
  646SOL     hw 2582   1.434   5.398   6.033  0.5660 -0.1840  0.3626
  646SOL     hw 2583   1.433   5.492   5.914 -3.2604  0.6211  0.8783
  646SOL     vw 2584   1.439   5.412   5.947 -0.2087  0.5252  0.4132
  647SOL     ow 2585   5.691   0.071   5.769 -0.8697  0.4891 -0.4209
  647SOL     hw 2586   5.616   0.017   5.742  0.0506 -0.0834 -2.0000
  647SOL     hw 2587   5.681   0.152   5.719  0.1884 -0.0888 -1.6462
  647SOL     vw 2588   5.680   0.074   5.759 -0.6084  0.3373 -0.7911
  648SOL     ow 2589   5.837   5.972   4.539 -0.2229  0.0044  0.1844
  648SOL     hw 2590   5.859   5.880   4.527 -0.7837 -0.5293  2.6174
  648SOL     hw 2591   5.791   5.996   4.459 -1.0654 -2.1710 -0.0647
  648SOL     vw 2592   5.834   5.963   4.527 -0.4079 -0.3531  0.4723
  649SOL     ow 2593   5.056   6.934   0.949 -0.0018  0.3990  0.8760
  649SOL     hw 2594   4.993   6.862   0.940  0.8161 -0.4259  1.6088
  649SOL     hw 2595   5.118   6.904   1.015  1.4793  0.9780 -0.2064
  649SOL     vw 2596   5.056   6.921   0.956  0.3016  0.3664  0.8299
  650SOL     ow 2597   5.982   3.554   0.628  0.3945  0.5305  0.2287
  650SOL     hw 2598   5.905   3.505   0.599  0.4930  0.3445  0.2801
  650SOL     hw 2599   5.996   3.525   0.718 -2.7238  4.4918  2.3281
  650SOL     vw 2600   5.973   3.543   0.636 -0.0041  1.0287  0.5125
  651SOL     ow 2601   6.965   1.659   6.068  0.3987 -0.3140 -0.4108
  651SOL     hw 2602   7.032   1.694   6.127  0.7371 -0.8660 -0.4644
  651SOL     hw 2603   7.012   1.641   5.986  0.3645 -1.4708 -0.1862
  651SOL     vw 2604   6.980   1.662   6.065  0.4387 -0.5394 -0.3881
  652SOL     ow 2605   3.373   1.615   2.770 -0.9412 -0.5757 -0.1992
  652SOL     hw 2606   3.345   1.523   2.761 -0.3068 -0.8076  0.1404
  652SOL     hw 2607   3.292   1.662   2.790 -1.0544 -1.2799  1.0633
  652SOL     vw 2608   3.359   1.609   2.771 -0.8725 -0.6991  0.0120
  653SOL     ow 2609   0.389   5.437   2.903  0.4736  0.2479  0.4716
  653SOL     hw 2610   0.403   5.355   2.951  1.4651  0.6622  0.9118
  653SOL     hw 2611   0.433   5.424   2.820  1.3818  0.6383  0.8801
  653SOL     vw 2612   0.396   5.424   2.898  0.7243  0.3541  0.5836
  654SOL     ow 2613   1.417   2.811   5.028 -0.6367  0.8092 -0.5643
  654SOL     hw 2614   1.348   2.768   5.079  0.2277 -1.1540 -0.9627
  654SOL     hw 2615   1.431   2.894   5.073 -2.8649  1.0420 -0.1541
  654SOL     vw 2616   1.410   2.816   5.041 -0.8166  0.5810 -0.5629
  655SOL     ow 2617   1.316   5.653   4.824  0.3821 -0.1426  0.2456
  655SOL     hw 2618   1.221   5.668   4.831  0.4180 -0.0791  0.6386
  655SOL     hw 2619   1.352   5.690   4.905  0.6480 -0.9420  0.5086
  655SOL     vw 2620   1.308   5.660   4.836  0.4219 -0.2398  0.3321
  656SOL     ow 2621   0.723   4.629   1.128 -0.4415  0.3770 -0.2688
  656SOL     hw 2622   0.733   4.627   1.223  0.2227  2.2300 -0.2694
  656SOL     hw 2623   0.651   4.690   1.112 -1.5553 -1.0296 -0.9431
  656SOL     vw 2624   0.715   4.637   1.138 -0.5009  0.4358 -0.3579
  657SOL     ow 2625   1.484   7.094   3.977  0.2875  0.2355  0.5198
  657SOL     hw 2626   1.488   7.002   4.006 -0.4135  0.0031 -0.0785
  657SOL     hw 2627   1.409   7.130   4.024 -1.5635 -0.4477 -1.7355
  657SOL     vw 2628   1.475   7.086   3.987 -0.0491  0.1147  0.1433
  658SOL     ow 2629   6.711   4.305   2.603 -0.6584 -0.0011 -0.1677
  658SOL     hw 2630   6.754   4.237   2.655 -0.6255  0.2834  0.1817
  658SOL     hw 2631   6.683   4.370   2.668 -0.3500  0.5034 -0.5370
  658SOL     vw 2632   6.713   4.304   2.619 -0.6132  0.1030 -0.1702
  659SOL     ow 2633   5.903   5.884   5.599 -0.4504 -0.8451 -0.0718
  659SOL     hw 2634   5.891   5.928   5.515 -2.2950 -0.4482  0.3693
  659SOL     hw 2635   5.875   5.794   5.583 -0.4374 -0.8674  0.0291
  659SOL     vw 2636   5.898   5.878   5.586 -0.6919 -0.7961 -0.0002
  660SOL     ow 2637   6.880   4.413   3.917 -0.6609 -0.5450 -0.1104
  660SOL     hw 2638   6.933   4.459   3.982 -0.5532 -2.5820  1.3605
  660SOL     hw 2639   6.845   4.482   3.861  0.8692  1.1338  0.8881
  660SOL     vw 2640   6.882   4.428   3.918 -0.4449 -0.5920  0.2154
  661SOL     ow 2641   0.749   0.137   5.363  0.1552 -0.1651 -0.5154
  661SOL     hw 2642   0.826   0.081   5.349 -1.0060 -2.3876  1.3772
  661SOL     hw 2643   0.776   0.197   5.433  0.7042  0.2688 -1.0824
  661SOL     vw 2644   0.763   0.137   5.371  0.0744 -0.4011 -0.3405
  662SOL     ow 2645   5.588   3.649   4.330 -0.6524 -0.0631  0.0356
  662SOL     hw 2646   5.582   3.741   4.358  1.9568 -0.1985  1.3684
  662SOL     hw 2647   5.513   3.607   4.372 -2.6365  1.5961 -1.5973
  662SOL     vw 2648   5.577   3.656   4.339 -0.5701  0.1379 -0.0041
  663SOL     ow 2649   6.191   2.984   2.092 -0.2291 -0.6836 -0.2925
  663SOL     hw 2650   6.249   3.030   2.031 -1.1067  0.1506 -0.5100
  663SOL     hw 2651   6.141   2.924   2.036 -0.0373 -0.9433 -0.1900
  663SOL     vw 2652   6.192   2.982   2.076 -0.3197 -0.6076 -0.3078
  664SOL     ow 2653   1.914   3.927   5.595  0.3826 -0.1391  0.1145
  664SOL     hw 2654   1.857   3.980   5.651  2.2958  1.0074  1.0752
  664SOL     hw 2655   2.002   3.955   5.618  1.4101 -2.5813 -0.5612
  664SOL     vw 2656   1.918   3.937   5.606  0.7705 -0.3101  0.1523
  665SOL     ow 2657   1.439   0.115   3.349 -0.1158 -0.0460 -0.5129
  665SOL     hw 2658   1.432   0.040   3.407 -2.3945  1.1829  0.9326
  665SOL     hw 2659   1.407   0.083   3.264  0.4367 -1.0823 -0.3468
  665SOL     vw 2660   1.434   0.101   3.345 -0.3436 -0.0206 -0.3003
  666SOL     ow 2661   2.300   6.111   1.115  0.1772 -0.0617 -0.0443
  666SOL     hw 2662   2.323   6.030   1.161  0.2851  0.2758  0.4948
  666SOL     hw 2663   2.214   6.134   1.148  0.4533  0.4359  0.3549
  666SOL     vw 2664   2.292   6.103   1.125  0.2278  0.0484  0.0795
  667SOL     ow 2665   0.796   4.492   6.780 -0.5457 -0.3047 -0.2540
  667SOL     hw 2666   0.746   4.566   6.746  0.1857 -1.2757 -3.7352
  667SOL     hw 2667   0.883   4.502   6.742  0.2999 -1.6964  1.1916
  667SOL     vw 2668   0.801   4.503   6.771 -0.3377 -0.6161 -0.5226
  668SOL     ow 2669   1.377   5.439   4.541  0.2452 -0.1788  0.3104
  668SOL     hw 2670   1.409   5.355   4.509 -1.4707 -0.6201 -0.3881
  668SOL     hw 2671   1.426   5.504   4.491 -0.7180 -0.8336 -1.5805
  668SOL     vw 2672   1.388   5.436   4.531 -0.1082 -0.3235 -0.0315
  669SOL     ow 2673   1.235   4.188   3.116 -0.0576 -0.2205  0.3512
  669SOL     hw 2674   1.324   4.170   3.087  0.7808  2.1157  1.2315
  669SOL     hw 2675   1.181   4.126   3.068  2.1207 -2.5461  0.6909
  669SOL     vw 2676   1.240   4.178   3.106  0.3405 -0.2189  0.5122
  670SOL     ow 2677   1.322   3.609   6.267  0.7151 -0.7112  0.1567
  670SOL     hw 2678   1.244   3.594   6.321 -0.7906  0.8420 -1.4718
  670SOL     hw 2679   1.364   3.523   6.263 -0.0454 -1.2639  2.2993
  670SOL     vw 2680   1.317   3.595   6.274  0.4161 -0.5791  0.2246
  671SOL     ow 2681   1.916   6.115   5.424  0.0422  0.1639  0.8169
  671SOL     hw 2682   1.855   6.042   5.411  1.5759 -1.1187  0.4692
  671SOL     hw 2683   1.989   6.095   5.366  1.5967  0.6820  2.5022
  671SOL     vw 2684   1.918   6.103   5.415  0.4496  0.0629  0.9937
  672SOL     ow 2685   3.663   6.837   5.829 -0.2055 -0.1566 -0.7650
  672SOL     hw 2686   3.740   6.803   5.783 -1.0154 -0.5959 -1.8318
  672SOL     hw 2687   3.589   6.812   5.774 -1.0177  1.4584 -0.4454
  672SOL     vw 2688   3.664   6.829   5.816 -0.4194 -0.0014 -0.8636
  673SOL     ow 2689   5.900   5.349   4.485  0.1015 -0.8581 -0.0866
  673SOL     hw 2690   5.837   5.394   4.429  1.1921 -0.4800 -1.0375
  673SOL     hw 2691   5.981   5.347   4.434  1.1495 -0.4495  1.4725
  673SOL     vw 2692   5.902   5.355   4.471  0.3836 -0.7544 -0.0067
  674SOL     ow 2693   1.419   3.317   1.966 -0.1519 -0.2659 -0.7815
  674SOL     hw 2694   1.478   3.375   2.014 -0.0798 -0.1339 -1.0321
  674SOL     hw 2695   1.432   3.339   1.874  1.1788 -1.8952 -1.0230
  674SOL     vw 2696   1.428   3.327   1.961  0.0332 -0.4634 -0.8464
  675SOL     ow 2697   4.399   4.673   1.130 -0.3437 -0.1178  0.8428
  675SOL     hw 2698   4.479   4.628   1.103 -0.5388 -0.3663  0.6776
  675SOL     hw 2699   4.407   4.760   1.092  0.0440 -0.0015  1.1794
  675SOL     vw 2700   4.411   4.678   1.122 -0.3183 -0.1354  0.8655
  676SOL     ow 2701   0.787   0.951   3.102 -0.2647 -0.3404  0.4738
  676SOL     hw 2702   0.751   0.862   3.096 -0.1851 -0.2888 -1.0394
  676SOL     hw 2703   0.713   1.008   3.084  0.1630 -0.1821 -0.8667
  676SOL     vw 2704   0.772   0.947   3.099 -0.1978 -0.3127  0.0974
  677SOL     ow 2705   0.317   0.458   3.429  0.3402  0.2084 -0.5913
  677SOL     hw 2706   0.386   0.416   3.376  2.2026  0.7381  1.2699
  677SOL     hw 2707   0.259   0.386   3.453  2.0023 -0.8948  0.3496
  677SOL     vw 2708   0.319   0.443   3.425  0.8052  0.1327 -0.2215
  678SOL     ow 2709   5.425   6.553   2.534  0.0711  0.2316  0.1729
  678SOL     hw 2710   5.375   6.583   2.609 -2.2108  1.2721 -1.6440
  678SOL     hw 2711   5.506   6.604   2.536 -0.2621  0.7285  1.5085
  678SOL     vw 2712   5.429   6.564   2.544 -0.2742  0.4346  0.1094
  679SOL     ow 2713   2.108   0.719   2.073  0.1629 -0.1403 -0.1795
  679SOL     hw 2714   2.192   0.743   2.112 -0.2532  2.1801 -0.5363
  679SOL     hw 2715   2.056   0.685   2.145  1.6855 -2.6217 -0.1378
  679SOL     vw 2716   2.113   0.718   2.087  0.3089 -0.1616 -0.2210
  680SOL     ow 2717   4.849   6.125   0.804 -0.0682 -0.1714  0.4423
  680SOL     hw 2718   4.766   6.080   0.819  0.2922 -1.0452 -0.0539
  680SOL     hw 2719   4.858   6.186   0.877 -1.6259  0.6676 -0.0366
  680SOL     vw 2720   4.840   6.127   0.815 -0.2260 -0.1762  0.3137
  681SOL     ow 2721   1.319   0.363   6.329  0.6966 -0.2875  0.2404
  681SOL     hw 2722   1.265   0.409   6.393 -1.7042 -0.3426 -1.5820
  681SOL     hw 2723   1.391   0.327   6.379 -1.1710 -0.5470  2.9538
  681SOL     vw 2724   1.321   0.365   6.344  0.1335 -0.3290  0.3579
  682SOL     ow 2725   5.596   3.621   1.181  0.5073  0.1780  0.1404
  682SOL     hw 2726   5.512   3.667   1.184  0.3770 -0.0091 -0.5272
  682SOL     hw 2727   5.636   3.638   1.267 -0.4180 -0.1240  0.6470
  682SOL     vw 2728   5.590   3.629   1.193  0.3679  0.1136  0.1191
  683SOL     ow 2729   6.204   2.854   0.053  0.2863 -0.1290  0.3285
  683SOL     hw 2730   6.149   2.932   0.056 -0.7827 -0.7342 -1.6934
  683SOL     hw 2731   6.258   2.865  -0.024  1.1794 -0.7370  0.8485
  683SOL     vw 2732   6.204   2.865   0.044  0.2630 -0.2892  0.1303
  684SOL     ow 2733   3.252   6.703   1.542  0.2946  0.3681  0.1671
  684SOL     hw 2734   3.262   6.676   1.451  0.7292  1.2215 -0.0527
  684SOL     hw 2735   3.180   6.650   1.575  1.5480 -1.5392 -0.0144
  684SOL     vw 2736   3.244   6.693   1.534  0.5174  0.2289  0.1141
  685SOL     ow 2737   0.144   1.273   6.265  0.5347 -0.7410  0.2902
  685SOL     hw 2738   0.176   1.326   6.192  1.7993 -1.1465  0.5217
  685SOL     hw 2739   0.223   1.237   6.305 -0.1644 -0.9379  1.5542
  685SOL     vw 2740   0.159   1.275   6.261  0.6093 -0.8205  0.4873
  686SOL     ow 2741   4.976   1.739   1.190 -0.1845  0.8280  0.0988
  686SOL     hw 2742   4.994   1.799   1.118 -1.1258 -0.0129 -0.8573
  686SOL     hw 2743   5.051   1.750   1.249  2.7788 -1.3406 -2.8653
  686SOL     vw 2744   4.989   1.749   1.189  0.0825  0.4309 -0.4184
  687SOL     ow 2745   4.230   7.085   6.123  0.8013 -0.3565  0.3200
  687SOL     hw 2746   4.208   7.163   6.073  0.1596  0.8747  2.3783
  687SOL     hw 2747   4.175   7.016   6.085 -1.1974  0.9939  0.5688
  687SOL     vw 2748   4.220   7.086   6.112  0.4530 -0.0160  0.6242
  688SOL     ow 2749   1.894   1.841   0.324 -0.5728  0.2530 -0.5030
  688SOL     hw 2750   1.985   1.852   0.300 -0.2502 -1.0860 -0.0168
  688SOL     hw 2751   1.849   1.916   0.286  1.0296  2.0974  1.0518
  688SOL     vw 2752   1.900   1.852   0.316 -0.3189  0.3197 -0.2338
  689SOL     ow 2753   6.334   0.933   3.722  0.6376  0.6002 -0.1743
  689SOL     hw 2754   6.397   0.860   3.723  0.4779  0.4636  0.1373
  689SOL     hw 2755   6.360   0.986   3.647  0.4347 -0.0589 -0.7107
  689SOL     vw 2756   6.346   0.930   3.713  0.5901  0.4952 -0.2038
  690SOL     ow 2757   6.625   3.537   4.319  0.0408 -1.1460 -0.0384
  690SOL     hw 2758   6.657   3.621   4.286 -0.8006 -0.9753 -0.4504
  690SOL     hw 2759   6.685   3.473   4.283 -0.3751 -0.8802 -1.2354
  690SOL     vw 2760   6.637   3.540   4.310 -0.1256 -1.0884 -0.2508
  691SOL     ow 2761   5.938   1.966   1.990 -0.4707 -0.1235 -0.1272
  691SOL     hw 2762   5.977   1.879   1.997  0.8154  0.5434  3.8719
  691SOL     hw 2763   6.012   2.024   1.971 -0.6379  0.4139  0.7700
  691SOL     vw 2764   5.953   1.963   1.988 -0.3228  0.0353  0.5189
  692SOL     ow 2765   1.843   4.328   0.216 -0.9334  0.1984 -0.0970
  692SOL     hw 2766   1.898   4.330   0.137 -0.3271 -1.8331  0.2162
  692SOL     hw 2767   1.754   4.319   0.183 -0.7433 -0.0206 -0.5695
  692SOL     vw 2768   1.839   4.327   0.201 -0.8283 -0.0985 -0.1180
  693SOL     ow 2769   2.550   5.121   3.144 -0.1634  0.3078 -0.1075
  693SOL     hw 2770   2.600   5.200   3.166  0.6742 -0.2361 -0.0102
  693SOL     hw 2771   2.484   5.151   3.081  1.6373  0.6740 -1.9049
  693SOL     vw 2772   2.548   5.136   3.138  0.1847  0.2844 -0.3318
  694SOL     ow 2773   4.218   5.680   6.583 -0.5104  0.6633  0.1698
  694SOL     hw 2774   4.205   5.737   6.508  1.0084 -1.3413 -1.7281
  694SOL     hw 2775   4.313   5.678   6.596 -0.5748 -0.9503  0.5591
  694SOL     vw 2776   4.229   5.688   6.575 -0.3185  0.1860 -0.0296
  695SOL     ow 2777   6.991   0.356   2.218 -0.3944 -0.8094  0.6191
  695SOL     hw 2778   6.903   0.372   2.186 -0.6039 -0.1276  1.4955
  695SOL     hw 2779   7.047   0.365   2.141 -1.0506 -0.8755  0.1288
  695SOL     vw 2780   6.987   0.359   2.204 -0.5083 -0.7282  0.6701
  696SOL     ow 2781   3.733   2.559   4.624 -0.9541 -0.3865  0.3830
  696SOL     hw 2782   3.775   2.553   4.710 -0.1299  0.3514  0.0429
  696SOL     hw 2783   3.661   2.621   4.636  0.1934  1.0436  0.1702
  696SOL     vw 2784   3.729   2.566   4.637 -0.6939 -0.1004  0.3102
  697SOL     ow 2785   4.696   1.070   4.204  1.1842  0.3089 -0.2542
  697SOL     hw 2786   4.733   1.157   4.216  1.2128  0.2771 -0.1187
  697SOL     hw 2787   4.698   1.030   4.290  2.2383 -0.2568 -0.5302
  697SOL     vw 2788   4.701   1.076   4.217  1.3270  0.2301 -0.2728
  698SOL     ow 2789   4.491   3.068   5.534 -0.2579 -0.0892 -0.2182
  698SOL     hw 2790   4.513   3.088   5.444  1.7903 -0.4591  0.1363
  698SOL     hw 2791   4.483   2.972   5.536  1.8400 -0.3254  0.3204
  698SOL     vw 2792   4.493   3.058   5.523  0.2892 -0.1692 -0.1001
  699SOL     ow 2793   5.005   5.160   5.296  0.1318 -0.1586 -0.7704
  699SOL     hw 2794   5.018   5.117   5.381 -0.1143  0.6030 -0.3413
  699SOL     hw 2795   5.061   5.110   5.236 -1.0411 -1.8266 -0.5442
  699SOL     vw 2796   5.014   5.148   5.300 -0.0553 -0.2782 -0.6835
  700SOL     ow 2797   3.699   3.698   3.531  0.2178 -0.3710 -0.4654
  700SOL     hw 2798   3.788   3.664   3.542  0.4149  0.3417  0.3040
  700SOL     hw 2799   3.710   3.793   3.532 -0.2103 -0.2110 -3.4066
  700SOL     vw 2800   3.713   3.706   3.533  0.1873 -0.2557 -0.7520
  701SOL     ow 2801   0.376   2.397   0.574  0.2774  0.2867  0.1750
  701SOL     hw 2802   0.407   2.420   0.486  0.9087  1.3857  0.6657
  701SOL     hw 2803   0.449   2.348   0.612 -0.3116 -0.9040 -0.1796
  701SOL     vw 2804   0.390   2.393   0.567  0.2830  0.2747  0.1929
  702SOL     ow 2805   3.291   4.507   5.425  0.3522 -0.1976 -0.1071
  702SOL     hw 2806   3.221   4.542   5.371 -0.2537  0.6849  1.2069
  702SOL     hw 2807   3.267   4.531   5.515  0.6829 -2.6852  0.7143
  702SOL     vw 2808   3.279   4.515   5.430  0.3159 -0.4096  0.1743
  703SOL     ow 2809   4.205   5.263   1.868  0.6437  0.0276 -0.1072
  703SOL     hw 2810   4.293   5.227   1.879  0.7740  0.8665  2.2845
  703SOL     hw 2811   4.161   5.243   1.951 -1.0453  0.6585 -0.8109
  703SOL     vw 2812   4.211   5.255   1.881  0.4380  0.2213  0.1156
  704SOL     ow 2813   4.216   1.038   0.294 -0.5579 -0.2260 -0.3019
  704SOL     hw 2814   4.296   1.088   0.281 -1.2561  1.1678  0.5418
  704SOL     hw 2815   4.172   1.081   0.368 -1.7512 -1.3711 -0.3075
  704SOL     vw 2816   4.221   1.050   0.302 -0.8075 -0.1932 -0.1913
  705SOL     ow 2817   6.150   4.061   0.541 -0.0318  0.3135 -0.4406
  705SOL     hw 2818   6.095   4.085   0.615 -0.5724 -2.0108 -0.0075
  705SOL     hw 2819   6.239   4.073   0.573 -0.2651 -0.2476  0.4674
  705SOL     vw 2820   6.155   4.066   0.555 -0.1338 -0.0670 -0.2637
  706SOL     ow 2821   2.833   4.203   6.698 -0.1088  0.1089  0.2697
  706SOL     hw 2822   2.795   4.227   6.783  0.9367 -0.2361  0.8532
  706SOL     hw 2823   2.830   4.284   6.648 -0.8476  0.2906  0.5791
  706SOL     vw 2824   2.827   4.217   6.703 -0.0683  0.0873  0.3874
  707SOL     ow 2825   5.990   2.575   1.755 -0.1500 -0.2958 -0.5194
  707SOL     hw 2826   5.973   2.657   1.709 -2.9053 -0.2928  0.3623
  707SOL     hw 2827   5.967   2.592   1.846 -1.0059 -2.0675 -0.3524
  707SOL     vw 2828   5.985   2.588   1.761 -0.6266 -0.5291 -0.3811
  708SOL     ow 2829   5.393   0.389   0.879 -0.3201  0.4074  0.3406
  708SOL     hw 2830   5.441   0.306   0.880 -2.4466 -0.9562  3.1004
  708SOL     hw 2831   5.453   0.451   0.920  1.7351  0.6971 -2.7437
  708SOL     vw 2832   5.407   0.386   0.885 -0.3295  0.2657  0.2978
  709SOL     ow 2833   2.327   6.956   0.656 -0.0867  0.1905  0.1969
  709SOL     hw 2834   2.312   6.943   0.563 -0.3312  0.1037  0.2492
  709SOL     hw 2835   2.239   6.961   0.695 -0.2357  4.4210 -0.1395
  709SOL     vw 2836   2.313   6.955   0.649 -0.1386  0.7372  0.1594
  710SOL     ow 2837   6.497   2.851   0.593  0.1746 -0.0680 -0.4016
  710SOL     hw 2838   6.567   2.873   0.654 -0.7471  2.5089 -0.1145
  710SOL     hw 2839   6.508   2.914   0.521 -0.7325 -0.8827 -1.2905
  710SOL     vw 2840   6.508   2.862   0.591 -0.0668  0.1645 -0.4810
  711SOL     ow 2841   0.009   4.696   1.947 -0.0669 -0.0237  0.6092
  711SOL     hw 2842  -0.043   4.776   1.943  0.6681  0.4333 -0.3552
  711SOL     hw 2843  -0.044   4.631   1.901  0.9840  0.9400 -2.1946
  711SOL     vw 2844  -0.005   4.698   1.941  0.1687  0.1636  0.1121
  712SOL     ow 2845   3.385   0.956   1.436 -0.0616  0.0083  0.4609
  712SOL     hw 2846   3.390   0.881   1.378 -1.3095  0.5052 -0.3192
  712SOL     hw 2847   3.451   1.017   1.402  1.1904 -0.8353  1.2985
  712SOL     vw 2848   3.395   0.954   1.424 -0.0609 -0.0375  0.4685
  713SOL     ow 2849   0.206   6.173   3.462 -0.2310  0.2495 -0.3344
  713SOL     hw 2850   0.196   6.242   3.528 -1.7546 -0.1365 -0.1252
  713SOL     hw 2851   0.197   6.091   3.511  0.1331 -0.0723 -0.7974
  713SOL     vw 2852   0.203   6.171   3.477 -0.3840  0.1564 -0.3678
  714SOL     ow 2853   1.575   1.158   4.413 -0.6879 -0.0935  0.2250
  714SOL     hw 2854   1.670   1.164   4.424 -0.6171 -0.3155 -0.2204
  714SOL     hw 2855   1.544   1.248   4.423 -0.4793 -0.0753  0.7623
  714SOL     vw 2856   1.584   1.171   4.416 -0.6510 -0.1203  0.2370
  715SOL     ow 2857   3.796   7.004   5.051 -0.5367 -0.3904  0.0810
  715SOL     hw 2858   3.716   7.034   5.093 -0.1247 -0.8991  1.2543
  715SOL     hw 2859   3.860   7.073   5.068 -0.6863 -0.0013 -0.8249
  715SOL     vw 2860   3.794   7.017   5.059 -0.5022 -0.4063  0.1166
  716SOL     ow 2861   1.671   4.740   2.249 -0.2028 -0.1955  0.3507
  716SOL     hw 2862   1.625   4.657   2.234 -0.0750 -0.0691 -0.8373
  716SOL     hw 2863   1.607   4.794   2.296 -0.7095 -0.5744  0.1132
  716SOL     vw 2864   1.656   4.736   2.253 -0.2527 -0.2289  0.1626
  717SOL     ow 2865   5.198   4.785   2.941  0.1950  0.2177 -0.1914
  717SOL     hw 2866   5.185   4.820   3.029 -2.8059 -1.4216  0.1468
  717SOL     hw 2867   5.140   4.838   2.886  0.5419 -0.0468 -0.8211
  717SOL     vw 2868   5.188   4.797   2.945 -0.1550 -0.0334 -0.2300
  718SOL     ow 2869   4.323   2.092   6.742 -0.1215 -0.1378  0.5900
  718SOL     hw 2870   4.374   2.028   6.691  1.5584  2.1774 -0.8190
  718SOL     hw 2871   4.386   2.126   6.805 -0.5753  1.1016  0.3897
  718SOL     vw 2872   4.338   2.088   6.743  0.0401  0.3313  0.3777
  719SOL     ow 2873   3.612   4.280   4.626  0.5564 -0.1429  0.5969
  719SOL     hw 2874   3.610   4.354   4.565 -0.3124  0.4516  1.3114
  719SOL     hw 2875   3.524   4.243   4.622  1.4290 -2.3076 -1.0683
  719SOL     vw 2876   3.600   4.285   4.618  0.5571 -0.3500  0.4714
  720SOL     ow 2877   6.750   2.135   3.414 -0.2436 -0.3683  0.2227
  720SOL     hw 2878   6.835   2.092   3.424  0.3119  0.4658 -0.7627
  720SOL     hw 2879   6.687   2.064   3.415  0.7044 -1.3254 -2.1076
  720SOL     vw 2880   6.753   2.120   3.416 -0.0453 -0.3844 -0.2148
  721SOL     ow 2881   2.240   0.576   3.000 -0.6808  0.3583 -0.3006
  721SOL     hw 2882   2.329   0.589   2.966 -1.0073  1.5506 -0.7174
  721SOL     hw 2883   2.250   0.583   3.095 -0.1165 -0.9087 -0.2385
  721SOL     vw 2884   2.253   0.578   3.008 -0.6496  0.3484 -0.3474
  722SOL     ow 2885   3.338   6.420   0.497  0.2209 -0.2766 -0.3290
  722SOL     hw 2886   3.295   6.371   0.568 -1.0033  2.0748  0.6534
  722SOL     hw 2887   3.384   6.491   0.542 -0.1662  0.9711 -1.8443
  722SOL     vw 2888   3.338   6.423   0.512  0.0083  0.1984 -0.3993
  723SOL     ow 2889   5.436   6.134   0.969  0.4952 -0.6248  0.1626
  723SOL     hw 2890   5.488   6.206   0.933 -0.0727  0.2154  0.9843
  723SOL     hw 2891   5.350   6.173   0.987  0.4283 -1.2972  1.3672
  723SOL     vw 2892   5.432   6.149   0.966  0.4117 -0.6025  0.4300
  724SOL     ow 2893   5.297   0.042   0.160 -0.3963 -0.7176 -0.2203
  724SOL     hw 2894   5.333   0.043   0.249  1.0659  0.2885 -0.7814
  724SOL     hw 2895   5.210   0.080   0.168  0.0702  0.2018  0.6539
  724SOL     vw 2896   5.290   0.047   0.173 -0.1419 -0.4635 -0.1790
  725SOL     ow 2897   0.899   1.537   3.973 -0.4044  0.2637 -0.2651
  725SOL     hw 2898   0.836   1.465   3.969 -1.5482  1.2553 -1.2889
  725SOL     hw 2899   0.929   1.538   4.063 -2.5488  0.2794  0.5185
  725SOL     vw 2900   0.894   1.527   3.984 -0.8382  0.3966 -0.2967
  726SOL     ow 2901   5.095   0.386   0.128 -0.1248 -0.1560  0.2143
  726SOL     hw 2902   5.065   0.310   0.079 -0.0632  1.1314 -2.0092
  726SOL     hw 2903   5.189   0.372   0.139  0.0438 -0.0508 -0.9430
  726SOL     vw 2904   5.103   0.374   0.123 -0.0944  0.0277 -0.2317
  727SOL     ow 2905   0.526   1.536   4.508  0.5765 -0.2927  0.4554
  727SOL     hw 2906   0.561   1.598   4.572 -0.1438 -0.7936  1.3657
  727SOL     hw 2907   0.447   1.501   4.549 -2.4298  2.4646 -2.3923
  727SOL     vw 2908   0.520   1.539   4.522  0.0848  0.0050  0.1996
  728SOL     ow 2909   2.027   5.427   4.740  0.2448  0.3975  0.4018
  728SOL     hw 2910   1.966   5.353   4.742  0.0189  0.5711  0.0630
  728SOL     hw 2911   2.079   5.417   4.819 -0.5564  0.5254  0.9621
  728SOL     vw 2912   2.026   5.416   4.751  0.1093  0.4373  0.4308
  729SOL     ow 2913   5.421   3.126   3.315  0.7976  0.3726 -0.2421
  729SOL     hw 2914   5.349   3.128   3.378  0.1512  2.8752 -0.9293
  729SOL     hw 2915   5.382   3.090   3.235  0.8832 -0.2177 -0.0230
  729SOL     vw 2916   5.406   3.122   3.313  0.7236  0.6248 -0.3041
  730SOL     ow 2917   2.792   0.494   6.179  0.4771  0.3847  0.9147
  730SOL     hw 2918   2.805   0.524   6.089  0.5878  0.2637  0.8906
  730SOL     hw 2919   2.742   0.565   6.220  2.0197  1.3204  1.2817
  730SOL     vw 2920   2.787   0.508   6.172  0.6952  0.4922  0.9601
  731SOL     ow 2921   3.983   3.052   5.262  0.2237  0.5177  0.6062
  731SOL     hw 2922   4.047   2.993   5.301 -0.8796  0.5298  2.5821
  731SOL     hw 2923   4.028   3.136   5.255  0.6546  0.3459  1.2663
  731SOL     vw 2924   3.997   3.056   5.266  0.1351  0.4966  0.9539
  732SOL     ow 2925   6.837   0.788   0.921 -0.0176  0.0513 -0.1543
  732SOL     hw 2926   6.769   0.772   0.986  0.5164  0.3140  0.4902
  732SOL     hw 2927   6.798   0.849   0.859 -0.2093  0.5869  0.4847
  732SOL     vw 2928   6.823   0.794   0.921  0.0277  0.1566  0.0151
  733SOL     ow 2929   2.085   4.035   5.067  0.6472  0.1302 -0.4806
  733SOL     hw 2930   2.022   4.045   5.139  1.1799  1.3463 -0.1518
  733SOL     hw 2931   2.036   4.061   4.989  0.4904  0.2283 -0.3493
  733SOL     vw 2932   2.070   4.040   5.066  0.6968  0.3035 -0.4199
  734SOL     ow 2933   1.080   6.321   5.646  0.4393  0.3829  1.0220
  734SOL     hw 2934   1.064   6.415   5.643  2.3346  0.7712  1.6217
  734SOL     hw 2935   1.091   6.295   5.555 -0.4158  0.6587  0.8311
  734SOL     vw 2936   1.079   6.330   5.634  0.5766  0.4704  1.0757
  735SOL     ow 2937   3.920   1.820   3.950 -0.4137  0.1279  0.2805
  735SOL     hw 2938   3.891   1.857   3.867  0.2131 -0.6251 -0.2872
  735SOL     hw 2939   3.853   1.756   3.972  0.1817 -0.7656 -0.4337
  735SOL     vw 2940   3.907   1.816   3.942 -0.2526 -0.0892  0.1115
  736SOL     ow 2941   4.467   5.614   6.731 -0.1925 -0.3330 -0.3147
  736SOL     hw 2942   4.552   5.608   6.775  0.2111 -0.2277 -1.0683
  736SOL     hw 2943   4.406   5.571   6.791  0.3276 -0.0909  0.3960
  736SOL     vw 2944   4.470   5.607   6.745 -0.0703 -0.2873 -0.3202
  737SOL     ow 2945   5.345   2.736   4.820 -0.0759  0.2695  0.4240
  737SOL     hw 2946   5.430   2.717   4.779  1.2374  1.8531  2.2092
  737SOL     hw 2947   5.309   2.650   4.841  0.8272 -0.4602 -0.8410
  737SOL     vw 2948   5.352   2.722   4.818  0.2165  0.3821  0.4926
  738SOL     ow 2949   2.558   5.551   6.741  0.3455  0.2416 -0.7517
  738SOL     hw 2950   2.618   5.625   6.752 -0.5925  0.8553  0.5154
  738SOL     hw 2951   2.522   5.563   6.653 -0.8737  2.1661 -0.0450
  738SOL     vw 2952   2.561   5.563   6.731  0.0609  0.5767 -0.4909
  739SOL     ow 2953   1.937   2.709   0.947  0.6786  0.0756  0.2926
  739SOL     hw 2954   2.001   2.689   0.879 -0.2668 -2.8268  0.1205
  739SOL     hw 2955   1.869   2.758   0.902  0.4237 -1.1689 -0.7433
  739SOL     vw 2956   1.936   2.713   0.932  0.5202 -0.4715  0.1332
  740SOL     ow 2957   7.005   0.421   1.390 -0.0470  0.7122  0.0950
  740SOL     hw 2958   7.020   0.329   1.367  0.7665  0.6009  1.0030
  740SOL     hw 2959   6.936   0.450   1.330 -0.6100 -0.6088  0.0680
  740SOL     vw 2960   6.998   0.412   1.379 -0.0141  0.5232  0.2112
  741SOL     ow 2961   5.966   0.174   3.718  0.3511  0.4268  0.5343
  741SOL     hw 2962   6.054   0.203   3.743  0.9117  1.2669 -2.1039
  741SOL     hw 2963   5.980   0.092   3.672 -0.2448  0.5619  0.1002
  741SOL     vw 2964   5.980   0.167   3.715  0.3464  0.5555  0.1289
  742SOL     ow 2965   1.035   0.097   6.921 -0.1364 -0.1884  0.2359
  742SOL     hw 2966   1.038   0.187   6.952  0.1408  0.0480 -0.4588
  742SOL     hw 2967   0.943   0.081   6.902  0.0112  0.5001 -1.1866
  742SOL     vw 2968   1.023   0.107   6.922 -0.0803 -0.0664 -0.0434
  743SOL     ow 2969   4.514   6.232   3.220  0.5172 -0.1735 -0.3167
  743SOL     hw 2970   4.501   6.145   3.256 -1.0135  0.5873  1.1182
  743SOL     hw 2971   4.443   6.243   3.156  1.7743 -0.6113 -1.8341
  743SOL     vw 2972   4.503   6.222   3.216  0.4811 -0.1307 -0.3277
  744SOL     ow 2973   4.345   2.275   5.312 -0.1268  0.3981 -0.5982
  744SOL     hw 2974   4.428   2.304   5.275  0.2252 -1.0619 -1.0185
  744SOL     hw 2975   4.282   2.341   5.283  0.5576  0.5320 -1.8605
  744SOL     vw 2976   4.348   2.288   5.303  0.0100  0.2232 -0.8202
  745SOL     ow 2977   5.477   2.814   0.660  0.0178  0.4011 -0.0196
  745SOL     hw 2978   5.482   2.769   0.576 -1.7802  1.4395 -0.7441
  745SOL     hw 2979   5.564   2.851   0.674  0.8062 -1.2016 -0.5821
  745SOL     vw 2980   5.489   2.813   0.651 -0.1152  0.3266 -0.1894
  746SOL     ow 2981   5.429   7.009   1.618  0.5048 -0.0204  0.1985
  746SOL     hw 2982   5.350   6.957   1.630 -0.3244  1.4501  1.4981
  746SOL     hw 2983   5.398   7.095   1.589  1.5055  0.9434  1.8251
  746SOL     vw 2984   5.415   7.014   1.615  0.5274  0.3009  0.5846
  747SOL     ow 2985   1.096   2.787   3.231  0.3707 -0.0950 -0.0309
  747SOL     hw 2986   1.039   2.862   3.245  1.4229  1.1202 -1.9057
  747SOL     hw 2987   1.147   2.781   3.311 -1.3186 -0.3251  1.0987
  747SOL     vw 2988   1.095   2.796   3.243  0.2866  0.0349 -0.1291
  748SOL     ow 2989   3.582   1.565   5.595 -0.4103  0.3907  0.2072
  748SOL     hw 2990   3.677   1.555   5.604 -0.0964 -1.1426 -3.0384
  748SOL     hw 2991   3.566   1.658   5.609  1.4462  0.5559  1.5548
  748SOL     vw 2992   3.592   1.576   5.598 -0.1239  0.2102 -0.0432
  749SOL     ow 2993   4.220   1.066   2.489  0.4176  0.5432  0.4631
  749SOL     hw 2994   4.130   1.046   2.463  1.4269 -1.3561 -1.9217
  749SOL     hw 2995   4.245   0.995   2.548  1.4990 -1.1346 -1.8853
  749SOL     vw 2996   4.211   1.054   2.494  0.6933  0.0713 -0.1613
  750SOL     ow 2997   5.087   2.867   5.620 -0.3855 -0.5060  0.6874
  750SOL     hw 2998   4.994   2.853   5.605 -0.6778 -0.1199  2.0614
  750SOL     hw 2999   5.093   2.956   5.655  0.5168 -0.4676  0.4546
  750SOL     vw 3000   5.076   2.877   5.623 -0.3052 -0.4500  0.8383
  751SOL     ow 3001   7.112   3.223   2.552  0.1360  0.3762 -0.4575
  751SOL     hw 3002   7.200   3.201   2.583  0.1616 -0.0280 -0.8113
  751SOL     hw 3003   7.116   3.316   2.531  0.3733  0.4441 -0.1230
  751SOL     vw 3004   7.124   3.232   2.554  0.1709  0.3319 -0.4599
  752SOL     ow 3005   6.646   3.269   4.040 -0.0125  0.7533  0.5813
  752SOL     hw 3006   6.615   3.191   3.993  1.8582 -0.8983  1.9330
  752SOL     hw 3007   6.635   3.341   3.977 -2.1012 -0.5063 -0.5959
  752SOL     vw 3008   6.640   3.268   4.025 -0.0412  0.3692  0.6042
  753SOL     ow 3009   6.133   5.746   2.287 -0.5200 -0.3816  0.3375
  753SOL     hw 3010   6.074   5.819   2.266  2.1270  0.9123 -4.0257
  753SOL     hw 3011   6.145   5.701   2.203  0.4564 -4.0242  2.2236
  753SOL     vw 3012   6.127   5.750   2.273 -0.0420 -0.6914  0.0105
  754SOL     ow 3013   6.629   0.853   5.321  0.1418  0.0785 -0.5398
  754SOL     hw 3014   6.559   0.907   5.283  0.0218  0.8054  0.6746
  754SOL     hw 3015   6.624   0.870   5.415  1.5001 -0.4129 -0.3625
  754SOL     vw 3016   6.619   0.863   5.328  0.3052  0.1096 -0.3562
  755SOL     ow 3017   6.501   0.326   1.024 -0.2030  0.0326  0.2605
  755SOL     hw 3018   6.450   0.373   0.959 -0.0574 -1.7947 -1.2522
  755SOL     hw 3019   6.436   0.292   1.086 -0.6556 -0.6054 -0.5458
  755SOL     vw 3020   6.486   0.328   1.024 -0.2434 -0.2927 -0.0454
  756SOL     ow 3021   1.457   3.721   0.109  0.1825  0.0017  0.5197
  756SOL     hw 3022   1.466   3.817   0.106  1.9295 -0.1320  0.7124
  756SOL     hw 3023   1.418   3.698   0.025  1.6149  0.7202 -0.3628
  756SOL     vw 3024   1.453   3.731   0.098  0.6019  0.0788  0.4287
  757SOL     ow 3025   3.466   4.307   6.685  0.0782 -0.4066 -0.2428
  757SOL     hw 3026   3.371   4.293   6.689  0.2169 -1.0977  1.6329
  757SOL     hw 3027   3.503   4.218   6.686  0.7509 -0.1367 -0.5808
  757SOL     vw 3028   3.458   4.293   6.686  0.1853 -0.4623 -0.0398
  758SOL     ow 3029   0.386   6.104   2.563 -0.1593  0.5591 -0.3428
  758SOL     hw 3030   0.316   6.104   2.628 -0.2974 -3.3751 -0.2586
  758SOL     hw 3031   0.465   6.083   2.613  0.2657  0.4743 -1.0380
  758SOL     vw 3032   0.388   6.102   2.578 -0.1214  0.0286 -0.4233
  759SOL     ow 3033   2.115   0.960   2.295  0.0253  0.0780 -0.0832
  759SOL     hw 3034   2.148   1.047   2.318  0.5684  0.7657 -3.0086
  759SOL     hw 3035   2.191   0.915   2.258 -0.7764 -0.7932 -0.7189
  759SOL     vw 3036   2.130   0.965   2.293 -0.0088  0.0538 -0.5530
  760SOL     ow 3037   6.677   5.321   5.711 -0.1603  0.0189 -0.1332
  760SOL     hw 3038   6.667   5.272   5.630  1.5051 -0.0292 -0.3467
  760SOL     hw 3039   6.772   5.325   5.725 -0.3457  1.4799  0.9162
  760SOL     vw 3040   6.688   5.315   5.702  0.0353  0.2053 -0.0231
  761SOL     ow 3041   6.894   6.005   4.159 -0.2367  0.0463 -0.1219
  761SOL     hw 3042   6.865   6.070   4.096 -1.0441 -0.1010  0.0939
  761SOL     hw 3043   6.983   5.982   4.131  0.0662  1.2560 -0.1751
  761SOL     vw 3044   6.902   6.010   4.147 -0.3033  0.1862 -0.1004
  762SOL     ow 3045   6.870   0.124   0.867  0.3387  0.3091 -0.1190
  762SOL     hw 3046   6.835   0.193   0.923 -0.7095  1.3922 -1.9767
  762SOL     hw 3047   6.859   0.043   0.917 -1.2273  1.1247  0.9260
  762SOL     vw 3048   6.864   0.123   0.881 -0.0060  0.5596 -0.2262
  763SOL     ow 3049   3.507   4.666   3.829  1.0769 -0.2669 -0.1545
  763SOL     hw 3050   3.495   4.744   3.884  0.2648  0.0856 -0.8174
  763SOL     hw 3051   3.426   4.616   3.841  1.5014 -0.9102  0.0884
  763SOL     vw 3052   3.495   4.670   3.838  1.0258 -0.3052 -0.2099
  764SOL     ow 3053   5.586   5.992   0.763 -0.4991 -0.0182  0.6994
  764SOL     hw 3054   5.591   6.085   0.739 -0.2112  0.1894  1.5475
  764SOL     hw 3055   5.574   5.947   0.679 -0.0511  0.7369  0.2109
  764SOL     vw 3056   5.585   5.998   0.749 -0.4022  0.1087  0.7469
  765SOL     ow 3057   0.832   5.982   3.009 -0.2467 -1.1239 -0.0836
  765SOL     hw 3058   0.899   6.050   3.006  0.3975 -1.7538 -0.3265
  765SOL     hw 3059   0.875   5.907   3.048 -0.9311 -1.4226  0.1198
  765SOL     vw 3060   0.846   5.981   3.013 -0.2520 -1.2467 -0.0887
  766SOL     ow 3061   5.990   5.292   7.079 -0.4956 -0.0338 -0.3688
  766SOL     hw 3062   6.082   5.316   7.064 -0.2451  0.3911  1.6056
  766SOL     hw 3063   5.947   5.374   7.101 -1.8023  0.0708 -2.9487
  766SOL     vw 3064   5.997   5.306   7.080 -0.6347  0.0360 -0.4487
  767SOL     ow 3065   7.108   1.878   2.841  0.7740  0.4124  0.1886
  767SOL     hw 3066   7.150   1.926   2.913  0.5354 -2.0136  2.0817
  767SOL     hw 3067   7.177   1.819   2.809 -0.4606 -2.2078  2.0134
  767SOL     vw 3068   7.123   1.877   2.846  0.5796 -0.2534  0.6791
  768SOL     ow 3069   0.403   5.588   3.154 -0.2911 -0.3256 -0.2343
  768SOL     hw 3070   0.309   5.577   3.136 -0.2537 -0.6154 -0.2573
  768SOL     hw 3071   0.416   5.546   3.239 -0.2528  0.0579 -0.0452
  768SOL     vw 3072   0.392   5.581   3.163 -0.2811 -0.3133 -0.2124
  769SOL     ow 3073   5.589   1.236   4.625 -0.0761 -0.2214  0.1523
  769SOL     hw 3074   5.592   1.329   4.605 -1.4701 -0.0116  0.7980
  769SOL     hw 3075   5.611   1.192   4.542 -1.3095  0.6576 -0.6632
  769SOL     vw 3076   5.592   1.242   4.611 -0.4230 -0.0777  0.1297
  770SOL     ow 3077   1.205   0.265   3.406 -0.4530 -0.2601  0.4791
  770SOL     hw 3078   1.277   0.205   3.388  0.0006  0.1804  0.8063
  770SOL     hw 3079   1.129   0.223   3.366 -0.5673 -2.0570  2.4117
  770SOL     vw 3080   1.204   0.251   3.398 -0.4083 -0.4391  0.7771
  771SOL     ow 3081   6.585   0.825   3.066  0.2111 -1.1081 -0.2033
  771SOL     hw 3082   6.660   0.880   3.087  0.6290 -1.6135 -0.3594
  771SOL     hw 3083   6.559   0.852   2.978  0.0573 -0.7680 -0.0551
  771SOL     vw 3084   6.591   0.836   3.057  0.2458 -1.1299 -0.2044
  772SOL     ow 3085   2.119   7.045   5.999  0.2594  0.2516 -0.1942
  772SOL     hw 3086   2.122   7.030   6.094  0.7758  2.4330  0.1973
  772SOL     hw 3087   2.187   7.111   5.984  2.3362 -2.1680 -2.5770
  772SOL     vw 3088   2.129   7.052   6.010  0.6016  0.2203 -0.4570
  773SOL     ow 3089   2.319   6.227   0.837 -0.6606  0.7338 -0.0282
  773SOL     hw 3090   2.250   6.161   0.842  0.3406 -0.3659 -0.3334
  773SOL     hw 3091   2.310   6.264   0.749  0.3986 -0.8678 -0.8573
  773SOL     vw 3092   2.308   6.223   0.826 -0.3887  0.3774 -0.1778
  774SOL     ow 3093   1.394   5.891   0.831  0.3664 -0.1687  0.4361
  774SOL     hw 3094   1.328   5.823   0.847 -0.0519 -0.1130 -0.9685
  774SOL     hw 3095   1.380   5.918   0.741  1.3316  0.9350  0.5905
  774SOL     vw 3096   1.384   5.885   0.821  0.4386 -0.0160  0.2711
  775SOL     ow 3097   4.933   0.068   0.841  0.0830 -0.0274 -0.5482
  775SOL     hw 3098   4.853   0.028   0.807  0.8928 -0.2633 -2.2825
  775SOL     hw 3099   4.993   0.069   0.766  2.3179 -1.3865  1.0896
  775SOL     vw 3100   4.930   0.063   0.827  0.4847 -0.2378 -0.5609
  776SOL     ow 3101   1.905   4.765   0.132  0.3510 -0.5624  1.1167
  776SOL     hw 3102   1.951   4.681   0.141  2.0231  0.2377  0.3486
  776SOL     hw 3103   1.965   4.830   0.168  0.5828  0.7213 -1.3709
  776SOL     vw 3104   1.919   4.762   0.138  0.6021 -0.2873  0.6871
  777SOL     ow 3105   1.006   1.364   5.725 -0.5118 -0.1436 -0.5478
  777SOL     hw 3106   0.943   1.298   5.698  0.6684 -0.1313 -3.9104
  777SOL     hw 3107   0.992   1.436   5.663  1.5183  0.6071 -0.2110
  777SOL     vw 3108   0.996   1.365   5.713 -0.0883 -0.0430 -0.9472
  778SOL     ow 3109   5.225   5.594   4.212 -0.5800 -0.6554 -0.2267
  778SOL     hw 3110   5.255   5.576   4.301 -0.3498 -2.9076 -0.7092
  778SOL     hw 3111   5.129   5.592   4.218 -0.5859  0.0483  0.0925
  778SOL     vw 3112   5.216   5.592   4.224 -0.5505 -0.8597 -0.2482
  779SOL     ow 3113   0.691   6.845   2.638  0.0954  0.4893 -0.2063
  779SOL     hw 3114   0.643   6.874   2.716 -0.7904  0.3882 -0.7012
  779SOL     hw 3115   0.760   6.788   2.672 -1.7646 -1.5546  0.3542
  779SOL     vw 3116   0.694   6.842   2.653 -0.2670  0.2062 -0.1978
  780SOL     ow 3117   3.782   2.052   3.897  0.0411  0.1427 -0.0651
  780SOL     hw 3118   3.707   1.997   3.878 -0.4929  0.3616  1.3038
  780SOL     hw 3119   3.781   2.120   3.830 -1.4886  0.6267  0.4133
  780SOL     vw 3120   3.772   2.054   3.886 -0.2311  0.2354  0.1785
  781SOL     ow 3121   1.029   1.010   3.507  0.3871  0.3684  0.1980
  781SOL     hw 3122   1.078   1.089   3.487  1.8589 -0.4672  0.3670
  781SOL     hw 3123   1.095   0.940   3.509 -0.9813 -1.0327 -0.8357
  781SOL     vw 3124   1.044   1.011   3.505  0.4008  0.0734  0.0839
  782SOL     ow 3125   6.222   7.033   5.137 -0.1277  0.2942  0.0735
  782SOL     hw 3126   6.207   6.975   5.211  0.9288 -1.4493 -1.0041
  782SOL     hw 3127   6.280   6.983   5.079 -0.8258  1.6271 -1.8733
  782SOL     vw 3128   6.228   7.019   5.139 -0.0801  0.2398 -0.3259
  783SOL     ow 3129   2.927   3.539   2.345  0.1883  0.1677 -0.5585
  783SOL     hw 3130   2.960   3.492   2.268 -0.8634 -0.7669 -0.4564
  783SOL     hw 3131   2.938   3.631   2.322 -0.8929 -0.0728 -2.2074
  783SOL     vw 3132   2.933   3.545   2.332 -0.0930  0.0128 -0.7627
  784SOL     ow 3133   6.574   2.622   5.903 -0.0756 -0.6718 -0.1592
  784SOL     hw 3134   6.569   2.554   5.970  0.1093  0.0858  0.6449
  784SOL     hw 3135   6.668   2.637   5.890  0.0642  2.2735  2.7301
  784SOL     vw 3136   6.586   2.615   5.910 -0.0327 -0.1831  0.3281
  785SOL     ow 3137   5.683   0.282   4.771 -0.2085 -0.2553  0.6494
  785SOL     hw 3138   5.682   0.221   4.698 -1.5519  0.4242  0.0653
  785SOL     hw 3139   5.760   0.337   4.755 -0.9851  0.4708 -0.7882
  785SOL     vw 3140   5.693   0.281   4.760 -0.4883 -0.0699  0.3824
  786SOL     ow 3141   6.756   5.138   0.117 -1.1286 -0.3995 -0.0174
  786SOL     hw 3142   6.817   5.092   0.174 -1.1163 -2.3662 -1.5414
  786SOL     hw 3143   6.806   5.213   0.084 -1.0366  0.6122  2.2149
  786SOL     vw 3144   6.770   5.142   0.120 -1.1146 -0.5250  0.0761
  787SOL     ow 3145   5.709   1.827   1.251  0.3795 -0.0801 -0.0536
  787SOL     hw 3146   5.647   1.885   1.207 -0.4206 -2.3730 -2.2645
  787SOL     hw 3147   5.795   1.865   1.234 -0.0600  0.0915 -2.1876
  787SOL     vw 3148   5.712   1.839   1.243  0.2160 -0.3600 -0.6269
  788SOL     ow 3149   4.180   0.802   0.046 -0.0681 -0.5306 -0.5868
  788SOL     hw 3150   4.187   0.830  -0.045 -1.9199 -0.2060 -0.6736
  788SOL     hw 3151   4.114   0.733   0.046  0.5195 -1.1210  0.3948
  788SOL     vw 3152   4.172   0.797   0.034 -0.2348 -0.5657 -0.4687
  789SOL     ow 3153   5.734   5.251   2.790  0.6053 -0.2033  0.0406
  789SOL     hw 3154   5.785   5.257   2.710  1.3105 -1.0722  0.4112
  789SOL     hw 3155   5.647   5.285   2.766  1.3210  1.2452 -0.6068
  789SOL     vw 3156   5.729   5.257   2.777  0.7927 -0.1268  0.0041
  790SOL     ow 3157   0.121   6.697   6.668 -0.3208  0.0071 -0.2214
  790SOL     hw 3158   0.087   6.617   6.708  2.0893 -0.4026  1.2176
  790SOL     hw 3159   0.077   6.768   6.715  0.3135 -0.5047  1.2307
  790SOL     vw 3160   0.111   6.696   6.680  0.0809 -0.1142  0.1602
  791SOL     ow 3161   4.003   5.474   1.770  0.1630 -0.1668  0.1169
  791SOL     hw 3162   3.973   5.489   1.860 -0.7921 -0.6004 -0.1168
  791SOL     hw 3163   3.942   5.525   1.716  0.1571 -0.6434 -0.3330
  791SOL     vw 3164   3.991   5.482   1.775  0.0362 -0.2868  0.0267
  792SOL     ow 3165   2.823   4.961   3.145  0.3113 -0.6262  0.0636
  792SOL     hw 3166   2.906   4.915   3.133  0.9150  0.6493 -0.9825
  792SOL     hw 3167   2.842   5.027   3.212  0.7170  0.8734 -1.4556
  792SOL     vw 3168   2.836   4.964   3.152  0.4444 -0.2601 -0.2749
  793SOL     ow 3169   1.675   0.994   1.244 -0.2627 -0.0865  0.7585
  793SOL     hw 3170   1.669   1.080   1.202 -0.9089  0.0336  1.0876
  793SOL     hw 3171   1.584   0.966   1.255 -0.0921 -1.7332 -1.1993
  793SOL     vw 3172   1.662   1.002   1.240 -0.3255 -0.2878  0.5436
  794SOL     ow 3173   4.869   0.709   4.078 -0.2230  0.7667 -0.2408
  794SOL     hw 3174   4.805   0.771   4.043 -1.0660  0.4153  0.6396
  794SOL     hw 3175   4.947   0.722   4.024 -0.0765  3.1688  0.4103
  794SOL     vw 3176   4.871   0.719   4.066 -0.3152  1.0373 -0.0389
  795SOL     ow 3177   5.801   6.301   6.981  0.5707 -0.6320  0.3629
  795SOL     hw 3178   5.826   6.250   7.058 -0.6966  0.9423  1.8862
  795SOL     hw 3179   5.706   6.310   6.988  0.6254  0.9383 -0.4762
  795SOL     vw 3180   5.792   6.295   6.992  0.4106 -0.2172  0.4532
  796SOL     ow 3181   0.091   6.302   4.800  0.3919 -0.7103  0.1323
  796SOL     hw 3182   0.010   6.298   4.851  0.8680 -1.0913  0.8765
  796SOL     hw 3183   0.142   6.226   4.829  0.9095 -0.6289 -0.5230
  796SOL     vw 3184   0.087   6.291   4.810  0.5230 -0.7498  0.1438
  797SOL     ow 3185   4.689   2.439   2.721 -0.3914  0.2194 -0.4529
  797SOL     hw 3186   4.713   2.442   2.814  2.0356  0.8499 -1.0116
  797SOL     hw 3187   4.678   2.346   2.702  0.3525 -0.0223  0.2192
  797SOL     vw 3188   4.691   2.427   2.731  0.0272  0.2706 -0.4379
  798SOL     ow 3189   6.439   5.821   1.997  0.1585  0.3114 -0.2479
  798SOL     hw 3190   6.356   5.791   2.033 -0.0202 -0.9816 -1.6731
  798SOL     hw 3191   6.480   5.870   2.069 -0.5165 -1.4968  1.4398
  798SOL     vw 3192   6.433   5.824   2.011  0.0463 -0.0975 -0.2131
  799SOL     ow 3193   6.443   4.789   0.043  0.2224  0.1570  0.2715
  799SOL     hw 3194   6.472   4.876   0.015  1.6335 -0.3565  0.0433
  799SOL     hw 3195   6.461   4.786   0.137 -1.6728  0.7897  0.6900
  799SOL     vw 3196   6.449   4.800   0.051  0.1583  0.1726  0.2966
  800SOL     ow 3197   2.769   2.775   5.511  0.4853  0.5197  0.0574
  800SOL     hw 3198   2.820   2.799   5.434 -0.3027 -0.4524 -0.8097
  800SOL     hw 3199   2.678   2.793   5.486  0.3001  1.4488  1.2685
  800SOL     vw 3200   2.764   2.781   5.498  0.3569  0.5140  0.1028
  801SOL     ow 3201   0.721   3.197   0.822 -0.0848  0.3088 -0.3454
  801SOL     hw 3202   0.763   3.116   0.851 -2.6345 -0.6610  0.9384
  801SOL     hw 3203   0.747   3.262   0.887 -1.7053 -0.6496  1.3443
  801SOL     vw 3204   0.730   3.195   0.834 -0.6350  0.0542  0.0469
  802SOL     ow 3205   1.598   5.879   3.032  0.3559 -0.2207 -0.7781
  802SOL     hw 3206   1.560   5.897   2.946 -0.8600 -1.1144 -0.4692
  802SOL     hw 3207   1.627   5.788   3.026  1.4886  0.1229 -0.6541
  802SOL     vw 3208   1.597   5.869   3.020  0.3450 -0.2930 -0.7210
  803SOL     ow 3209   3.601   4.263   1.054 -0.2171 -0.2626  0.3034
  803SOL     hw 3210   3.644   4.348   1.065  1.5588 -1.2031  1.0972
  803SOL     hw 3211   3.560   4.268   0.968  0.2193  1.2534  0.1513
  803SOL     vw 3212   3.602   4.275   1.044  0.0749 -0.1864  0.3880
  804SOL     ow 3213   5.450   6.051   3.625 -0.0298 -0.2212 -0.4887
  804SOL     hw 3214   5.359   6.074   3.646  0.0025 -1.2429  0.9579
  804SOL     hw 3215   5.448   6.029   3.532 -1.6057 -1.6248 -0.1828
  804SOL     vw 3216   5.438   6.051   3.616 -0.2334 -0.5412 -0.2575
  805SOL     ow 3217   1.718   2.832   0.790  0.9358 -0.3179 -0.6453
  805SOL     hw 3218   1.670   2.761   0.746  0.5286 -0.5130  0.1000
  805SOL     hw 3219   1.651   2.878   0.840  1.5857 -0.8551  0.7525
  805SOL     vw 3220   1.702   2.829   0.791  0.9677 -0.4146 -0.3626
  806SOL     ow 3221   6.722   2.448   7.035 -0.1680  0.5975 -0.0795
  806SOL     hw 3222   6.732   2.540   7.056  0.9597  0.4897 -0.0805
  806SOL     hw 3223   6.712   2.446   6.940  1.4906  0.6267 -0.2852
  806SOL     vw 3224   6.722   2.460   7.025  0.1993  0.5872 -0.1068
  807SOL     ow 3225   0.864   4.962   0.136 -0.1476 -0.5178 -0.0700
  807SOL     hw 3226   0.841   4.876   0.171 -0.5821 -0.0658  0.7960
  807SOL     hw 3227   0.784   5.014   0.145 -0.2856 -0.3735 -1.7973
  807SOL     vw 3228   0.851   4.957   0.142 -0.2232 -0.4392 -0.1837
  808SOL     ow 3229   6.344   2.187   0.795  0.2787  0.2938  0.0667
  808SOL     hw 3230   6.286   2.262   0.808  0.8265  0.6420  0.5475
  808SOL     hw 3231   6.405   2.215   0.728 -0.4443 -0.2836 -0.8715
  808SOL     vw 3232   6.344   2.200   0.788  0.2556  0.2636  0.0063
  809SOL     ow 3233   2.403   6.965   5.708  0.7984 -0.3750 -0.0967
  809SOL     hw 3234   2.423   7.055   5.735 -3.1178  0.5211  0.4683
  809SOL     hw 3235   2.392   6.970   5.613  2.0543 -0.6211 -0.2620
  809SOL     vw 3236   2.404   6.978   5.699  0.4473 -0.2892 -0.0439
  810SOL     ow 3237   4.274   6.044   0.414 -0.5608 -0.2401  0.2188
  810SOL     hw 3238   4.335   5.975   0.440 -0.3030  0.5374  1.7690
  810SOL     hw 3239   4.329   6.117   0.386 -0.8203 -0.3131 -0.5019
  810SOL     vw 3240   4.289   6.044   0.414 -0.5610 -0.1473  0.3282
  811SOL     ow 3241   3.207   2.906   6.851  0.1916 -0.2262  0.2625
  811SOL     hw 3242   3.246   2.978   6.901  1.3369 -2.3149  2.6549
  811SOL     hw 3243   3.121   2.893   6.891  0.1129 -0.3695  0.0494
  811SOL     vw 3244   3.201   2.913   6.863  0.3322 -0.5207  0.5503
  812SOL     ow 3245   6.851   5.672   1.490 -0.2045 -0.0726  0.0872
  812SOL     hw 3246   6.847   5.760   1.453 -0.7330 -0.9497 -2.0762
  812SOL     hw 3247   6.934   5.636   1.458 -0.4463 -0.6907  0.1277
  812SOL     vw 3248   6.861   5.679   1.481 -0.3061 -0.2701 -0.1929
  813SOL     ow 3249   6.018   6.996   4.585  0.1808  0.3024 -0.5690
  813SOL     hw 3250   6.038   6.924   4.526  0.4758 -0.4994  0.4669
  813SOL     hw 3251   5.923   7.005   4.582 -0.1561 -1.7371  1.0243
  813SOL     vw 3252   6.008   6.988   4.577  0.1755 -0.0725 -0.2224
  814SOL     ow 3253   6.185   3.215   2.469 -0.2886  0.6419  0.0360
  814SOL     hw 3254   6.174   3.256   2.383  1.0543  1.7247  0.3464
  814SOL     hw 3255   6.105   3.234   2.516 -0.4427  1.2841 -0.4763
  814SOL     vw 3256   6.173   3.223   2.464 -0.1316  0.8694  0.0093
  815SOL     ow 3257   2.914   3.853   0.610  0.1144  0.3700 -0.2029
  815SOL     hw 3258   2.980   3.821   0.548 -0.7879 -0.0175 -0.9768
  815SOL     hw 3259   2.942   3.819   0.695 -0.5216 -2.0830 -0.9153
  815SOL     vw 3260   2.927   3.845   0.613 -0.0886 -0.0048 -0.3990
  816SOL     ow 3261   0.513   6.552   2.820 -0.1631  0.0614  0.2837
  816SOL     hw 3262   0.578   6.510   2.877  0.1205  0.2750  0.1196
  816SOL     hw 3263   0.490   6.633   2.866  0.7218  0.6684 -0.3245
  816SOL     vw 3264   0.518   6.557   2.833 -0.0089  0.1695  0.1817
  817SOL     ow 3265   5.605   1.493   3.012  0.2316  0.1674  0.4812
  817SOL     hw 3266   5.598   1.564   2.948  0.3714  0.6548  0.9975
  817SOL     hw 3267   5.690   1.506   3.053 -0.8636  1.4202  2.5350
  817SOL     vw 3268   5.615   1.504   3.009  0.1056  0.3970  0.8202
  818SOL     ow 3269   1.725   4.844   7.063  0.2065 -0.3149  0.3237
  818SOL     hw 3270   1.786   4.850   6.990  0.2031 -0.5607  0.3021
  818SOL     hw 3271   1.777   4.806   7.134 -0.3336 -2.0244 -0.1561
  818SOL     vw 3272   1.740   4.840   7.063  0.1348 -0.5729  0.2577
  819SOL     ow 3273   2.556   6.125   0.975 -0.2383 -0.7659  0.4987
  819SOL     hw 3274   2.624   6.189   0.954 -2.0926  0.5268 -2.2151
  819SOL     hw 3275   2.561   6.061   0.904 -1.5740 -0.8231  0.4364
  819SOL     vw 3276   2.566   6.125   0.963 -0.6591 -0.6027  0.1325
  820SOL     ow 3277   4.952   0.817   0.622  0.1452  0.3434 -0.4246
  820SOL     hw 3278   5.023   0.862   0.669  0.8941  0.5757 -1.7320
  820SOL     hw 3279   4.876   0.873   0.635 -0.0647 -0.3748  1.7650
  820SOL     vw 3280   4.951   0.831   0.630  0.2162  0.2793 -0.3082
  821SOL     ow 3281   4.179   6.134   0.651  0.4818  0.7043  0.4640
  821SOL     hw 3282   4.177   6.065   0.718 -2.0724 -0.5591 -0.7674
  821SOL     hw 3283   4.198   6.088   0.570  1.8021  1.9628  0.0237
  821SOL     vw 3284   4.181   6.119   0.649  0.3192  0.7036  0.2434
  822SOL     ow 3285   1.954   4.203   4.007  0.6932  0.7265  0.2069
  822SOL     hw 3286   1.948   4.127   3.949  0.1084  0.1192  1.0383
  822SOL     hw 3287   1.970   4.166   4.094 -0.8143  1.4612  0.8343
  822SOL     vw 3288   1.955   4.188   4.011  0.4172  0.7432  0.3994
  823SOL     ow 3289   2.132   2.033   3.737  0.3981 -0.2023 -0.3318
  823SOL     hw 3290   2.194   2.060   3.669 -0.8000 -0.5865 -1.6301
  823SOL     hw 3291   2.181   2.039   3.819  0.6803  4.9185 -0.5004
  823SOL     vw 3292   2.146   2.038   3.739  0.2774  0.4226 -0.5254
  824SOL     ow 3293   3.512   4.501   6.422  0.0315 -0.0539 -0.3707
  824SOL     hw 3294   3.581   4.526   6.360 -0.2162  1.3246 -0.1281
  824SOL     hw 3295   3.488   4.412   6.397  0.9382 -0.0499 -1.3311
  824SOL     vw 3296   3.518   4.493   6.411  0.1186  0.1287 -0.4659
  825SOL     ow 3297   0.726   3.534   4.569 -0.1548  0.3855 -0.2884
  825SOL     hw 3298   0.751   3.447   4.538  1.5632  1.3680 -1.8300
  825SOL     hw 3299   0.730   3.590   4.492 -0.3043  2.0352  0.8405
  825SOL     vw 3300   0.730   3.530   4.555  0.0522  0.7328 -0.3428
  826SOL     ow 3301   6.700   3.573   6.564 -0.1128  0.4825 -0.3788
  826SOL     hw 3302   6.791   3.551   6.584  0.0201  0.0319 -1.4105
  826SOL     hw 3303   6.685   3.656   6.609 -0.0723 -0.7705  2.0982
  826SOL     vw 3304   6.710   3.581   6.573 -0.0899  0.2578 -0.1879
  827SOL     ow 3305   1.676   0.985   1.526 -0.1616  0.3841  0.6568
  827SOL     hw 3306   1.761   0.987   1.570  0.8887 -2.4535 -0.9775
  827SOL     hw 3307   1.688   1.034   1.445  0.1263 -0.5009  0.1529
  827SOL     vw 3308   1.688   0.991   1.521  0.0149 -0.1070  0.3746
  828SOL     ow 3309   2.941   2.881   1.353 -0.3837 -0.0791  0.0304
  828SOL     hw 3310   3.018   2.882   1.297  0.6719 -0.0327  1.4367
  828SOL     hw 3311   2.898   2.798   1.332  0.5538 -0.5434 -0.1201
  828SOL     vw 3312   2.945   2.870   1.342 -0.1209 -0.1342  0.1961
  829SOL     ow 3313   0.255   2.420   5.119 -0.5482 -0.3812 -0.0643
  829SOL     hw 3314   0.224   2.410   5.209  0.9545 -2.8176  0.2852
  829SOL     hw 3315   0.267   2.515   5.108 -2.1182  0.0922  1.7841
  829SOL     vw 3316   0.252   2.431   5.129 -0.5571 -0.6402  0.2258
  830SOL     ow 3317   2.823   5.869   3.012  0.1671  0.2818 -0.7765
  830SOL     hw 3318   2.868   5.938   2.962  0.8494  2.0884  2.0866
  830SOL     hw 3319   2.884   5.795   3.010 -0.1419  0.0196 -3.1043
  830SOL     vw 3320   2.837   5.869   3.005  0.2164  0.4857 -0.7058
  831SOL     ow 3321   3.773   1.722   2.868  0.3661  0.3047  0.8598
  831SOL     hw 3322   3.796   1.642   2.821 -0.6384  1.6104 -2.1270
  831SOL     hw 3323   3.856   1.758   2.897  1.3292  0.3241 -1.6447
  831SOL     vw 3324   3.787   1.716   2.865  0.3606  0.4796  0.1353
  832SOL     ow 3325   5.205   6.778   2.220  0.3355  0.5045  0.1339
  832SOL     hw 3326   5.142   6.754   2.152 -0.0543 -1.3201  1.0730
  832SOL     hw 3327   5.246   6.858   2.188 -1.3823  0.9100 -1.2199
  832SOL     vw 3328   5.202   6.785   2.207  0.0575  0.3171  0.0792
  833SOL     ow 3329   4.084   1.501   3.389 -0.4998  0.5203  0.1369
  833SOL     hw 3330   4.175   1.529   3.405 -0.4397  0.7680 -0.6192
  833SOL     hw 3331   4.092   1.432   3.324 -0.9832  1.8874 -1.4366
  833SOL     vw 3332   4.097   1.496   3.382 -0.5555  0.7334 -0.1705
  834SOL     ow 3333   4.749   3.228   1.854 -0.4255 -0.1411 -0.4673
  834SOL     hw 3334   4.688   3.286   1.808 -0.5978 -0.1912 -0.3028
  834SOL     hw 3335   4.824   3.284   1.875 -1.0955  0.3263  0.7364
  834SOL     vw 3336   4.751   3.243   1.851 -0.5369 -0.0861 -0.2868
  835SOL     ow 3337   5.768   3.863   2.669  0.8042 -0.2650 -0.0364
  835SOL     hw 3338   5.701   3.921   2.631 -2.1705 -2.0975  1.9314
  835SOL     hw 3339   5.782   3.898   2.757  1.8970 -0.3840 -0.1479
  835SOL     vw 3340   5.761   3.875   2.676  0.5562 -0.5225  0.2084
  836SOL     ow 3341   1.434   4.985   5.931 -0.0688 -0.1575 -0.1394
  836SOL     hw 3342   1.405   4.898   5.959 -0.8271 -0.0209 -0.4534
  836SOL     hw 3343   1.381   5.046   5.983 -0.6799  0.0991 -1.0428
  836SOL     vw 3344   1.423   4.982   5.942 -0.2496 -0.1056 -0.2997
  837SOL     ow 3345   1.000   1.794   3.353 -0.6424 -0.5232  0.2205
  837SOL     hw 3346   1.044   1.871   3.389  0.9682 -0.7304 -1.1700
  837SOL     hw 3347   0.964   1.749   3.430  0.6615  0.2456  1.3217
  837SOL     vw 3348   1.001   1.798   3.368 -0.2578 -0.4491  0.1824
  838SOL     ow 3349   1.389   7.071   3.555  0.5344  0.4473 -0.2212
  838SOL     hw 3350   1.406   6.980   3.579  0.2148  0.3841 -0.2237
  838SOL     hw 3351   1.304   7.091   3.597  0.6311  0.7604 -0.1718
  838SOL     vw 3352   1.380   7.062   3.564  0.5050  0.4804 -0.2149
  839SOL     ow 3353   0.109   3.641   1.923 -0.6274  0.2709  0.3168
  839SOL     hw 3354   0.197   3.676   1.907 -0.7673  0.0196 -1.1387
  839SOL     hw 3355   0.125   3.549   1.946 -0.4640  0.4241  0.8198
  839SOL     vw 3356   0.123   3.633   1.924 -0.6243  0.2580  0.1912
  840SOL     ow 3357   0.612   3.394   4.806  0.2779  0.4964  0.1399
  840SOL     hw 3358   0.666   3.381   4.884  2.4910  1.8287 -1.0567
  840SOL     hw 3359   0.591   3.306   4.777  2.3379 -0.1251  0.3704
  840SOL     vw 3360   0.617   3.381   4.812  0.8417  0.5901  0.0124
  841SOL     ow 3361   4.283   3.291   4.378  0.4839 -0.4296 -0.0149
  841SOL     hw 3362   4.244   3.378   4.390  0.6675 -0.4300  0.6142
  841SOL     hw 3363   4.343   3.281   4.452 -0.8710 -1.8405  0.9564
  841SOL     vw 3364   4.286   3.301   4.389  0.3293 -0.6158  0.1960
  842SOL     ow 3365   3.287   4.154   2.655  0.1869  0.2964  0.3626
  842SOL     hw 3366   3.308   4.065   2.683 -1.6979 -0.6041 -0.8840
  842SOL     hw 3367   3.345   4.210   2.708  0.7805 -1.5872  1.8300
  842SOL     vw 3368   3.298   4.149   2.666  0.0166 -0.0708  0.3917
  843SOL     ow 3369   6.747   3.653   3.483 -0.2100  0.3808 -0.2154
  843SOL     hw 3370   6.654   3.674   3.495 -0.0655 -0.1225  2.2920
  843SOL     hw 3371   6.789   3.738   3.472 -0.7629  0.7809  0.5885
  843SOL     vw 3372   6.740   3.667   3.483 -0.2642  0.3672  0.2216
  844SOL     ow 3373   6.367   2.196   4.559  0.1376  0.5509 -0.0096
  844SOL     hw 3374   6.288   2.248   4.571 -0.0937  0.1757  0.1093
  844SOL     hw 3375   6.356   2.153   4.475 -0.4191 -0.5870  0.6282
  844SOL     vw 3376   6.355   2.197   4.550  0.0336  0.3512  0.0901
  845SOL     ow 3377   2.722   6.276   3.343  0.6214 -1.2943 -0.3009
  845SOL     hw 3378   2.629   6.255   3.351  0.7850 -2.1617 -0.5832
  845SOL     hw 3379   2.749   6.298   3.433 -0.0625 -0.0538 -0.3701
  845SOL     vw 3380   2.714   6.277   3.356  0.5528 -1.2453 -0.3473
  846SOL     ow 3381   5.046   6.984   2.274  0.1027 -0.1856  0.9120
  846SOL     hw 3382   5.113   7.044   2.239 -0.7694  0.1727 -0.1910
  846SOL     hw 3383   5.093   6.903   2.291  0.4939 -0.5461 -1.5946
  846SOL     vw 3384   5.061   6.981   2.272  0.0393 -0.1860  0.4356
  847SOL     ow 3385   1.137   4.948   0.067 -0.7461  0.3864 -0.7604
  847SOL     hw 3386   1.121   4.866   0.115 -0.7957  0.4364 -0.6921
  847SOL     hw 3387   1.178   5.006   0.130  0.6662 -0.0835 -1.2171
  847SOL     vw 3388   1.140   4.944   0.081 -0.5663  0.3312 -0.8117
  848SOL     ow 3389   0.511   0.343   0.307 -0.1193 -0.1033 -0.3413
  848SOL     hw 3390   0.439   0.302   0.260 -0.5235  0.4255 -0.1959
  848SOL     hw 3391   0.508   0.305   0.395  0.8097 -1.2992 -0.8037
  848SOL     vw 3392   0.501   0.333   0.313 -0.0500 -0.1913 -0.3831
  849SOL     ow 3393   4.822   4.684   3.111  0.6618  0.2894  0.2722
  849SOL     hw 3394   4.859   4.771   3.129  2.4454 -0.5488  0.9625
  849SOL     hw 3395   4.788   4.655   3.196  0.8010  0.0057  0.2330
  849SOL     vw 3396   4.823   4.691   3.125  0.9155  0.1414  0.3582
  850SOL     ow 3397   5.857   1.768   6.658  0.8309 -0.6205 -0.1737
  850SOL     hw 3398   5.779   1.815   6.630  0.7632 -0.3916  0.3934
  850SOL     hw 3399   5.836   1.676   6.640 -0.8940 -0.9669  2.8590
  850SOL     vw 3400   5.844   1.762   6.652  0.5941 -0.6360  0.3014
  851SOL     ow 3401   6.440   2.844   2.765 -0.1126  0.5991  0.0611
  851SOL     hw 3402   6.511   2.902   2.737  0.3403  1.3499  2.5477
  851SOL     hw 3403   6.363   2.878   2.719  0.6850  1.2867 -0.8180
  851SOL     vw 3404   6.439   2.856   2.755  0.0527  0.7889  0.2731
  852SOL     ow 3405   1.311   5.995   0.606  0.5511 -0.0026 -0.3485
  852SOL     hw 3406   1.367   6.065   0.570 -1.4701  3.1332  2.0182
  852SOL     hw 3407   1.232   5.997   0.551 -0.1949  0.8400  0.7014
  852SOL     vw 3408   1.308   6.005   0.594  0.1860  0.5221  0.1023
  853SOL     ow 3409   4.803   4.830   0.080  0.0573  0.0539 -0.1993
  853SOL     hw 3410   4.822   4.918   0.047 -1.6391  0.6810  0.4233
  853SOL     hw 3411   4.746   4.792   0.013 -1.0411  0.2723  0.5936
  853SOL     vw 3412   4.798   4.837   0.067 -0.3114  0.1655 -0.0126
  854SOL     ow 3413   6.577   6.967   5.789 -0.1659 -0.1910  0.1005
  854SOL     hw 3414   6.521   7.040   5.819 -0.6541 -0.2686 -0.5886
  854SOL     hw 3415   6.647   6.963   5.853 -1.2957 -0.5072  1.3685
  854SOL     vw 3416   6.579   6.976   5.801 -0.3793 -0.2429  0.1771
  855SOL     ow 3417   3.257   4.057   1.540  0.6688  0.5242 -0.3467
  855SOL     hw 3418   3.316   4.118   1.583  1.6697 -0.9768  0.5037
  855SOL     hw 3419   3.199   4.025   1.609 -0.1093  0.7823 -0.8596
  855SOL     vw 3420   3.257   4.061   1.554  0.6981  0.3605 -0.3021
  856SOL     ow 3421   5.963   3.617   5.849 -0.1034  0.2502 -0.2747
  856SOL     hw 3422   5.994   3.548   5.908 -0.6502 -0.0359 -0.3117
  856SOL     hw 3423   5.965   3.577   5.762  0.5574  0.6227 -0.4354
  856SOL     vw 3424   5.967   3.603   5.846 -0.0885  0.2615 -0.3011
  857SOL     ow 3425   2.322   1.283   3.205 -0.1069 -0.1453 -0.2496
  857SOL     hw 3426   2.316   1.200   3.254  1.2164 -1.0961 -1.6209
  857SOL     hw 3427   2.310   1.350   3.272  2.3149 -1.3593  1.5933
  857SOL     vw 3428   2.320   1.281   3.221  0.3872 -0.4309 -0.1873
  858SOL     ow 3429   4.750   3.851   2.743  0.4872 -0.2088  0.4268
  858SOL     hw 3430   4.808   3.841   2.819  0.4486  0.7812  0.5933
  858SOL     hw 3431   4.788   3.794   2.676  1.8196  0.6536  0.4290
  858SOL     vw 3432   4.763   3.842   2.744  0.6578  0.0356  0.4492
  859SOL     ow 3433   3.234   7.014   6.680 -0.6664 -0.4401  0.0660
  859SOL     hw 3434   3.189   6.932   6.660 -1.5301 -0.1516  0.7860
  859SOL     hw 3435   3.327   6.990   6.678 -0.8743 -1.2827 -0.3741
  859SOL     vw 3436   3.240   7.000   6.677 -0.8076 -0.5128  0.1028
  860SOL     ow 3437   4.251   0.189   6.291 -0.5473  0.2326  0.1001
  860SOL     hw 3438   4.170   0.147   6.320 -0.8752 -0.4316 -1.6097
  860SOL     hw 3439   4.226   0.280   6.275 -0.7993  0.1834  0.2023
  860SOL     vw 3440   4.237   0.196   6.293 -0.6237  0.1385 -0.1121
  861SOL     ow 3441   6.582   2.263   3.629  0.1665 -0.0005 -1.2253
  861SOL     hw 3442   6.506   2.316   3.652 -1.4126 -1.8216 -1.9295
  861SOL     hw 3443   6.550   2.173   3.631  2.8529 -1.0581  0.5113
  861SOL     vw 3444   6.568   2.258   3.632  0.3126 -0.3802 -1.0892
  862SOL     ow 3445   2.762   1.466   4.545  0.0569 -0.1539  0.2712
  862SOL     hw 3446   2.828   1.518   4.590 -0.5085  0.6927  0.1351
  862SOL     hw 3447   2.757   1.385   4.595  0.7354  0.0337  0.6540
  862SOL     vw 3448   2.770   1.462   4.557  0.0719 -0.0175  0.3037
  863SOL     ow 3449   2.897   5.560   0.757 -0.2284 -0.2575 -0.6153
  863SOL     hw 3450   2.951   5.483   0.742 -2.8393 -2.5148  0.6084
  863SOL     hw 3451   2.869   5.588   0.669 -0.2499 -1.5234 -1.0280
  863SOL     vw 3452   2.900   5.554   0.743 -0.5759 -0.7224 -0.5083
  864SOL     ow 3453   4.128   4.549   1.224 -0.3105  0.3468  0.3755
  864SOL     hw 3454   4.060   4.586   1.280  0.1947  0.4942  0.8958
  864SOL     hw 3455   4.177   4.489   1.280  0.1584  0.4424  0.0782
  864SOL     vw 3456   4.126   4.546   1.239 -0.1819  0.3786  0.4050
  865SOL     ow 3457   5.076   4.559   3.016 -0.4292  0.3385 -0.1619
  865SOL     hw 3458   5.131   4.636   2.997 -0.4438  0.5221  0.4850
  865SOL     hw 3459   5.138   4.487   3.025 -0.3571  0.3971 -0.1845
  865SOL     vw 3460   5.092   4.560   3.015 -0.4215  0.3705 -0.0795
  866SOL     ow 3461   2.271   0.794   0.824 -0.6037  0.2106 -0.1326
  866SOL     hw 3462   2.280   0.851   0.901  1.0481 -0.0260 -0.1288
  866SOL     hw 3463   2.283   0.853   0.749 -1.8752  0.3768 -0.2380
  866SOL     vw 3464   2.274   0.809   0.824 -0.5537  0.2013 -0.1459
  867SOL     ow 3465   3.985   1.265   2.572  0.1451  0.3596  0.3822
  867SOL     hw 3466   3.948   1.325   2.637 -1.1022  0.0019  0.0144
  867SOL     hw 3467   3.948   1.179   2.595 -0.7020  0.3127 -1.0888
  867SOL     vw 3468   3.976   1.261   2.584 -0.1311  0.3063  0.1395
  868SOL     ow 3469   3.287   5.173   1.966  0.4131 -0.1974  0.2509
  868SOL     hw 3470   3.381   5.179   1.949  0.7331 -0.2315  1.8623
  868SOL     hw 3471   3.269   5.079   1.971 -0.2722 -0.3162 -2.7017
  868SOL     vw 3472   3.297   5.162   1.965  0.3650 -0.2174  0.0740
  869SOL     ow 3473   1.733   1.263   3.306  0.3475  0.3652  0.1476
  869SOL     hw 3474   1.724   1.181   3.355 -0.1721  0.1054 -0.3730
  869SOL     hw 3475   1.668   1.321   3.345  0.7959  0.5758  0.5946
  869SOL     vw 3476   1.723   1.260   3.317  0.3382  0.3587  0.1379
  870SOL     ow 3477   0.769   0.180   0.330 -0.1415  0.0644  0.3732
  870SOL     hw 3478   0.810   0.122   0.394  1.9818  2.2511  1.1348
  870SOL     hw 3479   0.764   0.128   0.249  3.2513 -0.6960  0.5426
  870SOL     vw 3480   0.773   0.166   0.327  0.5863  0.2526  0.4961
  871SOL     ow 3481   6.911   1.755   3.331  0.1076  0.3408 -0.2221
  871SOL     hw 3482   6.965   1.678   3.346 -0.1205 -0.2685 -2.2664
  871SOL     hw 3483   6.821   1.722   3.334 -0.0013  0.5672 -0.8037
  871SOL     vw 3484   6.906   1.741   3.333  0.0634  0.2902 -0.5686
  872SOL     ow 3485   1.310   4.723   5.943 -0.0375 -0.9868  0.5563
  872SOL     hw 3486   1.363   4.644   5.933 -1.0875 -1.7980  1.1157
  872SOL     hw 3487   1.259   4.707   6.023 -0.1977  0.3132  0.7440
  872SOL     vw 3488   1.310   4.710   5.952 -0.1971 -0.9224  0.6547
  873SOL     ow 3489   5.256   4.024   0.183  0.3109  0.2803  0.6572
  873SOL     hw 3490   5.181   4.066   0.141  0.9153 -0.1264 -0.9194
  873SOL     hw 3491   5.226   3.935   0.203 -1.2416  1.5075  4.7485
  873SOL     vw 3492   5.242   4.018   0.180  0.1862  0.3884  0.9890
  874SOL     ow 3493   3.268   1.769   4.347 -0.0268  0.3659  0.5681
  874SOL     hw 3494   3.209   1.770   4.272  0.8885 -0.2680 -0.1669
  874SOL     hw 3495   3.228   1.706   4.407 -1.9274  2.3973  1.6282
  874SOL     vw 3496   3.255   1.761   4.345 -0.1569  0.5503  0.6111
  875SOL     ow 3497   3.243   6.289   2.111  0.2126  0.0487 -0.2101
  875SOL     hw 3498   3.266   6.208   2.157 -0.6186  0.2724  0.6214
  875SOL     hw 3499   3.230   6.261   2.020 -0.4523 -0.8328  0.1458
  875SOL     vw 3500   3.244   6.274   2.105  0.0153 -0.0379 -0.0535
  876SOL     ow 3501   1.731   3.703   2.889 -0.0031 -0.0957 -0.4433
  876SOL     hw 3502   1.807   3.655   2.854 -0.0537  0.6419 -1.6111
  876SOL     hw 3503   1.769   3.785   2.923 -0.1358 -0.2178  0.0016
  876SOL     vw 3504   1.746   3.708   2.889 -0.0273 -0.0143 -0.5387
  877SOL     ow 3505   6.184   6.833   5.373  0.0932 -0.2361 -0.0038
  877SOL     hw 3506   6.144   6.747   5.386 -0.1629 -0.0522  0.4584
  877SOL     hw 3507   6.168   6.879   5.456  1.2888 -0.1617  0.1917
  877SOL     vw 3508   6.176   6.828   5.386  0.2170 -0.2019  0.0830
  878SOL     ow 3509   6.243   3.398   4.412  0.1505 -0.6180  0.3497
  878SOL     hw 3510   6.234   3.392   4.317 -0.5185 -1.2486  0.4383
  878SOL     hw 3511   6.328   3.441   4.426  0.3561 -0.7201 -0.5257
  878SOL     vw 3512   6.253   3.403   4.402  0.0892 -0.7148  0.2460
  879SOL     ow 3513   3.241   2.676   0.769 -0.1773  0.1648 -0.5538
  879SOL     hw 3514   3.278   2.599   0.727 -0.3976  0.6611 -1.7001
  879SOL     hw 3515   3.310   2.706   0.828 -0.4915 -1.5007  0.7313
  879SOL     vw 3516   3.255   2.670   0.771 -0.2478  0.0104 -0.5354
  880SOL     ow 3517   0.689   2.414   2.093 -0.3403 -0.3278 -0.1889
  880SOL     hw 3518   0.600   2.405   2.058  0.1635  0.5498 -1.7469
  880SOL     hw 3519   0.728   2.327   2.082 -0.6467 -0.4302 -0.4744
  880SOL     vw 3520   0.682   2.401   2.087 -0.3143 -0.2255 -0.4323
  881SOL     ow 3521   4.277   1.224   1.432  0.1229 -0.1859  0.1324
  881SOL     hw 3522   4.307   1.175   1.509  1.5209  1.1658  0.5119
  881SOL     hw 3523   4.195   1.265   1.460  0.6338  0.3157  0.9441
  881SOL     vw 3524   4.270   1.223   1.446  0.3750  0.0587  0.2896
  882SOL     ow 3525   6.489   0.291   4.967  0.5956  0.0784  0.5118
  882SOL     hw 3526   6.584   0.294   4.982  0.3279  0.6027  2.3538
  882SOL     hw 3527   6.462   0.383   4.968 -0.2529 -0.1397  2.5905
  882SOL     vw 3528   6.498   0.303   4.969  0.4482  0.1188  1.0290
  883SOL     ow 3529   6.910   4.434   2.204  0.4107 -0.2718 -0.8186
  883SOL     hw 3530   6.881   4.343   2.192 -4.8369  0.9004  0.3374
  883SOL     hw 3531   6.876   4.480   2.127 -0.1339  1.2371  0.2911
  883SOL     vw 3532   6.902   4.428   2.192 -0.3533  0.0820 -0.5199
  884SOL     ow 3533   2.839   7.028   2.910  0.0776 -0.4464  0.5473
  884SOL     hw 3534   2.934   7.036   2.911  0.0911  0.4781 -1.6282
  884SOL     hw 3535   2.808   7.114   2.880 -1.3671 -1.0943  0.0912
  884SOL     vw 3536   2.847   7.040   2.906 -0.1112 -0.4096  0.2000
  885SOL     ow 3537   2.779   6.511   1.986 -0.7587 -0.5745  0.4570
  885SOL     hw 3538   2.753   6.527   1.895  1.1884  0.3887  0.0031
  885SOL     hw 3539   2.718   6.563   2.038 -2.1117 -1.4027 -0.2621
  885SOL     vw 3540   2.768   6.520   1.981 -0.6803 -0.5565  0.3023
  886SOL     ow 3541   3.976   1.007   0.113  0.0563  0.3225 -0.5686
  886SOL     hw 3542   4.027   1.071   0.064  0.8868 -0.4890 -0.8018
  886SOL     hw 3543   3.897   0.995   0.060  0.3683  0.3896 -1.0644
  886SOL     vw 3544   3.972   1.014   0.099  0.2071  0.2242 -0.6648
  887SOL     ow 3545   3.167   4.001   0.812  0.0610  0.1266  0.0077
  887SOL     hw 3546   3.212   3.918   0.798 -1.3378 -0.3592 -2.0579
  887SOL     hw 3547   3.231   4.056   0.856  0.9445 -2.0894  1.6953
  887SOL     vw 3548   3.181   3.997   0.816 -0.0068 -0.2298 -0.0422
  888SOL     ow 3549   6.241   7.007   1.695 -0.4740  0.4017 -0.2295
  888SOL     hw 3550   6.232   6.917   1.663 -0.3842  0.6514 -0.9628
  888SOL     hw 3551   6.335   7.020   1.705 -0.5369 -0.4570  2.4489
  888SOL     vw 3552   6.252   6.997   1.692 -0.4704  0.3216  0.0271
  889SOL     ow 3553   4.745   5.169   1.550  0.3199  0.9799 -0.1043
  889SOL     hw 3554   4.822   5.160   1.605  1.2101  0.0850 -1.4228
  889SOL     hw 3555   4.737   5.263   1.535 -1.0615  1.4672  2.9766
  889SOL     vw 3556   4.754   5.180   1.555  0.2551  0.9263  0.1282
  890SOL     ow 3557   1.990   3.218   2.969 -0.4819  1.0421 -0.9065
  890SOL     hw 3558   2.005   3.311   2.988 -0.8962  0.6072  1.8569
  890SOL     hw 3559   1.962   3.180   3.052  0.0932 -1.6761 -1.8490
  890SOL     vw 3560   1.988   3.226   2.982 -0.4607  0.6261 -0.6663
  891SOL     ow 3561   1.634   2.980   0.521  0.2491  0.2683  0.0927
  891SOL     hw 3562   1.570   2.938   0.463  1.9300  0.3371 -1.9257
  891SOL     hw 3563   1.625   3.074   0.503 -0.0771  0.4017  0.9059
  891SOL     vw 3564   1.624   2.987   0.511  0.4278  0.2950 -0.0663
  892SOL     ow 3565   6.756   1.667   1.446 -0.2067  0.1900 -0.3226
  892SOL     hw 3566   6.750   1.634   1.535 -2.1595  0.2862 -0.3670
  892SOL     hw 3567   6.769   1.589   1.392 -0.0018  0.0241 -0.0357
  892SOL     vw 3568   6.757   1.652   1.450 -0.4373  0.1808 -0.2905
  893SOL     ow 3569   4.942   4.205   1.545 -0.2072  0.0221 -0.0908
  893SOL     hw 3570   4.912   4.295   1.535 -0.5370  0.2303  2.2413
  893SOL     hw 3571   4.863   4.151   1.536 -0.6688  0.2724  1.9756
  893SOL     vw 3572   4.928   4.209   1.543 -0.3116  0.0825  0.4895
  894SOL     ow 3573   5.853   4.949   3.253  0.2884 -0.6536  0.9347
  894SOL     hw 3574   5.767   4.947   3.296  0.5985 -1.1262  1.5577
  894SOL     hw 3575   5.869   5.042   3.236 -1.9662 -0.7312 -2.5956
  894SOL     vw 3576   5.844   4.961   3.257  0.0322 -0.7260  0.5510
  895SOL     ow 3577   1.246   0.980   4.206 -0.0697 -0.6358  0.1102
  895SOL     hw 3578   1.203   1.045   4.263 -1.7561  0.3305 -2.0830
  895SOL     hw 3579   1.338   1.003   4.209  0.0719 -1.1981  3.0774
  895SOL     vw 3580   1.252   0.992   4.214 -0.2735 -0.5824  0.2122
  896SOL     ow 3581   5.713   6.643   0.844 -0.1193 -0.1833  0.5836
  896SOL     hw 3582   5.746   6.721   0.888 -0.7904  1.1097 -1.1045
  896SOL     hw 3583   5.772   6.630   0.769 -1.4006  0.1814 -0.5356
  896SOL     vw 3584   5.725   6.652   0.840 -0.3767  0.0353  0.2132
  897SOL     ow 3585   1.262   1.150   2.424  0.5912  0.5353  0.1356
  897SOL     hw 3586   1.258   1.245   2.426  0.3594  0.5129  1.5842
  897SOL     hw 3587   1.170   1.122   2.423  0.6564  0.3142 -0.4575
  897SOL     vw 3588   1.249   1.159   2.424  0.5692  0.5032  0.2486
  898SOL     ow 3589   4.553   1.949   5.458  0.1332 -0.0067 -0.6004
  898SOL     hw 3590   4.644   1.940   5.488  0.7208  0.8616 -2.0238
  898SOL     hw 3591   4.516   2.016   5.515  0.3631 -0.4030  0.0257
  898SOL     vw 3592   4.560   1.957   5.470  0.2415  0.0556 -0.7055
  899SOL     ow 3593   4.596   3.587   1.985  0.3589 -0.1573 -0.0953
  899SOL     hw 3594   4.573   3.579   1.893  2.1810 -0.8124 -0.5425
  899SOL     hw 3595   4.686   3.619   1.984 -0.6337  3.2399  1.5229
  899SOL     vw 3596   4.605   3.590   1.973  0.4687  0.2044  0.0592
  900SOL     ow 3597   5.475   2.672   2.491  0.0778  0.4660  0.1950
  900SOL     hw 3598   5.434   2.759   2.484  0.1980  0.4723 -0.5732
  900SOL     hw 3599   5.496   2.648   2.400  1.2628  0.2194  0.5080
  900SOL     vw 3600   5.473   2.681   2.478  0.2501  0.4344  0.1351
  901SOL     ow 3601   5.156   2.812   3.345 -0.3503 -0.2099 -0.4220
  901SOL     hw 3602   5.171   2.724   3.312 -0.1092 -0.5128  0.4561
  901SOL     hw 3603   5.218   2.821   3.418 -0.7290  0.4985 -0.1746
  901SOL     vw 3604   5.166   2.802   3.351 -0.3681 -0.1564 -0.2735
  902SOL     ow 3605   3.267   6.599   2.166  0.1074 -0.1099 -0.1223
  902SOL     hw 3606   3.271   6.683   2.211 -0.4911 -0.0595 -0.1562
  902SOL     hw 3607   3.326   6.609   2.091  0.5194  0.0608  0.2227
  902SOL     vw 3608   3.276   6.611   2.162  0.0826 -0.0806 -0.0812
  903SOL     ow 3609   1.408   6.140   6.875  0.4354 -0.1502 -0.9634
  903SOL     hw 3610   1.365   6.161   6.792 -2.7213 -1.1185  0.2739
  903SOL     hw 3611   1.413   6.044   6.875  1.0728 -0.1210 -0.3341
  903SOL     vw 3612   1.403   6.130   6.864  0.1029 -0.2739 -0.7172
  904SOL     ow 3613   5.388   6.339   3.527  0.0210 -0.2081  0.2764
  904SOL     hw 3614   5.325   6.269   3.541  0.5691 -0.7709 -0.0285
  904SOL     hw 3615   5.340   6.406   3.479 -0.8551  0.1712  1.6586
  904SOL     vw 3616   5.374   6.339   3.522 -0.0219 -0.2325  0.4184
  905SOL     ow 3617   4.678   3.466   4.271  0.0533  0.6480  0.6745
  905SOL     hw 3618   4.637   3.389   4.312  0.0680  1.0823  1.5338
  905SOL     hw 3619   4.677   3.447   4.177 -0.5682 -0.0974  0.8219
  905SOL     vw 3620   4.672   3.453   4.264 -0.0267  0.6070  0.8070
  906SOL     ow 3621   2.030   3.167   1.594  0.3310  0.5885 -0.2523
  906SOL     hw 3622   2.024   3.218   1.513  0.1609 -1.3405 -1.5241
  906SOL     hw 3623   2.124   3.164   1.613  0.4052  0.7315 -0.5836
  906SOL     vw 3624   2.041   3.174   1.586  0.3183  0.3529 -0.4638
  907SOL     ow 3625   2.451   6.886   4.640  0.2743 -0.4243  0.3381
  907SOL     hw 3626   2.414   6.913   4.723  0.1072  0.6354 -0.0656
  907SOL     hw 3627   2.542   6.862   4.660 -0.2710 -1.9345  1.1260
  907SOL     vw 3628   2.458   6.886   4.653  0.1804 -0.4838  0.3889
  908SOL     ow 3629   4.022   1.145   0.460  0.2325  0.0605  0.2597
  908SOL     hw 3630   4.017   1.241   0.458  2.7746  0.2444 -0.6591
  908SOL     hw 3631   3.932   1.116   0.448 -0.6377  2.3240  0.7797
  908SOL     vw 3632   4.010   1.154   0.458  0.4532  0.3834  0.2071
  909SOL     ow 3633   6.190   3.531   0.420  0.3197  0.6640  0.0649
  909SOL     hw 3634   6.281   3.548   0.394  0.3170 -0.0251 -0.4189
  909SOL     hw 3635   6.164   3.455   0.368  0.1113 -0.4045  1.6481
  909SOL     vw 3636   6.199   3.523   0.410  0.2921  0.4323  0.2099
  910SOL     ow 3637   6.896   1.490   3.533  0.0011 -0.5122  0.1326
  910SOL     hw 3638   6.893   1.579   3.570 -0.8389  0.0229 -1.1739
  910SOL     hw 3639   6.966   1.494   3.468 -1.8187  0.0457 -1.9153
  910SOL     vw 3640   6.905   1.503   3.530 -0.3498 -0.3680 -0.3097
  911SOL     ow 3641   4.450   1.117   0.194  0.1654  0.0283 -0.3071
  911SOL     hw 3642   4.448   1.103   0.099  1.6358 -1.0777 -0.2066
  911SOL     hw 3643   4.533   1.078   0.222  0.3982  1.5497  1.2533
  911SOL     vw 3644   4.461   1.110   0.185  0.3903  0.0831 -0.0880
  912SOL     ow 3645   1.569   2.076   5.398 -0.0806 -0.0824  0.2541
  912SOL     hw 3646   1.571   2.103   5.306 -1.4664 -0.8622 -0.0473
  912SOL     hw 3647   1.503   2.006   5.400 -2.3931  1.9898  2.3682
  912SOL     vw 3648   1.561   2.070   5.386 -0.5686  0.0881  0.4933
  913SOL     ow 3649   1.132   5.559   2.037 -0.4602 -0.6891  0.0188
  913SOL     hw 3650   1.039   5.552   2.016 -0.2980  1.1540 -1.6635
  913SOL     hw 3651   1.135   5.618   2.112 -0.7032 -2.1601  1.2258
  913SOL     vw 3652   1.120   5.566   2.044 -0.4708 -0.6397 -0.0439
  914SOL     ow 3653   3.218   1.870   6.820  0.0861 -0.2961 -0.1445
  914SOL     hw 3654   3.181   1.807   6.882  1.0261 -0.6188  0.0987
  914SOL     hw 3655   3.214   1.826   6.735 -0.4516 -0.1701 -0.1894
  914SOL     vw 3656   3.213   1.856   6.817  0.1391 -0.3221 -0.1183
  915SOL     ow 3657   3.884   3.418   1.676  0.3311 -0.0160  0.0927
  915SOL     hw 3658   3.846   3.339   1.638  0.1909  1.0991 -2.2103
  915SOL     hw 3659   3.978   3.409   1.663  0.3396  0.0725  0.0903
  915SOL     vw 3660   3.892   3.406   1.669  0.3136  0.1428 -0.2115
  916SOL     ow 3661   7.041   2.952   5.050  0.2282 -0.2435 -0.5244
  916SOL     hw 3662   7.035   2.905   4.967 -0.9894  0.9291 -1.1368
  916SOL     hw 3663   7.050   2.883   5.116  1.3627 -1.1827 -1.6105
  916SOL     vw 3664   7.041   2.937   5.048  0.2172 -0.2128 -0.7484
  917SOL     ow 3665   2.272   1.544   4.244  0.3305  0.2088  0.3231
  917SOL     hw 3666   2.211   1.476   4.215 -1.1072  1.6833 -0.3063
  917SOL     hw 3667   2.323   1.565   4.165 -1.8712  2.4763 -0.6067
  917SOL     vw 3668   2.271   1.538   4.230 -0.1496  0.7024  0.1171
  918SOL     ow 3669   6.370   6.120   3.417  0.3023  0.7732  0.1299
  918SOL     hw 3670   6.433   6.156   3.355 -0.7583  0.4140 -1.1959
  918SOL     hw 3671   6.295   6.094   3.364 -0.1033 -0.8208  1.3772
  918SOL     vw 3672   6.369   6.121   3.402  0.1087  0.5157  0.1196
  919SOL     ow 3673   4.995   0.820   5.096  0.8407 -0.2322  0.2237
  919SOL     hw 3674   4.909   0.850   5.125  0.6172 -0.2248 -0.4280
  919SOL     hw 3675   4.993   0.828   5.001  1.5439 -0.2901  0.1944
  919SOL     vw 3676   4.984   0.825   5.088  0.9041 -0.2388  0.1338
  920SOL     ow 3677   4.243   3.388   0.861 -0.1015  0.5761 -0.0862
  920SOL     hw 3678   4.311   3.354   0.803  0.1162  2.2776 -0.8849
  920SOL     hw 3679   4.262   3.349   0.946  0.8352 -0.3063 -0.6772
  920SOL     vw 3680   4.254   3.378   0.864  0.0508  0.6840 -0.2696
  921SOL     ow 3681   0.953   1.595   3.672 -0.1304 -0.0810  0.1349
  921SOL     hw 3682   0.880   1.605   3.611 -1.8343 -3.2961  1.3759
  921SOL     hw 3683   1.031   1.590   3.617 -1.5766 -2.7527 -1.8907
  921SOL     vw 3684   0.954   1.596   3.657 -0.5460 -0.8577  0.0316
  922SOL     ow 3685   3.993   2.864   3.712  0.0089 -0.4746  0.1229
  922SOL     hw 3686   4.036   2.891   3.630 -0.6016 -1.6068 -0.5982
  922SOL     hw 3687   4.055   2.805   3.753 -0.4740 -1.4616 -0.5168
  922SOL     vw 3688   4.007   2.859   3.706 -0.1354 -0.7542 -0.0567
  923SOL     ow 3689   5.641   3.163   2.891 -0.1552  0.2434 -0.0344
  923SOL     hw 3690   5.720   3.167   2.836 -0.3573 -1.3424 -0.5142
  923SOL     hw 3691   5.570   3.149   2.828 -0.4258 -1.3319  0.5707
  923SOL     vw 3692   5.642   3.162   2.875 -0.2177 -0.1737 -0.0178
  924SOL     ow 3693   4.980   6.333   0.563 -0.3236 -0.0702  0.5898
  924SOL     hw 3694   5.053   6.352   0.502 -0.3122  0.3858  0.7436
  924SOL     hw 3695   4.903   6.369   0.519 -0.2017  0.9836  1.1907
  924SOL     vw 3696   4.980   6.341   0.549 -0.3061  0.1290  0.6894
  925SOL     ow 3697   2.763   1.447   5.614  0.1945  0.1858  0.2316
  925SOL     hw 3698   2.786   1.412   5.700  0.8477  1.2652  0.5135
  925SOL     hw 3699   2.818   1.398   5.553  1.4216  0.9713  0.6598
  925SOL     vw 3700   2.773   1.436   5.617  0.4425  0.4318  0.3252
  926SOL     ow 3701   6.235   6.749   1.639  0.4385  0.0342 -0.2306
  926SOL     hw 3702   6.199   6.705   1.716  0.3622  1.6720  0.7183
  926SOL     hw 3703   6.257   6.678   1.578 -1.1194 -1.2045  0.5800
  926SOL     vw 3704   6.233   6.734   1.641  0.2229  0.0870  0.0016
  927SOL     ow 3705   5.207   2.657   5.522  0.1560  0.0689 -0.0660
  927SOL     hw 3706   5.164   2.738   5.548 -1.3012 -0.3881 -0.9133
  927SOL     hw 3707   5.152   2.622   5.452  1.3188 -1.1330 -0.4313
  927SOL     vw 3708   5.194   2.663   5.516  0.1171 -0.1498 -0.2263
  928SOL     ow 3709   3.733   1.826   0.289  0.3757  0.3446 -0.7504
  928SOL     hw 3710   3.745   1.900   0.349  1.2394  0.1609 -0.6914
  928SOL     hw 3711   3.816   1.819   0.242  0.3251 -0.6242 -0.7091
  928SOL     vw 3712   3.745   1.835   0.291  0.4829  0.1925 -0.7372
  929SOL     ow 3713   0.508   0.104   5.152  0.4271 -0.0520 -0.3524
  929SOL     hw 3714   0.429   0.069   5.110  0.9558 -0.8631 -0.6992
  929SOL     hw 3715   0.570   0.118   5.080  1.6616 -2.2991  0.1908
  929SOL     vw 3716   0.506   0.101   5.137  0.6597 -0.4555 -0.3262
  930SOL     ow 3717   3.122   6.554   1.731 -0.2972 -0.5920  0.5068
  930SOL     hw 3718   3.037   6.539   1.688 -0.4933 -0.8874  0.9888
  930SOL     hw 3719   3.157   6.467   1.747 -1.2608 -0.6178  2.9555
  930SOL     vw 3720   3.115   6.541   1.728 -0.4501 -0.6344  0.8935
  931SOL     ow 3721   1.089   1.032   3.105  0.1492 -0.1164  0.4105
  931SOL     hw 3722   1.140   0.987   3.173 -0.4583 -0.3133  0.7368
  931SOL     hw 3723   1.125   1.000   3.023  0.2192 -0.6345  0.6390
  931SOL     vw 3724   1.101   1.022   3.103  0.0783 -0.2107  0.4838
  932SOL     ow 3725   4.602   3.301   6.983  0.1495  0.4871 -0.6268
  932SOL     hw 3726   4.522   3.286   6.933 -0.1422  0.7736 -0.2492
  932SOL     hw 3727   4.673   3.289   6.919 -0.0987 -1.2969 -0.6268
  932SOL     vw 3728   4.601   3.297   6.968  0.0784  0.2896 -0.5770
  933SOL     ow 3729   6.050   3.808   0.485 -1.0958  1.1547 -0.0263
  933SOL     hw 3730   5.957   3.794   0.502 -0.4642 -1.3672  1.9873
  933SOL     hw 3731   6.067   3.896   0.516 -2.4247  0.9047  1.5257
  933SOL     vw 3732   6.040   3.818   0.491 -1.1876  0.7890  0.4442
  934SOL     ow 3733   5.981   2.309   1.949 -0.3607  0.1751  0.5679
  934SOL     hw 3734   5.995   2.266   1.865 -0.2665 -0.0705  0.7050
  934SOL     hw 3735   5.891   2.285   1.974  0.0020 -0.7144  1.0737
  934SOL     vw 3736   5.971   2.300   1.941 -0.3004  0.0252  0.6528
  935SOL     ow 3737   0.810   1.785   3.874 -0.0935  0.7515  0.5771
  935SOL     hw 3738   0.762   1.868   3.862  0.6680  1.5156  2.4760
  935SOL     hw 3739   0.747   1.727   3.917 -0.9776 -0.0934 -1.6806
  935SOL     vw 3740   0.795   1.788   3.878 -0.1097  0.7409  0.5298
  936SOL     ow 3741   2.254   6.062   3.671  0.2361 -0.8080 -0.0710
  936SOL     hw 3742   2.249   6.131   3.605  0.4846 -0.3764  0.3493
  936SOL     hw 3743   2.166   6.025   3.675 -0.3980  0.6919  0.9619
  936SOL     vw 3744   2.242   6.066   3.663  0.1853 -0.5531  0.1208
  937SOL     ow 3745   5.127   5.282   3.559 -0.1911  0.2333  0.3621
  937SOL     hw 3746   5.066   5.285   3.633 -2.7106  0.7267 -1.5732
  937SOL     hw 3747   5.206   5.243   3.594 -2.0744 -1.7635  2.7596
  937SOL     vw 3748   5.129   5.277   3.573 -0.7720  0.0350  0.4231
  938SOL     ow 3749   0.186   5.929   6.494  0.1402  0.4392  0.2762
  938SOL     hw 3750   0.116   5.873   6.461  0.8651 -0.6231  0.4700
  938SOL     hw 3751   0.190   6.002   6.432 -0.3071 -0.1364 -0.4439
  938SOL     vw 3752   0.177   5.931   6.481  0.1768  0.2227  0.2067
  939SOL     ow 3753   1.751   1.540   1.527 -0.2191  0.0076  0.5161
  939SOL     hw 3754   1.762   1.570   1.437 -1.8731 -0.6804  0.0372
  939SOL     hw 3755   1.770   1.446   1.523  0.9948  0.2060  1.1746
  939SOL     vw 3756   1.755   1.531   1.515 -0.2771 -0.0570  0.5397
  940SOL     ow 3757   0.087   6.021   0.011  0.3345  0.4545 -0.4174
  940SOL     hw 3758   0.144   6.096  -0.004 -0.0423  1.1265  1.2832
  940SOL     hw 3759   0.006   6.059   0.046  0.4861 -0.7946  1.4104
  940SOL     vw 3760   0.084   6.036   0.014  0.3048  0.3781  0.0482
  941SOL     ow 3761   5.712   1.123   1.980 -0.2976  0.1268 -0.5534
  941SOL     hw 3762   5.665   1.059   1.927 -0.1116  0.4651 -1.1343
  941SOL     hw 3763   5.679   1.110   2.069 -1.3882  0.2585 -0.9219
  941SOL     vw 3764   5.701   1.113   1.985 -0.4170  0.1888 -0.6787
  942SOL     ow 3765   2.284   1.908   4.969 -0.2804  0.2259  0.4054
  942SOL     hw 3766   2.296   1.814   4.960  1.5774  0.3867  0.7634
  942SOL     hw 3767   2.272   1.922   5.063  0.6010  0.4274  0.5016
  942SOL     vw 3768   2.284   1.898   4.980  0.0811  0.2738  0.4656
  943SOL     ow 3769   0.812   1.241   3.042  0.6485 -0.0430 -0.0253
  943SOL     hw 3770   0.829   1.243   2.948  1.1475  2.6170  0.0336
  943SOL     hw 3771   0.776   1.327   3.062 -2.8589 -1.7102  1.7012
  943SOL     vw 3772   0.810   1.253   3.032  0.2515  0.0880  0.2103
  944SOL     ow 3773   1.604   4.255   0.868 -0.4072  0.7731  0.0060
  944SOL     hw 3774   1.581   4.183   0.809 -0.7018  0.2271  0.7855
  944SOL     hw 3775   1.697   4.244   0.885 -0.3246  0.9220 -0.3298
  944SOL     vw 3776   1.613   4.244   0.862 -0.4352  0.7210  0.0646
  945SOL     ow 3777   6.480   2.543   2.884 -0.1358  0.2164 -0.0164
  945SOL     hw 3778   6.571   2.528   2.911 -1.0045 -2.4132  1.8077
  945SOL     hw 3779   6.432   2.468   2.919 -2.7056  0.4083 -2.7577
  945SOL     vw 3780   6.486   2.531   2.892 -0.5894 -0.1050 -0.1374
  946SOL     ow 3781   0.070   5.922   6.826 -0.6060  0.1297 -0.3372
  946SOL     hw 3782   0.074   5.856   6.756  1.5026 -0.3728  0.1925
  946SOL     hw 3783   0.109   6.001   6.787  0.3989 -0.0948  0.1798
  946SOL     vw 3784   0.076   5.924   6.811 -0.1952  0.0339 -0.1991
  947SOL     ow 3785   1.489   2.531   5.004 -0.0457  0.1517 -0.3799
  947SOL     hw 3786   1.467   2.514   5.095  0.2472  0.8013 -0.1814
  947SOL     hw 3787   1.481   2.625   4.994 -0.2640  0.0680 -1.0829
  947SOL     vw 3788   1.485   2.541   5.015 -0.0359  0.2263 -0.4463
  948SOL     ow 3789   2.917   2.572   5.603 -0.3822 -0.1102 -0.4184
  948SOL     hw 3790   2.870   2.546   5.523 -0.3966  1.1997 -0.8551
  948SOL     hw 3791   2.993   2.513   5.606  0.6307  0.9907 -2.4183
  948SOL     vw 3792   2.921   2.561   5.593 -0.2505  0.2080 -0.7401
  949SOL     ow 3793   3.281   5.286   5.239 -0.5697 -0.2249 -0.3489
  949SOL     hw 3794   3.358   5.233   5.261 -0.5886  0.0807  0.4871
  949SOL     hw 3795   3.316   5.362   5.192 -0.3020  0.1228  0.3919
  949SOL     vw 3796   3.296   5.289   5.236 -0.5368 -0.1390 -0.1409
  950SOL     ow 3797   1.662   1.597   5.657  0.9644  0.2454  0.4018
  950SOL     hw 3798   1.718   1.545   5.714  0.3987  0.2132  0.9400
  950SOL     hw 3799   1.620   1.661   5.715  0.2450  0.1025  0.0581
  950SOL     vw 3800   1.664   1.599   5.672  0.7949  0.2223  0.4275
  951SOL     ow 3801   6.718   1.964   4.494 -0.3551 -0.4688 -0.9224
  951SOL     hw 3802   6.756   1.879   4.475  0.1038 -0.0700 -1.8594
  951SOL     hw 3803   6.750   2.021   4.424 -0.4189  0.5443 -0.1510
  951SOL     vw 3804   6.727   1.960   4.482 -0.3028 -0.2825 -0.9444
  952SOL     ow 3805   0.314   7.115   4.986 -0.1767  0.4897 -0.7681
  952SOL     hw 3806   0.227   7.149   5.007  1.6031  4.0808  1.9791
  952SOL     hw 3807   0.329   7.142   4.895 -1.0827  2.0338 -0.4882
  952SOL     vw 3808   0.305   7.123   4.977 -0.0614  1.1672 -0.3688
  953SOL     ow 3809   0.539   7.030   4.365 -0.4048  0.0971  0.0053
  953SOL     hw 3810   0.549   7.125   4.375  0.9472 -0.2637  3.6426
  953SOL     hw 3811   0.591   7.008   4.288  3.6287  1.8438  1.9517
  953SOL     vw 3812   0.547   7.039   4.356  0.3058  0.2799  0.7420
  954SOL     ow 3813   1.059   0.246   6.203 -0.4471  0.3751 -0.5399
  954SOL     hw 3814   0.996   0.311   6.173 -0.4367  2.3855  3.2590
  954SOL     hw 3815   1.006   0.171   6.230 -0.7044  0.0011 -1.9788
  954SOL     vw 3816   1.044   0.245   6.202 -0.4798  0.5910 -0.2286
  955SOL     ow 3817   5.420   2.423   1.395  0.1207  0.0631  0.4963
  955SOL     hw 3818   5.330   2.415   1.363  0.7015 -2.1055 -0.7901
  955SOL     hw 3819   5.471   2.444   1.317  0.7825  1.2264  1.2099
  955SOL     vw 3820   5.415   2.425   1.381  0.2847 -0.0696  0.4207
  956SOL     ow 3821   3.579   5.920   2.983 -0.5753  0.0734 -0.1496
  956SOL     hw 3822   3.629   5.924   2.902 -1.9724 -1.0582 -1.1021
  956SOL     hw 3823   3.645   5.935   3.052  0.9671 -0.7620 -1.3755
  956SOL     vw 3824   3.594   5.923   2.982 -0.5561 -0.1862 -0.4370
  957SOL     ow 3825   2.919   6.945   3.950 -0.9648 -0.0834 -0.2263
  957SOL     hw 3826   2.953   6.856   3.936 -0.0384  0.5841 -2.7592
  957SOL     hw 3827   2.968   6.976   4.026  1.1735 -0.6456 -1.2727
  957SOL     vw 3828   2.930   6.937   3.958 -0.5605 -0.0694 -0.6986
  958SOL     ow 3829   5.930   1.078   6.743 -0.8525 -0.7089  0.0088
  958SOL     hw 3830   5.838   1.104   6.738 -0.7391 -0.1550  0.5587
  958SOL     hw 3831   5.934   0.994   6.698 -1.1712  0.3611 -2.1602
  958SOL     vw 3832   5.919   1.070   6.737 -0.8798 -0.4946 -0.2048
  959SOL     ow 3833   3.344   5.972   6.087 -0.1601 -0.2112  0.2361
  959SOL     hw 3834   3.278   6.036   6.061  1.0807  1.4270  0.9678
  959SOL     hw 3835   3.298   5.914   6.149 -0.5047  2.0397  2.2388
  959SOL     vw 3836   3.329   5.973   6.092 -0.0420  0.3018  0.5968
  960SOL     ow 3837   3.559   3.119   3.012 -0.1835 -0.0569  0.1386
  960SOL     hw 3838   3.547   3.141   3.105 -0.2973 -3.0741  0.9632
  960SOL     hw 3839   3.654   3.107   3.003 -0.3653 -3.1696  0.9233
  960SOL     vw 3840   3.570   3.120   3.023 -0.2226 -0.8657  0.3510
  961SOL     ow 3841   5.319   2.702   5.816  0.2527 -0.1000 -0.3675
  961SOL     hw 3842   5.392   2.759   5.840 -0.8684  1.6853 -0.9739
  961SOL     hw 3843   5.247   2.762   5.796 -1.5859 -1.7899  0.7549
  961SOL     vw 3844   5.319   2.718   5.816 -0.1378 -0.0874 -0.2997
  962SOL     ow 3845   0.970   3.063   2.923  0.0629 -0.2381  0.4468
  962SOL     hw 3846   1.034   3.134   2.918  0.6052 -0.8100 -1.0922
  962SOL     hw 3847   0.949   3.057   3.017  1.1688  0.9125  0.7963
  962SOL     vw 3848   0.975   3.071   2.935  0.2804 -0.1618  0.2899
  963SOL     ow 3849   3.447   2.411   1.663 -0.2422  0.2670  0.1591
  963SOL     hw 3850   3.406   2.349   1.724 -2.6088  0.8808 -0.7013
  963SOL     hw 3851   3.461   2.490   1.716 -0.8330  0.2801  0.3045
  963SOL     vw 3852   3.443   2.413   1.678 -0.6324  0.3496  0.0647
  964SOL     ow 3853   6.886   6.256   3.993  0.0104 -0.0194 -0.0266
  964SOL     hw 3854   6.811   6.258   3.934 -0.0039 -1.3267 -0.0910
  964SOL     hw 3855   6.876   6.334   4.048 -2.2929 -0.9569  1.0320
  964SOL     vw 3856   6.875   6.266   3.993 -0.2954 -0.3159  0.1045
  965SOL     ow 3857   6.770   3.432   6.281 -0.6825 -0.1011 -0.1804
  965SOL     hw 3858   6.840   3.493   6.303  0.5609 -2.2752  2.5894
  965SOL     hw 3859   6.718   3.477   6.215  2.9977  1.8536 -2.0318
  965SOL     vw 3860   6.773   3.446   6.275 -0.0329 -0.1302 -0.0591
  966SOL     ow 3861   6.337   6.326   1.804 -0.2155  0.5444  0.1344
  966SOL     hw 3862   6.316   6.235   1.823 -1.2905  0.7047 -0.2118
  966SOL     hw 3863   6.321   6.372   1.887 -2.1841  0.8029 -0.3446
  966SOL     vw 3864   6.332   6.320   1.817 -0.6173  0.5996  0.0256
  967SOL     ow 3865   2.072   5.585   6.148 -0.2628 -0.4062 -0.3045
  967SOL     hw 3866   2.061   5.495   6.177 -2.0041 -0.2268 -0.3213
  967SOL     hw 3867   2.071   5.637   6.228 -1.8286 -0.2029 -0.4212
  967SOL     vw 3868   2.070   5.580   6.162 -0.6992 -0.3552 -0.3221
  968SOL     ow 3869   1.038   6.830   5.382  0.2349 -0.4284 -0.1720
  968SOL     hw 3870   1.060   6.737   5.386 -2.1476 -1.0885 -0.8295
  968SOL     hw 3871   0.966   6.835   5.320 -0.0337  1.8142  0.2307
  968SOL     vw 3872   1.032   6.818   5.374 -0.1148 -0.2193 -0.2055
  969SOL     ow 3873   6.242   2.706   1.702  0.2386 -0.4772  0.4276
  969SOL     hw 3874   6.225   2.712   1.608  1.5534  0.9964  0.2431
  969SOL     hw 3875   6.316   2.765   1.717  0.4117 -1.1043  2.3064
  969SOL     vw 3876   6.250   2.715   1.692  0.4351 -0.3655  0.6511
  970SOL     ow 3877   4.663   2.607   5.781 -0.3969  0.4004 -0.7488
  970SOL     hw 3878   4.740   2.554   5.796 -0.6074 -0.4619 -2.4392
  970SOL     hw 3879   4.636   2.636   5.868  0.7807 -0.7530  0.0378
  970SOL     vw 3880   4.669   2.604   5.794 -0.2689  0.1345 -0.8681
  971SOL     ow 3881   6.871   2.137   5.597 -0.0464  0.0533 -0.0916
  971SOL     hw 3882   6.825   2.053   5.596 -0.7768  0.4406 -1.7353
  971SOL     hw 3883   6.802   2.203   5.602  0.4020  0.5916 -0.7115
  971SOL     vw 3884   6.856   2.135   5.598 -0.0834  0.1755 -0.3901
  972SOL     ow 3885   3.122   3.131   2.151 -0.6921 -0.0708  0.1474
  972SOL     hw 3886   3.046   3.103   2.101 -0.6212  1.9964 -1.2326
  972SOL     hw 3887   3.195   3.080   2.115 -0.6515  1.3356 -1.9395
  972SOL     vw 3888   3.122   3.121   2.140 -0.6773  0.3874 -0.3099
  973SOL     ow 3889   1.103   6.736   1.865  0.2769  0.6081  0.2786
  973SOL     hw 3890   1.191   6.697   1.864 -0.1047 -0.2955  1.0134
  973SOL     hw 3891   1.050   6.675   1.916 -0.7728  1.1783 -0.1072
  973SOL     vw 3892   1.108   6.723   1.872  0.0882  0.5641  0.3246
  974SOL     ow 3893   5.865   5.137   5.442 -0.1358 -0.1219 -0.4245
  974SOL     hw 3894   5.827   5.163   5.526 -2.7176  0.7892 -1.7732
  974SOL     hw 3895   5.888   5.045   5.454 -1.6662 -0.3761  0.9081
  974SOL     vw 3896   5.863   5.128   5.455 -0.6785 -0.0353 -0.4265
  975SOL     ow 3897   4.388   1.637   1.367 -0.5792  0.5809 -0.6935
  975SOL     hw 3898   4.310   1.600   1.327 -0.8058  0.2252  0.0671
  975SOL     hw 3899   4.444   1.561   1.384  0.4145  0.9136 -2.1964
  975SOL     vw 3900   4.385   1.622   1.364 -0.4778  0.5778 -0.7914
  976SOL     ow 3901   5.132   4.744   6.474  0.2369 -0.8666 -0.1294
  976SOL     hw 3902   5.093   4.714   6.392 -0.6044 -1.7545  0.5816
  976SOL     hw 3903   5.194   4.675   6.498  0.8170 -0.3933 -0.2362
  976SOL     vw 3904   5.135   4.731   6.466  0.2024 -0.9215 -0.0496
  977SOL     ow 3905   6.147   2.873   0.355  0.1934  0.0209  0.1211
  977SOL     hw 3906   6.175   2.834   0.438  0.4250 -0.3879 -0.1453
  977SOL     hw 3907   6.133   2.965   0.376  2.2111  0.3538  0.1615
  977SOL     vw 3908   6.149   2.880   0.369  0.4902  0.0111  0.0913
  978SOL     ow 3909   5.217   1.572   4.742  0.3736 -0.2427  0.1647
  978SOL     hw 3910   5.187   1.624   4.668 -2.1608 -0.2933  1.0657
  978SOL     hw 3911   5.302   1.609   4.765  0.4572  0.8359 -1.6997
  978SOL     vw 3912   5.224   1.584   4.735  0.0503 -0.1071  0.0374
  979SOL     ow 3913   3.006   5.866   3.420 -0.5562 -0.0933 -0.5849
  979SOL     hw 3914   3.063   5.908   3.484 -1.8956  0.0905  0.5237
  979SOL     hw 3915   2.935   5.827   3.472 -0.7006 -1.5577 -1.7934
  979SOL     vw 3916   3.004   5.866   3.435 -0.7517 -0.2620 -0.5982
  980SOL     ow 3917   3.859   1.050   1.286  0.2721  0.0308  0.4080
  980SOL     hw 3918   3.904   0.986   1.340 -0.4675 -2.0867 -1.3377
  980SOL     hw 3919   3.858   1.130   1.339  2.8628 -0.8294  1.9177
  980SOL     vw 3920   3.865   1.052   1.300  0.5163 -0.3620  0.3769
  981SOL     ow 3921   6.320   2.974   2.331  0.4592  0.3622  0.0389
  981SOL     hw 3922   6.384   2.904   2.317 -1.1183 -1.3571  1.0005
  981SOL     hw 3923   6.259   2.967   2.258  0.2359  0.6976  0.1903
  981SOL     vw 3924   6.320   2.964   2.320  0.2217  0.1799  0.1857
  982SOL     ow 3925   4.608   6.470   2.839  0.0746  0.0126  0.0414
  982SOL     hw 3926   4.559   6.538   2.885 -2.7640 -1.3243 -0.7923
  982SOL     hw 3927   4.542   6.407   2.812  2.3761 -2.2515 -0.6961
  982SOL     vw 3928   4.593   6.471   2.842  0.0038 -0.4628 -0.1659
  983SOL     ow 3929   5.436   7.038   3.921 -0.0919  0.0962  0.5304
  983SOL     hw 3930   5.387   7.114   3.889  1.3044  1.0813  0.6221
  983SOL     hw 3931   5.409   6.966   3.865 -0.4992  0.9580 -0.4005
  983SOL     vw 3932   5.426   7.039   3.910  0.0386  0.3400  0.4197
  984SOL     ow 3933   4.874   3.324   0.006 -0.3849 -0.0097  0.5295
  984SOL     hw 3934   4.891   3.305  -0.086  0.5651  0.6711  0.5474
  984SOL     hw 3935   4.894   3.242   0.051 -1.3059 -0.4904  0.1019
  984SOL     vw 3936   4.879   3.311  -0.000 -0.3815  0.0166  0.4752
  985SOL     ow 3937   5.312   6.989   2.123 -0.0197 -0.2790 -0.3070
  985SOL     hw 3938   5.394   7.031   2.151 -0.8314  1.3714 -0.2953
  985SOL     hw 3939   5.260   7.060   2.086 -1.5155 -1.2786 -0.2012
  985SOL     vw 3940   5.316   7.004   2.121 -0.3240 -0.1934 -0.2915
  986SOL     ow 3941   2.670   4.923   4.826 -0.4776 -0.3639 -0.1078
  986SOL     hw 3942   2.732   4.996   4.836 -0.6106  0.3421 -3.5156
  986SOL     hw 3943   2.591   4.953   4.870  0.0118  0.8353  0.0010
  986SOL     vw 3944   2.668   4.936   4.833 -0.4305 -0.1125 -0.5431
  987SOL     ow 3945   5.591   3.492   1.664  0.2054  0.1569 -0.2117
  987SOL     hw 3946   5.618   3.456   1.748 -0.4399  1.3216  0.5322
  987SOL     hw 3947   5.558   3.417   1.614 -1.7974 -0.2052  1.5501
  987SOL     vw 3948   5.590   3.478   1.668 -0.1440  0.2627  0.1188
  988SOL     ow 3949   4.370   6.582   0.817 -0.5164  0.4713  0.3791
  988SOL     hw 3950   4.452   6.603   0.861 -0.2103  0.5868 -0.2314
  988SOL     hw 3951   4.333   6.668   0.793 -0.7511  0.4160  0.5477
  988SOL     vw 3952   4.376   6.596   0.819 -0.5066  0.4792  0.3208
  989SOL     ow 3953   1.496   1.124   6.508  0.3042 -0.1485  0.1304
  989SOL     hw 3954   1.537   1.114   6.595 -1.8566 -1.4700  1.0759
  989SOL     hw 3955   1.408   1.154   6.526  0.4031  1.4776 -1.7885
  989SOL     vw 3956   1.490   1.126   6.522  0.0322 -0.1082  0.0019
  990SOL     ow 3957   2.710   0.144   5.670  0.7772 -0.1406  0.2754
  990SOL     hw 3958   2.692   0.085   5.597  1.7771 -0.4873  0.2897
  990SOL     hw 3959   2.624   0.170   5.702  0.3236 -0.3912 -0.6958
  990SOL     vw 3960   2.696   0.140   5.664  0.8492 -0.2194  0.1490
  991SOL     ow 3961   3.986   2.945   0.633 -0.4954 -0.2278 -0.4385
  991SOL     hw 3962   3.907   2.926   0.682  0.1376  1.4592  1.3903
  991SOL     hw 3963   3.956   2.987   0.553 -1.4679  2.0374  1.0329
  991SOL     vw 3964   3.972   2.948   0.629 -0.5403  0.2936 -0.0031
  992SOL     ow 3965   6.031   0.067   2.435 -0.3680 -0.4222 -0.1876
  992SOL     hw 3966   6.087   0.109   2.500  0.4120 -1.2366 -0.3279
  992SOL     hw 3967   5.999  -0.012   2.478  0.3251 -1.0789 -0.8591
  992SOL     vw 3968   6.034   0.062   2.449 -0.1738 -0.6164 -0.2947
  993SOL     ow 3969   4.446   6.998   4.683 -0.0460 -0.7475  0.0738
  993SOL     hw 3970   4.467   7.059   4.613  0.9464  0.4514  1.3697
  993SOL     hw 3971   4.397   7.050   4.747  0.2332 -1.4708  0.8992
  993SOL     vw 3972   4.442   7.013   4.683  0.1216 -0.6845  0.3538
  994SOL     ow 3973   6.011   3.971   4.230  0.0539  0.0587  0.2221
  994SOL     hw 3974   6.018   3.906   4.161 -1.1569 -0.3074  0.4306
  994SOL     hw 3975   5.920   3.968   4.258 -0.0365  1.8293  0.2624
  994SOL     vw 3976   6.000   3.962   4.225 -0.1178  0.2439  0.2551
  995SOL     ow 3977   5.717   3.293   1.000 -0.1533 -0.4825  0.8483
  995SOL     hw 3978   5.714   3.261   1.090  1.7582 -1.8336  0.4981
  995SOL     hw 3979   5.799   3.343   0.994 -0.6901  0.3378  0.0787
  995SOL     vw 3980   5.728   3.295   1.011  0.0281 -0.5525  0.7005
  996SOL     ow 3981   1.007   5.799   5.094  0.2976  0.6013  0.6888
  996SOL     hw 3982   0.983   5.750   5.172  0.8539 -1.9696 -0.6513
  996SOL     hw 3983   1.103   5.791   5.089  0.1230 -1.2986 -1.3810
  996SOL     vw 3984   1.017   5.792   5.104  0.3480  0.0117  0.2391
  997SOL     ow 3985   6.003   5.394   0.397 -0.3299 -0.1137 -0.4242
  997SOL     hw 3986   6.035   5.402   0.487 -0.0232  0.5094 -0.5834
  997SOL     hw 3987   6.059   5.453   0.346 -2.6114  2.1175 -0.5068
  997SOL     vw 3988   6.015   5.402   0.402 -0.5908  0.2627 -0.4561
  998SOL     ow 3989   2.234   4.699   5.257  0.4078 -0.6360  0.4167
  998SOL     hw 3990   2.327   4.695   5.236  0.4147  1.1288 -0.0222
  998SOL     hw 3991   2.230   4.745   5.341 -0.0948  0.4374 -0.1611
  998SOL     vw 3992   2.246   4.705   5.265  0.3422 -0.2615  0.2825
  999SOL     ow 3993   4.014   3.449   1.220  0.2549  0.0783 -0.5278
  999SOL     hw 3994   3.967   3.383   1.272  0.6045 -1.6170 -2.2354
  999SOL     hw 3995   4.054   3.507   1.285 -0.2249 -1.2837  1.0550
  999SOL     vw 3996   4.013   3.448   1.236  0.2379 -0.3251 -0.5443
 1000SOL     ow 3997   6.911   3.052   0.248  0.0056 -0.0906 -0.1737
 1000SOL     hw 3998   6.894   3.014   0.334  0.7793 -0.0446  0.0057
 1000SOL     hw 3999   6.924   2.977   0.190  0.2793 -0.1071 -0.0873
 1000SOL     vw 4000   6.910   3.037   0.252  0.1440 -0.0868 -0.1387
 1001SOL     ow 4001   3.291   4.392   2.213 -0.4254  0.1663  0.3079
 1001SOL     hw 4002   3.322   4.427   2.296  0.5252 -0.3799  0.2022
 1001SOL     hw 4003   3.210   4.440   2.195 -1.7227 -1.0710  2.5025
 1001SOL     vw 4004   3.284   4.403   2.222 -0.4711 -0.0691  0.5834
 1002SOL     ow 4005   3.352   4.225   1.203 -0.2489  0.2376 -0.2862
 1002SOL     hw 4006   3.299   4.148   1.225 -1.9069  1.7147  1.2865
 1002SOL     hw 4007   3.329   4.245   1.112 -1.2929 -0.0317 -0.0989
 1002SOL     vw 4008   3.342   4.217   1.194 -0.6053  0.3967 -0.0540
 1003SOL     ow 4009   1.355   3.894   1.313 -0.1785 -0.2405  0.2569
 1003SOL     hw 4010   1.418   3.825   1.296  0.5268  0.4807 -0.1302
 1003SOL     hw 4011   1.318   3.915   1.227 -1.6110 -1.2514  0.5844
 1003SOL     vw 4012   1.358   3.888   1.299 -0.2744 -0.2788  0.2490
 1004SOL     ow 4013   6.214   3.805   6.138 -0.4693 -0.5457 -0.0414
 1004SOL     hw 4014   6.204   3.824   6.045  0.2716  1.8122  0.2931
 1004SOL     hw 4015   6.253   3.884   6.175 -1.4687 -1.1029  2.4259
 1004SOL     vw 4016   6.218   3.818   6.130 -0.5035 -0.3082  0.3283
 1005SOL     ow 4017   7.016   2.940   1.369 -1.0453 -0.3359 -0.6461
 1005SOL     hw 4018   6.957   3.005   1.334 -1.7741  0.3256  1.6192
 1005SOL     hw 4019   6.967   2.898   1.439  1.4312  1.0612  2.1759
 1005SOL     vw 4020   7.002   2.943   1.374 -0.8147 -0.0643  0.0252
 1006SOL     ow 4021   1.785   5.433   0.124  0.0075  0.0581  0.0125
 1006SOL     hw 4022   1.727   5.376   0.176 -0.5357  0.8874  0.3357
 1006SOL     hw 4023   1.804   5.382   0.045  2.2345 -1.9613  1.6982
 1006SOL     vw 4024   1.780   5.419   0.120  0.2296 -0.0989  0.2775
 1007SOL     ow 4025   3.460   0.742   1.288  0.5166 -0.6616 -0.1531
 1007SOL     hw 4026   3.541   0.746   1.338  1.0275  0.5579 -1.0384
 1007SOL     hw 4027   3.433   0.650   1.295  1.4197 -0.8659  0.9973
 1007SOL     vw 4028   3.467   0.730   1.295  0.7032 -0.5276 -0.1181
 1008SOL     ow 4029   0.750   6.841   0.493 -0.1195 -0.1594  0.2904
 1008SOL     hw 4030   0.749   6.754   0.532 -0.3533 -0.5157 -0.4933
 1008SOL     hw 4031   0.668   6.846   0.444  0.7081 -0.1995 -1.1627
 1008SOL     vw 4032   0.739   6.830   0.491 -0.0411 -0.2115 -0.0047
 1009SOL     ow 4033   3.284   6.898   1.210  0.0134 -0.0511 -0.1745
 1009SOL     hw 4034   3.273   6.942   1.126  0.3621  0.6943  0.1606
 1009SOL     hw 4035   3.378   6.885   1.218 -0.0629 -0.6057 -0.1363
 1009SOL     vw 4036   3.295   6.902   1.200  0.0495 -0.0255 -0.1252
 1010SOL     ow 4037   1.132   1.735   3.128  0.7861  0.0575  0.2791
 1010SOL     hw 4038   1.187   1.809   3.103 -1.3999  1.0525 -2.1155
 1010SOL     hw 4039   1.089   1.763   3.209 -0.2866  1.6338 -0.7851
 1010SOL     vw 4040   1.134   1.749   3.135  0.3561  0.3967 -0.1773
 1011SOL     ow 4041   2.939   7.084   6.578 -0.4604 -0.3939  0.4475
 1011SOL     hw 4042   2.915   7.027   6.505  0.6927 -0.7448  0.3258
 1011SOL     hw 4043   2.860   7.135   6.595 -1.4887 -1.9556  0.5103
 1011SOL     vw 4044   2.926   7.083   6.570 -0.4439 -0.6461  0.4399
 1012SOL     ow 4045   0.663   4.884   6.586  0.2486  0.5410  0.1004
 1012SOL     hw 4046   0.585   4.938   6.570  0.2636  1.0704  1.6677
 1012SOL     hw 4047   0.636   4.822   6.654  0.7672 -0.2989 -0.4269
 1012SOL     vw 4048   0.649   4.883   6.593  0.3190  0.5000  0.2375
 1013SOL     ow 4049   6.723   0.961   0.743 -0.2293 -0.3968  0.1545
 1013SOL     hw 4050   6.670   0.886   0.718  2.0112 -2.1734  0.3992
 1013SOL     hw 4051   6.785   0.972   0.670  1.2626 -0.5887  1.3452
 1013SOL     vw 4052   6.724   0.953   0.730  0.2632 -0.6565  0.3439
 1014SOL     ow 4053   0.481   3.892   5.502  0.0128 -0.2028  0.2970
 1014SOL     hw 4054   0.517   3.976   5.471  0.6061 -0.3489  0.5640
 1014SOL     hw 4055   0.492   3.833   5.427  1.3206 -0.5199  0.7036
 1014SOL     vw 4056   0.487   3.895   5.488  0.2637 -0.2639  0.3860
 1015SOL     ow 4057   2.974   4.984   4.146  0.4065 -0.4997  0.1944
 1015SOL     hw 4058   2.980   5.052   4.214 -0.0496  0.4433 -0.6883
 1015SOL     hw 4059   3.000   5.028   4.066 -4.6006  0.1534 -1.4142
 1015SOL     vw 4060   2.978   4.999   4.145 -0.3142 -0.2892 -0.1340
 1016SOL     ow 4061   7.040   2.624   6.765 -0.5037  0.0846 -0.3499
 1016SOL     hw 4062   7.065   2.537   6.796 -0.9316 -0.2451 -0.9098
 1016SOL     hw 4063   7.093   2.684   6.818 -0.7411 -0.4775  0.5593
 1016SOL     vw 4064   7.051   2.620   6.776 -0.5915 -0.0330 -0.3037
 1017SOL     ow 4065   6.872   4.260   1.003 -0.0297 -0.3018 -0.3363
 1017SOL     hw 4066   6.811   4.273   1.076  0.8319  0.0857  0.3363
 1017SOL     hw 4067   6.932   4.193   1.034  1.3575  1.0338  0.0021
 1017SOL     vw 4068   6.871   4.253   1.017  0.2670 -0.0744 -0.2028
 1018SOL     ow 4069   6.658   6.919   2.552 -0.4487 -0.9022  0.1654
 1018SOL     hw 4070   6.676   6.943   2.461 -0.4237  1.8007  0.7888
 1018SOL     hw 4071   6.631   6.828   2.547  1.3859 -1.4395 -2.2955
 1018SOL     vw 4072   6.657   6.910   2.539 -0.2034 -0.6163 -0.0770
 1019SOL     ow 4073   6.829   0.509   0.785  0.5354  0.1106 -0.1365
 1019SOL     hw 4074   6.825   0.446   0.858  1.2870 -1.5273 -1.4359
 1019SOL     hw 4075   6.738   0.518   0.756  0.1356  1.2911  1.3864
 1019SOL     vw 4076   6.816   0.502   0.791  0.5817  0.0502 -0.1070
 1020SOL     ow 4077   2.290   6.765   2.238  0.8367 -0.6530 -0.0063
 1020SOL     hw 4078   2.307   6.857   2.258  2.8133 -1.2910  1.5598
 1020SOL     hw 4079   2.292   6.761   2.142  2.2299  0.7213 -0.0831
 1020SOL     vw 4080   2.293   6.777   2.228  1.2814 -0.5558  0.1901
 1021SOL     ow 4081   4.252   2.258   3.442  0.1418 -0.4929  0.1516
 1021SOL     hw 4082   4.160   2.276   3.457  0.0785 -0.7663  0.1003
 1021SOL     hw 4083   4.297   2.298   3.517 -0.0980 -1.1189  0.6465
 1021SOL     vw 4084   4.246   2.266   3.454  0.1016 -0.6115  0.2102
 1022SOL     ow 4085   3.172   5.249   4.219 -0.2250  0.0685  0.4628
 1022SOL     hw 4086   3.185   5.181   4.286 -1.0380 -0.9148 -0.3447
 1022SOL     hw 4087   3.214   5.213   4.141  0.7166  1.2088  0.4227
 1022SOL     vw 4088   3.180   5.235   4.218 -0.2080  0.0892  0.3510
 1023SOL     ow 4089   6.702   3.775   2.632  0.0611  0.0505  0.4037
 1023SOL     hw 4090   6.653   3.742   2.556  0.3228 -1.4792  0.8837
 1023SOL     hw 4091   6.779   3.719   2.637 -0.3268 -0.3623  2.2463
 1023SOL     vw 4092   6.706   3.764   2.622  0.0443 -0.2058  0.7101
 1024SOL     ow 4093   5.941   5.229   3.224  0.1905 -0.3988 -0.3616
 1024SOL     hw 4094   5.864   5.259   3.176  1.3760  1.7620 -1.0478
 1024SOL     hw 4095   5.913   5.229   3.316 -0.4415  1.0039 -0.5359
 1024SOL     vw 4096   5.927   5.233   3.230  0.2637  0.0713 -0.4750
 1025SOL     ow 4097   4.990   1.478   6.088  0.1746 -0.6409  0.0193
 1025SOL     hw 4098   5.033   1.529   6.157  0.7717 -0.2557 -0.6197
 1025SOL     hw 4099   4.944   1.542   6.034 -0.9375 -1.0181  0.4900
 1025SOL     vw 4100   4.990   1.493   6.090  0.1066 -0.6399 -0.0031
 1026SOL     ow 4101   6.732   5.576   5.641  0.1581  0.1388 -0.7447
 1026SOL     hw 4102   6.688   5.498   5.673  0.1559  1.0539  1.7701
 1026SOL     hw 4103   6.741   5.632   5.719 -0.4913  2.9702 -2.5347
 1026SOL     vw 4104   6.728   5.573   5.656  0.0720  0.6330 -0.6490
 1027SOL     ow 4105   5.102   5.174   4.587  0.3327  0.5222 -0.6794
 1027SOL     hw 4106   5.074   5.101   4.532  0.2724 -1.1137  1.3616
 1027SOL     hw 4107   5.118   5.134   4.673  1.2134  2.7767  0.2886
 1027SOL     vw 4108   5.100   5.159   4.591  0.4411  0.6037 -0.2825
 1028SOL     ow 4109   2.097   5.715   4.608  0.7045 -0.9690  0.0776
 1028SOL     hw 4110   2.154   5.752   4.675 -1.8745  1.0803  1.3048
 1028SOL     hw 4111   2.114   5.767   4.530  0.0056  0.1852  0.6708
 1028SOL     vw 4112   2.107   5.726   4.606  0.2720 -0.5462  0.3181
 1029SOL     ow 4113   3.622   3.633   3.232  0.1997 -0.0219  0.2860
 1029SOL     hw 4114   3.657   3.721   3.219  1.3163 -0.4830  0.1099
 1029SOL     hw 4115   3.535   3.636   3.190 -0.4803  1.4462  1.6793
 1029SOL     vw 4116   3.615   3.645   3.225  0.2574  0.1111  0.4466
 1030SOL     ow 4117   2.410   5.581   6.032  0.5786 -0.7374  0.3749
 1030SOL     hw 4118   2.476   5.554   6.096  2.0643  2.5939  0.4460
 1030SOL     hw 4119   2.457   5.587   5.949  0.1877  0.7162  0.2239
 1030SOL     vw 4120   2.425   5.578   6.030  0.7231 -0.1059  0.3643
 1031SOL     ow 4121   3.894   1.652   3.573  0.8497 -0.2659 -0.6027
 1031SOL     hw 4122   3.800   1.655   3.589  1.2166  1.7687  1.7170
 1031SOL     hw 4123   3.910   1.720   3.508  0.8494  0.3758  0.0539
 1031SOL     vw 4124   3.884   1.661   3.567  0.8980  0.0872 -0.2102
 1032SOL     ow 4125   2.928   0.290   6.039  0.5051 -0.4290 -0.0844
 1032SOL     hw 4126   3.013   0.312   6.076  0.3519  2.7708 -1.3136
 1032SOL     hw 4127   2.948   0.250   5.955  0.7681 -1.7321  0.5744
 1032SOL     vw 4128   2.942   0.288   6.033  0.5196 -0.1787 -0.1595
 1033SOL     ow 4129   2.048   0.588   2.736 -0.2494 -0.3851 -0.4488
 1033SOL     hw 4130   2.125   0.630   2.699 -1.1029  1.6721 -0.0021
 1033SOL     hw 4131   1.998   0.557   2.660  0.8708 -1.5528 -0.7430
 1033SOL     vw 4132   2.051   0.589   2.721 -0.2143 -0.2677 -0.4288
 1034SOL     ow 4133   5.713   7.015   1.844 -0.6038 -0.5033 -0.0230
 1034SOL     hw 4134   5.753   6.999   1.930 -0.9922 -0.2272  0.2125
 1034SOL     hw 4135   5.636   7.069   1.863  0.0446  0.6807 -0.6836
 1034SOL     vw 4136   5.708   7.020   1.858 -0.5693 -0.3104 -0.0791
 1035SOL     ow 4137   4.140   6.487   3.196  0.2360  0.1418 -0.1467
 1035SOL     hw 4138   4.065   6.520   3.147 -0.0588  0.1919  0.3322
 1035SOL     hw 4139   4.123   6.394   3.208 -0.3798  0.3767  1.0389
 1035SOL     vw 4140   4.128   6.479   3.191  0.1159  0.1793  0.0730
 1036SOL     ow 4141   5.979   0.676   6.120  0.3014  0.5418  0.5535
 1036SOL     hw 4142   6.024   0.598   6.153 -2.1788 -0.5644  1.6211
 1036SOL     hw 4143   5.922   0.643   6.051  0.4284  1.7204 -0.1276
 1036SOL     vw 4144   5.978   0.661   6.115 -0.0091  0.5513  0.6044
 1037SOL     ow 4145   1.735   4.255   1.291  0.2073  0.2931 -0.1474
 1037SOL     hw 4146   1.815   4.251   1.239  0.7509  0.7185  0.6338
 1037SOL     hw 4147   1.760   4.302   1.370 -0.5645 -0.4920  0.5859
 1037SOL     vw 4148   1.749   4.261   1.295  0.1771  0.2458  0.0524
 1038SOL     ow 4149   1.111   2.605   4.951 -0.4071 -0.4683 -0.1075
 1038SOL     hw 4150   1.038   2.616   5.012 -0.0800 -1.1847  0.4157
 1038SOL     hw 4151   1.085   2.656   4.874 -0.2138  1.6118  1.1286
 1038SOL     vw 4152   1.098   2.613   4.949 -0.3384 -0.2884  0.1247
 1039SOL     ow 4153   6.660   5.745   3.557  0.3555 -0.6069 -0.0718
 1039SOL     hw 4154   6.634   5.705   3.475  0.1941 -0.4581 -0.0944
 1039SOL     hw 4155   6.744   5.788   3.537  0.1993 -0.3675 -0.2227
 1039SOL     vw 4156   6.668   5.746   3.544  0.3135 -0.5555 -0.0947
 1040SOL     ow 4157   5.342   0.205   3.352 -0.6252  0.0345  0.4372
 1040SOL     hw 4158   5.344   0.295   3.386 -1.9157  0.3717 -0.3081
 1040SOL     hw 4159   5.423   0.197   3.302 -1.1555  1.3042 -0.6939
 1040SOL     vw 4160   5.353   0.216   3.350 -0.8655  0.2465  0.1897
 1041SOL     ow 4161   2.937   1.396   4.305  0.3088 -0.1034 -0.1396
 1041SOL     hw 4162   2.876   1.398   4.379  0.3649 -0.6168 -0.0792
 1041SOL     hw 4163   2.986   1.478   4.312  2.1701 -1.2669  1.9498
 1041SOL     vw 4164   2.935   1.407   4.316  0.5618 -0.3247  0.1442
 1042SOL     ow 4165   5.574   2.052   2.943  0.0440  0.1670 -0.1527
 1042SOL     hw 4166   5.636   2.107   2.989  0.6593 -0.6740  0.0524
 1042SOL     hw 4167   5.627   2.002   2.881 -0.4931 -0.1795 -0.3471
 1042SOL     vw 4168   5.589   2.053   2.941  0.0541  0.0105 -0.1513
 1043SOL     ow 4169   2.659   2.173   2.509  0.4771 -0.4003 -0.5153
 1043SOL     hw 4170   2.629   2.258   2.476  1.1191 -0.5341 -1.4846
 1043SOL     hw 4171   2.687   2.190   2.599 -0.1485  0.2441 -0.4342
 1043SOL     vw 4172   2.659   2.186   2.517  0.4793 -0.3330 -0.6325
 1044SOL     ow 4173   3.317   5.479   4.112 -0.3530  0.0783 -0.3857
 1044SOL     hw 4174   3.243   5.485   4.052  0.3881 -0.6121 -1.4266
 1044SOL     hw 4175   3.348   5.569   4.122 -1.1362  0.3249 -0.1988
 1044SOL     vw 4176   3.312   5.492   4.105 -0.3586  0.0196 -0.4985
 1045SOL     ow 4177   0.398   6.057   2.056  0.2564  0.2378 -0.3417
 1045SOL     hw 4178   0.398   6.141   2.101  0.8029 -0.0035  0.1195
 1045SOL     hw 4179   0.354   6.074   1.973  0.1221  0.9148 -0.1349
 1045SOL     vw 4180   0.392   6.070   2.051  0.3108  0.2954 -0.2536
 1046SOL     ow 4181   1.701   3.542   7.081  0.6419  0.0990 -0.0643
 1046SOL     hw 4182   1.629   3.595   7.115  0.8185  0.7631 -0.7084
 1046SOL     hw 4183   1.718   3.478   7.151 -1.2490 -0.7531 -0.3153
 1046SOL     vw 4184   1.694   3.541   7.095  0.4157  0.0741 -0.1824
 1047SOL     ow 4185   4.528   2.042   4.212 -0.0526  0.2244  0.6533
 1047SOL     hw 4186   4.599   1.978   4.213 -0.8660 -0.6907  2.1385
 1047SOL     hw 4187   4.487   2.035   4.298  0.1945  3.1830  1.1067
 1047SOL     vw 4188   4.532   2.033   4.223 -0.1276  0.4941  0.9091
 1048SOL     ow 4189   2.754   3.916   6.633  0.4778 -0.2628  0.1239
 1048SOL     hw 4190   2.677   3.909   6.688 -0.2180 -2.5227 -1.0010
 1048SOL     hw 4191   2.731   3.870   6.552  1.7097  2.2539 -1.8083
 1048SOL     vw 4192   2.741   3.909   6.630  0.5485 -0.2289 -0.2794
 1049SOL     ow 4193   0.141   2.720   0.959 -0.7583  0.1414 -0.0459
 1049SOL     hw 4194   0.099   2.732   0.874 -1.4764  0.6738  0.3689
 1049SOL     hw 4195   0.115   2.632   0.987  0.7741 -0.6858 -1.0576
 1049SOL     vw 4196   0.132   2.710   0.951 -0.6509  0.1025 -0.1247
 1050SOL     ow 4197   0.720   4.941   4.161  0.1124  0.7613 -0.0704
 1050SOL     hw 4198   0.689   4.924   4.251 -0.5661  1.0020 -0.2561
 1050SOL     hw 4199   0.706   4.858   4.116 -1.8005  1.3127 -0.5780
 1050SOL     vw 4200   0.714   4.928   4.167 -0.2295  0.8657 -0.1616
 1051SOL     ow 4201   5.458   0.723   5.394 -0.9812 -0.0686 -0.6977
 1051SOL     hw 4202   5.500   0.643   5.427  0.4779  0.7361 -0.5023
 1051SOL     hw 4203   5.528   0.768   5.345 -1.7639  1.0955 -0.7871
 1051SOL     vw 4204   5.473   0.718   5.392 -0.8919  0.1911 -0.6838
 1052SOL     ow 4205   1.315   4.779   1.951  0.1319  0.2097  0.2606
 1052SOL     hw 4206   1.384   4.736   2.002 -1.0260  1.7355  3.4196
 1052SOL     hw 4207   1.355   4.861   1.922  0.5356 -0.2884 -0.6461
 1052SOL     vw 4208   1.329   4.784   1.954  0.0324  0.3455  0.5578
 1053SOL     ow 4209   5.434   4.888   0.696  0.4067  0.0219  0.0457
 1053SOL     hw 4210   5.351   4.898   0.651 -0.5112 -1.3111  1.3542
 1053SOL     hw 4211   5.481   4.970   0.679 -0.8435  0.4869 -1.3325
 1053SOL     vw 4212   5.430   4.900   0.688  0.1209 -0.0925  0.0365
 1054SOL     ow 4213   0.796   2.231   1.190  0.4325  0.0174 -0.0645
 1054SOL     hw 4214   0.861   2.204   1.125 -0.2405 -0.3634 -0.5958
 1054SOL     hw 4215   0.738   2.155   1.200 -1.3196  1.0890 -1.3764
 1054SOL     vw 4216   0.797   2.218   1.183  0.1126  0.1085 -0.3076
 1055SOL     ow 4217   4.015   5.570   3.887  0.3649  0.0503  0.0879
 1055SOL     hw 4218   3.929   5.612   3.883  0.2968 -0.1751 -0.9837
 1055SOL     hw 4219   4.077   5.640   3.869  0.3127 -0.0732 -0.6052
 1055SOL     vw 4220   4.011   5.585   3.884  0.3493  0.0045 -0.1450
 1056SOL     ow 4221   0.691   0.955   0.394 -0.0068 -0.0635  0.4270
 1056SOL     hw 4222   0.597   0.975   0.398  0.2995  1.5110  0.5681
 1056SOL     hw 4223   0.696   0.861   0.410 -1.7665 -0.7335 -2.1668
 1056SOL     vw 4224   0.679   0.945   0.396 -0.1985  0.0558  0.1034
 1057SOL     ow 4225   3.060   0.443   5.061  0.1420 -0.0907 -0.3204
 1057SOL     hw 4226   3.137   0.388   5.047 -0.4793 -0.8700 -0.7279
 1057SOL     hw 4227   3.096   0.524   5.097  1.1618 -0.4053 -0.5793
 1057SOL     vw 4228   3.075   0.446   5.064  0.1947 -0.2350 -0.4082
 1058SOL     ow 4229   0.425   6.971   2.241 -0.2740  0.7413  0.0096
 1058SOL     hw 4230   0.453   7.017   2.320  0.0326  0.0079  0.3396
 1058SOL     hw 4231   0.484   7.002   2.173 -1.2528  2.2229 -0.1956
 1058SOL     vw 4232   0.437   6.981   2.243 -0.3627  0.8402  0.0259
 1059SOL     ow 4233   2.515   4.258   6.277  0.1285  0.1760 -0.0637
 1059SOL     hw 4234   2.465   4.176   6.272 -0.5724  0.6483 -0.9817
 1059SOL     hw 4235   2.497   4.302   6.194 -0.4816  1.8258  0.8986
 1059SOL     vw 4236   2.506   4.253   6.265 -0.0443  0.4561 -0.0577
 1060SOL     ow 4237   6.496   6.001   3.620 -0.8285 -0.5308  0.1660
 1060SOL     hw 4238   6.466   6.040   3.538 -2.4145 -1.4413  0.2848
 1060SOL     hw 4239   6.466   6.062   3.688  0.5381  0.2557  0.1186
 1060SOL     vw 4240   6.488   6.014   3.618 -0.8574 -0.5472  0.1755
 1061SOL     ow 4241   5.492   0.317   6.426 -0.6900 -0.1152 -0.7846
 1061SOL     hw 4242   5.445   0.255   6.482 -0.3246  0.1589 -0.1674
 1061SOL     hw 4243   5.571   0.270   6.400 -0.4463  0.0650 -0.3726
 1061SOL     vw 4244   5.496   0.303   6.430 -0.6096 -0.0552 -0.6490
 1062SOL     ow 4245   4.353   6.373   3.397 -0.5516  0.4530  0.3901
 1062SOL     hw 4246   4.430   6.332   3.357 -0.8263  0.1917  0.1201
 1062SOL     hw 4247   4.337   6.321   3.476 -1.0098 -0.0810 -0.0500
 1062SOL     vw 4248   4.361   6.361   3.402 -0.6483  0.3481  0.2966
 1063SOL     ow 4249   6.320   6.366   3.546  0.5106  0.1122 -0.0048
 1063SOL     hw 4250   6.339   6.367   3.640 -1.0081 -1.4661  0.3625
 1063SOL     hw 4251   6.336   6.276   3.519  2.2396  0.8332 -1.6019
 1063SOL     vw 4252   6.325   6.354   3.555  0.5383 -0.0007 -0.1670
 1064SOL     ow 4253   6.697   4.376   5.426  0.1306  0.1548  0.1546
 1064SOL     hw 4254   6.622   4.340   5.474  0.3567 -3.5782 -1.8834
 1064SOL     hw 4255   6.732   4.302   5.377  2.6911  2.6603 -2.2114
 1064SOL     vw 4256   6.692   4.361   5.426  0.4983 -0.0069 -0.4261
 1065SOL     ow 4257   3.125   6.117   6.109  0.0810 -0.1084 -0.3453
 1065SOL     hw 4258   3.133   6.133   6.203  1.1081 -2.3312  0.0087
 1065SOL     hw 4259   3.087   6.029   6.103  0.0401 -0.0001 -2.0223
 1065SOL     vw 4260   3.121   6.108   6.121  0.2111 -0.3874 -0.5198
 1066SOL     ow 4261   0.678   0.397   0.975  0.3099  0.2094  0.3303
 1066SOL     hw 4262   0.622   0.469   0.947 -0.0448 -0.0473  0.3802
 1066SOL     hw 4263   0.628   0.318   0.955 -0.3265  0.0146  2.4061
 1066SOL     vw 4264   0.664   0.396   0.969  0.1791  0.1498  0.6108
 1067SOL     ow 4265   1.096   1.000   1.602  0.2570 -0.2370  0.0485
 1067SOL     hw 4266   1.098   0.953   1.685 -0.2908  0.1330  0.2814
 1067SOL     hw 4267   1.040   0.947   1.545  0.0346 -0.1169  0.1542
 1067SOL     vw 4268   1.089   0.987   1.605  0.1553 -0.1723  0.0932
 1068SOL     ow 4269   7.033   1.473   4.388 -0.3652  0.2589  0.2829
 1068SOL     hw 4270   6.950   1.435   4.359 -0.4231 -2.3077  3.2709
 1068SOL     hw 4271   7.082   1.399   4.425  2.8438  1.8768 -0.2958
 1068SOL     vw 4272   7.029   1.458   4.389  0.0508  0.1336  0.6006
 1069SOL     ow 4273   3.287   1.891   3.402  0.0007 -0.1428 -0.1929
 1069SOL     hw 4274   3.344   1.837   3.456  0.0667 -0.7757 -0.8811
 1069SOL     hw 4275   3.326   1.886   3.314  0.0508  1.0747 -0.2603
 1069SOL     vw 4276   3.300   1.884   3.397  0.0160 -0.0656 -0.2925
 1070SOL     ow 4277   4.275   0.212   3.596  0.7184 -0.4427  0.1834
 1070SOL     hw 4278   4.266   0.198   3.690 -0.4786  1.6882  0.4559
 1070SOL     hw 4279   4.355   0.165   3.572 -0.6312 -3.7760  1.5935
 1070SOL     vw 4280   4.284   0.204   3.605  0.3827 -0.6014  0.4053
 1071SOL     ow 4281   1.374   6.437   4.002  0.4743  0.3214  0.4100
 1071SOL     hw 4282   1.288   6.450   4.042  0.7004 -0.1643  1.0716
 1071SOL     hw 4283   1.372   6.491   3.923 -0.0345  1.1726  0.9930
 1071SOL     vw 4284   1.362   6.446   3.997  0.4370  0.3695  0.5740
 1072SOL     ow 4285   4.028   0.928   1.503  0.2969 -0.0544 -0.9051
 1072SOL     hw 4286   4.096   0.861   1.514 -0.7704 -1.0146  0.0953
 1072SOL     hw 4287   4.074   1.003   1.466  2.1159 -0.3058  0.6979
 1072SOL     vw 4288   4.043   0.929   1.499  0.3960 -0.2143 -0.5616
 1073SOL     ow 4289   3.378   1.381   0.462 -0.1440 -0.1333 -0.5363
 1073SOL     hw 4290   3.340   1.398   0.376 -0.1586 -0.4862 -0.5985
 1073SOL     hw 4291   3.380   1.286   0.469 -0.5114 -0.1058  0.0111
 1073SOL     vw 4292   3.373   1.371   0.452 -0.1943 -0.1762 -0.4723
 1074SOL     ow 4293   4.350   0.960   0.863 -0.3441 -0.6291  0.2960
 1074SOL     hw 4294   4.404   0.986   0.788 -1.5159  0.2919 -0.2799
 1074SOL     hw 4295   4.366   1.027   0.929 -2.2961  0.9008 -0.6626
 1074SOL     vw 4296   4.359   0.972   0.861 -0.7560 -0.3057  0.0936
 1075SOL     ow 4297   4.017   0.769   0.291 -0.1618  0.5775 -0.5834
 1075SOL     hw 4298   3.922   0.766   0.282 -0.2186  0.7592 -0.0970
 1075SOL     hw 4299   4.041   0.680   0.319 -0.0766  0.2597 -1.6128
 1075SOL     vw 4300   4.008   0.757   0.294 -0.1578  0.5595 -0.6550
 1076SOL     ow 4301   1.608   0.486   6.890  0.3265  0.5755  0.7055
 1076SOL     hw 4302   1.638   0.435   6.814 -0.6658 -1.0732  1.3542
 1076SOL     hw 4303   1.550   0.552   6.854 -0.5502 -0.5240  0.0331
 1076SOL     vw 4304   1.604   0.488   6.875  0.0799  0.2129  0.7024
 1077SOL     ow 4305   1.651   0.247   3.988 -0.7144 -0.2568 -0.1186
 1077SOL     hw 4306   1.709   0.291   3.926 -0.3231 -0.3577  0.1737
 1077SOL     hw 4307   1.623   0.317   4.047  0.9069 -0.5950  1.1210
 1077SOL     vw 4308   1.655   0.262   3.987 -0.4489 -0.3147  0.0834
 1078SOL     ow 4309   2.046   1.842   3.515 -0.6552 -0.6231 -0.1364
 1078SOL     hw 4310   2.000   1.922   3.490  1.2477  1.0937  1.4723
 1078SOL     hw 4311   2.074   1.858   3.605 -0.7153 -3.3949  0.4535
 1078SOL     vw 4312   2.044   1.855   3.524 -0.4119 -0.7623  0.1537
 1079SOL     ow 4313   1.410   4.492   5.589  0.3838 -0.1697  0.0952
 1079SOL     hw 4314   1.455   4.414   5.558  2.9794  1.5554 -0.8139
 1079SOL     hw 4315   1.434   4.499   5.682  1.8763  0.5876 -0.3169
 1079SOL     vw 4316   1.419   4.483   5.597  0.9233  0.1581 -0.0792
 1080SOL     ow 4317   1.944   4.894   2.194  0.8861  0.7844 -0.3846
 1080SOL     hw 4318   1.919   4.951   2.122  2.7826 -0.0075 -1.7336
 1080SOL     hw 4319   2.038   4.907   2.205  1.0169 -0.6477  0.5603
 1080SOL     vw 4320   1.953   4.903   2.186  1.1535  0.4911 -0.4379
 1081SOL     ow 4321   4.758   6.410   3.251  0.2358  0.7642 -0.0294
 1081SOL     hw 4322   4.764   6.400   3.346 -0.9540  0.2162  0.0034
 1081SOL     hw 4323   4.706   6.489   3.238 -0.7925  0.0795 -0.1962
 1081SOL     vw 4324   4.752   6.419   3.262 -0.0567  0.6018 -0.0472
 1082SOL     ow 4325   4.595   4.627   4.993 -0.0353 -0.2308  0.2278
 1082SOL     hw 4326   4.583   4.703   5.050  1.0869  0.4809 -0.4498
 1082SOL     hw 4327   4.533   4.640   4.922 -0.5292 -0.4648  0.6051
 1082SOL     vw 4328   4.585   4.639   4.991  0.0477 -0.1678  0.1881
 1083SOL     ow 4329   2.046   4.454   4.153 -0.0206  0.2530  0.0306
 1083SOL     hw 4330   1.986   4.514   4.197 -1.1312 -2.3231  2.2942
 1083SOL     hw 4331   2.115   4.437   4.217  2.2513  1.6812 -1.8420
 1083SOL     vw 4332   2.047   4.460   4.167  0.1327  0.1018  0.0823
 1084SOL     ow 4333   1.586   5.883   2.276 -0.7625 -0.3019  0.3978
 1084SOL     hw 4334   1.593   5.978   2.267 -2.2304 -0.3055 -1.2742
 1084SOL     hw 4335   1.602   5.867   2.369  1.0658  1.3996  0.4356
 1084SOL     vw 4336   1.589   5.894   2.287 -0.7149 -0.0780  0.1822
 1085SOL     ow 4337   3.025   1.889   5.103  0.1495 -0.3883  0.1354
 1085SOL     hw 4338   3.028   1.848   5.017 -1.6870 -2.2403  0.8877
 1085SOL     hw 4339   2.941   1.934   5.107  0.6332  0.5304  0.6418
 1085SOL     vw 4340   3.015   1.890   5.092 -0.0290 -0.5114  0.3011
 1086SOL     ow 4341   0.297   5.055   5.100 -0.2283  0.0157 -0.0336
 1086SOL     hw 4342   0.222   5.027   5.154  0.6233 -2.0647  0.1774
 1086SOL     hw 4343   0.257   5.087   5.019 -1.4013  0.1092  0.5572
 1086SOL     vw 4344   0.282   5.056   5.097 -0.2707 -0.2463  0.0722
 1087SOL     ow 4345   2.455   6.197   3.318 -0.2551  0.1340  0.3464
 1087SOL     hw 4346   2.427   6.151   3.239  0.1833 -0.0009  0.2660
 1087SOL     hw 4347   2.380   6.189   3.378 -0.1485 -0.7732  0.3689
 1087SOL     vw 4348   2.441   6.190   3.316 -0.1831 -0.0033  0.3388
 1088SOL     ow 4349   0.985   4.137   2.783  0.0433 -0.1622  0.2235
 1088SOL     hw 4350   1.009   4.075   2.852  0.4414 -1.1269 -0.7373
 1088SOL     hw 4351   1.067   4.153   2.736 -0.7277 -2.0871 -2.0019
 1088SOL     vw 4352   0.999   4.131   2.786 -0.0059 -0.5436 -0.1969
 1089SOL     ow 4353   4.300   2.045   3.255  0.1744  0.2361  0.1726
 1089SOL     hw 4354   4.332   1.968   3.207  0.0467  0.8037 -0.8522
 1089SOL     hw 4355   4.205   2.040   3.246  0.0555 -0.3687  1.5249
 1089SOL     vw 4356   4.292   2.034   3.248  0.1421  0.2313  0.2158
 1090SOL     ow 4357   2.109   1.645   3.126 -0.6545  0.3614 -0.1911
 1090SOL     hw 4358   2.168   1.644   3.051 -1.4836 -1.0627 -0.8715
 1090SOL     hw 4359   2.068   1.732   3.123 -0.8839  0.2256 -1.5688
 1090SOL     vw 4360   2.111   1.656   3.116 -0.7942  0.1556 -0.4627
 1091SOL     ow 4361   3.813   2.950   5.017 -0.0105 -0.4156  0.1203
 1091SOL     hw 4362   3.806   3.023   4.956  1.5303 -1.5541 -1.5171
 1091SOL     hw 4363   3.874   2.889   4.975  0.8374 -1.4281  2.6280
 1091SOL     vw 4364   3.820   2.951   5.004  0.3046 -0.6995  0.2353
 1092SOL     ow 4365   0.848   3.149   5.937 -0.0418 -0.1022 -0.2255
 1092SOL     hw 4366   0.800   3.087   5.991 -2.1795 -1.6517 -3.5400
 1092SOL     hw 4367   0.902   3.095   5.880  0.5793  1.2820 -1.0088
 1092SOL     vw 4368   0.849   3.134   5.936 -0.2419 -0.1240 -0.7660
 1093SOL     ow 4369   0.333   6.728   6.390  0.6673  0.6906 -0.1653
 1093SOL     hw 4370   0.388   6.804   6.408 -0.2868  1.2824  0.3666
 1093SOL     hw 4371   0.391   6.653   6.401  1.4228  1.3051  0.1324
 1093SOL     vw 4372   0.348   6.728   6.394  0.6411  0.8497 -0.0560
 1094SOL     ow 4373   4.623   2.371   5.602  0.5903 -0.2900 -0.5002
 1094SOL     hw 4374   4.679   2.414   5.667  0.9445 -2.0213  0.4147
 1094SOL     hw 4375   4.672   2.378   5.520  1.2525 -0.0930 -0.1013
 1094SOL     vw 4376   4.637   2.377   5.600  0.7243 -0.4925 -0.3269
 1095SOL     ow 4377   2.358   5.896   3.903 -0.1097  0.4532 -0.5234
 1095SOL     hw 4378   2.285   5.901   3.963  0.5287  0.1866  0.2901
 1095SOL     hw 4379   2.436   5.894   3.959  0.5106  0.4808 -1.3567
 1095SOL     vw 4380   2.359   5.896   3.918  0.0563  0.4218 -0.5260
 1096SOL     ow 4381   2.610   3.590   3.723  0.1282  0.2803  0.0013
 1096SOL     hw 4382   2.628   3.498   3.705 -0.4396  0.5687 -2.4417
 1096SOL     hw 4383   2.514   3.596   3.723 -0.0505  0.2682  4.1155
 1096SOL     vw 4384   2.599   3.579   3.721  0.0297  0.3166  0.2217
 1097SOL     ow 4385   3.801   0.109   0.461 -0.6351  0.2217  0.5212
 1097SOL     hw 4386   3.829   0.070   0.544 -1.6000 -0.3514  0.5978
 1097SOL     hw 4387   3.878   0.156   0.429  0.2616 -0.9212  0.9260
 1097SOL     vw 4388   3.815   0.110   0.467 -0.6441 -0.0047  0.5847
 1098SOL     ow 4389   1.624   0.027   1.002  0.2493  0.2591 -0.0840
 1098SOL     hw 4390   1.580   0.097   0.954  0.7894 -0.4461 -1.7053
 1098SOL     hw 4391   1.716   0.038   0.980  0.2964 -1.1968 -0.7526
 1098SOL     vw 4392   1.630   0.038   0.993  0.3268 -0.0260 -0.3861
 1099SOL     ow 4393   2.028   3.636   0.086 -0.4647  0.0994  0.4000
 1099SOL     hw 4394   2.016   3.558   0.140 -1.0291  0.4528  0.7926
 1099SOL     hw 4395   2.110   3.621   0.040  0.7535  0.4139  2.3911
 1099SOL     vw 4396   2.037   3.624   0.087 -0.3783  0.1875  0.7145
 1100SOL     ow 4397   1.305   3.997   1.064  0.6463  0.3518 -0.3799
 1100SOL     hw 4398   1.225   4.038   1.033  0.0030 -1.3676 -1.1362
 1100SOL     hw 4399   1.341   3.952   0.987  0.7224 -1.3727  0.6058
 1100SOL     vw 4400   1.299   3.996   1.050  0.5714 -0.1029 -0.3496
 1101SOL     ow 4401   3.514   6.257   4.529 -0.3419  0.4593 -0.2857
 1101SOL     hw 4402   3.570   6.183   4.506 -2.0338 -0.8637 -0.3418
 1101SOL     hw 4403   3.478   6.286   4.445 -1.4942 -0.1823 -0.0259
 1101SOL     vw 4404   3.517   6.251   4.515 -0.7173  0.2003 -0.2587
 1102SOL     ow 4405   2.920   6.958   3.662  0.4219  0.1837 -0.2229
 1102SOL     hw 4406   2.942   6.864   3.663 -0.7633 -0.1257  1.4820
 1102SOL     hw 4407   2.934   6.985   3.572 -0.0411 -1.8626 -0.9600
 1102SOL     vw 4408   2.925   6.949   3.650  0.2044 -0.1273 -0.0952
 1103SOL     ow 4409   5.312   1.300   3.076 -0.3461 -0.1245 -0.2779
 1103SOL     hw 4410   5.308   1.265   2.987 -2.0708  0.1319 -0.3300
 1103SOL     hw 4411   5.231   1.350   3.086  0.4524  0.9985  0.9764
 1103SOL     vw 4412   5.301   1.302   3.066 -0.4683  0.0576 -0.1193
 1104SOL     ow 4413   6.993   1.393   6.259 -0.2360  0.5913  0.9478
 1104SOL     hw 4414   7.088   1.393   6.264 -0.1234  1.6333 -0.4457
 1104SOL     hw 4415   6.964   1.354   6.342  1.3952 -1.4967  0.6070
 1104SOL     vw 4416   7.002   1.388   6.271 -0.0060  0.4533  0.7191
 1105SOL     ow 4417   2.654   6.983   3.805  0.0913 -0.4232 -0.7824
 1105SOL     hw 4418   2.648   6.887   3.801  1.3898 -0.5046 -1.4841
 1105SOL     hw 4419   2.617   7.013   3.722 -0.8106 -0.2705 -0.3358
 1105SOL     vw 4420   2.648   6.974   3.793  0.1435 -0.4141 -0.8161
 1106SOL     ow 4421   0.302   6.008   2.311 -0.1166 -0.0505 -0.4509
 1106SOL     hw 4422   0.333   6.019   2.401  0.7045 -0.0260 -0.7231
 1106SOL     hw 4423   0.258   6.091   2.291 -1.6452 -0.6133  0.4194
 1106SOL     vw 4424   0.300   6.021   2.320 -0.2100 -0.1214 -0.3721
 1107SOL     ow 4425   2.337   2.517   2.494 -0.9428 -0.4760 -0.0939
 1107SOL     hw 4426   2.432   2.508   2.505 -0.4995  2.7367 -0.4432
 1107SOL     hw 4427   2.326   2.543   2.403 -2.5036 -3.4784 -0.8845
 1107SOL     vw 4428   2.348   2.519   2.483 -1.0902 -0.4482 -0.2441
 1108SOL     ow 4429   2.101   4.454   1.521 -0.1098  0.2921 -0.0250
 1108SOL     hw 4430   2.043   4.449   1.597  0.1418  0.9698  0.2192
 1108SOL     hw 4431   2.044   4.485   1.450  0.1410  1.8653  0.4365
 1108SOL     vw 4432   2.086   4.457   1.522 -0.0434  0.5891  0.0680
 1109SOL     ow 4433   6.221   6.187   5.771 -0.1867  0.5155  0.0262
 1109SOL     hw 4434   6.223   6.093   5.750  0.4672  0.7592 -1.1145
 1109SOL     hw 4435   6.296   6.224   5.723 -0.6492  1.6782  0.1656
 1109SOL     vw 4436   6.231   6.180   5.762 -0.1609  0.7012 -0.1059
 1110SOL     ow 4437   0.722   3.743   2.737  0.0311 -0.4859 -0.0918
 1110SOL     hw 4438   0.700   3.703   2.821  1.5447  2.0744  1.6688
 1110SOL     hw 4439   0.681   3.829   2.740  1.7166  0.3961 -1.1091
 1110SOL     vw 4440   0.714   3.749   2.748  0.4532 -0.0318  0.0062
 1111SOL     ow 4441   5.572   1.064   2.233  0.3884  0.3456  0.4482
 1111SOL     hw 4442   5.604   1.108   2.312 -1.2739  0.4849  1.0913
 1111SOL     hw 4443   5.501   1.119   2.201 -1.7530 -1.7288  1.2607
 1111SOL     vw 4444   5.567   1.077   2.240 -0.1132  0.0903  0.6403
 1112SOL     ow 4445   5.653   3.824   0.350  0.2646  0.1477  0.3983
 1112SOL     hw 4446   5.574   3.779   0.321  0.4543 -0.4441  0.7835
 1112SOL     hw 4447   5.723   3.787   0.296  0.4061  0.0538  0.6439
 1112SOL     vw 4448   5.652   3.813   0.339  0.3083  0.0572  0.4815
 1113SOL     ow 4449   1.725   1.115   6.979 -0.0393  0.0857  0.1695
 1113SOL     hw 4450   1.677   1.068   7.048  0.1092  1.4367  1.2355
 1113SOL     hw 4451   1.816   1.114   7.008  0.3750 -1.0828 -1.0563
 1113SOL     vw 4452   1.730   1.108   6.992  0.0350  0.1099  0.1483
 1114SOL     ow 4453   5.057   0.127   3.407  0.7750 -0.0802  0.6120
 1114SOL     hw 4454   5.075   0.119   3.501  2.8760 -0.1412  0.2637
 1114SOL     hw 4455   5.018   0.214   3.399  1.9155  0.5474  1.4110
 1114SOL     vw 4456   5.054   0.138   3.419  1.2026 -0.0055  0.6713
 1115SOL     ow 4457   5.641   4.067   2.536  0.2039 -0.4567 -0.7103
 1115SOL     hw 4458   5.706   4.128   2.571  0.2236 -1.3678  0.9622
 1115SOL     hw 4459   5.673   4.046   2.448  2.0229 -0.6521 -0.0523
 1115SOL     vw 4460   5.654   4.072   2.529  0.4466 -0.6025 -0.4028
 1116SOL     ow 4461   6.986   2.813   4.524  0.8254  0.3220  0.2025
 1116SOL     hw 4462   6.907   2.858   4.554  1.8520  2.2670  0.1568
 1116SOL     hw 4463   7.022   2.774   4.603  1.3094  1.8913  0.8025
 1116SOL     vw 4464   6.980   2.814   4.539  1.0247  0.7857  0.2759
 1117SOL     ow 4465   2.226   3.567   2.389 -0.5336  0.2110 -0.2809
 1117SOL     hw 4466   2.180   3.629   2.445 -0.9078  0.1047 -0.4611
 1117SOL     hw 4467   2.314   3.560   2.426 -1.6207 -2.1528  2.1503
 1117SOL     vw 4468   2.231   3.574   2.401 -0.7263 -0.1147  0.0162
 1118SOL     ow 4469   0.114   0.297   3.476 -0.3537  0.1401 -0.0834
 1118SOL     hw 4470   0.135   0.216   3.429 -0.0899 -0.6168  1.3046
 1118SOL     hw 4471   0.021   0.310   3.459 -0.0925  0.3554 -1.5030
 1118SOL     vw 4472   0.105   0.288   3.467 -0.2845  0.0686 -0.0876
 1119SOL     ow 4473   2.331   6.953   2.917 -0.2179 -0.0152  0.5239
 1119SOL     hw 4474   2.328   6.918   3.006  1.5795 -1.1282  0.2060
 1119SOL     hw 4475   2.271   6.898   2.867 -0.5753  0.0592  0.8667
 1119SOL     vw 4476   2.323   6.941   2.922 -0.0278 -0.1521  0.5271
 1120SOL     ow 4477   0.786   1.190   0.295  0.3226  0.4302 -0.2582
 1120SOL     hw 4478   0.743   1.107   0.314  1.9166 -0.0651  1.3525
 1120SOL     hw 4479   0.731   1.256   0.337  0.4271 -0.0675  0.6718
 1120SOL     vw 4480   0.773   1.188   0.303  0.5467  0.2993  0.0771
 1121SOL     ow 4481   1.579   2.257   4.493  0.1765 -0.2638 -0.3160
 1121SOL     hw 4482   1.664   2.223   4.521 -0.4470  1.0359  3.6981
 1121SOL     hw 4483   1.515   2.200   4.535 -0.8796  1.5929  0.7134
 1121SOL     vw 4484   1.582   2.245   4.502 -0.0451  0.1527  0.3495
 1122SOL     ow 4485   6.465   2.780   5.708  0.2880 -0.3509 -0.0394
 1122SOL     hw 4486   6.521   2.833   5.764  1.1504  0.2547 -1.4160
 1122SOL     hw 4487   6.525   2.739   5.646 -0.5246 -1.8368  0.1190
 1122SOL     vw 4488   6.480   2.782   5.707  0.2947 -0.4669 -0.2000
 1123SOL     ow 4489   0.775   3.676   6.948 -0.3716  0.4711 -0.0768
 1123SOL     hw 4490   0.726   3.688   7.030  0.3829 -0.6028  0.5734
 1123SOL     hw 4491   0.866   3.696   6.972  0.2238 -1.9781 -0.0207
 1123SOL     vw 4492   0.780   3.680   6.962 -0.1935  0.0062  0.0165
 1124SOL     ow 4493   0.999   1.968   4.734 -0.1715  0.0900 -0.0114
 1124SOL     hw 4494   1.087   1.934   4.745 -0.4576 -0.8697 -0.5892
 1124SOL     hw 4495   1.010   2.049   4.685  0.3060 -0.6734 -1.2029
 1124SOL     vw 4496   1.012   1.974   4.729 -0.1462 -0.1373 -0.2453
 1125SOL     ow 4497   6.378   2.219   2.022  0.0601 -0.7149  0.2185
 1125SOL     hw 4498   6.351   2.150   2.083  2.1158 -0.9670  0.9236
 1125SOL     hw 4499   6.452   2.262   2.065  0.3806  0.3440 -1.2950
 1125SOL     vw 4500   6.384   2.216   2.036  0.3734 -0.6083  0.1121
 1126SOL     ow 4501   6.890   5.275   4.662  0.0320 -0.2835 -0.6996
 1126SOL     hw 4502   6.899   5.247   4.571  1.1740  1.5836 -1.2016
 1126SOL     hw 4503   6.977   5.303   4.688 -0.6000  0.7686  0.4170
 1126SOL     vw 4504   6.902   5.275   4.654  0.0992  0.1018 -0.6185
 1127SOL     ow 4505   6.698   4.460   2.366  0.1757  0.1976  0.2944
 1127SOL     hw 4506   6.771   4.455   2.304 -0.0166  0.4597  0.0423
 1127SOL     hw 4507   6.718   4.394   2.432 -0.2576 -1.0061 -0.7374
 1127SOL     vw 4508   6.710   4.451   2.366  0.0932  0.0734  0.1249
 1128SOL     ow 4509   3.129   2.823   1.151 -0.6854  0.4169  0.1106
 1128SOL     hw 4510   3.086   2.877   1.085  0.7506 -3.1618 -4.3084
 1128SOL     hw 4511   3.221   2.819   1.122 -0.4311 -3.0826  0.9553
 1128SOL     vw 4512   3.136   2.829   1.138 -0.4623 -0.5170 -0.3609
 1129SOL     ow 4513   0.656   5.560   6.138  0.3098  0.1536  0.3204
 1129SOL     hw 4514   0.743   5.585   6.167  0.8945 -1.4466  0.0239
 1129SOL     hw 4515   0.670   5.485   6.081 -1.2476 -0.0146  0.1143
 1129SOL     vw 4516   0.669   5.554   6.134  0.1815 -0.0796  0.2539
 1130SOL     ow 4517   3.266   5.427   4.437  0.4338  0.8388 -0.2125
 1130SOL     hw 4518   3.267   5.480   4.517  1.7016  1.2042 -0.4435
 1130SOL     hw 4519   3.329   5.357   4.454 -0.7220 -0.2235 -0.1728
 1130SOL     vw 4520   3.275   5.425   4.450  0.4486  0.7467 -0.2377
 1131SOL     ow 4521   5.779   1.515   6.662  0.8573  0.2967  0.1529
 1131SOL     hw 4522   5.748   1.446   6.603  1.4582  0.2434 -0.1108
 1131SOL     hw 4523   5.837   1.470   6.723  1.4377  0.5995 -0.1661
 1131SOL     vw 4524   5.783   1.500   6.662  1.0133  0.3296  0.0758
 1132SOL     ow 4525   5.581   6.232   0.672 -0.4427 -0.4335 -0.2023
 1132SOL     hw 4526   5.505   6.234   0.613 -1.7237  0.6852  1.4028
 1132SOL     hw 4527   5.657   6.245   0.614 -1.1822 -3.7885 -2.1492
 1132SOL     vw 4528   5.581   6.234   0.656 -0.7091 -0.7284 -0.2474
 1133SOL     ow 4529   6.444   0.977   3.338  0.5795  0.2340  0.3257
 1133SOL     hw 4530   6.514   1.004   3.397  0.6989  0.4072  0.1026
 1133SOL     hw 4531   6.374   1.041   3.352  0.0248 -0.5715  1.3610
 1133SOL     vw 4532   6.444   0.989   3.348  0.5221  0.1506  0.4327
 1134SOL     ow 4533   2.245   1.409   4.540  0.2234 -0.1680 -0.3496
 1134SOL     hw 4534   2.156   1.379   4.558  0.2840  0.4101  1.0264
 1134SOL     hw 4535   2.301   1.343   4.583  0.3589  1.9319  3.1129
 1134SOL     vw 4536   2.241   1.396   4.548  0.2493  0.1853  0.2885
 1135SOL     ow 4537   2.880   3.634   5.571 -0.2319 -0.1454  0.0486
 1135SOL     hw 4538   2.859   3.704   5.509 -1.2122  0.0614  0.6006
 1135SOL     hw 4539   2.908   3.561   5.516  0.9243  0.7097 -0.5304
 1135SOL     vw 4540   2.881   3.634   5.556 -0.2086 -0.0054  0.0451
 1136SOL     ow 4541   5.530   2.644   4.629 -0.0101 -0.2123  0.3216
 1136SOL     hw 4542   5.562   2.587   4.699  0.6123  0.0373  0.2504
 1136SOL     hw 4543   5.480   2.587   4.572  0.0409 -0.5512  0.6111
 1136SOL     vw 4544   5.528   2.629   4.631  0.0789 -0.2240  0.3505
 1137SOL     ow 4545   3.316   1.943   2.454 -0.6123  0.2220  0.2786
 1137SOL     hw 4546   3.363   1.981   2.380  0.0358 -0.3262  0.4011
 1137SOL     hw 4547   3.337   2.001   2.527  0.2964 -0.2899  0.4434
 1137SOL     vw 4548   3.325   1.956   2.454 -0.4070  0.0821  0.3166
 1138SOL     ow 4549   6.534   6.845   7.045 -0.1197 -0.4086 -0.3058
 1138SOL     hw 4550   6.507   6.778   7.107 -0.2450 -0.2617 -0.2005
 1138SOL     hw 4551   6.621   6.818   7.016 -0.6685 -1.2848 -1.2033
 1138SOL     vw 4552   6.542   6.833   7.049 -0.2089 -0.5047 -0.4106
 1139SOL     ow 4553   5.225   4.405   4.662 -0.3211  0.1097  0.1154
 1139SOL     hw 4554   5.245   4.417   4.569  0.4028 -0.6270  0.1592
 1139SOL     hw 4555   5.251   4.488   4.703  1.7735 -0.4290  0.0067
 1139SOL     vw 4556   5.231   4.418   4.655  0.0508 -0.0584  0.1070
 1140SOL     ow 4557   3.618   0.962   1.170  0.0800 -0.0347 -0.1542
 1140SOL     hw 4558   3.705   0.974   1.209 -0.4796 -0.0227  1.1491
 1140SOL     hw 4559   3.591   1.050   1.143 -0.1013  0.1919  0.7373
 1140SOL     vw 4560   3.626   0.975   1.172 -0.0179 -0.0032  0.1354
 1141SOL     ow 4561   6.561   5.720   1.599 -0.0153  0.4248  0.2742
 1141SOL     hw 4562   6.586   5.684   1.685 -0.4483  3.3566  1.7543
 1141SOL     hw 4563   6.471   5.751   1.612 -0.3179  0.3454 -1.4660
 1141SOL     vw 4564   6.553   5.719   1.612 -0.1123  0.8008  0.2398
 1142SOL     ow 4565   3.600   0.840   6.042 -0.4961 -0.0880 -0.8554
 1142SOL     hw 4566   3.669   0.791   5.997 -0.0206  0.9293 -1.2586
 1142SOL     hw 4567   3.630   0.931   6.041 -1.1842  0.1689  0.2158
 1142SOL     vw 4568   3.613   0.846   6.036 -0.5239  0.0800 -0.7672
 1143SOL     ow 4569   0.353   6.040   5.381 -0.6558 -0.2797  0.0448
 1143SOL     hw 4570   0.413   5.967   5.363 -0.8370 -0.7082  1.1273
 1143SOL     hw 4571   0.354   6.092   5.301  1.1283 -0.3149  0.0075
 1143SOL     vw 4572   0.361   6.037   5.368 -0.4443 -0.3407  0.1826
 1144SOL     ow 4573   5.510   5.357   2.694  0.0651 -0.2566 -0.0275
 1144SOL     hw 4574   5.433   5.325   2.742 -0.3993 -1.4444 -1.5024
 1144SOL     hw 4575   5.525   5.445   2.729 -1.7897 -0.1118  0.4975
 1144SOL     vw 4576   5.502   5.365   2.705 -0.2410 -0.3943 -0.1528
 1145SOL     ow 4577   3.491   5.708   0.215  0.8208  0.0702 -0.7926
 1145SOL     hw 4578   3.575   5.748   0.192  2.1007 -1.4830  0.8358
 1145SOL     hw 4579   3.473   5.742   0.303 -0.3875  0.5518 -1.2154
 1145SOL     vw 4580   3.500   5.718   0.224  0.8302 -0.0713 -0.6335
 1146SOL     ow 4581   0.978   4.970   3.228  0.6368  0.2143 -1.1046
 1146SOL     hw 4582   1.030   4.900   3.267  0.4845 -0.5817 -2.2652
 1146SOL     hw 4583   0.994   5.046   3.283  0.0118 -0.9678  0.8024
 1146SOL     vw 4584   0.987   4.971   3.240  0.5343 -0.0465 -1.0062
 1147SOL     ow 4585   2.478   6.680   5.705 -0.0969 -0.3847 -0.4634
 1147SOL     hw 4586   2.479   6.709   5.614 -1.5773  0.3651 -0.2685
 1147SOL     hw 4587   2.502   6.588   5.701 -1.1987 -0.6420 -1.7440
 1147SOL     vw 4588   2.481   6.672   5.692 -0.4375 -0.3197 -0.6065
 1148SOL     ow 4589   2.285   4.763   3.982  0.6153 -0.0500 -0.2116
 1148SOL     hw 4590   2.265   4.850   4.018  1.0224  0.2427 -0.6797
 1148SOL     hw 4591   2.316   4.712   4.057  3.5833  1.1920 -0.4590
 1148SOL     vw 4592   2.286   4.768   3.996  1.0607  0.1523 -0.3059
 1149SOL     ow 4593   0.141   2.421   6.547 -0.3091 -0.2314  0.1227
 1149SOL     hw 4594   0.216   2.374   6.512 -0.6569  0.3503 -1.4935
 1149SOL     hw 4595   0.173   2.460   6.628  1.0602 -0.2112 -0.4026
 1149SOL     vw 4596   0.155   2.420   6.553 -0.1744 -0.1521 -0.1597
 1150SOL     ow 4597   5.692   3.571   2.841  0.0543 -0.0621  0.0470
 1150SOL     hw 4598   5.630   3.516   2.889 -1.4445 -0.9175 -2.6476
 1150SOL     hw 4599   5.777   3.548   2.877 -0.9951  0.0512  2.8651
 1150SOL     vw 4600   5.695   3.560   2.852 -0.2818 -0.1601  0.0634
 1151SOL     ow 4601   3.530   2.015   4.339  0.1501  0.6318  0.3693
 1151SOL     hw 4602   3.487   2.047   4.259  0.3061 -0.6872 -0.2686
 1151SOL     hw 4603   3.571   2.093   4.377  0.3296  1.2418 -1.0051
 1151SOL     vw 4604   3.530   2.030   4.334  0.1944  0.5382  0.1035
 1152SOL     ow 4605   5.787   1.949   5.298 -0.3488  0.2281 -0.1238
 1152SOL     hw 4606   5.709   1.898   5.279 -0.6487 -0.0769  1.6897
 1152SOL     hw 4607   5.767   2.037   5.266 -2.5225  0.8108  2.4288
 1152SOL     vw 4608   5.774   1.954   5.292 -0.6750  0.2648  0.4523
 1153SOL     ow 4609   2.951   4.670   4.159 -0.6188 -0.3676  0.0058
 1153SOL     hw 4610   3.043   4.668   4.185 -0.9302  1.4770  1.4566
 1153SOL     hw 4611   2.912   4.595   4.203  0.0275 -0.7170 -0.0021
 1153SOL     vw 4612   2.958   4.660   4.168 -0.5746 -0.1702  0.1960
 1154SOL     ow 4613   5.689   2.542   2.578 -0.8816  0.7570  0.0374
 1154SOL     hw 4614   5.620   2.603   2.552  0.0208  1.2207 -1.3590
 1154SOL     hw 4615   5.769   2.576   2.537 -0.3290 -1.2508 -0.6910
 1154SOL     vw 4616   5.690   2.554   2.569 -0.6895  0.5531 -0.2429
 1155SOL     ow 4617   3.401   3.602   3.424  0.6624  0.2665 -0.4746
 1155SOL     hw 4618   3.348   3.627   3.348  1.5513 -1.9027 -1.9301
 1155SOL     hw 4619   3.342   3.612   3.499 -0.5858  1.4782 -1.5576
 1155SOL     vw 4620   3.386   3.606   3.424  0.6150  0.1401 -0.8094
 1156SOL     ow 4621   5.595   7.036   7.108 -0.4010  0.4527 -0.4463
 1156SOL     hw 4622   5.662   7.095   7.074 -1.2287  1.4586 -0.3973
 1156SOL     hw 4623   5.606   6.955   7.058  0.0378  1.0273 -1.3034
 1156SOL     vw 4624   5.605   7.033   7.097 -0.4523  0.6611 -0.5529
 1157SOL     ow 4625   1.728   2.443   4.287 -0.0835 -0.7563 -0.0161
 1157SOL     hw 4626   1.772   2.422   4.204  0.2975 -0.9543  0.2374
 1157SOL     hw 4627   1.798   2.459   4.349 -0.3713 -0.4391  0.2329
 1157SOL     vw 4628   1.743   2.442   4.284 -0.0712 -0.7405  0.0501
 1158SOL     ow 4629   1.346   2.882   0.641  0.0669  0.4841 -0.1635
 1158SOL     hw 4630   1.252   2.868   0.637 -0.5953  2.1400  4.1717
 1158SOL     hw 4631   1.383   2.795   0.656 -0.9636  0.0658  0.0398
 1158SOL     vw 4632   1.339   2.869   0.642 -0.1564  0.6475  0.4353
 1159SOL     ow 4633   6.221   1.045   6.286  0.2893 -1.0702  0.1616
 1159SOL     hw 4634   6.130   1.021   6.267  0.7385 -0.7950 -2.9621
 1159SOL     hw 4635   6.263   0.963   6.311 -0.7111 -1.2623  1.3138
 1159SOL     vw 4636   6.215   1.031   6.287  0.2165 -1.0592 -0.0980
 1160SOL     ow 4637   2.087   6.869   1.870  0.2863  0.6444 -0.1720
 1160SOL     hw 4638   2.086   6.965   1.871 -1.1586  0.6586  0.1247
 1160SOL     hw 4639   2.170   6.845   1.911  0.6839  1.7636 -0.2746
 1160SOL     vw 4640   2.097   6.878   1.875  0.1482  0.7942 -0.1464
 1161SOL     ow 4641   5.004   5.133   1.666  0.2043  0.2673 -0.4174
 1161SOL     hw 4642   5.077   5.171   1.616 -0.6275  0.3968 -1.5770
 1161SOL     hw 4643   5.040   5.120   1.754  0.7298  3.0727 -0.1195
 1161SOL     vw 4644   5.019   5.136   1.671  0.1640  0.6545 -0.5311
 1162SOL     ow 4645   2.039   5.722   0.531 -0.3082 -0.1007  0.0692
 1162SOL     hw 4646   1.977   5.654   0.504  0.5537 -0.0503 -2.1982
 1162SOL     hw 4647   2.054   5.704   0.624 -2.8694 -0.7607  0.4429
 1162SOL     vw 4648   2.033   5.711   0.540 -0.5324 -0.1814 -0.1806
 1163SOL     ow 4649   0.818   5.219   4.219  0.5593  0.7117  0.0453
 1163SOL     hw 4650   0.750   5.285   4.210  0.7317  0.6938 -1.8792
 1163SOL     hw 4651   0.811   5.188   4.309 -0.8872  1.8685  0.3542
 1163SOL     vw 4652   0.808   5.223   4.230  0.3912  0.8619 -0.1678
 1164SOL     ow 4653   6.334   1.967   1.066 -0.1353 -0.0917  0.2600
 1164SOL     hw 4654   6.282   1.889   1.045  1.5901 -1.2824  0.2508
 1164SOL     hw 4655   6.292   2.002   1.145 -1.0795 -0.8832  0.1326
 1164SOL     vw 4656   6.321   1.961   1.074 -0.0322 -0.3532  0.2421
 1165SOL     ow 4657   4.497   3.684   4.328  0.3038 -0.6471  0.2991
 1165SOL     hw 4658   4.432   3.698   4.396  0.5352 -0.4293  0.4780
 1165SOL     hw 4659   4.489   3.761   4.271  1.7365  0.3991  1.4117
 1165SOL     vw 4660   4.488   3.696   4.329  0.5233 -0.4804  0.4694
 1166SOL     ow 4661   0.829   0.009   0.551  0.0744  0.0696 -0.0616
 1166SOL     hw 4662   0.877   0.011   0.634  1.4940 -1.0530 -0.8057
 1166SOL     hw 4663   0.818  -0.084   0.533  1.0837  0.2529 -1.8228
 1166SOL     vw 4664   0.834  -0.003   0.560  0.3949 -0.0544 -0.3921
 1167SOL     ow 4665   5.077   2.920   0.040 -0.3733 -0.0978 -0.3059
 1167SOL     hw 4666   5.045   2.834   0.015  0.1442 -0.1865 -0.6779
 1167SOL     hw 4667   5.129   2.950  -0.035 -0.0724  0.2894  0.0466
 1167SOL     vw 4668   5.080   2.913   0.027 -0.2651 -0.0583 -0.3085
 1168SOL     ow 4669   1.965   1.628   3.388 -0.4098  0.4187  0.2140
 1168SOL     hw 4670   1.988   1.708   3.435 -1.4546  2.4250 -2.3974
 1168SOL     hw 4671   1.871   1.637   3.370 -0.9068 -2.1808  1.1425
 1168SOL     vw 4672   1.956   1.640   3.392 -0.6133  0.3405 -0.0079
 1169SOL     ow 4673   2.253   3.378   6.096  0.1673 -0.4347 -0.0932
 1169SOL     hw 4674   2.299   3.300   6.067 -0.5340 -0.4010 -1.3755
 1169SOL     hw 4675   2.321   3.445   6.103  0.4539 -0.6101 -1.0900
 1169SOL     vw 4676   2.268   3.377   6.094  0.1125 -0.4535 -0.3939
 1170SOL     ow 4677   3.862   1.969   4.214  0.3682 -0.1469  0.2929
 1170SOL     hw 4678   3.844   2.021   4.292 -0.0429  1.3320 -0.7504
 1170SOL     hw 4679   3.945   1.926   4.233  3.2381  4.4497 -0.4684
 1170SOL     vw 4680   3.870   1.970   4.227  0.6926  0.6546  0.0548
 1171SOL     ow 4681   3.100   0.450   5.556  0.1727 -0.6553  0.0000
 1171SOL     hw 4682   3.112   0.540   5.585  2.9623 -0.5195 -1.2904
 1171SOL     hw 4683   3.007   0.444   5.534  0.0977  2.2262 -0.8795
 1171SOL     vw 4684   3.089   0.461   5.557  0.5308 -0.2572 -0.2863
 1172SOL     ow 4685   3.267   4.642   6.395  0.0162  0.1160 -0.4616
 1172SOL     hw 4686   3.232   4.662   6.309  1.0618  0.7080 -0.7649
 1172SOL     hw 4687   3.357   4.614   6.378  0.6745  1.5251  0.5369
 1172SOL     vw 4688   3.274   4.641   6.381  0.2412  0.3800 -0.3698
 1173SOL     ow 4689   5.084   3.095   3.334  0.2330 -0.2150 -0.7995
 1173SOL     hw 4690   5.064   3.180   3.295  1.4885  0.9927  1.0226
 1173SOL     hw 4691   5.107   3.115   3.425 -0.8540 -2.6761  0.1208
 1173SOL     vw 4692   5.084   3.109   3.341  0.2551 -0.3805 -0.4377
 1174SOL     ow 4693   0.796   7.081   5.610 -0.0823  0.3321 -0.2364
 1174SOL     hw 4694   0.793   7.040   5.696 -0.4745 -0.1649 -0.4854
 1174SOL     hw 4695   0.763   7.170   5.625  0.4550  0.4605  0.2404
 1174SOL     vw 4696   0.791   7.087   5.623 -0.0631  0.2835 -0.2065
 1175SOL     ow 4697   5.612   6.364   2.594  0.2985  0.2393 -0.2873
 1175SOL     hw 4698   5.534   6.419   2.586  1.0167  1.3349 -0.0286
 1175SOL     hw 4699   5.665   6.408   2.660  0.1042 -1.7606  1.2637
 1175SOL     vw 4700   5.609   6.377   2.601  0.3676  0.1199 -0.0485
 1176SOL     ow 4701   3.950   0.810   6.667  0.0249 -0.3592  0.5303
 1176SOL     hw 4702   3.971   0.764   6.748  0.3162 -0.0254  0.6499
 1176SOL     hw 4703   3.923   0.897   6.695  1.2515  0.1464  0.2199
 1176SOL     vw 4704   3.949   0.815   6.681  0.2251 -0.2485  0.5050
 1177SOL     ow 4705   0.420   5.622   0.620  0.0484 -0.1419  0.0603
 1177SOL     hw 4706   0.399   5.651   0.709 -0.1486 -2.0856  0.6791
 1177SOL     hw 4707   0.472   5.543   0.632  0.0580 -0.4047 -1.5594
 1177SOL     vw 4708   0.424   5.616   0.634  0.0237 -0.4330 -0.0718
 1178SOL     ow 4709   4.313   6.492   2.542 -0.3497  0.4324 -0.4742
 1178SOL     hw 4710   4.342   6.418   2.489  1.6608 -0.0183  1.1132
 1178SOL     hw 4711   4.311   6.567   2.482 -0.6730 -0.5379 -1.7037
 1178SOL     vw 4712   4.317   6.492   2.527 -0.1273  0.2451 -0.4269
 1179SOL     ow 4713   5.585   4.567   5.818 -0.3167 -0.3325  0.3240
 1179SOL     hw 4714   5.674   4.537   5.835  0.1455 -0.1373 -1.5449
 1179SOL     hw 4715   5.542   4.493   5.774 -1.0375 -0.3536  1.0318
 1179SOL     vw 4716   5.591   4.553   5.814 -0.3507 -0.3095  0.1709
 1180SOL     ow 4717   4.870   4.024   5.962 -0.3931 -0.4537 -0.5695
 1180SOL     hw 4718   4.934   4.016   5.891  2.0980  1.4309  1.2565
 1180SOL     hw 4719   4.887   3.949   6.019 -1.1693 -0.9846 -1.0129
 1180SOL     vw 4720   4.881   4.013   5.960 -0.1671 -0.2749 -0.3874
 1181SOL     ow 4721   6.818   3.626   3.163  0.7560 -0.7005 -0.2263
 1181SOL     hw 4722   6.874   3.703   3.149  1.6110 -0.8432  2.0178
 1181SOL     hw 4723   6.761   3.623   3.086  1.7047  1.3067 -1.0671
 1181SOL     vw 4724   6.818   3.636   3.151  0.9940 -0.4547 -0.0412
 1182SOL     ow 4725   0.845   1.710   6.647 -0.3048 -0.2473  0.5119
 1182SOL     hw 4726   0.919   1.758   6.610 -0.3598  0.5771  1.4098
 1182SOL     hw 4727   0.857   1.719   6.742 -0.8799 -1.1704  0.6829
 1182SOL     vw 4728   0.857   1.718   6.655 -0.3880 -0.2602  0.6530
 1183SOL     ow 4729   0.565   4.648   6.794 -0.2625 -0.0735  0.9365
 1183SOL     hw 4730   0.507   4.630   6.720 -1.7439  3.0681  1.1738
 1183SOL     hw 4731   0.507   4.648   6.870  0.9111 -1.3378  1.8797
 1183SOL     vw 4732   0.549   4.646   6.794 -0.3031  0.1743  1.0922
 1184SOL     ow 4733   5.308   4.989   0.932  0.4348  0.2739  0.0653
 1184SOL     hw 4734   5.357   4.949   0.859 -1.8612 -2.5692 -0.1382
 1184SOL     hw 4735   5.338   4.941   1.009  0.0188  0.4931  0.3609
 1184SOL     vw 4736   5.319   4.977   0.932  0.0772 -0.0720  0.0774
 1185SOL     ow 4737   1.419   3.577   2.783  0.0091 -0.5917  0.3683
 1185SOL     hw 4738   1.419   3.564   2.688 -0.3511  1.9174 -0.0652
 1185SOL     hw 4739   1.442   3.492   2.819 -1.5550 -2.0973 -1.8819
 1185SOL     vw 4740   1.422   3.564   2.775 -0.2448 -0.4591  0.0143
 1186SOL     ow 4741   6.272   2.531   5.686  0.3433  0.7544 -0.1873
 1186SOL     hw 4742   6.275   2.436   5.680 -0.5108  0.6391  0.8840
 1186SOL     hw 4743   6.207   2.557   5.620 -0.6621  0.4452  0.6616
 1186SOL     vw 4744   6.264   2.522   5.676  0.0980  0.6982  0.0660
 1187SOL     ow 4745   5.981   3.576   6.552  0.1455 -0.3241 -0.3250
 1187SOL     hw 4746   6.039   3.518   6.602 -0.5552  0.3512  1.3590
 1187SOL     hw 4747   5.905   3.522   6.530  0.6955 -0.7721 -1.1337
 1187SOL     vw 4748   5.978   3.561   6.556  0.1254 -0.2941 -0.2096
 1188SOL     ow 4749   6.544   1.979   0.871 -0.4635 -0.0527  0.6181
 1188SOL     hw 4750   6.509   1.895   0.841  1.2154 -0.5729 -0.0101
 1188SOL     hw 4751   6.626   1.990   0.822 -0.3811  1.7123  1.0723
 1188SOL     vw 4752   6.550   1.970   0.860 -0.2310  0.1115  0.5952
 1189SOL     ow 4753   3.821   3.324   6.041  0.4496 -0.2072  0.2559
 1189SOL     hw 4754   3.779   3.334   6.126 -0.2375  0.6777 -0.1711
 1189SOL     hw 4755   3.893   3.263   6.056  0.6308  0.3083  1.5700
 1189SOL     vw 4756   3.825   3.318   6.054  0.3828 -0.0223  0.3729
 1190SOL     ow 4757   6.660   6.389   6.080 -0.2016  0.5104 -0.0700
 1190SOL     hw 4758   6.723   6.346   6.022  0.0707  0.0960  0.5255
 1190SOL     hw 4759   6.702   6.471   6.105 -0.1788  0.5325 -0.1788
 1190SOL     vw 4760   6.673   6.394   6.075 -0.1626  0.4587 -0.0060
 1191SOL     ow 4761   3.215   6.291   1.792  1.3017  0.4671  0.2118
 1191SOL     hw 4762   3.266   6.243   1.727  1.4162  1.4029 -0.4058
 1191SOL     hw 4763   3.139   6.235   1.808  0.6637  0.7517 -1.6264
 1191SOL     vw 4764   3.212   6.277   1.786  1.2326  0.6282 -0.1122
 1192SOL     ow 4765   2.492   3.052   2.322  0.1343  0.4986 -0.0613
 1192SOL     hw 4766   2.585   3.052   2.344  0.0157  0.5722  0.4507
 1192SOL     hw 4767   2.489   3.031   2.228  0.5643 -1.5482  0.3302
 1192SOL     vw 4768   2.504   3.049   2.312  0.1754  0.2383  0.0579
 1193SOL     ow 4769   0.775   6.033   0.463 -0.1157 -0.5834 -0.4759
 1193SOL     hw 4770   0.850   5.976   0.443  0.7436  0.0690  0.7286
 1193SOL     hw 4771   0.815   6.118   0.482 -1.2412 -0.0251 -0.5608
 1193SOL     vw 4772   0.790   6.037   0.463 -0.1508 -0.4234 -0.3282
 1194SOL     ow 4773   7.098   2.189   5.729 -0.6095 -0.1337  0.0055
 1194SOL     hw 4774   7.018   2.176   5.679 -2.1685 -0.9369  2.5130
 1194SOL     hw 4775   7.104   2.284   5.741  0.6410  0.2504 -2.8101
 1194SOL     vw 4776   7.088   2.200   5.724 -0.6502 -0.1889 -0.0353
 1195SOL     ow 4777   0.587   5.156   6.480 -0.0084  0.3101 -0.1083
 1195SOL     hw 4778   0.497   5.129   6.465  0.5795 -1.1422 -1.2217
 1195SOL     hw 4779   0.593   5.164   6.576 -1.2318  0.1908  0.0004
 1195SOL     vw 4780   0.576   5.153   6.491 -0.0923  0.1028 -0.2408
 1196SOL     ow 4781   2.334   3.964   0.616  0.3306  0.5609  0.4651
 1196SOL     hw 4782   2.364   4.029   0.553 -1.8107  0.9471 -0.2229
 1196SOL     hw 4783   2.406   3.901   0.621  1.1431  1.2871 -1.2819
 1196SOL     vw 4784   2.348   3.964   0.609  0.1552  0.7075  0.1438
 1197SOL     ow 4785   5.929   0.207   5.904 -0.2707  0.1939  0.1130
 1197SOL     hw 4786   5.925   0.280   5.966  1.1217  0.5575 -0.1735
 1197SOL     hw 4787   6.020   0.207   5.874 -0.3541 -1.3995 -0.2202
 1197SOL     vw 4788   5.941   0.216   5.909 -0.0982  0.0316  0.0315
 1198SOL     ow 4789   0.499   0.566   2.392 -0.5013  0.5099 -0.5041
 1198SOL     hw 4790   0.449   0.641   2.423  0.8854  2.3136 -2.3960
 1198SOL     hw 4791   0.563   0.550   2.461 -2.2563 -0.5324  0.9930
 1198SOL     vw 4792   0.501   0.574   2.406 -0.5499  0.6104 -0.5561
 1199SOL     ow 4793   0.513   5.877   0.509 -0.6602 -0.8831  0.2310
 1199SOL     hw 4794   0.494   5.790   0.544 -1.2027 -0.3423  1.3251
 1199SOL     hw 4795   0.475   5.876   0.421 -1.1027 -1.5806  0.4223
 1199SOL     vw 4796   0.506   5.866   0.502 -0.7901 -0.9041  0.4005
 1200SOL     ow 4797   4.176   2.754   0.206 -0.1525 -0.1616 -0.4051
 1200SOL     hw 4798   4.094   2.801   0.192  0.1455  0.7962  0.8285
 1200SOL     hw 4799   4.243   2.823   0.211  1.1171 -1.0207 -3.4724
 1200SOL     vw 4800   4.174   2.769   0.205  0.0541 -0.1485 -0.6470
 1201SOL     ow 4801   0.884   0.512   1.170  0.0209  0.0925  0.1882
 1201SOL     hw 4802   0.848   0.560   1.244 -0.5616 -0.5750  0.3433
 1201SOL     hw 4803   0.925   0.580   1.116  0.3793  0.5905  1.0667
 1201SOL     vw 4804   0.885   0.527   1.172 -0.0086  0.0702  0.3245
 1202SOL     ow 4805   5.467   6.782   1.429  0.2964  0.1992 -0.8107
 1202SOL     hw 4806   5.527   6.710   1.447 -0.7323 -0.9504 -1.7671
 1202SOL     hw 4807   5.384   6.755   1.468 -0.1401  0.8006 -1.2883
 1202SOL     vw 4808   5.464   6.769   1.436  0.1032  0.1268 -0.9999
 1203SOL     ow 4809   2.579   2.009   2.256  0.2507 -0.2571  0.7346
 1203SOL     hw 4810   2.668   2.012   2.222 -0.0687 -4.2754 -0.9660
 1203SOL     hw 4811   2.527   2.058   2.192  0.8582 -0.2920  0.2112
 1203SOL     vw 4812   2.584   2.016   2.243  0.2886 -0.7920  0.4412
 1204SOL     ow 4813   2.048   0.678   2.322 -0.5097 -0.4307  0.0570
 1204SOL     hw 4814   2.141   0.660   2.311 -0.3495  0.1220  0.4786
 1204SOL     hw 4815   2.044   0.771   2.344 -1.1919 -0.3454 -0.3978
 1204SOL     vw 4816   2.060   0.688   2.323 -0.5786 -0.3465  0.0526
 1205SOL     ow 4817   4.002   0.821   1.915  0.2570  0.1029 -1.0939
 1205SOL     hw 4818   3.972   0.745   1.866  1.2616 -0.0344 -1.5333
 1205SOL     hw 4819   3.990   0.895   1.855 -2.4531  0.6425 -0.0263
 1205SOL     vw 4820   3.997   0.821   1.901  0.0319  0.1560 -1.0111
 1206SOL     ow 4821   6.999   0.128   4.148 -0.6002  1.0420 -0.0882
 1206SOL     hw 4822   6.943   0.159   4.220 -1.1033  0.0187 -0.0285
 1206SOL     hw 4823   7.021   0.038   4.171 -0.1240  0.9524 -0.8453
 1206SOL     vw 4824   6.995   0.121   4.161 -0.6037  0.8952 -0.1802
 1207SOL     ow 4825   2.912   0.651   2.491  0.0827  0.4547 -0.3449
 1207SOL     hw 4826   2.996   0.658   2.444 -0.4839 -0.7787 -1.6290
 1207SOL     hw 4827   2.848   0.684   2.428 -0.6377 -0.7184 -0.2448
 1207SOL     vw 4828   2.915   0.657   2.476 -0.0870  0.1372 -0.5012
 1208SOL     ow 4829   6.332   4.327   3.937  0.2787  0.1036 -0.4383
 1208SOL     hw 4830   6.305   4.278   3.859  0.4909  0.5121 -0.7726
 1208SOL     hw 4831   6.262   4.310   4.001  0.6535 -1.1366 -0.3195
 1208SOL     vw 4832   6.319   4.318   3.935  0.3562 -0.0060 -0.4667
 1209SOL     ow 4833   6.058   3.531   5.611 -0.4393 -0.2752  0.1411
 1209SOL     hw 4834   6.130   3.587   5.640  0.0905 -1.1396  0.5304
 1209SOL     hw 4835   6.077   3.446   5.650 -1.0679 -0.8080 -0.6855
 1209SOL     vw 4836   6.070   3.527   5.620 -0.4523 -0.4596  0.0832
 1210SOL     ow 4837   3.506   6.597   6.690 -0.0419  0.1182  0.1637
 1210SOL     hw 4838   3.588   6.646   6.700 -0.5180  0.6645  1.6268
 1210SOL     hw 4839   3.438   6.664   6.687 -0.6771 -0.3794  1.9407
 1210SOL     vw 4840   3.508   6.612   6.691 -0.1885  0.1247  0.5908
 1211SOL     ow 4841   5.507   2.221   5.095 -0.0558 -0.7041  0.0764
 1211SOL     hw 4842   5.502   2.207   5.000  0.3018 -2.1104  0.2459
 1211SOL     hw 4843   5.581   2.280   5.106  0.1897 -0.8935 -0.4911
 1211SOL     vw 4844   5.516   2.227   5.084  0.0236 -0.9146  0.0236
 1212SOL     ow 4845   4.985   0.882   2.950  0.4881  0.4615  0.0186
 1212SOL     hw 4846   5.009   0.871   3.042  0.3964  0.9902  0.1088
 1212SOL     hw 4847   5.035   0.815   2.904 -1.0567 -1.2404  0.6877
 1212SOL     vw 4848   4.994   0.872   2.956  0.2720  0.3067  0.1187
 1213SOL     ow 4849   4.241   5.828   4.489  0.1057  0.9388  0.6590
 1213SOL     hw 4850   4.186   5.829   4.566 -0.4965 -0.8065  0.2931
 1213SOL     hw 4851   4.180   5.830   4.415  0.4914 -0.8697  0.2486
 1213SOL     vw 4852   4.226   5.829   4.489  0.0775  0.4699  0.5562
 1214SOL     ow 4853   4.534   6.997   6.107 -0.0187  0.3886 -0.6155
 1214SOL     hw 4854   4.557   6.909   6.137 -0.8629  0.3712  0.0281
 1214SOL     hw 4855   4.470   6.983   6.037  1.2192  0.4552 -1.7786
 1214SOL     vw 4856   4.528   6.984   6.102  0.0331  0.3953 -0.6840
 1215SOL     ow 4857   3.994   0.118   3.116  0.3142 -0.1201  0.0362
 1215SOL     hw 4858   3.958   0.172   3.186  1.1841  1.0225 -0.3792
 1215SOL     hw 4859   3.961   0.030   3.136  0.5994  0.1489  1.9289
 1215SOL     vw 4860   3.985   0.113   3.128  0.4666  0.0661  0.2311
 1216SOL     ow 4861   2.282   0.907   6.989  0.3094  0.2940 -0.4094
 1216SOL     hw 4862   2.261   0.915   7.082  3.0110 -2.3181  0.6052
 1216SOL     hw 4863   2.342   0.979   6.972  1.3255 -0.3128  0.4631
 1216SOL     vw 4864   2.287   0.917   6.999  0.7999 -0.1307 -0.1605
 1217SOL     ow 4865   0.612   6.975   5.089 -0.0979 -0.7206  0.0155
 1217SOL     hw 4866   0.688   6.974   5.147 -0.3466  1.3683  0.4635
 1217SOL     hw 4867   0.557   7.046   5.123 -3.0013 -3.0732  0.6087
 1217SOL     vw 4868   0.615   6.984   5.101 -0.5138 -0.7553  0.1528
 1218SOL     ow 4869   0.509   5.570   1.812  0.4041  0.0910 -0.2534
 1218SOL     hw 4870   0.554   5.655   1.806  0.9338  0.0408  1.8711
 1218SOL     hw 4871   0.418   5.592   1.829  0.3714  0.2419 -0.6350
 1218SOL     vw 4872   0.503   5.584   1.814  0.4697  0.1044 -0.0234
 1219SOL     ow 4873   3.043   1.117   4.331 -0.0961 -0.2433 -0.3369
 1219SOL     hw 4874   3.124   1.151   4.368 -1.6871  2.5016  0.9840
 1219SOL     hw 4875   3.030   1.033   4.374  1.4398 -0.1797  0.3001
 1219SOL     vw 4876   3.052   1.110   4.341 -0.1035  0.1272 -0.0784
 1220SOL     ow 4877   4.298   0.538   3.630 -0.0023 -0.4103  0.9023
 1220SOL     hw 4878   4.284   0.629   3.605  1.9347 -0.5889 -1.1682
 1220SOL     hw 4879   4.394   0.530   3.635 -0.1005 -2.5091  0.1767
 1220SOL     vw 4880   4.309   0.549   3.627  0.2403 -0.7108  0.5335
 1221SOL     ow 4881   3.956   3.464   1.952  0.0213 -0.1392  0.1088
 1221SOL     hw 4882   3.950   3.412   2.032 -0.4586  0.8439  0.7329
 1221SOL     hw 4883   4.034   3.518   1.965  1.8987 -2.2534 -1.5206
 1221SOL     vw 4884   3.966   3.464   1.964  0.2058 -0.2882 -0.0240
 1222SOL     ow 4885   4.788   5.303   5.104 -0.2283  0.5901 -0.6807
 1222SOL     hw 4886   4.864   5.322   5.048  0.8987 -1.8889 -0.1207
 1222SOL     hw 4887   4.756   5.218   5.073 -1.9857  0.9594 -0.0165
 1222SOL     vw 4888   4.794   5.294   5.092 -0.3116  0.3116 -0.5193
 1223SOL     ow 4889   0.457   4.832   5.268 -0.5374  0.0660 -0.2581
 1223SOL     hw 4890   0.399   4.778   5.321  1.3097 -0.1213  1.6814
 1223SOL     hw 4891   0.525   4.773   5.238  0.4189  0.8879  0.2260
 1223SOL     vw 4892   0.458   4.817   5.271 -0.1675  0.1497  0.0618
 1224SOL     ow 4893   7.016   0.443   4.922  0.3331  0.0498  0.3744
 1224SOL     hw 4894   7.073   0.465   4.995  1.7557  0.5382 -0.8283
 1224SOL     hw 4895   6.931   0.480   4.945  1.3382  2.2448  0.7513
 1224SOL     vw 4896   7.012   0.451   4.935  0.6533  0.4039  0.2654
 1225SOL     ow 4897   2.254   4.780   3.545  0.3269 -0.8804 -0.1343
 1225SOL     hw 4898   2.326   4.812   3.599  1.6387  1.1207 -2.8604
 1225SOL     hw 4899   2.240   4.690   3.575  3.1580 -0.9490  1.3102
 1225SOL     vw 4900   2.262   4.772   3.556  0.8734 -0.6251 -0.3034
 1226SOL     ow 4901   4.934   0.871   4.831 -0.2406  0.3650  0.1819
 1226SOL     hw 4902   4.877   0.926   4.778 -0.9731 -0.3038  0.2579
 1226SOL     hw 4903   4.911   0.781   4.806 -0.3973  0.0410  1.4111
 1226SOL     vw 4904   4.923   0.866   4.821 -0.3576  0.2340  0.3541
 1227SOL     ow 4905   2.979   2.355   3.790  0.4999 -0.2390  0.2288
 1227SOL     hw 4906   2.922   2.427   3.763 -0.5579 -0.9063  0.6456
 1227SOL     hw 4907   3.025   2.330   3.710  1.4146  1.3330  0.2060
 1227SOL     vw 4908   2.977   2.361   3.776  0.4810 -0.1198  0.2806
 1228SOL     ow 4909   6.877   0.344   1.674  0.6517  0.2251 -0.0677
 1228SOL     hw 4910   6.798   0.364   1.726  0.5959 -0.0309 -0.0555
 1228SOL     hw 4911   6.902   0.256   1.702  1.0013  0.3452  0.0001
 1228SOL     vw 4912   6.870   0.335   1.685  0.6905  0.2072 -0.0572
 1229SOL     ow 4913   6.672   7.039   2.830  0.7349 -0.2997 -0.1509
 1229SOL     hw 4914   6.650   7.080   2.913 -1.6410 -0.0502 -0.8266
 1229SOL     hw 4915   6.647   6.947   2.842  1.7790 -0.5902 -0.1269
 1229SOL     vw 4916   6.666   7.032   2.842  0.5591 -0.3052 -0.2369
 1230SOL     ow 4917   3.497   1.696   4.513 -0.0969 -0.2512 -0.5445
 1230SOL     hw 4918   3.577   1.648   4.534 -0.3563 -1.1284 -1.5218
 1230SOL     hw 4919   3.431   1.660   4.573  0.2009  0.3993  0.1881
 1230SOL     vw 4920   3.499   1.685   4.524 -0.0918 -0.2811 -0.5767
 1231SOL     ow 4921   0.650   4.675   6.307 -0.6165 -0.4111 -0.1214
 1231SOL     hw 4922   0.673   4.582   6.310 -2.0523 -0.7856  0.1455
 1231SOL     hw 4923   0.618   4.689   6.218  0.5050  0.0755 -0.4620
 1231SOL     vw 4924   0.649   4.665   6.296 -0.6580 -0.3963 -0.1314
 1232SOL     ow 4925   4.051   3.621   0.963  0.1773 -0.5490 -0.0433
 1232SOL     hw 4926   4.022   3.708   0.989  2.1054  0.2287 -0.3047
 1232SOL     hw 4927   4.072   3.576   1.045  0.9039 -0.1053  0.0198
 1232SOL     vw 4928   4.050   3.626   0.977  0.5276 -0.3877 -0.0695
 1233SOL     ow 4929   3.527   1.724   2.962  0.3594  0.3241 -0.2345
 1233SOL     hw 4930   3.479   1.690   2.886 -0.7434  1.6223 -0.1671
 1233SOL     hw 4931   3.618   1.727   2.933 -0.2648  2.8023 -2.3802
 1233SOL     vw 4932   3.532   1.720   2.948  0.1315  0.8222 -0.5088
 1234SOL     ow 4933   5.946   3.285   5.542  0.2322  0.0465  0.2219
 1234SOL     hw 4934   5.867   3.262   5.589  0.3680 -0.6002  0.1496
 1234SOL     hw 4935   5.984   3.201   5.516 -0.1003  0.3743 -1.4747
 1234SOL     vw 4936   5.941   3.271   5.545  0.2062  0.0044 -0.0117
 1235SOL     ow 4937   1.406   2.899   6.448 -0.4489  0.3360 -0.6816
 1235SOL     hw 4938   1.469   2.967   6.425 -0.6521  0.7373 -0.0987
 1235SOL     hw 4939   1.419   2.830   6.383  0.4170  0.5190 -0.7118
 1235SOL     vw 4940   1.416   2.899   6.436 -0.3615  0.4131 -0.6087
 1236SOL     ow 4941   3.227   1.772   5.356  0.0424 -0.5467  0.1087
 1236SOL     hw 4942   3.272   1.691   5.381  2.3803 -0.3707 -2.9905
 1236SOL     hw 4943   3.295   1.824   5.313 -1.7328  2.5323  0.7523
 1236SOL     vw 4944   3.242   1.768   5.354  0.1167 -0.1172 -0.2151
 1237SOL     ow 4945   1.499   2.023   2.298 -0.1298  0.2468 -0.1322
 1237SOL     hw 4946   1.481   1.936   2.263 -1.3289  0.0584  0.8975
 1237SOL     hw 4947   1.550   2.066   2.229 -0.1548 -1.0000 -0.9659
 1237SOL     vw 4948   1.504   2.017   2.284 -0.2913  0.0573 -0.1063
 1238SOL     ow 4949   3.967   5.512   6.596  0.0674 -0.4192 -0.0700
 1238SOL     hw 4950   3.957   5.529   6.502  1.7665  0.0813 -0.1977
 1238SOL     hw 4951   3.927   5.426   6.609  2.0693 -1.6946 -1.7791
 1238SOL     vw 4952   3.960   5.503   6.585  0.5558 -0.5214 -0.3123
 1239SOL     ow 4953   0.104   3.922   4.978 -0.4540  0.0145  0.4450
 1239SOL     hw 4954   0.039   3.894   5.042 -1.3688 -0.7405 -0.7545
 1239SOL     hw 4955   0.098   4.017   4.977 -2.1583 -0.0633 -0.2158
 1239SOL     vw 4956   0.095   3.931   4.986 -0.7996 -0.0955  0.1998
 1240SOL     ow 4957   4.035   4.143   0.071  0.4000  0.2307  0.2115
 1240SOL     hw 4958   4.125   4.120   0.093 -0.2892 -1.3452  1.6036
 1240SOL     hw 4959   4.011   4.082   0.001  0.9010  1.7683 -1.3788
 1240SOL     vw 4960   4.044   4.132   0.065  0.3753  0.2258  0.1853
 1241SOL     ow 4961   2.427   2.569   3.474  0.5290  0.2781  0.3449
 1241SOL     hw 4962   2.453   2.603   3.559 -0.4009  2.6289 -0.2277
 1241SOL     hw 4963   2.343   2.611   3.456 -1.1346 -2.9692 -0.1742
 1241SOL     vw 4964   2.419   2.579   3.483  0.1869  0.1597  0.2009
 1242SOL     ow 4965   4.941   4.887   2.775  0.2250 -0.5414  0.1165
 1242SOL     hw 4966   4.857   4.902   2.818  0.4115 -0.9209  0.6364
 1242SOL     hw 4967   4.979   4.974   2.765  1.3433 -0.5225  3.1957
 1242SOL     vw 4968   4.935   4.900   2.780  0.3974 -0.5887  0.5913
 1243SOL     ow 4969   1.727   5.961   3.293  0.3101 -0.1921  0.7396
 1243SOL     hw 4970   1.817   5.993   3.300  0.3330 -0.1803  0.4387
 1243SOL     hw 4971   1.716   5.902   3.367  0.7389 -0.6077  0.4783
 1243SOL     vw 4972   1.737   5.958   3.303  0.3697 -0.2456  0.6655
 1244SOL     ow 4973   4.328   5.359   2.665 -0.1343 -0.0544  0.1357
 1244SOL     hw 4974   4.281   5.284   2.701  0.5469 -1.1073 -1.0689
 1244SOL     hw 4975   4.419   5.331   2.663  0.0903  0.6915 -0.5999
 1244SOL     vw 4976   4.334   5.345   2.669 -0.0148 -0.0951 -0.1204
 1245SOL     ow 4977   5.229   7.093   3.177  0.1733  0.1805  0.2853
 1245SOL     hw 4978   5.229   7.154   3.103 -0.0595 -0.7284 -0.4779
 1245SOL     hw 4979   5.265   7.012   3.141  0.4495 -0.1538  1.2821
 1245SOL     vw 4980   5.234   7.091   3.162  0.1788  0.0165  0.3163
 1246SOL     ow 4981   1.013   6.843   4.759  0.2772 -0.2047 -0.1356
 1246SOL     hw 4982   1.030   6.937   4.757  1.4249 -0.4136 -0.3049
 1246SOL     hw 4983   1.066   6.806   4.689  0.9541 -1.1544  0.8433
 1246SOL     vw 4984   1.022   6.850   4.750  0.5179 -0.3576 -0.0286
 1247SOL     ow 4985   3.243   5.749   5.342 -0.5427 -0.0937  0.0349
 1247SOL     hw 4986   3.337   5.747   5.359  0.1414 -1.0854 -3.2201
 1247SOL     hw 4987   3.229   5.830   5.293 -1.5201  0.3372  0.9921
 1247SOL     vw 4988   3.253   5.759   5.338 -0.5814 -0.1676 -0.2682
 1248SOL     ow 4989   1.359   1.590   3.080 -0.0094 -0.2345 -0.0522
 1248SOL     hw 4990   1.437   1.574   3.028  1.7473  2.0661  1.6812
 1248SOL     hw 4991   1.384   1.570   3.170 -1.8788 -0.7732  0.4091
 1248SOL     vw 4992   1.372   1.585   3.085 -0.0242 -0.0020  0.2375
 1249SOL     ow 4993   6.291   2.614   0.232  0.2078  0.5126 -0.2291
 1249SOL     hw 4994   6.277   2.524   0.203 -0.3017  0.4327  0.2511
 1249SOL     hw 4995   6.347   2.606   0.310 -0.9173  0.5126  0.5933
 1249SOL     vw 4996   6.297   2.601   0.238 -0.0079  0.5021 -0.0573
 1250SOL     ow 4997   4.263   3.789   6.753  0.6481 -0.2339  0.4282
 1250SOL     hw 4998   4.170   3.773   6.738  0.6425  0.8579 -0.9386
 1250SOL     hw 4999   4.294   3.828   6.671  1.8786  1.1922  1.5042
 1250SOL     vw 5000   4.255   3.792   6.740  0.8097  0.0983  0.3901
 1251SOL     ow 5001   1.015   1.322   2.104  0.2960 -0.2015  0.1431
 1251SOL     hw 5002   1.016   1.273   2.186  2.3461 -1.2153 -0.4216
 1251SOL     hw 5003   1.077   1.393   2.118  0.3982 -0.1808 -0.4007
 1251SOL     vw 5004   1.023   1.325   2.117  0.5799 -0.3325 -0.0032
 1252SOL     ow 5005   6.961   3.447   3.381 -0.6903 -0.6574  0.4168
 1252SOL     hw 5006   6.965   3.353   3.400  1.6623 -1.0131 -1.4094
 1252SOL     hw 5007   6.976   3.488   3.466  0.3738 -1.9898  0.9106
 1252SOL     vw 5008   6.963   3.440   3.395 -0.2394 -0.8801  0.2410
 1253SOL     ow 5009   1.876   6.844   5.940  0.2247  0.1223  0.7833
 1253SOL     hw 5010   1.805   6.839   6.004  0.6833  1.3895  1.4288
 1253SOL     hw 5011   1.925   6.763   5.952 -1.3896 -1.0445 -0.0547
 1253SOL     vw 5012   1.873   6.832   5.950  0.0722  0.1354  0.7579
 1254SOL     ow 5013   6.213   2.861   0.630 -0.6270  0.2944  0.0300
 1254SOL     hw 5014   6.307   2.862   0.647 -0.2153 -0.8509 -1.8421
 1254SOL     hw 5015   6.176   2.915   0.699  1.1920 -0.7127  1.9241
 1254SOL     vw 5016   6.221   2.868   0.641 -0.3326  0.0103  0.0329
 1255SOL     ow 5017   3.014   1.578   0.855 -0.0503  0.4406 -0.2330
 1255SOL     hw 5018   3.091   1.547   0.903 -0.2636  2.5699  1.6775
 1255SOL     hw 5019   3.049   1.610   0.772  1.1929  1.5312  0.6707
 1255SOL     vw 5020   3.029   1.578   0.851  0.0856  0.8654  0.1383
 1256SOL     ow 5021   0.426   3.774   1.088 -0.2881 -0.2510  0.3309
 1256SOL     hw 5022   0.422   3.869   1.099 -1.4720 -0.3123  0.4866
 1256SOL     hw 5023   0.338   3.743   1.108 -0.6239 -1.1233 -2.0928
 1256SOL     vw 5024   0.414   3.783   1.092 -0.4886 -0.3743  0.0317
 1257SOL     ow 5025   2.849   4.465   6.618 -0.1480  0.0035 -0.6954
 1257SOL     hw 5026   2.850   4.488   6.711 -0.3977 -0.7503 -0.4965
 1257SOL     hw 5027   2.933   4.495   6.585 -0.5054  1.2999 -0.4889
 1257SOL     vw 5028   2.860   4.472   6.626 -0.2282  0.0751 -0.6421
 1258SOL     ow 5029   2.883   1.314   5.401  0.5228  0.3593 -0.1175
 1258SOL     hw 5030   2.874   1.219   5.392  0.4847  0.0887  2.1271
 1258SOL     hw 5031   2.974   1.331   5.376  0.5497 -0.2911 -0.4842
 1258SOL     vw 5032   2.894   1.303   5.397  0.5213  0.2378  0.1302
 1259SOL     ow 5033   2.119   2.580   1.168 -0.1360  0.2172 -0.1366
 1259SOL     hw 5034   2.110   2.566   1.262  2.5407  0.1327  0.1708
 1259SOL     hw 5035   2.207   2.549   1.147 -0.1068  1.5965 -2.4055
 1259SOL     vw 5036   2.129   2.574   1.178  0.2210  0.3880 -0.3954
 1260SOL     ow 5037   5.117   5.017   6.667  0.2455 -0.1917  0.2878
 1260SOL     hw 5038   5.024   4.995   6.657  0.4188 -1.3957  1.1342
 1260SOL     hw 5039   5.117   5.103   6.709 -0.4630  0.3876 -0.8347
 1260SOL     vw 5040   5.105   5.025   6.671  0.1750 -0.2742  0.2515
 1261SOL     ow 5041   5.411   4.106   1.860 -0.1258  0.0311  0.4515
 1261SOL     hw 5042   5.354   4.168   1.905 -1.5548 -1.5927  1.0409
 1261SOL     hw 5043   5.473   4.076   1.927  1.4133  1.7083 -0.1596
 1261SOL     vw 5044   5.411   4.110   1.875 -0.1116  0.0381  0.4487
 1262SOL     ow 5045   4.680   1.631   0.026 -0.2118  0.2631  0.1983
 1262SOL     hw 5046   4.654   1.723   0.029  1.2539  0.6682  1.5384
 1262SOL     hw 5047   4.721   1.620  -0.060  0.3267  1.0626  0.3539
 1262SOL     vw 5048   4.682   1.642   0.015  0.0527  0.4221  0.3956
 1263SOL     ow 5049   4.818   5.820   2.026 -0.3175 -0.2876 -0.7346
 1263SOL     hw 5050   4.860   5.896   1.984 -0.1841 -1.0680 -2.0720
 1263SOL     hw 5051   4.774   5.857   2.103  0.4717  1.0019 -0.8607
 1263SOL     vw 5052   4.818   5.835   2.030 -0.1957 -0.2203 -0.9278
 1264SOL     ow 5053   5.885   1.957   6.850 -0.0544 -0.2337  0.0142
 1264SOL     hw 5054   5.865   2.031   6.793 -2.1064 -0.6461  0.1410
 1264SOL     hw 5055   5.893   1.883   6.790 -1.0118 -0.4420  0.1259
 1264SOL     vw 5056   5.884   1.957   6.835 -0.4516 -0.3156  0.0455
 1265SOL     ow 5057   4.678   3.172   4.386 -0.6120  0.1414 -0.1436
 1265SOL     hw 5058   4.690   3.226   4.464 -2.1423 -2.5622  2.1460
 1265SOL     hw 5059   4.751   3.110   4.388 -0.3485  0.4011 -1.2254
 1265SOL     vw 5060   4.689   3.171   4.397 -0.7792 -0.1811  0.0155
 1266SOL     ow 5061   5.497   2.864   5.932  0.4882 -0.0812 -0.2925
 1266SOL     hw 5062   5.439   2.914   5.990  1.0582  1.0379 -0.6470
 1266SOL     hw 5063   5.544   2.931   5.883  0.2480 -1.0024 -1.8277
 1266SOL     vw 5064   5.496   2.880   5.933  0.5317 -0.0552 -0.5417
 1267SOL     ow 5065   0.047   6.808   3.332  0.3043 -0.4024  0.5264
 1267SOL     hw 5066   0.055   6.812   3.427 -0.0126  0.8334  0.5192
 1267SOL     hw 5067   0.130   6.771   3.302  1.1664  0.9283  1.1819
 1267SOL     vw 5068   0.059   6.804   3.340  0.3762 -0.0639  0.6120
 1268SOL     ow 5069   5.916   5.063   2.913 -0.0146 -0.3758 -0.0456
 1268SOL     hw 5070   5.843   5.123   2.930 -0.3162 -1.1687  1.8255
 1268SOL     hw 5071   5.909   5.041   2.821 -0.8127  1.2667 -0.4060
 1268SOL     vw 5072   5.905   5.068   2.903 -0.1600 -0.2637  0.1537
 1269SOL     ow 5073   0.179   0.916   7.009  0.5577 -0.5009 -0.2405
 1269SOL     hw 5074   0.183   0.840   6.951  0.5757 -0.0091 -0.8991
 1269SOL     hw 5075   0.092   0.953   6.995  0.0139 -1.1820  1.1194
 1269SOL     vw 5076   0.168   0.911   7.000  0.4883 -0.5258 -0.1481
 1270SOL     ow 5077   1.141   3.591   6.467 -0.9752  0.2313 -0.2659
 1270SOL     hw 5078   1.056   3.627   6.440 -1.3176  0.7854  1.4231
 1270SOL     hw 5079   1.146   3.609   6.561  0.9343  0.0149 -0.2868
 1270SOL     vw 5080   1.130   3.598   6.476 -0.7684  0.2757 -0.0455
 1271SOL     ow 5081   5.216   6.540   2.344  0.0395  0.9837 -0.1401
 1271SOL     hw 5082   5.239   6.620   2.297  0.5049  0.9618  0.0426
 1271SOL     hw 5083   5.288   6.527   2.406  0.6127 -0.2807 -1.0418
 1271SOL     vw 5084   5.228   6.549   2.346  0.1767  0.8140 -0.2350
 1272SOL     ow 5085   4.651   3.357   0.193 -0.0022 -0.5741  0.1960
 1272SOL     hw 5086   4.722   3.366   0.257  0.1541  0.8229 -0.1272
 1272SOL     hw 5087   4.581   3.312   0.240  1.5119 -3.1576  0.1535
 1272SOL     vw 5088   4.651   3.352   0.208  0.2182 -0.7306  0.1478
 1273SOL     ow 5089   0.352   3.414   4.487  0.1164 -0.0243 -0.6597
 1273SOL     hw 5090   0.410   3.341   4.508 -0.4859 -0.8602 -1.7871
 1273SOL     hw 5091   0.266   3.387   4.519 -0.0873  0.2422 -0.9681
 1273SOL     vw 5092   0.349   3.401   4.494  0.0101 -0.0993 -0.8495
 1274SOL     ow 5093   4.027   4.705   2.221 -0.2246 -0.3499 -0.3943
 1274SOL     hw 5094   4.106   4.694   2.274  0.0034  3.6003  0.4184
 1274SOL     hw 5095   4.045   4.658   2.140  1.9707 -1.4777  0.6696
 1274SOL     vw 5096   4.039   4.697   2.217  0.0954  0.0224 -0.1467
 1275SOL     ow 5097   2.129   0.345   0.506 -0.7304 -0.6171  0.5400
 1275SOL     hw 5098   2.036   0.330   0.525 -0.7866 -0.6529  0.2351
 1275SOL     hw 5099   2.172   0.264   0.531 -0.6213 -0.2158  1.7512
 1275SOL     vw 5100   2.122   0.333   0.512 -0.7234 -0.5689  0.6596
 1276SOL     ow 5101   3.209   5.285   2.349 -0.1152 -0.1746  0.3957
 1276SOL     hw 5102   3.250   5.199   2.338  0.7917  0.0819  1.5760
 1276SOL     hw 5103   3.192   5.315   2.259 -1.1275 -1.8699 -0.0420
 1276SOL     vw 5104   3.212   5.277   2.336 -0.1291 -0.3643  0.4938
 1277SOL     ow 5105   3.289   0.048   0.121 -0.2107 -0.7265 -0.6309
 1277SOL     hw 5106   3.254   0.044   0.210 -0.6199  0.5123 -0.7171
 1277SOL     hw 5107   3.383   0.033   0.132 -0.2123 -0.2712  0.0530
 1277SOL     vw 5108   3.297   0.046   0.134 -0.2649 -0.5030 -0.5520
 1278SOL     ow 5109   2.247   3.172   5.269 -0.3853 -0.3563  0.0198
 1278SOL     hw 5110   2.305   3.231   5.221 -0.6175  0.2923  0.5251
 1278SOL     hw 5111   2.306   3.104   5.303  0.2241  0.6941  1.1470
 1278SOL     vw 5112   2.263   3.171   5.267 -0.3355 -0.1322  0.2353
 1279SOL     ow 5113   6.776   0.366   1.009  0.0614 -0.5478  0.1935
 1279SOL     hw 5114   6.687   0.333   1.022  0.0375 -0.2918  0.7279
 1279SOL     hw 5115   6.790   0.426   1.083  0.7419 -0.7279  0.2191
 1279SOL     vw 5116   6.766   0.370   1.021  0.1478 -0.5378  0.2674
 1280SOL     ow 5117   6.580   1.209   0.889  0.5519 -0.2967  0.0935
 1280SOL     hw 5118   6.576   1.174   0.978  1.6418 -2.2267 -0.5374
 1280SOL     hw 5119   6.506   1.269   0.882 -1.1082 -2.0743  1.5111
 1280SOL     vw 5120   6.570   1.212   0.899  0.4768 -0.7859  0.1973
 1281SOL     ow 5121   0.848   3.363   1.012 -0.1259 -0.2934 -0.6995
 1281SOL     hw 5122   0.848   3.322   1.099 -2.7252 -0.2098 -0.5931
 1281SOL     hw 5123   0.941   3.368   0.988  0.6359 -0.7858  1.8365
 1281SOL     vw 5124   0.860   3.358   1.021 -0.3683 -0.3474 -0.3508
 1282SOL     ow 5125   3.579   3.854   4.973  0.1127  0.8196  0.0426
 1282SOL     hw 5126   3.516   3.890   5.036  0.1556  0.2829  0.3940
 1282SOL     hw 5127   3.651   3.821   5.027 -0.8600 -1.7099 -0.0805
 1282SOL     vw 5128   3.580   3.855   4.988 -0.0099  0.4150  0.0725
 1283SOL     ow 5129   1.348   3.500   0.261 -0.7218 -0.1483 -0.4965
 1283SOL     hw 5130   1.377   3.467   0.176 -1.2407 -0.7510 -0.4475
 1283SOL     hw 5131   1.402   3.577   0.277  0.8554 -1.2492 -0.3919
 1283SOL     vw 5132   1.359   3.506   0.252 -0.5822 -0.3730 -0.4763
 1284SOL     ow 5133   2.378   6.818   3.169 -0.2954 -0.1566 -0.5249
 1284SOL     hw 5134   2.341   6.730   3.179 -0.7741  0.0744 -0.1847
 1284SOL     hw 5135   2.339   6.868   3.241  0.3086  0.2237 -0.4572
 1284SOL     vw 5136   2.368   6.813   3.180 -0.2789 -0.0758 -0.4711
 1285SOL     ow 5137   3.377   0.846   0.986  0.1322 -0.0269  0.0541
 1285SOL     hw 5138   3.343   0.933   1.004  0.0239 -0.4464  2.2131
 1285SOL     hw 5139   3.300   0.789   0.988  0.5429 -0.6197  2.3647
 1285SOL     vw 5140   3.362   0.850   0.989  0.1720 -0.1605  0.6438
 1286SOL     ow 5141   0.497   3.479   1.241  0.1741 -0.4643 -0.6681
 1286SOL     hw 5142   0.553   3.406   1.265  0.5692 -0.0978 -0.4780
 1286SOL     hw 5143   0.415   3.462   1.288  1.1536  0.5931  1.5331
 1286SOL     vw 5144   0.493   3.467   1.250  0.3555 -0.2766 -0.3527
 1287SOL     ow 5145   1.983   3.217   6.175  0.2656  0.0203 -0.5933
 1287SOL     hw 5146   1.910   3.276   6.157  2.1339  2.0964 -1.8217
 1287SOL     hw 5147   1.985   3.158   6.100  0.0558  0.1821 -0.7288
 1287SOL     vw 5148   1.974   3.217   6.163  0.4845  0.3157 -0.7732
 1288SOL     ow 5149   2.194   4.139   4.399 -0.4079 -0.0458  0.0687
 1288SOL     hw 5150   2.115   4.101   4.362  0.0438 -2.2719  1.2233
 1288SOL     hw 5151   2.187   4.233   4.380 -4.1319  0.1439  1.6066
 1288SOL     vw 5152   2.183   4.147   4.391 -0.8396 -0.3145  0.4237
 1289SOL     ow 5153   6.470   5.873   5.804 -0.3180 -0.2632  1.0829
 1289SOL     hw 5154   6.429   5.855   5.719 -2.7157 -1.2053  2.3271
 1289SOL     hw 5155   6.558   5.837   5.797 -0.3562 -0.0391 -1.0928
 1289SOL     vw 5156   6.476   5.866   5.792 -0.6397 -0.3579  0.9601
 1290SOL     ow 5157   5.168   0.040   5.926  0.8172 -0.4120 -0.4193
 1290SOL     hw 5158   5.220   0.047   6.006  0.4407 -3.4924  0.2141
 1290SOL     hw 5159   5.225  -0.006   5.865  0.3944  0.2068 -1.2985
 1290SOL     vw 5160   5.183   0.035   5.929  0.7117 -0.7368 -0.4518
 1291SOL     ow 5161   3.045   5.503   1.033  0.0627  0.1914  0.6829
 1291SOL     hw 5162   3.032   5.476   1.124  0.6842  0.6455  0.9087
 1291SOL     hw 5163   3.131   5.544   1.032  0.3805 -0.4600 -0.2615
 1291SOL     vw 5164   3.054   5.505   1.045  0.1866  0.1652  0.5881
 1292SOL     ow 5165   6.587   4.069   2.736  0.3995 -0.2248 -0.0288
 1292SOL     hw 5166   6.496   4.077   2.707  0.2217 -2.2305 -0.2289
 1292SOL     hw 5167   6.594   4.124   2.813 -0.7172  0.7156 -0.5816
 1292SOL     vw 5168   6.576   4.077   2.742  0.2284 -0.3655 -0.1280
 1293SOL     ow 5169   3.335   2.657   6.743  0.4327 -0.6667  0.7352
 1293SOL     hw 5170   3.411   2.608   6.713  0.8567 -0.1353  0.9388
 1293SOL     hw 5171   3.294   2.600   6.808  0.9136 -0.7648  0.9557
 1293SOL     vw 5172   3.340   2.643   6.748  0.5522 -0.6096  0.7913
 1294SOL     ow 5173   3.561   1.179   1.410  0.6594 -0.5810  0.1527
 1294SOL     hw 5174   3.555   1.271   1.382  2.1917 -0.4034  0.2965
 1294SOL     hw 5175   3.650   1.171   1.445  0.5871 -2.1560  0.0459
 1294SOL     vw 5176   3.572   1.190   1.411  0.8520 -0.7654  0.1575
 1295SOL     ow 5177   1.278   5.183   6.029 -0.5436 -0.2577 -0.0705
 1295SOL     hw 5178   1.276   5.232   6.111  2.0266  0.5592 -0.3925
 1295SOL     hw 5179   1.301   5.248   5.963  0.1109 -1.3809 -0.9847
 1295SOL     vw 5180   1.281   5.198   6.031 -0.1181 -0.2980 -0.2337
 1296SOL     ow 5181   7.033   4.104   2.357  0.2158 -0.3585 -0.1160
 1296SOL     hw 5182   6.965   4.120   2.292 -0.2104 -0.8524  0.1949
 1296SOL     hw 5183   7.115   4.101   2.308  0.4658  3.2348 -0.1881
 1296SOL     vw 5184   7.035   4.105   2.342  0.1929  0.0505 -0.0843
 1297SOL     ow 5185   3.897   2.861   3.978  0.0373  0.1241 -0.1261
 1297SOL     hw 5186   3.839   2.832   4.049 -0.7171 -0.1575 -0.8436
 1297SOL     hw 5187   3.981   2.820   3.997 -0.6946 -1.6398 -0.4929
 1297SOL     vw 5188   3.900   2.852   3.990 -0.1589 -0.1459 -0.2692
 1298SOL     ow 5189   4.375   3.946   7.003 -0.6209  0.3328  0.2414
 1298SOL     hw 5190   4.340   4.011   7.064  0.7686  2.1199 -0.7350
 1298SOL     hw 5191   4.469   3.947   7.020 -0.5169 -1.0319 -0.1890
 1298SOL     vw 5192   4.383   3.955   7.013 -0.4239  0.3886  0.0558
 1299SOL     ow 5193   0.121   2.914   1.162 -0.1689  0.4036  0.3262
 1299SOL     hw 5194   0.153   2.861   1.089 -0.5476  2.2105 -1.2353
 1299SOL     hw 5195   0.129   3.004   1.132  0.3494  1.2841  2.8282
 1299SOL     vw 5196   0.126   2.919   1.149 -0.1505  0.7579  0.4503
 1300SOL     ow 5197   7.104   4.892   1.112 -0.2452 -0.1617 -0.4840
 1300SOL     hw 5198   7.199   4.881   1.112 -0.1702  0.4343  0.2027
 1300SOL     hw 5199   7.074   4.847   1.192 -0.6025 -0.7690 -0.9449
 1300SOL     vw 5200   7.112   4.884   1.123 -0.2824 -0.1633 -0.4542
 1301SOL     ow 5201   0.803   0.376   3.737  0.0204  0.6799 -0.3729
 1301SOL     hw 5202   0.783   0.285   3.713 -0.2979  1.2249 -2.2879
 1301SOL     hw 5203   0.733   0.399   3.798  0.2294 -0.4193  0.3201
 1301SOL     vw 5204   0.791   0.367   3.742  0.0060  0.6068 -0.5342
 1302SOL     ow 5205   4.724   3.626   4.576  0.1921 -0.7642  0.4750
 1302SOL     hw 5206   4.674   3.579   4.642 -1.3665 -0.3373 -0.3562
 1302SOL     hw 5207   4.816   3.609   4.599 -0.3081 -2.3672  1.4800
 1302SOL     vw 5208   4.730   3.617   4.588 -0.0794 -0.9195  0.4981
 1303SOL     ow 5209   3.431   3.476   4.640 -0.2726  0.2305 -0.2424
 1303SOL     hw 5210   3.434   3.467   4.735 -0.3518  1.3045 -0.1263
 1303SOL     hw 5211   3.443   3.387   4.607 -0.8235 -0.2422  0.7787
 1303SOL     vw 5212   3.433   3.463   4.648 -0.3557  0.3099 -0.0925
 1304SOL     ow 5213   3.062   1.365   1.551  0.6255 -0.2011  0.3321
 1304SOL     hw 5214   3.101   1.424   1.615 -0.1758  1.1879 -0.4232
 1304SOL     hw 5215   3.098   1.393   1.467  0.6891 -1.1762  0.0254
 1304SOL     vw 5216   3.072   1.376   1.549  0.5281 -0.1464  0.1919
 1305SOL     ow 5217   3.273   5.471   1.846 -0.0718  0.3477  0.4009
 1305SOL     hw 5218   3.310   5.471   1.758 -0.9765 -1.7680 -0.0377
 1305SOL     hw 5219   3.341   5.510   1.901  1.2522  0.0231 -0.9422
 1305SOL     vw 5220   3.287   5.477   1.842 -0.0165  0.0260  0.1658
 1306SOL     ow 5221   6.736   1.235   0.625 -0.1472  0.6183 -0.0029
 1306SOL     hw 5222   6.729   1.269   0.536  0.6583  1.5310  0.2690
 1306SOL     hw 5223   6.824   1.260   0.653  0.5557 -1.8108  0.1738
 1306SOL     vw 5224   6.746   1.243   0.617  0.0520  0.4182  0.0563
 1307SOL     ow 5225   0.681   2.638   1.877  0.2688  0.5034 -0.1390
 1307SOL     hw 5226   0.753   2.636   1.813 -0.4651  0.3045 -0.9814
 1307SOL     hw 5227   0.615   2.694   1.836  0.3419  1.5075  1.0749
 1307SOL     vw 5228   0.682   2.645   1.863  0.1816  0.6096 -0.0901
 1308SOL     ow 5229   6.714   6.183   1.511 -0.3292 -0.6016  0.1298
 1308SOL     hw 5230   6.744   6.246   1.447  0.1592 -2.3795 -1.4867
 1308SOL     hw 5231   6.619   6.196   1.516 -0.3016 -0.0949 -0.5610
 1308SOL     vw 5232   6.705   6.193   1.503 -0.2611 -0.7691 -0.1746
 1309SOL     ow 5233   3.760   3.550   0.687 -0.2102 -0.0050 -0.0788
 1309SOL     hw 5234   3.828   3.545   0.620  0.2524  0.3002  0.3655
 1309SOL     hw 5235   3.770   3.470   0.738  0.5046  0.5229  0.6343
 1309SOL     vw 5236   3.770   3.539   0.685 -0.0548  0.1049  0.0739
 1310SOL     ow 5237   0.751   3.801   3.771  0.0581 -0.2111 -0.0920
 1310SOL     hw 5238   0.747   3.710   3.741 -1.1989 -0.9487  2.0996
 1310SOL     hw 5239   0.674   3.843   3.733 -0.7981 -0.7869  0.9523
 1310SOL     vw 5240   0.741   3.795   3.762 -0.2207 -0.3843  0.3350
 1311SOL     ow 5241   3.224   0.178   6.598 -0.0794  0.1491  0.3403
 1311SOL     hw 5242   3.276   0.211   6.524  0.3875  0.3882  0.7666
 1311SOL     hw 5243   3.281   0.191   6.674 -0.5516 -0.1079  0.7395
 1311SOL     vw 5244   3.239   0.184   6.598 -0.0802  0.1468  0.4492
 1312SOL     ow 5245   6.583   5.015   7.078  0.1604  0.7491  0.2626
 1312SOL     hw 5246   6.636   5.059   7.145  0.6796  1.6111 -0.6755
 1312SOL     hw 5247   6.538   5.086   7.032  0.5388  0.2693 -0.8921
 1312SOL     vw 5248   6.584   5.031   7.081  0.2787  0.7997 -0.0134
 1313SOL     ow 5249   5.328   5.955   0.758  0.3433  0.3074 -0.3209
 1313SOL     hw 5250   5.324   5.886   0.824 -2.0831  0.3083 -0.3779
 1313SOL     hw 5251   5.410   6.000   0.775  0.5961 -0.7763  1.5777
 1313SOL     vw 5252   5.338   5.952   0.769  0.0563  0.1647 -0.0780
 1314SOL     ow 5253   5.813   1.851   5.548  0.1594  0.3971  0.2153
 1314SOL     hw 5254   5.861   1.826   5.628 -0.3386 -2.0448 -0.1748
 1314SOL     hw 5255   5.787   1.768   5.509  0.5186  1.5159 -2.6059
 1314SOL     vw 5256   5.816   1.837   5.554  0.1411  0.2225 -0.2084
 1315SOL     ow 5257   3.674   6.331   6.703 -0.6045 -0.5786 -0.3970
 1315SOL     hw 5258   3.683   6.236   6.716 -0.3527 -0.8473 -2.2890
 1315SOL     hw 5259   3.763   6.362   6.689 -0.7499 -0.1452 -0.3703
 1315SOL     vw 5260   3.687   6.322   6.703 -0.5904 -0.5567 -0.6433
 1316SOL     ow 5261   2.743   6.517   3.015  0.1506 -0.0242 -0.0726
 1316SOL     hw 5262   2.699   6.462   2.950 -0.7485  1.5781 -0.9170
 1316SOL     hw 5263   2.671   6.561   3.061  0.8272  0.2325  0.7684
 1316SOL     vw 5264   2.727   6.516   3.012  0.1212  0.2210 -0.0732
 1317SOL     ow 5265   6.949   5.494   7.031 -0.4680  0.2892 -0.2115
 1317SOL     hw 5266   6.927   5.586   7.050  1.9389  0.9475 -0.3054
 1317SOL     hw 5267   6.957   5.490   6.936 -2.5690 -0.5776 -0.4114
 1317SOL     vw 5268   6.947   5.506   7.021 -0.4277  0.2615 -0.2501
 1318SOL     ow 5269   6.121   6.665   4.676  0.0691 -0.1655  0.2278
 1318SOL     hw 5270   6.040   6.665   4.727  0.2387 -1.9167  0.5437
 1318SOL     hw 5271   6.100   6.717   4.598 -1.2331 -0.2357  0.5111
 1318SOL     vw 5272   6.107   6.672   4.672 -0.0803 -0.4055  0.3071
 1319SOL     ow 5273   6.081   1.875   5.375 -0.0394 -0.1724 -0.5868
 1319SOL     hw 5274   6.166   1.849   5.411  0.3026 -0.3109 -1.4723
 1319SOL     hw 5275   6.063   1.810   5.307 -0.7657 -0.0288 -0.5374
 1319SOL     vw 5276   6.090   1.863   5.371 -0.0901 -0.1718 -0.6974
 1320SOL     ow 5277   2.848   1.301   3.215  0.1610  0.0071 -0.7570
 1320SOL     hw 5278   2.858   1.340   3.128 -0.7935 -0.2516 -0.9851
 1320SOL     hw 5279   2.879   1.211   3.205  0.6651  0.1620 -0.6591
 1320SOL     vw 5280   2.854   1.294   3.202  0.1017 -0.0066 -0.7740
 1321SOL     ow 5281   5.124   2.585   6.707  0.3501  0.3496  0.4233
 1321SOL     hw 5282   5.057   2.652   6.723 -0.5192 -0.1951 -0.7967
 1321SOL     hw 5283   5.203   2.635   6.687 -0.4924  1.0695 -1.3513
 1321SOL     vw 5284   5.125   2.601   6.707  0.1245  0.3728  0.0284
 1322SOL     ow 5285   2.513   5.410   1.209  0.0214  0.2693 -0.1174
 1322SOL     hw 5286   2.530   5.408   1.115  1.2864  1.6805  0.0432
 1322SOL     hw 5287   2.421   5.434   1.217  0.1823  1.2512 -1.0043
 1322SOL     vw 5288   2.503   5.413   1.198  0.2096  0.5851 -0.2132
 1323SOL     ow 5289   0.721   3.424   6.012  0.3095  0.6124  0.1176
 1323SOL     hw 5290   0.708   3.510   6.052  1.7045  0.6369  0.5772
 1323SOL     hw 5291   0.673   3.428   5.930 -0.9001  1.2881  0.8317
 1323SOL     vw 5292   0.713   3.436   6.006  0.3340  0.7048  0.2725
 1324SOL     ow 5293   4.344   2.847   1.397  0.1278 -0.1693  0.0376
 1324SOL     hw 5294   4.306   2.858   1.310 -0.0223 -3.5499 -0.4490
 1324SOL     hw 5295   4.427   2.894   1.394  0.3474 -0.6087 -2.1228
 1324SOL     vw 5296   4.350   2.854   1.385  0.1371 -0.6733 -0.3117
 1325SOL     ow 5297   3.352   0.790   4.462 -0.2912  0.2394 -0.2425
 1325SOL     hw 5298   3.286   0.816   4.527 -0.9896 -0.7933 -0.5281
 1325SOL     hw 5299   3.421   0.857   4.471 -1.6853  1.7621 -0.4473
 1325SOL     vw 5300   3.353   0.802   4.472 -0.5672  0.3040 -0.3073
 1326SOL     ow 5301   0.088   2.949   6.199  0.1995 -0.3290 -0.0827
 1326SOL     hw 5302   0.025   3.006   6.156 -0.7212 -0.4121  1.1094
 1326SOL     hw 5303   0.079   2.865   6.153  1.4487  0.3900 -1.7335
 1326SOL     vw 5304   0.078   2.945   6.187  0.2428 -0.2451 -0.1433
 1327SOL     ow 5305   2.181   1.998   4.652 -0.3573 -0.0636 -0.4820
 1327SOL     hw 5306   2.189   2.049   4.572 -0.9375  0.6853 -0.0755
 1327SOL     hw 5307   2.106   1.942   4.638 -0.7696  0.4274 -0.2828
 1327SOL     vw 5308   2.172   1.998   4.640 -0.4883  0.1000 -0.4022
 1328SOL     ow 5309   0.258   6.727   2.251  0.0121 -0.2974  0.4680
 1328SOL     hw 5310   0.228   6.723   2.342  1.1941  0.3213  0.9072
 1328SOL     hw 5311   0.319   6.801   2.250  0.1789 -0.4459 -0.7826
 1328SOL     vw 5312   0.262   6.736   2.263  0.1901 -0.2351  0.3610
 1329SOL     ow 5313   0.356   4.521   2.777 -0.1336 -0.6929  0.2168
 1329SOL     hw 5314   0.390   4.474   2.853 -0.7712 -0.0658  0.9134
 1329SOL     hw 5315   0.395   4.608   2.784 -0.6898 -0.4374  0.1920
 1329SOL     vw 5316   0.366   4.527   2.788 -0.2911 -0.5763  0.3054
 1330SOL     ow 5317   3.535   1.663   0.440  0.0023 -0.0171  0.6419
 1330SOL     hw 5318   3.460   1.723   0.429  0.1545  0.1018  0.2558
 1330SOL     hw 5319   3.612   1.717   0.422  0.0658 -0.7771 -1.6843
 1330SOL     vw 5320   3.535   1.678   0.436  0.0306 -0.1017  0.2841
 1331SOL     ow 5321   4.485   3.534   2.286 -0.5486  0.7340  0.0053
 1331SOL     hw 5322   4.499   3.470   2.356 -3.4427  0.2367  0.2477
 1331SOL     hw 5323   4.488   3.619   2.329  0.4042  0.6121  0.2031
 1331SOL     vw 5324   4.488   3.536   2.301 -0.8049  0.6523  0.0634
 1332SOL     ow 5325   3.028   4.120   2.667  0.6819 -0.4793 -0.6044
 1332SOL     hw 5326   3.032   4.101   2.761  0.2985 -0.8967 -0.6643
 1332SOL     hw 5327   3.116   4.147   2.643  0.7062 -0.0814 -0.0645
 1332SOL     vw 5328   3.040   4.121   2.676  0.6343 -0.4818 -0.5410
 1333SOL     ow 5329   4.433   0.776   5.441  0.1543  0.0321  0.0325
 1333SOL     hw 5330   4.383   0.780   5.360 -1.9866 -0.5972  1.2518
 1333SOL     hw 5331   4.475   0.689   5.439 -1.0106 -0.5443  0.2122
 1333SOL     vw 5332   4.432   0.765   5.430 -0.2818 -0.1270  0.2170
 1334SOL     ow 5333   1.185   2.901   2.946  0.3585  0.4109  0.5359
 1334SOL     hw 5334   1.099   2.942   2.952 -0.0822 -0.1569 -1.2727
 1334SOL     hw 5335   1.209   2.908   2.853  1.0375 -1.8232  0.4765
 1334SOL     vw 5336   1.177   2.908   2.935  0.3899  0.0414  0.2894
 1335SOL     ow 5337   0.726   3.843   4.059 -0.4528 -0.5614  0.4037
 1335SOL     hw 5338   0.674   3.876   4.132  1.4479  1.7880  0.8509
 1335SOL     hw 5339   0.777   3.771   4.097 -0.5853 -0.3592  0.9839
 1335SOL     vw 5340   0.726   3.838   4.074 -0.2195 -0.2248  0.5391
 1336SOL     ow 5341   4.076   5.717   6.850  0.6531  0.2847 -0.4432
 1336SOL     hw 5342   4.000   5.772   6.833  0.4385 -0.1117 -0.7714
 1336SOL     hw 5343   4.088   5.721   6.945 -0.6625 -0.8022 -0.2052
 1336SOL     vw 5344   4.068   5.725   6.861  0.4511  0.0889 -0.4549
 1337SOL     ow 5345   7.034   4.532   5.964 -0.1940 -0.5323  0.2385
 1337SOL     hw 5346   6.989   4.467   6.019 -2.5662 -0.2981 -1.2617
 1337SOL     hw 5347   7.005   4.616   5.998 -0.5642 -0.3675 -0.4578
 1337SOL     vw 5348   7.024   4.534   5.975 -0.5560 -0.4797 -0.0513
 1338SOL     ow 5349   2.242   0.521   5.250 -0.2202  0.1926 -0.1334
 1338SOL     hw 5350   2.307   0.458   5.218  0.9219  0.0991  2.1173
 1338SOL     hw 5351   2.260   0.528   5.344 -2.3207  1.5746  0.2400
 1338SOL     vw 5352   2.253   0.514   5.258 -0.3467  0.3626  0.2129
 1339SOL     ow 5353   6.263   0.215   5.102 -0.3245  0.4197  0.3751
 1339SOL     hw 5354   6.355   0.226   5.077  0.0403 -1.2576  0.8613
 1339SOL     hw 5355   6.232   0.304   5.120  0.8037  1.1602 -1.1187
 1339SOL     vw 5356   6.271   0.229   5.101 -0.1276  0.2961  0.2420
 1340SOL     ow 5357   3.802   6.224   0.757 -0.5268  0.5639 -0.1649
 1340SOL     hw 5358   3.766   6.307   0.725 -0.7013  0.4514 -0.2641
 1340SOL     hw 5359   3.780   6.161   0.688 -0.8451  0.3334  0.1454
 1340SOL     vw 5360   3.794   6.227   0.744 -0.5919  0.5183 -0.1371
 1341SOL     ow 5361   6.647   3.064   0.968 -0.4593  0.0582  0.1993
 1341SOL     hw 5362   6.681   3.048   0.880 -0.0202  0.4984  0.2825
 1341SOL     hw 5363   6.552   3.065   0.957 -0.6114 -3.0635  0.2768
 1341SOL     vw 5364   6.639   3.062   0.955 -0.4215 -0.2956  0.2205
 1342SOL     ow 5365   2.952   2.061   3.968 -0.0558  0.2615 -1.0731
 1342SOL     hw 5366   3.029   2.042   4.022  0.3165  0.5215 -1.5017
 1342SOL     hw 5367   2.887   1.995   3.994 -0.4013  1.2487  0.7020
 1342SOL     vw 5368   2.954   2.049   3.979 -0.0522  0.4262 -0.8955
 1343SOL     ow 5369   6.835   0.385   6.804 -0.2256  0.2780  0.7189
 1343SOL     hw 5370   6.891   0.313   6.833  1.2922  1.3957  0.6276
 1343SOL     hw 5371   6.801   0.424   6.884  0.3541  0.5510  0.8318
 1343SOL     vw 5372   6.838   0.380   6.818  0.0513  0.4615  0.7217
 1344SOL     ow 5373   7.015   3.826   5.664  0.1148 -0.1692 -0.2740
 1344SOL     hw 5374   6.929   3.784   5.677 -0.2678  0.7272  0.1545
 1344SOL     hw 5375   7.020   3.842   5.570  0.0366 -0.6930 -0.3709
 1344SOL     vw 5376   7.004   3.822   5.653  0.0541 -0.1198 -0.2303
 1345SOL     ow 5377   1.163   1.279   1.626 -0.4799 -0.5501  0.5329
 1345SOL     hw 5378   1.076   1.316   1.608 -0.1001 -0.4277 -1.2096
 1345SOL     hw 5379   1.171   1.282   1.721 -2.0678  0.1630  0.6752
 1345SOL     vw 5380   1.152   1.284   1.636 -0.6393 -0.4399  0.3218
 1346SOL     ow 5381   4.324   3.673   0.892 -0.2887  0.0966  0.1247
 1346SOL     hw 5382   4.411   3.634   0.882 -0.3547  0.4093 -2.0836
 1346SOL     hw 5383   4.333   3.763   0.860 -1.5245 -0.0247 -0.6461
 1346SOL     vw 5384   4.336   3.680   0.887 -0.4609  0.1220 -0.2684
 1347SOL     ow 5385   2.072   6.113   0.210 -0.3930  0.1637 -0.0647
 1347SOL     hw 5386   2.071   6.122   0.115 -0.5295  1.3545  0.0312
 1347SOL     hw 5387   2.000   6.168   0.240 -1.2274 -1.2896  0.6631
 1347SOL     vw 5388   2.063   6.122   0.201 -0.5212  0.1290  0.0440
 1348SOL     ow 5389   1.494   3.040   0.788  0.0919 -0.5905  0.8629
 1348SOL     hw 5390   1.458   3.070   0.871 -0.7376 -1.8906  0.9872
 1348SOL     hw 5391   1.424   2.987   0.749  1.9483 -3.5396  1.2892
 1348SOL     vw 5392   1.480   3.037   0.793  0.2274 -1.1512  0.9356
 1349SOL     ow 5393   1.576   7.006   1.266 -0.0664  0.1939 -0.2661
 1349SOL     hw 5394   1.610   7.088   1.302 -1.6098 -0.0927  2.0585
 1349SOL     hw 5395   1.631   6.938   1.305  0.8327  0.0352 -1.7268
 1349SOL     vw 5396   1.588   7.008   1.276 -0.1514  0.1352 -0.1521
 1350SOL     ow 5397   6.297   3.900   1.806 -0.7771 -0.3283  0.4051
 1350SOL     hw 5398   6.352   3.860   1.872  0.6363  0.7454 -0.0721
 1350SOL     hw 5399   6.223   3.936   1.854 -0.5566 -0.9153  1.1917
 1350SOL     vw 5400   6.294   3.900   1.821 -0.5612 -0.2642  0.4459
 1351SOL     ow 5401   5.688   1.698   5.945 -0.3343  0.4145  0.0816
 1351SOL     hw 5402   5.758   1.757   5.917  0.7413 -0.2017  1.3708
 1351SOL     hw 5403   5.662   1.652   5.865  0.4607  0.9323 -0.4891
 1351SOL     vw 5404   5.694   1.699   5.931 -0.0873  0.4015  0.1764
 1352SOL     ow 5405   2.504   3.045   2.061  0.0025 -0.1844  0.3168
 1352SOL     hw 5406   2.574   3.107   2.041 -0.5354  0.0478 -0.9750
 1352SOL     hw 5407   2.507   2.982   1.989  0.3182 -1.4807  1.4331
 1352SOL     vw 5408   2.514   3.045   2.048 -0.0268 -0.3248  0.2939
 1353SOL     ow 5409   6.841   3.109   5.225 -0.2995 -0.7701  0.1440
 1353SOL     hw 5410   6.841   3.080   5.317  0.4976  0.8591  0.7012
 1353SOL     hw 5411   6.824   3.203   5.231 -2.2105 -0.9372 -1.5335
 1353SOL     vw 5412   6.838   3.118   5.238 -0.4466 -0.5772 -0.0036
 1354SOL     ow 5413   0.104   4.113   0.564 -0.5902  0.8171  0.1785
 1354SOL     hw 5414   0.036   4.101   0.630  0.8503 -0.7418  1.4878
 1354SOL     hw 5415   0.140   4.200   0.582 -0.3946  0.5173  1.3073
 1354SOL     vw 5416   0.100   4.123   0.575 -0.3743  0.5720  0.5002
 1355SOL     ow 5417   0.590   2.276   0.697 -0.1011 -0.2545 -0.5083
 1355SOL     hw 5418   0.635   2.358   0.716 -1.2994  0.9088 -2.3267
 1355SOL     hw 5419   0.652   2.208   0.721  0.3205  1.0697  2.6725
 1355SOL     vw 5420   0.604   2.278   0.702 -0.2036  0.0736 -0.3285
 1356SOL     ow 5421   5.894   6.972   2.078  0.4060 -0.0382  0.1607
 1356SOL     hw 5422   5.968   6.966   2.017  1.3049  1.3908  1.0633
 1356SOL     hw 5423   5.909   6.902   2.141  0.7562 -0.0232  0.0945
 1356SOL     vw 5424   5.906   6.962   2.078  0.5708  0.1523  0.2711
 1357SOL     ow 5425   3.613   1.958   5.169  0.2902 -0.6594  0.2482
 1357SOL     hw 5426   3.522   1.931   5.178  0.0836  0.1240  0.5781
 1357SOL     hw 5427   3.646   1.908   5.094 -0.6658 -0.3148 -0.4220
 1357SOL     vw 5428   3.605   1.948   5.160  0.1366 -0.5106  0.2031
 1358SOL     ow 5429   4.619   4.892   1.608  0.5347  0.2466  0.3458
 1358SOL     hw 5430   4.534   4.850   1.623 -1.1950  3.2687 -0.0657
 1358SOL     hw 5431   4.664   4.887   1.692 -0.5052 -0.5246  0.8744
 1358SOL     vw 5432   4.613   4.886   1.621  0.1693  0.5436  0.3613
 1359SOL     ow 5433   3.623   5.140   0.492 -0.0483 -0.2339 -0.0575
 1359SOL     hw 5434   3.540   5.176   0.522  0.0900  0.8270 -0.9154
 1359SOL     hw 5435   3.670   5.119   0.573  0.6401  3.2951  0.6184
 1359SOL     vw 5436   3.619   5.142   0.507  0.0608  0.3719 -0.0815
 1360SOL     ow 5437   0.451   1.815   2.405  0.1418 -0.8213  0.4343
 1360SOL     hw 5438   0.401   1.775   2.476 -1.1938  1.7456  1.0992
 1360SOL     hw 5439   0.386   1.867   2.356  1.8448  1.6379  0.5670
 1360SOL     vw 5440   0.436   1.817   2.408  0.1903 -0.1581  0.5395
 1361SOL     ow 5441   6.097   3.230   2.214 -0.6287  0.7774  0.3365
 1361SOL     hw 5442   6.142   3.283   2.148  0.7265 -0.1254  0.4962
 1361SOL     hw 5443   6.114   3.140   2.187 -1.7426  0.4053  0.8321
 1361SOL     vw 5444   6.105   3.225   2.202 -0.5968  0.6092  0.4228
 1362SOL     ow 5445   2.377   0.436   0.673 -0.0627  0.1901  0.4508
 1362SOL     hw 5446   2.413   0.522   0.695 -0.3453  0.2496  0.6986
 1362SOL     hw 5447   2.450   0.375   0.685  0.3291  0.4743 -0.3855
 1362SOL     vw 5448   2.391   0.439   0.677 -0.0482  0.2355  0.3732
 1363SOL     ow 5449   1.666   1.645   0.433  0.1520 -0.1279 -0.2015
 1363SOL     hw 5450   1.620   1.564   0.456  0.5287 -0.4239 -0.4720
 1363SOL     hw 5451   1.598   1.712   0.434 -0.3625 -0.6167 -0.9226
 1363SOL     vw 5452   1.651   1.643   0.436  0.1338 -0.2315 -0.3323
 1364SOL     ow 5453   0.700   1.370   6.277  0.3412  0.4044 -0.0510
 1364SOL     hw 5454   0.705   1.390   6.184  1.8838 -0.7385 -0.2368
 1364SOL     hw 5455   0.649   1.290   6.281  0.3751  0.3900  0.0866
 1364SOL     vw 5456   0.694   1.362   6.265  0.5492  0.2517 -0.0577
 1365SOL     ow 5457   6.103   3.864   6.405  0.1608  0.2149 -0.2806
 1365SOL     hw 5458   6.077   3.839   6.493 -3.8532  1.9529 -0.7979
 1365SOL     hw 5459   6.130   3.955   6.413 -0.8398  0.5753 -0.9226
 1365SOL     vw 5460   6.103   3.873   6.418 -0.5009  0.4919 -0.4334
 1366SOL     ow 5461   6.803   1.958   1.510 -0.0541  0.1286 -0.0336
 1366SOL     hw 5462   6.882   2.009   1.491  0.6481 -0.6606  0.6704
 1366SOL     hw 5463   6.776   1.988   1.597 -0.8373  0.7497 -0.4725
 1366SOL     vw 5464   6.810   1.969   1.519 -0.0646  0.1064  0.0014
 1367SOL     ow 5465   5.796   3.483   4.205 -0.4517 -0.4175  0.0064
 1367SOL     hw 5466   5.845   3.499   4.285  0.1738  3.0726 -0.9230
 1367SOL     hw 5467   5.852   3.426   4.153  1.0635  0.6479  0.4153
 1367SOL     vw 5468   5.810   3.477   4.208 -0.1693  0.1836 -0.0620
 1368SOL     ow 5469   6.898   2.796   1.555 -0.1200 -0.6012 -0.1789
 1368SOL     hw 5470   6.834   2.829   1.618 -0.3494 -0.4083 -0.5106
 1368SOL     hw 5471   6.955   2.738   1.606  0.6281  0.7095  0.5405
 1368SOL     vw 5472   6.897   2.793   1.570 -0.0515 -0.4027 -0.1278
 1369SOL     ow 5473   0.336   3.805   1.961  0.2061  0.6063 -0.8672
 1369SOL     hw 5474   0.362   3.891   1.926 -0.6551  0.7114 -1.2724
 1369SOL     hw 5475   0.418   3.756   1.967  0.9768  2.0147  1.0161
 1369SOL     vw 5476   0.351   3.810   1.957  0.1941  0.8061 -0.6722
 1370SOL     ow 5477   2.035   4.856   3.306  0.1127 -0.0250 -0.3735
 1370SOL     hw 5478   2.064   4.847   3.215  0.6494  1.9952 -0.4534
 1370SOL     hw 5479   1.940   4.845   3.302  0.0001  1.1385 -1.3740
 1370SOL     vw 5480   2.026   4.854   3.293  0.1686  0.3948 -0.5162
 1371SOL     ow 5481   2.346   2.876   2.524 -0.3131 -0.0461 -0.2468
 1371SOL     hw 5482   2.413   2.926   2.479 -0.3033  0.5698  0.4349
 1371SOL     hw 5483   2.271   2.876   2.464 -0.0799  0.1998 -0.5408
 1371SOL     vw 5484   2.345   2.882   2.510 -0.2811  0.0676 -0.1955
 1372SOL     ow 5485   2.738   0.141   6.245 -0.0381  0.2204 -0.3784
 1372SOL     hw 5486   2.763   0.057   6.208 -2.1465 -0.7341  0.2471
 1372SOL     hw 5487   2.790   0.150   6.325  0.7230 -0.1231 -0.8277
 1372SOL     vw 5488   2.748   0.131   6.250 -0.2160  0.0492 -0.3550
 1373SOL     ow 5489   1.893   4.269   6.221  0.3490 -0.2060  0.0456
 1373SOL     hw 5490   1.822   4.250   6.283 -0.0661 -1.7914 -0.8496
 1373SOL     hw 5491   1.860   4.236   6.137  1.6011  0.2989 -0.6614
 1373SOL     vw 5492   1.879   4.262   6.218  0.4595 -0.3486 -0.1657
 1374SOL     ow 5493   0.176   3.782   2.188 -0.4163 -0.0544 -0.2249
 1374SOL     hw 5494   0.093   3.749   2.153 -0.4624  0.0519 -0.2168
 1374SOL     hw 5495   0.240   3.766   2.118 -0.1846 -1.2748  0.2325
 1374SOL     vw 5496   0.174   3.776   2.174 -0.3918 -0.2013 -0.1636
 1375SOL     ow 5497   1.002   1.401   1.432 -0.0705 -0.1869  0.6688
 1375SOL     hw 5498   1.065   1.400   1.360  0.0919 -0.0172  0.8085
 1375SOL     hw 5499   0.923   1.361   1.395 -0.0441  0.0609  0.3449
 1375SOL     vw 5500   1.000   1.395   1.417 -0.0456 -0.1318  0.6444
 1376SOL     ow 5501   5.456   1.615   1.979  0.1293  0.1152 -0.2246
 1376SOL     hw 5502   5.369   1.574   1.972 -0.4383  1.3460 -0.7266
 1376SOL     hw 5503   5.438   1.703   2.012  1.1475  0.5120 -0.6863
 1376SOL     vw 5504   5.442   1.621   1.982  0.1888  0.3300 -0.3518
 1377SOL     ow 5505   4.655   4.590   3.308  0.0246 -0.6557  0.7602
 1377SOL     hw 5506   4.590   4.596   3.237  0.4041 -0.1694  0.4468
 1377SOL     hw 5507   4.639   4.668   3.361  1.5330  0.4619 -0.3492
 1377SOL     vw 5508   4.644   4.602   3.305  0.2737 -0.4437  0.5724
 1378SOL     ow 5509   6.411   4.501   2.370  0.0258  0.6848 -0.3917
 1378SOL     hw 5510   6.343   4.511   2.304 -0.9648  1.6251  0.7218
 1378SOL     hw 5511   6.398   4.413   2.405 -1.0777  1.0965  0.2790
 1378SOL     vw 5512   6.400   4.491   2.366 -0.2503  0.8631 -0.1562
 1379SOL     ow 5513   1.970   3.379   1.800  0.1468 -0.0531 -0.1016
 1379SOL     hw 5514   1.889   3.412   1.762 -0.8231 -1.0784  1.0114
 1379SOL     hw 5515   1.993   3.303   1.747  0.9215  0.7717 -0.9942
 1379SOL     vw 5516   1.963   3.373   1.788  0.1211 -0.0796 -0.0725
 1380SOL     ow 5517   3.639   4.087   4.814 -1.0231  0.5954 -0.4908
 1380SOL     hw 5518   3.617   4.006   4.860  0.2296  0.7554  0.4441
 1380SOL     hw 5519   3.569   4.147   4.839 -2.0269 -0.2078 -1.2860
 1380SOL     vw 5520   3.627   4.084   4.824 -0.9902  0.5105 -0.4723
 1381SOL     ow 5521   5.752   2.541   6.404 -0.6965 -0.0748  0.4235
 1381SOL     hw 5522   5.720   2.470   6.459 -0.8032  0.3055  0.8629
 1381SOL     hw 5523   5.694   2.615   6.424 -1.8834 -0.3994 -1.5007
 1381SOL     vw 5524   5.740   2.541   6.414 -0.8671 -0.0675  0.2277
 1382SOL     ow 5525   5.839   0.349   1.969 -0.5383 -0.8085 -0.3097
 1382SOL     hw 5526   5.860   0.442   1.966 -1.8454 -0.4997 -0.4160
 1382SOL     hw 5527   5.753   0.342   1.926 -1.2920 -1.8043  1.2822
 1382SOL     vw 5528   5.830   0.360   1.963 -0.8101 -0.8992 -0.1136
 1383SOL     ow 5529   2.928   4.653   5.487  0.1799  0.1525  0.5531
 1383SOL     hw 5530   2.944   4.635   5.394 -0.6718  1.2550  0.1644
 1383SOL     hw 5531   2.835   4.631   5.500  0.2515  0.1640  1.0937
 1383SOL     vw 5532   2.917   4.648   5.476  0.0769  0.2995  0.5732
 1384SOL     ow 5533   3.271   6.333   0.250  0.0421  0.2712 -0.6263
 1384SOL     hw 5534   3.309   6.356   0.335  0.1047 -1.4515 -0.1459
 1384SOL     hw 5535   3.305   6.245   0.231 -1.6371 -0.2544 -1.4229
 1384SOL     vw 5536   3.280   6.324   0.259 -0.1712 -0.0255 -0.6680
 1385SOL     ow 5537   2.445   4.338   6.563  0.0090  0.2107  0.4729
 1385SOL     hw 5538   2.359   4.365   6.596 -1.3168 -0.8472 -1.8906
 1385SOL     hw 5539   2.451   4.245   6.584  1.0189  0.4657  1.4148
 1385SOL     vw 5540   2.435   4.329   6.570 -0.0327  0.1049  0.2854
 1386SOL     ow 5541   3.682   2.386   1.428  0.0201  0.3806 -0.6101
 1386SOL     hw 5542   3.709   2.383   1.336 -1.1469  0.0809 -0.9703
 1386SOL     hw 5543   3.763   2.401   1.477  1.1131 -2.1897 -1.4643
 1386SOL     vw 5544   3.696   2.388   1.422  0.0103  0.0019 -0.7703
 1387SOL     ow 5545   1.793   4.384   1.522  0.1951 -0.9082  0.1935
 1387SOL     hw 5546   1.723   4.446   1.543  1.4858  1.0963 -1.0916
 1387SOL     hw 5547   1.826   4.356   1.608 -2.2811 -2.1648  0.8579
 1387SOL     vw 5548   1.788   4.388   1.536  0.0387 -0.8097  0.1116
 1388SOL     ow 5549   2.427   4.822   3.765  0.0089  0.2140  0.4411
 1388SOL     hw 5550   2.487   4.747   3.759  1.9283  1.6465  0.9527
 1388SOL     hw 5551   2.378   4.806   3.846  1.3333  0.1211  1.2561
 1388SOL     vw 5552   2.428   4.810   3.775  0.4369  0.3908  0.6160
 1389SOL     ow 5553   1.797   7.101   6.009  0.5018  0.8763  0.3920
 1389SOL     hw 5554   1.770   7.173   5.952 -0.3728  1.3567  1.3759
 1389SOL     hw 5555   1.765   7.126   6.096 -1.2700 -1.4077  0.5019
 1389SOL     vw 5556   1.789   7.113   6.013  0.1526  0.6382  0.5360
 1390SOL     ow 5557   1.546   2.427   4.721 -0.2140 -0.0903  0.0733
 1390SOL     hw 5558   1.632   2.469   4.711 -1.1048  1.7788 -0.1520
 1390SOL     hw 5559   1.538   2.371   4.645  0.6325  0.0611 -0.1371
 1390SOL     vw 5560   1.557   2.425   4.710 -0.2198  0.1763  0.0162
 1391SOL     ow 5561   2.562   0.893   0.654  0.0435 -0.4181  0.6810
 1391SOL     hw 5562   2.482   0.946   0.660  0.5705  0.5914 -0.6479
 1391SOL     hw 5563   2.533   0.804   0.672 -1.5254 -0.1644 -0.3914
 1391SOL     vw 5564   2.547   0.888   0.657 -0.0939 -0.2514  0.3642
 1392SOL     ow 5565   5.106   2.404   3.895 -0.7199  0.0310  0.3838
 1392SOL     hw 5566   5.017   2.435   3.875 -0.4845  1.4354  1.3371
 1392SOL     hw 5567   5.158   2.484   3.900  1.1625 -0.8394 -2.4502
 1392SOL     vw 5568   5.101   2.419   3.893 -0.4406  0.1014  0.1358
 1393SOL     ow 5569   6.584   4.468   1.092 -0.2124  0.3067  0.1554
 1393SOL     hw 5570   6.609   4.397   1.151 -2.9472 -0.1524  0.9180
 1393SOL     hw 5571   6.536   4.424   1.021  0.1818  1.1843 -0.6837
 1393SOL     vw 5572   6.581   4.453   1.090 -0.5212  0.3617  0.1453
 1394SOL     ow 5573   6.049   4.074   5.938 -0.2432  0.2627  0.0549
 1394SOL     hw 5574   6.093   3.991   5.923 -0.5376  0.4782 -2.4122
 1394SOL     hw 5575   6.118   4.140   5.934 -0.1332  0.2191  1.1178
 1394SOL     vw 5576   6.064   4.072   5.935 -0.2677  0.2854 -0.1304
 1395SOL     ow 5577   3.232   0.071   1.362  0.6304 -0.3640  0.0499
 1395SOL     hw 5578   3.263   0.078   1.452  1.6025  1.4905 -0.3899
 1395SOL     hw 5579   3.310   0.084   1.309 -0.2009  0.1610 -1.0742
 1395SOL     vw 5580   3.246   0.074   1.367  0.6490 -0.0501 -0.1565
 1396SOL     ow 5581   5.586   5.354   2.427  0.5903 -0.0969  0.0354
 1396SOL     hw 5582   5.540   5.341   2.510  1.3336  1.1903  0.6864
 1396SOL     hw 5583   5.658   5.291   2.430  0.9891  0.3704  0.6792
 1396SOL     vw 5584   5.590   5.344   2.439  0.7410  0.1349  0.2064
 1397SOL     ow 5585   0.346   4.417   3.649 -0.0987 -0.3381 -0.2967
 1397SOL     hw 5586   0.290   4.347   3.615 -1.6599  0.6932  0.1080
 1397SOL     hw 5587   0.363   4.392   3.740  0.2858 -0.7427 -0.4719
 1397SOL     vw 5588   0.341   4.404   3.656 -0.2539 -0.2553 -0.2664
 1398SOL     ow 5589   3.445   4.445   5.175  0.0533 -0.0055 -0.5156
 1398SOL     hw 5590   3.390   4.438   5.097  0.7897 -1.1226 -0.9668
 1398SOL     hw 5591   3.534   4.453   5.141  0.3830 -0.4989  0.1949
 1398SOL     vw 5592   3.449   4.445   5.160  0.1940 -0.2179 -0.4816
 1399SOL     ow 5593   4.149   2.893   1.691 -0.0627  0.4930  0.6092
 1399SOL     hw 5594   4.095   2.971   1.703 -0.0462  0.4728  0.8196
 1399SOL     hw 5595   4.166   2.862   1.780 -1.6092 -0.7977  0.5090
 1399SOL     vw 5596   4.144   2.899   1.705 -0.2646  0.3198  0.6238
 1400SOL     ow 5597   7.021   3.630   1.645 -0.4845 -0.5095  0.2098
 1400SOL     hw 5598   6.977   3.710   1.617  2.7933  1.6065  0.5944
 1400SOL     hw 5599   7.065   3.598   1.567  0.7970 -0.0852  0.7348
 1400SOL     vw 5600   7.021   3.636   1.631  0.1171 -0.1743  0.3298
 1401SOL     ow 5601   1.587   0.601   4.770  0.1861 -0.1573  0.1932
 1401SOL     hw 5602   1.679   0.603   4.744  0.4624 -1.8597  0.9476
 1401SOL     hw 5603   1.585   0.643   4.855  0.4558 -1.0639  0.6581
 1401SOL     vw 5604   1.599   0.607   4.778  0.2581 -0.5016  0.3541
 1402SOL     ow 5605   0.073   2.487   6.258 -0.2903 -0.4081  0.2641
 1402SOL     hw 5606   0.169   2.488   6.262 -0.2752  0.0586 -0.1055
 1402SOL     hw 5607   0.051   2.549   6.188 -0.9000  0.4363  1.1651
 1402SOL     vw 5608   0.083   2.496   6.249 -0.3687 -0.2351  0.3340
 1403SOL     ow 5609   3.208   4.546   3.161  0.2012 -0.4427  0.3699
 1403SOL     hw 5610   3.153   4.623   3.174 -0.0048 -0.6705  0.8534
 1403SOL     hw 5611   3.257   4.565   3.081 -0.5860 -0.2511 -0.0772
 1403SOL     vw 5612   3.208   4.559   3.152  0.0702 -0.4475  0.3748
 1404SOL     ow 5613   6.169   4.260   4.135  0.6112  0.0394  0.6144
 1404SOL     hw 5614   6.201   4.333   4.188  0.2123  0.2944  0.5079
 1404SOL     hw 5615   6.086   4.291   4.098  1.3105  0.2254 -0.9025
 1404SOL     vw 5616   6.162   4.274   4.137  0.6509  0.0975  0.4001
 1405SOL     ow 5617   3.437   6.993   6.017 -0.1660  0.8128  0.9522
 1405SOL     hw 5618   3.366   6.935   5.989  0.7871  0.3056 -0.5162
 1405SOL     hw 5619   3.392   7.068   6.057 -1.4762  0.0063  1.0391
 1405SOL     vw 5620   3.421   6.995   6.019 -0.2131  0.6394  0.7699
 1406SOL     ow 5621   5.370   2.511   1.683 -0.0756 -0.4278  0.2282
 1406SOL     hw 5622   5.409   2.565   1.752 -1.4042 -2.7158  3.0127
 1406SOL     hw 5623   5.280   2.542   1.677 -0.0324 -0.4042 -0.3527
 1406SOL     vw 5624   5.363   2.522   1.692 -0.2449 -0.7267  0.5189
 1407SOL     ow 5625   3.076   4.335   5.461  0.0820  0.2783  0.5132
 1407SOL     hw 5626   3.144   4.402   5.460 -1.1383  1.5867 -0.8900
 1407SOL     hw 5627   2.999   4.380   5.495 -0.5955 -0.6022  0.1764
 1407SOL     vw 5628   3.075   4.350   5.465 -0.1682  0.3347  0.2835
 1408SOL     ow 5629   5.271   1.892   5.507  0.0837  0.6548  0.3400
 1408SOL     hw 5630   5.189   1.887   5.556 -0.5404  0.5695 -0.6853
 1408SOL     hw 5631   5.318   1.813   5.532 -0.0928  0.7542  1.0187
 1408SOL     vw 5632   5.266   1.881   5.517 -0.0219  0.6567  0.2940
 1409SOL     ow 5633   5.021   5.429   4.454  0.8726  0.2640  0.2726
 1409SOL     hw 5634   4.988   5.450   4.367  0.7837 -0.4284  0.1376
 1409SOL     hw 5635   5.104   5.478   4.461  1.0529  0.0443 -0.3314
 1409SOL     vw 5636   5.028   5.439   4.444  0.8848  0.1438  0.1752
 1410SOL     ow 5637   2.317   3.403   2.197 -0.5681 -0.1309  0.8182
 1410SOL     hw 5638   2.302   3.461   2.272  1.3285 -0.3967  1.4552
 1410SOL     hw 5639   2.411   3.405   2.184 -0.7496 -0.9711 -0.8848
 1410SOL     vw 5640   2.327   3.411   2.205 -0.3418 -0.2768  0.6776
 1411SOL     ow 5641   3.658   0.671   1.090  0.9291 -0.8317 -0.0758
 1411SOL     hw 5642   3.671   0.636   1.002  1.7550 -1.5668  0.3201
 1411SOL     hw 5643   3.707   0.611   1.147  1.7458  0.5373  0.7093
 1411SOL     vw 5644   3.666   0.658   1.086  1.1457 -0.7481  0.0800
 1412SOL     ow 5645   2.682   4.512   6.407  0.1264 -0.1897 -0.0011
 1412SOL     hw 5646   2.746   4.482   6.472 -0.4891  0.5980  1.0044
 1412SOL     hw 5647   2.668   4.605   6.429  0.3623  0.2704 -1.6638
 1412SOL     vw 5648   2.689   4.521   6.418  0.0762 -0.0253 -0.0880
 1413SOL     ow 5649   2.546   3.441   5.320  0.0336  0.4122 -0.2750
 1413SOL     hw 5650   2.636   3.434   5.351  0.1976  0.7687 -0.6478
 1413SOL     hw 5651   2.498   3.480   5.393  0.1250 -0.0414  0.0237
 1413SOL     vw 5652   2.551   3.445   5.334  0.0674  0.3994 -0.2847
 1414SOL     ow 5653   2.017   2.911   6.994  0.2050  0.2620 -0.0481
 1414SOL     hw 5654   2.032   2.828   7.039  1.6811  0.4668 -0.1288
 1414SOL     hw 5655   2.001   2.974   7.065  1.0708  0.2945  0.1282
 1414SOL     vw 5656   2.016   2.908   7.010  0.5139  0.2934 -0.0353
 1415SOL     ow 5657   3.312   1.981   4.525  0.1930 -0.3221  0.4981
 1415SOL     hw 5658   3.218   1.961   4.520  0.0249  0.7759 -2.2441
 1415SOL     hw 5659   3.317   2.076   4.515  1.6362 -0.5299 -1.2149
 1415SOL     vw 5660   3.300   1.991   4.523  0.3612 -0.2046 -0.0896
 1416SOL     ow 5661   0.261   3.823   4.692  0.1480 -0.2517  0.3885
 1416SOL     hw 5662   0.220   3.841   4.607 -1.2270  0.6830  1.2060
 1416SOL     hw 5663   0.318   3.898   4.707 -0.5286  0.1922  0.8095
 1416SOL     vw 5664   0.263   3.835   4.683 -0.1227 -0.0699  0.5519
 1417SOL     ow 5665   0.319   6.380   4.584 -0.4920  0.4216 -0.5781
 1417SOL     hw 5666   0.347   6.296   4.547 -0.8188 -0.8493  1.8897
 1417SOL     hw 5667   0.324   6.441   4.510  1.2484 -1.4028 -2.0970
 1417SOL     vw 5668   0.324   6.377   4.569 -0.3055  0.0131 -0.4530
 1418SOL     ow 5669   5.494   2.067   3.247 -0.1262 -0.4015  0.3189
 1418SOL     hw 5670   5.515   2.008   3.320  0.3734  1.0078  1.3494
 1418SOL     hw 5671   5.480   2.152   3.288 -1.6953  0.0423 -1.0468
 1418SOL     vw 5672   5.495   2.070   3.262 -0.2675 -0.1570  0.2747
 1419SOL     ow 5673   5.349   0.642   1.780  0.4087 -0.3454 -0.1535
 1419SOL     hw 5674   5.388   0.609   1.861  0.2006 -1.0534 -0.3320
 1419SOL     hw 5675   5.331   0.563   1.728 -0.2464  0.0382 -0.5281
 1419SOL     vw 5676   5.352   0.627   1.784  0.2947 -0.3882 -0.2264
 1420SOL     ow 5677   6.726   0.635   5.587  0.1130 -0.1301 -0.3349
 1420SOL     hw 5678   6.643   0.600   5.620  1.4585 -1.0077  2.3630
 1420SOL     hw 5679   6.711   0.729   5.582 -1.2101 -0.3204 -0.4718
 1420SOL     vw 5680   6.713   0.643   5.590  0.1161 -0.2710  0.0029
 1421SOL     ow 5681   3.517   0.822   6.318 -0.0920 -0.2497  0.5925
 1421SOL     hw 5682   3.560   0.808   6.234 -1.3493  0.7792 -0.2615
 1421SOL     hw 5683   3.589   0.822   6.382  1.0019 -0.0160 -0.5941
 1421SOL     vw 5684   3.532   0.820   6.315 -0.1135 -0.0832  0.3228
 1422SOL     ow 5685   5.709   7.024   0.300  0.0860  0.3094  0.3803
 1422SOL     hw 5686   5.635   6.986   0.348 -1.2683 -0.3025 -2.0297
 1422SOL     hw 5687   5.773   7.044   0.368 -2.9312  2.5584  2.9009
 1422SOL     vw 5688   5.708   7.022   0.316 -0.4904  0.5255  0.3949
 1423SOL     ow 5689   5.402   0.156   4.833 -0.3038  0.5323 -0.1362
 1423SOL     hw 5690   5.378   0.150   4.740  0.3228  0.8875 -0.3246
 1423SOL     hw 5691   5.318   0.166   4.878 -0.9704 -3.0139 -0.3215
 1423SOL     vw 5692   5.388   0.157   4.827 -0.3092  0.1113 -0.1853
 1424SOL     ow 5693   1.151   7.028   7.094 -0.3805 -0.8690  0.0268
 1424SOL     hw 5694   1.112   7.041   7.181 -0.6280  0.3962 -0.2583
 1424SOL     hw 5695   1.088   7.066   7.033  1.0520  0.8148 -0.4780
 1424SOL     vw 5696   1.138   7.034   7.098 -0.2241 -0.4799 -0.0775
 1425SOL     ow 5697   6.280   0.170   1.492  0.4359 -0.1088  0.1844
 1425SOL     hw 5698   6.302   0.105   1.425  1.3985 -0.1586  0.5286
 1425SOL     hw 5699   6.301   0.254   1.452  0.7604 -0.1212  0.3258
 1425SOL     vw 5700   6.286   0.172   1.478  0.6061 -0.1170  0.2484
 1426SOL     ow 5701   3.504   6.658   1.670 -0.0440 -0.4686  0.0261
 1426SOL     hw 5702   3.423   6.688   1.628  0.1471 -0.9513 -0.6999
 1426SOL     hw 5703   3.512   6.566   1.645  0.6345 -0.4742  0.2429
 1426SOL     vw 5704   3.495   6.650   1.661  0.0708 -0.5333 -0.0411
 1427SOL     ow 5705   4.653   3.340   2.117 -0.3069  0.3415  0.6156
 1427SOL     hw 5706   4.651   3.258   2.166 -1.4272 -1.0814 -1.6409
 1427SOL     hw 5707   4.739   3.341   2.076 -0.4030  0.1491  0.4089
 1427SOL     vw 5708   4.664   3.329   2.118 -0.4675  0.1283  0.2906
 1428SOL     ow 5709   6.473   2.244   1.065 -0.3297 -0.4374 -0.2895
 1428SOL     hw 5710   6.558   2.261   1.106 -0.3172 -0.5186 -0.2813
 1428SOL     hw 5711   6.459   2.319   1.008 -0.2928 -0.3810 -0.2253
 1428SOL     vw 5712   6.482   2.256   1.063 -0.3235 -0.4407 -0.2800
 1429SOL     ow 5713   2.028   1.162   4.979  0.4915  0.0880 -0.0861
 1429SOL     hw 5714   2.000   1.215   4.904  0.8107 -1.3052 -1.2427
 1429SOL     hw 5715   2.122   1.148   4.965  0.6233  0.0670  0.7552
 1429SOL     vw 5716   2.037   1.167   4.967  0.5510 -0.0986 -0.1276
 1430SOL     ow 5717   0.358   6.750   4.359  0.3902 -0.2921 -0.6105
 1430SOL     hw 5718   0.264   6.768   4.345 -0.2088 -0.2347  2.7367
 1430SOL     hw 5719   0.371   6.662   4.325 -0.6509 -0.0062 -1.8465
 1430SOL     vw 5720   0.347   6.741   4.353  0.1738 -0.2470 -0.3321
 1431SOL     ow 5721   4.426   0.422   2.918  0.2761  0.2251  0.4698
 1431SOL     hw 5722   4.421   0.451   3.009 -3.0991  1.6864 -0.0275
 1431SOL     hw 5723   4.392   0.495   2.867  2.2841 -0.4686 -2.0491
 1431SOL     vw 5724   4.421   0.435   2.923  0.0958  0.3264  0.0719
 1432SOL     ow 5725   5.755   0.666   0.907 -0.3286 -0.4608 -0.0180
 1432SOL     hw 5726   5.788   0.597   0.850  1.6968  0.0450  0.4698
 1432SOL     hw 5727   5.674   0.631   0.943  0.1084 -2.1342 -0.5934
 1432SOL     vw 5728   5.748   0.653   0.904 -0.0036 -0.6148 -0.0295
 1433SOL     ow 5729   6.155   5.915   5.712  0.5760 -0.6688 -0.0203
 1433SOL     hw 5730   6.211   5.890   5.639  0.2797 -1.9619  0.1691
 1433SOL     hw 5731   6.066   5.907   5.678  0.4544  0.8169 -0.1465
 1433SOL     vw 5732   6.150   5.911   5.698  0.5207 -0.6435 -0.0117
 1434SOL     ow 5733   5.221   5.310   3.256  0.3715  0.7371  0.1055
 1434SOL     hw 5734   5.188   5.327   3.167  0.6154  1.3070  0.1215
 1434SOL     hw 5735   5.314   5.294   3.245 -0.0722 -2.3133 -0.1236
 1434SOL     vw 5736   5.229   5.311   3.243  0.3450  0.4098  0.0774
 1435SOL     ow 5737   2.926   3.966   3.411  0.0694  0.3718  0.3376
 1435SOL     hw 5738   2.979   3.981   3.489  0.2689 -1.7243  0.6583
 1435SOL     hw 5739   2.973   3.899   3.362 -1.3127 -0.1725 -0.3133
 1435SOL     vw 5740   2.939   3.959   3.415 -0.0865  0.0234  0.2940
 1436SOL     ow 5741   0.272   0.055   5.686 -0.1348 -0.0050 -0.0171
 1436SOL     hw 5742   0.285  -0.037   5.664  1.6728  0.4281 -0.9499
 1436SOL     hw 5743   0.200   0.083   5.630 -0.8945 -0.9029  0.4854
 1436SOL     vw 5744   0.264   0.047   5.676  0.0034 -0.0663 -0.0739
 1437SOL     ow 5745   0.598   6.756   5.315  0.4588 -0.0436 -0.1356
 1437SOL     hw 5746   0.599   6.822   5.383 -1.0441  1.7408 -1.7108
 1437SOL     hw 5747   0.639   6.679   5.354  1.0039  1.3705  2.2252
 1437SOL     vw 5748   0.604   6.755   5.329  0.3324  0.3784 -0.0317
 1438SOL     ow 5749   0.077   6.830   3.603  0.0379 -0.1879 -0.4191
 1438SOL     hw 5750   0.121   6.915   3.606  0.8561 -0.5719 -1.1860
 1438SOL     hw 5751   0.083   6.797   3.693  1.0914 -0.1085 -0.4460
 1438SOL     vw 5752   0.083   6.837   3.615  0.2848 -0.2284 -0.5238
 1439SOL     ow 5753   1.825   1.277   1.454  0.2007  0.5799 -0.1278
 1439SOL     hw 5754   1.809   1.224   1.532  0.3020  2.5449  1.3208
 1439SOL     hw 5755   1.913   1.253   1.426  0.3444  0.1668  0.6445
 1439SOL     vw 5756   1.834   1.267   1.460  0.2330  0.7848  0.1652
 1440SOL     ow 5757   4.682   5.917   2.234 -0.0361  0.8197  0.1004
 1440SOL     hw 5758   4.588   5.925   2.251  0.0796  0.8747  0.7543
 1440SOL     hw 5759   4.723   5.956   2.311  0.5366 -1.1720  0.8713
 1440SOL     vw 5760   4.675   5.923   2.247  0.0548  0.5641  0.2884
 1441SOL     ow 5761   0.205   4.653   2.545  0.4276  0.3975  0.3532
 1441SOL     hw 5762   0.209   4.748   2.548  1.6266  0.4196 -0.8449
 1441SOL     hw 5763   0.112   4.633   2.533  0.1272  1.3929  0.9878
 1441SOL     vw 5764   0.193   4.663   2.544  0.5462  0.5317  0.2788
 1442SOL     ow 5765   4.466   5.124   1.500 -0.0464  0.1884  0.2503
 1442SOL     hw 5766   4.461   5.219   1.506  1.4780  0.2951  0.2087
 1442SOL     hw 5767   4.430   5.092   1.583  0.3006  0.8399  0.6558
 1442SOL     vw 5768   4.461   5.132   1.512  0.2007  0.2882  0.2983
 1443SOL     ow 5769   1.311   5.118   2.850 -0.2926 -0.4258  0.0807
 1443SOL     hw 5770   1.230   5.169   2.853 -1.0839 -1.6596  0.3430
 1443SOL     hw 5771   1.342   5.128   2.760 -1.9592 -1.7497 -0.6840
 1443SOL     vw 5772   1.304   5.126   2.839 -0.6168 -0.7632  0.0144
 1444SOL     ow 5773   3.849   6.447   2.792  0.1267  0.0997  0.4866
 1444SOL     hw 5774   3.886   6.523   2.748 -0.0664 -1.0371 -1.8094
 1444SOL     hw 5775   3.756   6.449   2.771  0.0184 -0.4671  0.8707
 1444SOL     vw 5776   3.842   6.457   2.784  0.0869 -0.1252  0.2345
 1445SOL     ow 5777   1.734   2.314   5.583 -0.3482  0.0794 -0.1247
 1445SOL     hw 5778   1.686   2.370   5.644  0.0793  0.6862 -0.3350
 1445SOL     hw 5779   1.751   2.369   5.508  1.2512  0.0880  0.2161
 1445SOL     vw 5780   1.730   2.328   5.581 -0.0808  0.1607 -0.1075
 1446SOL     ow 5781   6.002   6.370   5.881 -0.1858 -0.2917 -0.2529
 1446SOL     hw 5782   6.011   6.381   5.976  1.3134  0.9614 -0.4981
 1446SOL     hw 5783   5.908   6.377   5.864 -0.2448  3.1644  0.7680
 1446SOL     vw 5784   5.991   6.372   5.891  0.0043  0.3297 -0.1507
 1447SOL     ow 5785   0.322   5.775   2.095  0.2173  0.6030 -0.1745
 1447SOL     hw 5786   0.233   5.770   2.060  0.2010 -2.1424  0.0380
 1447SOL     hw 5787   0.332   5.695   2.147  2.8168  0.8212 -0.1950
 1447SOL     vw 5788   0.312   5.764   2.098  0.5581  0.2697 -0.1491
 1448SOL     ow 5789   0.988   2.904   4.052 -0.1207  0.0450 -0.1707
 1448SOL     hw 5790   1.039   2.966   4.104 -0.8642  0.2364  0.3464
 1448SOL     hw 5791   1.032   2.903   3.967 -0.8979  2.3505 -0.6702
 1448SOL     vw 5792   1.001   2.912   4.048 -0.3213  0.3743 -0.1683
 1449SOL     ow 5793   1.376   2.682   3.129 -0.5857  0.2534 -0.0708
 1449SOL     hw 5794   1.429   2.609   3.161 -0.2329  0.3664 -0.3869
 1449SOL     hw 5795   1.407   2.758   3.178  0.5179  0.5805 -1.2192
 1449SOL     vw 5796   1.387   2.683   3.140 -0.3936  0.3114 -0.2640
 1450SOL     ow 5797   6.785   0.303   4.011  0.1498 -0.0070 -0.4037
 1450SOL     hw 5798   6.849   0.365   4.047  0.3345  0.2106 -1.0968
 1450SOL     hw 5799   6.704   0.323   4.056  0.5660 -0.3129  0.5251
 1450SOL     vw 5800   6.783   0.314   4.022  0.2294 -0.0186 -0.3726
 1451SOL     ow 5801   1.277   5.010   5.718  0.4430  0.4355 -0.3706
 1451SOL     hw 5802   1.321   4.986   5.799 -0.5536 -2.3827 -0.5637
 1451SOL     hw 5803   1.347   5.012   5.652  1.0898  1.6998  0.3191
 1451SOL     vw 5804   1.292   5.007   5.720  0.3968  0.2306 -0.3049
 1452SOL     ow 5805   5.300   6.201   6.232 -0.1406 -0.3356  0.2594
 1452SOL     hw 5806   5.383   6.182   6.187  0.4071  2.1375  0.0858
 1452SOL     hw 5807   5.326   6.221   6.322 -0.4503  0.9408  0.0822
 1452SOL     vw 5808   5.315   6.201   6.238 -0.1092  0.1595  0.2131
 1453SOL     ow 5809   4.861   1.568   1.424  0.0575  0.0084  0.1423
 1453SOL     hw 5810   4.825   1.534   1.506 -1.5041  0.8696 -0.1300
 1453SOL     hw 5811   4.917   1.498   1.390 -0.0311 -0.7239  1.4699
 1453SOL     vw 5812   4.864   1.554   1.430 -0.1602  0.0253  0.2815
 1454SOL     ow 5813   0.917   5.055   3.972 -0.0790 -0.2187 -0.4650
 1454SOL     hw 5814   0.994   5.099   3.934 -0.5950  0.0913 -1.1688
 1454SOL     hw 5815   0.944   4.964   3.983  0.8281  0.1430  0.5072
 1454SOL     vw 5816   0.931   5.049   3.968 -0.0274 -0.1302 -0.4296
 1455SOL     ow 5817   6.985   6.038   4.634  0.1982  0.6022  0.0197
 1455SOL     hw 5818   7.039   6.081   4.568 -0.8431  0.1912 -1.1455
 1455SOL     hw 5819   6.912   6.099   4.650 -0.8127 -0.2884 -0.9897
 1455SOL     vw 5820   6.982   6.052   4.628 -0.0725  0.4303 -0.2670
 1456SOL     ow 5821   6.432   5.090   4.508  0.2469 -0.1350  0.0667
 1456SOL     hw 5822   6.418   4.996   4.522  0.7725  0.0301  2.1118
 1456SOL     hw 5823   6.511   5.094   4.454  0.5190 -0.8838  0.3805
 1456SOL     vw 5824   6.441   5.078   4.503  0.3521 -0.2120  0.3777
 1457SOL     ow 5825   4.226   6.822   4.669  0.6121 -0.3782 -0.0044
 1457SOL     hw 5826   4.311   6.863   4.649  0.0354  1.5920  1.2946
 1457SOL     hw 5827   4.168   6.852   4.599  1.1524 -2.6156 -1.5254
 1457SOL     vw 5828   4.230   6.832   4.657  0.6073 -0.4137 -0.0339
 1458SOL     ow 5829   3.255   1.123   1.605 -0.1730 -0.4069 -0.4221
 1458SOL     hw 5830   3.329   1.177   1.631  0.8846 -1.3643 -1.3299
 1458SOL     hw 5831   3.294   1.053   1.552 -1.5224 -1.8649  0.4329
 1458SOL     vw 5832   3.270   1.121   1.601 -0.2116 -0.7256 -0.4291
 1459SOL     ow 5833   2.332   2.631   2.730 -0.3515  0.0082  0.1240
 1459SOL     hw 5834   2.346   2.584   2.812  0.0271 -0.0922  0.0036
 1459SOL     hw 5835   2.307   2.564   2.667 -0.6743  0.0898  0.1634
 1459SOL     vw 5836   2.330   2.616   2.733 -0.3440  0.0057  0.1134
 1460SOL     ow 5837   4.396   2.141   5.568 -0.1990 -0.0144 -0.5930
 1460SOL     hw 5838   4.317   2.126   5.619  0.3325 -0.8224  0.0300
 1460SOL     hw 5839   4.366   2.180   5.486 -1.0391  1.6545  0.4663
 1460SOL     vw 5840   4.382   2.144   5.564 -0.2396  0.0992 -0.3710
 1461SOL     ow 5841   3.041   0.240   2.031 -0.5534 -0.0231 -0.4956
 1461SOL     hw 5842   2.965   0.231   1.973 -1.6846 -3.8768  1.2398
 1461SOL     hw 5843   3.010   0.295   2.103 -1.0533  0.0401 -0.7509
 1461SOL     vw 5844   3.027   0.246   2.033 -0.7685 -0.5232 -0.3003
 1462SOL     ow 5845   3.301   4.138   2.373 -0.8766  0.2319 -0.5437
 1462SOL     hw 5846   3.282   4.145   2.467  0.9755  1.1656 -0.1868
 1462SOL     hw 5847   3.381   4.085   2.369 -0.3962  0.9997 -1.5175
 1462SOL     vw 5848   3.309   4.132   2.385 -0.5689  0.4566 -0.6253
 1463SOL     ow 5849   0.987   0.195   3.295  0.0185 -0.6183  0.2633
 1463SOL     hw 5850   0.969   0.122   3.355 -3.7359  0.3808  0.5858
 1463SOL     hw 5851   1.020   0.154   3.216 -0.7997 -2.5429  0.8752
 1463SOL     vw 5852   0.989   0.180   3.293 -0.5848 -0.7404  0.3865
 1464SOL     ow 5853   1.685   5.334   5.709 -0.0951 -0.3849  0.6757
 1464SOL     hw 5854   1.721   5.259   5.662  0.8162 -0.0989  0.8947
 1464SOL     hw 5855   1.668   5.399   5.642  2.9489  0.7391  0.8303
 1464SOL     vw 5856   1.687   5.333   5.694  0.4267 -0.1988  0.7246
 1465SOL     ow 5857   4.172   1.117   0.700  0.1164 -0.2791 -0.0724
 1465SOL     hw 5858   4.097   1.135   0.642 -0.6322  1.8158  1.4103
 1465SOL     hw 5859   4.231   1.191   0.686  0.5768 -0.4676  0.8035
 1465SOL     vw 5860   4.170   1.129   0.690  0.0784 -0.0276  0.2388
 1466SOL     ow 5861   3.133   2.904   6.324 -0.0079  0.0985  0.5813
 1466SOL     hw 5862   3.100   2.979   6.273  0.1680  2.7217  3.9896
 1466SOL     hw 5863   3.086   2.829   6.288 -0.6142  1.8207 -2.6914
 1466SOL     vw 5864   3.123   2.904   6.312 -0.0647  0.6719  0.5991
 1467SOL     ow 5865   1.850   0.592   0.854  0.1752  0.7298 -0.2751
 1467SOL     hw 5866   1.805   0.616   0.773 -0.2569 -0.8866 -0.5608
 1467SOL     hw 5867   1.869   0.499   0.844  1.8417  0.9234  0.6869
 1467SOL     vw 5868   1.847   0.583   0.842  0.3381  0.5420 -0.1858
 1468SOL     ow 5869   5.391   3.664   1.471  0.8765 -0.0295 -0.0481
 1468SOL     hw 5870   5.332   3.618   1.530  1.8944 -0.2648  0.8082
 1468SOL     hw 5871   5.351   3.653   1.384  0.3619 -1.3242  0.3265
 1468SOL     vw 5872   5.378   3.656   1.467  0.9427 -0.2314  0.1143
 1469SOL     ow 5873   1.524   4.141   1.104 -0.1117  1.1462 -0.2141
 1469SOL     hw 5874   1.550   4.175   1.019 -0.2437 -0.1661 -0.8138
 1469SOL     hw 5875   1.444   4.091   1.086  1.1357 -1.1486  0.1918
 1469SOL     vw 5876   1.517   4.139   1.091  0.0355  0.6704 -0.2397
 1470SOL     ow 5877   1.955   4.091   4.262  0.4267 -0.4712 -0.2165
 1470SOL     hw 5878   1.874   4.099   4.313  1.2050  0.8027  0.8574
 1470SOL     hw 5879   1.976   3.997   4.267 -2.6231 -1.5284 -3.2221
 1470SOL     vw 5880   1.947   4.079   4.269  0.1270 -0.4425 -0.4714
 1471SOL     ow 5881   6.038   2.688   5.044  0.5000 -0.0477 -0.0874
 1471SOL     hw 5882   6.029   2.597   5.015 -0.0352  0.7041 -2.5370
 1471SOL     hw 5883   6.124   2.691   5.087 -0.2327 -2.0510  1.7034
 1471SOL     vw 5884   6.048   2.676   5.046  0.3326 -0.2128 -0.1745
 1472SOL     ow 5885   0.641   4.291   6.942  0.4902 -0.0616 -0.3286
 1472SOL     hw 5886   0.609   4.376   6.971  1.2206 -0.1949  0.9302
 1472SOL     hw 5887   0.565   4.232   6.949 -0.1377  0.5555 -1.6351
 1472SOL     vw 5888   0.627   4.294   6.947  0.5037  0.0024 -0.3347
 1473SOL     ow 5889   7.050   0.980   6.680  0.5723 -0.5512 -0.2151
 1473SOL     hw 5890   7.051   0.950   6.771  0.4894  5.0996  2.0375
 1473SOL     hw 5891   6.965   0.954   6.647  1.2326 -4.2307  0.5303
 1473SOL     vw 5892   7.039   0.972   6.688  0.6487 -0.2911  0.1807
 1474SOL     ow 5893   2.044   3.290   2.048 -0.3217 -0.2046 -0.3282
 1474SOL     hw 5894   2.034   3.321   1.957  0.3029 -2.5619 -1.2758
 1474SOL     hw 5895   1.984   3.345   2.098  0.6075  2.4009 -1.8326
 1474SOL     vw 5896   2.035   3.301   2.042 -0.1166 -0.1718 -0.6517
 1475SOL     ow 5897   0.544   1.149   2.080  0.3914 -0.4110 -0.3702
 1475SOL     hw 5898   0.453   1.159   2.055  0.1344 -1.4145  0.1146
 1475SOL     hw 5899   0.548   1.063   2.123  1.2003  0.3716  1.1965
 1475SOL     vw 5900   0.533   1.139   2.082  0.4642 -0.4401 -0.0995
 1476SOL     ow 5901   4.212   0.905   4.850 -0.1142  0.1965  0.1272
 1476SOL     hw 5902   4.152   0.868   4.785  1.1901 -1.7082 -0.0849
 1476SOL     hw 5903   4.295   0.912   4.804  0.3719  0.6483  1.0548
 1476SOL     vw 5904   4.215   0.901   4.835  0.1221  0.0048  0.2217
 1477SOL     ow 5905   2.266   0.128   0.567 -0.0218  0.4718 -0.2914
 1477SOL     hw 5906   2.314   0.066   0.622 -1.7637 -1.2870 -0.6472
 1477SOL     hw 5907   2.291   0.105   0.478 -2.6117 -1.5920 -0.6022
 1477SOL     vw 5908   2.276   0.117   0.563 -0.5935 -0.0326 -0.3793
 1478SOL     ow 5909   4.741   6.805   5.899  0.3430  0.0632  0.3628
 1478SOL     hw 5910   4.658   6.759   5.911  0.1308  0.2137 -0.4479
 1478SOL     hw 5911   4.800   6.766   5.963 -0.2224 -0.3773  0.6219
 1478SOL     vw 5912   4.738   6.794   5.909  0.2403  0.0250  0.2899
 1479SOL     ow 5913   1.404   6.911   0.751  0.4141 -0.3366  0.0258
 1479SOL     hw 5914   1.338   6.861   0.701 -0.9080  1.2142  0.1233
 1479SOL     hw 5915   1.481   6.912   0.694 -0.9129  0.9991 -1.8549
 1479SOL     vw 5916   1.405   6.904   0.737  0.0646  0.0441 -0.2095
 1480SOL     ow 5917   3.463   3.122   0.364 -0.3867  0.0445  0.1696
 1480SOL     hw 5918   3.515   3.157   0.292 -0.4692  0.2480  0.2083
 1480SOL     hw 5919   3.526   3.105   0.434 -0.5329  1.4929  0.6782
 1480SOL     vw 5920   3.478   3.124   0.364 -0.4169  0.2624  0.2418
 1481SOL     ow 5921   6.706   5.715   6.119 -0.0990  0.2514 -0.7504
 1481SOL     hw 5922   6.629   5.662   6.141  1.7034 -3.5160 -2.5332
 1481SOL     hw 5923   6.760   5.714   6.198 -0.7586  0.7674 -0.2897
 1481SOL     vw 5924   6.703   5.708   6.132  0.0520 -0.1774 -0.9248
 1482SOL     ow 5925   4.744   4.427   5.222 -0.0127  0.1049 -0.9608
 1482SOL     hw 5926   4.827   4.410   5.177  1.0513  0.7771  0.6662
 1482SOL     hw 5927   4.757   4.393   5.311 -0.3004  3.0388  0.2975
 1482SOL     vw 5928   4.756   4.420   5.228  0.0899  0.5808 -0.5801
 1483SOL     ow 5929   0.560   6.142   0.680 -0.4008 -0.2583 -0.2969
 1483SOL     hw 5930   0.605   6.212   0.728 -0.7770  0.8328 -1.4636
 1483SOL     hw 5931   0.472   6.141   0.718  0.0650 -1.2307  0.8210
 1483SOL     vw 5932   0.554   6.151   0.692 -0.3890 -0.2427 -0.3034
 1484SOL     ow 5933   2.518   0.683   1.697 -0.8188  0.0257 -0.5005
 1484SOL     hw 5934   2.603   0.639   1.699 -1.1660 -0.7318 -1.7109
 1484SOL     hw 5935   2.535   0.766   1.651 -0.6201  0.1461 -0.2119
 1484SOL     vw 5936   2.532   0.688   1.691 -0.8385 -0.0584 -0.6222
 1485SOL     ow 5937   2.485   3.717   0.130  0.3767 -0.3761  0.4379
 1485SOL     hw 5938   2.496   3.783   0.063 -0.7630 -0.9740 -0.3838
 1485SOL     hw 5939   2.574   3.687   0.151  0.8211  0.7107  0.1276
 1485SOL     vw 5940   2.498   3.722   0.124  0.2849 -0.3115  0.2885
 1486SOL     ow 5941   1.508   0.352   3.528 -0.4227 -0.1078 -0.3574
 1486SOL     hw 5942   1.429   0.406   3.525  0.2421  0.9348  0.2754
 1486SOL     hw 5943   1.578   0.414   3.546  0.4461 -1.1217 -0.1803
 1486SOL     vw 5944   1.507   0.367   3.530 -0.2204 -0.1040 -0.2506
 1487SOL     ow 5945   0.072   2.671   1.396 -0.2172 -0.2283 -0.0772
 1487SOL     hw 5946   0.137   2.662   1.466  0.8284 -0.7995 -1.0897
 1487SOL     hw 5947   0.004   2.608   1.419  0.1306 -0.4398  0.4057
 1487SOL     vw 5948   0.072   2.662   1.409 -0.0334 -0.3315 -0.1471
 1488SOL     ow 5949   6.134   6.412   0.139 -0.1946 -0.2738  0.2381
 1488SOL     hw 5950   6.133   6.325   0.101  1.2802 -0.3853  0.3679
 1488SOL     hw 5951   6.044   6.442   0.134 -0.8504 -2.0329  0.7334
 1488SOL     vw 5952   6.122   6.405   0.133 -0.0865 -0.5207  0.3206
 1489SOL     ow 5953   1.921   2.340   4.097  0.2173  0.6706 -0.3848
 1489SOL     hw 5954   1.989   2.364   4.160 -1.5871  2.5960  0.9657
 1489SOL     hw 5955   1.912   2.417   4.041 -1.2667  0.7272 -0.1087
 1489SOL     vw 5956   1.929   2.353   4.098 -0.2166  0.9321 -0.1700
 1490SOL     ow 5957   4.350   2.325   5.795 -0.4670  0.0114 -0.1521
 1490SOL     hw 5958   4.259   2.304   5.816 -0.0978 -1.0250  0.4996
 1490SOL     hw 5959   4.348   2.417   5.768 -1.6122  0.1755  0.4382
 1490SOL     vw 5960   4.338   2.335   5.794 -0.5693 -0.1036  0.0119
 1491SOL     ow 5961   2.516   5.219   5.399  0.2556 -0.1669 -0.1339
 1491SOL     hw 5962   2.470   5.156   5.455  0.1194  1.7376  2.0301
 1491SOL     hw 5963   2.604   5.224   5.438  0.0903  1.3570  0.0780
 1491SOL     vw 5964   2.522   5.211   5.412  0.2158  0.2854  0.1800
 1492SOL     ow 5965   5.262   3.005   0.212  0.2951  0.4654  0.1288
 1492SOL     hw 5966   5.346   2.959   0.204 -0.0608 -0.3075  0.7384
 1492SOL     hw 5967   5.201   2.952   0.161 -0.1943  0.0487  1.1194
 1492SOL     vw 5968   5.265   2.992   0.204  0.1836  0.3084  0.3399
 1493SOL     ow 5969   4.958   3.927   4.605 -0.6058  0.0840 -0.2386
 1493SOL     hw 5970   4.974   3.832   4.599 -1.9088 -0.1133 -0.8724
 1493SOL     hw 5971   4.885   3.943   4.546  0.6429  1.7821 -1.4359
 1493SOL     vw 5972   4.951   3.916   4.597 -0.6130  0.2822 -0.4804
 1494SOL     ow 5973   4.566   1.637   0.286  0.6653 -0.1428 -0.2203
 1494SOL     hw 5974   4.496   1.691   0.250 -0.3172 -0.1376  1.5837
 1494SOL     hw 5975   4.543   1.625   0.378  3.1939  0.0865  0.5351
 1494SOL     vw 5976   4.554   1.642   0.293  0.8693 -0.1119  0.1173
 1495SOL     ow 5977   2.794   0.088   6.886  0.4950 -0.0180  0.3380
 1495SOL     hw 5978   2.841   0.093   6.969  1.4458  2.8737 -0.2491
 1495SOL     hw 5979   2.777   0.179   6.862  0.1217 -0.7432 -2.5764
 1495SOL     vw 5980   2.798   0.100   6.893  0.5711  0.2678 -0.1242
 1496SOL     ow 5981   1.141   2.578   2.993 -0.2142  0.3397  0.0033
 1496SOL     hw 5982   1.172   2.502   3.043 -1.1570  0.2429  0.4625
 1496SOL     hw 5983   1.197   2.580   2.916 -0.7092 -1.3421 -0.4510
 1496SOL     vw 5984   1.152   2.568   2.990 -0.4039  0.1050  0.0041
 1497SOL     ow 5985   1.260   2.448   4.806 -0.0941 -0.1281 -0.4298
 1497SOL     hw 5986   1.199   2.503   4.856  1.7771 -0.2683  2.1739
 1497SOL     hw 5987   1.242   2.470   4.715 -0.9062  3.2447  0.4150
 1497SOL     vw 5988   1.249   2.458   4.801  0.0457  0.2984  0.0253
 1498SOL     ow 5989   5.681   6.848   1.646  0.7877  0.0310 -0.1096
 1498SOL     hw 5990   5.728   6.768   1.668 -0.4437 -1.0022 -0.9990
 1498SOL     hw 5991   5.693   6.905   1.721  2.7320 -0.4897  0.0251
 1498SOL     vw 5992   5.689   6.845   1.659  0.8817 -0.1738 -0.2091
 1499SOL     ow 5993   4.171   1.720   6.365 -0.7653  0.2012  0.3078
 1499SOL     hw 5994   4.184   1.727   6.460  0.8205 -1.3224  0.2533
 1499SOL     hw 5995   4.181   1.627   6.346  0.6825  0.6633 -1.5613
 1499SOL     vw 5996   4.174   1.709   6.375 -0.3650  0.0612  0.0541
 1500SOL     ow 5997   0.045   2.692   6.048 -0.0946  0.0051  0.1924
 1500SOL     hw 5998   0.118   2.670   5.990  0.4884 -0.9494  1.2426
 1500SOL     hw 5999  -0.033   2.662   6.002  0.0102  2.0238 -1.4470
 1500SOL     vw 6000   0.044   2.685   6.034 -0.0039  0.1456  0.1144
 1501SOL     ow 6001   2.667   3.342   3.650  0.1340 -0.0323 -0.4444
 1501SOL     hw 6002   2.659   3.247   3.663 -0.9480  0.1818  0.6038
 1501SOL     hw 6003   2.634   3.357   3.561 -0.3868 -0.5573 -0.3444
 1501SOL     vw 6004   2.662   3.331   3.640 -0.0772 -0.0734 -0.2928
 1502SOL     ow 6005   2.203   4.259   4.974 -0.2312  0.4828  0.8872
 1502SOL     hw 6006   2.136   4.194   4.953  0.0988 -0.1417  1.6999
 1502SOL     hw 6007   2.214   4.310   4.894 -0.1425 -0.7843  0.0717
 1502SOL     vw 6008   2.196   4.257   4.961 -0.1760  0.2334  0.8867
 1503SOL     ow 6009   0.461   3.645   4.612  0.2131 -0.0441 -0.2493
 1503SOL     hw 6010   0.417   3.575   4.564 -1.5949  0.3652  0.7296
 1503SOL     hw 6011   0.390   3.703   4.641  1.1879 -0.2051  2.7899
 1503SOL     vw 6012   0.446   3.644   4.610  0.1032 -0.0113  0.2811
 1504SOL     ow 6013   6.664   3.998   6.687  0.1100  0.2313 -0.0746
 1504SOL     hw 6014   6.595   3.952   6.640  1.0977 -1.3811 -0.0399
 1504SOL     hw 6015   6.689   4.070   6.629 -1.1840  0.4939 -0.3352
 1504SOL     vw 6016   6.658   4.002   6.673  0.0694  0.0532 -0.1044
 1505SOL     ow 6017   6.981   5.809   1.676 -0.6186 -0.1413 -0.6162
 1505SOL     hw 6018   6.937   5.752   1.613 -0.5559  0.8794 -1.6133
 1505SOL     hw 6019   7.064   5.831   1.634 -0.3479  0.1484  0.0528
 1505SOL     vw 6020   6.986   5.804   1.662 -0.5748  0.0317 -0.6595
 1506SOL     ow 6021   5.237   4.719   2.207  0.0969  0.0190 -0.3608
 1506SOL     hw 6022   5.244   4.807   2.168 -0.0887  0.6160  0.9238
 1506SOL     hw 6023   5.143   4.701   2.207  0.1564 -0.3424 -0.9273
 1506SOL     vw 6024   5.226   4.728   2.202  0.0801  0.0501 -0.2660
 1507SOL     ow 6025   0.581   1.105   4.597 -0.3151 -0.4002  0.1953
 1507SOL     hw 6026   0.533   1.099   4.514 -0.7706 -0.6666  0.4723
 1507SOL     hw 6027   0.672   1.118   4.572  0.0398 -3.3959 -0.4116
 1507SOL     vw 6028   0.587   1.106   4.583 -0.3284 -0.8307  0.1516
 1508SOL     ow 6029   5.493   0.055   1.875 -0.4188 -0.4371  0.0075
 1508SOL     hw 6030   5.445   0.023   1.798 -2.2943  1.4577  0.2857
 1508SOL     hw 6031   5.523   0.142   1.850  3.2844 -1.6208 -0.2245
 1508SOL     vw 6032   5.491   0.062   1.862 -0.1779 -0.3433  0.0136
 1509SOL     ow 6033   2.889   2.293   6.905 -0.1502 -0.1030 -0.2292
 1509SOL     hw 6034   2.851   2.351   6.969  0.7411  0.2697 -0.0195
 1509SOL     hw 6035   2.923   2.351   6.836 -0.1917 -0.4353 -0.5354
 1509SOL     vw 6036   2.889   2.308   6.904 -0.0381 -0.0976 -0.2418
 1510SOL     ow 6037   5.744   3.773   4.095  0.6276 -0.7966  0.4729
 1510SOL     hw 6038   5.834   3.792   4.071  0.7419 -1.2357  0.5433
 1510SOL     hw 6039   5.718   3.844   4.154  0.6687 -0.2443 -0.1610
 1510SOL     vw 6040   5.752   3.785   4.099  0.6478 -0.7817  0.3984
 1511SOL     ow 6041   2.921   0.109   5.839  0.2526  0.0693 -0.4262
 1511SOL     hw 6042   2.843   0.108   5.784 -1.4340 -0.9874  1.8265
 1511SOL     hw 6043   2.916   0.028   5.889  2.8178 -0.0196 -0.2040
 1511SOL     vw 6044   2.910   0.098   5.839  0.3685 -0.0819 -0.0994
 1512SOL     ow 6045   6.597   2.086   4.697  0.5101 -0.1737  0.4496
 1512SOL     hw 6046   6.643   2.060   4.777  0.1464 -0.1807  0.6556
 1512SOL     hw 6047   6.630   2.026   4.630  0.4952 -0.4484  0.6861
 1512SOL     vw 6048   6.607   2.075   4.699  0.4601 -0.2109  0.5081
 1513SOL     ow 6049   1.221   2.992   4.900  0.5142 -0.6345  0.3106
 1513SOL     hw 6050   1.276   2.920   4.932 -0.6192 -1.3656  0.6759
 1513SOL     hw 6051   1.283   3.062   4.878  1.7218 -1.9857 -0.8112
 1513SOL     vw 6052   1.236   2.992   4.901  0.5240 -0.9092  0.2108
 1514SOL     ow 6053   6.381   4.464   0.249 -0.1766  0.9191  0.0518
 1514SOL     hw 6054   6.336   4.388   0.288  0.2890  1.1101  0.9967
 1514SOL     hw 6055   6.381   4.529   0.319  0.9263  1.1771 -0.1798
 1514SOL     vw 6056   6.375   4.462   0.263  0.0305  0.9782  0.1459
 1515SOL     ow 6057   4.826   4.297   1.796  0.0952  0.2000  0.4134
 1515SOL     hw 6058   4.871   4.272   1.716  2.4498  1.8522  1.1143
 1515SOL     hw 6059   4.767   4.368   1.770 -1.5702 -1.3757 -0.3440
 1515SOL     vw 6060   4.824   4.303   1.782  0.1862  0.2103  0.4059
 1516SOL     ow 6061   5.976   0.976   6.969  0.0733  0.2210 -0.2381
 1516SOL     hw 6062   5.910   1.020   7.022 -1.8616 -1.4376 -1.1363
 1516SOL     hw 6063   5.963   1.011   6.881 -2.0046 -2.4898 -1.1267
 1516SOL     vw 6064   5.966   0.987   6.964 -0.4559 -0.3555 -0.4740
 1517SOL     ow 6065   0.999   1.547   4.236 -0.3387  0.2182 -0.2174
 1517SOL     hw 6066   1.021   1.639   4.223 -2.1695  0.5471 -1.3416
 1517SOL     hw 6067   1.075   1.499   4.203  0.0498  1.3074 -0.9762
 1517SOL     vw 6068   1.012   1.553   4.230 -0.5289  0.4053 -0.4659
 1518SOL     ow 6069   4.814   1.724   4.988  0.3634  0.1128 -0.1847
 1518SOL     hw 6070   4.744   1.719   4.923  0.2806  2.3106 -0.3418
 1518SOL     hw 6071   4.871   1.649   4.967 -1.1394 -0.8634 -0.9668
 1518SOL     vw 6072   4.812   1.713   4.977  0.1545  0.2739 -0.3085
 1519SOL     ow 6073   4.142   3.066   4.251 -0.3587  0.8149 -0.2287
 1519SOL     hw 6074   4.125   2.973   4.238 -0.1399  0.7787 -0.2567
 1519SOL     hw 6075   4.059   3.102   4.282  0.0316  0.2621  1.6007
 1519SOL     vw 6076   4.129   3.059   4.254 -0.2782  0.7371  0.0088
 1520SOL     ow 6077   0.709   6.422   2.604  0.2768  0.0801  0.1797
 1520SOL     hw 6078   0.762   6.404   2.527 -1.2514  0.5284 -1.0235
 1520SOL     hw 6079   0.766   6.474   2.661  1.5383 -0.5446 -0.4751
 1520SOL     vw 6080   0.723   6.426   2.602  0.2416  0.0567 -0.0656
 1521SOL     ow 6081   1.188   1.266   1.889  0.6400 -0.2590 -0.4047
 1521SOL     hw 6082   1.119   1.313   1.935  0.8371  0.7703 -1.1172
 1521SOL     hw 6083   1.193   1.181   1.933 -0.0514  0.2050  0.6102
 1521SOL     vw 6084   1.180   1.261   1.901  0.5747 -0.0620 -0.3648
 1522SOL     ow 6085   1.719   1.624   3.295  0.2332  0.8281  0.7155
 1522SOL     hw 6086   1.735   1.685   3.223 -1.0556  0.2796 -0.0684
 1522SOL     hw 6087   1.635   1.584   3.274  0.4999 -0.3644  1.8272
 1522SOL     vw 6088   1.710   1.627   3.283  0.0983  0.5984  0.7589
 1523SOL     ow 6089   4.379   1.104   1.641  0.0424 -0.1402 -0.0612
 1523SOL     hw 6090   4.428   1.023   1.625  1.8924  0.8181  0.5246
 1523SOL     hw 6091   4.445   1.168   1.666 -1.1492  1.9941 -1.9582
 1523SOL     vw 6092   4.394   1.101   1.642  0.1292  0.2679 -0.2342
 1524SOL     ow 6093   6.469   3.202   2.452  0.2261 -0.1756 -0.2287
 1524SOL     hw 6094   6.421   3.283   2.436  0.0413  0.5499  3.3253
 1524SOL     hw 6095   6.558   3.219   2.420 -0.7964 -0.2516 -3.5138
 1524SOL     vw 6096   6.474   3.215   2.446  0.0668 -0.0899 -0.1932
 1525SOL     ow 6097   1.076   3.437   1.672 -0.2174  0.3664  0.5724
 1525SOL     hw 6098   1.149   3.486   1.635  3.1412 -0.9966  4.6250
 1525SOL     hw 6099   1.012   3.504   1.696  0.0470  1.7086 -2.0457
 1525SOL     vw 6100   1.077   3.452   1.670  0.2606  0.3636  0.7616
 1526SOL     ow 6101   1.889   1.045   5.223  0.1996  0.0613 -0.0840
 1526SOL     hw 6102   1.940   1.117   5.260  1.5065 -1.4707  1.2241
 1526SOL     hw 6103   1.817   1.032   5.284  0.1569  0.0417 -0.1382
 1526SOL     vw 6104   1.886   1.053   5.236  0.3663 -0.1434  0.0815
 1527SOL     ow 6105   3.287   5.313   6.283 -0.2092  0.1374 -0.3519
 1527SOL     hw 6106   3.217   5.343   6.224 -0.2829  0.6195 -0.0201
 1527SOL     hw 6107   3.274   5.363   6.363 -1.9161 -2.5566  1.1929
 1527SOL     vw 6108   3.276   5.323   6.286 -0.4441 -0.1545 -0.1044
 1528SOL     ow 6109   5.615   1.907   6.150  0.2535 -0.1154  0.1279
 1528SOL     hw 6110   5.542   1.957   6.185 -0.7365 -1.3634 -0.0952
 1528SOL     hw 6111   5.692   1.943   6.194 -0.9201 -1.8655  4.0855
 1528SOL     vw 6112   5.616   1.918   6.161 -0.0319 -0.5109  0.6208
 1529SOL     ow 6113   5.619   1.967   3.510  0.0077 -0.1662  0.0128
 1529SOL     hw 6114   5.678   2.040   3.528 -0.5343  0.4269 -0.5864
 1529SOL     hw 6115   5.677   1.897   3.479  0.5390 -0.0294  0.6729
 1529SOL     vw 6116   5.634   1.967   3.508  0.0064 -0.0699  0.0209
 1530SOL     ow 6117   5.451   4.638   0.858 -0.3615  0.2048 -0.4027
 1530SOL     hw 6118   5.481   4.672   0.942 -0.3385  1.9491 -1.0866
 1530SOL     hw 6119   5.456   4.543   0.868  0.4005  0.3857  1.2836
 1530SOL     vw 6120   5.455   4.630   0.870 -0.2580  0.4587 -0.2705
 1531SOL     ow 6121   4.509   5.847   4.376  0.0645 -0.5500 -0.0492
 1531SOL     hw 6122   4.557   5.912   4.325  0.5401 -0.2148  0.8095
 1531SOL     hw 6123   4.509   5.769   4.320  0.5076 -0.1705 -0.5959
 1531SOL     vw 6124   4.515   5.845   4.362  0.1855 -0.4556 -0.0081
 1532SOL     ow 6125   6.843   5.395   2.722 -0.0313 -0.3706 -0.3533
 1532SOL     hw 6126   6.938   5.392   2.729  0.0725 -1.8091 -1.8409
 1532SOL     hw 6127   6.821   5.488   2.724  1.5160  0.0384 -1.2810
 1532SOL     vw 6128   6.852   5.407   2.724  0.1867 -0.5064 -0.6721
 1533SOL     ow 6129   4.227   5.106   4.627 -0.2256 -0.0056 -0.5030
 1533SOL     hw 6130   4.253   5.178   4.683 -0.9599  0.8087 -1.1784
 1533SOL     hw 6131   4.306   5.083   4.578  0.6471 -1.2590  1.3721
 1533SOL     vw 6132   4.241   5.112   4.628 -0.2072 -0.0634 -0.3448
 1534SOL     ow 6133   0.583   3.713   2.228 -0.5018 -0.3654 -1.0947
 1534SOL     hw 6134   0.634   3.634   2.206  0.0305 -0.7758  1.3005
 1534SOL     hw 6135   0.645   3.785   2.218  0.0058 -0.6471 -0.0687
 1534SOL     vw 6136   0.598   3.712   2.224 -0.3646 -0.4567 -0.6434
 1535SOL     ow 6137   1.084   4.761   5.821  0.2613  0.2782 -0.3294
 1535SOL     hw 6138   1.169   4.735   5.857 -0.3832 -1.3023  0.1340
 1535SOL     hw 6139   1.023   4.695   5.853 -1.1292  1.2767 -0.7989
 1535SOL     vw 6140   1.087   4.749   5.830 -0.0072  0.2012 -0.3302
 1536SOL     ow 6141   2.815   2.052   2.174  0.6634 -0.1506 -0.2024
 1536SOL     hw 6142   2.859   2.137   2.165 -0.3536  0.2415 -1.7258
 1536SOL     hw 6143   2.878   1.989   2.138  0.9446  0.0906 -0.1455
 1536SOL     vw 6144   2.829   2.055   2.168  0.5665 -0.0670 -0.3960
 1537SOL     ow 6145   5.288   7.040   3.465  0.3752  0.0413  0.2150
 1537SOL     hw 6146   5.266   6.958   3.421 -1.6653  1.1011 -0.9084
 1537SOL     hw 6147   5.383   7.036   3.478  0.5217 -1.8996 -1.0298
 1537SOL     vw 6148   5.298   7.029   3.461  0.1252 -0.0746 -0.0974
 1538SOL     ow 6149   1.912   3.006   3.789  0.7567 -0.1651 -0.7358
 1538SOL     hw 6150   1.846   3.062   3.749  0.7811 -0.2004 -0.8250
 1538SOL     hw 6151   1.874   2.918   3.785  0.8338 -0.1932 -0.8386
 1538SOL     vw 6152   1.898   3.002   3.784  0.7701 -0.1734 -0.7610
 1539SOL     ow 6153   5.102   5.944   6.262 -0.1309  1.0515 -0.4047
 1539SOL     hw 6154   5.034   5.878   6.276  0.1923  0.5418 -1.2513
 1539SOL     hw 6155   5.181   5.906   6.299  0.2183  0.6575 -1.5533
 1539SOL     vw 6156   5.103   5.930   6.269 -0.0422  0.9322 -0.6680
 1540SOL     ow 6157   6.238   2.413   1.888  0.3760  0.0556  0.2726
 1540SOL     hw 6158   6.155   2.382   1.923  0.1947 -0.1262 -0.3138
 1540SOL     hw 6159   6.302   2.348   1.918  0.0043 -0.8981 -0.9243
 1540SOL     vw 6160   6.236   2.400   1.896  0.3033 -0.0943  0.0373
 1541SOL     ow 6161   3.654   3.409   3.457 -0.0442  0.2136  0.1789
 1541SOL     hw 6162   3.596   3.346   3.499 -1.3081 -0.1169 -1.9286
 1541SOL     hw 6163   3.739   3.365   3.455 -0.6700 -1.0061 -0.3524
 1541SOL     vw 6164   3.658   3.395   3.463 -0.2936  0.0091 -0.1693
 1542SOL     ow 6165   5.699   1.978   7.100 -0.2058 -0.1780  0.3458
 1542SOL     hw 6166   5.624   1.918   7.087 -0.1275 -0.1660 -0.1796
 1542SOL     hw 6167   5.676   2.028   7.178 -1.1405  0.4110 -0.2841
 1542SOL     vw 6168   5.686   1.976   7.109 -0.3188 -0.0987  0.1934
 1543SOL     ow 6169   1.058   1.435   3.181 -0.3909 -0.0262 -0.0651
 1543SOL     hw 6170   1.084   1.396   3.264  0.6739 -0.0254 -0.3881
 1543SOL     hw 6171   0.965   1.454   3.192 -0.3115 -0.2090  1.0482
 1543SOL     vw 6172   1.049   1.432   3.193 -0.2399 -0.0502  0.0391
 1544SOL     ow 6173   5.511   5.741   0.648 -0.1603  0.1963 -0.4725
 1544SOL     hw 6174   5.416   5.750   0.643 -0.1614 -0.4107 -3.1054
 1544SOL     hw 6175   5.539   5.728   0.557  2.3147 -0.9278  0.3461
 1544SOL     vw 6176   5.502   5.740   0.635  0.1657 -0.0322 -0.7119
 1545SOL     ow 6177   2.212   5.909   0.318  0.1773 -0.5627  0.3363
 1545SOL     hw 6178   2.298   5.901   0.277 -0.8445 -0.8280 -1.9264
 1545SOL     hw 6179   2.173   5.985   0.274 -1.3248 -1.4129  0.1481
 1545SOL     vw 6180   2.218   5.918   0.307 -0.1558 -0.7098  0.0130
 1546SOL     ow 6181   1.198   0.192   2.137  0.0150 -0.2328  0.1688
 1546SOL     hw 6182   1.242   0.138   2.071  0.2115  0.0917  0.0334
 1546SOL     hw 6183   1.201   0.138   2.217 -0.0495 -0.5421 -0.0354
 1546SOL     vw 6184   1.204   0.178   2.139  0.0324 -0.2308  0.1241
 1547SOL     ow 6185   1.897   3.857   0.343 -0.1223 -0.0948  0.1715
 1547SOL     hw 6186   1.961   3.905   0.395 -1.3368 -0.4617  2.0692
 1547SOL     hw 6187   1.837   3.820   0.406 -2.5139  0.6207 -1.5427
 1547SOL     vw 6188   1.898   3.858   0.358 -0.5981 -0.0488  0.1957
 1548SOL     ow 6189   4.098   6.580   4.681  0.0969  0.6699  1.0129
 1548SOL     hw 6190   4.173   6.640   4.682  0.4455  0.2520  0.3965
 1548SOL     hw 6191   4.113   6.521   4.754 -0.6779  1.8299  2.1592
 1548SOL     vw 6192   4.110   6.580   4.691  0.0405  0.7677  1.0827
 1549SOL     ow 6193   2.725   3.881   4.434 -0.3452  0.0618 -0.4630
 1549SOL     hw 6194   2.790   3.872   4.365 -1.2950 -0.4783 -1.3187
 1549SOL     hw 6195   2.776   3.898   4.514  1.1204 -3.6051 -0.4259
 1549SOL     vw 6196   2.740   3.882   4.436 -0.2773 -0.4935 -0.5708
 1550SOL     ow 6197   0.113   4.318   0.768  0.4845 -0.0342 -0.3962
 1550SOL     hw 6198   0.019   4.326   0.750  0.6650  0.8370 -1.0446
 1550SOL     hw 6199   0.123   4.233   0.810 -0.9327  0.8781  2.0050
 1550SOL     vw 6200   0.102   4.308   0.771  0.3213  0.2012 -0.1649
 1551SOL     ow 6201   4.270   4.015   2.978 -0.5664 -0.2163 -0.1045
 1551SOL     hw 6202   4.256   4.108   2.961  0.4508 -0.2538 -1.2539
 1551SOL     hw 6203   4.238   3.971   2.900 -0.2743 -0.7683  0.0802
 1551SOL     vw 6204   4.264   4.021   2.965 -0.3936 -0.2942 -0.2319
 1552SOL     ow 6205   1.358   6.060   0.060  0.9365  0.0410 -0.0666
 1552SOL     hw 6206   1.367   5.970   0.028 -1.4161 -0.1959 -0.2653
 1552SOL     hw 6207   1.418   6.065   0.135  0.8557 -1.8259  0.1668
 1552SOL     vw 6208   1.367   6.049   0.066  0.6155 -0.2365 -0.0620
 1553SOL     ow 6209   2.652   5.843   3.955  0.2565  0.4806  0.7439
 1553SOL     hw 6210   2.719   5.910   3.969 -1.1787  1.9087  1.0317
 1553SOL     hw 6211   2.645   5.798   4.039  0.8348  0.3172  0.7101
 1553SOL     vw 6212   2.660   5.846   3.968  0.1433  0.6473  0.7776
 1554SOL     ow 6213   4.591   4.117   2.669 -0.1460 -0.0590 -0.0505
 1554SOL     hw 6214   4.531   4.161   2.609  0.8491  1.6722  0.1803
 1554SOL     hw 6215   4.677   4.149   2.644  0.4090 -0.3373  1.4468
 1554SOL     vw 6216   4.594   4.127   2.658  0.0587  0.1328  0.1775
 1555SOL     ow 6217   1.530   0.144   3.700  0.6409 -0.2900  0.0164
 1555SOL     hw 6218   1.503   0.220   3.650 -0.5630  0.7371  2.1194
 1555SOL     hw 6219   1.514   0.070   3.641  1.3280  0.9849 -1.8699
 1555SOL     vw 6220   1.525   0.144   3.685  0.5727  0.0138  0.0451
 1556SOL     ow 6221   6.790   3.679   5.628  0.4636 -0.3066 -0.1542
 1556SOL     hw 6222   6.775   3.680   5.534  0.9692 -0.2233 -0.2396
 1556SOL     hw 6223   6.707   3.705   5.667  0.8827  2.0035 -0.6600
 1556SOL     vw 6224   6.777   3.682   5.621  0.5856  0.0092 -0.2325
 1557SOL     ow 6225   5.499   6.134   2.657  0.3626 -0.1980  0.4776
 1557SOL     hw 6226   5.443   6.128   2.580 -0.0630  0.6092  0.7150
 1557SOL     hw 6227   5.548   6.215   2.645  0.8209 -0.4325  0.7124
 1557SOL     vw 6228   5.498   6.144   2.645  0.3669 -0.1225  0.5400
 1558SOL     ow 6229   7.035   2.898   4.248  0.1438  0.1812 -0.6725
 1558SOL     hw 6230   7.073   2.961   4.310 -0.5559 -0.0064 -0.0318
 1558SOL     hw 6231   7.097   2.896   4.175  1.0831  0.3020  0.0860
 1558SOL     vw 6232   7.048   2.906   4.247  0.1755  0.1725 -0.4883
 1559SOL     ow 6233   4.432   3.653   6.971  0.6253  0.3983 -0.4213
 1559SOL     hw 6234   4.522   3.624   6.962  0.5856 -0.0174  0.4524
 1559SOL     hw 6235   4.393   3.593   7.034 -0.3659  0.3436 -1.0521
 1559SOL     vw 6236   4.438   3.641   6.978  0.4895  0.3362 -0.3893
 1560SOL     ow 6237   6.993   3.239   4.995  0.4423 -0.1058 -0.3745
 1560SOL     hw 6238   6.975   3.218   4.904  1.3890  0.0141 -0.6031
 1560SOL     hw 6239   6.991   3.335   4.999  1.0044 -0.0895 -0.4072
 1560SOL     vw 6240   6.991   3.249   4.984  0.6413 -0.0879 -0.4089
 1561SOL     ow 6241   4.845   0.007   1.123  0.6271  0.1287  0.0212
 1561SOL     hw 6242   4.755  -0.014   1.098  0.5983  1.3633 -1.0278
 1561SOL     hw 6243   4.842   0.013   1.219  0.0960 -1.9185  0.1720
 1561SOL     vw 6244   4.833   0.005   1.132  0.5531  0.0217 -0.0973
 1562SOL     ow 6245   5.966   4.979   0.450 -0.3272 -0.0720  0.3794
 1562SOL     hw 6246   5.896   5.031   0.489 -0.0332 -0.1235  0.9842
 1562SOL     hw 6247   6.029   4.967   0.520 -0.3607 -1.2026  0.2371
 1562SOL     vw 6248   5.965   4.984   0.464 -0.2928 -0.2282  0.4404
 1563SOL     ow 6249   6.999   2.012   3.418 -0.3461 -0.0337  0.1986
 1563SOL     hw 6250   6.972   1.931   3.376 -2.4132  0.2994  0.7471
 1563SOL     hw 6251   7.066   2.049   3.361 -1.4656 -0.6898 -1.6051
 1563SOL     vw 6252   7.004   2.006   3.405 -0.7665 -0.0762  0.0331
 1564SOL     ow 6253   1.823   7.063   3.562  0.0204  0.2565  0.3304
 1564SOL     hw 6254   1.806   6.978   3.521  0.4183  0.4768 -0.2977
 1564SOL     hw 6255   1.916   7.077   3.550  0.0474  0.5500  0.8919
 1564SOL     vw 6256   1.833   7.053   3.555  0.0765  0.3245  0.3216
 1565SOL     ow 6257   3.165   0.159   5.730 -0.5849 -0.1889  0.0629
 1565SOL     hw 6258   3.085   0.128   5.771 -0.9600 -2.0205 -1.8835
 1565SOL     hw 6259   3.234   0.138   5.793 -1.3522 -0.8777  0.6943
 1565SOL     vw 6260   3.164   0.152   5.744 -0.7356 -0.5214 -0.1104
 1566SOL     ow 6261   4.127   2.754   0.502  0.6092 -0.0793 -0.5221
 1566SOL     hw 6262   4.124   2.658   0.503 -0.0010 -0.0575 -0.3358
 1566SOL     hw 6263   4.066   2.779   0.433 -1.9637  0.2808  1.7444
 1566SOL     vw 6264   4.119   2.745   0.493  0.1893 -0.0290 -0.1985
 1567SOL     ow 6265   6.820   3.374   0.184 -0.9858 -0.2306 -0.7413
 1567SOL     hw 6266   6.850   3.450   0.233 -1.4281 -0.5005 -0.0289
 1567SOL     hw 6267   6.781   3.410   0.105  2.5275  0.0893 -2.5188
 1567SOL     vw 6268   6.819   3.388   0.180 -0.5803 -0.2240 -0.8818
 1568SOL     ow 6269   3.911   0.720   6.385 -0.1102  0.3042 -0.0459
 1568SOL     hw 6270   3.841   0.699   6.447 -1.0299 -2.5499 -1.8830
 1568SOL     hw 6271   3.876   0.792   6.332  0.1639  1.8519  1.7577
 1568SOL     vw 6272   3.897   0.727   6.386 -0.1955  0.1318 -0.0503
 1569SOL     ow 6273   5.089   1.472   3.056 -0.4822 -0.3573  0.4972
 1569SOL     hw 6274   5.048   1.539   3.109 -0.1630 -0.2193  0.5707
 1569SOL     hw 6275   5.076   1.501   2.966  0.0867  0.0547  0.5467
 1569SOL     vw 6276   5.082   1.485   3.051 -0.3648 -0.2847  0.5134
 1570SOL     ow 6277   5.256   3.152   6.245  0.0808 -0.4616  0.5337
 1570SOL     hw 6278   5.321   3.162   6.314 -0.5591  0.0792  1.0634
 1570SOL     hw 6279   5.253   3.057   6.228  0.3526 -0.5794  1.1373
 1570SOL     vw 6280   5.264   3.140   6.252  0.0324 -0.4058  0.6831
 1571SOL     ow 6281   5.311   6.479   2.097 -0.2291  0.4959  0.0208
 1571SOL     hw 6282   5.285   6.469   2.189 -2.1515 -0.0181 -0.5344
 1571SOL     hw 6283   5.228   6.486   2.050  0.7537  2.0991 -1.5440
 1571SOL     vw 6284   5.296   6.478   2.103 -0.3533  0.6399 -0.2588
 1572SOL     ow 6285   2.317   5.662   0.502 -0.3208 -0.1575 -0.5362
 1572SOL     hw 6286   2.311   5.633   0.593 -0.2010 -0.9904 -0.7896
 1572SOL     hw 6287   2.411   5.670   0.486 -0.3603  0.9265 -0.3036
 1572SOL     vw 6288   2.329   5.659   0.512 -0.3102 -0.1245 -0.5390
 1573SOL     ow 6289   5.994   2.128   5.513  0.3672  0.5717  0.0346
 1573SOL     hw 6290   5.935   2.183   5.462 -1.2271 -2.0454 -1.1596
 1573SOL     hw 6291   6.082   2.152   5.483 -0.3779  1.2750 -1.6743
 1573SOL     vw 6292   5.998   2.138   5.503  0.0587  0.3192 -0.3486
 1574SOL     ow 6293   2.582   4.757   0.234  0.5696 -0.1126 -0.5234
 1574SOL     hw 6294   2.570   4.694   0.163  0.5178 -0.5387 -0.1398
 1574SOL     hw 6295   2.500   4.756   0.283  0.5574  0.2737 -0.5260
 1574SOL     vw 6296   2.570   4.749   0.231  0.5611 -0.1178 -0.4731
 1575SOL     ow 6297   3.282   6.584   6.925 -0.7688  0.0895  0.1683
 1575SOL     hw 6298   3.255   6.675   6.938 -1.0070  0.0619 -0.1324
 1575SOL     hw 6299   3.371   6.580   6.960 -0.9570  0.3090  0.6799
 1575SOL     vw 6300   3.290   6.596   6.931 -0.8249  0.1147  0.1962
 1576SOL     ow 6301   5.526   3.554   4.050 -0.3566 -0.0907 -0.4040
 1576SOL     hw 6302   5.524   3.458   4.057  3.0211 -0.2737 -0.2538
 1576SOL     hw 6303   5.525   3.570   3.955 -2.5119 -0.1256 -0.4248
 1576SOL     vw 6304   5.526   3.543   4.038 -0.1953 -0.1194 -0.3870
 1577SOL     ow 6305   1.209   4.685   4.602  0.2994  0.0919  0.8288
 1577SOL     hw 6306   1.239   4.726   4.521  2.8351 -4.4185 -0.8399
 1577SOL     hw 6307   1.288   4.653   4.644 -1.3483 -3.3589  1.6822
 1577SOL     vw 6308   1.223   4.686   4.597  0.4165 -0.9582  0.7210
 1578SOL     ow 6309   6.292   5.862   1.603  0.1179  0.0422  0.0632
 1578SOL     hw 6310   6.265   5.902   1.520 -1.0967  1.0775  0.9152
 1578SOL     hw 6311   6.221   5.802   1.624  0.4121 -0.2003  0.3660
 1578SOL     vw 6312   6.279   5.859   1.595 -0.0033  0.1471  0.2156
 1579SOL     ow 6313   1.942   2.088   3.957 -0.2221  0.4451 -0.2403
 1579SOL     hw 6314   1.992   2.044   4.025 -0.3742  1.1376  0.3373
 1579SOL     hw 6315   1.933   2.178   3.989  0.7475  1.1177 -1.7215
 1579SOL     vw 6316   1.948   2.094   3.970 -0.1143  0.6254 -0.3595
 1580SOL     ow 6317   7.003   1.376   3.745 -0.4871 -0.0915  0.7628
 1580SOL     hw 6318   6.963   1.410   3.665  0.5399 -1.1473 -0.2424
 1580SOL     hw 6319   6.929   1.346   3.798 -1.1023 -1.2215 -0.6782
 1580SOL     vw 6320   6.988   1.377   3.742 -0.4327 -0.3799  0.4400
 1581SOL     ow 6321   3.532   2.184   1.564 -0.1832 -0.3226  0.4784
 1581SOL     hw 6322   3.457   2.143   1.608 -0.7150  0.5167  0.3734
 1581SOL     hw 6323   3.605   2.172   1.625  0.6594 -4.6551 -1.0489
 1581SOL     vw 6324   3.532   2.177   1.578 -0.1422 -0.7836  0.2631
 1582SOL     ow 6325   2.421   5.628   6.522  0.4004 -0.2595 -0.1531
 1582SOL     hw 6326   2.450   5.664   6.439 -0.8585 -0.6592 -0.7846
 1582SOL     hw 6327   2.381   5.702   6.568  1.4914  0.0676  0.3204
 1582SOL     vw 6328   2.420   5.643   6.517  0.3781 -0.2692 -0.1738
 1583SOL     ow 6329   2.937   2.275   0.800 -0.3829  0.5159  0.4737
 1583SOL     hw 6330   2.939   2.351   0.741 -3.5170  2.2848  2.3617
 1583SOL     hw 6331   2.915   2.202   0.743 -1.7549  1.8558 -0.8162
 1583SOL     vw 6332   2.935   2.276   0.784 -0.9774  0.9260  0.5527
 1584SOL     ow 6333   6.453   0.018   2.575  0.0003  0.2113  0.4530
 1584SOL     hw 6334   6.395   0.050   2.644 -2.1120  0.1467 -1.1827
 1584SOL     hw 6335   6.397   0.013   2.498  2.5578  1.5963 -1.6437
 1584SOL     vw 6336   6.438   0.022   2.574  0.0589  0.3855 -0.0395
 1585SOL     ow 6337   1.768   1.400   5.822  0.0858 -0.3779  0.3257
 1585SOL     hw 6338   1.862   1.419   5.831 -0.0157  2.5411 -2.7774
 1585SOL     hw 6339   1.765   1.316   5.776  1.2855  0.0600 -0.6259
 1585SOL     vw 6340   1.780   1.392   5.817  0.2307  0.0650 -0.2091
 1586SOL     ow 6341   2.107   4.014   0.461  0.4791  0.2071  0.1322
 1586SOL     hw 6342   2.141   3.986   0.375  0.1358 -2.8278  0.8733
 1586SOL     hw 6343   2.178   3.994   0.522  1.1918  3.4436  0.5274
 1586SOL     vw 6344   2.121   4.008   0.458  0.5279  0.2337  0.2821
 1587SOL     ow 6345   0.906   4.956   6.093  0.1410  0.4702  0.3776
 1587SOL     hw 6346   0.952   4.872   6.094  0.9286  0.8160 -1.5544
 1587SOL     hw 6347   0.860   4.958   6.009  0.0127  1.9055  0.4408
 1587SOL     vw 6348   0.906   4.946   6.082  0.2280  0.7052  0.1309
 1588SOL     ow 6349   1.024   3.050   2.200 -0.0648  0.2118 -0.6419
 1588SOL     hw 6350   1.068   2.965   2.196  0.6400  0.5949 -1.1878
 1588SOL     hw 6351   0.971   3.046   2.279  1.5647  0.0192  0.4844
 1588SOL     vw 6352   1.023   3.039   2.210  0.2432  0.2369 -0.5653
 1589SOL     ow 6353   4.754   0.206   0.139  0.3119  0.4044  1.0058
 1589SOL     hw 6354   4.716   0.150   0.071 -0.7164  2.0284  0.1556
 1589SOL     hw 6355   4.679   0.236   0.190  0.3539  3.2914 -0.3966
 1589SOL     vw 6356   4.739   0.203   0.137  0.1817  0.9996  0.7086
 1590SOL     ow 6357   2.029   1.290   3.527 -0.0625  0.1083  0.0462
 1590SOL     hw 6358   1.955   1.293   3.588 -0.4409  0.7814 -0.4322
 1590SOL     hw 6359   2.054   1.198   3.525 -1.0515 -0.1767  0.0334
 1590SOL     vw 6360   2.022   1.278   3.535 -0.2429  0.1596 -0.0187
 1591SOL     ow 6361   1.204   5.708   0.990  0.7405  0.1663 -0.2431
 1591SOL     hw 6362   1.109   5.717   0.999  0.5596 -2.0969  0.5551
 1591SOL     hw 6363   1.239   5.765   1.059 -0.0287  0.6370 -0.2156
 1591SOL     vw 6364   1.196   5.717   1.000  0.6151 -0.0703 -0.1342
 1592SOL     ow 6365   2.016   1.349   3.185  0.4477 -0.2826 -0.8848
 1592SOL     hw 6366   1.956   1.302   3.244 -2.6572  1.2436 -2.5558
 1592SOL     hw 6367   2.014   1.298   3.104  1.0777  0.0545 -1.1179
 1592SOL     vw 6368   2.008   1.336   3.182  0.1211 -0.0368 -1.1359
 1593SOL     ow 6369   3.683   3.010   6.100 -0.4232  0.1038  0.0110
 1593SOL     hw 6370   3.714   3.090   6.143  0.0514 -0.6715  1.1556
 1593SOL     hw 6371   3.700   2.940   6.163  0.3268 -1.1014 -1.4495
 1593SOL     vw 6372   3.690   3.011   6.114 -0.2618 -0.1575 -0.0308
 1594SOL     ow 6373   2.867   6.017   3.237 -0.1918 -0.4837  0.0903
 1594SOL     hw 6374   2.854   5.957   3.164  0.7684 -0.6616  0.0440
 1594SOL     hw 6375   2.910   5.964   3.304  0.7375  0.1508  0.0182
 1594SOL     vw 6376   2.871   6.002   3.236  0.0573 -0.4234  0.0746
 1595SOL     ow 6377   6.813   3.076   4.191  0.2933  0.4589  0.3126
 1595SOL     hw 6378   6.873   3.002   4.184 -1.8938 -1.3113 -1.1529
 1595SOL     hw 6379   6.728   3.036   4.209 -0.6585  2.7891  1.3600
 1595SOL     vw 6380   6.810   3.061   4.193 -0.1209  0.5327  0.2575
 1596SOL     ow 6381   5.097   0.828   0.421  0.1343  0.2428 -0.5691
 1596SOL     hw 6382   5.044   0.813   0.500  0.6761  0.5265 -0.1489
 1596SOL     hw 6383   5.187   0.813   0.449  0.3300  0.3075 -1.1491
 1596SOL     vw 6384   5.102   0.824   0.435  0.2315  0.2888 -0.5902
 1597SOL     ow 6385   6.717   5.759   5.842 -0.4620  0.6383 -0.8038
 1597SOL     hw 6386   6.795   5.815   5.845  0.2166 -0.3169  1.2889
 1597SOL     hw 6387   6.688   5.754   5.932 -0.1289 -2.8121 -0.7641
 1597SOL     vw 6388   6.723   5.766   5.854 -0.3285  0.0570 -0.5224
 1598SOL     ow 6389   2.558   6.105   2.701  0.4001 -0.3813 -0.6211
 1598SOL     hw 6390   2.617   6.074   2.633  1.1731  0.1115 -0.1858
 1598SOL     hw 6391   2.615   6.142   2.768 -0.4425  1.5553 -0.8899
 1598SOL     vw 6392   2.573   6.106   2.701  0.3909 -0.0608 -0.5991
 1599SOL     ow 6393   1.478   1.120   4.173  0.5488  0.0738 -0.4940
 1599SOL     hw 6394   1.546   1.130   4.107  0.8530  2.4371  0.1009
 1599SOL     hw 6395   1.518   1.151   4.254 -0.7679  0.1473  0.1682
 1599SOL     vw 6396   1.492   1.125   4.175  0.4152  0.3953 -0.3281
 1600SOL     ow 6397   1.441   2.321   2.414  0.4497 -0.1447 -0.2273
 1600SOL     hw 6398   1.441   2.367   2.330 -1.3495  2.4420  1.0233
 1600SOL     hw 6399   1.458   2.390   2.478 -2.9382 -1.0217  1.8587
 1600SOL     vw 6400   1.443   2.336   2.411 -0.2347  0.0809  0.2130
 1601SOL     ow 6401   0.320   0.960   2.633  0.7310  0.3431  0.1024
 1601SOL     hw 6402   0.381   0.906   2.684 -0.3444 -0.6273  0.3953
 1601SOL     hw 6403   0.266   1.004   2.699  0.5806  0.5823 -0.1769
 1601SOL     vw 6404   0.321   0.959   2.648  0.5692  0.2466  0.1042
 1602SOL     ow 6405   0.805   0.316   5.565  0.7031  0.5672 -0.2012
 1602SOL     hw 6406   0.775   0.405   5.584  1.8220  1.1056 -0.8580
 1602SOL     hw 6407   0.810   0.274   5.650  0.6640  1.2923  0.1680
 1602SOL     vw 6408   0.801   0.322   5.578  0.8456  0.7339 -0.2389
 1603SOL     ow 6409   2.787   6.292   3.625  0.1603  0.0409  0.6856
 1603SOL     hw 6410   2.878   6.263   3.618 -0.3987 -1.6608  0.0225
 1603SOL     hw 6411   2.793   6.384   3.651  2.1749  1.1396 -2.9290
 1603SOL     vw 6412   2.800   6.300   3.627  0.3524 -0.0386  0.1212
 1604SOL     ow 6413   7.099   1.187   6.472 -0.0281 -0.1142  0.1529
 1604SOL     hw 6414   7.131   1.197   6.383  1.2629 -0.8870  0.5092
 1604SOL     hw 6415   7.046   1.265   6.488 -0.9168 -0.3172 -1.5350
 1604SOL     vw 6416   7.096   1.199   6.462  0.0250 -0.2429 -0.0226
 1605SOL     ow 6417   4.503   6.579   4.728 -0.5338 -0.1266 -0.1571
 1605SOL     hw 6418   4.581   6.602   4.677 -1.2792  1.3474 -0.6957
 1605SOL     hw 6419   4.529   6.502   4.778  1.0085 -0.1490 -0.9267
 1605SOL     vw 6420   4.517   6.572   4.728 -0.4287  0.0648 -0.3300
 1606SOL     ow 6421   1.038   0.962   5.921 -0.4101  0.0547 -0.0968
 1606SOL     hw 6422   1.115   0.916   5.953 -0.6213  0.5621  1.2147
 1606SOL     hw 6423   1.001   0.904   5.854  0.0982 -1.0240  0.5382
 1606SOL     vw 6424   1.043   0.948   5.916 -0.3709 -0.0207  0.1597
 1607SOL     ow 6425   6.009   2.647   0.134  0.3415 -0.4739 -0.2214
 1607SOL     hw 6426   5.999   2.666   0.041 -0.8473  0.9680  0.1598
 1607SOL     hw 6427   5.974   2.559   0.146 -0.8455 -0.1068 -0.9081
 1607SOL     vw 6428   6.003   2.638   0.123  0.0279 -0.2353 -0.2617
 1608SOL     ow 6429   2.921   2.930   5.967 -0.0664  0.0737  0.0863
 1608SOL     hw 6430   2.886   2.942   6.055 -0.8797  0.3139 -0.2647
 1608SOL     hw 6431   2.906   3.013   5.923 -0.9308 -0.4705 -0.7029
 1608SOL     vw 6432   2.915   2.942   5.972 -0.2877  0.0337 -0.0641
 1609SOL     ow 6433   4.934   4.601   2.777  0.5073  0.2723 -0.1934
 1609SOL     hw 6434   4.957   4.692   2.759  1.8921  0.2269  1.1818
 1609SOL     hw 6435   4.931   4.559   2.691  1.7570  1.1850 -0.7011
 1609SOL     vw 6436   4.936   4.608   2.763  0.8550  0.3867 -0.0788
 1610SOL     ow 6437   6.237   6.605   0.287 -0.0148  0.6199  0.7044
 1610SOL     hw 6438   6.210   6.545   0.217  1.7330  0.0819  0.4429
 1610SOL     hw 6439   6.170   6.595   0.355 -1.1735  0.3658 -0.4466
 1610SOL     vw 6440   6.225   6.595   0.287  0.0632  0.5155  0.5181
 1611SOL     ow 6441   1.011   7.114   5.435 -0.0332 -0.6456 -0.4942
 1611SOL     hw 6442   1.054   7.189   5.474 -1.1029  0.5121 -1.4489
 1611SOL     hw 6443   0.951   7.082   5.502  1.3805 -1.5184  0.4002
 1611SOL     vw 6444   1.009   7.119   5.449  0.0123 -0.6080 -0.5021
 1612SOL     ow 6445   2.923   6.285   4.954 -0.0720  0.0559  0.3939
 1612SOL     hw 6446   3.000   6.281   4.897 -0.9374 -1.1468 -0.7450
 1612SOL     hw 6447   2.948   6.233   5.031 -0.2701 -1.6999 -0.6762
 1612SOL     vw 6448   2.937   6.277   4.957 -0.2123 -0.3347  0.1025
 1613SOL     ow 6449   2.231   3.085   3.010 -0.4665 -0.1891  0.1680
 1613SOL     hw 6450   2.152   3.137   3.000 -1.3437 -1.3565  0.8231
 1613SOL     hw 6451   2.284   3.133   3.074 -0.7796  0.4451 -0.0460
 1613SOL     vw 6452   2.228   3.098   3.017 -0.6235 -0.2594  0.2263
 1614SOL     ow 6453   4.765   1.926   2.038 -0.8088  0.2328  0.3894
 1614SOL     hw 6454   4.769   2.021   2.050 -2.0842  0.4682 -0.7298
 1614SOL     hw 6455   4.755   1.914   1.944 -0.0996 -1.0581  0.4504
 1614SOL     vw 6456   4.764   1.937   2.027 -0.8836  0.0935  0.2499
 1615SOL     ow 6457   0.745   5.871   0.711 -0.1181 -0.1077  0.4090
 1615SOL     hw 6458   0.721   5.847   0.800  2.7862  0.7753  1.5568
 1615SOL     hw 6459   0.800   5.799   0.680  0.0134  0.2217 -0.1456
 1615SOL     vw 6460   0.749   5.859   0.719  0.2824  0.0525  0.4872
 1616SOL     ow 6461   3.320   4.522   3.450  0.3697 -0.6161  0.0119
 1616SOL     hw 6462   3.400   4.494   3.494  0.5831 -1.1993 -0.7123
 1616SOL     hw 6463   3.312   4.615   3.470 -0.6959 -1.2257  3.0499
 1616SOL     vw 6464   3.330   4.530   3.458  0.2573 -0.7737  0.3173
 1617SOL     ow 6465   2.171   4.444   6.263 -0.7150 -1.1648 -0.2844
 1617SOL     hw 6466   2.242   4.481   6.316 -0.7105 -1.7888  0.1566
 1617SOL     hw 6467   2.215   4.383   6.203 -0.8888 -1.7045  0.1264
 1617SOL     vw 6468   2.186   4.441   6.262 -0.7373 -1.3182 -0.1721
 1618SOL     ow 6469   5.995   1.083   1.906  0.2081 -0.3606 -0.0037
 1618SOL     hw 6470   6.041   1.058   1.825  0.5034  0.6838 -0.1771
 1618SOL     hw 6471   5.998   1.004   1.960  1.7949 -0.4815 -0.2065
 1618SOL     vw 6472   6.002   1.069   1.902  0.4566 -0.2387 -0.0533
 1619SOL     ow 6473   6.143   5.652   2.041 -0.5943 -0.1606 -0.2849
 1619SOL     hw 6474   6.136   5.570   1.992 -0.2487  0.1493 -0.8664
 1619SOL     hw 6475   6.077   5.709   2.003 -0.8281 -0.1618  0.1130
 1619SOL     vw 6476   6.133   5.649   2.029 -0.5798 -0.1197 -0.3092
 1620SOL     ow 6477   5.349   0.139   1.606 -0.4410 -0.5632  0.2172
 1620SOL     hw 6478   5.346   0.180   1.520 -0.8744 -1.1065 -0.0242
 1620SOL     hw 6479   5.267   0.165   1.648 -0.5733 -0.9190  0.1816
 1620SOL     vw 6480   5.338   0.148   1.600 -0.5159 -0.6818  0.1806
 1621SOL     ow 6481   1.960   0.857   5.873 -0.4720  0.3081  0.0606
 1621SOL     hw 6482   1.904   0.829   5.801  0.8204  1.3273 -1.3852
 1621SOL     hw 6483   2.018   0.923   5.835  0.8563  0.2202  1.8105
 1621SOL     vw 6484   1.960   0.862   5.859 -0.1262  0.4310  0.1004
 1622SOL     ow 6485   4.400   3.436   6.010  0.0778 -0.1093  0.3088
 1622SOL     hw 6486   4.414   3.530   6.023 -0.7061 -0.0663  0.9187
 1622SOL     hw 6487   4.304   3.426   6.008  0.1043 -1.0833  1.8260
 1622SOL     vw 6488   4.389   3.447   6.012 -0.0222 -0.2321  0.5896
 1623SOL     ow 6489   5.495   4.256   5.441  0.3469 -0.1202  0.5317
 1623SOL     hw 6490   5.473   4.281   5.531  0.2853 -0.0457  0.4964
 1623SOL     hw 6491   5.506   4.339   5.394  1.3967 -0.1486  0.7099
 1623SOL     vw 6492   5.493   4.270   5.447  0.4773 -0.1140  0.5505
 1624SOL     ow 6493   4.205   5.444   6.788 -0.2294 -0.3139  0.4266
 1624SOL     hw 6494   4.217   5.412   6.877  0.1308 -0.4110  0.3445
 1624SOL     hw 6495   4.196   5.365   6.735 -0.1236 -0.2644  0.3338
 1624SOL     vw 6496   4.206   5.430   6.793 -0.1676 -0.3202  0.4039
 1625SOL     ow 6497   4.119   3.484   6.079 -0.3456  0.3353 -0.0643
 1625SOL     hw 6498   4.067   3.461   6.155  0.8735 -0.0247  0.6899
 1625SOL     hw 6499   4.145   3.575   6.094 -1.1945  0.6975 -0.7116
 1625SOL     vw 6500   4.116   3.493   6.091 -0.2968  0.3355 -0.0501
 1626SOL     ow 6501   3.525   0.127   0.291 -0.6015 -0.3592 -0.2941
 1626SOL     hw 6502   3.437   0.138   0.328 -0.2590  1.1710  0.1328
 1626SOL     hw 6503   3.555   0.216   0.273 -0.3826 -0.9547 -3.4837
 1626SOL     vw 6504   3.517   0.140   0.293 -0.5274 -0.2359 -0.6586
 1627SOL     ow 6505   0.920   1.555   6.316 -0.5801  0.3694  0.6293
 1627SOL     hw 6506   0.849   1.600   6.269 -0.5728 -0.6605 -0.4321
 1627SOL     hw 6507   0.974   1.625   6.351  0.0936  1.2426 -1.9736
 1627SOL     vw 6508   0.918   1.570   6.314 -0.4903  0.3487  0.1457
 1628SOL     ow 6509   1.325   0.822   2.476  1.0108  0.3861  0.2524
 1628SOL     hw 6510   1.388   0.751   2.487 -0.4481 -1.0155 -0.0129
 1628SOL     hw 6511   1.300   0.818   2.384 -0.7321 -0.2745  0.7036
 1628SOL     vw 6512   1.330   0.812   2.466  0.5883  0.1140  0.2769
 1629SOL     ow 6513   6.040   6.400   1.007  0.3389 -0.5574 -0.1140
 1629SOL     hw 6514   6.001   6.341   0.943  2.7797 -1.2601 -1.0985
 1629SOL     hw 6515   6.092   6.342   1.064  1.7557  0.4851 -0.3014
 1629SOL     vw 6516   6.042   6.384   1.006  0.8481 -0.5124 -0.2687
 1630SOL     ow 6517   1.796   3.030   1.647 -0.0632 -0.1944  0.6936
 1630SOL     hw 6518   1.885   3.064   1.635  0.3117 -0.9622  1.2666
 1630SOL     hw 6519   1.747   3.067   1.573  1.1048 -1.0469 -0.5443
 1630SOL     vw 6520   1.802   3.040   1.635  0.1404 -0.4082  0.6059
 1631SOL     ow 6521   3.751   2.772   4.410  0.2518 -0.2535 -0.5831
 1631SOL     hw 6522   3.656   2.782   4.416  0.4257  1.3615  0.0572
 1631SOL     hw 6523   3.774   2.810   4.325  0.3632 -0.0998 -0.4876
 1631SOL     vw 6524   3.741   2.779   4.400  0.2893 -0.0201 -0.4864
 1632SOL     ow 6525   3.883   6.895   3.753  0.2738 -0.5094  0.7778
 1632SOL     hw 6526   3.911   6.984   3.774 -0.3177 -0.5573  1.8286
 1632SOL     hw 6527   3.959   6.855   3.711 -0.1307  1.1329 -1.6840
 1632SOL     vw 6528   3.897   6.901   3.750  0.1423 -0.2990  0.5918
 1633SOL     ow 6529   0.215   5.820   0.580 -0.3758  0.1851 -0.0864
 1633SOL     hw 6530   0.133   5.843   0.623  0.0637  1.4435  0.1274
 1633SOL     hw 6531   0.251   5.903   0.549  0.3783 -0.4411 -0.9934
 1633SOL     vw 6532   0.209   5.834   0.581 -0.2183  0.2687 -0.1778
 1634SOL     ow 6533   2.411   2.136   0.123 -0.3022 -0.3095  0.0966
 1634SOL     hw 6534   2.348   2.064   0.126 -1.2384  0.4183 -1.2634
 1634SOL     hw 6535   2.414   2.168   0.213 -1.7191 -0.5116  0.2427
 1634SOL     vw 6536   2.403   2.131   0.135 -0.6126 -0.2402 -0.0636
 1635SOL     ow 6537   4.231   2.120   6.442 -0.2788 -0.2773  0.6748
 1635SOL     hw 6538   4.165   2.069   6.396  0.4521 -2.0540  1.4914
 1635SOL     hw 6539   4.289   2.152   6.373  0.0335 -1.7631  0.2091
 1635SOL     vw 6540   4.230   2.117   6.427 -0.1411 -0.7077  0.7215
 1636SOL     ow 6541   4.773   6.097   3.233  0.6386  0.0576 -0.3123
 1636SOL     hw 6542   4.810   6.054   3.311 -2.9109  1.2909  2.3358
 1636SOL     hw 6543   4.735   6.026   3.182  1.9870 -0.6623 -0.3508
 1636SOL     vw 6544   4.773   6.082   3.237  0.3486  0.1256  0.0318
 1637SOL     ow 6545   0.880   1.144   3.327 -0.1886  0.3540  0.4537
 1637SOL     hw 6546   0.807   1.191   3.368  0.3667  1.3056  0.3806
 1637SOL     hw 6547   0.917   1.090   3.397 -1.2620 -0.5393  0.3679
 1637SOL     vw 6548   0.875   1.143   3.342 -0.2570  0.3617  0.4327
 1638SOL     ow 6549   1.306   2.763   6.828 -0.4844 -0.2276  0.2212
 1638SOL     hw 6550   1.237   2.814   6.872 -1.2592 -0.7547 -0.3471
 1638SOL     hw 6551   1.265   2.679   6.810  0.2783 -0.5070 -0.2546
 1638SOL     vw 6552   1.291   2.759   6.832 -0.4860 -0.3339  0.0830
 1639SOL     ow 6553   2.508   5.431   1.530  0.2761  0.0591  0.1312
 1639SOL     hw 6554   2.523   5.385   1.613 -1.3013 -0.1241  0.3360
 1639SOL     hw 6555   2.466   5.513   1.555 -1.1807 -0.4592 -0.5373
 1639SOL     vw 6556   2.504   5.436   1.544 -0.1242 -0.0334  0.0700
 1640SOL     ow 6557   0.910   2.094   6.751  0.2028 -1.0072  0.8644
 1640SOL     hw 6558   0.855   2.116   6.676 -1.3984  2.2948  2.7626
 1640SOL     hw 6559   0.986   2.050   6.714 -0.8961 -0.2774 -2.5484
 1640SOL     vw 6560   0.913   2.091   6.736 -0.1535 -0.4753  0.6642
 1641SOL     ow 6561   3.192   1.570   1.685 -0.6554  0.4491 -0.5169
 1641SOL     hw 6562   3.190   1.600   1.776  0.9161  0.4394 -0.4495
 1641SOL     hw 6563   3.128   1.625   1.640  0.7929  2.6698 -0.0321
 1641SOL     vw 6564   3.183   1.581   1.691 -0.2568  0.7408 -0.4441
 1642SOL     ow 6565   5.492   1.748   0.990  0.1948 -0.0119  0.0064
 1642SOL     hw 6566   5.464   1.737   1.081 -0.8677 -0.5604 -0.3749
 1642SOL     hw 6567   5.447   1.827   0.960  0.8807  0.4133  0.0746
 1642SOL     vw 6568   5.483   1.757   0.998  0.1452 -0.0281 -0.0349
 1643SOL     ow 6569   7.094   2.925   2.134 -0.0661  0.3109 -0.7349
 1643SOL     hw 6570   7.109   2.898   2.043 -0.8596  1.4133 -1.2193
 1643SOL     hw 6571   7.000   2.942   2.138 -0.0899 -0.0372  0.3975
 1643SOL     vw 6572   7.083   2.924   2.122 -0.1740  0.4104 -0.6496
 1644SOL     ow 6573   5.267   0.376   5.906  0.3013  0.7844  0.9494
 1644SOL     hw 6574   5.228   0.464   5.905 -0.8864  0.3496  2.6154
 1644SOL     hw 6575   5.361   0.392   5.906  0.1119  2.0675  1.0360
 1644SOL     vw 6576   5.274   0.390   5.906  0.1194  0.8963  1.1806
 1645SOL     ow 6577   2.780   3.771   3.516 -0.0114  0.2792  0.3322
 1645SOL     hw 6578   2.783   3.706   3.446 -0.3590 -0.4383  0.9604
 1645SOL     hw 6579   2.835   3.843   3.485  0.8484 -0.5570 -0.1430
 1645SOL     vw 6580   2.788   3.772   3.503  0.0561  0.0741  0.3524
 1646SOL     ow 6581   2.240   4.537   3.633 -0.0462 -0.0767  0.2823
 1646SOL     hw 6582   2.187   4.471   3.588  0.6078 -1.7721  1.8799
 1646SOL     hw 6583   2.330   4.518   3.605  0.1775 -0.0865  0.9910
 1646SOL     vw 6584   2.245   4.525   3.623  0.0696 -0.3016  0.5866
 1647SOL     ow 6585   0.312   1.712   0.676 -0.3934  0.7133 -0.1499
 1647SOL     hw 6586   0.320   1.738   0.768  1.8021  2.3093 -0.7004
 1647SOL     hw 6587   0.377   1.642   0.666 -0.9669  0.2121 -0.3828
 1647SOL     vw 6588   0.322   1.706   0.687 -0.1794  0.8578 -0.2533
 1648SOL     ow 6589   2.439   2.393   5.581 -0.4385  0.6417 -0.1381
 1648SOL     hw 6590   2.476   2.405   5.494 -0.8612 -0.5620 -0.5050
 1648SOL     hw 6591   2.429   2.482   5.616  1.2089  1.0655 -0.6785
 1648SOL     vw 6592   2.442   2.406   5.575 -0.2769  0.5387 -0.2577
 1649SOL     ow 6593   4.159   0.970   3.918 -0.2730 -0.2471 -0.0904
 1649SOL     hw 6594   4.201   1.047   3.956  1.8008 -0.6138 -1.4404
 1649SOL     hw 6595   4.178   0.977   3.824 -0.1574 -2.3114 -0.2623
 1649SOL     vw 6596   4.167   0.981   3.911  0.0160 -0.5678 -0.2912
 1650SOL     ow 6597   6.822   0.810   5.064  0.3866  0.2362 -0.1093
 1650SOL     hw 6598   6.811   0.735   5.005 -1.7267 -0.2457  0.7862
 1650SOL     hw 6599   6.776   0.882   5.020  3.4885  1.4710 -1.5793
 1650SOL     vw 6600   6.814   0.809   5.050  0.5169  0.3355 -0.1853
 1651SOL     ow 6601   3.364   3.026   2.089 -0.3580  0.4664 -0.0766
 1651SOL     hw 6602   3.449   3.059   2.120  0.2799 -1.8245  0.8637
 1651SOL     hw 6603   3.354   3.065   2.002  2.4768 -0.4205 -0.9247
 1651SOL     vw 6604   3.374   3.036   2.081  0.1001  0.0472 -0.0644
 1652SOL     ow 6605   1.508   3.817   6.156  0.3398  0.5503 -0.3040
 1652SOL     hw 6606   1.574   3.750   6.140  1.4226  1.5151  0.0340
 1652SOL     hw 6607   1.461   3.825   6.073  1.4276  0.7024 -0.9194
 1652SOL     vw 6608   1.510   3.809   6.143  0.6261  0.6976 -0.3405
 1653SOL     ow 6609   0.953   1.674   4.486  0.1188 -0.6293 -0.0246
 1653SOL     hw 6610   0.910   1.685   4.570  0.6966  0.3101  0.1596
 1653SOL     hw 6611   0.922   1.747   4.433  1.3329 -0.0418  0.0513
 1653SOL     vw 6612   0.943   1.685   4.490  0.3552 -0.4278  0.0098
 1654SOL     ow 6613   5.439   5.804   5.995  0.3258  0.0865  0.0228
 1654SOL     hw 6614   5.359   5.778   6.040  0.7472  0.6180  1.1135
 1654SOL     hw 6615   5.483   5.863   6.056  0.3401  1.8152 -1.5709
 1654SOL     vw 6616   5.434   5.808   6.009  0.3831  0.3846 -0.0434
 1655SOL     ow 6617   5.660   5.620   1.139 -0.4336  0.1140  0.0321
 1655SOL     hw 6618   5.669   5.537   1.186 -0.4695 -0.5136 -1.0490
 1655SOL     hw 6619   5.741   5.667   1.157  0.6586 -1.1761 -1.2820
 1655SOL     vw 6620   5.672   5.615   1.148 -0.2944 -0.1390 -0.2840
 1656SOL     ow 6621   5.655   5.747   5.817  0.0613  0.2738 -0.5766
 1656SOL     hw 6622   5.714   5.679   5.781 -0.9618 -0.2738 -1.2766
 1656SOL     hw 6623   5.681   5.755   5.909 -0.5629 -1.9374 -0.1538
 1656SOL     vw 6624   5.666   5.739   5.824 -0.1562 -0.0901 -0.6130
 1657SOL     ow 6625   6.116   6.956   1.938  0.4339 -0.4094 -0.1374
 1657SOL     hw 6626   6.177   6.983   1.869  0.2163 -0.3391 -0.3020
 1657SOL     hw 6627   6.130   6.861   1.945  0.8126 -0.3395  0.0693
 1657SOL     vw 6628   6.126   6.947   1.930  0.4549 -0.3908 -0.1318
 1658SOL     ow 6629   1.068   7.002   1.747 -0.3122 -0.2082  0.1670
 1658SOL     hw 6630   1.137   7.057   1.710 -0.1278 -0.7594 -0.3134
 1658SOL     hw 6631   0.990   7.024   1.696 -0.4345  0.2025  0.5200
 1658SOL     vw 6632   1.066   7.012   1.735 -0.3039 -0.2270  0.1502
 1659SOL     ow 6633   3.639   6.666   3.739 -0.2149 -0.1668 -0.1308
 1659SOL     hw 6634   3.645   6.585   3.789  0.0582 -0.3245 -0.4159
 1659SOL     hw 6635   3.652   6.640   3.648 -0.1807  0.1875 -0.2305
 1659SOL     vw 6636   3.642   6.652   3.733 -0.1744 -0.1411 -0.1814
 1660SOL     ow 6637   7.012   2.189   6.709  0.5163  0.0988  0.6660
 1660SOL     hw 6638   7.060   2.106   6.699  1.3368  0.6718 -0.3400
 1660SOL     hw 6639   6.922   2.162   6.729  0.2044 -1.1006 -1.9343
 1660SOL     vw 6640   7.007   2.174   6.710  0.5834  0.0162  0.1903
 1661SOL     ow 6641   5.742   3.667   1.434 -0.0078 -0.2962 -0.2483
 1661SOL     hw 6642   5.806   3.733   1.407 -1.4493 -0.0967 -3.8539
 1661SOL     hw 6643   5.784   3.583   1.415  0.1583 -0.2591 -0.0444
 1661SOL     vw 6644   5.756   3.665   1.428 -0.1762 -0.2650 -0.6972
 1662SOL     ow 6645   0.984   2.778   3.512 -0.3143  0.0057  1.1527
 1662SOL     hw 6646   0.891   2.755   3.506 -0.4976  0.8418 -3.7169
 1662SOL     hw 6647   1.030   2.701   3.478  0.2857  1.1080 -0.6920
 1662SOL     vw 6648   0.978   2.765   3.507 -0.2593  0.2614  0.2668
 1663SOL     ow 6649   5.398   5.228   4.460 -0.2360 -0.4228 -0.4591
 1663SOL     hw 6650   5.454   5.220   4.383 -1.1014  1.1234 -1.3105
 1663SOL     hw 6651   5.318   5.181   4.437 -0.0581 -0.9492 -0.0266
 1663SOL     vw 6652   5.395   5.221   4.447 -0.3269 -0.2885 -0.5145
 1664SOL     ow 6653   2.449   6.468   3.525  0.9055  0.0356  0.1555
 1664SOL     hw 6654   2.513   6.455   3.595 -0.2872  1.8661  1.7002
 1664SOL     hw 6655   2.425   6.561   3.531 -1.0799 -0.3287 -1.0677
 1664SOL     vw 6656   2.454   6.479   3.535  0.4861  0.2291  0.1979
 1665SOL     ow 6657   3.676   1.164   6.024  0.1469  0.2639 -0.0273
 1665SOL     hw 6658   3.652   1.211   6.104 -1.1102 -2.6878  1.4886
 1665SOL     hw 6659   3.772   1.161   6.026  0.1395  0.1909  1.4300
 1665SOL     vw 6660   3.686   1.169   6.035 -0.0200 -0.1352  0.3650
 1666SOL     ow 6661   5.599   0.299   1.861 -0.4288  0.1734 -0.3666
 1666SOL     hw 6662   5.554   0.373   1.902  0.2284  0.4586 -0.1389
 1666SOL     hw 6663   5.583   0.311   1.767  0.8098  1.4090 -0.4579
 1666SOL     vw 6664   5.591   0.311   1.854 -0.1788  0.3741 -0.3486
 1667SOL     ow 6665   2.671   2.970   1.293  0.3436  0.1229  0.2021
 1667SOL     hw 6666   2.638   2.994   1.206 -0.2508  0.6509  0.5708
 1667SOL     hw 6667   2.610   2.903   1.324  0.2330  0.3399  0.4494
 1667SOL     vw 6668   2.659   2.964   1.286  0.2505  0.2214  0.2834
 1668SOL     ow 6669   7.080   1.811   1.288 -0.2988 -0.0290  0.5856
 1668SOL     hw 6670   7.073   1.717   1.271 -0.1024 -0.6091  3.2095
 1668SOL     hw 6671   7.172   1.831   1.273 -0.2557 -0.3533  0.4069
 1668SOL     vw 6672   7.091   1.801   1.284 -0.2673 -0.1484  0.9081
 1669SOL     ow 6673   0.720   3.658   4.845  0.3862 -0.1813 -0.1037
 1669SOL     hw 6674   0.731   3.659   4.941 -0.8944  2.2587  0.1034
 1669SOL     hw 6675   0.785   3.720   4.813 -0.0778  0.0181 -0.6738
 1669SOL     vw 6676   0.730   3.666   4.854  0.1560  0.1668 -0.1516
 1670SOL     ow 6677   0.753   1.435   4.401  0.2870 -0.0765  0.0748
 1670SOL     hw 6678   0.670   1.479   4.421  0.0644 -0.0308 -0.8882
 1670SOL     hw 6679   0.727   1.360   4.348  0.9483  0.7126 -1.4334
 1670SOL     vw 6680   0.738   1.431   4.397  0.3449  0.0337 -0.2511
 1671SOL     ow 6681   4.888   5.393   4.729 -0.0912 -0.0846 -0.0813
 1671SOL     hw 6682   4.914   5.353   4.812 -0.0901 -0.3374 -0.2014
 1671SOL     hw 6683   4.899   5.487   4.743  0.0647 -0.1362  0.1497
 1671SOL     vw 6684   4.893   5.400   4.742 -0.0708 -0.1247 -0.0665
 1672SOL     ow 6685   3.044   1.135   6.347 -0.5882 -0.1300  0.4877
 1672SOL     hw 6686   3.055   1.221   6.306  0.3232 -0.0895  0.8064
 1672SOL     hw 6687   3.004   1.081   6.279  0.7459 -0.0136 -0.4114
 1672SOL     vw 6688   3.040   1.139   6.333 -0.2918 -0.1092  0.4110
 1673SOL     ow 6689   0.137   1.208   6.753 -0.4142  0.2631  0.0966
 1673SOL     hw 6690   0.087   1.224   6.833  0.4872 -2.8148  1.4557
 1673SOL     hw 6691   0.194   1.284   6.745 -2.4970  2.0031  0.7006
 1673SOL     vw 6692   0.138   1.220   6.763 -0.5700  0.0865  0.3557
 1674SOL     ow 6693   4.679   2.590   2.465 -0.7729 -1.0369 -0.3434
 1674SOL     hw 6694   4.676   2.669   2.411 -1.8190 -1.5037 -0.9889
 1674SOL     hw 6695   4.757   2.543   2.435  0.4417  0.2140  0.7436
 1674SOL     vw 6696   4.689   2.594   2.454 -0.7505 -0.9334 -0.2850
 1675SOL     ow 6697   1.106   5.202   3.776 -0.5286 -0.4417  0.1474
 1675SOL     hw 6698   1.082   5.117   3.740  1.3930 -0.6138 -0.8600
 1675SOL     hw 6699   1.051   5.265   3.730 -0.6741 -0.9851 -0.4223
 1675SOL     vw 6700   1.096   5.199   3.765 -0.2943 -0.5360 -0.0607
 1676SOL     ow 6701   4.111   1.359   2.338  0.1624  0.3596 -0.6010
 1676SOL     hw 6702   4.141   1.391   2.253  0.0323  0.8082 -0.4781
 1676SOL     hw 6703   4.017   1.345   2.326  0.3546 -0.8047 -0.9111
 1676SOL     vw 6704   4.102   1.361   2.325  0.1707  0.2651 -0.6257
 1677SOL     ow 6705   1.196   5.132   3.342  0.2369 -0.6055  0.6239
 1677SOL     hw 6706   1.199   5.188   3.419 -0.0241 -2.0024  1.6966
 1677SOL     hw 6707   1.185   5.043   3.377 -1.0149 -1.1726 -1.0542
 1677SOL     vw 6708   1.195   5.127   3.357  0.0374 -0.8647  0.5440
 1678SOL     ow 6709   6.879   3.151   6.951 -0.4749  0.5897 -0.3154
 1678SOL     hw 6710   6.887   3.240   6.984 -0.1443  0.2243  0.6527
 1678SOL     hw 6711   6.787   3.143   6.924 -0.4226  1.3163 -0.7272
 1678SOL     vw 6712   6.868   3.162   6.952 -0.4244  0.6373 -0.2420
 1679SOL     ow 6713   3.934   6.796   5.000  0.3436  0.6453  0.6364
 1679SOL     hw 6714   3.875   6.868   5.024 -1.3854  0.1084 -1.6061
 1679SOL     hw 6715   4.008   6.839   4.957 -1.5485  1.1696 -2.4021
 1679SOL     vw 6716   3.936   6.811   4.997 -0.1341  0.6440 -0.0603
 1680SOL     ow 6717   3.056   4.761   3.157 -0.7970 -0.5474  0.8599
 1680SOL     hw 6718   3.124   4.807   3.107  1.3616 -2.6500  1.7096
 1680SOL     hw 6719   3.062   4.799   3.245 -2.0326  0.5147  0.5249
 1680SOL     vw 6720   3.066   4.772   3.162 -0.6753 -0.6843  0.9279
 1681SOL     ow 6721   5.090   3.401   3.714  0.6249  0.0468 -0.0014
 1681SOL     hw 6722   5.159   3.467   3.720  0.0478  0.5457  2.3537
 1681SOL     hw 6723   5.009   3.452   3.701  0.4366 -0.3706 -0.5005
 1681SOL     vw 6724   5.088   3.417   3.713  0.5238  0.0576  0.2434
 1682SOL     ow 6725   4.811   2.025   0.441  0.5215 -0.0376  0.3044
 1682SOL     hw 6726   4.808   1.987   0.354 -0.5857 -2.2830  1.2424
 1682SOL     hw 6727   4.858   1.961   0.494 -0.8737  0.1051  1.8292
 1682SOL     vw 6728   4.816   2.012   0.437  0.1912 -0.3151  0.6293
 1683SOL     ow 6729   4.096   3.342   5.829  0.2083 -0.1369 -0.2816
 1683SOL     hw 6730   4.035   3.269   5.823 -0.8897  0.7009  0.2977
 1683SOL     hw 6731   4.074   3.385   5.912  2.5750 -0.6517  0.7076
 1683SOL     vw 6732   4.085   3.338   5.839  0.3755 -0.0944 -0.0746
 1684SOL     ow 6733   5.419   5.840   4.271 -0.5900 -0.2652 -0.1501
 1684SOL     hw 6734   5.514   5.844   4.269 -0.5897 -0.5133 -0.6517
 1684SOL     hw 6735   5.398   5.833   4.364 -0.1663  0.6734  0.0306
 1684SOL     vw 6736   5.428   5.839   4.283 -0.5341 -0.1743 -0.1924
 1685SOL     ow 6737   5.430   2.445   5.715  0.3216 -0.5898 -0.2085
 1685SOL     hw 6738   5.486   2.398   5.653  2.3221 -0.7182  1.5793
 1685SOL     hw 6739   5.383   2.376   5.762 -0.8161 -0.5094 -1.1673
 1685SOL     vw 6740   5.431   2.430   5.713  0.4354 -0.5960 -0.0987
 1686SOL     ow 6741   5.812   5.177   4.665  0.4826 -0.0201  0.0008
 1686SOL     hw 6742   5.816   5.243   4.596  0.4255  0.0762  0.0915
 1686SOL     hw 6743   5.719   5.163   4.680  0.4807 -0.6014 -0.4811
 1686SOL     vw 6744   5.800   5.184   4.658  0.4747 -0.0842 -0.0510
 1687SOL     ow 6745   6.657   3.415   3.311 -0.6619  0.3243  0.3906
 1687SOL     hw 6746   6.570   3.431   3.349  0.4805  0.9960  2.9385
 1687SOL     hw 6747   6.645   3.338   3.257 -3.0785  1.0220 -0.2284
 1687SOL     vw 6748   6.644   3.407   3.309 -0.8299  0.5050  0.6452
 1688SOL     ow 6749   6.888   1.760   4.424  0.1152  0.0040 -0.2450
 1688SOL     hw 6750   6.871   1.789   4.334  0.4544  0.1906 -0.2516
 1688SOL     hw 6751   6.982   1.775   4.436  0.2789 -1.0062 -0.2130
 1688SOL     vw 6752   6.898   1.766   4.413  0.1817 -0.1047 -0.2418
 1689SOL     ow 6753   1.586   5.949   1.114 -0.1998 -0.6804  0.2400
 1689SOL     hw 6754   1.647   5.883   1.079  0.2852 -1.0293  1.6585
 1689SOL     hw 6755   1.567   5.918   1.202 -4.2820 -1.8407 -0.8126
 1689SOL     vw 6756   1.592   5.936   1.121 -0.6744 -0.8795  0.2882
 1690SOL     ow 6757   5.215   4.053   4.521  0.5362 -0.8302 -0.5081
 1690SOL     hw 6758   5.289   4.011   4.564  0.8981 -0.9563 -1.2336
 1690SOL     hw 6759   5.255   4.112   4.457  0.0163 -0.3268 -0.3781
 1690SOL     vw 6760   5.230   4.055   4.518  0.5155 -0.7806 -0.5865
 1691SOL     ow 6761   6.004   3.813   4.015  0.1298 -0.0153  0.0763
 1691SOL     hw 6762   6.041   3.869   3.947 -3.9727  0.9326 -1.7134
 1691SOL     hw 6763   6.005   3.725   3.977  0.6914 -0.0240  0.1133
 1691SOL     vw 6764   6.009   3.808   4.001 -0.3371  0.1086 -0.1550
 1692SOL     ow 6765   3.495   2.476   2.735 -0.0815 -0.1546 -0.2566
 1692SOL     hw 6766   3.509   2.429   2.817  0.5895 -0.7634 -0.7045
 1692SOL     hw 6767   3.416   2.529   2.750 -0.0801 -0.4150  0.7023
 1692SOL     vw 6768   3.486   2.476   2.747  0.0073 -0.2692 -0.1892
 1693SOL     ow 6769   3.221   4.939   3.024 -0.2026 -0.0482  0.0708
 1693SOL     hw 6770   3.267   4.931   2.941 -0.1484 -1.1977  0.1897
 1693SOL     hw 6771   3.219   5.033   3.042 -1.1704  0.3291 -1.7555
 1693SOL     vw 6772   3.227   4.950   3.015 -0.3232 -0.1497 -0.1545
 1694SOL     ow 6773   5.975   0.949   6.230 -0.2157  0.4216 -0.2330
 1694SOL     hw 6774   5.961   0.861   6.196  0.1546 -0.2965  1.3869
 1694SOL     hw 6775   5.886   0.984   6.244 -0.3909  0.9587 -2.3739
 1694SOL     vw 6776   5.961   0.942   6.227 -0.1898  0.3977 -0.3018
 1695SOL     ow 6777   5.537   3.983   5.511  0.3729 -0.5431  0.6335
 1695SOL     hw 6778   5.449   3.980   5.549 -0.7640 -1.4336 -1.8872
 1695SOL     hw 6779   5.583   3.909   5.551 -0.8876 -1.6584  0.0787
 1695SOL     vw 6780   5.531   3.973   5.521  0.0570 -0.8078  0.2279
 1696SOL     ow 6781   0.682   2.751   2.184 -0.1586 -0.0175 -0.2375
 1696SOL     hw 6782   0.694   2.775   2.276 -0.0075 -1.7325  0.2154
 1696SOL     hw 6783   0.703   2.832   2.136  1.6174  0.4095  1.1364
 1696SOL     vw 6784   0.687   2.765   2.190  0.0956 -0.1874  0.0033
 1697SOL     ow 6785   2.916   4.343   2.752 -0.6431 -0.1677  0.1018
 1697SOL     hw 6786   2.957   4.276   2.697 -1.3559 -0.0176 -0.6357
 1697SOL     hw 6787   2.944   4.322   2.841  3.0879  1.3614 -0.5290
 1697SOL     vw 6788   2.925   4.331   2.756 -0.2449  0.0539 -0.0787
 1698SOL     ow 6789   6.288   0.071   0.239  0.2879  0.0033 -0.1379
 1698SOL     hw 6790   6.329   0.027   0.313  0.8024 -0.1449 -0.5083
 1698SOL     hw 6791   6.252   0.152   0.277  0.9899  0.1781  0.1762
 1698SOL     vw 6792   6.288   0.076   0.254  0.4485  0.0068 -0.1453
 1699SOL     ow 6793   3.539   2.766   4.581  0.4901  0.1988 -0.2902
 1699SOL     hw 6794   3.472   2.748   4.647  1.9174 -0.5429  1.0027
 1699SOL     hw 6795   3.506   2.843   4.534 -0.9083  0.2917  0.7760
 1699SOL     vw 6796   3.526   2.774   4.583  0.4939  0.1131  0.0210
 1700SOL     ow 6797   1.544   1.764   6.075  0.1350  0.2813  0.1790
 1700SOL     hw 6798   1.637   1.776   6.059  0.2004 -1.2930 -0.7973
 1700SOL     hw 6799   1.518   1.841   6.125  2.0254  0.5599  0.7802
 1700SOL     vw 6800   1.553   1.776   6.079  0.3930  0.1103  0.1295
 1701SOL     ow 6801   3.353   0.087   4.903 -0.5954 -0.1594 -0.2897
 1701SOL     hw 6802   3.372   0.111   4.812 -0.5259 -0.8586 -0.4619
 1701SOL     hw 6803   3.382  -0.004   4.910 -2.8864 -0.9263 -0.2455
 1701SOL     vw 6804   3.360   0.078   4.892 -0.8886 -0.3529 -0.3066
 1702SOL     ow 6805   6.566   0.447   6.770 -0.0657  0.1483  0.6173
 1702SOL     hw 6806   6.486   0.456   6.718  1.2910 -1.6323 -1.9892
 1702SOL     hw 6807   6.534   0.422   6.857 -2.3548 -1.1133 -0.4726
 1702SOL     vw 6808   6.551   0.445   6.775 -0.1886 -0.2531  0.1295
 1703SOL     ow 6809   3.635   4.828   5.527 -0.1492 -0.4062 -0.3403
 1703SOL     hw 6810   3.558   4.822   5.583  1.2521 -2.0077  1.5452
 1703SOL     hw 6811   3.645   4.921   5.509 -0.7573  0.1657  2.0095
 1703SOL     vw 6812   3.627   4.839   5.532 -0.0446 -0.5419  0.2184
 1704SOL     ow 6813   5.502   2.726   5.592  0.0495 -0.6176  0.0821
 1704SOL     hw 6814   5.593   2.698   5.594 -0.5926 -3.0457 -0.7640
 1704SOL     hw 6815   5.504   2.813   5.553  2.0693 -0.0944  1.2142
 1704SOL     vw 6816   5.514   2.734   5.587  0.2315 -0.8689  0.1197
 1705SOL     ow 6817   3.125   0.266   1.767  0.9780  0.2755 -0.4648
 1705SOL     hw 6818   3.178   0.212   1.709  0.5027  0.0482 -0.6839
 1705SOL     hw 6819   3.065   0.313   1.710 -1.0623 -1.6486 -0.0230
 1705SOL     vw 6820   3.124   0.265   1.752  0.6461 -0.0083 -0.4354
 1706SOL     ow 6821   4.689   1.599   2.023  0.5297 -0.3914  0.0171
 1706SOL     hw 6822   4.745   1.547   1.964 -0.9038 -1.5055 -0.4178
 1706SOL     hw 6823   4.600   1.583   1.991 -0.0440  1.4705  0.6012
 1706SOL     vw 6824   4.685   1.590   2.011  0.2646 -0.2928  0.0368
 1707SOL     ow 6825   2.203   4.398   5.189 -0.1395  0.2079 -0.2185
 1707SOL     hw 6826   2.230   4.339   5.260  0.5224  0.6378 -0.1129
 1707SOL     hw 6827   2.216   4.347   5.109 -1.1453 -0.3801 -0.0361
 1707SOL     vw 6828   2.208   4.383   5.188 -0.1847  0.1869 -0.1807
 1708SOL     ow 6829   3.261   2.993   2.920 -0.3176  0.3291  0.0403
 1708SOL     hw 6830   3.250   2.952   3.006 -1.2630  0.1621 -0.1567
 1708SOL     hw 6831   3.232   3.083   2.932 -1.0076  0.1480 -0.2440
 1708SOL     vw 6832   3.256   3.000   2.933 -0.5332  0.2831 -0.0232
 1709SOL     ow 6833   4.695   5.300   6.392  0.3730 -0.5148  0.5542
 1709SOL     hw 6834   4.736   5.293   6.478 -0.5178 -0.6724  0.9817
 1709SOL     hw 6835   4.632   5.227   6.389  0.6236 -0.7102 -0.3609
 1709SOL     vw 6836   4.692   5.289   6.403  0.2882 -0.5612  0.4900
 1710SOL     ow 6837   6.336   4.209   2.671  0.0681 -0.3337  0.0530
 1710SOL     hw 6838   6.292   4.262   2.737  0.9432 -0.6087  0.8791
 1710SOL     hw 6839   6.267   4.154   2.634 -0.7373  0.9280 -0.3892
 1710SOL     vw 6840   6.321   4.209   2.675  0.0772 -0.2036  0.1038
 1711SOL     ow 6841   1.710   2.709   1.680 -0.2081 -0.5350  0.3641
 1711SOL     hw 6842   1.748   2.623   1.695  0.2694 -0.6230 -1.2288
 1711SOL     hw 6843   1.615   2.694   1.680 -0.1259 -1.0666  0.0159
 1711SOL     vw 6844   1.703   2.696   1.682 -0.1342 -0.6168  0.1080
 1712SOL     ow 6845   0.824   6.098   5.688 -0.0778  0.5571 -0.0118
 1712SOL     hw 6846   0.787   6.034   5.627  0.4260 -1.2006  1.4286
 1712SOL     hw 6847   0.755   6.164   5.698 -1.8289 -1.2304  0.5400
 1712SOL     vw 6848   0.810   6.098   5.682 -0.2423  0.0894  0.2511
 1713SOL     ow 6849   2.406   0.124   1.403  0.5844 -0.7282 -0.4310
 1713SOL     hw 6850   2.483   0.136   1.348  0.2794 -0.8748 -0.9021
 1713SOL     hw 6851   2.381   0.033   1.388  2.0813 -1.6392  2.0425
 1713SOL     vw 6852   2.413   0.113   1.394  0.7415 -0.8678 -0.1668
 1714SOL     ow 6853   4.738   1.439   3.589 -0.0821  0.3884 -0.4371
 1714SOL     hw 6854   4.673   1.499   3.625  1.3842  1.7939 -0.0015
 1714SOL     hw 6855   4.777   1.487   3.516  1.4083  0.1731  0.1770
 1714SOL     vw 6856   4.735   1.453   3.584  0.3080  0.5454 -0.2985
 1715SOL     ow 6857   6.867   5.091   2.720 -0.1659  0.1707  0.2458
 1715SOL     hw 6858   6.846   4.999   2.735  0.8882 -0.0858  0.2764
 1715SOL     hw 6859   6.931   5.112   2.788  0.9223  0.4258 -0.8180
 1715SOL     vw 6860   6.873   5.082   2.731  0.1168  0.1705  0.1094
 1716SOL     ow 6861   6.348   5.959   2.708 -0.0941  0.3894  0.3189
 1716SOL     hw 6862   6.283   6.019   2.671 -0.3535  0.5114  0.9652
 1716SOL     hw 6863   6.430   6.007   2.705 -0.1704  0.5100  0.1768
 1716SOL     vw 6864   6.350   5.973   2.703 -0.1385  0.4210  0.3853
 1717SOL     ow 6865   0.283   4.110   2.401  0.4091  0.0601  0.0958
 1717SOL     hw 6866   0.225   4.071   2.467 -0.4091 -0.3093 -0.8175
 1717SOL     hw 6867   0.229   4.115   2.322  1.5228  0.0582 -0.6828
 1717SOL     vw 6868   0.268   4.106   2.400  0.4481  0.0110 -0.1274
 1718SOL     ow 6869   4.882   1.143   6.106  0.2887 -0.2607 -0.2209
 1718SOL     hw 6870   4.821   1.071   6.089  1.9788 -1.4518 -1.6439
 1718SOL     hw 6871   4.941   1.108   6.172  0.8575 -0.0219 -0.6012
 1718SOL     vw 6872   4.882   1.129   6.112  0.5870 -0.3864 -0.4587
 1719SOL     ow 6873   4.369   3.388   2.017 -0.0992  0.5046  0.0196
 1719SOL     hw 6874   4.285   3.395   2.063 -0.1817 -1.2354  0.2141
 1719SOL     hw 6875   4.346   3.357   1.929  0.3581 -1.0033  0.3928
 1719SOL     vw 6876   4.355   3.385   2.012 -0.0498  0.0761  0.0944
 1720SOL     ow 6877   0.650   5.418   6.440  0.3908 -0.9177  0.0089
 1720SOL     hw 6878   0.743   5.438   6.447  0.2068 -0.3807  1.3930
 1720SOL     hw 6879   0.643   5.328   6.470  0.3731 -0.6664  0.7877
 1720SOL     vw 6880   0.661   5.409   6.445  0.3642 -0.8137  0.2942
 1721SOL     ow 6881   2.426   5.484   5.439  0.0159 -0.1421  0.3921
 1721SOL     hw 6882   2.453   5.433   5.516 -0.9843 -1.6724 -0.2084
 1721SOL     hw 6883   2.454   5.573   5.458  0.7341 -0.6798  2.0648
 1721SOL     vw 6884   2.433   5.489   5.452 -0.0212 -0.4148  0.5336
 1722SOL     ow 6885   1.444   1.027   2.655 -0.0346  0.2784  0.0586
 1722SOL     hw 6886   1.537   1.039   2.671  0.3095  0.7651 -1.9955
 1722SOL     hw 6887   1.405   1.018   2.742  2.0595 -1.0781  0.9258
 1722SOL     vw 6888   1.451   1.027   2.669  0.2871  0.1636 -0.0980
 1723SOL     ow 6889   5.045   6.685   2.537 -0.0190  0.0999 -0.2247
 1723SOL     hw 6890   4.957   6.654   2.517 -0.8652  1.9932  0.3407
 1723SOL     hw 6891   5.102   6.635   2.479 -1.6834  0.4976 -2.3245
 1723SOL     vw 6892   5.041   6.674   2.527 -0.3502  0.4022 -0.4271
 1724SOL     ow 6893   2.204   0.186   7.084  0.3305 -0.0027  0.7630
 1724SOL     hw 6894   2.141   0.219   7.149  1.5373  0.5747  1.6830
 1724SOL     hw 6895   2.289   0.217   7.115  0.8495  1.4949 -1.8379
 1724SOL     vw 6896   2.207   0.195   7.097  0.5583  0.2711  0.5412
 1725SOL     ow 6897   4.373   0.432   1.795 -0.5177  0.1304  0.5896
 1725SOL     hw 6898   4.372   0.466   1.705 -1.9609 -1.1161  0.0895
 1725SOL     hw 6899   4.289   0.461   1.832 -0.9185 -1.2281  0.7802
 1725SOL     vw 6900   4.361   0.440   1.788 -0.7610 -0.2133  0.5488
 1726SOL     ow 6901   0.342   6.468   4.329  0.1418  0.0975  0.1642
 1726SOL     hw 6902   0.399   6.402   4.291  0.7295  0.2031  0.8384
 1726SOL     hw 6903   0.255   6.446   4.297  0.0454 -2.0285  1.6711
 1726SOL     vw 6904   0.338   6.456   4.320  0.2066 -0.1693  0.4518
 1727SOL     ow 6905   1.509   2.150   0.838 -0.2617  0.8357 -0.2559
 1727SOL     hw 6906   1.421   2.120   0.863  0.2792 -0.3145  0.3734
 1727SOL     hw 6907   1.499   2.183   0.749 -0.3756 -4.3855 -2.5390
 1727SOL     vw 6908   1.496   2.150   0.830 -0.2054 -0.0050 -0.4741
 1728SOL     ow 6909   0.826   0.438   5.198 -0.3986  0.2655  0.3268
 1728SOL     hw 6910   0.905   0.491   5.210  1.0022 -1.6938  0.1786
 1728SOL     hw 6911   0.827   0.413   5.105 -1.5987  0.7951  0.1500
 1728SOL     vw 6912   0.837   0.442   5.187 -0.3721  0.0769  0.2840
 1729SOL     ow 6913   1.150   5.145   1.040 -0.0100  0.6387 -0.0845
 1729SOL     hw 6914   1.233   5.106   1.015  0.8200  1.2857  1.4919
 1729SOL     hw 6915   1.119   5.090   1.113 -1.0222  0.3496 -0.7107
 1729SOL     vw 6916   1.157   5.133   1.046 -0.0340  0.6859  0.0409
 1730SOL     ow 6917   3.773   2.473   2.647 -0.2826  0.1153 -0.0446
 1730SOL     hw 6918   3.811   2.506   2.729 -0.0463 -2.2070  0.8509
 1730SOL     hw 6919   3.832   2.403   2.620  0.1422  1.4024 -2.7664
 1730SOL     vw 6920   3.786   2.468   2.655 -0.1953 -0.0212 -0.2855
 1731SOL     ow 6921   4.018   2.006   1.410 -0.3896 -0.1908 -0.2312
 1731SOL     hw 6922   3.975   1.925   1.383 -1.0871  0.5399 -1.3924
 1731SOL     hw 6923   3.999   2.068   1.339  2.4865  0.2048 -0.7764
 1731SOL     vw 6924   4.010   2.003   1.397 -0.1020 -0.0422 -0.4563
 1732SOL     ow 6925   4.000   5.208   4.494 -0.4734  0.5059 -0.8578
 1732SOL     hw 6926   4.037   5.149   4.428 -1.0142 -1.1782  0.2839
 1732SOL     hw 6927   3.909   5.219   4.467 -0.6544 -0.0597 -0.4873
 1732SOL     vw 6928   3.993   5.202   4.482 -0.5685  0.2091 -0.6583
 1733SOL     ow 6929   0.418   0.980   0.437 -0.3364 -0.2753 -0.3895
 1733SOL     hw 6930   0.390   0.889   0.443 -0.5644 -0.2049 -0.3841
 1733SOL     hw 6931   0.429   1.007   0.528  1.9578 -0.9764 -0.3981
 1733SOL     vw 6932   0.416   0.971   0.450 -0.0638 -0.3586 -0.3899
 1734SOL     ow 6933   5.264   3.617   3.760  0.6476  0.2492  0.2446
 1734SOL     hw 6934   5.246   3.624   3.854 -0.3977 -2.7535  0.3684
 1734SOL     hw 6935   5.353   3.583   3.755  0.4348 -0.3103  0.1929
 1734SOL     vw 6936   5.273   3.614   3.771  0.4816 -0.2207  0.2542
 1735SOL     ow 6937   2.751   4.792   4.580  0.8651  0.6928 -0.8098
 1735SOL     hw 6938   2.792   4.715   4.618  0.1572  0.8195  0.2191
 1735SOL     hw 6939   2.794   4.802   4.494  3.3185  1.0751  0.3812
 1735SOL     vw 6940   2.762   4.783   4.573  1.0953  0.7601 -0.5169
 1736SOL     ow 6941   4.335   6.297   0.901 -0.4814 -0.0237 -0.1646
 1736SOL     hw 6942   4.407   6.335   0.951 -0.4758  2.6234 -1.9662
 1736SOL     hw 6943   4.369   6.212   0.873  1.0654  0.1967  0.8780
 1736SOL     vw 6944   4.349   6.291   0.904 -0.2766  0.3545 -0.2647
 1737SOL     ow 6945   4.686   1.532   4.744 -0.5690 -0.2721 -0.4224
 1737SOL     hw 6946   4.632   1.458   4.715 -1.3610  0.8578 -1.9743
 1737SOL     hw 6947   4.652   1.607   4.696  2.3401  0.5485 -1.4123
 1737SOL     vw 6948   4.674   1.532   4.734 -0.2897 -0.0148 -0.7577
 1738SOL     ow 6949   1.806   3.545   1.595  0.7467 -0.1347 -0.2217
 1738SOL     hw 6950   1.736   3.606   1.619  2.2772  0.9363  1.7713
 1738SOL     hw 6951   1.761   3.476   1.546 -1.3137  1.6840 -1.0677
 1738SOL     vw 6952   1.791   3.544   1.592  0.6768  0.2465 -0.0703
 1739SOL     ow 6953   4.634   4.422   3.517 -1.0921 -0.9150  0.7226
 1739SOL     hw 6954   4.641   4.465   3.432 -1.0002 -0.5341  0.9242
 1739SOL     hw 6955   4.722   4.424   3.553 -0.6230 -3.0993 -0.1463
 1739SOL     vw 6956   4.646   4.428   3.510 -1.0180 -1.1532  0.6344
 1740SOL     ow 6957   5.226   5.514   0.828  0.3165  0.0008 -0.9824
 1740SOL     hw 6958   5.252   5.594   0.873 -3.0434 -0.0781  1.5062
 1740SOL     hw 6959   5.195   5.544   0.742  2.3994  0.8066 -1.5135
 1740SOL     vw 6960   5.225   5.529   0.823  0.1478  0.0968 -0.7242
 1741SOL     ow 6961   1.204   1.960   5.150  0.9843  0.1291 -0.6222
 1741SOL     hw 6962   1.293   1.958   5.185  0.3252  2.8863  1.6017
 1741SOL     hw 6963   1.159   2.025   5.204 -2.4956 -1.3810 -1.4470
 1741SOL     vw 6964   1.210   1.969   5.162  0.4382  0.2937 -0.4377
 1742SOL     ow 6965   5.682   4.840   1.672 -0.3499  0.6755  0.2229
 1742SOL     hw 6966   5.612   4.794   1.718  0.7335  0.4196  1.7036
 1742SOL     hw 6967   5.729   4.772   1.625 -0.8865  0.7984 -0.4967
 1742SOL     vw 6968   5.679   4.825   1.672 -0.2778  0.6580  0.3234
 1743SOL     ow 6969   1.299   1.486   5.252  0.1769 -0.0615  0.2534
 1743SOL     hw 6970   1.226   1.485   5.315  0.3196  1.0484  0.4670
 1743SOL     hw 6971   1.271   1.548   5.185 -1.0940 -3.0601 -2.2318
 1743SOL     vw 6972   1.285   1.494   5.252  0.0280 -0.3107 -0.0460
 1744SOL     ow 6973   4.617   3.233   3.742  0.1250 -0.4612 -0.0097
 1744SOL     hw 6974   4.592   3.315   3.785  0.0182  0.3737 -1.5734
 1744SOL     hw 6975   4.583   3.242   3.653 -1.9774 -3.1943  0.3804
 1744SOL     vw 6976   4.609   3.245   3.736 -0.1664 -0.7117 -0.1646
 1745SOL     ow 6977   6.725   4.792   7.033  0.2657  0.1357 -0.2766
 1745SOL     hw 6978   6.704   4.885   7.030  0.0525  0.2012  1.6909
 1745SOL     hw 6979   6.821   4.789   7.040  0.2938  0.1984 -0.6469
 1745SOL     vw 6980   6.735   4.804   7.034  0.2413  0.1526 -0.0660
 1746SOL     ow 6981   0.814   0.658   3.745 -0.8131  1.0911 -0.0662
 1746SOL     hw 6982   0.844   0.638   3.834  0.2233 -1.1844 -0.8374
 1746SOL     hw 6983   0.719   0.656   3.752 -0.8048 -1.7394  0.5746
 1746SOL     vw 6984   0.806   0.655   3.758 -0.6752  0.4175 -0.0834
 1747SOL     ow 6985   2.740   4.094   0.545  0.3268 -0.4905 -0.2633
 1747SOL     hw 6986   2.803   4.121   0.612  0.4009 -0.2226 -0.4437
 1747SOL     hw 6987   2.661   4.145   0.564  0.4162 -0.2590 -0.5068
 1747SOL     vw 6988   2.738   4.104   0.557  0.3483 -0.4246 -0.3192
 1748SOL     ow 6989   2.889   0.812   0.345 -0.5375  0.2517 -0.3636
 1748SOL     hw 6990   2.830   0.737   0.356 -1.1162  0.9772  1.8496
 1748SOL     hw 6991   2.892   0.826   0.250  0.1268 -2.9647 -0.9363
 1748SOL     vw 6992   2.882   0.804   0.334 -0.5262 -0.0769 -0.1472
 1749SOL     ow 6993   3.173   6.938   1.501 -0.2985 -0.3554 -0.3652
 1749SOL     hw 6994   3.096   6.945   1.557 -0.2088  0.2235 -0.3046
 1749SOL     hw 6995   3.206   6.850   1.516  0.1170  0.0118  1.0013
 1749SOL     vw 6996   3.167   6.927   1.510 -0.2317 -0.2303 -0.1769
 1750SOL     ow 6997   4.230   3.376   2.790  0.3029  0.7181  0.1255
 1750SOL     hw 6998   4.293   3.341   2.727  1.3137  1.6797  0.5659
 1750SOL     hw 6999   4.275   3.450   2.830 -1.6396  2.3559 -0.5702
 1750SOL     vw 7000   4.244   3.381   2.787  0.1800  1.0611  0.0918
 1751SOL     ow 7001   3.112   4.923   1.012  0.1393  0.0031  0.0880
 1751SOL     hw 7002   3.137   4.906   0.921  0.8965 -4.5386  0.9335
 1751SOL     hw 7003   3.021   4.895   1.018 -0.8081  2.7655  0.3149
 1751SOL     vw 7004   3.104   4.917   1.000  0.1142 -0.2317  0.2295
 1752SOL     ow 7005   6.692   1.085   2.062 -0.8522  0.1060  0.0063
 1752SOL     hw 7006   6.726   1.014   2.116  2.8804  1.4341 -0.2769
 1752SOL     hw 7007   6.749   1.085   1.985 -1.4769  2.6569 -0.5396
 1752SOL     vw 7008   6.704   1.075   2.059 -0.4420  0.6179 -0.1031
 1753SOL     ow 7009   1.514   1.696   1.412  0.0895 -0.5211  0.5319
 1753SOL     hw 7010   1.510   1.787   1.384  1.2815 -0.5815  0.1314
 1753SOL     hw 7011   1.520   1.646   1.331 -0.5794 -0.9727  0.7462
 1753SOL     vw 7012   1.514   1.701   1.398  0.1585 -0.5886  0.5074
 1754SOL     ow 7013   1.652   6.185   3.085  0.3083 -0.0060 -0.1122
 1754SOL     hw 7014   1.679   6.217   2.999  0.6508 -0.1793 -0.0705
 1754SOL     hw 7015   1.576   6.239   3.108 -0.1246 -0.3284 -0.7649
 1754SOL     vw 7016   1.646   6.196   3.077  0.2964 -0.0715 -0.1926
 1755SOL     ow 7017   1.481   6.967   2.920 -0.2849  0.0045  0.3301
 1755SOL     hw 7018   1.473   7.019   2.840  1.3024  0.0369  0.1542
 1755SOL     hw 7019   1.472   7.030   2.991  0.0412  0.2769  0.1369
 1755SOL     vw 7020   1.479   6.982   2.919 -0.0324  0.0448  0.2813
 1756SOL     ow 7021   6.230   6.628   3.586  0.6090 -0.3153 -0.2707
 1756SOL     hw 7022   6.224   6.722   3.567 -0.0830 -0.6668 -1.9317
 1756SOL     hw 7023   6.298   6.622   3.653  0.5974  1.3792 -0.0635
 1756SOL     vw 7024   6.238   6.640   3.592  0.5162 -0.1378 -0.4627
 1757SOL     ow 7025   6.783   5.909   1.887 -1.1305  0.4499  0.5682
 1757SOL     hw 7026   6.738   5.976   1.939 -1.9888 -0.0762  0.5103
 1757SOL     hw 7027   6.720   5.837   1.880 -0.1365 -0.4716  0.8309
 1757SOL     vw 7028   6.769   5.909   1.893 -1.1125  0.2587  0.5953
 1758SOL     ow 7029   2.231   5.270   5.364 -0.1756 -0.0961  0.3939
 1758SOL     hw 7030   2.148   5.269   5.315  0.8691  1.4585 -1.5686
 1758SOL     hw 7031   2.224   5.197   5.424 -0.9448 -3.3645 -3.2594
 1758SOL     vw 7032   2.219   5.260   5.365 -0.1391 -0.3221 -0.3471
 1759SOL     ow 7033   1.422   4.939   7.079  0.0191 -0.5879 -0.2354
 1759SOL     hw 7034   1.426   5.006   7.011 -0.0043  1.1153  1.3544
 1759SOL     hw 7035   1.330   4.912   7.080 -0.1379 -0.0700 -0.3743
 1759SOL     vw 7036   1.410   4.945   7.070 -0.0047 -0.2947 -0.0441
 1760SOL     ow 7037   1.080   4.511   5.149 -0.0699  0.0576  0.2096
 1760SOL     hw 7038   1.051   4.585   5.097 -0.7430  0.8851  1.6898
 1760SOL     hw 7039   1.036   4.435   5.111 -1.1882  0.7505  0.0810
 1760SOL     vw 7040   1.071   4.510   5.137 -0.3062  0.2582  0.3879
 1761SOL     ow 7041   5.492   1.692   1.719 -0.1397 -0.0272 -0.2898
 1761SOL     hw 7042   5.402   1.684   1.688 -0.9564  2.4644  1.1034
 1761SOL     hw 7043   5.485   1.682   1.814  1.1317 -0.2544 -0.2064
 1761SOL     vw 7044   5.479   1.690   1.728 -0.0796  0.2716 -0.0950
 1762SOL     ow 7045   3.043   4.023   6.555  0.6241 -0.1866  0.1814
 1762SOL     hw 7046   3.108   3.958   6.582  2.1573  1.7104  1.3180
 1762SOL     hw 7047   3.091   4.082   6.497 -0.7177  0.0486 -0.7588
 1762SOL     vw 7048   3.058   4.022   6.551  0.6492  0.0947  0.2074
 1763SOL     ow 7049   4.469   5.435   6.547  0.9067 -0.9086 -0.0857
 1763SOL     hw 7050   4.397   5.372   6.555 -0.2960  0.1252 -1.9638
 1763SOL     hw 7051   4.460   5.490   6.624  0.7674 -1.8410  0.5858
 1763SOL     vw 7052   4.458   5.434   6.558  0.7298 -0.8953 -0.2446
 1764SOL     ow 7053   5.715   1.773   1.541  0.1885  0.4232  0.4375
 1764SOL     hw 7054   5.790   1.829   1.556  0.5595  0.8992 -2.4636
 1764SOL     hw 7055   5.675   1.808   1.461 -1.2627 -1.7034  0.1445
 1764SOL     vw 7056   5.720   1.785   1.532  0.0460  0.2054  0.0160
 1765SOL     ow 7057   0.839   2.155   0.557  0.5350  0.5280 -0.4693
 1765SOL     hw 7058   0.798   2.149   0.471  4.3447 -0.7188 -2.4558
 1765SOL     hw 7059   0.875   2.243   0.560  0.0195  0.7209  0.0577
 1765SOL     vw 7060   0.839   2.166   0.546  0.9696  0.3890 -0.6618
 1766SOL     ow 7061   3.581   6.122   5.939 -0.3000 -0.6931 -0.7075
 1766SOL     hw 7062   3.552   6.213   5.947 -3.2523 -1.3530 -2.2505
 1766SOL     hw 7063   3.628   6.119   5.855  0.3072 -0.4998 -0.3791
 1766SOL     vw 7064   3.583   6.134   5.929 -0.6094 -0.7546 -0.8678
 1767SOL     ow 7065   1.812   5.570   0.405 -0.0392  0.5544 -0.1712
 1767SOL     hw 7066   1.717   5.576   0.418 -0.0270  2.2438 -0.6566
 1767SOL     hw 7067   1.839   5.495   0.457 -1.8605 -0.9692 -1.3040
 1767SOL     vw 7068   1.803   5.561   0.413 -0.2779  0.5763 -0.3847
 1768SOL     ow 7069   0.905   5.633   1.504  0.0422 -0.1750  0.3121
 1768SOL     hw 7070   0.930   5.719   1.540 -0.3630 -0.1855  0.6129
 1768SOL     hw 7071   0.834   5.653   1.443 -0.4609 -0.3633  0.8274
 1768SOL     vw 7072   0.899   5.647   1.501 -0.0776 -0.2010  0.4197
 1769SOL     ow 7073   2.065   3.752   4.996 -0.4720 -0.1395  0.1223
 1769SOL     hw 7074   2.067   3.656   5.001 -0.7029 -0.1228  0.6039
 1769SOL     hw 7075   1.972   3.773   4.985 -0.2485 -0.0542 -2.1091
 1769SOL     vw 7076   2.053   3.742   4.995 -0.4730 -0.1260 -0.1085
 1770SOL     ow 7077   0.517   1.128   5.335  0.4448  0.1586 -0.5479
 1770SOL     hw 7078   0.525   1.042   5.376  0.0285  0.5480  0.3514
 1770SOL     hw 7079   0.608   1.158   5.325  0.5428  0.2553  0.5197
 1770SOL     vw 7080   0.530   1.121   5.339  0.4027  0.2227 -0.2885
 1771SOL     ow 7081   6.271   0.708   6.032 -0.3334  0.3781 -0.1168
 1771SOL     hw 7082   6.183   0.682   6.059 -1.2945  1.5054 -1.9751
 1771SOL     hw 7083   6.291   0.650   5.958 -0.8660  2.1698 -1.7290
 1771SOL     vw 7084   6.262   0.697   6.026 -0.5302  0.7632 -0.5748
 1772SOL     ow 7085   0.696   2.455   2.707 -0.4329 -0.2696 -0.5842
 1772SOL     hw 7086   0.773   2.399   2.700 -0.5996 -0.4205 -1.2485
 1772SOL     hw 7087   0.720   2.522   2.771 -0.1821 -1.0151  0.1199
 1772SOL     vw 7088   0.709   2.457   2.715 -0.4218 -0.3879 -0.5789
 1773SOL     ow 7089   3.221   0.660   2.604  0.1809 -0.2944  0.0333
 1773SOL     hw 7090   3.307   0.699   2.619  0.2052 -0.0281 -0.7404
 1773SOL     hw 7091   3.210   0.663   2.509 -2.6029  3.9097  0.2187
 1773SOL     vw 7092   3.231   0.665   2.594 -0.1832  0.2954 -0.0443
 1774SOL     ow 7093   5.615   0.998   4.802  0.3451 -0.0767  0.0153
 1774SOL     hw 7094   5.524   1.017   4.823  0.5181 -0.1721  0.8815
 1774SOL     hw 7095   5.611   0.923   4.743 -0.1420  0.0379 -0.1031
 1774SOL     vw 7096   5.602   0.991   4.797  0.3035 -0.0742  0.1137
 1775SOL     ow 7097   3.433   1.643   2.502  0.0100  0.0136 -0.0480
 1775SOL     hw 7098   3.507   1.601   2.458 -1.2339 -2.9871  0.4715
 1775SOL     hw 7099   3.448   1.627   2.595 -0.2967  1.1915  0.2211
 1775SOL     vw 7100   3.445   1.636   2.509 -0.1944 -0.2269  0.0561
 1776SOL     ow 7101   1.631   4.041   4.976 -0.5556 -0.0386 -0.2117
 1776SOL     hw 7102   1.577   4.110   5.015  0.3665  1.4016 -1.3658
 1776SOL     hw 7103   1.593   4.028   4.889  0.1820  0.1025 -0.5623
 1776SOL     vw 7104   1.619   4.048   4.969 -0.3365  0.1702 -0.4101
 1777SOL     ow 7105   6.881   4.227   5.622 -0.1767  0.0658 -0.3442
 1777SOL     hw 7106   6.968   4.196   5.598 -0.5538 -0.7691 -0.6861
 1777SOL     hw 7107   6.826   4.149   5.616 -1.2174  0.8529 -1.5202
 1777SOL     vw 7108   6.885   4.212   5.618 -0.3638  0.0598 -0.5448
 1778SOL     ow 7109   0.092   0.224   4.791  0.3087  0.2303 -0.0588
 1778SOL     hw 7110   0.076   0.170   4.868  1.1907  1.3844  0.9653
 1778SOL     hw 7111   0.177   0.194   4.758  1.1439  1.4289  0.9317
 1778SOL     vw 7112   0.101   0.213   4.797  0.5353  0.5407  0.2069
 1779SOL     ow 7113   5.172   6.177   1.027 -0.1701  0.1390 -0.2311
 1779SOL     hw 7114   5.161   6.086   1.055 -1.6773  0.9937  2.2690
 1779SOL     hw 7115   5.116   6.227   1.086 -0.2292  2.6146 -2.2292
 1779SOL     vw 7116   5.163   6.172   1.038 -0.3767  0.5784 -0.1649
 1780SOL     ow 7117   5.700   1.677   0.800 -0.5457 -0.0130  0.2769
 1780SOL     hw 7118   5.796   1.666   0.801 -0.2756  2.0275  0.7301
 1780SOL     hw 7119   5.686   1.758   0.751 -2.0916 -0.3938  0.0313
 1780SOL     vw 7120   5.711   1.686   0.793 -0.7141  0.2059  0.3043
 1781SOL     ow 7121   4.857   6.999   5.683  0.5965 -0.8713  0.6908
 1781SOL     hw 7122   4.818   7.060   5.620 -1.2119 -1.9536  0.7058
 1781SOL     hw 7123   4.915   6.944   5.630  0.9875 -0.1978  0.4079
 1781SOL     vw 7124   4.860   7.000   5.668  0.4098 -0.9253  0.6557
 1782SOL     ow 7125   3.838   5.404   3.681  0.0705  0.4460 -0.5016
 1782SOL     hw 7126   3.757   5.402   3.732  0.4021  0.4886  0.0273
 1782SOL     hw 7127   3.808   5.403   3.590 -0.4883 -1.3162 -0.3420
 1782SOL     vw 7128   3.824   5.404   3.676  0.0404  0.2191 -0.4108
 1783SOL     ow 7129   6.831   5.936   1.423 -0.3556  0.1144 -0.7846
 1783SOL     hw 7130   6.785   6.008   1.466 -1.4053 -0.6068 -0.6775
 1783SOL     hw 7131   6.917   5.973   1.401 -0.3398  0.9394  0.5809
 1783SOL     vw 7132   6.837   5.950   1.426 -0.4921  0.1280 -0.5903
 1784SOL     ow 7133   3.160   0.740   0.222 -0.1302  0.1897  0.1128
 1784SOL     hw 7134   3.185   0.659   0.176 -0.1248 -0.8611  1.8592
 1784SOL     hw 7135   3.204   0.810   0.173 -2.6197 -0.4215 -3.3739
 1784SOL     vw 7136   3.169   0.738   0.209 -0.4579 -0.0296 -0.1168
 1785SOL     ow 7137   3.016   2.240   1.081  0.2046  0.3789 -0.0900
 1785SOL     hw 7138   2.942   2.196   1.123  2.6533 -3.5848  0.5842
 1785SOL     hw 7139   3.072   2.266   1.154  1.2701 -0.2720 -0.6604
 1785SOL     vw 7140   3.013   2.237   1.096  0.6683 -0.2300 -0.0762
 1786SOL     ow 7141   6.474   1.056   0.595  0.1812  0.6193  0.1056
 1786SOL     hw 7142   6.425   0.975   0.580 -0.8015  1.0918  0.6524
 1786SOL     hw 7143   6.449   1.112   0.522 -0.6147  1.0855  0.7148
 1786SOL     vw 7144   6.464   1.052   0.584 -0.0536  0.7431  0.2581
 1787SOL     ow 7145   4.437   5.773   5.401 -0.3496 -0.3887  0.1068
 1787SOL     hw 7146   4.508   5.836   5.401 -0.5400 -0.1486 -1.1076
 1787SOL     hw 7147   4.364   5.818   5.358 -0.5310 -1.3736 -0.6605
 1787SOL     vw 7148   4.437   5.787   5.395 -0.3991 -0.4869 -0.1547
 1788SOL     ow 7149   2.789   3.122   4.656 -0.0703  0.3367  0.8431
 1788SOL     hw 7150   2.725   3.192   4.665  1.2310  1.5997  0.7994
 1788SOL     hw 7151   2.820   3.130   4.565  0.2227 -0.1603  0.8961
 1788SOL     vw 7152   2.785   3.132   4.645  0.1400  0.4379  0.8442
 1789SOL     ow 7153   3.827   0.951   6.225 -0.1718  0.2529  0.0952
 1789SOL     hw 7154   3.880   0.991   6.157  2.2229  0.7420  2.1199
 1789SOL     hw 7155   3.800   1.024   6.281  1.4330 -0.4826  1.9501
 1789SOL     vw 7156   3.830   0.965   6.224  0.3560  0.2204  0.6070
 1790SOL     ow 7157   5.766   0.956   0.900 -0.4375  0.4887 -0.1745
 1790SOL     hw 7158   5.788   0.995   0.815 -0.3294  0.1965 -0.2803
 1790SOL     hw 7159   5.673   0.976   0.912 -0.2395  1.3289  0.0660
 1790SOL     vw 7160   5.756   0.964   0.890 -0.3972  0.5610 -0.1568
 1791SOL     ow 7161   5.012   0.686   0.207  0.0522 -0.5658 -0.1221
 1791SOL     hw 7162   5.033   0.738   0.284 -2.0687  1.2920 -0.6968
 1791SOL     hw 7163   5.073   0.717   0.140 -0.6210  0.6250 -0.2149
 1791SOL     vw 7164   5.023   0.697   0.208 -0.3166 -0.1636 -0.2101
 1792SOL     ow 7165   6.625   5.630   1.871 -0.0075  0.0658  0.0059
 1792SOL     hw 7166   6.678   5.571   1.925  1.9996  2.0776  0.3663
 1792SOL     hw 7167   6.543   5.638   1.919 -0.0593 -1.7860  0.3264
 1792SOL     vw 7168   6.621   5.623   1.885  0.2506  0.0870  0.0957
 1793SOL     ow 7169   5.293   5.653   3.226 -0.5180  0.2859 -0.2752
 1793SOL     hw 7170   5.361   5.585   3.230 -1.2323 -0.4041  0.7096
 1793SOL     hw 7171   5.242   5.631   3.148 -0.0261  0.4243 -0.6481
 1793SOL     vw 7172   5.295   5.641   3.216 -0.5474  0.2129 -0.1943
 1794SOL     ow 7173   0.879   2.947   0.499  0.2306 -0.6030 -0.3145
 1794SOL     hw 7174   0.913   2.902   0.421 -2.6821 -2.5764 -0.6339
 1794SOL     hw 7175   0.881   2.880   0.567  1.0279  0.5572  0.8300
 1794SOL     vw 7176   0.883   2.932   0.497 -0.0485 -0.7102 -0.2056
 1795SOL     ow 7177   0.766   6.209   3.820  0.3563 -0.7446  0.2226
 1795SOL     hw 7178   0.773   6.230   3.914 -0.4669 -1.5517  0.4752
 1795SOL     hw 7179   0.674   6.226   3.798 -0.3390 -3.6941  0.3916
 1795SOL     vw 7180   0.755   6.214   3.830  0.1560 -1.2400  0.2784
 1796SOL     ow 7181   2.929   1.187   6.920 -0.5722  0.4296  0.1665
 1796SOL     hw 7182   2.991   1.226   6.982 -1.2413  1.3210  0.2979
 1796SOL     hw 7183   2.846   1.230   6.939 -1.3717 -1.1346  0.3493
 1796SOL     vw 7184   2.926   1.198   6.930 -0.7659  0.3409  0.2079
 1797SOL     ow 7185   4.259   4.056   1.580  0.1501 -0.1834  0.0064
 1797SOL     hw 7186   4.217   4.106   1.510  0.8319 -0.5209 -0.6561
 1797SOL     hw 7187   4.271   3.969   1.542 -0.6303 -0.7269  0.9932
 1797SOL     vw 7188   4.255   4.051   1.565  0.1371 -0.2997  0.0492
 1798SOL     ow 7189   6.891   1.350   6.508 -0.1758 -0.1769 -0.2263
 1798SOL     hw 7190   6.829   1.282   6.534  1.8037 -1.8417  0.3411
 1798SOL     hw 7191   6.868   1.426   6.561 -3.9146  0.5075 -2.4739
 1798SOL     vw 7192   6.880   1.351   6.518 -0.4077 -0.3063 -0.4480
 1799SOL     ow 7193   2.320   6.076   2.843  0.8335  0.8452 -0.1081
 1799SOL     hw 7194   2.261   6.030   2.783  1.1114 -0.1492  0.3636
 1799SOL     hw 7195   2.398   6.093   2.791  1.1028 -0.0808 -0.0134
 1799SOL     vw 7196   2.322   6.072   2.828  0.9056  0.5918 -0.0334
 1800SOL     ow 7197   0.073   0.089   5.048  0.0912 -0.5463 -0.4379
 1800SOL     hw 7198   0.035   0.007   5.079  0.2859 -1.3699 -2.2738
 1800SOL     hw 7199   0.064   0.149   5.123  0.8327 -2.4812  1.2873
 1800SOL     vw 7200   0.067   0.086   5.062  0.2147 -0.9102 -0.4525
 1801SOL     ow 7201   0.253   2.169   3.707 -0.4804  0.5903  0.3482
 1801SOL     hw 7202   0.230   2.226   3.780 -0.0173  0.8591  0.2842
 1801SOL     hw 7203   0.174   2.117   3.692  0.0195 -0.8352  2.2783
 1801SOL     vw 7204   0.239   2.170   3.715 -0.3534  0.4375  0.5944
 1802SOL     ow 7205   4.657   1.783   1.294 -0.0204 -0.3957  0.0957
 1802SOL     hw 7206   4.679   1.875   1.283  0.3133 -0.5703 -0.7493
 1802SOL     hw 7207   4.563   1.782   1.313 -0.0496  0.1093 -0.0284
 1802SOL     vw 7208   4.648   1.795   1.295  0.0198 -0.3521 -0.0322
 1803SOL     ow 7209   4.941   4.088   0.475 -0.3882  0.1662 -0.2129
 1803SOL     hw 7210   4.925   4.028   0.402  2.4664 -0.7447 -0.1905
 1803SOL     hw 7211   5.005   4.150   0.442  0.3888  0.1967  1.2440
 1803SOL     vw 7212   4.947   4.088   0.461  0.0911  0.0501 -0.0177
 1804SOL     ow 7213   5.680   5.162   1.774  0.3802 -0.3304  0.5495
 1804SOL     hw 7214   5.589   5.133   1.784  0.0772  0.2382 -0.4409
 1804SOL     hw 7215   5.679   5.221   1.698  1.5808 -0.3353  0.5032
 1804SOL     vw 7216   5.668   5.166   1.765  0.4983 -0.2558  0.4128
 1805SOL     ow 7217   0.063   1.571   0.683  0.0657  0.2365 -0.2719
 1805SOL     hw 7218  -0.023   1.533   0.665 -0.0452  0.7384 -0.8331
 1805SOL     hw 7219   0.121   1.495   0.696 -0.5764 -0.1023  0.7349
 1805SOL     vw 7220   0.060   1.556   0.683 -0.0336  0.2580 -0.2131
 1806SOL     ow 7221   6.096   6.465   6.997  0.3792 -0.0779 -0.2376
 1806SOL     hw 7222   6.138   6.484   7.081 -0.1872  1.3862 -0.2583
 1806SOL     hw 7223   6.132   6.529   6.936 -2.1574  1.5549 -0.1406
 1806SOL     vw 7224   6.106   6.476   7.000 -0.0303  0.3304 -0.2277
 1807SOL     ow 7225   0.333   4.370   2.474 -0.4013 -0.5857  0.2212
 1807SOL     hw 7226   0.421   4.388   2.443 -0.5156  0.1372  0.2868
 1807SOL     hw 7227   0.315   4.280   2.447 -0.1134 -0.3168 -0.9127
 1807SOL     vw 7228   0.342   4.361   2.466 -0.3784 -0.4549  0.0803
 1808SOL     ow 7229   2.110   2.910   2.386  0.1506  0.2796  0.2070
 1808SOL     hw 7230   2.067   2.826   2.372  1.5322 -0.3869 -0.1984
 1808SOL     hw 7231   2.050   2.959   2.443 -0.2161 -1.3442  1.2780
 1808SOL     vw 7232   2.096   2.905   2.392  0.2846 -0.0226  0.2948
 1809SOL     ow 7233   5.765   1.592   1.784 -0.3062 -0.2034 -0.0467
 1809SOL     hw 7234   5.720   1.623   1.862 -1.8378 -0.6470 -0.7153
 1809SOL     hw 7235   5.813   1.514   1.814 -1.5459 -0.8601  0.2923
 1809SOL     vw 7236   5.766   1.585   1.798 -0.6716 -0.3486 -0.0902
 1810SOL     ow 7237   1.212   7.002   2.007 -0.1771 -0.3601 -0.0378
 1810SOL     hw 7238   1.244   6.924   2.052  0.8411 -1.5151 -2.5940
 1810SOL     hw 7239   1.290   7.057   1.996 -0.0880 -0.7702 -1.6350
 1810SOL     vw 7240   1.227   6.999   2.012 -0.0310 -0.5665 -0.5857
 1811SOL     ow 7241   4.320   3.963   5.086 -0.1420  0.2030  0.2791
 1811SOL     hw 7242   4.335   3.998   5.174  1.7255  0.2275 -0.0107
 1811SOL     hw 7243   4.247   3.902   5.096 -0.0441  0.3148  1.8071
 1811SOL     vw 7244   4.312   3.960   5.099  0.1171  0.2211  0.4425
 1812SOL     ow 7245   6.432   3.184   4.494 -0.1303  0.2665 -0.4469
 1812SOL     hw 7246   6.482   3.223   4.422  1.0216 -0.9250 -0.3250
 1812SOL     hw 7247   6.495   3.128   4.539 -1.5141 -1.0444 -0.0777
 1812SOL     vw 7248   6.447   3.182   4.491 -0.1607 -0.0637 -0.3822
 1813SOL     ow 7249   3.715   4.486   6.639 -0.3350 -0.5043 -0.1392
 1813SOL     hw 7250   3.765   4.437   6.574 -1.9503 -2.3808 -0.0690
 1813SOL     hw 7251   3.740   4.578   6.625  3.1251 -1.3083 -0.0062
 1813SOL     vw 7252   3.725   4.492   6.629 -0.0918 -0.8578 -0.1123
 1814SOL     ow 7253   6.026   5.033   4.459 -0.5024  0.0619  0.2807
 1814SOL     hw 7254   6.097   4.976   4.430  1.7466  1.0057  3.3891
 1814SOL     hw 7255   6.047   5.118   4.420 -0.8644 -0.0147 -0.0899
 1814SOL     vw 7256   6.038   5.037   4.450 -0.2534  0.1762  0.6421
 1815SOL     ow 7257   5.437   6.792   4.193  0.7716 -0.3507  0.0836
 1815SOL     hw 7258   5.447   6.816   4.285  1.5630 -0.7810  0.1240
 1815SOL     hw 7259   5.424   6.697   4.194  1.4517 -0.4559 -0.2760
 1815SOL     vw 7260   5.437   6.783   4.205  0.9661 -0.4213  0.0412
 1816SOL     ow 7261   6.536   5.740   6.443 -0.0412 -0.2336  0.5247
 1816SOL     hw 7262   6.481   5.816   6.459  0.6807 -0.0683  2.5166
 1816SOL     hw 7263   6.625   5.773   6.447  0.2635 -0.9864  0.2478
 1816SOL     vw 7264   6.540   5.754   6.446  0.0939 -0.3111  0.7510
 1817SOL     ow 7265   4.992   0.173   0.026 -0.0526  0.5643 -0.5014
 1817SOL     hw 7266   4.975   0.154  -0.067  0.7238  1.5694 -0.8616
 1817SOL     hw 7267   4.907   0.200   0.060 -1.0428 -2.5227 -0.1641
 1817SOL     vw 7268   4.978   0.174   0.018 -0.0808  0.2896 -0.5044
 1818SOL     ow 7269   5.534   0.047   2.170 -0.5245 -0.3393  0.3795
 1818SOL     hw 7270   5.533   0.069   2.077 -0.0257 -0.2934  0.3806
 1818SOL     hw 7271   5.487   0.119   2.212 -1.7865 -0.9450  0.0550
 1818SOL     vw 7272   5.528   0.059   2.163 -0.6251 -0.4132  0.3369
 1819SOL     ow 7273   7.015   2.623   6.501 -0.2115  0.6722  0.2376
 1819SOL     hw 7274   6.964   2.695   6.465 -1.5701 -0.0124  0.7115
 1819SOL     hw 7275   7.017   2.639   6.595 -1.3318 -0.3676  0.4646
 1819SOL     vw 7276   7.008   2.634   6.509 -0.5386  0.4445  0.3302
 1820SOL     ow 7277   0.754   3.628   4.309  0.7658  0.5389 -0.0060
 1820SOL     hw 7278   0.668   3.622   4.267  0.6997  0.3135  0.1540
 1820SOL     hw 7279   0.789   3.539   4.302  1.1037  0.6952 -0.3149
 1820SOL     vw 7280   0.747   3.615   4.303  0.8017  0.5296 -0.0257
 1821SOL     ow 7281   5.081   2.855   5.023  0.8314  0.6904  0.1947
 1821SOL     hw 7282   5.017   2.802   5.071  0.7762  0.4051 -0.1883
 1821SOL     hw 7283   5.045   2.944   5.026 -0.0630  0.3888 -0.7964
 1821SOL     vw 7284   5.068   2.860   5.030  0.7062  0.6131  0.0136
 1822SOL     ow 7285   0.766   2.736   3.969 -0.1059  0.2891 -0.3375
 1822SOL     hw 7286   0.733   2.668   3.910 -1.1527 -0.7163  1.3218
 1822SOL     hw 7287   0.752   2.818   3.920 -1.1313 -0.4743 -1.4030
 1822SOL     vw 7288   0.760   2.738   3.954 -0.3793  0.0558 -0.2590
 1823SOL     ow 7289   0.016   4.616   4.516  0.1896 -0.0519 -0.1614
 1823SOL     hw 7290  -0.001   4.616   4.611 -1.3972  0.3972 -0.4249
 1823SOL     hw 7291  -0.027   4.695   4.484 -0.0440 -0.6644 -1.3936
 1823SOL     vw 7292   0.008   4.626   4.525 -0.0510 -0.0734 -0.3588
 1824SOL     ow 7293   0.856   4.366   1.540 -0.2430  0.3391 -0.0488
 1824SOL     hw 7294   0.835   4.276   1.514 -0.6270  0.1611  0.8111
 1824SOL     hw 7295   0.770   4.406   1.557 -0.0083  0.0449  2.1342
 1824SOL     vw 7296   0.842   4.359   1.539 -0.2626  0.2770  0.3527
 1825SOL     ow 7297   4.006   6.723   1.911 -0.3302  0.2081  0.1304
 1825SOL     hw 7298   4.078   6.665   1.883  0.1896 -0.7761  3.1458
 1825SOL     hw 7299   4.049   6.804   1.936 -0.6261  0.5746 -0.5130
 1825SOL     vw 7300   4.021   6.726   1.911 -0.3006  0.1266  0.4433
 1826SOL     ow 7301   3.428   2.952   6.652 -0.0653  0.0388 -0.3041
 1826SOL     hw 7302   3.480   3.030   6.671 -1.2329  0.6769  0.3978
 1826SOL     hw 7303   3.423   2.949   6.556  0.6599  0.3561 -0.3582
 1826SOL     vw 7304   3.434   2.962   6.642 -0.1236  0.1649 -0.2186
 1827SOL     ow 7305   1.051   4.035   3.012  0.3514  0.1382  0.4222
 1827SOL     hw 7306   1.023   3.944   2.995  2.1685 -0.2718 -0.5939
 1827SOL     hw 7307   0.987   4.068   3.075 -1.9536 -0.9686 -1.1672
 1827SOL     vw 7308   1.039   4.027   3.018  0.2870 -0.0618  0.0783
 1828SOL     ow 7309   0.165   3.315   3.308  0.1946  0.1788  0.1910
 1828SOL     hw 7310   0.109   3.259   3.255 -0.7288  1.9810 -0.8045
 1828SOL     hw 7311   0.111   3.339   3.384  0.1392  0.7043 -0.0100
 1828SOL     vw 7312   0.151   3.311   3.311  0.0654  0.4860  0.0331
 1829SOL     ow 7313   2.933   5.790   0.946  0.0403  0.2388  0.5358
 1829SOL     hw 7314   2.962   5.840   0.869  2.2597 -0.8488  0.5848
 1829SOL     hw 7315   2.964   5.841   1.021  0.7796 -0.3188  0.6191
 1829SOL     vw 7316   2.941   5.804   0.946  0.4306  0.0219  0.5533
 1830SOL     ow 7317   6.163   0.839   4.789 -0.2610 -0.2061 -0.2719
 1830SOL     hw 7318   6.071   0.823   4.812 -1.0442  2.2233 -1.4235
 1830SOL     hw 7319   6.194   0.899   4.857  0.4266 -0.7950 -0.0529
 1830SOL     vw 7320   6.155   0.845   4.801 -0.2735  0.0368 -0.3948
 1831SOL     ow 7321   6.860   5.382   1.704 -0.6139  0.2712 -0.0970
 1831SOL     hw 7322   6.945   5.414   1.675 -1.3101  0.7659 -1.6879
 1831SOL     hw 7323   6.848   5.421   1.791  2.2133 -2.5284  1.7562
 1831SOL     vw 7324   6.869   5.392   1.712 -0.3326 -0.0331 -0.0624
 1832SOL     ow 7325   3.865   0.461   3.189  0.3482 -0.1332  0.1302
 1832SOL     hw 7326   3.883   0.542   3.237  0.4488 -0.4938  0.7107
 1832SOL     hw 7327   3.784   0.428   3.227 -0.5929  0.5307 -1.2224
 1832SOL     vw 7328   3.857   0.468   3.200  0.2373 -0.0932  0.0285
 1833SOL     ow 7329   0.581   0.372   5.314  0.5719  0.6861  0.5954
 1833SOL     hw 7330   0.584   0.443   5.377  1.6904  1.5864 -0.4221
 1833SOL     hw 7331   0.657   0.387   5.258 -0.9542  0.5495 -1.6228
 1833SOL     vw 7332   0.591   0.383   5.315  0.5181  0.7869  0.1683
 1834SOL     ow 7333   2.973   5.477   1.305  0.2568 -0.1074 -0.3262
 1834SOL     hw 7334   3.047   5.442   1.354  0.2690 -0.9307 -0.9251
 1834SOL     hw 7335   2.967   5.568   1.334  0.4797 -0.4765  0.9423
 1834SOL     vw 7336   2.982   5.484   1.315  0.2879 -0.2646 -0.2378
 1835SOL     ow 7337   0.011   0.526   5.965 -0.2586  0.2101  0.0515
 1835SOL     hw 7338  -0.014   0.438   5.937  1.3405 -1.0638  2.3846
 1835SOL     hw 7339   0.017   0.521   6.060  1.4567  2.3942  0.1373
 1835SOL     vw 7340   0.008   0.514   5.974  0.1787  0.3302  0.3707
 1836SOL     ow 7341   1.725   0.130   3.381  0.6543  0.4835  0.2553
 1836SOL     hw 7342   1.725   0.047   3.429 -0.0922  1.1798  1.5050
 1836SOL     hw 7343   1.814   0.139   3.349  1.0288 -0.2925  1.0305
 1836SOL     vw 7344   1.737   0.120   3.383  0.6053  0.4730  0.5225
 1837SOL     ow 7345   0.595   6.844   0.130  0.6558 -0.0462 -0.3010
 1837SOL     hw 7346   0.571   6.916   0.072 -2.2902 -2.0698 -1.8450
 1837SOL     hw 7347   0.563   6.871   0.216  0.0700  0.7144 -0.7459
 1837SOL     vw 7348   0.588   6.857   0.134  0.1898 -0.2127 -0.5634
 1838SOL     ow 7349   5.694   3.993   4.217 -0.5416 -0.1790  0.4363
 1838SOL     hw 7350   5.660   4.004   4.306 -1.5646  4.9176 -0.2672
 1838SOL     hw 7351   5.625   4.026   4.160  1.1019 -0.7770 -2.0960
 1838SOL     vw 7352   5.681   3.999   4.221 -0.4599  0.4145  0.0093
 1839SOL     ow 7353   3.548   1.376   5.804 -0.0214 -0.1702  0.8995
 1839SOL     hw 7354   3.568   1.428   5.882 -1.2611  0.0692  1.0852
 1839SOL     hw 7355   3.556   1.438   5.731 -1.3839  0.2931  1.1095
 1839SOL     vw 7356   3.552   1.391   5.805 -0.3645 -0.0775  0.9518
 1840SOL     ow 7357   3.944   0.868   4.150 -0.4802 -0.2890 -0.2649
 1840SOL     hw 7358   3.951   0.836   4.239 -3.5749 -0.5610  0.0032
 1840SOL     hw 7359   3.905   0.955   4.158 -1.4518 -0.5901 -1.3144
 1840SOL     vw 7360   3.940   0.875   4.163 -1.0166 -0.3646 -0.3681
 1841SOL     ow 7361   6.593   4.313   3.790  0.0438 -0.0516 -0.0421
 1841SOL     hw 7362   6.561   4.332   3.702  0.1666 -0.3521 -0.1560
 1841SOL     hw 7363   6.517   4.323   3.847 -0.3893 -1.2900 -0.3781
 1841SOL     vw 7364   6.579   4.317   3.786  0.0029 -0.2544 -0.1014
 1842SOL     ow 7365   3.715   2.705   4.094  0.8516 -0.5134 -0.2685
 1842SOL     hw 7366   3.688   2.620   4.129  3.1290 -0.8636  0.8251
 1842SOL     hw 7367   3.633   2.751   4.077 -0.4377 -2.7838 -0.5750
 1842SOL     vw 7368   3.700   2.700   4.096  0.9820 -0.8593 -0.1647
 1843SOL     ow 7369   1.064   0.475   3.268  0.0560  0.1362 -0.2579
 1843SOL     hw 7370   0.989   0.487   3.210  0.6717 -0.1329 -1.1237
 1843SOL     hw 7371   1.066   0.381   3.285 -0.1125  0.2128  0.1876
 1843SOL     vw 7372   1.055   0.464   3.263  0.1150  0.1108 -0.3134
 1844SOL     ow 7373   1.713   0.653   7.074 -0.1774 -0.3197 -0.5447
 1844SOL     hw 7374   1.696   0.602   7.153 -0.2402  0.0169 -0.3388
 1844SOL     hw 7375   1.647   0.623   7.011  0.0257 -0.7612 -0.5550
 1844SOL     vw 7376   1.702   0.642   7.076 -0.1588 -0.3335 -0.5190
 1845SOL     ow 7377   5.440   4.776   5.649 -0.5766  0.5589  0.4245
 1845SOL     hw 7378   5.386   4.851   5.626 -0.0685  0.3785 -1.6019
 1845SOL     hw 7379   5.507   4.773   5.580  1.4934  0.2501  2.3295
 1845SOL     vw 7380   5.442   4.786   5.637 -0.2365  0.4945  0.4082
 1846SOL     ow 7381   0.777   6.025   2.242  0.8826  0.5968 -0.2644
 1846SOL     hw 7382   0.807   6.040   2.331 -1.5486  1.8211  0.4329
 1846SOL     hw 7383   0.847   6.059   2.187  1.7517  1.2537  1.1925
 1846SOL     vw 7384   0.790   6.032   2.246  0.6765  0.8452  0.0198
 1847SOL     ow 7385   5.010   3.660   4.609 -0.3416 -0.6100 -0.0917
 1847SOL     hw 7386   5.056   3.595   4.557 -0.5413 -1.6152  0.9380
 1847SOL     hw 7387   5.038   3.642   4.699 -1.3894 -0.1137  0.3499
 1847SOL     vw 7388   5.020   3.649   4.614 -0.5059 -0.6771  0.1028
 1848SOL     ow 7389   2.650   0.328   5.991 -0.2471  0.1871 -0.1824
 1848SOL     hw 7390   2.685   0.307   5.904 -0.7515  0.4271 -0.4527
 1848SOL     hw 7391   2.561   0.360   5.973 -1.4078 -2.3422  0.6437
 1848SOL     vw 7392   2.643   0.330   5.977 -0.4668 -0.1149 -0.1092
 1849SOL     ow 7393   4.251   6.460   2.830  0.1176 -0.0717 -0.5482
 1849SOL     hw 7394   4.256   6.547   2.870  1.5370  0.6556 -2.1822
 1849SOL     hw 7395   4.244   6.477   2.736 -1.3713 -1.7353 -0.8061
 1849SOL     vw 7396   4.250   6.474   2.823  0.1085 -0.1953 -0.7979
 1850SOL     ow 7397   6.546   5.156   5.878  0.2784 -0.4413 -0.0221
 1850SOL     hw 7398   6.609   5.098   5.921 -0.2815 -1.7133 -0.8740
 1850SOL     hw 7399   6.600   5.217   5.828  0.8584 -0.8292  0.1174
 1850SOL     vw 7400   6.561   5.156   5.877  0.2811 -0.6604 -0.1161
 1851SOL     ow 7401   1.992   4.241   0.492 -0.3243 -0.1037  0.3194
 1851SOL     hw 7402   2.042   4.161   0.475  0.0283 -0.1505  1.4774
 1851SOL     hw 7403   2.030   4.276   0.573 -1.9519  0.0394  1.0569
 1851SOL     vw 7404   2.004   4.235   0.500 -0.4925 -0.0908  0.5695
 1852SOL     ow 7405   3.799   4.037   4.544 -0.1145  0.0550 -0.4713
 1852SOL     hw 7406   3.846   4.059   4.463  1.4399 -1.3967 -0.0321
 1852SOL     hw 7407   3.782   3.944   4.537 -2.0011  0.3421 -0.0927
 1852SOL     vw 7408   3.803   4.028   4.533 -0.1584 -0.0985 -0.3636
 1853SOL     ow 7409   5.446   0.203   7.059 -0.3480 -0.0781 -0.3138
 1853SOL     hw 7410   5.424   0.279   7.114 -0.3418  0.2193 -0.7218
 1853SOL     hw 7411   5.521   0.232   7.008  0.7742 -0.9385  0.7699
 1853SOL     vw 7412   5.453   0.217   7.060 -0.1991 -0.1524 -0.2246
 1854SOL     ow 7413   5.686   5.296   6.933 -0.9345 -0.4903  0.5861
 1854SOL     hw 7414   5.597   5.271   6.961  0.0855 -3.0710  1.9125
 1854SOL     hw 7415   5.739   5.287   7.012  0.8772 -1.1159 -0.6438
 1854SOL     vw 7416   5.681   5.291   6.947 -0.5610 -0.9134  0.5987
 1855SOL     ow 7417   6.097   0.298   3.959  0.0916  0.3042  0.3190
 1855SOL     hw 7418   6.103   0.331   4.048 -1.3582 -0.3922  0.7070
 1855SOL     hw 7419   6.125   0.207   3.965  0.7634  0.4768 -0.0983
 1855SOL     vw 7420   6.101   0.290   3.971 -0.0110  0.2351  0.3152
 1856SOL     ow 7421   3.487   2.841   4.007 -0.6983 -0.1459 -0.3213
 1856SOL     hw 7422   3.459   2.912   4.064 -1.1193 -0.3631 -0.2515
 1856SOL     hw 7423   3.411   2.824   3.951  0.2632  1.2128 -2.1200
 1856SOL     vw 7424   3.473   2.848   4.007 -0.6269  0.0048 -0.5496
 1857SOL     ow 7425   1.427   6.698   2.952  0.2084  1.1339 -0.0220
 1857SOL     hw 7426   1.335   6.684   2.933  0.0616  1.5076  0.3970
 1857SOL     hw 7427   1.437   6.793   2.957  0.5209  1.0879  0.3745
 1857SOL     vw 7428   1.416   6.709   2.950  0.2304  1.1771  0.0856
 1858SOL     ow 7429   6.262   3.706   5.650 -0.0879 -0.5200  0.7215
 1858SOL     hw 7430   6.358   3.704   5.655 -0.0058  1.6606  1.0869
 1858SOL     hw 7431   6.244   3.720   5.557 -0.2112 -3.2131  0.2451
 1858SOL     vw 7432   6.272   3.708   5.638 -0.0935 -0.5876  0.7067
 1859SOL     ow 7433   0.409   1.221   6.332  0.4896  0.3245  0.4608
 1859SOL     hw 7434   0.475   1.192   6.395  1.5140 -1.0715 -1.1800
 1859SOL     hw 7435   0.431   1.175   6.251 -1.8885  0.6258 -0.4365
 1859SOL     vw 7436   0.421   1.211   6.330  0.3110  0.1801  0.1261
 1860SOL     ow 7437   5.733   1.561   1.103  0.2339  0.1063  0.2725
 1860SOL     hw 7438   5.751   1.650   1.133 -3.1468  1.6431 -1.6170
 1860SOL     hw 7439   5.766   1.505   1.172  0.6392  2.9134  2.5591
 1860SOL     vw 7440   5.740   1.566   1.116 -0.1585  0.6794  0.3248
 1861SOL     ow 7441   6.278   2.637   2.644 -0.3037 -0.6587 -0.1167
 1861SOL     hw 7442   6.219   2.709   2.620  0.2247  0.0471  0.6467
 1861SOL     hw 7443   6.279   2.581   2.567 -3.2556 -1.5729  0.3839
 1861SOL     vw 7444   6.270   2.639   2.631 -0.6230 -0.6860  0.0501
 1862SOL     ow 7445   0.171   6.115   6.288  0.0568  0.0083  0.1455
 1862SOL     hw 7446   0.140   6.046   6.228 -1.0422 -0.0212  0.7129
 1862SOL     hw 7447   0.257   6.140   6.254 -0.6552  0.2087 -1.6468
 1862SOL     vw 7448   0.178   6.109   6.275 -0.1821  0.0308 -0.0162
 1863SOL     ow 7449   2.595   1.386   3.218 -0.0976  0.3707  0.0331
 1863SOL     hw 7450   2.685   1.354   3.213 -0.4538 -0.6028 -0.5942
 1863SOL     hw 7451   2.574   1.384   3.311  1.3799  3.1928  0.5369
 1863SOL     vw 7452   2.604   1.382   3.229  0.0503  0.6146  0.0168
 1864SOL     ow 7453   1.433   4.851   2.899 -0.0334 -0.4345  0.6003
 1864SOL     hw 7454   1.481   4.826   2.978 -0.0564  3.9447  2.2817
 1864SOL     hw 7455   1.501   4.869   2.834  0.2201 -0.5357  0.8385
 1864SOL     vw 7456   1.448   4.850   2.900 -0.0030  0.1302  0.8535
 1865SOL     ow 7457   4.157   4.834   5.807 -0.3246  0.2584 -0.0085
 1865SOL     hw 7458   4.124   4.853   5.894 -0.1247 -0.5616  0.2509
 1865SOL     hw 7459   4.232   4.893   5.797 -0.8556  0.9560  0.0318
 1865SOL     vw 7460   4.163   4.845   5.817 -0.3684  0.2422  0.0310
 1866SOL     ow 7461   1.055   4.386   3.266  0.6154  0.7175  0.5545
 1866SOL     hw 7462   1.072   4.440   3.343  0.6885 -0.6827  1.5647
 1866SOL     hw 7463   0.960   4.378   3.262  0.6392  0.0349  1.0758
 1866SOL     vw 7464   1.045   4.392   3.275  0.6281  0.4425  0.7565
 1867SOL     ow 7465   2.671   0.031   6.638  0.1634  0.9698  0.1976
 1867SOL     hw 7466   2.717   0.044   6.721 -1.1441  0.3838  1.0450
 1867SOL     hw 7467   2.627  -0.054   6.648 -0.8007  1.3387 -0.7202
 1867SOL     vw 7468   2.672   0.021   6.650 -0.1364  0.9412  0.1884
 1868SOL     ow 7469   6.912   5.834   4.387 -0.3926  0.6626 -0.4943
 1868SOL     hw 7470   6.908   5.888   4.307  2.8033  1.2006 -0.4236
 1868SOL     hw 7471   6.892   5.746   4.357  0.2181  0.9434 -1.8192
 1868SOL     vw 7472   6.909   5.830   4.372  0.1097  0.7706 -0.6597
 1869SOL     ow 7473   1.946   4.953   1.045  0.1975  0.0186 -0.1250
 1869SOL     hw 7474   1.877   4.919   0.989 -0.2633 -1.4178  1.2172
 1869SOL     hw 7475   1.900   4.989   1.121  0.8841 -1.4744  1.0541
 1869SOL     vw 7476   1.931   4.953   1.048  0.2273 -0.3679  0.2077
 1870SOL     ow 7477   6.614   4.722   2.242 -0.4222 -0.2117 -0.1896
 1870SOL     hw 7478   6.665   4.733   2.161 -2.3605 -2.6591 -1.9301
 1870SOL     hw 7479   6.563   4.802   2.249  2.0460  1.4176  0.4906
 1870SOL     vw 7480   6.614   4.734   2.232 -0.3521 -0.3197 -0.3295
 1871SOL     ow 7481   6.548   5.469   1.171  0.0881  0.4673 -0.0996
 1871SOL     hw 7482   6.521   5.377   1.181  2.6356 -0.1947  1.5993
 1871SOL     hw 7483   6.467   5.519   1.181 -1.4707 -1.5549 -1.5808
 1871SOL     vw 7484   6.534   5.463   1.174  0.2182  0.1132 -0.0708
 1872SOL     ow 7485   1.393   6.875   7.048  0.1146  0.0327 -0.2988
 1872SOL     hw 7486   1.463   6.820   7.013  1.1519  0.2802  1.2417
 1872SOL     hw 7487   1.379   6.842   7.137  1.2590  2.5625  0.9560
 1872SOL     vw 7488   1.400   6.864   7.055  0.4025  0.3991  0.0701
 1873SOL     ow 7489   6.461   1.613   2.891 -0.3258  0.0736 -0.1315
 1873SOL     hw 7490   6.439   1.655   2.974  0.4444  0.6460 -0.2074
 1873SOL     hw 7491   6.425   1.670   2.824 -0.4726 -0.1039 -0.2035
 1873SOL     vw 7492   6.453   1.626   2.893 -0.2437  0.1256 -0.1509
 1874SOL     ow 7493   1.564   5.511   4.759 -0.0807 -0.3973  0.5909
 1874SOL     hw 7494   1.594   5.497   4.849 -1.1412  0.9158  1.1918
 1874SOL     hw 7495   1.618   5.583   4.726  1.0838 -1.6096 -0.2655
 1874SOL     vw 7496   1.575   5.518   4.766 -0.0670 -0.3841  0.5569
 1875SOL     ow 7497   0.341   6.832   5.133 -0.2894 -0.0003 -0.0831
 1875SOL     hw 7498   0.290   6.899   5.087 -1.3284 -2.4983 -2.9692
 1875SOL     hw 7499   0.285   6.804   5.205 -1.7349 -0.5606 -1.3656
 1875SOL     vw 7500   0.327   6.837   5.136 -0.6172 -0.4036 -0.6332
 1876SOL     ow 7501   6.398   1.077   4.541  0.2541 -0.0586 -0.1409
 1876SOL     hw 7502   6.342   1.154   4.542 -0.1809 -0.3606 -0.5326
 1876SOL     hw 7503   6.463   1.093   4.609  1.4035  1.5459 -1.5619
 1876SOL     vw 7504   6.399   1.089   4.550  0.3486  0.1133 -0.3798
 1877SOL     ow 7505   2.162   5.672   5.862  0.4519 -0.4837 -0.6196
 1877SOL     hw 7506   2.124   5.623   5.790  2.6423 -1.5149 -1.1504
 1877SOL     hw 7507   2.150   5.764   5.838 -1.7389 -0.7363 -0.6765
 1877SOL     vw 7508   2.156   5.678   5.850  0.4518 -0.6528 -0.6971
 1878SOL     ow 7509   6.822   4.169   2.187  0.6427  0.6155 -1.1115
 1878SOL     hw 7510   6.731   4.185   2.211  1.2278  0.9205  1.0583
 1878SOL     hw 7511   6.819   4.153   2.093 -1.7495 -0.1271 -0.9728
 1878SOL     vw 7512   6.809   4.169   2.178  0.4044  0.5579 -0.8069
 1879SOL     ow 7513   3.147   4.554   5.638  0.1080  0.3856 -0.1984
 1879SOL     hw 7514   3.129   4.534   5.730  1.1306  0.7967  0.1063
 1879SOL     hw 7515   3.076   4.613   5.613 -0.3230  0.0730  0.2455
 1879SOL     vw 7516   3.135   4.559   5.647  0.1862  0.3984 -0.0997
 1880SOL     ow 7517   2.566   1.177   0.667  0.6651 -0.2336  0.1924
 1880SOL     hw 7518   2.556   1.270   0.647 -2.9621 -0.3883  0.6186
 1880SOL     hw 7519   2.560   1.171   0.762 -0.8331 -0.9965  0.0757
 1880SOL     vw 7520   2.564   1.188   0.677 -0.0111 -0.3546  0.2333
 1881SOL     ow 7521   4.431   5.343   6.258 -0.3900  0.1003 -0.1228
 1881SOL     hw 7522   4.358   5.388   6.215 -0.0452  0.1606 -0.6560
 1881SOL     hw 7523   4.453   5.270   6.199 -1.4837 -1.3027  1.1360
 1881SOL     vw 7524   4.424   5.339   6.244 -0.4888 -0.0772 -0.0269
 1882SOL     ow 7525   4.202   6.620   3.515 -0.5863 -0.7012 -0.3863
 1882SOL     hw 7526   4.175   6.709   3.539  0.2406 -0.4996 -0.1863
 1882SOL     hw 7527   4.190   6.569   3.595  2.9215  0.1331  0.8615
 1882SOL     vw 7528   4.197   6.625   3.529 -0.0141 -0.5646 -0.1953
 1883SOL     ow 7529   5.735   5.238   6.608 -0.0444  0.1396 -0.5523
 1883SOL     hw 7530   5.704   5.280   6.527  3.2648  0.6034 -1.7221
 1883SOL     hw 7531   5.779   5.158   6.578 -0.5994 -0.8384  1.0670
 1883SOL     vw 7532   5.737   5.233   6.593  0.3190  0.0720 -0.4930
 1884SOL     ow 7533   3.327   5.855   7.114 -0.0702 -0.0161 -0.6202
 1884SOL     hw 7534   3.389   5.926   7.096 -0.1811  0.2689  0.0808
 1884SOL     hw 7535   3.257   5.867   7.049 -0.5860  1.1390  0.1085
 1884SOL     vw 7536   3.326   5.866   7.103 -0.1529  0.1743 -0.4315
 1885SOL     ow 7537   6.469   5.806   0.830 -0.0616 -0.4989 -0.1289
 1885SOL     hw 7538   6.456   5.765   0.916  0.6822 -1.6065 -0.5256
 1885SOL     hw 7539   6.532   5.876   0.846 -0.4545 -0.2403  0.3428
 1885SOL     vw 7540   6.475   5.810   0.844 -0.0153 -0.6111 -0.1190
 1886SOL     ow 7541   0.759   0.228   1.199 -0.5138 -0.3724  0.6885
 1886SOL     hw 7542   0.719   0.233   1.286 -1.6359 -0.9281  0.2288
 1886SOL     hw 7543   0.751   0.135   1.175  2.2721 -0.8139  1.1015
 1886SOL     vw 7544   0.753   0.216   1.207 -0.2943 -0.5040  0.6824
 1887SOL     ow 7545   4.352   6.228   3.011  0.6676  0.4984 -0.5509
 1887SOL     hw 7546   4.334   6.150   2.959  0.4778 -1.6956  2.5501
 1887SOL     hw 7547   4.270   6.278   3.008 -0.4597 -1.2174  0.2022
 1887SOL     vw 7548   4.339   6.224   3.004  0.4938 -0.0174 -0.0424
 1888SOL     ow 7549   2.466   2.890   3.049  0.5329 -0.0103  0.1007
 1888SOL     hw 7550   2.378   2.919   3.070 -0.2398 -1.0708 -1.4805
 1888SOL     hw 7551   2.518   2.970   3.047 -0.4715  0.6696  0.6248
 1888SOL     vw 7552   2.461   2.904   3.052  0.2984 -0.0606 -0.0389
 1889SOL     ow 7553   6.100   2.648   4.111  0.3890  0.0427 -0.1074
 1889SOL     hw 7554   6.187   2.673   4.079  0.4007  1.3350  0.8121
 1889SOL     hw 7555   6.113   2.564   4.155  1.0688 -0.0144 -0.4061
 1889SOL     vw 7556   6.113   2.641   4.113  0.4804  0.2056 -0.0253
 1890SOL     ow 7557   1.925   4.603   2.323 -0.3137 -0.5170  0.0714
 1890SOL     hw 7558   1.925   4.562   2.409  0.7628 -0.4038  0.1320
 1890SOL     hw 7559   1.894   4.535   2.264 -0.2884 -0.8426  0.4302
 1890SOL     vw 7560   1.921   4.589   2.327 -0.1684 -0.5450  0.1267
 1891SOL     ow 7561   5.460   4.119   1.541  0.1550  0.4653 -0.2093
 1891SOL     hw 7562   5.531   4.183   1.548 -0.3259  1.2098 -1.6971
 1891SOL     hw 7563   5.459   4.094   1.448 -0.5701 -0.6680  0.0797
 1891SOL     vw 7564   5.469   4.124   1.530 -0.0041  0.4139 -0.3675
 1892SOL     ow 7565   1.119   4.564   1.545 -0.0836  0.0179  0.2021
 1892SOL     hw 7566   1.175   4.576   1.468  0.2701 -0.9817  0.2830
 1892SOL     hw 7567   1.054   4.633   1.539  1.2704  1.3516  0.1930
 1892SOL     vw 7568   1.118   4.574   1.534  0.1417  0.0620  0.2116
 1893SOL     ow 7569   2.281   6.490   2.294 -0.3234  0.3917 -0.3706
 1893SOL     hw 7570   2.349   6.423   2.290 -0.9944 -0.3409  0.2080
 1893SOL     hw 7571   2.221   6.468   2.223  0.8050  1.9333 -1.8866
 1893SOL     vw 7572   2.282   6.478   2.284 -0.2631  0.4985 -0.4942
 1894SOL     ow 7573   5.164   0.525   0.390  0.0300 -0.3891  0.7149
 1894SOL     hw 7574   5.212   0.582   0.451  1.1259 -0.3418 -0.1542
 1894SOL     hw 7575   5.182   0.437   0.421 -0.6880 -0.3173  1.3593
 1894SOL     vw 7576   5.173   0.521   0.402  0.0796 -0.3734  0.6853
 1895SOL     ow 7577   4.260   0.202   2.918 -0.1430  0.2244 -0.3350
 1895SOL     hw 7578   4.332   0.263   2.906 -0.0873  0.1960 -0.1580
 1895SOL     hw 7579   4.258   0.150   2.837  0.8492 -0.6187  0.1519
 1895SOL     vw 7580   4.269   0.203   2.906 -0.0045  0.1094 -0.2475
 1896SOL     ow 7581   6.116   4.951   0.666 -0.3635  0.1062 -0.5164
 1896SOL     hw 7582   6.093   4.997   0.747  0.7727  2.6783 -1.5353
 1896SOL     hw 7583   6.145   4.865   0.694 -0.7140  0.6694  1.7437
 1896SOL     vw 7584   6.117   4.946   0.680 -0.2596  0.5198 -0.3526
 1897SOL     ow 7585   0.887   2.755   4.292  0.6934 -0.6713 -0.5388
 1897SOL     hw 7586   0.976   2.774   4.324  0.5125 -0.1504 -0.3332
 1897SOL     hw 7587   0.840   2.725   4.369 -0.1986  2.1285  0.1167
 1897SOL     vw 7588   0.893   2.753   4.306  0.5519 -0.2333 -0.4256
 1898SOL     ow 7589   3.015   4.017   3.664 -0.2659  0.2600 -0.5788
 1898SOL     hw 7590   3.066   3.981   3.736  0.9852  1.1322 -0.9856
 1898SOL     hw 7591   2.996   4.107   3.691  1.1882  0.9783 -1.7491
 1898SOL     vw 7592   3.019   4.024   3.677  0.0910  0.4697 -0.7869
 1899SOL     ow 7593   0.879   6.736   4.994  0.2830  0.1376 -0.0235
 1899SOL     hw 7594   0.940   6.673   5.032 -0.2273  0.2712  1.0415
 1899SOL     hw 7595   0.929   6.779   4.925  1.3765  0.1908  0.7764
 1899SOL     vw 7596   0.894   6.733   4.990  0.3600  0.1621  0.2224
 1900SOL     ow 7597   3.961   1.015   1.745  0.4824 -0.0609 -0.8272
 1900SOL     hw 7598   3.992   1.106   1.751  0.2910  0.1478 -2.5093
 1900SOL     hw 7599   3.988   0.986   1.658 -0.2751 -1.3124 -0.6643
 1900SOL     vw 7600   3.968   1.023   1.734  0.3573 -0.1984 -1.0276
 1901SOL     ow 7601   0.597   6.126   2.727 -0.2019  0.1224 -0.4255
 1901SOL     hw 7602   0.595   6.123   2.822 -0.7686 -3.0847 -0.4532
 1901SOL     hw 7603   0.690   6.132   2.706  0.1796 -2.1347  0.3787
 1901SOL     vw 7604   0.609   6.127   2.737 -0.2264 -0.5984 -0.3229
 1902SOL     ow 7605   5.336   0.647   0.574  0.9019  0.5579  0.0087
 1902SOL     hw 7606   5.419   0.608   0.546  1.2154 -0.9608  2.7469
 1902SOL     hw 7607   5.359   0.699   0.651 -0.7013 -0.1484  1.0087
 1902SOL     vw 7608   5.350   0.649   0.580  0.7319  0.2643  0.5019
 1903SOL     ow 7609   2.954   0.600   2.745  0.2726  0.0908  0.5563
 1903SOL     hw 7610   2.937   0.594   2.651  1.1382 -2.0897  0.4724
 1903SOL     hw 7611   2.868   0.587   2.786  0.1298 -0.4854  0.0738
 1903SOL     vw 7612   2.940   0.597   2.738  0.3680 -0.2730  0.4816
 1904SOL     ow 7613   1.634   5.163   5.963  0.7097  0.0845  0.3525
 1904SOL     hw 7614   1.708   5.122   6.009  2.4237 -0.9650 -2.9875
 1904SOL     hw 7615   1.577   5.090   5.941  0.2727  0.4734  0.1942
 1904SOL     vw 7616   1.637   5.148   5.966  0.8782 -0.0021 -0.1090
 1905SOL     ow 7617   1.032   6.349   1.499  0.8545 -0.0939 -0.6473
 1905SOL     hw 7618   1.053   6.372   1.589 -1.7306  0.1525 -0.0320
 1905SOL     hw 7619   1.102   6.289   1.473  1.2775 -0.7726  1.7815
 1905SOL     vw 7620   1.044   6.344   1.508  0.5693 -0.1509 -0.2457
 1906SOL     ow 7621   1.927   4.853   6.889 -0.1853  0.2429 -0.4432
 1906SOL     hw 7622   1.937   4.875   6.796  0.7192 -0.0734 -0.4317
 1906SOL     hw 7623   1.993   4.906   6.934  0.0389 -0.3061 -0.0991
 1906SOL     vw 7624   1.937   4.863   6.883 -0.0363  0.1287 -0.3963
 1907SOL     ow 7625   0.556   3.610   2.546 -0.7006  0.3120 -0.0622
 1907SOL     hw 7626   0.603   3.658   2.615  0.0246  0.2527 -0.5006
 1907SOL     hw 7627   0.587   3.520   2.555 -1.6985  0.0030  0.4498
 1907SOL     vw 7628   0.566   3.605   2.556 -0.7366  0.2633 -0.0526
 1908SOL     ow 7629   0.380   5.935   5.645  0.3957 -0.0173  0.4819
 1908SOL     hw 7630   0.329   5.859   5.621  1.3667 -1.1490  1.8396
 1908SOL     hw 7631   0.447   5.902   5.705  1.4686  1.7312  0.3414
 1908SOL     vw 7632   0.382   5.921   5.650  0.6654  0.0641  0.6428
 1909SOL     ow 7633   0.710   4.983   6.307 -0.1535  0.3813  0.7195
 1909SOL     hw 7634   0.700   5.066   6.353 -0.5564  1.3955 -1.1080
 1909SOL     hw 7635   0.784   4.996   6.249 -2.0091  0.5992 -1.7796
 1909SOL     vw 7636   0.718   4.996   6.305 -0.4515  0.5441  0.1488
 1910SOL     ow 7637   2.614   6.847   3.053 -0.8067  0.1811  0.2706
 1910SOL     hw 7638   2.666   6.810   3.124 -1.0824  1.4625  1.1644
 1910SOL     hw 7639   2.523   6.829   3.077 -0.8642 -1.9992 -1.2556
 1910SOL     vw 7640   2.608   6.840   3.065 -0.8507  0.0627  0.1872
 1911SOL     ow 7641   4.500   1.379   1.439  0.2807 -0.1653  0.4369
 1911SOL     hw 7642   4.524   1.358   1.529 -3.0126 -0.5211  1.3733
 1911SOL     hw 7643   4.419   1.330   1.424 -1.2254  2.6125 -1.4404
 1911SOL     vw 7644   4.493   1.370   1.449 -0.3524  0.1542  0.3127
 1912SOL     ow 7645   2.195   2.884   2.820 -0.3453  0.0090  0.4179
 1912SOL     hw 7646   2.162   2.823   2.885  0.0487 -0.6933 -0.0290
 1912SOL     hw 7647   2.208   2.966   2.868 -0.1280 -0.4806  1.2027
 1912SOL     vw 7648   2.193   2.887   2.835 -0.2646 -0.1483  0.4624
 1913SOL     ow 7649   3.377   1.877   5.183 -0.2385 -0.0129 -0.0029
 1913SOL     hw 7650   3.384   1.808   5.117  0.2465  0.7737 -0.7954
 1913SOL     hw 7651   3.342   1.952   5.136 -1.1034  0.1999  0.9288
 1913SOL     vw 7652   3.373   1.878   5.168 -0.2886  0.1190  0.0155
 1914SOL     ow 7653   6.241   5.208   5.894 -0.2945  0.0834  0.2428
 1914SOL     hw 7654   6.176   5.243   5.956 -1.4537  0.2069 -0.9845
 1914SOL     hw 7655   6.256   5.281   5.833  0.3441 -0.2422  0.0081
 1914SOL     vw 7656   6.234   5.223   5.894 -0.3631  0.0565  0.0498
 1915SOL     ow 7657   4.112   0.357   3.126 -0.2359  0.0124 -0.7690
 1915SOL     hw 7658   4.151   0.434   3.083 -1.1035 -0.1938 -1.9722
 1915SOL     hw 7659   4.020   0.380   3.138 -0.0074  0.1075  1.1560
 1915SOL     vw 7660   4.105   0.370   3.122 -0.3202 -0.0023 -0.6737
 1916SOL     ow 7661   2.287   6.181   3.942 -0.0463 -0.8917  0.4118
 1916SOL     hw 7662   2.281   6.196   4.037  0.4371  0.1687  0.2889
 1916SOL     hw 7663   2.197   6.192   3.911 -0.1612 -0.9620  0.7151
 1916SOL     vw 7664   2.274   6.185   3.951  0.0023 -0.7610  0.4355
 1917SOL     ow 7665   4.286   4.096   0.101 -0.2465  1.1120 -0.1306
 1917SOL     hw 7666   4.341   4.164   0.062  1.5136  0.2203  0.6871
 1917SOL     hw 7667   4.322   4.084   0.189 -1.0737 -0.2708  0.0359
 1917SOL     vw 7668   4.298   4.104   0.107 -0.1230  0.8121 -0.0007
 1918SOL     ow 7669   3.245   2.181   0.876  0.2728  0.0769 -0.1183
 1918SOL     hw 7670   3.335   2.171   0.905  0.1520 -0.4268  0.0965
 1918SOL     hw 7671   3.233   2.113   0.810  0.0293  0.0823 -0.0829
 1918SOL     vw 7672   3.255   2.171   0.871  0.2247  0.0112 -0.0853
 1919SOL     ow 7673   6.267   3.699   0.672  0.4474  0.2227  0.3489
 1919SOL     hw 7674   6.354   3.661   0.666 -0.4545 -2.2799  1.5088
 1919SOL     hw 7675   6.244   3.692   0.765 -0.2910  2.6479  0.4332
 1919SOL     vw 7676   6.275   3.693   0.683  0.2308  0.2126  0.5131
 1920SOL     ow 7677   0.821   7.074   1.603 -0.1722 -0.4893 -0.0306
 1920SOL     hw 7678   0.814   7.170   1.600  1.4403 -0.3124 -3.0981
 1920SOL     hw 7679   0.776   7.044   1.524  1.3781 -2.0077 -0.4169
 1920SOL     vw 7680   0.814   7.083   1.592  0.2451 -0.6663 -0.4863
 1921SOL     ow 7681   6.020   1.994   0.294 -0.4403  1.0024  0.2138
 1921SOL     hw 7682   5.939   1.957   0.330 -0.8908  2.2510  0.5446
 1921SOL     hw 7683   6.076   1.918   0.278 -0.8307  0.2625  2.0515
 1921SOL     vw 7684   6.017   1.979   0.297 -0.5512  1.0695  0.4999
 1922SOL     ow 7685   0.904   6.453   1.253  0.2113  0.2778 -0.3056
 1922SOL     hw 7686   0.946   6.534   1.223 -0.0898 -0.3423 -2.5313
 1922SOL     hw 7687   0.912   6.392   1.180 -0.5387 -1.3791  0.9136
 1922SOL     vw 7688   0.911   6.456   1.240  0.0726 -0.0224 -0.4383
 1923SOL     ow 7689   1.816   6.682   4.558 -0.2158  0.2467 -0.0735
 1923SOL     hw 7690   1.724   6.676   4.584 -0.0901  2.3726  1.1312
 1923SOL     hw 7691   1.816   6.743   4.484  0.3114  1.3273  0.7876
 1923SOL     vw 7692   1.803   6.689   4.552 -0.1296  0.6700  0.1991
 1924SOL     ow 7693   5.730   6.091   3.567 -0.1245  0.2702  0.5598
 1924SOL     hw 7694   5.733   5.995   3.570  0.0813  0.2845  3.3499
 1924SOL     hw 7695   5.814   6.119   3.602 -0.5003  1.4755  0.5385
 1924SOL     vw 7696   5.741   6.082   3.572 -0.1473  0.4313  0.9251
 1925SOL     ow 7697   2.530   2.102   5.587  0.0788 -0.1146  0.0301
 1925SOL     hw 7698   2.549   2.023   5.638 -0.3040 -0.7487 -0.7831
 1925SOL     hw 7699   2.615   2.144   5.575  0.6949 -1.6932 -1.5704
 1925SOL     vw 7700   2.544   2.097   5.592  0.1096 -0.4065 -0.2885
 1926SOL     ow 7701   6.492   4.245   2.439 -0.0385 -0.0271 -0.3000
 1926SOL     hw 7702   6.573   4.281   2.475  0.8734 -1.8171 -0.4463
 1926SOL     hw 7703   6.437   4.228   2.515 -0.2506  1.0728 -0.1898
 1926SOL     vw 7704   6.496   4.248   2.453  0.0536 -0.1183 -0.3047
 1927SOL     ow 7705   6.191   0.995   5.981 -0.4804  0.2221  0.8391
 1927SOL     hw 7706   6.246   0.917   5.984  0.9084  1.1213 -0.4100
 1927SOL     hw 7707   6.204   1.036   6.067  0.1529 -0.0093  0.8614
 1927SOL     vw 7708   6.200   0.990   5.993 -0.2139  0.3102  0.6776
 1928SOL     ow 7709   4.124   3.612   0.642  0.6756 -0.2137  0.0460
 1928SOL     hw 7710   4.157   3.670   0.573  1.5393 -1.3549 -0.5471
 1928SOL     hw 7711   4.053   3.564   0.600  0.9683 -0.6597  0.0555
 1928SOL     vw 7712   4.119   3.613   0.627  0.8283 -0.4231 -0.0310
 1929SOL     ow 7713   5.189   3.744   3.475  0.6404  0.9403  0.2677
 1929SOL     hw 7714   5.219   3.690   3.402  0.4359  1.6306 -0.3280
 1929SOL     hw 7715   5.094   3.732   3.476  0.5721  1.4721 -0.0054
 1929SOL     vw 7716   5.180   3.735   3.466  0.6044  1.1014  0.1531
 1930SOL     ow 7717   2.309   6.788   1.977  0.2347 -0.3052  0.6764
 1930SOL     hw 7718   2.370   6.740   1.922 -0.6085 -0.9619  0.2734
 1930SOL     hw 7719   2.345   6.876   1.983  0.7855 -0.4583 -0.2158
 1930SOL     vw 7720   2.321   6.793   1.971  0.1961 -0.4120  0.5056
 1931SOL     ow 7721   0.060   3.160   2.279 -0.3410 -0.1716 -0.0098
 1931SOL     hw 7722   0.109   3.240   2.264 -1.2715  0.2680 -0.8217
 1931SOL     hw 7723   0.020   3.171   2.366 -0.8554  0.4649 -0.3193
 1931SOL     vw 7724   0.061   3.172   2.289 -0.5316 -0.0296 -0.1578
 1932SOL     ow 7725   0.431   0.783   1.536 -0.1382 -0.3371  0.1277
 1932SOL     hw 7726   0.518   0.766   1.570  0.4981 -0.4622 -1.4770
 1932SOL     hw 7727   0.373   0.777   1.612  1.4616  1.6998  1.6084
 1932SOL     vw 7728   0.435   0.780   1.550  0.1568 -0.0848  0.1113
 1933SOL     ow 7729   4.039   0.998   6.436  0.2261 -0.4544 -0.1178
 1933SOL     hw 7730   4.068   1.070   6.492  0.3483 -0.5220 -0.0945
 1933SOL     hw 7731   4.070   1.023   6.348 -0.0472 -0.3029 -0.1728
 1933SOL     vw 7732   4.047   1.011   6.432  0.2062 -0.4433 -0.1221
 1934SOL     ow 7733   2.239   5.848   6.082 -0.0741  0.2761 -0.6265
 1934SOL     hw 7734   2.238   5.896   6.165  0.5549 -0.5910 -0.0968
 1934SOL     hw 7735   2.250   5.916   6.016  3.6766  0.7819  0.2613
 1934SOL     vw 7736   2.241   5.863   6.085  0.5038  0.2284 -0.4392
 1935SOL     ow 7737   6.052   6.419   3.383 -0.1125  0.2292  0.0424
 1935SOL     hw 7738   6.050   6.342   3.327  1.3043  0.3795 -0.2490
 1935SOL     hw 7739   5.964   6.426   3.418 -0.6244 -0.7123 -1.0230
 1935SOL     vw 7740   6.040   6.410   3.381  0.0069  0.1249 -0.1367
 1936SOL     ow 7741   3.662   2.059   0.078 -1.3626 -0.0919  0.1134
 1936SOL     hw 7742   3.608   2.134   0.053 -3.0009 -0.4910  2.1498
 1936SOL     hw 7743   3.748   2.097   0.100 -1.2140  0.7450 -1.7401
 1936SOL     vw 7744   3.667   2.074   0.078 -1.5590 -0.0342  0.1375
 1937SOL     ow 7745   0.380   3.384   3.018  0.0598  0.1004 -0.1955
 1937SOL     hw 7746   0.412   3.299   3.046 -0.9749 -0.3404 -0.2954
 1937SOL     hw 7747   0.458   3.438   3.009  0.6167 -0.4585  1.1429
 1937SOL     vw 7748   0.394   3.380   3.020 -0.0033 -0.0314 -0.0321
 1938SOL     ow 7749   6.642   2.654   2.644 -0.4438 -0.6427 -0.0471
 1938SOL     hw 7750   6.699   2.579   2.628 -0.2065 -0.4365 -0.1794
 1938SOL     hw 7751   6.665   2.716   2.574 -1.1079 -0.7202 -0.3433
 1938SOL     vw 7752   6.652   2.652   2.633 -0.5000 -0.6256 -0.1037
 1939SOL     ow 7753   3.558   2.573   2.460  0.5353 -0.3348 -0.8937
 1939SOL     hw 7754   3.482   2.628   2.442  0.1210  0.1718  1.9920
 1939SOL     hw 7755   3.617   2.589   2.385  0.1887  3.6232 -0.5423
 1939SOL     vw 7756   3.556   2.582   2.448  0.4349  0.2542 -0.4667
 1940SOL     ow 7757   4.381   0.527   6.997 -0.7019 -0.3161 -0.3840
 1940SOL     hw 7758   4.462   0.573   6.975 -0.2479 -1.4900 -1.2505
 1940SOL     hw 7759   4.375   0.533   7.092  0.2362  0.0717 -0.3419
 1940SOL     vw 7760   4.391   0.534   7.007 -0.5183 -0.4198 -0.4928
 1941SOL     ow 7761   6.515   0.844   1.922 -0.4492  0.8474 -0.2230
 1941SOL     hw 7762   6.480   0.817   1.837  1.1210  1.9900 -1.3052
 1941SOL     hw 7763   6.563   0.768   1.953  0.2004  0.8877 -1.0924
 1941SOL     vw 7764   6.517   0.831   1.915 -0.1564  1.0035 -0.4806
 1942SOL     ow 7765   2.539   6.856   5.961  0.2827 -0.2741 -0.6018
 1942SOL     hw 7766   2.620   6.815   5.990  1.0316  1.1860 -0.5494
 1942SOL     hw 7767   2.502   6.895   6.040 -0.6868 -1.2535 -0.5539
 1942SOL     vw 7768   2.545   6.856   5.975  0.2536 -0.2108 -0.5887
 1943SOL     ow 7769   7.018   0.405   4.603  0.1006  1.0353  0.1943
 1943SOL     hw 7770   7.038   0.487   4.557 -0.1482  1.1330  0.2576
 1943SOL     hw 7771   6.938   0.374   4.561  0.1015  0.9120  0.2856
 1943SOL     vw 7772   7.010   0.412   4.591  0.0679  1.0319  0.2148
 1944SOL     ow 7773   6.414   2.585   0.468  0.3780 -0.4706  0.0032
 1944SOL     hw 7774   6.481   2.518   0.476 -0.5768 -1.6351 -1.2817
 1944SOL     hw 7775   6.448   2.659   0.518  1.3640 -1.9622  1.6574
 1944SOL     vw 7776   6.427   2.586   0.476  0.3822 -0.8211  0.0520
 1945SOL     ow 7777   1.535   1.798   5.794  0.6195  0.0300  0.6084
 1945SOL     hw 7778   1.513   1.793   5.887  2.7895 -0.3497  1.1397
 1945SOL     hw 7779   1.452   1.781   5.749 -0.7756  1.6168  2.4427
 1945SOL     vw 7780   1.521   1.795   5.800  0.7218  0.1893  0.9205
 1946SOL     ow 7781   3.443   4.681   6.973 -0.6278 -0.2742 -0.0997
 1946SOL     hw 7782   3.526   4.730   6.970 -0.0082 -0.8319  3.3903
 1946SOL     hw 7783   3.377   4.748   6.987 -0.2320 -0.1142  1.0911
 1946SOL     vw 7784   3.445   4.696   6.974 -0.4939 -0.3264  0.5178
 1947SOL     ow 7785   4.875   0.424   0.363  0.5520  0.0465 -0.1294
 1947SOL     hw 7786   4.835   0.430   0.450  2.7802 -1.5050  1.1012
 1947SOL     hw 7787   4.821   0.359   0.317  0.9704 -1.2935  1.1548
 1947SOL     vw 7788   4.863   0.416   0.369  0.9012 -0.3350  0.2024
 1948SOL     ow 7789   6.960   4.386   0.767 -0.1074  0.4219  0.6954
 1948SOL     hw 7790   6.964   4.352   0.857  2.4216  1.0043  0.8892
 1948SOL     hw 7791   6.899   4.328   0.722  0.4686 -1.4404  2.1844
 1948SOL     vw 7792   6.953   4.374   0.773  0.3023  0.2530  0.9174
 1949SOL     ow 7793   1.315   6.007   6.278  0.6250  0.4381  0.4139
 1949SOL     hw 7794   1.360   6.061   6.213  2.9890 -3.1139 -1.2419
 1949SOL     hw 7795   1.244   5.965   6.229  1.6131 -1.2625  0.3481
 1949SOL     vw 7796   1.312   6.009   6.263  1.0673 -0.2549  0.1869
 1950SOL     ow 7797   6.996   2.311   6.451  0.1264  0.5181  0.5209
 1950SOL     hw 7798   6.909   2.324   6.413  0.1068  1.1615  0.7746
 1950SOL     hw 7799   6.984   2.238   6.512 -0.3262  0.8318  0.8185
 1950SOL     vw 7800   6.983   2.303   6.454  0.0644  0.6444  0.5939
 1951SOL     ow 7801   6.791   1.888   1.805  0.4339 -0.0224  0.5757
 1951SOL     hw 7802   6.707   1.847   1.784  1.2718 -1.6891  0.3406
 1951SOL     hw 7803   6.770   1.954   1.871 -1.2250  0.4426 -0.3715
 1951SOL     vw 7804   6.777   1.891   1.811  0.3259 -0.1810  0.4197
 1952SOL     ow 7805   5.485   3.404   1.022 -0.5186 -0.0360 -0.5464
 1952SOL     hw 7806   5.497   3.470   1.091  1.4368  0.1059 -0.9533
 1952SOL     hw 7807   5.573   3.369   1.007 -0.8990 -0.1475 -2.8906
 1952SOL     vw 7808   5.498   3.408   1.029 -0.3107 -0.0319 -0.9094
 1953SOL     ow 7809   0.005   3.012   6.509  0.1451 -0.0901 -0.5513
 1953SOL     hw 7810   0.004   3.072   6.583  0.1049 -0.0990 -0.5448
 1953SOL     hw 7811  -0.085   2.979   6.503  0.5443 -1.4661  0.4992
 1953SOL     vw 7812  -0.007   3.016   6.518  0.1924 -0.2728 -0.4117
 1954SOL     ow 7813   3.579   1.645   5.232  0.5333 -0.1135 -0.5673
 1954SOL     hw 7814   3.507   1.625   5.292  2.2102 -2.3445  0.8949
 1954SOL     hw 7815   3.540   1.640   5.144 -1.1796 -0.8222  0.1971
 1954SOL     vw 7816   3.564   1.642   5.228  0.5285 -0.5015 -0.2737
 1955SOL     ow 7817   3.137   4.967   1.672 -0.0358 -0.3833  0.3209
 1955SOL     hw 7818   3.226   4.998   1.687 -0.4406  0.1113  1.8820
 1955SOL     hw 7819   3.117   4.912   1.747 -0.9432 -0.7435 -0.1588
 1955SOL     vw 7820   3.146   4.964   1.684 -0.2089 -0.3653  0.4635
 1956SOL     ow 7821   1.959   3.301   5.215  0.0172  0.0296 -0.0390
 1956SOL     hw 7822   1.933   3.354   5.139  1.9579  2.7943  1.0865
 1956SOL     hw 7823   1.893   3.321   5.281 -1.4742 -2.1172 -0.7442
 1956SOL     vw 7824   1.947   3.311   5.213  0.0765  0.1112  0.0165
 1957SOL     ow 7825   4.027   0.474   3.552  1.0076 -0.1722  0.4978
 1957SOL     hw 7826   4.027   0.569   3.556 -0.1922 -0.2067  3.0370
 1957SOL     hw 7827   3.936   0.450   3.534  1.1922 -0.8529  0.4159
 1957SOL     vw 7828   4.015   0.483   3.550  0.8733 -0.2665  0.8219
 1958SOL     ow 7829   2.877   4.767   0.163 -0.2396  0.7537  0.0208
 1958SOL     hw 7830   2.922   4.691   0.200  1.8118  1.6091 -0.5982
 1958SOL     hw 7831   2.889   4.758   0.068 -0.6369  1.4769 -0.1019
 1958SOL     vw 7832   2.884   4.755   0.155 -0.0213  0.9618 -0.0770
 1959SOL     ow 7833   4.482   1.720   5.268 -0.5251 -0.1171 -0.1647
 1959SOL     hw 7834   4.443   1.714   5.356  3.3769  0.7321  1.8550
 1959SOL     hw 7835   4.532   1.639   5.258  0.1074  0.3585 -1.0009
 1959SOL     vw 7836   4.483   1.709   5.279  0.0732  0.0577 -0.0086
 1960SOL     ow 7837   5.531   6.287   3.751 -0.1205  0.0277  0.6586
 1960SOL     hw 7838   5.481   6.321   3.677  0.0570 -1.2377 -0.0795
 1960SOL     hw 7839   5.501   6.338   3.826 -3.6269 -1.5160  0.5361
 1960SOL     vw 7840   5.520   6.298   3.751 -0.5600 -0.3428  0.5450
 1961SOL     ow 7841   5.557   4.661   3.365  0.4931 -0.1327  0.2150
 1961SOL     hw 7842   5.534   4.749   3.333 -0.0092  0.1548  1.3204
 1961SOL     hw 7843   5.500   4.602   3.314 -0.1648  0.3017  0.4323
 1961SOL     vw 7844   5.546   4.665   3.354  0.3400 -0.0372  0.3896
 1962SOL     ow 7845   2.701   0.567   0.900 -0.3934  0.9647  0.7710
 1962SOL     hw 7846   2.676   0.480   0.930  0.2936  1.3848  2.6949
 1962SOL     hw 7847   2.671   0.626   0.969  2.1107  1.9032  1.1583
 1962SOL     vw 7848   2.694   0.563   0.913  0.0277  1.1439  1.0759
 1963SOL     ow 7849   0.423   0.027   5.930 -0.5069  0.7996  0.1397
 1963SOL     hw 7850   0.454  -0.049   5.880 -0.4247  0.7789  0.2229
 1963SOL     hw 7851   0.353  -0.007   5.985 -1.6941  1.1247 -1.1078
 1963SOL     vw 7852   0.418   0.013   5.931 -0.6527  0.8399 -0.0141
 1964SOL     ow 7853   2.156   0.734   6.121 -0.0218 -0.7034  0.3101
 1964SOL     hw 7854   2.247   0.758   6.103  0.1162 -1.1055  0.4635
 1964SOL     hw 7855   2.159   0.688   6.205 -0.4765 -0.0427  0.6954
 1964SOL     vw 7856   2.169   0.731   6.129 -0.0635 -0.6693  0.3812
 1965SOL     ow 7857   1.921   6.494   4.833  0.0815  0.4938 -0.4998
 1965SOL     hw 7858   1.884   6.521   4.917 -2.7001  0.1365 -1.4823
 1965SOL     hw 7859   1.940   6.401   4.844  0.6124  0.6529 -0.0129
 1965SOL     vw 7860   1.918   6.485   4.845 -0.2154  0.4673 -0.5655
 1966SOL     ow 7861   0.362   2.448   2.680 -0.5556  0.4867 -0.3612
 1966SOL     hw 7862   0.358   2.374   2.740  2.0585  1.6146  1.3814
 1966SOL     hw 7863   0.277   2.490   2.687 -0.5767  0.1438  1.9961
 1966SOL     vw 7864   0.350   2.443   2.689 -0.2135  0.5902  0.1798
 1967SOL     ow 7865   2.874   3.209   1.384  0.1278 -0.2774 -0.4155
 1967SOL     hw 7866   2.831   3.293   1.369  1.2711  0.1989 -1.0635
 1967SOL     hw 7867   2.946   3.229   1.444  0.6248 -0.7309 -0.8592
 1967SOL     vw 7868   2.878   3.222   1.390  0.3443 -0.2744 -0.5595
 1968SOL     ow 7869   2.975   3.695   6.931  0.4608 -0.0081  0.0314
 1968SOL     hw 7870   3.039   3.674   7.000  0.2349 -1.5419 -0.1966
 1968SOL     hw 7871   3.013   3.658   6.851  0.1699  0.7486 -0.4656
 1968SOL     vw 7872   2.989   3.688   6.930  0.3926 -0.1107 -0.0644
 1969SOL     ow 7873   0.297   5.670   0.352  0.5523 -0.0338  0.4171
 1969SOL     hw 7874   0.286   5.581   0.316  1.6369 -0.3250  0.7747
 1969SOL     hw 7875   0.335   5.720   0.279  0.3991  0.0188  0.3722
 1969SOL     vw 7876   0.300   5.665   0.337  0.6752 -0.0656  0.4584
 1970SOL     ow 7877   4.297   1.846   1.516  0.4161 -0.2051  0.1342
 1970SOL     hw 7878   4.248   1.801   1.585 -1.0118 -2.1740 -2.0083
 1970SOL     hw 7879   4.350   1.777   1.476  2.9173  1.3429  0.5886
 1970SOL     vw 7880   4.298   1.831   1.520  0.5577 -0.2606 -0.0885
 1971SOL     ow 7881   1.521   2.667   6.615  0.1326  0.5243  0.1495
 1971SOL     hw 7882   1.544   2.591   6.562  2.7906  1.7498 -0.6113
 1971SOL     hw 7883   1.474   2.725   6.554  1.8430  1.2660 -0.5291
 1971SOL     vw 7884   1.518   2.665   6.600  0.7089  0.7838 -0.0403
 1972SOL     ow 7885   4.562   4.110   6.030 -0.1709 -0.6570 -0.3465
 1972SOL     hw 7886   4.561   4.032   6.085 -1.0097 -1.7215 -1.8202
 1972SOL     hw 7887   4.522   4.083   5.948 -0.3647  1.2921 -0.9565
 1972SOL     vw 7888   4.556   4.096   6.026 -0.3073 -0.5403 -0.6216
 1973SOL     ow 7889   0.423   2.342   4.848 -0.3111 -0.4719 -0.0501
 1973SOL     hw 7890   0.511   2.356   4.812  0.3658 -1.1710  1.2727
 1973SOL     hw 7891   0.367   2.334   4.771  0.6831  0.4929 -0.9236
 1973SOL     vw 7892   0.427   2.343   4.833 -0.0907 -0.4368  0.0091
 1974SOL     ow 7893   1.987   7.062   5.735  0.1791  0.0743 -0.8210
 1974SOL     hw 7894   1.945   7.042   5.651 -1.1031 -1.0519  0.0528
 1974SOL     hw 7895   1.988   7.158   5.738 -2.7982  0.2045 -0.7348
 1974SOL     vw 7896   1.982   7.072   5.724 -0.3829 -0.0570 -0.6945
 1975SOL     ow 7897   3.059   2.541   1.182  0.0957 -0.8257  0.0521
 1975SOL     hw 7898   2.970   2.535   1.216 -0.4459  0.1740 -1.0892
 1975SOL     hw 7899   3.084   2.633   1.194  0.9815 -1.1043  0.3880
 1975SOL     vw 7900   3.051   2.553   1.188  0.1411 -0.7304 -0.0542
 1976SOL     ow 7901   1.299   4.625   5.376 -0.7945  0.0926  0.3226
 1976SOL     hw 7902   1.347   4.707   5.363  0.5041 -0.7068 -0.1643
 1976SOL     hw 7903   1.345   4.582   5.448  0.4813 -1.5409 -1.3721
 1976SOL     vw 7904   1.311   4.630   5.384 -0.4548 -0.2282  0.0348
 1977SOL     ow 7905   5.324   4.575   6.507 -0.5182 -1.0888 -0.4070
 1977SOL     hw 7906   5.386   4.561   6.578 -0.0637  0.5804 -0.4251
 1977SOL     hw 7907   5.372   4.549   6.428 -0.0846 -0.4835 -0.3487
 1977SOL     vw 7908   5.338   4.570   6.506 -0.4010 -0.7889 -0.4017
 1978SOL     ow 7909   6.490   3.314   4.251 -0.0998  0.3427  0.2742
 1978SOL     hw 7910   6.521   3.300   4.162 -0.0632 -1.6902  0.5684
 1978SOL     hw 7911   6.507   3.407   4.268  2.0470  0.2462 -1.0000
 1978SOL     vw 7912   6.496   3.324   4.241  0.1881  0.0616  0.1447
 1979SOL     ow 7913   2.264   0.563   3.278 -0.4428 -0.0123  0.7376
 1979SOL     hw 7914   2.196   0.538   3.340  0.5373 -1.5484  1.2539
 1979SOL     hw 7915   2.345   0.530   3.317  0.2104 -1.0771 -1.3687
 1979SOL     vw 7916   2.266   0.556   3.291 -0.2273 -0.3555  0.5280
 1980SOL     ow 7917   6.914   2.602   4.290  0.0466  0.0035 -0.3361
 1980SOL     hw 7918   6.936   2.512   4.315  0.5524 -0.0350 -0.8744
 1980SOL     hw 7919   6.884   2.594   4.200  0.6191  0.4351 -0.5708
 1980SOL     vw 7920   6.913   2.589   4.281  0.1888  0.0554 -0.4380
 1981SOL     ow 7921   0.114   5.062   0.055 -0.0875  0.1052  0.4347
 1981SOL     hw 7922   0.081   4.973   0.048 -0.7539  0.4347 -1.0554
 1981SOL     hw 7923   0.203   5.058   0.021 -0.5433  0.2028 -0.8410
 1981SOL     vw 7924   0.121   5.050   0.050 -0.2356  0.1616  0.0698
 1982SOL     ow 7925   3.329   2.087   6.982 -0.1255  0.1134 -0.3540
 1982SOL     hw 7926   3.420   2.107   6.962 -0.6226  2.1457 -0.8219
 1982SOL     hw 7927   3.295   2.168   7.021 -2.5176  0.5344 -3.0022
 1982SOL     vw 7928   3.336   2.100   6.985 -0.5068  0.4370 -0.7653
 1983SOL     ow 7929   3.138   5.396   2.063  0.1225 -0.4780 -0.4607
 1983SOL     hw 7930   3.178   5.482   2.072 -0.8848  0.2692 -2.6783
 1983SOL     hw 7931   3.048   5.413   2.036 -0.3295 -2.2244 -0.1815
 1983SOL     vw 7932   3.132   5.409   2.061 -0.0700 -0.6101 -0.7163
 1984SOL     ow 7933   0.931   2.636   2.039 -0.7160  0.2118  0.0661
 1984SOL     hw 7934   1.002   2.581   2.008  0.5061  0.8107  1.6793
 1984SOL     hw 7935   0.973   2.702   2.095 -2.5686  0.2051  1.5793
 1984SOL     vw 7936   0.946   2.638   2.042 -0.7991  0.2898  0.4785
 1985SOL     ow 7937   6.304   5.517   6.403  0.3887  0.0225 -0.5764
 1985SOL     hw 7938   6.219   5.518   6.447  0.1995 -0.3754 -0.9188
 1985SOL     hw 7939   6.291   5.570   6.325  0.8487  1.0935  0.0574
 1985SOL     vw 7940   6.291   5.524   6.398  0.4246  0.1113 -0.5381
 1986SOL     ow 7941   5.922   2.577   3.859  0.9954 -0.1412 -0.5773
 1986SOL     hw 7942   5.991   2.511   3.853 -0.0497 -1.5546  1.5990
 1986SOL     hw 7943   5.854   2.547   3.799  0.2272 -1.5058  0.9132
 1986SOL     vw 7944   5.922   2.565   3.850  0.7563 -0.5077 -0.0937
 1987SOL     ow 7945   0.630   2.194   1.435 -0.2217 -0.1691  0.2048
 1987SOL     hw 7946   0.649   2.126   1.499 -0.6940  0.3242  0.8836
 1987SOL     hw 7947   0.539   2.219   1.452 -0.1159  0.4874 -0.1621
 1987SOL     vw 7948   0.621   2.189   1.445 -0.2701 -0.0174  0.2459
 1988SOL     ow 7949   2.412   0.333   5.149  0.1130 -0.3801 -0.2556
 1988SOL     hw 7950   2.389   0.305   5.060  4.1287 -0.0233 -1.5938
 1988SOL     hw 7951   2.426   0.252   5.197 -1.9898 -0.5752  0.1346
 1988SOL     vw 7952   2.411   0.319   5.144  0.3654 -0.3588 -0.3808
 1989SOL     ow 7953   1.117   4.953   2.987  0.1728 -1.0228 -0.4473
 1989SOL     hw 7954   1.058   4.981   2.917  0.9503  1.2514 -0.2780
 1989SOL     hw 7955   1.065   4.962   3.067  1.1799  3.0493 -0.0450
 1989SOL     vw 7956   1.102   4.958   2.988  0.4083 -0.1853 -0.3719
 1990SOL     ow 7957   1.145   0.770   3.464 -0.1711 -0.4841  0.4376
 1990SOL     hw 7958   1.165   0.734   3.377  0.7221  0.7482  0.1181
 1990SOL     hw 7959   1.199   0.718   3.524 -1.6840 -2.1495  0.4310
 1990SOL     vw 7960   1.155   0.758   3.460 -0.2529 -0.5413  0.3945
 1991SOL     ow 7961   0.191   6.155   5.632  0.3524  0.4396 -0.0453
 1991SOL     hw 7962   0.117   6.211   5.655 -1.0155 -0.4524 -1.9583
 1991SOL     hw 7963   0.175   6.073   5.678  0.7554  0.6029  0.3954
 1991SOL     vw 7964   0.179   6.152   5.641  0.2251  0.3436 -0.2394
 1992SOL     ow 7965   5.916   1.640   3.869  0.2860  0.1247  0.6240
 1992SOL     hw 7966   5.938   1.551   3.839  0.0463  0.9667 -2.4013
 1992SOL     hw 7967   5.821   1.639   3.881 -0.1058  0.5255 -1.8922
 1992SOL     vw 7968   5.907   1.628   3.867  0.2029  0.2887 -0.1070
 1993SOL     ow 7969   1.757   1.584   0.148 -0.1042  0.4999  0.7788
 1993SOL     hw 7970   1.767   1.620   0.060 -0.0062  0.0017  0.5802
 1993SOL     hw 7971   1.663   1.565   0.156 -0.0279 -0.0069  0.5518
 1993SOL     vw 7972   1.746   1.586   0.137 -0.0812  0.3673  0.7227
 1994SOL     ow 7973   0.599   6.137   2.981 -0.0571 -0.4240  0.6481
 1994SOL     hw 7974   0.642   6.222   2.969 -0.3588 -0.3180  0.3040
 1994SOL     hw 7975   0.669   6.078   3.009  0.3799 -0.3497 -0.2773
 1994SOL     vw 7976   0.614   6.141   2.983 -0.0392 -0.4003  0.4807
 1995SOL     ow 7977   0.456   4.025   1.371  0.2201 -0.0286 -0.1187
 1995SOL     hw 7978   0.462   4.075   1.452 -2.0578 -0.5828  0.4608
 1995SOL     hw 7979   0.373   4.053   1.332  0.9053 -0.3421 -1.8994
 1995SOL     vw 7980   0.446   4.036   1.376  0.0100 -0.1435 -0.2772
 1996SOL     ow 7981   0.529   2.263   5.118 -0.0660 -0.0982  0.0065
 1996SOL     hw 7982   0.524   2.215   5.200  1.6976  1.2537  0.9838
 1996SOL     hw 7983   0.591   2.334   5.135  1.0043 -0.2344 -2.7289
 1996SOL     vw 7984   0.537   2.266   5.131  0.3079  0.0622 -0.2255
 1997SOL     ow 7985   3.196   2.185   6.722 -0.1429 -0.6854  0.5650
 1997SOL     hw 7986   3.275   2.211   6.675  1.0640 -1.3032  2.1416
 1997SOL     hw 7987   3.125   2.236   6.681  1.3478  1.3145  0.3297
 1997SOL     vw 7988   3.197   2.195   6.710  0.2130 -0.5031  0.7417
 1998SOL     ow 7989   6.573   3.978   2.455  0.7495  0.1620  0.0885
 1998SOL     hw 7990   6.582   3.940   2.367 -1.3585 -1.3253  0.4377
 1998SOL     hw 7991   6.550   4.070   2.439  0.2895 -0.1142 -0.9412
 1998SOL     vw 7992   6.571   3.985   2.441  0.4108 -0.0707 -0.0012
 1999SOL     ow 7993   5.920   6.125   5.730  0.3854  0.6967 -0.2238
 1999SOL     hw 7994   5.870   6.107   5.810 -0.3123  1.4679 -0.4731
 1999SOL     hw 7995   5.927   6.039   5.687  3.0360 -0.2909  1.8678
 1999SOL     vw 7996   5.914   6.111   5.735  0.6430  0.6683  0.0193
 2000SOL     ow 7997   4.946   6.025   0.517 -0.3103 -0.2502 -0.5744
 2000SOL     hw 7998   4.891   5.953   0.486 -0.4850 -0.7728  0.8907
 2000SOL     hw 7999   5.026   6.017   0.466 -0.3604 -1.4485 -0.4871
 2000SOL     vw 8000   4.949   6.015   0.506 -0.3400 -0.4773 -0.3696
 2001SOL     ow 8001   3.463   0.789   2.694 -0.4055 -0.0691 -0.7304
 2001SOL     hw 8002   3.461   0.868   2.748 -1.0543 -1.2619  1.1110
 2001SOL     hw 8003   3.530   0.735   2.735 -0.2586 -0.6396 -1.7090
 2001SOL     vw 8004   3.471   0.792   2.707 -0.4717 -0.3017 -0.6164
 2002SOL     ow 8005   4.758   6.804   4.630 -0.3272 -0.3316 -0.1760
 2002SOL     hw 8006   4.756   6.885   4.579 -1.1852 -0.4182 -0.3021
 2002SOL     hw 8007   4.821   6.748   4.585  0.5668  0.3978  0.1356
 2002SOL     vw 8008   4.766   6.808   4.618 -0.3223 -0.2470 -0.1514
 2003SOL     ow 8009   0.605   3.841   5.785 -0.1556  0.3222  0.1829
 2003SOL     hw 8010   0.599   3.841   5.881 -0.8472  1.7494  0.1633
 2003SOL     hw 8011   0.674   3.904   5.765 -0.8554  0.9631 -0.2782
 2003SOL     vw 8012   0.613   3.849   5.795 -0.3392  0.5951  0.1197
 2004SOL     ow 8013   5.526   3.379   2.952  0.0868  0.7422  0.2209
 2004SOL     hw 8014   5.448   3.356   2.902 -0.6250  1.0351  1.1661
 2004SOL     hw 8015   5.580   3.300   2.949 -0.9043  0.0145  0.7850
 2004SOL     vw 8016   5.523   3.366   2.945 -0.1376  0.6850  0.4200
 2005SOL     ow 8017   6.224   1.086   5.700 -0.5377 -0.0312  0.0519
 2005SOL     hw 8018   6.284   1.142   5.652  0.2109 -0.3949  0.5419
 2005SOL     hw 8019   6.228   1.002   5.653 -0.2805 -0.2002  0.3712
 2005SOL     vw 8020   6.233   1.082   5.687 -0.4051 -0.1015  0.1588
 2006SOL     ow 8021   1.927   4.506   6.069  0.1743 -0.6790  0.3068
 2006SOL     hw 8022   1.923   4.594   6.031  2.6315 -1.3549 -1.8134
 2006SOL     hw 8023   1.840   4.469   6.053  0.2615  0.0421 -2.3946
 2006SOL     vw 8024   1.915   4.513   6.062  0.5100 -0.6731 -0.3293
 2007SOL     ow 8025   2.767   2.206   5.607 -0.0178  0.0853 -0.0160
 2007SOL     hw 8026   2.809   2.273   5.553  1.2431  0.5763  1.4928
 2007SOL     hw 8027   2.831   2.189   5.677 -2.6548  1.5786  3.0082
 2007SOL     vw 8028   2.781   2.213   5.609 -0.1992  0.3471  0.5817
 2008SOL     ow 8029   3.867   4.321   6.500 -0.0534  0.1476 -0.1576
 2008SOL     hw 8030   3.808   4.247   6.485  0.6247 -0.2452 -0.9990
 2008SOL     hw 8031   3.915   4.330   6.418 -0.0278  1.4469 -0.0260
 2008SOL     vw 8032   3.866   4.313   6.487  0.0396  0.2673 -0.2513
 2009SOL     ow 8033   4.224   3.026   0.516  0.3407  0.9114 -0.3762
 2009SOL     hw 8034   4.309   2.987   0.494  0.6711  1.6598 -0.4645
 2009SOL     hw 8035   4.176   3.028   0.433 -0.8853 -2.0828  0.1434
 2009SOL     vw 8036   4.229   3.021   0.502  0.2224  0.6150 -0.3193
 2010SOL     ow 8037   2.068   6.401   7.111 -0.4155 -0.9224  1.1658
 2010SOL     hw 8038   2.084   6.310   7.084 -1.7404 -0.8653  0.0451
 2010SOL     hw 8039   1.995   6.395   7.172 -1.6259 -0.5053 -0.1845
 2010SOL     vw 8040   2.060   6.388   7.115 -0.7499 -0.8600  0.8397
 2011SOL     ow 8041   3.134   0.979   6.768 -0.4086  0.1023  0.4102
 2011SOL     hw 8042   3.217   0.986   6.720 -0.6329 -0.0790 -0.0125
 2011SOL     hw 8043   3.121   0.884   6.779 -0.3250  0.1434  0.8953
 2011SOL     vw 8044   3.143   0.967   6.763 -0.4270  0.0838  0.4184
 2012SOL     ow 8045   4.949   2.655   2.211 -0.0753 -0.3185  0.2376
 2012SOL     hw 8046   4.960   2.640   2.305  0.0186  0.1049  0.2963
 2012SOL     hw 8047   4.898   2.580   2.181  0.3972 -0.7587  0.5188
 2012SOL     vw 8048   4.944   2.643   2.219 -0.0007 -0.3207  0.2824
 2013SOL     ow 8049   2.549   0.037   4.498 -0.0083 -0.1330  0.0553
 2013SOL     hw 8050   2.513   0.110   4.549 -0.3217  2.1130 -3.0756
 2013SOL     hw 8051   2.601   0.080   4.430 -1.1577 -2.7434 -2.6762
 2013SOL     vw 8052   2.551   0.053   4.496 -0.2012 -0.1811 -0.7181
 2014SOL     ow 8053   5.198   6.386   0.417 -0.3694 -0.5594  0.1566
 2014SOL     hw 8054   5.251   6.314   0.450 -0.2474 -0.8408 -0.6329
 2014SOL     hw 8055   5.180   6.363   0.325  2.3374  1.8671 -1.1498
 2014SOL     vw 8056   5.203   6.374   0.409  0.0041 -0.2763 -0.1199
 2015SOL     ow 8057   5.790   4.075   6.758  0.0869  0.0314  0.3264
 2015SOL     hw 8058   5.795   4.115   6.671 -1.0360 -0.2178  0.1265
 2015SOL     hw 8059   5.846   4.129   6.813 -0.6638  1.3353 -0.1448
 2015SOL     vw 8060   5.798   4.088   6.754 -0.1605  0.1705  0.2377
 2016SOL     ow 8061   3.708   3.167   5.191 -0.4877 -0.6684 -0.0902
 2016SOL     hw 8062   3.722   3.253   5.150 -0.5165  0.4003  1.9809
 2016SOL     hw 8063   3.617   3.145   5.172 -0.0727 -0.9750 -1.8767
 2016SOL     vw 8064   3.698   3.176   5.183 -0.4368 -0.5678 -0.0527
 2017SOL     ow 8065   2.601   6.926   0.896 -0.3193  0.0563  0.4944
 2017SOL     hw 8066   2.650   7.009   0.900 -1.1492  0.5552  0.6284
 2017SOL     hw 8067   2.608   6.890   0.984  2.0668 -1.2522 -0.1438
 2017SOL     vw 8068   2.609   6.933   0.908 -0.1140 -0.0505  0.4279
 2018SOL     ow 8069   1.663   1.550   6.219 -0.0049  0.2705  0.1139
 2018SOL     hw 8070   1.612   1.628   6.196  0.8717  1.5480  2.2638
 2018SOL     hw 8071   1.750   1.567   6.183  0.6719  1.1501  2.0217
 2018SOL     vw 8072   1.668   1.563   6.211  0.2000  0.5552  0.6492
 2019SOL     ow 8073   2.243   5.953   0.613 -0.0749 -0.0746  0.0247
 2019SOL     hw 8074   2.329   5.987   0.636  0.8023 -3.8079  3.5104
 2019SOL     hw 8075   2.182   5.997   0.672 -0.1280  0.5799 -0.5134
 2019SOL     vw 8076   2.246   5.963   0.624  0.0339 -0.4811  0.4136
 2020SOL     ow 8077   4.474   1.394   1.930  0.9728  0.2027 -0.6665
 2020SOL     hw 8078   4.521   1.341   1.995  1.0928  1.3662  0.2416
 2020SOL     hw 8079   4.386   1.404   1.967  1.2806  1.5614 -0.2349
 2020SOL     vw 8080   4.468   1.389   1.944  1.0290  0.5355 -0.4898
 2021SOL     ow 8081   5.436   0.854   2.144  0.3586  0.1160  0.4528
 2021SOL     hw 8082   5.449   0.776   2.199 -0.1910 -1.0400 -1.0055
 2021SOL     hw 8083   5.485   0.923   2.189 -0.0624 -0.7696  2.3932
 2021SOL     vw 8084   5.444   0.853   2.157  0.2306 -0.1534  0.5164
 2022SOL     ow 8085   3.089   4.442   6.443 -0.0683 -0.0136  0.3889
 2022SOL     hw 8086   3.104   4.357   6.402 -1.1669 -0.3453  0.6304
 2022SOL     hw 8087   3.158   4.498   6.408  2.6299 -1.7522  2.5879
 2022SOL     vw 8088   3.100   4.438   6.433  0.1427 -0.2866  0.7107
 2023SOL     ow 8089   5.920   0.321   2.398 -0.1063  0.1721 -0.2560
 2023SOL     hw 8090   5.959   0.335   2.484 -2.1656  1.0511  0.5961
 2023SOL     hw 8091   5.884   0.406   2.374 -0.0604 -0.2034 -1.7542
 2023SOL     vw 8092   5.921   0.334   2.406 -0.3717  0.2385 -0.3413
 2024SOL     ow 8093   2.084   1.268   1.368 -0.1954  0.6081 -0.1226
 2024SOL     hw 8094   2.141   1.210   1.417 -2.3606  0.4318  2.3689
 2024SOL     hw 8095   2.085   1.233   1.279  0.1840 -1.9868  0.8308
 2024SOL     vw 8096   2.092   1.256   1.362 -0.4312  0.2425  0.3319
 2025SOL     ow 8097   4.855   4.400   6.513  0.3159  0.0813  0.0724
 2025SOL     hw 8098   4.877   4.400   6.420  1.6845  0.3101  0.3732
 2025SOL     hw 8099   4.795   4.473   6.524  1.4938  1.1539 -0.3629
 2025SOL     vw 8100   4.850   4.409   6.502  0.6518  0.2527  0.0544
 2026SOL     ow 8101   4.943   0.388   3.323  0.2871 -0.4974 -0.3183
 2026SOL     hw 8102   5.001   0.464   3.317 -0.7761  0.4966  1.0822
 2026SOL     hw 8103   4.881   0.411   3.393  0.8858 -3.3331  1.3204
 2026SOL     vw 8104   4.942   0.401   3.332  0.2258 -0.7404  0.0827
 2027SOL     ow 8105   4.292   1.382   2.598  0.0762 -0.7054  0.0020
 2027SOL     hw 8106   4.385   1.374   2.579 -0.2724 -0.9849 -1.6843
 2027SOL     hw 8107   4.283   1.471   2.633  0.6803  0.1512 -1.8774
 2027SOL     vw 8108   4.303   1.393   2.600  0.1099 -0.6292 -0.4684
 2028SOL     ow 8109   4.958   5.369   3.347 -0.2950  0.6025 -0.0194
 2028SOL     hw 8110   4.937   5.429   3.276 -0.7648  1.0577  0.4917
 2028SOL     hw 8111   4.882   5.312   3.354 -1.4308  2.1902  1.7727
 2028SOL     vw 8112   4.945   5.369   3.339 -0.5069  0.8719  0.2844
 2029SOL     ow 8113   1.864   2.080   5.459 -0.1501 -1.0358 -0.0924
 2029SOL     hw 8114   1.939   2.135   5.436 -1.0038  0.6125  0.9320
 2029SOL     hw 8115   1.862   2.014   5.390 -0.9997  2.0890 -3.3999
 2029SOL     vw 8116   1.874   2.079   5.447 -0.3749 -0.4060 -0.3934
 2030SOL     ow 8117   4.125   1.716   6.078 -1.0764  0.1726  0.0318
 2030SOL     hw 8118   4.040   1.674   6.070 -1.3490  0.9423 -1.3981
 2030SOL     hw 8119   4.156   1.726   5.988  1.3702 -1.7020  0.5230
 2030SOL     vw 8120   4.118   1.712   6.065 -0.7896  0.0268 -0.0920
 2031SOL     ow 8121   1.024   2.697   3.769  0.1856  0.3884 -0.2327
 2031SOL     hw 8122   0.997   2.718   3.679 -1.5297 -0.4946  0.0154
 2031SOL     hw 8123   1.028   2.601   3.770 -2.2840  0.1941  1.1910
 2031SOL     vw 8124   1.021   2.687   3.757 -0.3665  0.2462 -0.0123
 2032SOL     ow 8125   1.028   1.946   0.386 -0.5669  0.2770  0.1831
 2032SOL     hw 8126   1.009   1.887   0.313 -1.8569  0.0074  0.7125
 2032SOL     hw 8127   1.121   1.968   0.375 -0.7342  0.2604 -1.5333
 2032SOL     vw 8128   1.038   1.941   0.375 -0.7592  0.2393  0.0265
 2033SOL     ow 8129   0.788   2.977   2.080 -0.4453  0.0297 -0.6207
 2033SOL     hw 8130   0.797   2.995   1.986 -1.7439 -1.0153 -0.9779
 2033SOL     hw 8131   0.871   3.005   2.118 -0.8912  3.1801 -1.6268
 2033SOL     vw 8132   0.800   2.983   2.072 -0.6755  0.3076 -0.8007
 2034SOL     ow 8133   4.604   3.157   5.836 -0.3060  0.3425 -0.2661
 2034SOL     hw 8134   4.615   3.074   5.882 -1.3277  0.1704 -0.3118
 2034SOL     hw 8135   4.599   3.223   5.906 -1.2140  0.1539 -0.1334
 2034SOL     vw 8136   4.605   3.155   5.852 -0.5608  0.2949 -0.2544
 2035SOL     ow 8137   3.547   2.264   2.510 -0.2462  0.1205  0.4432
 2035SOL     hw 8138   3.453   2.262   2.528 -0.5541 -1.3243 -1.0787
 2035SOL     hw 8139   3.582   2.187   2.556  0.1482  0.4286  0.6735
 2035SOL     vw 8140   3.539   2.254   2.519 -0.2346 -0.0294  0.2726
 2036SOL     ow 8141   1.007   0.273   1.042 -0.4731 -0.2860 -0.2108
 2036SOL     hw 8142   1.057   0.245   0.965 -0.9427 -1.3034 -0.1716
 2036SOL     hw 8143   1.066   0.257   1.116 -0.0970  0.5017 -0.3280
 2036SOL     vw 8144   1.022   0.267   1.041 -0.4854 -0.3163 -0.2210
 2037SOL     ow 8145   2.046   1.169   1.115  0.4525 -0.0458  0.0953
 2037SOL     hw 8146   1.996   1.093   1.086 -1.0151  0.6130  0.7622
 2037SOL     hw 8147   2.076   1.211   1.035  2.8073 -2.2119 -0.2902
 2037SOL     vw 8148   2.043   1.165   1.101  0.5697 -0.2447  0.1324
 2038SOL     ow 8149   4.943   3.155   6.332  0.4004 -0.1431 -0.0686
 2038SOL     hw 8150   4.927   3.177   6.423  1.1169 -1.7317  0.4821
 2038SOL     hw 8151   4.864   3.109   6.304  0.2715  0.1424 -0.1670
 2038SOL     vw 8152   4.931   3.152   6.340  0.4780 -0.3150 -0.0086
 2039SOL     ow 8153   5.526   6.435   4.990 -0.3004  0.4045  0.3764
 2039SOL     hw 8154   5.465   6.429   4.916  0.1254  1.9903 -0.1365
 2039SOL     hw 8155   5.590   6.500   4.963  1.3887 -0.8957  1.1088
 2039SOL     vw 8156   5.526   6.443   4.977 -0.0212  0.4423  0.4053
 2040SOL     ow 8157   6.326   6.040   1.798  0.1115 -0.3837 -0.2349
 2040SOL     hw 8158   6.369   5.989   1.866  0.9888  1.0345  0.3138
 2040SOL     hw 8159   6.325   5.983   1.721  1.2876 -1.1259  0.2866
 2040SOL     vw 8160   6.332   6.026   1.796  0.3824 -0.2944 -0.0937
 2041SOL     ow 8161   1.730   1.115   4.023 -0.0488 -0.3347  0.1141
 2041SOL     hw 8162   1.785   1.193   4.019 -0.4351 -0.1060 -1.3849
 2041SOL     hw 8163   1.783   1.050   4.070 -0.0095  1.0154  2.0504
 2041SOL     vw 8164   1.744   1.116   4.029 -0.0945 -0.1264  0.1719
 2042SOL     ow 8165   0.141   4.043   2.182 -1.1032  0.1126  0.3654
 2042SOL     hw 8166   0.156   3.949   2.178 -2.6381 -0.1612  0.3725
 2042SOL     hw 8167   0.202   4.080   2.118 -1.0058 -0.9539 -0.1790
 2042SOL     vw 8168   0.151   4.036   2.173 -1.2929 -0.0641  0.2944
 2043SOL     ow 8169   3.387   5.684   3.132  0.4076  0.0143  0.5640
 2043SOL     hw 8170   3.304   5.705   3.175 -0.9348  0.2747 -1.9626
 2043SOL     hw 8171   3.377   5.593   3.105  0.4414  0.3763 -0.7355
 2043SOL     vw 8172   3.375   5.675   3.134  0.2350  0.0963  0.0594
 2044SOL     ow 8173   4.271   2.622   1.541 -0.0122  1.0189  0.0442
 2044SOL     hw 8174   4.197   2.613   1.481 -1.1607  0.5760  1.4521
 2044SOL     hw 8175   4.348   2.625   1.485 -0.8222 -1.6560 -1.3966
 2044SOL     vw 8176   4.271   2.621   1.526 -0.2706  0.6076  0.0399
 2045SOL     ow 8177   4.341   5.623   6.987 -0.0336  0.0587  0.0898
 2045SOL     hw 8178   4.363   5.679   7.062 -0.2861  0.4985 -0.1633
 2045SOL     hw 8179   4.285   5.555   7.024 -1.1440  0.9501  0.0987
 2045SOL     vw 8180   4.336   5.622   7.002 -0.2136  0.2344  0.0575
 2046SOL     ow 8181   3.275   0.090   1.635  0.2589 -0.8135  0.4463
 2046SOL     hw 8182   3.284   0.024   1.703  1.7929  0.7796  1.9127
 2046SOL     hw 8183   3.365   0.113   1.611 -0.2380 -0.0587 -0.8517
 2046SOL     vw 8184   3.288   0.085   1.641  0.3959 -0.5037  0.4686
 2047SOL     ow 8185   2.708   5.510   3.470  0.0930  0.2973 -0.6715
 2047SOL     hw 8186   2.682   5.601   3.460 -0.2664  0.3349  0.4790
 2047SOL     hw 8187   2.804   5.512   3.468  0.0790  0.5982 -1.3772
 2047SOL     vw 8188   2.717   5.522   3.468  0.0437  0.3419 -0.6127
 2048SOL     ow 8189   4.060   3.183   3.004  0.0192 -0.6644  0.1428
 2048SOL     hw 8190   4.055   3.220   3.092 -0.9855 -1.0208  0.2565
 2048SOL     hw 8191   4.096   3.095   3.016 -2.3578 -1.6823  0.5665
 2048SOL     vw 8192   4.064   3.176   3.017 -0.4270 -0.8457  0.2136
 2049SOL     ow 8193   3.663   3.491   1.941 -0.1545  0.0933 -0.7469
 2049SOL     hw 8194   3.573   3.465   1.925 -0.1385 -0.8321  0.4942
 2049SOL     hw 8195   3.672   3.490   2.037  1.2925 -0.3303 -0.8528
 2049SOL     vw 8196   3.652   3.487   1.952  0.0384 -0.0846 -0.5971
 2050SOL     ow 8197   3.834   5.073   0.270 -0.2091 -0.6253  0.0647
 2050SOL     hw 8198   3.837   5.065   0.174 -2.0332 -1.5170  0.0380
 2050SOL     hw 8199   3.901   5.011   0.300 -1.3781 -2.3280 -0.6293
 2050SOL     vw 8200   3.843   5.064   0.261 -0.6039 -0.9675 -0.0304
 2051SOL     ow 8201   5.841   3.585   5.408 -0.3359  0.1275  0.1848
 2051SOL     hw 8202   5.864   3.672   5.441  0.0348  0.1334 -0.0865
 2051SOL     hw 8203   5.745   3.583   5.411 -0.3120  0.1699  1.1405
 2051SOL     vw 8204   5.831   3.596   5.413 -0.2840  0.1339  0.2749
 2052SOL     ow 8205   3.059   0.606   0.519  0.1424  0.1979  0.0192
 2052SOL     hw 8206   3.105   0.534   0.562 -0.1684  0.7515  1.3170
 2052SOL     hw 8207   2.976   0.613   0.565 -0.2133  0.7937 -0.6956
 2052SOL     vw 8208   3.054   0.597   0.531  0.0546  0.3496  0.0961
 2053SOL     ow 8209   4.227   5.306   1.573 -0.4639 -0.3847 -0.4870
 2053SOL     hw 8210   4.137   5.281   1.551 -0.2538 -1.0578 -0.6072
 2053SOL     hw 8211   4.262   5.343   1.492  0.6382 -3.7828 -1.7440
 2053SOL     vw 8212   4.220   5.308   1.559 -0.2906 -0.9220 -0.6687
 2054SOL     ow 8213   2.693   5.348   3.245 -0.0323  0.0977 -0.0088
 2054SOL     hw 8214   2.682   5.413   3.315 -0.0318 -1.1595  1.2118
 2054SOL     hw 8215   2.676   5.397   3.164 -0.8734  1.4207  0.9110
 2054SOL     vw 8216   2.689   5.363   3.244 -0.1432  0.1063  0.2737
 2055SOL     ow 8217   1.594   0.337   3.197 -0.1120  0.0131  0.8569
 2055SOL     hw 8218   1.594   0.433   3.188 -0.2259  0.1817  2.3602
 2055SOL     hw 8219   1.593   0.304   3.107  0.5889  1.4263  0.2994
 2055SOL     vw 8220   1.594   0.345   3.184 -0.0345  0.2218  0.9817
 2056SOL     ow 8221   3.227   4.117   2.023  0.9612  0.3848  0.1554
 2056SOL     hw 8222   3.178   4.089   1.946 -0.6525 -0.6072  1.4781
 2056SOL     hw 8223   3.314   4.078   2.012  1.2539  1.4926 -1.8351
 2056SOL     vw 8224   3.232   4.108   2.011  0.7870  0.4001  0.0674
 2057SOL     ow 8225   5.139   6.143   0.746 -0.2150  0.1531 -0.2726
 2057SOL     hw 8226   5.211   6.081   0.754 -0.0914  0.4163  0.8136
 2057SOL     hw 8227   5.108   6.155   0.835 -1.6287  0.0330 -0.7277
 2057SOL     vw 8228   5.144   6.137   0.759 -0.3853  0.1721 -0.1894
 2058SOL     ow 8229   0.288   4.360   0.563 -0.1183  0.2168  0.1251
 2058SOL     hw 8230   0.378   4.328   0.575 -0.3284 -1.1086 -1.4678
 2058SOL     hw 8231   0.298   4.440   0.511  0.1276 -0.4078 -0.8264
 2058SOL     vw 8232   0.301   4.366   0.558 -0.1136 -0.0403 -0.2106
 2059SOL     ow 8233   0.362   4.055   0.400  0.4208 -0.5524  0.6234
 2059SOL     hw 8234   0.420   4.123   0.433  0.8309  0.6441 -2.2600
 2059SOL     hw 8235   0.419   3.979   0.387  0.5848 -0.5188  1.1524
 2059SOL     vw 8236   0.377   4.054   0.402  0.4966 -0.3901  0.3128
 2060SOL     ow 8237   5.285   6.644   2.741 -0.4276  0.0093  0.3427
 2060SOL     hw 8238   5.334   6.655   2.823  0.4244  0.1353 -0.1692
 2060SOL     hw 8239   5.246   6.557   2.748 -0.1043 -0.1096  0.7493
 2060SOL     vw 8240   5.287   6.634   2.753 -0.2725  0.0103  0.3287
 2061SOL     ow 8241   4.516   5.637   2.615 -0.2354 -0.1444  0.9576
 2061SOL     hw 8242   4.610   5.628   2.630  0.2989 -0.4097 -1.9059
 2061SOL     hw 8243   4.501   5.731   2.608  0.4969 -0.1410 -1.6347
 2061SOL     vw 8244   4.526   5.648   2.616 -0.0682 -0.1791  0.2376
 2062SOL     ow 8245   6.844   3.099   1.236  0.2943 -0.1034 -0.0752
 2062SOL     hw 8246   6.868   3.186   1.204  1.4209  0.3890  1.9324
 2062SOL     hw 8247   6.802   3.115   1.321 -3.2988 -1.2874 -1.4533
 2062SOL     vw 8248   6.842   3.113   1.243 -0.0308 -0.1948  0.0078
 2063SOL     ow 8249   5.740   0.360   3.621 -0.2827 -0.9964 -0.3017
 2063SOL     hw 8250   5.714   0.436   3.569  0.7536 -0.4303 -0.0244
 2063SOL     hw 8251   5.707   0.379   3.709 -0.5893 -1.1751 -0.3777
 2063SOL     vw 8252   5.732   0.372   3.626 -0.1864 -0.9453 -0.2753
 2064SOL     ow 8253   3.154   0.665   2.346  0.2100  0.8581 -0.2527
 2064SOL     hw 8254   3.201   0.722   2.285  1.8576 -1.0889 -0.9065
 2064SOL     hw 8255   3.172   0.576   2.315 -1.5470 -0.0822  1.2303
 2064SOL     vw 8256   3.163   0.661   2.334  0.1956  0.4772 -0.1434
 2065SOL     ow 8257   4.323   2.869   0.735  0.3573  0.0884  0.2298
 2065SOL     hw 8258   4.384   2.942   0.738  0.4518 -0.0124  1.1606
 2065SOL     hw 8259   4.366   2.800   0.785 -0.9131  0.3358  1.7463
 2065SOL     vw 8260   4.337   2.869   0.742  0.2019  0.1076  0.5527
 2066SOL     ow 8261   2.535   2.428   5.330  0.0653  0.2436 -0.1738
 2066SOL     hw 8262   2.499   2.356   5.278 -0.1051 -0.3021  0.6711
 2066SOL     hw 8263   2.490   2.506   5.298  1.0536  0.1587 -1.8678
 2066SOL     vw 8264   2.524   2.429   5.319  0.1732  0.1605 -0.2856
 2067SOL     ow 8265   4.028   1.969   6.318 -0.3132  0.3358 -0.1123
 2067SOL     hw 8266   3.957   1.933   6.371 -0.1410  0.3230  0.1142
 2067SOL     hw 8267   3.985   2.027   6.256 -0.7757 -1.4420 -1.5459
 2067SOL     vw 8268   4.013   1.972   6.317 -0.3517  0.0995 -0.2718
 2068SOL     ow 8269   4.886   4.309   0.629 -0.5654  0.0633 -0.8147
 2068SOL     hw 8270   4.974   4.291   0.662  0.2960  1.7559 -2.0574
 2068SOL     hw 8271   4.853   4.379   0.685 -0.6343  0.2744 -1.1157
 2068SOL     vw 8272   4.893   4.316   0.641 -0.4609  0.3147 -1.0184
 2069SOL     ow 8273   3.463   5.080   6.469  0.1419  0.3806  0.1037
 2069SOL     hw 8274   3.514   5.113   6.542  1.2600  0.4395 -0.6853
 2069SOL     hw 8275   3.416   5.005   6.505  0.0222  0.9166  1.0892
 2069SOL     vw 8276   3.463   5.074   6.483  0.2736  0.4592  0.1295
 2070SOL     ow 8277   0.628   3.290   6.661 -0.0309 -0.0345  0.5093
 2070SOL     hw 8278   0.544   3.277   6.705  0.0973 -0.7443  0.5519
 2070SOL     hw 8279   0.616   3.370   6.609 -1.9857 -2.0088 -2.4053
 2070SOL     vw 8280   0.615   3.299   6.660 -0.2719 -0.3885  0.1304
 2071SOL     ow 8281   6.401   6.893   5.521  0.2753 -0.0065 -0.5113
 2071SOL     hw 8282   6.462   6.956   5.481 -0.7466  1.6634  0.4449
 2071SOL     hw 8283   6.363   6.846   5.447  0.7228  0.8373 -1.3047
 2071SOL     vw 8284   6.404   6.895   5.506  0.1998  0.3254 -0.4897
 2072SOL     ow 8285   4.983   1.483   7.086  0.6147 -0.5413 -0.1375
 2072SOL     hw 8286   4.913   1.462   7.023  1.5647  0.7643 -1.7221
 2072SOL     hw 8287   4.943   1.471   7.172 -1.2661 -0.7285 -0.9896
 2072SOL     vw 8288   4.968   1.478   7.089  0.4919 -0.3937 -0.4590
 2073SOL     ow 8289   0.073   6.659   2.072  0.1670 -0.7144 -0.3448
 2073SOL     hw 8290   0.100   6.699   1.989  2.9811 -1.1215  0.2698
 2073SOL     hw 8291   0.137   6.692   2.136 -1.5811 -0.8704  1.5620
 2073SOL     vw 8292   0.085   6.668   2.069  0.3077 -0.7889 -0.0122
 2074SOL     ow 8293   1.173   1.201   5.939  0.0961 -0.2279  0.4362
 2074SOL     hw 8294   1.119   1.124   5.923  0.7116 -0.6730  0.4667
 2074SOL     hw 8295   1.194   1.196   6.032  1.7025 -1.0760  0.0611
 2074SOL     vw 8296   1.169   1.190   5.949  0.3893 -0.3986  0.3908
 2075SOL     ow 8297   7.103   3.116   6.804  0.2576  0.1797  0.3567
 2075SOL     hw 8298   7.165   3.063   6.855  0.6649  1.0445  0.7769
 2075SOL     hw 8299   7.033   3.137   6.866  0.1354  0.1926  0.2144
 2075SOL     vw 8300   7.102   3.112   6.819  0.2952  0.2954  0.3934
 2076SOL     ow 8301   0.876   5.628   1.982 -0.5703  0.1741  0.2637
 2076SOL     hw 8302   0.820   5.635   2.059  0.3104 -1.2903  1.0891
 2076SOL     hw 8303   0.937   5.701   1.989 -0.0875 -0.3104  1.3304
 2076SOL     vw 8304   0.876   5.639   1.993 -0.3904 -0.0832  0.5133
 2077SOL     ow 8305   6.535   4.626   6.877  0.0437  0.2050  0.8607
 2077SOL     hw 8306   6.565   4.638   6.787  0.2253 -0.0068  0.8903
 2077SOL     hw 8307   6.443   4.597   6.868 -0.6293  2.2269  0.8165
 2077SOL     vw 8308   6.526   4.624   6.864 -0.0210  0.4439  0.8585
 2078SOL     ow 8309   4.153   2.699   3.874  0.4051 -0.0026  0.0087
 2078SOL     hw 8310   4.125   2.619   3.919 -0.8505 -0.3409 -1.2811
 2078SOL     hw 8311   4.234   2.675   3.831  1.0634  0.0138  1.1898
 2078SOL     vw 8312   4.160   2.685   3.875  0.3262 -0.0453 -0.0057
 2079SOL     ow 8313   4.252   3.305   1.131  0.5663  0.1341  0.5222
 2079SOL     hw 8314   4.322   3.306   1.195  0.5052  2.9071  0.6828
 2079SOL     hw 8315   4.178   3.346   1.176 -0.8295 -1.6604 -0.0221
 2079SOL     vw 8316   4.251   3.311   1.145  0.3741  0.2633  0.4715
 2080SOL     ow 8317   4.468   6.261   6.947  0.3721 -0.5574 -0.6231
 2080SOL     hw 8318   4.528   6.326   6.984  0.2166 -0.9587  0.3806
 2080SOL     hw 8319   4.381   6.292   6.970  0.2711 -0.8295 -0.6269
 2080SOL     vw 8320   4.465   6.273   6.955  0.3381 -0.6461 -0.4909
 2081SOL     ow 8321   1.418   1.386   6.250 -0.5151  0.4807 -0.9515
 2081SOL     hw 8322   1.336   1.339   6.231 -0.4487 -0.4056  0.7950
 2081SOL     hw 8323   1.392   1.453   6.313  0.0447  0.3977 -0.6328
 2081SOL     vw 8324   1.404   1.389   6.256 -0.4324  0.3528 -0.6790
 2082SOL     ow 8325   3.127   5.714   3.207  0.2183 -0.2900 -0.0850
 2082SOL     hw 8326   3.094   5.759   3.285 -0.8610  0.8359 -1.1425
 2082SOL     hw 8327   3.067   5.641   3.194 -0.1147  0.0258 -0.3375
 2082SOL     vw 8328   3.115   5.710   3.216  0.0319 -0.0999 -0.2577
 2083SOL     ow 8329   6.783   0.561   4.965  0.5327 -0.3283 -0.0993
 2083SOL     hw 8330   6.720   0.565   4.893 -1.5720  3.2391  1.7024
 2083SOL     hw 8331   6.737   0.514   5.034  0.4681  0.8820  0.6897
 2083SOL     vw 8332   6.769   0.555   4.964  0.2465  0.3020  0.2425
 2084SOL     ow 8333   5.048   3.187   0.348 -0.2087  0.7088  1.0669
 2084SOL     hw 8334   5.000   3.145   0.277  1.0645 -0.2246  0.7255
 2084SOL     hw 8335   4.994   3.262   0.372 -1.1865  0.4340 -0.1663
 2084SOL     vw 8336   5.035   3.191   0.342 -0.1698  0.5493  0.8591
 2085SOL     ow 8337   2.585   6.939   2.777  0.1287 -0.0970  0.0796
 2085SOL     hw 8338   2.506   6.956   2.827 -0.0035 -0.5935  0.0423
 2085SOL     hw 8339   2.573   6.988   2.696 -0.6654 -1.0983 -0.4277
 2085SOL     vw 8340   2.573   6.948   2.773  0.0063 -0.2947  0.0077
 2086SOL     ow 8341   0.974   0.544   3.497 -0.6414 -0.3456  0.2210
 2086SOL     hw 8342   1.004   0.635   3.501  0.8731 -0.8553  1.0102
 2086SOL     hw 8343   1.006   0.512   3.413 -1.4762 -0.0657 -0.2143
 2086SOL     vw 8344   0.982   0.552   3.486 -0.5517 -0.3759  0.2677
 2087SOL     ow 8345   5.623   5.494   6.723  0.2359  0.1042 -0.1736
 2087SOL     hw 8346   5.575   5.523   6.801 -1.0589 -1.0127 -0.5205
 2087SOL     hw 8347   5.653   5.575   6.682 -0.5674  0.7964  0.5599
 2087SOL     vw 8348   5.621   5.509   6.728 -0.0408  0.0482 -0.1225
 2088SOL     ow 8349   2.932   1.106   6.569 -0.6591  0.1359 -0.0788
 2088SOL     hw 8350   2.975   1.138   6.490  0.1863  0.2731  0.4222
 2088SOL     hw 8351   2.906   1.017   6.548 -0.9898  0.3754 -0.7160
 2088SOL     vw 8352   2.934   1.099   6.556 -0.5914  0.1856 -0.0968
 2089SOL     ow 8353   6.446   6.274   1.537 -0.4318 -0.0437 -0.3214
 2089SOL     hw 8354   6.422   6.274   1.630  2.2236 -3.3052  0.5560
 2089SOL     hw 8355   6.370   6.235   1.493 -0.8604 -0.5019  0.7909
 2089SOL     vw 8356   6.433   6.269   1.543 -0.1383 -0.5343 -0.0588
 2090SOL     ow 8357   0.213   3.840   0.351  0.2628 -0.2800 -0.1635
 2090SOL     hw 8358   0.285   3.790   0.314  1.3224  0.2852  1.0383
 2090SOL     hw 8359   0.147   3.774   0.374  1.4949 -1.1338  1.0999
 2090SOL     vw 8360   0.214   3.825   0.349  0.5652 -0.3181  0.1617
 2091SOL     ow 8361   2.688   3.954   0.875 -0.3835 -0.1248 -0.7783
 2091SOL     hw 8362   2.624   4.025   0.889  0.6490  0.6983 -0.0651
 2091SOL     hw 8363   2.766   3.999   0.843  0.4452 -0.8706  0.1472
 2091SOL     vw 8364   2.690   3.969   0.873 -0.1379 -0.1146 -0.5621
 2092SOL     ow 8365   5.548   5.100   4.663 -0.1367 -0.2461 -0.1576
 2092SOL     hw 8366   5.492   5.026   4.687 -2.2327  0.8598 -1.3303
 2092SOL     hw 8367   5.494   5.151   4.602  0.9738  2.5902  1.0971
 2092SOL     vw 8368   5.533   5.097   4.658 -0.2668  0.2739 -0.1466
 2093SOL     ow 8369   4.241   0.349   3.359  0.0521  0.2480 -0.1073
 2093SOL     hw 8370   4.185   0.349   3.282 -0.1376 -2.4303 -0.0737
 2093SOL     hw 8371   4.320   0.303   3.331 -0.1196 -0.9979  1.3184
 2093SOL     vw 8372   4.244   0.343   3.345  0.0043 -0.2698  0.0852
 2094SOL     ow 8373   2.710   0.193   4.340  0.0828 -0.0171 -0.3231
 2094SOL     hw 8374   2.804   0.188   4.358 -0.0208 -0.5856  0.1038
 2094SOL     hw 8375   2.680   0.267   4.393  0.1322 -0.4181  0.2716
 2094SOL     vw 8376   2.719   0.202   4.350  0.0757 -0.1450 -0.1884
 2095SOL     ow 8377   1.437   6.049   3.241 -0.1856  0.1932  0.3963
 2095SOL     hw 8378   1.435   6.034   3.336  0.6177 -3.1021  0.0229
 2095SOL     hw 8379   1.352   6.019   3.210  0.2108 -0.4376 -0.0959
 2095SOL     vw 8380   1.426   6.043   3.249 -0.0273 -0.3250  0.2820
 2096SOL     ow 8381   2.756   5.321   1.349 -0.1498  0.6027 -0.1257
 2096SOL     hw 8382   2.765   5.227   1.335 -0.4853  0.4452  0.6273
 2096SOL     hw 8383   2.841   5.357   1.324  0.5037 -0.0895  1.0003
 2096SOL     vw 8384   2.768   5.313   1.344 -0.1078  0.4907  0.1222
 2097SOL     ow 8385   3.398   6.612   1.926  0.3264  0.4965 -0.2748
 2097SOL     hw 8386   3.328   6.550   1.905  0.7465 -0.0207 -0.1986
 2097SOL     hw 8387   3.444   6.626   1.843 -0.2607  1.3453 -0.4607
 2097SOL     vw 8388   3.395   6.605   1.912  0.3043  0.5403 -0.2893
 2098SOL     ow 8389   2.118   6.962   7.087 -0.1871 -0.4803  0.0387
 2098SOL     hw 8390   2.168   6.927   7.161  0.3110 -0.2615 -0.1904
 2098SOL     hw 8391   2.047   6.899   7.074 -1.0129  0.1016  1.4825
 2098SOL     vw 8392   2.116   6.949   7.095 -0.2304 -0.3746  0.1991
 2099SOL     ow 8393   2.968   3.941   6.838  0.2994  0.0281  0.2846
 2099SOL     hw 8394   2.976   3.861   6.889  0.8077  0.5746  1.0895
 2099SOL     hw 8395   3.051   3.986   6.851  0.4509  0.1741 -1.0538
 2099SOL     vw 8396   2.980   3.937   6.846  0.3864  0.1194  0.2143
 2100SOL     ow 8397   2.538   2.657   3.176  0.3700  0.0500 -0.2678
 2100SOL     hw 8398   2.491   2.736   3.150 -1.6967 -1.1114 -0.2777
 2100SOL     hw 8399   2.563   2.615   3.094 -1.1011 -0.7231 -0.3567
 2100SOL     vw 8400   2.535   2.662   3.162 -0.0968 -0.2053 -0.2810
 2101SOL     ow 8401   3.255   5.470   5.420 -0.1937 -0.0005  0.9831
 2101SOL     hw 8402   3.294   5.399   5.370  1.2622  1.6781 -0.4077
 2101SOL     hw 8403   3.224   5.429   5.501  0.9197 -2.1258  0.3890
 2101SOL     vw 8404   3.256   5.455   5.424  0.1453 -0.0594  0.7210
 2102SOL     ow 8405   1.567   0.671   5.032  0.5223  0.0632  0.6225
 2102SOL     hw 8406   1.504   0.722   5.083  1.1246 -0.2524  1.7229
 2102SOL     hw 8407   1.606   0.612   5.096  3.1695  1.3997  0.3770
 2102SOL     vw 8408   1.564   0.670   5.047  0.9511  0.1979  0.7353
 2103SOL     ow 8409   0.550   1.059   3.015  0.8279 -0.2317  0.1987
 2103SOL     hw 8410   0.540   1.118   2.941 -1.4261 -0.2341  0.4332
 2103SOL     hw 8411   0.466   1.014   3.022  0.7736  0.1075  3.0184
 2103SOL     vw 8412   0.537   1.061   3.006  0.5234 -0.1872  0.6015
 2104SOL     ow 8413   5.401   2.048   5.252  0.6274 -0.4857  0.0361
 2104SOL     hw 8414   5.471   1.983   5.241  0.0751 -0.7585 -2.9050
 2104SOL     hw 8415   5.434   2.125   5.205  0.2860  0.5467  1.4624
 2104SOL     vw 8416   5.415   2.049   5.244  0.5093 -0.3855 -0.1640
 2105SOL     ow 8417   1.660   3.790   5.602  0.1167 -0.0517 -0.4485
 2105SOL     hw 8418   1.603   3.720   5.569 -1.3510  0.3631  1.0551
 2105SOL     hw 8419   1.612   3.871   5.585  0.8585  0.4229 -0.3261
 2105SOL     vw 8420   1.646   3.791   5.596  0.0209  0.0656 -0.2339
 2106SOL     ow 8421   1.705   6.545   3.044 -0.5829  0.0513  0.2619
 2106SOL     hw 8422   1.731   6.546   3.136  2.5581 -2.9315 -0.3788
 2106SOL     hw 8423   1.760   6.612   3.003 -1.8486  1.2503  0.4711
 2106SOL     vw 8424   1.716   6.554   3.051 -0.3355 -0.1841  0.2050
 2107SOL     ow 8425   4.175   4.214   3.763  0.7062 -0.4026  1.5586
 2107SOL     hw 8426   4.158   4.141   3.823 -0.1275  0.0196  1.8561
 2107SOL     hw 8427   4.189   4.290   3.820  0.6898 -0.1553  1.2372
 2107SOL     vw 8428   4.174   4.214   3.779  0.5941 -0.3142  1.5554
 2108SOL     ow 8429   1.464   4.389   1.343  0.7225 -0.4958 -0.6852
 2108SOL     hw 8430   1.521   4.466   1.346  0.4163 -0.2947  0.2916
 2108SOL     hw 8431   1.382   4.421   1.307  0.2775 -0.1347  0.5971
 2108SOL     vw 8432   1.461   4.403   1.338  0.6233 -0.4213 -0.3871
 2109SOL     ow 8433   4.640   4.131   1.895 -0.6908  0.3747  0.4159
 2109SOL     hw 8434   4.705   4.197   1.872  0.0417 -1.2214 -2.6989
 2109SOL     hw 8435   4.663   4.055   1.842 -3.2977 -1.3480  1.5206
 2109SOL     vw 8436   4.651   4.130   1.885 -0.9382 -0.0632  0.1507
 2110SOL     ow 8437   1.790   4.808   2.482 -0.2894 -0.0818  0.2696
 2110SOL     hw 8438   1.719   4.830   2.542 -0.3445  0.7728 -0.0903
 2110SOL     hw 8439   1.868   4.803   2.538 -0.7636 -2.0268  0.8255
 2110SOL     vw 8440   1.791   4.810   2.497 -0.3592 -0.2260  0.2956
 2111SOL     ow 8441   5.018   4.239   4.663  0.0389  0.2250 -0.2948
 2111SOL     hw 8442   5.089   4.302   4.663  1.0634 -0.8876  0.7593
 2111SOL     hw 8443   4.960   4.268   4.593  2.0440  0.5834 -1.8847
 2111SOL     vw 8444   5.019   4.251   4.654  0.4385  0.1254 -0.3655
 2112SOL     ow 8445   4.122   6.233   2.741 -0.1866  0.4155 -0.0506
 2112SOL     hw 8446   4.182   6.182   2.686  1.1537  1.1308  0.7041
 2112SOL     hw 8447   4.173   6.309   2.767 -2.5257  2.8916 -2.1573
 2112SOL     vw 8448   4.137   6.236   2.737 -0.3183  0.8366 -0.2290
 2113SOL     ow 8449   0.399   4.528   0.778 -0.0861 -0.4581  0.2925
 2113SOL     hw 8450   0.441   4.614   0.779 -0.6112 -0.1928  2.0016
 2113SOL     hw 8451   0.403   4.498   0.869 -1.8601 -1.2742  0.1324
 2113SOL     vw 8452   0.405   4.535   0.790 -0.3894 -0.5310  0.4969
 2114SOL     ow 8453   6.777   6.400   0.782 -0.2636 -0.0061 -0.1311
 2114SOL     hw 8454   6.750   6.457   0.855  2.5717 -0.5031  1.4433
 2114SOL     hw 8455   6.800   6.317   0.824  0.9758 -0.4627 -1.6476
 2114SOL     vw 8456   6.777   6.397   0.798  0.2739 -0.1318 -0.1235
 2115SOL     ow 8457   2.534   3.195   0.187 -0.4725 -0.2547 -0.3274
 2115SOL     hw 8458   2.598   3.159   0.125 -0.8084 -1.3411 -0.0568
 2115SOL     hw 8459   2.524   3.127   0.253  1.5040  1.7102  2.1741
 2115SOL     vw 8460   2.541   3.181   0.187 -0.2561 -0.1390  0.0384
 2116SOL     ow 8461   5.409   2.106   4.163  0.1611  0.1284 -0.6006
 2116SOL     hw 8462   5.395   2.046   4.236  0.4480  0.7368 -0.0325
 2116SOL     hw 8463   5.423   2.191   4.204 -0.7125  0.6855 -1.3975
 2116SOL     vw 8464   5.409   2.109   4.178  0.0837  0.2823 -0.6306
 2117SOL     ow 8465   2.591   3.850   0.662 -0.0757 -0.4699  0.0050
 2117SOL     hw 8466   2.618   3.861   0.753  1.5523  0.5558 -0.5604
 2117SOL     hw 8467   2.594   3.755   0.647  0.4378 -0.5825  0.7846
 2117SOL     vw 8468   2.595   3.839   0.672  0.2068 -0.3495  0.0333
 2118SOL     ow 8469   3.354   0.266   6.824  0.0116  0.4439  0.3747
 2118SOL     hw 8470   3.440   0.273   6.865  1.2637 -1.5564 -1.6711
 2118SOL     hw 8471   3.294   0.247   6.897  1.8089 -1.0609  1.5548
 2118SOL     vw 8472   3.357   0.264   6.839  0.4139 -0.0186  0.2604
 2119SOL     ow 8473   5.233   0.909   5.227  0.0518 -0.0287 -0.6001
 2119SOL     hw 8474   5.153   0.872   5.189  0.4503 -1.2534 -0.2794
 2119SOL     hw 8475   5.210   1.000   5.246 -1.1424 -0.2496 -0.8787
 2119SOL     vw 8476   5.219   0.916   5.224 -0.0534 -0.2194 -0.5944
 2120SOL     ow 8477   0.215   1.424   6.026  0.1393  0.2313 -0.1856
 2120SOL     hw 8478   0.164   1.471   5.960  1.3340  3.1994  0.8090
 2120SOL     hw 8479   0.304   1.422   5.990  0.6934  1.4173  1.0150
 2120SOL     vw 8480   0.220   1.430   6.013  0.3701  0.7793  0.1037
 2121SOL     ow 8481   3.199   3.191   0.242 -0.2849  0.4260  0.0568
 2121SOL     hw 8482   3.238   3.278   0.234 -1.0171  0.8450  0.9216
 2121SOL     hw 8483   3.148   3.180   0.162  1.2440  0.0326 -0.9088
 2121SOL     vw 8484   3.197   3.201   0.230 -0.1796  0.4294  0.0435
 2122SOL     ow 8485   3.884   6.275   2.550 -0.0233 -0.1803 -0.1917
 2122SOL     hw 8486   3.886   6.225   2.468 -0.8492 -0.8279  0.1699
 2122SOL     hw 8487   3.834   6.353   2.528 -1.0020 -0.7613 -0.1017
 2122SOL     vw 8488   3.878   6.278   2.536 -0.2614 -0.3421 -0.1321
 2123SOL     ow 8489   1.385   3.368   1.459  0.5513 -0.3191  0.9006
 2123SOL     hw 8490   1.457   3.343   1.401  0.7890 -0.5461  1.2922
 2123SOL     hw 8491   1.306   3.355   1.406  0.7743 -0.4038  0.5868
 2123SOL     vw 8492   1.384   3.363   1.444  0.6121 -0.3603  0.9108
 2124SOL     ow 8493   3.862   4.894   5.703 -0.0623 -0.6670  0.4363
 2124SOL     hw 8494   3.875   4.989   5.697  1.1665 -0.8633 -0.4211
 2124SOL     hw 8495   3.782   4.877   5.654 -0.2387 -0.0774  0.5204
 2124SOL     vw 8496   3.853   4.904   5.696  0.0765 -0.6151  0.3343
 2125SOL     ow 8497   5.595   3.763   1.769 -0.5036  0.2699  0.0295
 2125SOL     hw 8498   5.650   3.830   1.811 -1.7943  1.3192  0.1200
 2125SOL     hw 8499   5.580   3.698   1.838  0.5061  0.0319  0.0382
 2125SOL     vw 8500   5.600   3.764   1.784 -0.5405  0.3769  0.0426
 2126SOL     ow 8501   4.997   5.301   4.943  0.3577 -0.1030 -0.2427
 2126SOL     hw 8502   5.082   5.335   4.970  1.5095 -1.5839 -1.8148
 2126SOL     hw 8503   5.014   5.211   4.916 -1.9400 -0.8534  0.5290
 2126SOL     vw 8504   5.010   5.294   4.943  0.2062 -0.3972 -0.3483
 2127SOL     ow 8505   0.786   3.348   4.398  0.2748  0.1833 -0.0539
 2127SOL     hw 8506   0.742   3.298   4.330 -0.5466 -1.6954  1.7503
 2127SOL     hw 8507   0.878   3.322   4.390  0.1176 -0.3467 -0.2076
 2127SOL     vw 8508   0.793   3.338   4.388  0.1457 -0.1346  0.1638
 2128SOL     ow 8509   6.042   5.430   3.043  0.0298 -0.0112 -0.0666
 2128SOL     hw 8510   5.966   5.467   2.999 -0.5804  0.8732  1.6539
 2128SOL     hw 8511   6.113   5.491   3.024  0.4485 -1.0251 -1.9740
 2128SOL     vw 8512   6.041   5.443   3.035  0.0045 -0.0284 -0.0912
 2129SOL     ow 8513   4.775   3.750   4.277  0.3484 -0.0134  0.1669
 2129SOL     hw 8514   4.761   3.836   4.239 -0.4686 -0.7007 -1.1305
 2129SOL     hw 8515   4.865   3.727   4.253  0.7076  0.6145  0.8540
 2129SOL     vw 8516   4.785   3.759   4.269  0.2878 -0.0211  0.0863
 2130SOL     ow 8517   4.034   2.582   6.705  0.3756 -0.0818 -0.1923
 2130SOL     hw 8518   4.041   2.643   6.631 -0.6899  0.8490  0.4511
 2130SOL     hw 8519   3.981   2.629   6.770 -0.3654 -1.6532  0.3697
 2130SOL     vw 8520   4.028   2.597   6.704  0.1371 -0.1663 -0.0329
 2131SOL     ow 8521   2.312   3.168   4.189 -0.0738  0.9301  0.0809
 2131SOL     hw 8522   2.285   3.118   4.266  0.5069 -0.0727 -0.3517
 2131SOL     hw 8523   2.232   3.174   4.136  0.2460 -1.1229 -0.7076
 2131SOL     vw 8524   2.298   3.162   4.192  0.0449  0.5270 -0.0803
 2132SOL     ow 8525   6.908   6.101   1.714 -0.2507 -0.9469 -0.6964
 2132SOL     hw 8526   6.973   6.134   1.652  0.4952  0.1039  0.5957
 2132SOL     hw 8527   6.824   6.117   1.672  0.1095  1.9532 -0.4626
 2132SOL     vw 8528   6.906   6.107   1.700 -0.1049 -0.4256 -0.4951
 2133SOL     ow 8529   5.224   2.100   3.976  0.0903 -0.4213  0.3459
 2133SOL     hw 8530   5.153   2.067   4.031 -1.2322  1.5617 -0.0577
 2133SOL     hw 8531   5.297   2.114   4.037 -0.6341 -0.2698  1.2031
 2133SOL     vw 8532   5.224   2.097   3.991 -0.1798 -0.1396  0.4058
 2134SOL     ow 8533   5.155   4.098   1.685 -0.2524 -0.1127 -0.4220
 2134SOL     hw 8534   5.089   4.111   1.616 -0.0631  0.8845 -0.4193
 2134SOL     hw 8535   5.110   4.122   1.766 -0.5736 -1.5755 -0.1226
 2134SOL     vw 8536   5.140   4.103   1.687 -0.2701 -0.1738 -0.3821
 2135SOL     ow 8537   5.577   4.928   3.311  0.2477  0.1260  0.1467
 2135SOL     hw 8538   5.538   4.922   3.224  1.0638 -0.8051 -0.1677
 2135SOL     hw 8539   5.561   5.019   3.337 -0.9859  0.1210 -0.4898
 2135SOL     vw 8540   5.570   4.939   3.303  0.1924  0.0026  0.0212
 2136SOL     ow 8541   1.291   0.452   3.961 -0.2892  0.9844 -1.0190
 2136SOL     hw 8542   1.374   0.461   4.010 -0.8741  1.5751 -0.0979
 2136SOL     hw 8543   1.266   0.361   3.975 -0.4313  1.1344 -0.2170
 2136SOL     vw 8544   1.299   0.441   3.970 -0.3851  1.0821 -0.7917
 2137SOL     ow 8545   2.009   5.307   5.193  0.3909  0.2948 -0.1013
 2137SOL     hw 8546   1.972   5.384   5.235 -2.1701 -0.3287 -1.0662
 2137SOL     hw 8547   1.954   5.234   5.223  2.9700 -1.3092  1.1225
 2137SOL     vw 8548   1.997   5.307   5.203  0.3932  0.0007 -0.0670
 2138SOL     ow 8549   3.034   2.048   6.943  0.6604  0.3896  0.4158
 2138SOL     hw 8550   2.967   2.115   6.957 -0.1878 -0.4283  0.3772
 2138SOL     hw 8551   3.010   1.978   7.002 -1.4659 -2.0392 -2.9424
 2138SOL     vw 8552   3.022   2.048   6.952  0.2680 -0.0387 -0.0324
 2139SOL     ow 8553   5.979   0.334   3.442  0.3390 -0.5319  0.3209
 2139SOL     hw 8554   6.034   0.266   3.402  0.5556 -0.2980  0.2169
 2139SOL     hw 8555   5.934   0.375   3.368 -1.4435 -1.9718  0.5478
 2139SOL     vw 8556   5.980   0.330   3.427  0.1326 -0.6911  0.3371
 2140SOL     ow 8557   1.361   0.017   3.103 -0.5842  0.3220 -0.2050
 2140SOL     hw 8558   1.312   0.095   3.078 -1.7698 -0.9536 -2.1093
 2140SOL     hw 8559   1.298  -0.055   3.096  0.7087 -0.9453  0.5488
 2140SOL     vw 8560   1.346   0.018   3.099 -0.5701 -0.0135 -0.3568
 2141SOL     ow 8561   4.854   0.326   0.832  0.4273 -0.4664 -0.2528
 2141SOL     hw 8562   4.787   0.323   0.900  0.5339 -1.4132 -0.1684
 2141SOL     hw 8563   4.891   0.237   0.831  2.3800  0.2906  0.3941
 2141SOL     vw 8564   4.850   0.314   0.841  0.6990 -0.4915 -0.1563
 2142SOL     ow 8565   1.246   0.163   4.018  0.0194  0.1038  0.0781
 2142SOL     hw 8566   1.168   0.122   3.979  0.5807 -0.4035 -0.5350
 2142SOL     hw 8567   1.252   0.126   4.105 -0.5037  0.2499  0.1825
 2142SOL     vw 8568   1.237   0.153   4.024  0.0244  0.0562  0.0107
 2143SOL     ow 8569   2.993   5.528   3.417  0.2382 -0.1393  0.1509
 2143SOL     hw 8570   3.038   5.565   3.492 -0.5607  0.4841  0.3340
 2143SOL     hw 8571   3.036   5.444   3.402  2.6101  1.1521 -0.7492
 2143SOL     vw 8572   3.004   5.522   3.425  0.4458  0.1130  0.0563
 2144SOL     ow 8573   4.689   4.603   6.579  0.2991 -0.0431  0.0220
 2144SOL     hw 8574   4.638   4.637   6.506  1.1143  0.5817 -0.2783
 2144SOL     hw 8575   4.639   4.627   6.657  0.0774  0.4474 -0.2668
 2144SOL     vw 8576   4.676   4.611   6.579  0.3777  0.1042 -0.0560
 2145SOL     ow 8577   4.233   6.133   1.605 -0.3560 -0.2338 -0.0465
 2145SOL     hw 8578   4.268   6.142   1.517 -1.7273  1.7769 -0.4503
 2145SOL     hw 8579   4.150   6.088   1.593  0.0938 -1.2257  0.4182
 2145SOL     vw 8580   4.227   6.128   1.592 -0.4776 -0.0994 -0.0384
 2146SOL     ow 8581   4.693   3.610   4.956 -0.0427 -0.2315  0.4522
 2146SOL     hw 8582   4.780   3.576   4.978  0.2118 -0.8255 -1.3142
 2146SOL     hw 8583   4.654   3.541   4.902 -0.7462  0.9586 -0.6007
 2146SOL     vw 8584   4.699   3.596   4.952 -0.1020 -0.1528  0.0803
 2147SOL     ow 8585   1.895   4.547   6.373 -0.1827  0.4347 -0.2686
 2147SOL     hw 8586   1.804   4.522   6.389 -0.3093  0.1787 -1.3081
 2147SOL     hw 8587   1.894   4.643   6.375 -1.3799  0.7048 -4.4184
 2147SOL     vw 8588   1.883   4.556   6.376 -0.3573  0.4368 -0.9532
 2148SOL     ow 8589   6.917   0.974   0.514 -0.0484  0.1797 -0.2460
 2148SOL     hw 8590   6.870   0.927   0.445 -0.1046  0.9566 -0.7524
 2148SOL     hw 8591   6.932   1.061   0.477  0.1965  0.5055  0.6088
 2148SOL     vw 8592   6.912   0.979   0.500 -0.0236  0.3252 -0.2000
 2149SOL     ow 8593   5.569   3.973   0.142  0.3447  0.4680 -0.1624
 2149SOL     hw 8594   5.652   4.002   0.105  0.4456 -3.0784 -3.2027
 2149SOL     hw 8595   5.592   3.936   0.227  1.2245  2.4669  0.5418
 2149SOL     vw 8596   5.583   3.972   0.149  0.4740  0.2637 -0.4706
 2150SOL     ow 8597   6.887   2.017   2.664 -0.0869  0.8029 -0.6141
 2150SOL     hw 8598   6.968   2.005   2.614  0.2396 -0.0662  0.0830
 2150SOL     hw 8599   6.818   1.981   2.608  0.4019 -1.0890 -0.0937
 2150SOL     vw 8600   6.889   2.011   2.650  0.0205  0.4386 -0.4535
 2151SOL     ow 8601   0.054   5.220   1.067  0.8386 -0.1015  0.1963
 2151SOL     hw 8602   0.132   5.205   1.120  0.1228  0.7222  1.5354
 2151SOL     hw 8603   0.059   5.312   1.043  1.6538 -0.6751 -2.0653
 2151SOL     vw 8604   0.065   5.230   1.071  0.8517 -0.0684  0.0746
 2152SOL     ow 8605   0.891   6.943   5.204  0.0336 -0.1206  0.1086
 2152SOL     hw 8606   0.945   7.000   5.150 -0.4330 -1.0222 -1.3591
 2152SOL     hw 8607   0.881   6.863   5.153  1.7319 -2.1259  2.6226
 2152SOL     vw 8608   0.897   6.940   5.190  0.1962 -0.5043  0.2468
 2153SOL     ow 8609   3.913   6.231   5.178 -0.5425  0.0936 -0.3827
 2153SOL     hw 8610   3.986   6.177   5.148  1.5661  1.5086  1.8083
 2153SOL     hw 8611   3.869   6.176   5.243 -0.4711 -0.2027 -0.5820
 2153SOL     vw 8612   3.917   6.217   5.183 -0.2549  0.2413 -0.1199
 2154SOL     ow 8613   4.630   3.330   6.058  0.1733 -0.1975  0.1572
 2154SOL     hw 8614   4.606   3.263   6.122  0.8688 -0.5187  0.0925
 2154SOL     hw 8615   4.548   3.375   6.038 -0.1128 -0.3303  1.0010
 2154SOL     vw 8616   4.616   3.327   6.064  0.2272 -0.2575  0.2599
 2155SOL     ow 8617   0.496   6.674   2.559  0.6264 -0.0088 -0.2792
 2155SOL     hw 8618   0.557   6.748   2.563  1.7139 -0.8091 -1.1259
 2155SOL     hw 8619   0.419   6.708   2.515  0.4445  1.0364  0.8154
 2155SOL     vw 8620   0.494   6.688   2.554  0.7459  0.0234 -0.2465
 2156SOL     ow 8621   6.475   4.764   1.063  0.0550 -0.0193  0.2473
 2156SOL     hw 8622   6.537   4.785   0.993  2.0702 -0.0676  1.8977
 2156SOL     hw 8623   6.430   4.846   1.082  0.6223  0.3705 -0.0777
 2156SOL     vw 8624   6.477   4.778   1.057  0.3958  0.0255  0.4222
 2157SOL     ow 8625   6.607   5.193   4.688  0.0765 -0.0764 -0.0699
 2157SOL     hw 8626   6.581   5.285   4.693  0.5071  0.0709 -0.4588
 2157SOL     hw 8627   6.551   5.156   4.619 -0.5137 -0.2520  0.5005
 2157SOL     vw 8628   6.597   5.200   4.679  0.0553 -0.0799 -0.0463
 2158SOL     ow 8629   6.531   1.605   4.837 -0.5182  0.6883 -0.0904
 2158SOL     hw 8630   6.545   1.518   4.874 -3.3025  0.2879  0.2352
 2158SOL     hw 8631   6.496   1.589   4.749  2.7783  1.6171 -1.7878
 2158SOL     vw 8632   6.529   1.592   4.830 -0.4506  0.7581 -0.2713
 2159SOL     ow 8633   2.317   3.216   1.983 -0.0610  0.4403  0.1514
 2159SOL     hw 8634   2.371   3.142   2.012 -0.7784  0.2229  0.9451
 2159SOL     hw 8635   2.301   3.198   1.890 -1.6811 -1.3414  0.7176
 2159SOL     vw 8636   2.322   3.204   1.975 -0.3693  0.1765  0.3308
 2160SOL     ow 8637   6.822   0.548   1.210  0.5693  0.0202 -0.3169
 2160SOL     hw 8638   6.739   0.552   1.258  1.9584 -1.5651  2.4736
 2160SOL     hw 8639   6.862   0.634   1.224  1.0110 -0.4560  1.6255
 2160SOL     vw 8640   6.816   0.560   1.218  0.8109 -0.2518  0.3076
 2161poe    c31 8641   4.831   4.087   5.366  0.3665 -0.3415  0.3891
 2161poe     o2 8642   4.863   4.214   5.419 -0.2686 -0.0227  0.0228
 2161poe    c23 8643   4.894   4.223   5.556 -0.3174  0.0744  0.0279
 2161poe    c23 8644   4.906   4.366   5.611  0.1255  0.0606 -0.0316
 2161poe     o2 8645   4.780   4.412   5.655  0.1225  0.1692 -0.1541
 2161poe    c23 8646   4.775   4.541   5.710 -0.2643 -0.0554  0.3388
 2161poe    c23 8647   4.628   4.559   5.755 -0.4095 -0.3050 -0.0339
 2161poe     o2 8648   4.596   4.473   5.862  0.0700 -0.0105  0.3511
 2161poe    c23 8649   4.506   4.545   5.943 -0.1662  0.1110 -0.0137
 2161poe    c23 8650   4.453   4.486   6.076 -0.3780  0.3721  0.0171
 2161poe     o2 8651   4.543   4.481   6.184 -0.2275 -0.1017 -0.1300
 2161poe    c31 8652   4.506   4.368   6.260 -0.4157 -0.0642 -0.1664
 2162poe    c31 8653   2.203   3.611   0.542 -0.3985 -0.0096  0.1105
 2162poe     o2 8654   2.321   3.543   0.580 -0.0274  0.2863 -0.4952
 2162poe    c23 8655   2.346   3.569   0.716  0.3839 -0.0225 -0.5113
 2162poe    c23 8656   2.490   3.534   0.758  0.1405 -0.7719 -0.2782
 2162poe     o2 8657   2.590   3.605   0.688  0.2435 -0.3510  0.2884
 2162poe    c23 8658   2.724   3.559   0.694  0.3038 -0.2250 -0.0904
 2162poe    c23 8659   2.756   3.453   0.588 -0.1554 -0.2656 -0.1926
 2162poe     o2 8660   2.744   3.506   0.457 -0.4947  0.1103 -0.0108
 2162poe    c23 8661   2.773   3.407   0.361  0.1544  0.0021  0.2964
 2162poe    c23 8662   2.793   3.451   0.215  0.0048  0.0518  0.2915
 2162poe     o2 8663   2.669   3.473   0.152  0.2778 -0.0712 -0.2974
 2162poe    c31 8664   2.682   3.484   0.012  0.3106 -0.1324 -0.2990
 2163poe    c31 8665   0.771   4.125   1.204 -0.2897  0.2749 -0.0395
 2163poe     o2 8666   0.854   4.169   1.099 -0.4000  0.3627 -0.0910
 2163poe    c23 8667   0.925   4.071   1.027 -0.4012  0.0408  0.3404
 2163poe    c23 8668   0.978   4.118   0.890 -0.4838  0.7480  0.5509
 2163poe     o2 8669   1.088   4.206   0.898  0.5505 -0.4892  0.1761
 2163poe    c23 8670   1.124   4.263   0.774  0.0013 -0.4261  0.0454
 2163poe    c23 8671   1.200   4.393   0.802 -0.7980  0.1513 -0.4127
 2163poe     o2 8672   1.122   4.490   0.867 -0.1444  0.3689  0.0632
 2163poe    c23 8673   1.163   4.621   0.833  0.5727  0.0139 -0.4496
 2163poe    c23 8674   1.037   4.709   0.835  0.3733 -0.2801  0.4218
 2163poe     o2 8675   0.971   4.689   0.958 -0.1580  0.0092  0.1852
 2163poe    c31 8676   0.952   4.817   1.016  0.4644  0.1751  0.0227
 2164poe    c31 8677   2.253   6.904   1.505  0.5745  0.2682  0.8376
 2164poe     o2 8678   2.249   7.005   1.407 -0.1057  0.0048  0.5866
 2164poe    c23 8679   2.136   7.001   1.322  0.1168  0.4028  0.2706
 2164poe    c23 8680   2.174   7.058   1.184  0.7010 -0.3514  0.1120
 2164poe     o2 8681   2.197   7.197   1.195 -0.8576  0.0189 -0.9469
 2164poe    c23 8682   2.277   7.236   1.086  0.1557 -0.0951 -0.2629
 2164poe    c23 8683   2.273   7.390   1.079  0.2022 -0.0902 -0.1814
 2164poe     o2 8684   2.300   7.428   1.212  0.0253 -0.0922 -0.1448
 2164poe    c23 8685   2.333   7.564   1.228  0.0493 -0.0653 -0.4194
 2164poe    c23 8686   2.363   7.589   1.377 -0.0307 -0.7724 -0.2822
 2164poe     o2 8687   2.258   7.536   1.455 -0.8265  0.7670 -0.2842
 2164poe    c31 8688   2.258   7.576   1.591  0.6057  0.7867 -0.2785
 2165poe    c31 8689   6.224   2.844   4.522  0.2625  0.2339  0.1663
 2165poe     o2 8690   6.128   2.930   4.463 -0.1122 -0.0527  0.3561
 2165poe    c23 8691   6.028   2.854   4.400  0.2448  0.3742 -0.7550
 2165poe    c23 8692   5.937   2.954   4.327  0.0861  0.5304 -0.3510
 2165poe     o2 8693   5.871   3.029   4.426  0.2151  0.3076 -0.0948
 2165poe    c23 8694   5.797   3.136   4.371 -0.3982 -0.0027  0.1118
 2165poe    c23 8695   5.732   3.230   4.473  0.0079  0.0111  0.3603
 2165poe     o2 8696   5.832   3.316   4.523 -0.2261  0.4872  0.0129
 2165poe    c23 8697   5.773   3.423   4.594 -0.4794  0.3596 -0.0062
 2165poe    c23 8698   5.869   3.541   4.571  0.2369 -0.1996  0.0731
 2165poe     o2 8699   5.888   3.578   4.436  0.2438  0.1269  0.1621
 2165poe    c31 8700   6.007   3.654   4.426  0.5263 -0.3627 -0.2896
 2166poe    c31 8701   6.448   0.915   2.292  0.3685 -0.1426 -0.2932
 2166poe     o2 8702   6.445   1.020   2.198  0.2284 -0.4279 -0.6062
 2166poe    c23 8703   6.317   1.076   2.179  0.1530 -0.3675  0.0666
 2166poe    c23 8704   6.321   1.178   2.064  0.2440 -0.1112  0.2948
 2166poe     o2 8705   6.396   1.121   1.959  0.3510  0.3576  0.1145
 2166poe    c23 8706   6.396   1.217   1.856 -0.6535 -0.1932 -0.4176
 2166poe    c23 8707   6.464   1.174   1.724 -0.0258 -0.4807 -0.0100
 2166poe     o2 8708   6.601   1.167   1.756 -0.0358 -0.1703  0.1037
 2166poe    c23 8709   6.677   1.104   1.656 -0.2468 -0.2368 -0.0150
 2166poe    c23 8710   6.827   1.086   1.684 -0.1848 -0.0074 -0.2035
 2166poe     o2 8711   6.858   1.073   1.821  0.1069 -0.0363 -0.2702
 2166poe    c31 8712   6.994   1.107   1.834  0.0038 -0.0891  1.0661
 2167poe    c31 8713   5.211   3.915   6.872  0.0621  0.1158 -0.2518
 2167poe     o2 8714   5.204   4.040   6.937  0.0638 -0.0795  0.1223
 2167poe    c23 8715   5.070   4.075   6.964 -0.0045 -0.1800 -0.0821
 2167poe    c23 8716   5.054   4.201   7.051  0.3217 -0.1322 -0.0915
 2167poe     o2 8717   5.103   4.187   7.183 -0.4400 -0.5194  0.1560
 2167poe    c23 8718   5.046   4.282   7.270 -0.4634 -0.2755 -0.1249
 2167poe    c23 8719   5.142   4.344   7.373 -0.2737 -0.8790  0.0638
 2167poe     o2 8720   5.130   4.274   7.495  0.6796 -0.3801  0.4567
 2167poe    c23 8721   5.232   4.330   7.575  0.6084  0.2980  0.0879
 2167poe    c23 8722   5.252   4.267   7.714 -0.5203  0.0623  0.1525
 2167poe     o2 8723   5.132   4.258   7.788 -0.6205 -0.7621 -0.1002
 2167poe    c31 8724   5.150   4.210   7.919 -0.2481 -0.0504  0.1173
 2168poe    c31 8725   0.786   0.635   0.385 -0.1867 -0.0062  0.1428
 2168poe     o2 8726   0.738   0.506   0.414 -0.5286  0.1694  0.3682
 2168poe    c23 8727   0.714   0.492   0.552  0.0822  0.4539  0.5042
 2168poe    c23 8728   0.685   0.348   0.597 -0.0302  0.4114  0.2986
 2168poe     o2 8729   0.568   0.291   0.545  0.2164 -0.4051  0.6188
 2168poe    c23 8730   0.535   0.166   0.602 -0.4840 -0.2739  0.5195
 2168poe    c23 8731   0.410   0.092   0.552 -0.1770 -0.7484  0.4441
 2168poe     o2 8732   0.435   0.091   0.414  0.1316  0.4598  0.4779
 2168poe    c23 8733   0.311   0.081   0.347  0.4858  0.6008 -0.2121
 2168poe    c23 8734   0.300   0.114   0.197 -0.2070  0.7265 -0.1355
 2168poe     o2 8735   0.312   0.251   0.168  0.5029  0.7166  0.0917
 2168poe    c31 8736   0.228   0.296   0.064 -0.0022  0.7739  0.5250
 2169poe    c31 8737   0.011   0.954   0.234 -0.2693  0.0962 -0.0546
 2169poe     o2 8738   0.104   0.870   0.169  0.0475  0.1436  0.3367
 2169poe    c23 8739   0.104   0.742   0.228  0.0262 -0.1671 -0.3241
 2169poe    c23 8740   0.188   0.650   0.139  0.6479 -0.5491  0.6392
 2169poe     o2 8741   0.300   0.730   0.106  0.3779 -0.0665  0.8961
 2169poe    c23 8742   0.382   0.659   0.016  0.2762  0.0876  0.6808
 2169poe    c23 8743   0.518   0.729  -0.005  0.0094  0.4103 -0.0010
 2169poe     o2 8744   0.499   0.859  -0.057 -0.8400  0.2887 -0.0137
 2169poe    c23 8745   0.619   0.928  -0.082 -0.5728 -0.0644  0.2802
 2169poe    c23 8746   0.613   1.082  -0.083 -0.1056 -0.0441  0.3576
 2169poe     o2 8747   0.589   1.130   0.047  0.6146  0.2771  0.3777
 2169poe    c31 8748   0.559   1.267   0.047  0.0280  0.1539 -0.2198
 2170poe    c31 8749   3.433   4.905   5.069 -0.0558  0.3176  0.3918
 2170poe     o2 8750   3.510   4.792   5.105 -0.3622 -0.0533 -0.1068
 2170poe    c23 8751   3.562   4.729   4.990  0.0963 -0.0298  0.0872
 2170poe    c23 8752   3.682   4.635   5.009  0.3279  0.3631  0.5969
 2170poe     o2 8753   3.661   4.507   5.066 -0.5249  0.3557  0.2782
 2170poe    c23 8754   3.764   4.415   5.040 -0.4312  0.3289  0.7286
 2170poe    c23 8755   3.868   4.395   5.152  0.1807  0.4742  0.1902
 2170poe     o2 8756   3.846   4.342   5.280 -0.6092  0.0087 -0.1273
 2170poe    c23 8757   3.792   4.212   5.274  0.2065 -0.3229 -0.4663
 2170poe    c23 8758   3.814   4.155   5.415 -0.7506 -0.7734 -0.4907
 2170poe     o2 8759   3.745   4.238   5.506  0.0776 -0.6717  0.0633
 2170poe    c31 8760   3.773   4.199   5.638 -0.4091 -0.4033  0.2495
 2171poe    c31 8761   4.804   2.068   2.750  0.9532  0.2392 -0.1967
 2171poe     o2 8762   4.711   2.143   2.676  0.2834  0.0959  0.4925
 2171poe    c23 8763   4.582   2.086   2.669  0.1569  0.3734  0.5533
 2171poe    c23 8764   4.497   2.168   2.571  0.4088 -0.2953 -0.2354
 2171poe     o2 8765   4.466   2.293   2.628 -0.0696 -0.3690 -0.3286
 2171poe    c23 8766   4.401   2.373   2.532 -0.2734 -0.0744  0.0498
 2171poe    c23 8767   4.342   2.498   2.601 -0.5332  0.0793 -0.4467
 2171poe     o2 8768   4.438   2.601   2.612 -0.4274 -0.0110 -0.5187
 2171poe    c23 8769   4.390   2.695   2.705 -0.3274 -0.2023 -0.2736
 2171poe    c23 8770   4.496   2.806   2.717  0.1546 -0.6325 -0.5269
 2171poe     o2 8771   4.621   2.743   2.735  0.4357  0.0164 -0.1583
 2171poe    c31 8772   4.727   2.815   2.794  0.5826 -0.4122  0.0992
 2172poe    c31 8773   4.988   1.676   2.798  0.1630 -0.0333  0.0842
 2172poe     o2 8774   5.013   1.537   2.806  0.0695 -0.0427  0.2174
 2172poe    c23 8775   4.965   1.457   2.700 -0.0948  0.0760  0.2021
 2172poe    c23 8776   4.987   1.308   2.731 -0.4256 -0.1086 -0.4470
 2172poe     o2 8777   5.126   1.287   2.729 -0.3718  0.2224 -0.1984
 2172poe    c23 8778   5.152   1.149   2.734  0.1374  0.2904 -0.9062
 2172poe    c23 8779   5.305   1.130   2.724  0.1462  0.0072 -0.2732
 2172poe     o2 8780   5.370   1.182   2.838 -0.0375  0.4479 -0.3689
 2172poe    c23 8781   5.510   1.176   2.831 -0.0411  0.1609 -0.1812
 2172poe    c23 8782   5.583   1.136   2.961  0.3380 -0.1099 -0.4742
 2172poe     o2 8783   5.597   1.222   3.072  0.2025  0.0945 -0.6158
 2172poe    c31 8784   5.695   1.171   3.160 -0.0113  0.2755 -0.2707
 2173poe    c31 8785   5.883   0.275   2.745  0.3979  0.0793  0.1082
 2173poe     o2 8786   5.993   0.324   2.671  0.0757  0.2860 -0.2367
 2173poe    c23 8787   6.017   0.460   2.700 -0.7574  0.4623 -0.3358
 2173poe    c23 8788   6.122   0.522   2.606 -0.3762  0.3565  0.0162
 2173poe     o2 8789   6.254   0.473   2.608 -0.4096  0.2576 -0.1975
 2173poe    c23 8790   6.337   0.537   2.513 -0.3140  0.0870 -0.2309
 2173poe    c23 8791   6.475   0.470   2.500  0.0717  0.8750 -0.2680
 2173poe     o2 8792   6.568   0.484   2.604  0.1330 -0.0892 -0.1803
 2173poe    c23 8793   6.638   0.607   2.605  0.1003 -0.0711 -0.1613
 2173poe    c23 8794   6.726   0.624   2.730  0.4424  0.1400 -0.4313
 2173poe     o2 8795   6.844   0.546   2.729  0.2244 -0.1923 -0.2975
 2173poe    c31 8796   6.913   0.562   2.851 -0.0450 -0.3917 -0.1176
 2174poe    c31 8797   3.521   5.454   3.716  0.8398 -0.0303 -0.7975
 2174poe     o2 8798   3.610   5.368   3.784  0.3174  0.1626  0.1496
 2174poe    c23 8799   3.607   5.381   3.924  0.0705  0.2394  0.1395
 2174poe    c23 8800   3.708   5.286   3.993  0.2327  0.4936  0.2537
 2174poe     o2 8801   3.842   5.321   3.968  0.3212  0.0212  0.0700
 2174poe    c23 8802   3.923   5.211   4.004 -0.1896 -0.4363 -0.1609
 2174poe    c23 8803   4.075   5.236   4.000 -0.3770  0.8111  0.1758
 2174poe     o2 8804   4.102   5.276   3.867  0.1571  0.6249  0.2292
 2174poe    c23 8805   4.237   5.281   3.827  0.2840 -0.0813  0.5396
 2174poe    c23 8806   4.246   5.324   3.680 -0.6241 -0.1187  0.4714
 2174poe     o2 8807   4.143   5.418   3.656  0.2747  0.7184 -0.1522
 2174poe    c31 8808   4.150   5.493   3.536  0.1195  0.6458 -0.2059
 2175poe    c31 8809   4.984   6.152   4.482  0.3332 -0.3234 -0.7145
 2175poe     o2 8810   4.886   6.161   4.382  0.1508 -0.3006 -0.5342
 2175poe    c23 8811   4.755   6.142   4.432  0.2398  0.2996 -0.0609
 2175poe    c23 8812   4.650   6.122   4.321  0.0585 -0.1028  0.1850
 2175poe     o2 8813   4.658   6.004   4.243  0.3554  0.1317 -0.1389
 2175poe    c23 8814   4.654   6.020   4.103 -0.0088  0.0843 -0.1359
 2175poe    c23 8815   4.614   5.889   4.033 -0.0055  0.1107 -0.1879
 2175poe     o2 8816   4.479   5.865   4.066  0.0219 -0.1257 -0.2449
 2175poe    c23 8817   4.421   5.780   3.969  0.3725 -0.2254 -0.3677
 2175poe    c23 8818   4.277   5.824   3.937  0.4351 -0.1066 -0.4907
 2175poe     o2 8819   4.207   5.766   3.829  0.1769 -0.4371 -0.1506
 2175poe    c31 8820   4.266   5.792   3.704  0.5512 -0.9012 -0.0737
 2176poe    c31 8821   7.095   2.051   1.767 -0.3350 -0.2890 -0.1986
 2176poe     o2 8822   7.085   1.911   1.775 -0.4415 -0.2644  0.1070
 2176poe    c23 8823   7.176   1.847   1.688  0.4238  0.6448  0.3302
 2176poe    c23 8824   7.170   1.695   1.715  0.4071  0.5793 -0.0455
 2176poe     o2 8825   7.033   1.669   1.738  0.5402  0.0231  0.1118
 2176poe    c23 8826   7.012   1.533   1.705  0.1343  0.1959 -0.3479
 2176poe    c23 8827   6.875   1.494   1.764  0.3427 -0.2711 -0.1727
 2176poe     o2 8828   6.772   1.569   1.704  0.1057 -0.4660 -0.0107
 2176poe    c23 8829   6.651   1.552   1.775  0.0680 -0.4479 -0.0709
 2176poe    c23 8830   6.541   1.649   1.726  0.4594  0.1744  0.2625
 2176poe     o2 8831   6.582   1.784   1.722  0.6031  0.1140 -0.4546
 2176poe    c31 8832   6.463   1.853   1.754  0.4900 -0.2815 -0.0004
 2177poe    c31 8833   5.755   3.508   2.474  0.5876  0.1560  0.5655
 2177poe     o2 8834   5.677   3.604   2.541 -0.2611 -0.1669  0.0669
 2177poe    c23 8835   5.585   3.657   2.448 -0.2946 -0.2421  0.0569
 2177poe    c23 8836   5.454   3.681   2.526 -0.1996 -0.4985  0.2951
 2177poe     o2 8837   5.499   3.738   2.647 -0.2076 -0.1364  0.1265
 2177poe    c23 8838   5.396   3.801   2.721 -0.1969 -0.3561  0.3291
 2177poe    c23 8839   5.464   3.907   2.809 -0.1337 -0.3603  0.2859
 2177poe     o2 8840   5.582   3.860   2.870  0.6268  0.1791 -0.7449
 2177poe    c23 8841   5.633   3.947   2.969  0.2861 -0.2585 -0.1803
 2177poe    c23 8842   5.775   3.907   3.015  0.2945  0.3390  0.3162
 2177poe     o2 8843   5.870   3.923   2.913  0.2549 -0.6665  0.1159
 2177poe    c31 8844   5.986   3.850   2.946  0.0168 -0.7274  0.8358
 2178poe    c31 8845   5.364   3.665   3.175 -0.1865  0.2963 -0.2229
 2178poe     o2 8846   5.255   3.606   3.241 -0.0953  0.1463 -0.2060
 2178poe    c23 8847   5.220   3.476   3.197  0.3457  0.1001 -0.4317
 2178poe    c23 8848   5.067   3.458   3.199  0.3280  0.2433 -0.4220
 2178poe     o2 8849   5.021   3.324   3.193  0.0615  0.3500 -0.8069
 2178poe    c23 8850   4.881   3.331   3.180 -0.0162  0.0490 -0.1376
 2178poe    c23 8851   4.811   3.194   3.192  0.0496 -0.0086 -0.3977
 2178poe     o2 8852   4.810   3.102   3.085  0.0176 -0.5521  0.0658
 2178poe    c23 8853   4.736   3.130   2.969 -0.4288 -0.4097  0.3810
 2178poe    c23 8854   4.583   3.119   2.972 -0.4377 -0.5309 -0.2592
 2178poe     o2 8855   4.521   3.178   3.084 -0.1980 -0.2192 -0.2922
 2178poe    c31 8856   4.381   3.169   3.088 -0.1662 -0.3354  1.0109
 2179poe    c31 8857   5.083   0.605   5.354  0.3043 -0.3702  0.3930
 2179poe     o2 8858   5.150   0.704   5.429 -0.0585  0.2165 -0.0449
 2179poe    c23 8859   5.065   0.785   5.508 -0.0045  0.1568  0.0745
 2179poe    c23 8860   5.151   0.871   5.602  0.1493  0.2784 -0.1750
 2179poe     o2 8861   5.250   0.929   5.520 -0.0487  0.5808 -0.2002
 2179poe    c23 8862   5.333   1.012   5.597  0.3018 -0.1628  0.2357
 2179poe    c23 8863   5.423   1.087   5.497 -0.0649  0.1493  0.1350
 2179poe     o2 8864   5.492   0.999   5.411  0.2252  0.2931  0.2195
 2179poe    c23 8865   5.591   1.070   5.339 -0.0165  0.1646 -0.2423
 2179poe    c23 8866   5.698   0.968   5.298 -0.0245  0.1865 -0.3179
 2179poe     o2 8867   5.630   0.859   5.240 -0.0541 -0.0797  0.2066
 2179poe    c31 8868   5.720   0.791   5.156 -0.0410  0.3364 -0.1180
 2180poe    c31 8869   0.290   4.695   6.951 -0.0226  0.0026 -0.2802
 2180poe     o2 8870   0.410   4.629   6.985 -0.0128  0.2223  0.1166
 2180poe    c23 8871   0.385   4.574   7.112  0.2148 -0.0363  0.0492
 2180poe    c23 8872   0.511   4.574   7.200  0.1958  0.6950  0.0766
 2180poe     o2 8873   0.608   4.480   7.160 -0.5139 -0.2286  0.5041
 2180poe    c23 8874   0.718   4.492   7.248 -0.0183  0.7384 -0.2307
 2180poe    c23 8875   0.823   4.382   7.221 -0.2825  0.4214  0.0219
 2180poe     o2 8876   0.893   4.412   7.102 -0.1644 -0.1080 -0.0410
 2180poe    c23 8877   1.006   4.329   7.083 -0.0300 -0.1087  0.7376
 2180poe    c23 8878   1.075   4.339   6.946 -0.5177 -0.3356  0.4709
 2180poe     o2 8879   0.992   4.311   6.836 -0.2097  0.1305  0.1148
 2180poe    c31 8880   1.071   4.279   6.724 -0.0091 -0.0288  0.3009
 2181poe    c31 8881   3.723   5.763   3.977 -0.0010 -0.1274  0.2877
 2181poe     o2 8882   3.777   5.728   3.851  0.2974 -0.0528  0.3936
 2181poe    c23 8883   3.729   5.823   3.758  0.7764  0.1941  0.3924
 2181poe    c23 8884   3.785   5.804   3.616  0.1194  0.0760  0.1417
 2181poe     o2 8885   3.719   5.692   3.563  0.7353 -0.2045 -0.0507
 2181poe    c23 8886   3.736   5.682   3.424  0.6734  0.3568 -0.1017
 2181poe    c23 8887   3.676   5.550   3.373  0.8296  0.1036  0.3602
 2181poe     o2 8888   3.736   5.427   3.406  0.0180 -0.5077 -0.3888
 2181poe    c23 8889   3.660   5.315   3.364 -0.7718 -0.2089  0.2265
 2181poe    c23 8890   3.732   5.180   3.377  0.3019  0.3546  0.2594
 2181poe     o2 8891   3.847   5.155   3.299 -0.1849  0.2114 -0.4190
 2181poe    c31 8892   3.957   5.123   3.380 -0.4728 -0.0927 -0.1447
 2182poe    c31 8893   7.101   3.325   1.922 -0.6209  0.1818 -0.7692
 2182poe     o2 8894   7.216   3.396   1.882 -0.0819 -0.2370  0.0154
 2182poe    c23 8895   7.284   3.334   1.776  0.2643 -0.1503  0.1865
 2182poe    c23 8896   7.386   3.433   1.717 -0.1420  0.0816 -0.1296
 2182poe     o2 8897   7.329   3.552   1.667  0.0315  0.3903  0.4044
 2182poe    c23 8898   7.425   3.649   1.633  0.2010  0.3012  0.6224
 2182poe    c23 8899   7.366   3.782   1.583 -0.6363 -0.4605 -0.4676
 2182poe     o2 8900   7.270   3.811   1.682 -0.0846 -0.1464 -0.0218
 2182poe    c23 8901   7.222   3.942   1.662 -0.3824 -0.2425  0.0647
 2182poe    c23 8902   7.135   3.989   1.781 -0.3907 -0.2113  0.0462
 2182poe     o2 8903   7.073   3.868   1.815  0.7544 -0.6074  0.7651
 2182poe    c31 8904   7.000   3.876   1.936  0.6639  0.4528  0.6480
 2183poe    c31 8905   6.267   4.573   1.340  0.0915 -0.4779 -1.0358
 2183poe     o2 8906   6.385   4.647   1.316 -0.0023 -0.0530 -0.2052
 2183poe    c23 8907   6.411   4.721   1.433 -0.1694 -0.7911  0.3118
 2183poe    c23 8908   6.560   4.760   1.426 -0.2177 -0.6605 -0.0080
 2183poe     o2 8909   6.627   4.700   1.317  0.1954 -0.3878  0.0921
 2183poe    c23 8910   6.765   4.699   1.346  0.2299 -0.1356 -0.0604
 2183poe    c23 8911   6.833   4.647   1.218 -0.3255 -1.0710  0.0084
 2183poe     o2 8912   6.786   4.723   1.109  0.2931  0.1302  0.5482
 2183poe    c23 8913   6.833   4.676   0.984  0.5846  0.3825  0.5629
 2183poe    c23 8914   6.775   4.762   0.870 -0.0994 -0.3620  0.3413
 2183poe     o2 8915   6.638   4.740   0.840 -0.1336 -0.1696  0.3568
 2183poe    c31 8916   6.578   4.827   0.747  0.1320  0.2780  0.5959
 2184poe    c31 8917   4.378   0.701   2.002  0.0291 -0.2544  0.2166
 2184poe     o2 8918   4.298   0.811   2.039  0.2496 -0.0352  0.0394
 2184poe    c23 8919   4.385   0.912   2.085  0.1936 -0.0806  0.2447
 2184poe    c23 8920   4.300   1.038   2.111 -0.1588 -0.2394 -0.1300
 2184poe     o2 8921   4.173   0.997   2.156 -0.0054 -0.7238 -0.1335
 2184poe    c23 8922   4.071   1.094   2.158  0.3266 -0.3697 -0.4964
 2184poe    c23 8923   3.948   1.044   2.235  0.4197  0.6265  0.3226
 2184poe     o2 8924   3.968   1.033   2.374  0.3085  0.7036  0.3450
 2184poe    c23 8925   3.857   0.975   2.438  0.5231  0.3016  0.3558
 2184poe    c23 8926   3.896   0.932   2.581  0.2509 -0.8099  0.1064
 2184poe     o2 8927   3.924   1.040   2.667  0.0023 -0.2564 -0.4958
 2184poe    c31 8928   3.979   0.997   2.790 -0.3630  0.1790 -0.1750
 2185poe    c31 8929   5.143   3.932   3.777 -0.1345 -0.0566 -0.5269
 2185poe     o2 8930   5.279   3.898   3.758 -0.0059 -0.1253  0.5000
 2185poe    c23 8931   5.363   3.999   3.810  0.0394 -0.1171  0.4093
 2185poe    c23 8932   5.510   3.963   3.839 -0.0246 -0.3771  0.4162
 2185poe     o2 8933   5.580   3.903   3.732  0.0026  0.0094  0.2138
 2185poe    c23 8934   5.716   3.883   3.764  0.0705 -0.2691 -0.2361
 2185poe    c23 8935   5.809   3.844   3.648 -0.0368 -0.1763 -0.3547
 2185poe     o2 8936   5.758   3.718   3.609  0.2839 -0.3768 -0.1334
 2185poe    c23 8937   5.802   3.661   3.488  0.2611 -0.0470 -0.2983
 2185poe    c23 8938   5.720   3.533   3.464  0.0343  0.1039 -0.3312
 2185poe     o2 8939   5.581   3.554   3.467  0.1001  0.6547 -0.9414
 2185poe    c31 8940   5.521   3.442   3.407 -0.0708  0.3113 -0.1461
 2186poe    c31 8941   3.510   6.114   0.806 -0.3001  0.5818 -0.1182
 2186poe     o2 8942   3.598   6.063   0.904  0.3432 -0.0155 -0.9970
 2186poe    c23 8943   3.592   5.925   0.931 -0.0203  0.1344 -0.2816
 2186poe    c23 8944   3.679   5.893   1.054 -0.1407  0.3319 -0.1454
 2186poe     o2 8945   3.800   5.958   1.019  0.1699 -0.0622  0.1859
 2186poe    c23 8946   3.910   5.940   1.105  0.1919 -0.5060  0.0697
 2186poe    c23 8947   4.011   6.048   1.061 -0.4024  0.1091  0.1923
 2186poe     o2 8948   3.950   6.175   1.053 -0.4827  0.0334 -0.4777
 2186poe    c23 8949   4.048   6.264   1.004 -0.2036  0.4241  0.7571
 2186poe    c23 8950   4.040   6.406   1.062  0.7056  0.6301  0.3911
 2186poe     o2 8951   3.913   6.455   1.026  0.5980  0.0706  0.0098
 2186poe    c31 8952   3.882   6.577   1.088 -0.7347 -0.1382 -0.2106
 2187poe    c31 8953   5.366   2.362   2.795  0.4953 -0.1930 -0.0961
 2187poe     o2 8954   5.452   2.349   2.684  0.4465 -0.4390 -0.1050
 2187poe    c23 8955   5.389   2.283   2.576 -0.2345  0.0450 -0.0089
 2187poe    c23 8956   5.488   2.286   2.459 -0.4486  0.2475 -0.1877
 2187poe     o2 8957   5.620   2.262   2.504 -0.5620 -0.5391 -0.2671
 2187poe    c23 8958   5.711   2.245   2.398 -0.4860 -0.0662 -0.2803
 2187poe    c23 8959   5.848   2.222   2.465 -0.8183 -0.6133  0.2252
 2187poe     o2 8960   5.877   2.325   2.556  0.4807 -0.4114 -0.3934
 2187poe    c23 8961   6.006   2.300   2.607  0.4843  0.2602 -0.0548
 2187poe    c23 8962   6.049   2.396   2.719  0.4805  0.0669  0.1134
 2187poe     o2 8963   5.967   2.398   2.834  0.0400  0.4495 -0.2060
 2187poe    c31 8964   6.027   2.466   2.942  0.0974  0.2516 -0.1126
 2188poe    c31 8965   5.501   0.200   5.194 -0.3060 -0.3198  0.2163
 2188poe     o2 8966   5.563   0.251   5.078 -0.5119 -0.2369  0.1428
 2188poe    c23 8967   5.639   0.368   5.097 -0.0293 -0.5078 -0.1159
 2188poe    c23 8968   5.564   0.493   5.048 -0.6956 -0.6628  0.4915
 2188poe     o2 8969   5.515   0.480   4.916  0.3433 -0.2814  0.0548
 2188poe    c23 8970   5.431   0.586   4.877 -0.0109 -0.4210  0.4229
 2188poe    c23 8971   5.400   0.564   4.727 -0.1051  0.3642  0.3250
 2188poe     o2 8972   5.352   0.434   4.704  0.0716  0.3545  0.0106
 2188poe    c23 8973   5.334   0.421   4.565 -0.6475  0.2239  0.1150
 2188poe    c23 8974   5.261   0.287   4.542 -0.1962 -0.0968  0.5327
 2188poe     o2 8975   5.335   0.176   4.588 -0.5993 -0.4729  0.2893
 2188poe    c31 8976   5.266   0.056   4.566 -0.6820 -0.3070 -0.3832
 2189poe    c31 8977   4.015   1.922   3.133 -0.0032  0.3040 -0.5653
 2189poe     o2 8978   4.047   2.054   3.171  0.2348  0.1263 -0.1409
 2189poe    c23 8979   4.054   2.134   3.056 -0.3077 -0.1339 -0.3611
 2189poe    c23 8980   4.088   2.279   3.096  0.6481 -0.3980 -0.1916
 2189poe     o2 8981   4.217   2.302   3.150  0.2766 -0.0045  0.5414
 2189poe    c23 8982   4.293   2.387   3.067 -0.3026 -0.4527 -0.4729
 2189poe    c23 8983   4.427   2.315   3.042 -0.1739 -0.3859  0.0101
 2189poe     o2 8984   4.468   2.280   3.172 -0.3555  0.1089  0.1996
 2189poe    c23 8985   4.577   2.191   3.166 -0.0662  0.4804 -0.0930
 2189poe    c23 8986   4.631   2.177   3.310 -0.3027  0.7700  0.0263
 2189poe     o2 8987   4.515   2.162   3.388 -0.2788 -0.0766 -0.0913
 2189poe    c31 8988   4.528   2.095   3.511  0.3136  0.9093  0.4033
 2190poe    c31 8989   7.037   2.167   5.052 -0.3254 -0.6230  0.5435
 2190poe     o2 8990   7.150   2.156   5.135  0.1277 -0.5615 -0.0566
 2190poe    c23 8991   7.108   2.219   5.254  0.3957 -0.1218 -0.1941
 2190poe    c23 8992   7.223   2.210   5.356  0.4525 -0.4860 -0.2881
 2190poe     o2 8993   7.300   2.328   5.347 -0.5423  0.2039  0.0186
 2190poe    c23 8994   7.339   2.375   5.475 -0.3449  0.2586 -0.0606
 2190poe    c23 8995   7.440   2.486   5.440  0.0578  0.0425  0.3952
 2190poe     o2 8996   7.390   2.602   5.377  0.2390  0.1401  0.4330
 2190poe    c23 8997   7.486   2.689   5.321  0.2593 -0.2555 -0.1566
 2190poe    c23 8998   7.440   2.768   5.197  0.4744  0.5141  0.2477
 2190poe     o2 8999   7.421   2.680   5.089  0.7069  0.4719  0.2409
 2190poe    c31 9000   7.465   2.737   4.968 -0.1787  0.3979 -0.1227
 2191poe    c31 9001   0.978   5.923   6.467  0.0672  0.0150  0.2985
 2191poe     o2 9002   1.057   6.028   6.416 -0.1559  0.0239 -0.0283
 2191poe    c23 9003   0.992   6.151   6.443 -0.2845  0.0107 -0.2695
 2191poe    c23 9004   1.052   6.270   6.366  0.3070  0.0227  0.1941
 2191poe     o2 9005   1.191   6.253   6.378  0.3399 -0.1972 -0.4406
 2191poe    c23 9006   1.267   6.369   6.352 -0.3693  0.4699  0.4113
 2191poe    c23 9007   1.400   6.339   6.424 -0.2825 -0.5919 -0.1682
 2191poe     o2 9008   1.437   6.205   6.400  0.7200 -0.3510  0.0106
 2191poe    c23 9009   1.569   6.180   6.445  0.4057 -0.1392  1.0944
 2191poe    c23 9010   1.623   6.036   6.443 -0.1636 -0.3641 -0.7137
 2191poe     o2 9011   1.561   5.957   6.542  0.1911  0.4211  0.1541
 2191poe    c31 9012   1.607   5.824   6.538  0.1632  0.4063  0.3070
 2192poe    c31 9013   4.176   1.098   5.097 -0.0100  0.4748 -0.1474
 2192poe     o2 9014   4.118   0.980   5.145  0.3946  0.5934  0.6411
 2192poe    c23 9015   3.979   0.980   5.118  0.5696  0.0116 -0.3120
 2192poe    c23 9016   3.932   0.836   5.094 -0.3003  0.3306 -0.5340
 2192poe     o2 9017   4.037   0.765   5.032 -0.6769 -0.2809 -0.4844
 2192poe    c23 9018   4.019   0.626   5.022 -0.1704 -0.3775 -0.1196
 2192poe    c23 9019   4.131   0.586   4.924 -0.0815 -0.2309 -0.0766
 2192poe     o2 9020   4.255   0.620   4.983 -0.2222  0.1057  0.0293
 2192poe    c23 9021   4.346   0.599   4.877  0.0220  0.6085  0.1370
 2192poe    c23 9022   4.478   0.659   4.929  0.2632  0.3312 -0.1498
 2192poe     o2 9023   4.465   0.795   4.964  0.0498  0.2299  0.1674
 2192poe    c31 9024   4.584   0.851   5.014  0.0363 -0.0398  0.4986
 2193poe    c31 9025   0.073   2.626   2.706  0.1319 -0.0619  0.2908
 2193poe     o2 9026   0.131   2.535   2.797  0.3380 -0.1963  0.0249
 2193poe    c23 9027   0.110   2.566   2.933  0.3403 -0.4121  0.0740
 2193poe    c23 9028   0.171   2.699   2.978  0.1283 -0.1570 -0.3823
 2193poe     o2 9029   0.308   2.684   3.006  0.0676  0.3352  0.2189
 2193poe    c23 9030   0.344   2.648   3.138  0.2504  0.7076  0.2715
 2193poe    c23 9031   0.492   2.605   3.143  0.1132  0.2793  0.7458
 2193poe     o2 9032   0.595   2.674   3.075  0.2048  0.1402  0.7436
 2193poe    c23 9033   0.711   2.595   3.082  0.1991  0.0749  0.1041
 2193poe    c23 9034   0.818   2.651   2.986  0.4686 -0.4133  0.1178
 2193poe     o2 9035   0.793   2.643   2.847 -0.1968  0.2775  0.1907
 2193poe    c31 9036   0.865   2.743   2.780  0.4899 -0.0616  0.4092
 2194poe    c31 9037   1.813   4.401   2.548 -0.2246 -0.3511  0.2564
 2194poe     o2 9038   1.900   4.510   2.564  0.4175 -0.8072 -0.0907
 2194poe    c23 9039   1.943   4.533   2.697  1.0182 -0.3101 -0.3660
 2194poe    c23 9040   2.043   4.649   2.713  0.1018  0.4206  0.1262
 2194poe     o2 9041   2.004   4.767   2.646  0.7729  0.4453 -0.2318
 2194poe    c23 9042   2.063   4.887   2.692  0.0907  0.6617  0.0959
 2194poe    c23 9043   2.043   4.992   2.580 -0.0164 -0.0040 -0.5156
 2194poe     o2 9044   2.140   4.981   2.478 -0.0082 -0.4692 -0.4592
 2194poe    c23 9045   2.138   5.092   2.391  0.3523 -0.2507 -0.1890
 2194poe    c23 9046   2.237   5.079   2.273  0.5222  0.0008 -0.0736
 2194poe     o2 9047   2.188   4.989   2.177  0.0896 -0.0510  0.1931
 2194poe    c31 9048   2.246   5.023   2.053  0.3194 -0.2379  0.2485
 2195poe    c31 9049   5.222   4.115   5.271 -0.6981 -0.2057  0.1944
 2195poe     o2 9050   5.341   4.040   5.280 -0.4009  0.2463  0.0703
 2195poe    c23 9051   5.339   3.951   5.170  0.6151  0.2539  0.0331
 2195poe    c23 9052   5.467   3.866   5.168  0.2505 -0.2920 -0.2171
 2195poe     o2 9053   5.566   3.958   5.208 -0.3885  0.4472 -0.3009
 2195poe    c23 9054   5.699   3.934   5.167 -0.3947  0.3247 -0.2493
 2195poe    c23 9055   5.765   4.074   5.174 -0.3205  0.2774  0.0618
 2195poe     o2 9056   5.720   4.141   5.289  0.2757  0.3956  0.2240
 2195poe    c23 9057   5.765   4.274   5.287 -0.1874  0.5518  0.2249
 2195poe    c23 9058   5.690   4.378   5.200  0.3529  0.7291 -0.0359
 2195poe     o2 9059   5.562   4.411   5.249  0.1571 -0.0148 -0.0317
 2195poe    c31 9060   5.504   4.514   5.171 -0.1817 -0.5468 -0.4926
 2196poe    c31 9061   6.406   5.464   6.695 -0.1056 -0.4527 -0.0593
 2196poe     o2 9062   6.514   5.499   6.611 -0.0899 -0.1314  0.0920
 2196poe    c23 9063   6.613   5.399   6.601  0.1275  0.1279 -0.4069
 2196poe    c23 9064   6.687   5.411   6.467  0.1163 -0.7688 -0.4976
 2196poe     o2 9065   6.588   5.433   6.369 -0.1513 -0.5410 -0.1798
 2196poe    c23 9066   6.648   5.408   6.244 -0.1473  0.0024 -0.2873
 2196poe    c23 9067   6.538   5.426   6.138 -0.1829 -0.0371 -0.2567
 2196poe     o2 9068   6.499   5.560   6.155 -0.0547  0.0561 -0.7005
 2196poe    c23 9069   6.397   5.598   6.065 -0.3369  0.3119 -0.2747
 2196poe    c23 9070   6.325   5.723   6.119 -0.1259  0.4098 -0.2189
 2196poe     o2 9071   6.251   5.696   6.236  0.5742  0.3367  0.2088
 2196poe    c31 9072   6.187   5.811   6.285  0.3672  0.0627  0.5900
 2197poe    c31 9073   6.321   3.956   4.088 -0.8949 -0.2664  0.2456
 2197poe     o2 9074   6.276   4.009   4.210  0.3114  1.1376  0.1096
 2197poe    c23 9075   6.359   3.971   4.317 -0.0414  0.1410  0.0407
 2197poe    c23 9076   6.295   4.007   4.452 -0.0815  0.1456  0.0208
 2197poe     o2 9077   6.203   4.112   4.428  0.0188  0.2135 -0.0628
 2197poe    c23 9078   6.120   4.151   4.535 -0.0538 -0.3833  0.1051
 2197poe    c23 9079   6.030   4.263   4.479 -0.1626 -0.4091  0.2303
 2197poe     o2 9080   5.989   4.229   4.349  0.0930 -0.1544  0.0829
 2197poe    c23 9081   5.882   4.315   4.316 -0.0066 -0.2853  0.0623
 2197poe    c23 9082   5.833   4.296   4.171 -0.1238  0.1361  0.0452
 2197poe     o2 9083   5.935   4.314   4.076 -0.3824 -0.0219 -0.2614
 2197poe    c31 9084   5.894   4.235   3.966 -0.3836  0.2239 -0.4405
 2198poe    c31 9085   1.505   0.084   2.047  0.7660 -0.0839 -0.5592
 2198poe     o2 9086   1.385   0.084   1.975  0.2039 -0.2041  0.3611
 2198poe    c23 9087   1.420   0.123   1.844  0.2525  0.6311  0.6157
 2198poe    c23 9088   1.312   0.110   1.734  0.4831 -0.3637  0.4928
 2198poe     o2 9089   1.286  -0.019   1.683  0.2657 -0.2456  0.3030
 2198poe    c23 9090   1.378  -0.063   1.587  0.1102  0.3516 -0.1285
 2198poe    c23 9091   1.353  -0.212   1.556  0.1732  0.2953  0.0885
 2198poe     o2 9092   1.393  -0.289   1.667  0.0338 -0.1685 -0.1771
 2198poe    c23 9093   1.372  -0.427   1.647  0.7242 -0.2557 -0.3149
 2198poe    c23 9094   1.426  -0.505   1.768 -0.5408 -0.3906  0.1804
 2198poe     o2 9095   1.340  -0.486   1.878 -0.1629  0.1143  0.3908
 2198poe    c31 9096   1.381  -0.571   1.983 -0.5833 -0.3136  0.2123
 2199poe    c31 9097   4.179   4.468   0.154  0.4331 -0.4967  0.0566
 2199poe     o2 9098   4.056   4.407   0.185 -0.2032  0.6696 -0.1092
 2199poe    c23 9099   4.031   4.408   0.324 -0.1363  0.5811 -0.0963
 2199poe    c23 9100   3.920   4.312   0.370  0.4913  0.2489  0.7366
 2199poe     o2 9101   3.839   4.278   0.260  0.6495  0.1376  0.6549
 2199poe    c23 9102   3.728   4.204   0.304  0.2279  0.0989 -0.4249
 2199poe    c23 9103   3.637   4.167   0.186 -0.5283 -0.0161  0.1855
 2199poe     o2 9104   3.712   4.105   0.084  0.0257  0.3680  0.3533
 2199poe    c23 9105   3.634   4.076  -0.030  0.3787  0.2261  0.1452
 2199poe    c23 9106   3.606   3.925  -0.046  0.3922  0.2542 -0.1324
 2199poe     o2 9107   3.722   3.851  -0.077  0.2998  0.1596 -0.2533
 2199poe    c31 9108   3.697   3.713  -0.097  0.9995 -0.0178  0.0733
 2200poe    c31 9109   1.631   3.287   2.737 -0.7894 -0.0537 -0.0653
 2200poe     o2 9110   1.558   3.343   2.845 -0.0958  0.0986  0.3345
 2200poe    c23 9111   1.645   3.364   2.954  0.2708 -0.1914  0.1009
 2200poe    c23 9112   1.579   3.417   3.082  0.2881 -0.2250  0.1237
 2200poe     o2 9113   1.526   3.545   3.057  0.1951 -0.2471  0.2070
 2200poe    c23 9114   1.496   3.604   3.182 -0.0034  0.0823  0.0073
 2200poe    c23 9115   1.404   3.723   3.152  0.2192  0.2335 -0.0790
 2200poe     o2 9116   1.458   3.791   3.041  0.4422  0.3180  0.0801
 2200poe    c23 9117   1.370   3.887   2.987 -0.1336 -0.4119 -0.3075
 2200poe    c23 9118   1.447   3.968   2.881  0.5530  0.0528  0.5324
 2200poe     o2 9119   1.500   3.870   2.794 -0.4748  0.1904 -0.2648
 2200poe    c31 9120   1.577   3.926   2.690 -0.8092  0.0662 -0.5822
 2201poe    c31 9121   4.644   0.050   0.679 -0.1355 -0.3715 -0.0819
 2201poe     o2 9122   4.722  -0.024   0.770  0.2526 -0.0457 -0.1483
 2201poe    c23 9123   4.668  -0.139   0.831 -0.0228  0.0387 -0.2288
 2201poe    c23 9124   4.555  -0.120   0.933 -0.0494  0.0741 -0.2646
 2201poe     o2 9125   4.608  -0.039   1.035 -0.1664 -0.2160  0.0303
 2201poe    c23 9126   4.505   0.024   1.108 -0.2721  0.2088 -0.4829
 2201poe    c23 9127   4.500  -0.032   1.251  0.3781  0.1355 -0.4878
 2201poe     o2 9128   4.617   0.009   1.319  0.4341 -0.3132 -0.3081
 2201poe    c23 9129   4.659  -0.075   1.424 -0.6085  0.0314  0.3976
 2201poe    c23 9130   4.782  -0.007   1.486 -0.1966 -0.0362 -0.3458
 2201poe     o2 9131   4.880  -0.003   1.384 -0.1362 -0.2534 -0.2979
 2201poe    c31 9132   4.974   0.096   1.420 -0.4524  0.1285 -0.5035
 2202poe    c31 9133   4.713   5.944   6.472  0.3018 -0.3427  0.2767
 2202poe     o2 9134   4.676   6.067   6.414  0.0248 -0.6678 -0.2508
 2202poe    c23 9135   4.545   6.069   6.363  0.0327 -0.1874 -0.2588
 2202poe    c23 9136   4.495   6.215   6.365 -0.4509 -0.3533  0.0706
 2202poe     o2 9137   4.452   6.259   6.492  0.4191  0.0663  0.2281
 2202poe    c23 9138   4.381   6.380   6.487  0.2786 -0.0029  0.5410
 2202poe    c23 9139   4.373   6.448   6.625  0.0396  0.1354  0.4602
 2202poe     o2 9140   4.262   6.389   6.690 -0.1910  0.1726  0.1057
 2202poe    c23 9141   4.218   6.470   6.797  0.6993  0.1208  0.5229
 2202poe    c23 9142   4.135   6.395   6.903 -0.0549 -0.0801 -0.2045
 2202poe     o2 9143   4.212   6.296   6.967  0.0540  0.1169 -0.0311
 2202poe    c31 9144   4.146   6.216   7.062  0.5312  0.2053  0.3744
 2203poe    c31 9145   6.119   3.364   6.777  0.1537  0.4918 -0.1561
 2203poe     o2 9146   6.097   3.375   6.638 -0.4466  0.5674 -0.0548
 2203poe    c23 9147   6.027   3.263   6.589 -0.4597  0.8564 -0.6999
 2203poe    c23 9148   6.015   3.249   6.436 -0.1604 -0.0653 -0.6448
 2203poe     o2 9149   5.930   3.346   6.379 -0.3550  0.0954 -0.0882
 2203poe    c23 9150   5.796   3.303   6.381 -0.2676 -0.1863 -0.2335
 2203poe    c23 9151   5.695   3.406   6.326 -0.9902 -0.3585  0.7495
 2203poe     o2 9152   5.710   3.526   6.399 -0.3458 -0.1707  0.3236
 2203poe    c23 9153   5.694   3.645   6.325 -0.1719 -0.5058 -0.2531
 2203poe    c23 9154   5.555   3.711   6.318  0.2589  0.4574  0.1787
 2203poe     o2 9155   5.525   3.743   6.452 -0.7849 -0.7128  0.2454
 2203poe    c31 9156   5.410   3.825   6.452 -0.1380  0.2233 -0.5465
 2204poe    c31 9157   6.758   3.332   2.474  0.3832  0.1163 -0.7750
 2204poe     o2 9158   6.726   3.230   2.381 -0.0623 -0.1799 -0.3048
 2204poe    c23 9159   6.778   3.283   2.261  0.0293  0.1285 -0.1295
 2204poe    c23 9160   6.715   3.228   2.132 -0.8112  0.7201  0.0200
 2204poe     o2 9161   6.721   3.087   2.130 -0.1510  0.7390  0.2043
 2204poe    c23 9162   6.668   3.038   2.009  0.2147  0.0470  0.3222
 2204poe    c23 9163   6.658   2.886   1.985  0.0905  0.1850 -0.5515
 2204poe     o2 9164   6.783   2.821   1.990  0.0603  0.1635 -0.0590
 2204poe    c23 9165   6.781   2.694   1.929 -0.2144 -0.1523  0.5905
 2204poe    c23 9166   6.918   2.626   1.913  0.1288  0.5867  0.3125
 2204poe     o2 9167   6.965   2.627   1.780  0.3330 -0.0893  0.3725
 2204poe    c31 9168   7.084   2.554   1.764  0.3541  0.0146  0.0608
 2205poe    c31 9169   1.857   5.639   2.409 -0.2073 -0.5951  0.4230
 2205poe     o2 9170   1.812   5.641   2.275  0.0939 -0.1227  0.3277
 2205poe    c23 9171   1.744   5.525   2.235  0.3397 -0.2885  0.3892
 2205poe    c23 9172   1.718   5.539   2.084  0.1306  0.1091  0.4612
 2205poe     o2 9173   1.633   5.649   2.058  0.4080  0.1473 -0.3199
 2205poe    c23 9174   1.602   5.661   1.921 -0.0853  0.1217 -0.2105
 2205poe    c23 9175   1.505   5.781   1.919 -0.0773  0.1344  0.0893
 2205poe     o2 9176   1.575   5.883   1.987  0.3641 -0.0203 -0.1270
 2205poe    c23 9177   1.502   6.004   1.980  0.2881 -0.0793 -0.3560
 2205poe    c23 9178   1.556   6.136   2.038 -0.3272 -0.0423  0.1435
 2205poe     o2 9179   1.574   6.125   2.177  0.2744  0.0266  0.0727
 2205poe    c31 9180   1.552   6.251   2.237  0.4140 -0.0283  0.2436
 2206poe    c31 9181   3.815   3.790   0.366  0.2625  0.3055  0.2347
 2206poe     o2 9182   3.936   3.721   0.343  0.2368  0.0923  0.7229
 2206poe    c23 9183   4.024   3.804   0.270 -0.0625 -0.3203 -0.1130
 2206poe    c23 9184   4.155   3.723   0.264  0.0882 -0.0680 -0.2078
 2206poe     o2 9185   4.134   3.619   0.172 -0.3194  0.2270 -0.4555
 2206poe    c23 9186   4.245   3.532   0.165  0.1340  0.7539  0.0850
 2206poe    c23 9187   4.235   3.405   0.078  0.5289  0.5627  0.3117
 2206poe     o2 9188   4.264   3.454  -0.052 -0.0551 -0.2458 -0.1315
 2206poe    c23 9189   4.188   3.413  -0.163 -0.4055 -0.1758  0.0824
 2206poe    c23 9190   4.242   3.290  -0.239  0.1206 -0.2497  0.5678
 2206poe     o2 9191   4.373   3.297  -0.290 -0.4104  0.8585 -0.7054
 2206poe    c31 9192   4.367   3.216  -0.406 -0.7269  0.0894 -0.1651
 2207poe    c31 9193   1.972   2.775   4.151 -0.8518 -0.0106  0.0182
 2207poe     o2 9194   2.052   2.877   4.096 -0.0785 -0.5958  0.0347
 2207poe    c23 9195   2.141   2.826   4.000  0.0980 -0.1262 -0.0564
 2207poe    c23 9196   2.254   2.922   3.956  0.0491 -0.3066 -0.5789
 2207poe     o2 9197   2.197   3.025   3.878 -0.2484 -0.4975 -0.6173
 2207poe    c23 9198   2.297   3.106   3.821  0.2760 -0.6496  0.0741
 2207poe    c23 9199   2.233   3.206   3.723 -0.1475 -0.6188  0.3768
 2207poe     o2 9200   2.123   3.252   3.798  0.1462  0.0567  0.4041
 2207poe    c23 9201   2.050   3.347   3.722  0.0465 -0.2692  0.0883
 2207poe    c23 9202   1.950   3.401   3.826  0.1479  0.0792  0.0062
 2207poe     o2 9203   1.886   3.302   3.904  0.0719  0.3690  0.3105
 2207poe    c31 9204   1.759   3.339   3.952 -0.0815  0.8050 -0.4058
 2208poe    c31 9205   4.852   1.740   6.833 -0.0403  0.1302 -0.1046
 2208poe     o2 9206   4.800   1.625   6.895  0.3470  0.0206  0.0184
 2208poe    c23 9207   4.755   1.535   6.795  0.4578  0.2288 -0.2223
 2208poe    c23 9208   4.701   1.406   6.860  0.4054  0.5382  0.3623
 2208poe     o2 9209   4.807   1.343   6.929  0.3991  0.1895  0.0574
 2208poe    c23 9210   4.761   1.221   6.982  0.3243  0.3635  0.3948
 2208poe    c23 9211   4.844   1.139   7.083 -0.1006 -0.1257  0.3488
 2208poe     o2 9212   4.834   1.168   7.220 -0.4989 -0.2044  0.3385
 2208poe    c23 9213   4.863   1.060   7.306  0.4104 -0.4137 -0.2182
 2208poe    c23 9214   4.768   0.939   7.302 -0.2251  0.1041 -1.0638
 2208poe     o2 9215   4.641   0.963   7.358  0.1184 -0.4041 -0.0439
 2208poe    c31 9216   4.588   0.852   7.427 -0.3030 -0.2218 -0.0709
 2209poe    c31 9217   3.742   1.789   6.316  1.0146 -0.5627 -0.1688
 2209poe     o2 9218   3.828   1.858   6.404 -0.1018  0.2944  0.2758
 2209poe    c23 9219   3.778   1.844   6.536 -0.4855 -0.4904  0.0541
 2209poe    c23 9220   3.846   1.731   6.615  0.2793 -0.2661 -0.2667
 2209poe     o2 9221   3.975   1.778   6.647  0.0708 -0.1981  0.5098
 2209poe    c23 9222   4.053   1.674   6.701 -0.0317 -0.2724  0.5142
 2209poe    c23 9223   4.197   1.725   6.722 -0.0170 -0.1137  0.0229
 2209poe     o2 9224   4.261   1.731   6.596 -0.0123 -0.4592  0.0089
 2209poe    c23 9225   4.400   1.734   6.620 -0.0503  0.6436  0.1666
 2209poe    c23 9226   4.484   1.828   6.533  0.2409  0.1018 -0.1407
 2209poe     o2 9227   4.483   1.960   6.582  0.3547  0.2565 -0.5469
 2209poe    c31 9228   4.596   2.037   6.548  0.8343  0.2145  0.8800
 2210poe    c31 9229   2.696   2.348   3.361 -0.4247  0.3687 -0.1068
 2210poe     o2 9230   2.696   2.489   3.362  0.3030  0.3687  0.2520
 2210poe    c23 9231   2.823   2.534   3.404  0.1467  0.0548  1.0627
 2210poe    c23 9232   2.835   2.687   3.385  0.2567  0.0352  0.9707
 2210poe     o2 9233   2.710   2.750   3.404 -0.0399 -0.0926 -0.4346
 2210poe    c23 9234   2.728   2.888   3.384 -0.5024 -0.0421 -0.4995
 2210poe    c23 9235   2.590   2.941   3.428 -0.2817  0.1674 -0.0525
 2210poe     o2 9236   2.480   2.862   3.390 -0.3812  0.3034 -0.0491
 2210poe    c23 9237   2.362   2.938   3.407 -0.3905  0.2818 -0.0166
 2210poe    c23 9238   2.238   2.853   3.373 -0.4257  0.3489 -0.0542
 2210poe     o2 9239   2.226   2.743   3.461 -0.1800  0.4564  0.1160
 2210poe    c31 9240   2.159   2.764   3.583 -0.3742  0.2446  0.0461
 2211poe    c31 9241   0.381   2.460   0.987  0.1092 -0.6529  0.1382
 2211poe     o2 9242   0.255   2.415   0.944 -0.2282  0.3278  0.0691
 2211poe    c23 9243   0.256   2.282   0.896  0.0996  0.2936  0.1624
 2211poe    c23 9244   0.124   2.243   0.826  0.1328  0.6031 -0.0771
 2211poe     o2 9245   0.127   2.274   0.688 -0.0463  0.2637 -0.1573
 2211poe    c23 9246   0.014   2.234   0.614  0.1478 -0.0949 -0.2657
 2211poe    c23 9247   0.050   2.206   0.467  0.0120 -0.1483 -0.2891
 2211poe     o2 9248   0.139   2.310   0.433  0.1078  0.0469  0.5245
 2211poe    c23 9249   0.196   2.292   0.305 -0.6299  1.0177  0.0398
 2211poe    c23 9250   0.257   2.426   0.257  0.1048  0.8455  0.4752
 2211poe     o2 9251   0.376   2.462   0.324  0.3027  0.0919  0.5431
 2211poe    c31 9252   0.426   2.586   0.281  0.2464 -0.2018 -0.3830
 2212poe    c31 9253   3.585   6.910   4.350  0.0267 -0.0977  0.3156
 2212poe     o2 9254   3.525   6.782   4.358  0.2472 -0.2551 -0.4054
 2212poe    c23 9255   3.384   6.784   4.370  0.2984 -0.7005  0.3759
 2212poe    c23 9256   3.323   6.766   4.229 -0.1772  0.4187  0.4310
 2212poe     o2 9257   3.384   6.655   4.168 -0.4662  0.7821 -0.5357
 2212poe    c23 9258   3.321   6.630   4.045 -0.3101 -0.1136 -0.4429
 2212poe    c23 9259   3.399   6.519   3.973 -0.3958 -0.3342 -0.1986
 2212poe     o2 9260   3.414   6.400   4.046 -0.7327 -0.3805 -0.2025
 2212poe    c23 9261   3.485   6.300   3.975 -0.2842  0.0616 -0.3833
 2212poe    c23 9262   3.637   6.323   3.975 -0.2572 -0.1226 -0.2208
 2212poe     o2 9263   3.686   6.387   3.859  0.1245  0.3361  0.1879
 2212poe    c31 9264   3.790   6.321   3.791  0.2226  0.2967  0.3753
 2213poe    c31 9265   2.411   6.506   4.395 -0.7220 -0.5901  0.0583
 2213poe     o2 9266   2.439   6.533   4.531 -0.1710 -0.0542 -0.1532
 2213poe    c23 9267   2.363   6.445   4.610  0.0960  0.0896  0.2642
 2213poe    c23 9268   2.379   6.482   4.759  0.2772  0.2016  0.2163
 2213poe     o2 9269   2.326   6.608   4.794 -0.2469 -0.0332  0.2794
 2213poe    c23 9270   2.386   6.676   4.902  0.6223 -0.0329 -0.1918
 2213poe    c23 9271   2.305   6.794   4.959 -0.2558 -0.4802 -0.5034
 2213poe     o2 9272   2.324   6.901   4.870  0.0730  0.1511  0.3187
 2213poe    c23 9273   2.246   7.017   4.887 -0.3791 -0.0532 -0.3250
 2213poe    c23 9274   2.092   7.011   4.888 -0.4038  0.5470 -0.0887
 2213poe     o2 9275   2.037   6.931   4.786  0.2187  0.1444 -0.1115
 2213poe    c31 9276   1.896   6.935   4.781  0.2234  0.0918 -0.3015
 2214poe    c31 9277   4.553   3.684   5.782  0.0705  0.2905 -0.0999
 2214poe     o2 9278   4.640   3.584   5.734  0.0649  0.1237  0.2329
 2214poe    c23 9279   4.759   3.565   5.807  0.1952  0.1076  0.0179
 2214poe    c23 9280   4.877   3.517   5.720  0.1469 -0.2200  0.1324
 2214poe     o2 9281   4.855   3.390   5.663  0.3600 -0.1214 -0.1674
 2214poe    c23 9282   4.963   3.349   5.581 -0.1140 -0.0358 -0.8475
 2214poe    c23 9283   4.924   3.222   5.504  0.1272 -0.2414 -0.6313
 2214poe     o2 9284   4.801   3.230   5.435  0.1581  0.4398 -0.6062
 2214poe    c23 9285   4.777   3.139   5.331  0.2984  0.4562 -0.6525
 2214poe    c23 9286   4.669   3.157   5.223 -0.2226  0.8225 -0.0703
 2214poe     o2 9287   4.547   3.133   5.290 -0.2043 -0.1906 -0.3918
 2214poe    c31 9288   4.444   3.203   5.224  0.2887  0.4494 -0.4851
 2215poe    c31 9289   5.787   4.805   4.655 -0.6386  0.3394  0.7081
 2215poe     o2 9290   5.884   4.899   4.698  0.0347 -0.1929  0.3813
 2215poe    c23 9291   5.930   4.866   4.827 -0.0501 -0.2672  0.3931
 2215poe    c23 9292   6.071   4.925   4.847 -0.2464  0.2704  0.2197
 2215poe     o2 9293   6.076   5.055   4.793 -0.3679  0.2940  0.2637
 2215poe    c23 9294   6.191   5.121   4.843  0.0548  0.0307 -0.3466
 2215poe    c23 9295   6.202   5.256   4.769 -0.2453  0.2709  0.0440
 2215poe     o2 9296   6.189   5.237   4.630  0.2769  0.1730  0.0069
 2215poe    c23 9297   6.223   5.358   4.568  0.0086 -0.1005 -0.6794
 2215poe    c23 9298   6.243   5.352   4.415  0.7594  0.4929 -0.6110
 2215poe     o2 9299   6.119   5.365   4.349  0.2306 -0.3453  0.1861
 2215poe    c31 9300   6.137   5.317   4.218  0.4528  0.5690 -0.1266
 2216poe    c31 9301   7.009   2.504   0.124 -0.0436  0.0867  0.0312
 2216poe     o2 9302   6.940   2.390   0.078  0.3520 -0.2419  0.2521
 2216poe    c23 9303   6.947   2.286   0.173 -1.1053 -0.3900  0.2062
 2216poe    c23 9304   6.960   2.157   0.089  0.0250 -0.3940  0.3796
 2216poe     o2 9305   6.874   2.169  -0.022 -0.3051 -0.4764  0.6245
 2216poe    c23 9306   6.885   2.059  -0.110  0.1403 -0.0830  0.1847
 2216poe    c23 9307   6.775   2.031  -0.214 -0.0186 -0.0558  0.3459
 2216poe     o2 9308   6.774   2.118  -0.325  0.2277 -0.4786  0.0105
 2216poe    c23 9309   6.640   2.156  -0.341  0.2768 -0.4026 -0.2209
 2216poe    c23 9310   6.633   2.298  -0.400  0.5352 -0.2771  0.0496
 2216poe     o2 9311   6.676   2.402  -0.315 -0.3561 -0.0460  0.2230
 2216poe    c31 9312   6.681   2.518  -0.395  0.2067  0.1236  0.4998
 2217poe    c31 9313   0.946   2.256   2.824 -0.1669 -0.0955  0.3197
 2217poe     o2 9314   0.910   2.310   2.699 -0.0480 -0.0101  0.3224
 2217poe    c23 9315   1.019   2.374   2.635 -0.1886  0.0150  0.1082
 2217poe    c23 9316   0.977   2.450   2.508  0.2049 -0.0741 -0.0762
 2217poe     o2 9317   0.935   2.356   2.412 -0.6183  0.1481  0.0572
 2217poe    c23 9318   1.040   2.325   2.324 -0.6274 -0.0211  0.1049
 2217poe    c23 9319   1.013   2.202   2.235  0.0500 -0.2007  0.1432
 2217poe     o2 9320   0.913   2.210   2.137  0.6399  0.0134 -0.4509
 2217poe    c23 9321   0.909   2.089   2.065  0.2294 -0.1593 -0.1467
 2217poe    c23 9322   0.816   2.101   1.943 -0.1270  0.0900  0.1475
 2217poe     o2 9323   0.685   2.136   1.982 -0.0196  0.5790  0.0754
 2217poe    c31 9324   0.613   2.125   1.861  0.1778  0.0666 -0.0009
 2218poe    c31 9325   1.514   3.601   1.177  0.2236  0.1487  1.0116
 2218poe     o2 9326   1.545   3.713   1.258 -0.6266  0.7502  0.5272
 2218poe    c23 9327   1.685   3.727   1.249 -0.4910 -0.1749  1.0797
 2218poe    c23 9328   1.740   3.863   1.294 -0.1662  0.0075  0.1388
 2218poe     o2 9329   1.742   3.865   1.435  0.0815 -0.0206  0.1363
 2218poe    c23 9330   1.790   3.992   1.472 -0.1050  0.0862  0.0154
 2218poe    c23 9331   1.792   4.009   1.625  0.1542  0.0006  0.0221
 2218poe     o2 9332   1.661   3.981   1.669  0.0354  0.4700 -0.0331
 2218poe    c23 9333   1.647   3.979   1.809  0.1746 -0.0382 -0.0274
 2218poe    c23 9334   1.499   3.953   1.845  0.3319 -0.8471  0.0524
 2218poe     o2 9335   1.457   3.822   1.812  0.3026 -0.7694 -0.2111
 2218poe    c31 9336   1.338   3.782   1.876  0.0558 -0.0361 -0.1945
 2219poe    c31 9337   3.917   1.478   6.013 -0.1125 -0.5545 -0.6194
 2219poe     o2 9338   3.897   1.617   6.019  0.2083 -0.5212 -0.2793
 2219poe    c23 9339   3.810   1.666   5.918 -0.3139 -0.3358  0.2565
 2219poe    c23 9340   3.662   1.680   5.957 -0.1559  0.8340  0.4539
 2219poe     o2 9341   3.604   1.554   5.980  0.4664  0.4029 -0.2966
 2219poe    c23 9342   3.541   1.543   6.106  0.3480 -0.0461 -0.3911
 2219poe    c23 9343   3.416   1.455   6.121  0.3908 -0.0643 -0.1289
 2219poe     o2 9344   3.430   1.334   6.051 -0.1370 -0.2310  0.0523
 2219poe    c23 9345   3.311   1.267   6.015 -0.4749 -0.2056  1.0716
 2219poe    c23 9346   3.338   1.119   5.979  0.2269  0.0787  0.3995
 2219poe     o2 9347   3.425   1.101   5.870  0.1068 -0.0675  0.3291
 2219poe    c31 9348   3.400   0.973   5.816 -0.1465  0.3425 -0.5459
 2220poe    c31 9349   0.208   0.081   2.271  0.4551 -0.8025 -0.2227
 2220poe     o2 9350   0.138   0.053   2.390 -0.0557  0.1058 -0.2991
 2220poe    c23 9351   0.212  -0.040   2.466 -0.5177 -0.4248 -0.4897
 2220poe    c23 9352   0.341   0.006   2.537 -0.6160 -0.4626 -0.2863
 2220poe     o2 9353   0.459  -0.037   2.472  0.0280  0.1747  0.4497
 2220poe    c23 9354   0.578   0.028   2.512  0.1713 -0.0732  0.4297
 2220poe    c23 9355   0.689   0.001   2.410 -0.7607 -1.6875 -0.1957
 2220poe     o2 9356   0.647   0.062   2.290  0.6161  0.1114  0.1869
 2220poe    c23 9357   0.720   0.011   2.180  0.6141  0.6872 -0.0845
 2220poe    c23 9358   0.652   0.021   2.043  0.4365 -0.1300 -0.0615
 2220poe     o2 9359   0.548  -0.071   2.024 -0.1270  0.5529 -0.3339
 2220poe    c31 9360   0.496  -0.061   1.893 -0.4712 -0.2587 -0.2714
 2221poe    c31 9361   6.693   2.315   2.622  0.6953 -0.2800  1.1880
 2221poe     o2 9362   6.787   2.413   2.663  0.1697  0.7031  0.0895
 2221poe    c23 9363   6.862   2.392   2.781  0.3393 -0.2503 -0.1745
 2221poe    c23 9364   6.785   2.391   2.915 -0.1246  0.2441 -0.4296
 2221poe     o2 9365   6.735   2.519   2.946 -0.2623  0.0395  0.1976
 2221poe    c23 9366   6.832   2.587   3.022  0.0790 -0.1655 -0.0522
 2221poe    c23 9367   6.778   2.731   3.030  0.1245 -0.1687  0.3474
 2221poe     o2 9368   6.663   2.738   3.110 -0.3797 -0.1993 -0.3701
 2221poe    c23 9369   6.557   2.829   3.088 -0.1860  0.0785 -0.1549
 2221poe    c23 9370   6.425   2.806   3.163 -0.1139  0.3744  0.0601
 2221poe     o2 9371   6.366   2.688   3.116  0.3858 -0.0813  0.5641
 2221poe    c31 9372   6.274   2.622   3.200  0.0343 -0.6192 -0.2291
 2222poe    c31 9373   6.625   0.749   3.626  0.6559 -0.2962  1.0776
 2222poe     o2 9374   6.513   0.746   3.711 -0.1022 -0.1197  0.0968
 2222poe    c23 9375   6.531   0.689   3.839  0.6135 -0.9662 -0.3740
 2222poe    c23 9376   6.408   0.624   3.904  0.1971 -0.1291 -0.3196
 2222poe     o2 9377   6.302   0.718   3.908  0.2968 -0.0115 -0.4417
 2222poe    c23 9378   6.189   0.663   3.972  0.2662  0.0204 -0.4684
 2222poe    c23 9379   6.079   0.768   3.947 -0.0679 -0.3025 -0.3501
 2222poe     o2 9380   6.122   0.895   3.988  0.5317 -0.3935 -0.6863
 2222poe    c23 9381   6.019   0.991   3.975  0.3254 -0.3012  1.3486
 2222poe    c23 9382   6.086   1.129   3.981 -0.0802 -0.0414  0.1012
 2222poe     o2 9383   6.192   1.138   3.889 -0.3145  0.0278 -0.1652
 2222poe    c31 9384   6.237   1.271   3.877  0.1035 -0.0858  0.1039
 2223poe    c31 9385   5.451   3.204   0.728  0.2097  0.3166  0.0184
 2223poe     o2 9386   5.363   3.296   0.787 -0.5102 -0.2537 -0.1547
 2223poe    c23 9387   5.232   3.284   0.736 -0.4817 -0.3097 -0.2127
 2223poe    c23 9388   5.144   3.380   0.817  0.0206  0.1278 -0.1818
 2223poe     o2 9389   5.217   3.500   0.824 -0.2328  0.2597  0.1980
 2223poe    c23 9390   5.138   3.594   0.895 -0.0801  0.2263  0.4143
 2223poe    c23 9391   5.213   3.728   0.880 -0.0650  0.1427 -0.2925
 2223poe     o2 9392   5.343   3.703   0.929 -0.0861  0.3333 -0.1395
 2223poe    c23 9393   5.421   3.806   0.873  0.0119  0.5384  0.3728
 2223poe    c23 9394   5.569   3.798   0.913 -0.0433 -0.8605  0.3237
 2223poe     o2 9395   5.640   3.687   0.860  0.2302 -0.3022 -0.4971
 2223poe    c31 9396   5.776   3.675   0.893  0.1477 -0.4190 -0.1904
 2224poe    c31 9397   3.166   3.275   3.065 -0.0376  0.7576 -0.1867
 2224poe     o2 9398   3.230   3.251   2.942 -0.1150  0.0893 -0.1022
 2224poe    c23 9399   3.344   3.331   2.925 -0.0900  0.0676 -0.0371
 2224poe    c23 9400   3.392   3.301   2.781  0.5202 -0.2481  0.2296
 2224poe     o2 9401   3.398   3.161   2.760  0.0364 -0.2343 -0.0189
 2224poe    c23 9402   3.465   3.137   2.638  0.4534 -0.2525  0.2117
 2224poe    c23 9403   3.500   2.989   2.619 -1.0463 -0.6692  0.5712
 2224poe     o2 9404   3.548   2.942   2.743 -0.2850 -0.4093  0.3793
 2224poe    c23 9405   3.549   2.801   2.734 -0.6298 -0.3723 -0.3722
 2224poe    c23 9406   3.573   2.759   2.880 -0.1519  0.0884 -0.3130
 2224poe     o2 9407   3.501   2.843   2.967  0.2439  0.1052  0.0044
 2224poe    c31 9408   3.491   2.767   3.086  0.0531  0.2269  0.0666
 2225poe    c31 9409   3.485   4.926   1.682  0.0772  0.3252  0.2266
 2225poe     o2 9410   3.402   5.039   1.701 -0.0429  0.1384  0.8039
 2225poe    c23 9411   3.444   5.168   1.664 -0.5556  0.1762  0.3459
 2225poe    c23 9412   3.562   5.234   1.738 -0.4092  0.2497  0.0493
 2225poe     o2 9413   3.516   5.267   1.867 -0.6977 -0.3718  0.1089
 2225poe    c23 9414   3.616   5.348   1.925 -0.5531 -0.2432 -0.3170
 2225poe    c23 9415   3.565   5.440   2.037  0.5502 -0.0643  0.0477
 2225poe     o2 9416   3.476   5.538   1.989  0.2853 -0.2893  0.0774
 2225poe    c23 9417   3.451   5.641   2.082  0.5323 -0.4169  0.2901
 2225poe    c23 9418   3.321   5.723   2.070  0.6769 -0.2253  0.0359
 2225poe     o2 9419   3.218   5.631   2.097  0.4026  0.0928  0.0819
 2225poe    c31 9420   3.108   5.713   2.130  0.1197 -0.1838 -0.1670
 2226poe    c31 9421   5.699   1.014   0.534  0.3620  0.1130  0.2274
 2226poe     o2 9422   5.755   1.071   0.651 -0.5727  0.7802  0.3685
 2226poe    c23 9423   5.876   1.124   0.602 -0.3946  0.0195 -0.0316
 2226poe    c23 9424   5.971   1.165   0.716 -0.4408 -0.0129  0.0186
 2226poe     o2 9425   6.018   1.050   0.783 -0.4802 -0.1289 -0.1505
 2226poe    c23 9426   6.149   1.066   0.833 -0.4174  0.2959 -0.4393
 2226poe    c23 9427   6.143   1.107   0.982 -0.6962  0.1764 -0.4163
 2226poe     o2 9428   6.087   1.000   1.055  0.0642  0.2248  0.2527
 2226poe    c23 9429   5.977   1.050   1.127 -0.1178  0.4000 -0.1424
 2226poe    c23 9430   5.904   0.959   1.228  0.0096  0.1569 -0.2686
 2226poe     o2 9431   5.863   0.832   1.183  0.1209  0.0782 -0.1490
 2226poe    c31 9432   5.888   0.733   1.280 -0.1944  0.0302 -0.1160
 2227poe    c31 9433   0.662   3.053   4.218 -0.2926 -0.2645 -0.2617
 2227poe     o2 9434   0.721   3.181   4.208  0.6662 -0.6860 -0.0891
 2227poe    c23 9435   0.735   3.206   4.070 -0.0055 -0.0532 -0.0455
 2227poe    c23 9436   0.800   3.341   4.034 -0.1576 -0.0879 -0.4551
 2227poe     o2 9437   0.728   3.457   4.071 -0.4376 -0.3219 -0.2619
 2227poe    c23 9438   0.597   3.473   4.023 -0.6327 -0.1439  0.3157
 2227poe    c23 9439   0.502   3.529   4.130 -0.3285  0.0767  0.4697
 2227poe     o2 9440   0.538   3.658   4.174  0.3198  0.0608  0.0005
 2227poe    c23 9441   0.435   3.750   4.145  0.2819  0.0596  0.1318
 2227poe    c23 9442   0.421   3.873   4.238 -0.1821  0.1673 -0.0837
 2227poe     o2 9443   0.543   3.942   4.235 -0.2415  0.2504 -0.8513
 2227poe    c31 9444   0.539   4.065   4.303 -0.2088  0.0202 -0.4289
 2228poe    c31 9445   1.508   3.021   6.854  0.0642  0.3103 -0.1375
 2228poe     o2 9446   1.560   2.890   6.848  0.4588  0.4615 -0.0672
 2228poe    c23 9447   1.660   2.868   6.945  0.0806 -0.6579  0.0861
 2228poe    c23 9448   1.732   2.742   6.893  0.1439 -0.4655 -0.2938
 2228poe     o2 9449   1.628   2.649   6.871 -0.3100 -0.0618  0.1294
 2228poe    c23 9450   1.671   2.519   6.905 -0.1917 -0.0887 -0.1254
 2228poe    c23 9451   1.535   2.448   6.919 -0.2635  0.0461 -0.1355
 2228poe     o2 9452   1.469   2.469   6.796 -0.4656 -0.2043 -0.0698
 2228poe    c23 9453   1.363   2.377   6.777 -0.5423 -0.1062 -0.1173
 2228poe    c23 9454   1.281   2.436   6.661 -0.5963 -0.2529 -0.1531
 2228poe     o2 9455   1.183   2.523   6.713 -0.3877 -0.2367  0.2184
 2228poe    c31 9456   1.079   2.549   6.621 -0.1644  0.6283  0.2011
 2229poe    c31 9457   4.761   7.058   4.976  0.3908  0.4826  0.0286
 2229poe     o2 9458   4.842   6.954   4.927 -0.2438  0.0447 -0.1097
 2229poe    c23 9459   4.973   7.006   4.918 -0.2215 -0.0923 -0.6576
 2229poe    c23 9460   5.079   6.899   4.890  0.3745  0.5002 -0.6953
 2229poe     o2 9461   5.032   6.827   4.779  0.0675  0.3504 -0.4693
 2229poe    c23 9462   5.130   6.750   4.712 -0.0025 -0.2303  0.0852
 2229poe    c23 9463   5.077   6.624   4.642 -0.2926 -0.0512 -0.0216
 2229poe     o2 9464   4.963   6.654   4.565 -0.0830 -0.0557 -0.3357
 2229poe    c23 9465   4.921   6.535   4.502 -0.1350 -0.2349  0.0353
 2229poe    c23 9466   4.809   6.578   4.406  0.0344  0.0334 -0.0418
 2229poe     o2 9467   4.687   6.577   4.475 -0.2083  0.3671 -0.4623
 2229poe    c31 9468   4.576   6.619   4.398 -0.5387  0.1049 -0.1340
 2230poe    c31 9469   0.453   4.666   0.453  0.1327 -0.2154 -0.1007
 2230poe     o2 9470   0.328   4.602   0.438  0.0068 -0.0172  0.1011
 2230poe    c23 9471   0.225   4.695   0.464 -0.0027  0.0268 -0.0886
 2230poe    c23 9472   0.092   4.646   0.524 -0.0103  0.0634 -0.0749
 2230poe     o2 9473   0.101   4.594   0.655  0.2266 -0.3165 -0.2381
 2230poe    c23 9474   0.065   4.697   0.745 -0.1832 -0.4104 -0.2943
 2230poe    c23 9475   0.056   4.641   0.888 -0.1501  0.1972 -0.0542
 2230poe     o2 9476   0.169   4.564   0.922 -0.4661 -0.3434 -0.2106
 2230poe    c23 9477   0.229   4.599   1.045  0.1918 -0.3740 -0.5147
 2230poe    c23 9478   0.304   4.484   1.113  0.0954 -0.1559 -0.0318
 2230poe     o2 9479   0.415   4.445   1.035  0.2754  0.2314  0.0326
 2230poe    c31 9480   0.496   4.342   1.086 -0.3167 -0.4850 -0.4535
 2231poe    c31 9481   0.152   1.658   6.277  0.2796  0.1536 -0.1653
 2231poe     o2 9482   0.021   1.710   6.270 -0.0822 -0.7507 -0.2308
 2231poe    c23 9483  -0.032   1.711   6.400  0.5070 -0.2544  0.0100
 2231poe    c23 9484  -0.182   1.747   6.397  0.3904 -0.7611 -0.2955
 2231poe     o2 9485  -0.248   1.641   6.332 -0.1690 -0.4602 -0.2241
 2231poe    c23 9486  -0.387   1.661   6.323 -0.1282 -0.0613  0.0147
 2231poe    c23 9487  -0.465   1.531   6.292  0.1202 -0.1321 -0.3197
 2231poe     o2 9488  -0.411   1.460   6.183 -0.8266 -1.3766  0.0067
 2231poe    c23 9489  -0.488   1.477   6.067 -0.2030 -0.0686 -0.2323
 2231poe    c23 9490  -0.410   1.391   5.966 -0.1780 -0.3249  0.0036
 2231poe     o2 9491  -0.273   1.418   5.986 -0.2626  0.3284 -0.2579
 2231poe    c31 9492  -0.205   1.358   5.877 -0.7675  0.4950 -0.6679
 2232poe    c31 9493   5.404   4.993   2.356 -0.0760  0.0536  0.6744
 2232poe     o2 9494   5.372   4.866   2.408 -0.1633 -0.2553 -0.1240
 2232poe    c23 9495   5.382   4.871   2.548 -1.0104  0.1827 -0.0733
 2232poe    c23 9496   5.324   4.752   2.628  0.0615 -0.1951  0.1523
 2232poe     o2 9497   5.381   4.644   2.557  0.1593 -0.2530  0.3189
 2232poe    c23 9498   5.324   4.526   2.610 -0.0361 -0.0417  0.5862
 2232poe    c23 9499   5.369   4.418   2.509  0.1155  0.2654  0.3221
 2232poe     o2 9500   5.355   4.471   2.379  0.1795 -0.5711 -0.0275
 2232poe    c23 9501   5.388   4.380   2.277 -0.0165 -0.3266 -0.3106
 2232poe    c23 9502   5.535   4.336   2.262 -0.0490 -0.3717 -0.5057
 2232poe     o2 9503   5.620   4.446   2.239 -0.0381 -0.5318 -1.2545
 2232poe    c31 9504   5.750   4.399   2.210  0.4069 -0.2810  0.2532
 2233poe    c31 9505   5.175   0.762   2.584  0.2486 -0.0634 -0.1770
 2233poe     o2 9506   5.045   0.734   2.631 -0.0296 -0.0133 -0.9088
 2233poe    c23 9507   4.961   0.831   2.575 -0.0051  0.4922 -0.0808
 2233poe    c23 9508   4.818   0.792   2.618  0.1195 -0.0875 -0.1925
 2233poe     o2 9509   4.786   0.851   2.742  0.2959 -0.0899 -0.1448
 2233poe    c23 9510   4.684   0.947   2.731  0.5071  0.1511  0.0033
 2233poe    c23 9511   4.671   1.032   2.859  0.6816 -0.0795  0.1723
 2233poe     o2 9512   4.683   0.958   2.979 -0.8895  0.0690  0.4500
 2233poe    c23 9513   4.706   1.039   3.092 -0.2731  0.2572  0.1971
 2233poe    c23 9514   4.737   0.949   3.214 -0.0706  0.5132  0.3366
 2233poe     o2 9515   4.842   0.858   3.189 -1.0094 -0.4697 -0.1399
 2233poe    c31 9516   4.887   0.801   3.310  0.6530  0.8412 -0.0884
 2234poe    c31 9517   0.122   4.491   2.223 -0.3638  0.0255 -1.2186
 2234poe     o2 9518   0.209   4.573   2.149  0.0370  0.7267  0.0012
 2234poe    c23 9519   0.344   4.531   2.150 -0.1749  0.0304  0.3671
 2234poe    c23 9520   0.386   4.573   2.008 -0.3857  0.3024  0.3843
 2234poe     o2 9521   0.330   4.699   1.977 -0.6300  0.0542 -0.2159
 2234poe    c23 9522   0.369   4.745   1.850  0.1684  0.2170  0.0828
 2234poe    c23 9523   0.320   4.884   1.806 -0.4927  0.0854  0.3890
 2234poe     o2 9524   0.180   4.895   1.808 -0.5211 -0.2652  0.2920
 2234poe    c23 9525   0.134   5.025   1.835 -0.1237 -0.3095  1.2282
 2234poe    c23 9526  -0.019   5.020   1.821 -0.0541 -0.2115  0.3153
 2234poe     o2 9527  -0.065   4.930   1.919  0.4586 -0.7146  0.0973
 2234poe    c31 9528  -0.197   4.960   1.961  0.5647 -0.2843  0.1233
 2235poe    c31 9529   3.625   6.664   3.028  0.4354 -0.4877  0.3125
 2235poe     o2 9530   3.742   6.740   3.015 -0.0844  0.3584  0.5195
 2235poe    c23 9531   3.705   6.876   3.010 -0.2201  0.3007 -0.0976
 2235poe    c23 9532   3.832   6.961   2.986 -0.1480  0.2638  0.1496
 2235poe     o2 9533   3.911   6.983   3.100 -0.1897  0.1920  0.1933
 2235poe    c23 9534   4.026   6.901   3.094 -0.6627 -0.4434 -0.2863
 2235poe    c23 9535   4.142   6.946   3.186 -0.6125 -1.2172  0.0396
 2235poe     o2 9536   4.108   6.941   3.322 -0.3622 -0.1318  0.1481
 2235poe    c23 9537   4.207   6.990   3.410 -0.0738 -0.5250  0.0416
 2235poe    c23 9538   4.146   6.989   3.552 -0.4590 -0.1166 -0.1190
 2235poe     o2 9539   4.128   6.858   3.600  0.2650 -0.2086 -0.0783
 2235poe    c31 9540   4.222   6.857   3.705 -0.2416  0.1304  0.3824
 2236poe    c31 9541   0.581   6.307   2.175  0.2407  0.6806 -0.2867
 2236poe     o2 9542   0.447   6.301   2.131  0.1254 -0.0787  0.1515
 2236poe    c23 9543   0.365   6.381   2.214  0.2205 -0.3038  0.4612
 2236poe    c23 9544   0.214   6.353   2.202  0.3215 -0.6760  0.0584
 2236poe     o2 9545   0.171   6.225   2.243 -0.1190 -0.4528  0.2934
 2236poe    c23 9546   0.033   6.217   2.218 -0.1594 -0.2502  0.4437
 2236poe    c23 9547  -0.040   6.086   2.252 -0.1771 -0.4098 -0.1928
 2236poe     o2 9548  -0.002   5.982   2.165 -0.3615 -0.2663 -0.4469
 2236poe    c23 9549  -0.025   5.865   2.241  0.5184 -0.0424  0.1779
 2236poe    c23 9550  -0.037   5.751   2.138  0.1217  0.3584 -0.2254
 2236poe     o2 9551   0.073   5.743   2.050  0.1855 -0.1550 -0.1034
 2236poe    c31 9552   0.041   5.652   1.948  0.1282  0.0750 -0.2923
 2237poe    c31 9553   2.250   3.839   5.334 -0.0290  0.5205 -0.1795
 2237poe     o2 9554   2.273   3.863   5.197  0.1112  0.4715 -0.1647
 2237poe    c23 9555   2.412   3.884   5.188  0.2531 -0.4281 -0.1983
 2237poe    c23 9556   2.466   3.822   5.058 -0.0524 -0.4938 -0.2948
 2237poe     o2 9557   2.379   3.876   4.961 -0.1487 -0.2540 -0.0770
 2237poe    c23 9558   2.425   3.857   4.829  0.0047  0.1088 -0.0761
 2237poe    c23 9559   2.331   3.950   4.750  0.0366  0.1814 -0.0279
 2237poe     o2 9560   2.196   3.931   4.787  0.1135  0.4836  0.4121
 2237poe    c23 9561   2.120   4.009   4.698  0.0795 -0.4685 -0.4093
 2237poe    c23 9562   1.982   4.053   4.751  0.2490 -0.0643 -0.2943
 2237poe     o2 9563   2.001   4.141   4.859 -0.2780  0.0887 -0.3228
 2237poe    c31 9564   1.920   4.256   4.845 -0.0167  0.4170  0.7636
 2238poe    c31 9565   0.288   1.131   1.408  0.0129  0.3128  0.1554
 2238poe     o2 9566   0.367   1.036   1.341 -0.3763 -0.0871  0.2581
 2238poe    c23 9567   0.387   1.076   1.207 -0.4492  0.4711  0.4136
 2238poe    c23 9568   0.518   1.011   1.157 -0.8573 -0.0732  0.0499
 2238poe     o2 9569   0.490   0.881   1.206 -0.3859 -0.3041 -0.2880
 2238poe    c23 9570   0.576   0.792   1.139 -0.2034 -0.0850 -0.3466
 2238poe    c23 9571   0.566   0.646   1.185  0.3766  0.0957  0.3807
 2238poe     o2 9572   0.434   0.596   1.187  0.5563 -0.4044 -0.0924
 2238poe    c23 9573   0.417   0.472   1.252  0.3557 -0.3214  0.0157
 2238poe    c23 9574   0.352   0.379   1.147  0.4317 -0.1392 -0.1928
 2238poe     o2 9575   0.224   0.413   1.099  0.3942  0.0758  0.0589
 2238poe    c31 9576   0.205   0.330   0.986 -0.5619  0.7818 -0.3120
 2239poe    c31 9577   3.734   4.518   0.123  0.1176  0.7517 -0.7122
 2239poe     o2 9578   3.809   4.432   0.041 -0.4024 -0.4802  0.0861
 2239poe    c23 9579   3.789   4.455  -0.097 -0.1133  0.6927  0.2371
 2239poe    c23 9580   3.920   4.435  -0.175 -0.1780  0.2820  0.2349
 2239poe     o2 9581   3.979   4.309  -0.149  0.2545  0.5192  0.4176
 2239poe    c23 9582   4.099   4.291  -0.221 -0.0877  0.0846 -0.0501
 2239poe    c23 9583   4.067   4.225  -0.357 -0.5024  0.1303  0.0239
 2239poe     o2 9584   4.002   4.100  -0.351 -0.1365 -0.0473  0.3059
 2239poe    c23 9585   4.001   4.028  -0.472  0.0756  0.4072  0.0334
 2239poe    c23 9586   3.926   3.895  -0.452  0.4301  0.0707 -0.8134
 2239poe     o2 9587   4.000   3.786  -0.402 -0.3928 -0.0708  0.1343
 2239poe    c31 9588   3.914   3.675  -0.393 -0.3289 -0.2018 -0.7604
 2240poe    c31 9589   2.789   0.120   3.958  0.3359 -0.1890  0.2209
 2240poe     o2 9590   2.820   0.101   3.821  0.2759  0.2415  0.1466
 2240poe    c23 9591   2.804   0.222   3.751  0.3978  0.3687  0.3381
 2240poe    c23 9592   2.850   0.189   3.608  0.3736  0.1071  0.3910
 2240poe     o2 9593   2.749   0.110   3.549  0.4417  0.1985  0.1538
 2240poe    c23 9594   2.768   0.085   3.411  0.2260 -0.2473  0.2041
 2240poe    c23 9595   2.783  -0.063   3.371 -0.1491 -0.2187 -0.0403
 2240poe     o2 9596   2.908  -0.117   3.407  0.0073 -0.1463 -0.4705
 2240poe    c23 9597   2.959  -0.228   3.336  0.4278  0.0206 -0.4360
 2240poe    c23 9598   2.891  -0.366   3.341  0.2032  0.1310 -0.3833
 2240poe     o2 9599   2.769  -0.350   3.273  0.1528 -0.2378 -0.3820
 2240poe    c31 9600   2.683  -0.438   3.342  0.1051 -0.3076 -0.5292
 2241poe    c31 9601   0.040   3.465   3.017 -0.0256  0.2185  0.0563
 2241poe     o2 9602   0.143   3.505   3.105 -0.1985 -0.0463  0.3804
 2241poe    c23 9603   0.141   3.646   3.097 -0.4024 -0.0575  0.2276
 2241poe    c23 9604   0.220   3.690   3.221 -0.2232 -0.2479  0.1798
 2241poe     o2 9605   0.337   3.612   3.228  0.2258  0.4325  0.4029
 2241poe    c23 9606   0.407   3.609   3.351 -0.0559 -0.1158  0.5557
 2241poe    c23 9607   0.512   3.497   3.349  0.1503  0.0808  0.3341
 2241poe     o2 9608   0.435   3.388   3.303  0.2076  0.3350 -0.3828
 2241poe    c23 9609   0.517   3.276   3.331  0.4191  0.3149 -1.0633
 2241poe    c23 9610   0.455   3.142   3.287  0.8351 -0.1518 -0.2455
 2241poe     o2 9611   0.429   3.138   3.149  0.3860  0.0841 -0.1728
 2241poe    c31 9612   0.426   3.003   3.111  0.2109  0.0629 -0.0837
 2242poe    c31 9613   6.345   1.886   4.721 -0.1552 -0.0630  0.4064
 2242poe     o2 9614   6.320   1.845   4.853  0.3310 -0.5009  0.3649
 2242poe    c23 9615   6.205   1.913   4.898  0.0244 -0.4659 -0.4521
 2242poe    c23 9616   6.074   1.841   4.864 -0.4081  0.3360 -0.5222
 2242poe     o2 9617   6.046   1.737   4.955 -0.0854  0.4178 -0.3279
 2242poe    c23 9618   5.942   1.753   5.048  0.2380 -0.1299  0.1359
 2242poe    c23 9619   5.948   1.646   5.158  0.1628  0.2559  0.5197
 2242poe     o2 9620   6.049   1.663   5.255  0.1009  0.2563  0.5856
 2242poe    c23 9621   6.072   1.534   5.305  0.0259 -0.0880 -0.2433
 2242poe    c23 9622   6.220   1.528   5.346 -0.0111  0.6780  0.0140
 2242poe     o2 9623   6.308   1.539   5.237 -0.4336  0.0825 -0.3902
 2242poe    c31 9624   6.445   1.536   5.269 -0.5423  0.1476  0.0819
 2243poe    c31 9625   0.796   5.285   5.846 -0.2710 -0.2293  0.1383
 2243poe     o2 9626   0.690   5.310   5.934 -0.2383  0.2891  0.0314
 2243poe    c23 9627   0.707   5.227   6.047  0.0143 -0.2844 -0.4276
 2243poe    c23 9628   0.574   5.214   6.122 -0.1636 -0.2517 -0.7373
 2243poe     o2 9629   0.517   5.327   6.183  0.2658 -0.2821 -0.2770
 2243poe    c23 9630   0.384   5.288   6.209  0.0118  0.4580 -0.4419
 2243poe    c23 9631   0.313   5.425   6.215 -0.3744  0.2382  0.1934
 2243poe     o2 9632   0.395   5.515   6.285 -0.0951 -0.1344  0.3494
 2243poe    c23 9633   0.334   5.642   6.272  0.5886  0.1481 -0.1788
 2243poe    c23 9634   0.397   5.717   6.390 -0.1778  0.6163 -0.0627
 2243poe     o2 9635   0.536   5.705   6.377 -0.2298 -0.0025 -0.0675
 2243poe    c31 9636   0.597   5.785   6.476 -0.1138  0.2753 -0.3640
 2244poe    c31 9637   3.198   4.478   6.807  0.0072  0.2524  0.1658
 2244poe     o2 9638   3.237   4.343   6.797 -1.0022 -0.0132 -0.4092
 2244poe    c23 9639   3.183   4.283   6.913 -0.1245  0.4125  0.2428
 2244poe    c23 9640   3.240   4.143   6.942 -0.4289  0.2204 -0.0706
 2244poe     o2 9641   3.205   4.040   6.852 -0.2742  0.0772  0.0330
 2244poe    c23 9642   3.315   3.971   6.797 -0.1730  0.4107 -0.1884
 2244poe    c23 9643   3.292   3.828   6.744  0.8468  0.3687 -0.5283
 2244poe     o2 9644   3.218   3.835   6.624 -0.2784 -0.2847  0.1068
 2244poe    c23 9645   3.223   3.715   6.552 -0.4004 -0.5168  0.4805
 2244poe    c23 9646   3.099   3.624   6.562 -0.4924 -0.5089 -0.4648
 2244poe     o2 9647   3.063   3.568   6.686  0.2293 -0.1248 -0.0692
 2244poe    c31 9648   2.930   3.520   6.684  0.1732  0.0419 -0.4488
 2245poe    c31 9649   3.507   6.949   7.016  0.0249  0.1945 -0.1567
 2245poe     o2 9650   3.506   6.808   7.027 -0.0335  0.2189  0.1576
 2245poe    c23 9651   3.620   6.734   6.988  0.3026  0.6695  0.2666
 2245poe    c23 9652   3.642   6.591   7.042  0.0867  0.4167 -0.3045
 2245poe     o2 9653   3.529   6.508   7.034  0.1900  0.2187  0.2196
 2245poe    c23 9654   3.569   6.373   7.025  0.2175  0.2211  0.3071
 2245poe    c23 9655   3.463   6.284   6.958 -0.2347  0.7287  0.3374
 2245poe     o2 9656   3.419   6.319   6.829 -0.0596 -0.2078  0.0143
 2245poe    c23 9657   3.331   6.224   6.774  0.0255 -0.1582 -0.2088
 2245poe    c23 9658   3.283   6.310   6.656 -0.0977 -0.0952 -0.1129
 2245poe     o2 9659   3.394   6.345   6.576 -0.0350  0.3536  0.1672
 2245poe    c31 9660   3.381   6.336   6.436 -0.4165 -0.2045  0.2379
 2246poe    c31 9661   5.552   6.670   5.296 -0.0301 -0.3998 -0.3434
 2246poe     o2 9662   5.518   6.538   5.259  0.3350 -0.5319 -0.2112
 2246poe    c23 9663   5.510   6.449   5.368 -0.0523 -0.1184  0.1011
 2246poe    c23 9664   5.486   6.305   5.321  0.2879 -0.0488 -0.2899
 2246poe     o2 9665   5.382   6.311   5.226 -0.5694  0.3037  0.6595
 2246poe    c23 9666   5.329   6.187   5.185 -0.1516  0.4295 -0.2766
 2246poe    c23 9667   5.232   6.218   5.069 -0.1534 -0.0879 -0.4138
 2246poe     o2 9668   5.300   6.276   4.959 -0.1621 -0.1966 -0.4770
 2246poe    c23 9669   5.216   6.298   4.848 -0.6433  0.2551 -0.0259
 2246poe    c23 9670   5.306   6.329   4.727 -0.3351  0.0101  0.1392
 2246poe     o2 9671   5.381   6.446   4.753 -0.3031  0.1320 -0.4858
 2246poe    c31 9672   5.458   6.476   4.639 -0.2455 -0.1687 -0.5266
 2247poe    c31 9673   6.582   0.613   4.617 -0.3076 -0.6417 -0.0237
 2247poe     o2 9674   6.599   0.650   4.752 -0.4294  0.8026 -0.3869
 2247poe    c23 9675   6.481   0.701   4.810 -0.5085  0.5828 -0.3541
 2247poe    c23 9676   6.415   0.590   4.895  0.2154  0.0689 -0.4557
 2247poe     o2 9677   6.478   0.541   5.011 -0.4447  0.3115  0.0073
 2247poe    c23 9678   6.496   0.624   5.123  0.4365 -0.0503  0.1407
 2247poe    c23 9679   6.564   0.524   5.219  0.2010  0.0570  0.4203
 2247poe     o2 9680   6.677   0.465   5.160 -0.1363 -0.0737 -0.1088
 2247poe    c23 9681   6.727   0.367   5.249  0.1931 -0.2333 -0.4690
 2247poe    c23 9682   6.804   0.253   5.180  0.6391 -0.0732 -0.2456
 2247poe     o2 9683   6.754   0.217   5.053 -0.3485  0.5919 -0.0523
 2247poe    c31 9684   6.845   0.138   4.982 -0.6466 -0.0936  0.3199
 2248poe    c31 9685   1.554   5.425   5.428  0.2529  0.4739  0.3375
 2248poe     o2 9686   1.615   5.502   5.529  0.1482  0.3773  0.4767
 2248poe    c23 9687   1.545   5.621   5.556 -0.0701  0.4532 -0.4028
 2248poe    c23 9688   1.608   5.716   5.659 -0.8057  0.3101  0.1835
 2248poe     o2 9689   1.567   5.700   5.794 -0.1985 -0.5825  0.2714
 2248poe    c23 9690   1.614   5.799   5.882 -0.4410  0.0625 -0.3180
 2248poe    c23 9691   1.540   5.794   6.017  0.3375 -0.2976  0.1001
 2248poe     o2 9692   1.573   5.676   6.087  0.0849 -0.1170  0.5288
 2248poe    c23 9693   1.496   5.661   6.203  0.1435 -0.0103  0.5816
 2248poe    c23 9694   1.513   5.528   6.281  0.1445 -0.2846  0.1166
 2248poe     o2 9695   1.493   5.409   6.208 -0.0703 -0.2556  0.1264
 2248poe    c31 9696   1.575   5.309   6.264  0.1219 -0.3404 -0.3003
 2249poe    c31 9697   2.050   1.474   6.969 -0.2525  0.0109 -0.0956
 2249poe     o2 9698   1.968   1.410   7.063 -0.4628  0.6223  0.1435
 2249poe    c23 9699   2.036   1.374   7.181 -0.2164 -0.1640 -0.2282
 2249poe    c23 9700   2.091   1.231   7.196  0.2979  0.0030 -0.5205
 2249poe     o2 9701   1.983   1.141   7.190  0.0225  0.2816  0.1379
 2249poe    c23 9702   1.952   1.064   7.304  0.1394 -0.1812 -0.1414
 2249poe    c23 9703   1.846   0.960   7.265  0.1235 -0.1841 -0.0898
 2249poe     o2 9704   1.728   1.030   7.232  0.0029 -0.7842 -0.9541
 2249poe    c23 9705   1.617   0.943   7.237 -0.2293 -0.4326  0.4264
 2249poe    c23 9706   1.482   1.009   7.204  0.0183 -0.2507 -0.2428
 2249poe     o2 9707   1.459   1.026   7.066  0.9778 -0.2476 -0.4102
 2249poe    c31 9708   1.428   0.908   6.994  0.1712 -0.6126  0.4969
 2250poe    c31 9709   2.093   2.203   4.934 -0.2017  0.0644 -0.7650
 2250poe     o2 9710   2.214   2.175   4.867  0.2471 -0.1216  0.1068
 2250poe    c23 9711   2.302   2.285   4.873  0.2526 -0.1307  0.1848
 2250poe    c23 9712   2.392   2.266   4.750 -0.2410  0.1148 -0.2161
 2250poe     o2 9713   2.434   2.132   4.751 -0.0522  0.1749  0.2478
 2250poe    c23 9714   2.520   2.107   4.642 -0.4629  0.0293 -0.0489
 2250poe    c23 9715   2.556   1.957   4.645  0.0833  0.1432 -0.7440
 2250poe     o2 9716   2.448   1.869   4.663 -0.0520  0.5426  0.4476
 2250poe    c23 9717   2.499   1.745   4.706 -0.2255  0.3465  0.0843
 2250poe    c23 9718   2.396   1.641   4.757 -0.1652  0.3005  0.1115
 2250poe     o2 9719   2.322   1.667   4.874  0.3915 -0.1466  0.5749
 2250poe    c31 9720   2.250   1.553   4.913 -0.7319  0.4006  0.1758
 2251poe    c31 9721   3.063   2.624   1.610 -0.1552 -0.1165 -0.3771
 2251poe     o2 9722   2.950   2.623   1.526 -0.1479 -0.8468 -0.3800
 2251poe    c23 9723   2.894   2.496   1.499  0.0637 -0.8986 -0.5876
 2251poe    c23 9724   2.777   2.527   1.403 -0.1674  0.1312  0.0034
 2251poe     o2 9725   2.825   2.555   1.273 -0.4038 -0.5704 -0.2383
 2251poe    c23 9726   2.721   2.609   1.195 -0.2742 -0.4240 -0.3100
 2251poe    c23 9727   2.786   2.662   1.066 -0.3501  0.1506 -0.1170
 2251poe     o2 9728   2.853   2.785   1.080 -0.2062  0.0696 -0.0903
 2251poe    c23 9729   2.884   2.828   0.949  0.2283  0.5290  0.1576
 2251poe    c23 9730   2.932   2.974   0.940 -0.3511  0.7403  0.4934
 2251poe     o2 9731   3.065   2.989   0.984 -0.1365  0.5354 -0.0784
 2251poe    c31 9732   3.102   3.124   0.968  0.0877  0.4643 -0.1630
 2252poe    c31 9733   2.376   1.684   3.787 -0.3715 -1.3235  0.4765
 2252poe     o2 9734   2.237   1.671   3.769 -0.4612  0.4408 -0.3178
 2252poe    c23 9735   2.164   1.652   3.888 -0.4373  0.7987 -0.2440
 2252poe    c23 9736   2.013   1.644   3.861 -0.4479 -0.6306  0.1105
 2252poe     o2 9737   1.952   1.764   3.818  0.0732 -0.3478  0.1470
 2252poe    c23 9738   1.843   1.737   3.732  0.2360  0.0560 -0.1856
 2252poe    c23 9739   1.744   1.852   3.706 -0.2272 -0.3464 -0.1945
 2252poe     o2 9740   1.801   1.976   3.672 -0.1719 -0.3070  0.0406
 2252poe    c23 9741   1.714   2.073   3.618  0.2093  0.0950  0.1475
 2252poe    c23 9742   1.808   2.187   3.573  0.4160 -0.2703 -0.3580
 2252poe     o2 9743   1.888   2.214   3.686 -0.8324  0.2486  0.4300
 2252poe    c31 9744   1.980   2.319   3.665 -0.2974 -0.2066  0.4575
 2253poe    c31 9745   3.599   6.798   1.309  0.0792  0.1399 -0.8547
 2253poe     o2 9746   3.535   6.899   1.234 -0.4389  0.5423  0.1142
 2253poe    c23 9747   3.602   7.023   1.243  0.0902  0.2531  0.1785
 2253poe    c23 9748   3.554   7.138   1.153  0.2709  0.2226  0.0441
 2253poe     o2 9749   3.414   7.151   1.156  0.2453  0.0203 -0.2239
 2253poe    c23 9750   3.375   7.193   1.027 -0.0009 -0.0310 -0.1676
 2253poe    c23 9751   3.235   7.150   0.981 -0.0898  0.4274 -0.3306
 2253poe     o2 9752   3.209   7.011   0.987  0.2163  0.3584 -0.5978
 2253poe    c23 9753   3.096   6.974   0.910 -0.1739  0.2919 -0.0042
 2253poe    c23 9754   3.036   6.837   0.944  0.1427  0.2015  0.1997
 2253poe     o2 9755   3.020   6.811   1.082 -0.3139 -0.3117  0.0527
 2253poe    c31 9756   2.994   6.675   1.110 -0.1244 -0.2706  0.4294
 2254poe    c31 9757   2.000   2.246   1.097  0.4076  0.4174 -0.0514
 2254poe     o2 9758   1.937   2.196   0.981  0.1630  0.2427  0.1564
 2254poe    c23 9759   1.973   2.285   0.878  0.3046  0.3358  0.2862
 2254poe    c23 9760   1.954   2.229   0.736  0.0581 -0.3654  0.5919
 2254poe     o2 9761   1.820   2.192   0.715 -0.0079 -0.0562  0.4660
 2254poe    c23 9762   1.791   2.122   0.596 -0.3824  0.2306  0.3857
 2254poe    c23 9763   1.803   1.970   0.618  0.1345  0.1988 -0.0823
 2254poe     o2 9764   1.718   1.936   0.725  0.0441  0.3175 -0.1156
 2254poe    c23 9765   1.744   1.803   0.763  0.3677  0.5528  0.4885
 2254poe    c23 9766   1.611   1.758   0.826  0.2861  0.0237 -0.0550
 2254poe     o2 9767   1.559   1.862   0.905 -0.1229  0.2033 -0.5607
 2254poe    c31 9768   1.443   1.830   0.979  0.6724 -0.2606  0.5099
 2255poe    c31 9769   3.397   0.378   5.787 -0.3293  0.2434 -0.1147
 2255poe     o2 9770   3.393   0.313   5.663 -0.5980  0.2720 -0.1227
 2255poe    c23 9771   3.463   0.385   5.564 -0.4452  0.4745  0.1336
 2255poe    c23 9772   3.467   0.290   5.443  0.1593 -0.1014  0.5908
 2255poe     o2 9773   3.330   0.256   5.435  0.0149  0.6324 -0.2163
 2255poe    c23 9774   3.312   0.170   5.324 -0.1847 -0.2801  0.5142
 2255poe    c23 9775   3.162   0.178   5.291 -0.0331 -0.7998 -0.3163
 2255poe     o2 9776   3.087   0.192   5.409 -0.2150 -0.4343 -0.4719
 2255poe    c23 9777   2.951   0.156   5.400 -0.3677 -0.0569  0.2427
 2255poe    c23 9778   2.858   0.268   5.349 -0.1172 -0.0329 -0.1599
 2255poe     o2 9779   2.883   0.393   5.408 -0.1559 -0.1728  0.1537
 2255poe    c31 9780   2.784   0.486   5.373  0.0924  0.1693  0.3498
 2256poe    c31 9781   1.568   6.759   6.090 -0.0985  0.2153  0.0060
 2256poe     o2 9782   1.698   6.771   6.143 -0.1937  0.2021  0.2431
 2256poe    c23 9783   1.714   6.679   6.249  0.5846  0.0584  0.0082
 2256poe    c23 9784   1.835   6.691   6.343  0.6128 -0.2737  0.0147
 2256poe     o2 9785   1.960   6.670   6.281  0.4401  0.5758 -0.6339
 2256poe    c23 9786   2.056   6.632   6.377 -0.1255 -0.0200 -0.2986
 2256poe    c23 9787   2.191   6.637   6.302 -0.3440  0.0911 -0.6886
 2256poe     o2 9788   2.233   6.771   6.290 -0.0510  0.1054  0.3777
 2256poe    c23 9789   2.373   6.783   6.279 -0.1207 -0.2672 -1.1164
 2256poe    c23 9790   2.427   6.927   6.278  0.3684 -0.4298  0.1234
 2256poe     o2 9791   2.414   6.976   6.146 -0.0915 -0.0041  0.3218
 2256poe    c31 9792   2.464   7.108   6.139 -0.0499 -0.0478 -0.2857
 2257poe    c31 9793   5.169   1.513   6.801 -0.4122  0.0009 -0.0468
 2257poe     o2 9794   5.220   1.421   6.895  0.0364 -0.3178 -0.5949
 2257poe    c23 9795   5.182   1.289   6.864 -0.3770 -0.3812  0.1463
 2257poe    c23 9796   5.197   1.190   6.981  0.0962 -0.4988 -0.0111
 2257poe     o2 9797   5.153   1.258   7.097  0.4344 -0.2814 -0.0064
 2257poe    c23 9798   5.190   1.183   7.211  0.1459  0.3674  0.5212
 2257poe    c23 9799   5.207   1.273   7.334 -0.0264  0.6238  0.3587
 2257poe     o2 9800   5.087   1.330   7.382 -0.5316 -0.0151 -0.1248
 2257poe    c23 9801   5.121   1.403   7.498  0.3453 -0.0412 -0.3597
 2257poe    c23 9802   5.006   1.446   7.590  0.5738 -0.0556 -0.0667
 2257poe     o2 9803   4.926   1.532   7.512  0.1532 -0.3765  0.0064
 2257poe    c31 9804   4.859   1.613   7.605  0.6225  0.1596 -0.1183
 2258poe    c31 9805   0.843   3.475   0.642 -0.1614 -0.6550 -0.6452
 2258poe     o2 9806   0.709   3.432   0.637 -0.2562 -0.5084  0.3150
 2258poe    c23 9807   0.609   3.526   0.667  0.2286  0.2211 -0.3095
 2258poe    c23 9808   0.479   3.454   0.626  0.1471  0.3253 -0.2383
 2258poe     o2 9809   0.485   3.320   0.669  0.0180  0.5996  0.6492
 2258poe    c23 9810   0.353   3.270   0.677  0.2342 -0.0921  0.0578
 2258poe    c23 9811   0.361   3.117   0.667  0.2800 -0.0777 -0.1333
 2258poe     o2 9812   0.417   3.062   0.785 -0.5302 -0.1607  0.2256
 2258poe    c23 9813   0.427   2.922   0.777  0.3170 -0.1017  0.1852
 2258poe    c23 9814   0.492   2.871   0.907 -0.0381  0.0792  0.4348
 2258poe     o2 9815   0.409   2.898   1.018 -0.4359  0.4400  0.0556
 2258poe    c31 9816   0.479   2.842   1.127 -0.2754 -0.2236 -0.3788
 2259poe    c31 9817   6.962   5.615   4.666  0.1302 -0.2224 -0.4021
 2259poe     o2 9818   7.039   5.729   4.636 -0.2275  0.0077 -0.4627
 2259poe    c23 9819   7.166   5.694   4.585 -0.0438  0.3398 -0.2333
 2259poe    c23 9820   7.254   5.820   4.581  0.4548 -0.0036 -0.1778
 2259poe     o2 9821   7.202   5.907   4.483  0.2105 -0.1300 -0.1600
 2259poe    c23 9822   7.295   6.012   4.467  0.3212 -0.2076 -0.0277
 2259poe    c23 9823   7.242   6.117   4.367 -0.5120 -0.5676  0.0265
 2259poe     o2 9824   7.140   6.185   4.436  0.1727  0.3147  0.1824
 2259poe    c23 9825   7.052   6.242   4.342 -0.5311 -0.2192  0.5070
 2259poe    c23 9826   6.927   6.295   4.415 -0.7287 -0.0168  0.0282
 2259poe     o2 9827   6.957   6.396   4.510 -0.6180  0.1827 -0.2167
 2259poe    c31 9828   6.838   6.424   4.580 -0.4883  0.0093  0.0771
 2260poe    c31 9829   0.060   6.313   3.746  0.3027 -0.0501 -0.3991
 2260poe     o2 9830   0.155   6.344   3.647  0.3155  0.2858 -0.2844
 2260poe    c23 9831   0.140   6.471   3.589 -0.2783 -0.0074 -0.7885
 2260poe    c23 9832   0.252   6.508   3.490  0.6690 -0.4708  0.0926
 2260poe     o2 9833   0.260   6.435   3.370 -0.2494 -0.4641  0.0183
 2260poe    c23 9834   0.365   6.484   3.288 -0.1320 -0.8141 -0.0418
 2260poe    c23 9835   0.348   6.431   3.145 -0.3331 -0.0620 -0.3019
 2260poe     o2 9836   0.332   6.291   3.157  0.2471 -0.0893  0.2235
 2260poe    c23 9837   0.316   6.229   3.032 -0.1194 -0.0708  0.2596
 2260poe    c23 9838   0.285   6.083   3.070 -0.2533 -0.2659 -0.5699
 2260poe     o2 9839   0.215   6.064   3.191  0.2133  0.1022 -0.2408
 2260poe    c31 9840   0.224   5.929   3.231 -0.3221  0.2821  0.5166
 2261poe    c31 9841   6.496   2.015   1.380 -0.0455  0.4587 -0.6503
 2261poe     o2 9842   6.529   1.879   1.393  0.1172  0.5751  0.2447
 2261poe    c23 9843   6.419   1.806   1.341  0.1610  0.2883  0.5521
 2261poe    c23 9844   6.420   1.652   1.352 -0.0947  0.2878  0.5695
 2261poe     o2 9845   6.519   1.590   1.274 -0.6380 -0.3112  0.3492
 2261poe    c23 9846   6.537   1.453   1.303 -0.0441 -0.4185 -0.4603
 2261poe    c23 9847   6.676   1.402   1.262  0.2977  0.4173 -0.3578
 2261poe     o2 9848   6.790   1.474   1.305  0.4242  0.0110 -0.0096
 2261poe    c23 9849   6.904   1.400   1.268  0.1496 -0.4954  0.1485
 2261poe    c23 9850   7.044   1.454   1.299 -0.1428  0.0863  0.4589
 2261poe     o2 9851   7.091   1.567   1.228 -0.7231 -0.0241 -0.1055
 2261poe    c31 9852   7.134   1.558   1.094  0.8274 -0.1222  0.3819
 2262poe    c31 9853   4.093   0.118   5.833 -0.3420  0.8987  0.0649
 2262poe     o2 9854   4.176   0.193   5.920  0.7103 -0.6087  0.4117
 2262poe    c23 9855   4.303   0.215   5.864  0.4393 -0.1147 -0.0297
 2262poe    c23 9856   4.407   0.284   5.954 -0.3601  0.2633  0.6149
 2262poe     o2 9857   4.462   0.209   6.060 -0.2210  0.0148  0.3646
 2262poe    c23 9858   4.554   0.285   6.134  0.1658 -0.4660  0.3906
 2262poe    c23 9859   4.617   0.205   6.250  0.3904 -0.7632  0.0621
 2262poe     o2 9860   4.521   0.135   6.326 -0.1854 -0.0956 -0.0418
 2262poe    c23 9861   4.592   0.051   6.413 -0.0725 -0.8411 -0.8336
 2262poe    c23 9862   4.493  -0.027   6.502 -0.0237  0.3037  0.2616
 2262poe     o2 9863   4.392  -0.062   6.410  0.2645 -0.0141  0.0611
 2262poe    c31 9864   4.317  -0.171   6.458  0.4926 -0.2995 -0.2257
 2263poe    c31 9865   1.668   4.188   0.494  0.9835 -0.3898  0.6827
 2263poe     o2 9866   1.696   4.323   0.465  0.1991 -0.2911  0.3738
 2263poe    c23 9867   1.659   4.411   0.569  0.4654  0.1889  0.0669
 2263poe    c23 9868   1.732   4.543   0.536  0.4011  0.2308  0.0918
 2263poe     o2 9869   1.863   4.510   0.495  0.2105 -0.1578 -0.2144
 2263poe    c23 9870   1.944   4.621   0.464 -0.1086  0.1623  0.0840
 2263poe    c23 9871   2.073   4.591   0.385 -0.3791 -0.9593  0.0553
 2263poe     o2 9872   2.033   4.570   0.251  0.0820 -0.2240 -0.2046
 2263poe    c23 9873   2.135   4.510   0.173 -0.4514 -0.9170 -0.3822
 2263poe    c23 9874   2.086   4.487   0.029  0.4709 -0.1281 -0.8368
 2263poe     o2 9875   2.009   4.369   0.020 -0.4091  0.3657 -0.0418
 2263poe    c31 9876   1.959   4.347  -0.110 -0.2511  0.0907 -0.0584
 2264poe    c31 9877   4.023   5.618   4.323 -0.5414 -0.1161 -0.0043
 2264poe     o2 9878   4.066   5.744   4.278 -0.2975 -0.1106  0.2412
 2264poe    c23 9879   3.965   5.834   4.239  0.2167  0.1701 -0.4864
 2264poe    c23 9880   4.024   5.974   4.215  0.4847  0.1060 -0.1973
 2264poe     o2 9881   4.101   6.022   4.323 -0.8030  0.9070  0.3846
 2264poe    c23 9882   4.207   6.104   4.278 -0.1226  0.0849  0.4593
 2264poe    c23 9883   4.253   6.185   4.400 -0.1164 -0.1433  0.6085
 2264poe     o2 9884   4.320   6.098   4.489  0.2682 -0.3718  0.1014
 2264poe    c23 9885   4.368   6.164   4.604 -0.9410  0.0384  0.3847
 2264poe    c23 9886   4.414   6.063   4.710 -0.2126 -0.3714 -0.3108
 2264poe     o2 9887   4.486   5.963   4.642  0.1930 -0.5567  0.3780
 2264poe    c31 9888   4.564   5.881   4.726  0.0966 -0.4604  0.5614
 2265poe    c31 9889   2.855   0.438   2.294 -0.2060 -0.0384 -0.2200
 2265poe     o2 9890   2.971   0.361   2.268 -0.1728 -0.2908  0.6174
 2265poe    c23 9891   3.039   0.319   2.384 -0.3698 -0.2826  0.7367
 2265poe    c23 9892   3.190   0.292   2.372 -0.3602 -0.0127  0.1869
 2265poe     o2 9893   3.260   0.409   2.335  0.0713 -0.2737  0.1723
 2265poe    c23 9894   3.398   0.384   2.348  0.0283 -0.5105  0.1819
 2265poe    c23 9895   3.476   0.514   2.376 -1.0356  0.0229  0.7035
 2265poe     o2 9896   3.485   0.579   2.251  0.1527 -0.7181  0.3859
 2265poe    c23 9897   3.500   0.719   2.259 -0.5676 -0.5974 -0.2293
 2265poe    c23 9898   3.418   0.781   2.145 -0.1652 -0.1971 -0.3051
 2265poe     o2 9899   3.282   0.792   2.182  0.0453 -0.3552  0.5376
 2265poe    c31 9900   3.200   0.862   2.090  0.4773 -0.2008  0.2680
 2266poe    c31 9901   5.841   6.190   3.019 -0.4134 -0.4881  0.6427
 2266poe     o2 9902   5.706   6.229   3.031 -0.2197  0.3709  0.1583
 2266poe    c23 9903   5.689   6.332   3.126 -0.2222  0.1262  0.4259
 2266poe    c23 9904   5.541   6.370   3.139 -0.1990  0.4763 -0.3083
 2266poe     o2 9905   5.453   6.273   3.191  0.0432  0.2087 -0.3954
 2266poe    c23 9906   5.332   6.291   3.122 -0.4324  0.3769  0.4639
 2266poe    c23 9907   5.225   6.182   3.144  0.2284 -0.3679  0.0411
 2266poe     o2 9908   5.255   6.058   3.084 -0.0373 -0.2358 -0.3654
 2266poe    c23 9909   5.139   5.985   3.051 -0.3229 -0.2091  0.5567
 2266poe    c23 9910   5.181   5.903   2.928 -0.2762  0.0646  0.3884
 2266poe     o2 9911   5.316   5.862   2.933 -0.1926  0.2112 -0.4534
 2266poe    c31 9912   5.345   5.766   2.834 -0.3146 -0.4097  0.0989
 2267poe    c31 9913   6.224   5.512   5.680 -0.0182 -0.0271  0.2688
 2267poe     o2 9914   6.239   5.372   5.688  0.2224 -0.0589 -0.6880
 2267poe    c23 9915   6.261   5.315   5.560 -0.1499 -0.2831 -0.6556
 2267poe    c23 9916   6.242   5.164   5.538 -0.1937 -0.4007  0.1453
 2267poe     o2 9917   6.306   5.076   5.628  0.3592  0.1037  0.2517
 2267poe    c23 9918   6.288   4.940   5.597  0.4174  0.0610  0.4085
 2267poe    c23 9919   6.377   4.856   5.690  1.0826  0.3227  0.0140
 2267poe     o2 9920   6.364   4.889   5.827 -0.3104  0.2793 -0.1022
 2267poe    c23 9921   6.436   4.811   5.919 -0.1107  0.2434 -0.2871
 2267poe    c23 9922   6.382   4.852   6.057  0.4003  0.3116 -0.1077
 2267poe     o2 9923   6.368   4.992   6.061  0.0637  0.2887 -0.4554
 2267poe    c31 9924   6.381   5.047   6.191 -0.0584  0.5612 -0.5580
 2268poe    c31 9925   2.641   2.126   6.243 -0.0399  0.4971  0.7156
 2268poe     o2 9926   2.582   2.088   6.366 -0.1615  0.2075  0.5704
 2268poe    c23 9927   2.557   2.205   6.442  0.3892  0.8722 -0.2445
 2268poe    c23 9928   2.481   2.153   6.566  0.2307 -0.2735 -0.8047
 2268poe     o2 9929   2.489   2.013   6.580 -0.2250 -0.2651 -0.4568
 2268poe    c23 9930   2.434   1.982   6.706  0.9387 -0.0678  0.1173
 2268poe    c23 9931   2.423   1.831   6.734  0.2767 -0.1958 -0.7688
 2268poe     o2 9932   2.544   1.764   6.705  0.6281  0.1927 -0.2256
 2268poe    c23 9933   2.529   1.629   6.742 -0.0195  0.3446  0.0713
 2268poe    c23 9934   2.647   1.552   6.682  0.1679  0.4503  0.3045
 2268poe     o2 9935   2.755   1.589   6.765  0.4796  0.0834  0.0702
 2268poe    c31 9936   2.872   1.520   6.726  0.6036 -0.0009  0.5802
 2269poe    c31 9937   0.302   1.151   2.307  0.0799 -0.0224 -0.1396
 2269poe     o2 9938   0.223   1.039   2.340  0.1366 -0.1165 -0.3182
 2269poe    c23 9939   0.086   1.063   2.319  0.1838  1.0806  0.6387
 2269poe    c23 9940   0.014   0.942   2.382  0.2479  0.7874  0.1506
 2269poe     o2 9941   0.084   0.888   2.491 -0.3299  0.2723  0.2731
 2269poe    c23 9942   0.005   0.795   2.562  0.3277 -0.0557  0.5942
 2269poe    c23 9943   0.084   0.726   2.674  0.1376  0.0582  0.7995
 2269poe     o2 9944   0.153   0.617   2.618 -0.5615 -0.0196  0.0877
 2269poe    c23 9945   0.233   0.555   2.716 -0.3133  0.0252 -0.0861
 2269poe    c23 9946   0.279   0.416   2.670  0.3353  0.2464 -0.1165
 2269poe     o2 9947   0.186   0.310   2.673  0.4729  0.1366  0.3092
 2269poe    c31 9948   0.167   0.277   2.809  0.3086  0.4729  0.3693
 2270poe    c31 9949   1.823   3.221   0.756  0.8851  0.0648 -0.2846
 2270poe     o2 9950   1.873   3.094   0.720 -0.5044 -0.2665 -1.1226
 2270poe    c23 9951   1.987   3.103   0.637  0.3318  0.1139  0.0417
 2270poe    c23 9952   2.023   2.968   0.573 -0.0597 -0.1433  0.3622
 2270poe     o2 9953   1.901   2.898   0.560 -0.2274  0.1821  0.1804
 2270poe    c23 9954   1.914   2.783   0.480  0.1875  0.1057  0.3531
 2270poe    c23 9955   1.783   2.711   0.443  0.2416  0.1694  0.0355
 2270poe     o2 9956   1.719   2.665   0.560  0.0069 -0.4317 -0.3238
 2270poe    c23 9957   1.598   2.599   0.532  0.1136 -0.6922 -0.1735
 2270poe    c23 9958   1.533   2.533   0.656  0.0500  0.1066  0.2279
 2270poe     o2 9959   1.487   2.638   0.738  0.1782  0.4347 -0.1170
 2270poe    c31 9960   1.411   2.589   0.845  0.0844  0.1060 -0.3334
 2271poe    c31 9961   5.701   1.787   0.234  0.2985  0.0316 -0.4711
 2271poe     o2 9962   5.821   1.784   0.308 -0.3500  0.6821  0.6463
 2271poe    c23 9963   5.885   1.660   0.288 -0.4395  0.6988  0.2424
 2271poe    c23 9964   6.031   1.658   0.336 -0.3431  0.2682 -0.0586
 2271poe     o2 9965   6.110   1.752   0.268  0.0631 -0.1552 -0.1743
 2271poe    c23 9966   6.223   1.691   0.209  0.0836  0.0121 -0.3103
 2271poe    c23 9967   6.300   1.793   0.123  0.1256  0.1435 -0.1164
 2271poe     o2 9968   6.227   1.853   0.018 -0.2785 -0.3289 -0.1099
 2271poe    c23 9969   6.319   1.921  -0.065 -0.4039 -0.6163 -0.4900
 2271poe    c23 9970   6.249   1.999  -0.177 -0.3213 -0.0355 -0.1453
 2271poe     o2 9971   6.327   2.069  -0.272  0.0751 -0.1866  0.0669
 2271poe    c31 9972   6.238   2.145  -0.351  0.2690 -0.2433 -0.2054
 2272poe    c31 9973   5.590   1.589   3.746  0.4613 -0.4159 -0.4509
 2272poe     o2 9974   5.654   1.655   3.853 -0.6974 -0.1098  0.0605
 2272poe    c23 9975   5.615   1.790   3.838 -0.0675  0.0941  0.2410
 2272poe    c23 9976   5.668   1.882   3.950 -0.1119 -0.0893  0.4128
 2272poe     o2 9977   5.809   1.879   3.950 -0.1083  0.1058  0.3149
 2272poe    c23 9978   5.864   1.983   4.028  0.2200 -0.0239  0.2577
 2272poe    c23 9979   6.005   1.943   4.072 -0.0777 -1.2022  0.1777
 2272poe     o2 9980   6.082   1.915   3.957 -0.0367 -0.3053 -0.0197
 2272poe    c23 9981   6.198   1.841   3.986  0.0100 -0.0425  0.4761
 2272poe    c23 9982   6.263   1.814   3.849 -0.5363  0.4643  0.1153
 2272poe     o2 9983   6.170   1.751   3.763  0.0140 -0.2385  0.0329
 2272poe    c31 9984   6.223   1.722   3.636 -0.1564  0.3644 -0.1790
 2273poe    c31 9985   3.679   2.388   4.219 -0.2394 -0.4315 -0.1746
 2273poe     o2 9986   3.638   2.465   4.108  0.0726 -0.0079  0.0015
 2273poe    c23 9987   3.596   2.377   4.006  0.4889  0.0775 -0.2444
 2273poe    c23 9988   3.558   2.442   3.871  0.1349  0.2756 -0.0516
 2273poe     o2 9989   3.428   2.496   3.867  0.1101  0.2409  0.2378
 2273poe    c23 9990   3.407   2.551   3.739  0.3425 -0.4990 -0.1247
 2273poe    c23 9991   3.284   2.643   3.730  0.8261  0.1586 -0.0656
 2273poe     o2 9992   3.296   2.755   3.814 -0.1398  0.0407  0.2352
 2273poe    c23 9993   3.183   2.837   3.792 -0.0293  0.1073 -0.0919
 2273poe    c23 9994   3.216   2.987   3.778  1.1178 -0.1455 -0.1963
 2273poe     o2 9995   3.266   3.037   3.900 -0.2864 -0.2598  0.4565
 2273poe    c31 9996   3.261   3.176   3.923  0.6529 -0.2961  0.9232
 2274poe    c31 9997   6.430   5.560   2.262 -0.2333  0.6385 -0.0533
 2274poe     o2 9998   6.336   5.556   2.368 -0.3904 -0.2007 -0.2127
 2274poe    c23 9999   6.341   5.426   2.422  0.1651  0.0309  0.3092
 2274poe    c2310000   6.256   5.445   2.548  0.1993  0.1532  0.3139
 2274poe     o210001   6.160   5.545   2.521 -0.1572 -0.1622  0.3965
 2274poe    c2310002   6.085   5.577   2.636 -0.0663 -0.5844  0.5748
 2274poe    c2310003   5.995   5.699   2.610  0.2483 -0.1882  1.3055
 2274poe     o210004   6.067   5.815   2.577 -0.6109  0.1245  0.4747
 2274poe    c2310005   5.997   5.929   2.620 -0.8156  0.3459 -0.4234
 2274poe    c2310006   6.037   6.060   2.549  0.4868 -0.0093 -0.3729
 2274poe     o210007   6.163   6.104   2.593  0.4715 -0.5351  0.2201
 2274poe    c3110008   6.195   6.218   2.516 -0.5291 -0.4568 -0.0887
 2275poe    c3110009   4.284   5.020   2.691 -0.3959 -0.4126  0.2551
 2275poe     o210010   4.225   5.128   2.761 -0.1872 -0.2513  0.1824
 2275poe    c2310011   4.215   5.085   2.895  0.1944 -0.4536  0.1478
 2275poe    c2310012   4.109   5.170   2.966  0.2919 -0.2926  0.1011
 2275poe     o210013   3.977   5.128   2.940  0.2435  0.0920 -0.3012
 2275poe    c2310014   3.878   5.205   3.004  0.1542 -0.1179 -0.1840
 2275poe    c2310015   3.737   5.166   2.957 -0.1494  0.3068  0.3620
 2275poe     o210016   3.704   5.206   2.826 -0.2867  0.4141  0.4281
 2275poe    c2310017   3.597   5.137   2.766  0.1955  0.3845 -0.4186
 2275poe    c2310018   3.560   5.189   2.626 -0.6291 -0.2919 -0.4575
 2275poe     o210019   3.472   5.299   2.632 -0.0627  0.1198  0.4749
 2275poe    c3110020   3.481   5.368   2.510 -0.0025 -0.2036  0.2960
 2276poe    c3110021   1.133   6.937   3.281 -0.1887 -0.4943 -0.2461
 2276poe     o210022   1.123   7.004   3.158  0.2567  0.2884  0.1346
 2276poe    c2310023   0.985   6.995   3.131  0.3173  0.1694 -0.1472
 2276poe    c2310024   0.950   7.091   3.015 -0.5608  1.1028  0.8528
 2276poe     o210025   1.033   7.203   3.038  0.0826  0.6274  0.8973
 2276poe    c2310026   1.034   7.279   2.919 -0.0157 -0.6214  0.0671
 2276poe    c2310027   1.136   7.384   2.967 -0.1007 -0.7418  0.5177
 2276poe     o210028   1.272   7.347   2.977  0.1031 -0.2730 -0.3809
 2276poe    c2310029   1.348   7.456   2.931  0.1147 -0.0464  0.1640
 2276poe    c2310030   1.476   7.402   2.864  0.0569 -0.2248  0.1989
 2276poe     o210031   1.574   7.378   2.962  0.2944  0.3904  0.1111
 2276poe    c3110032   1.679   7.315   2.892 -0.2791 -0.1217 -0.3030
 2277poe    c3110033   5.991   7.029   1.465 -0.5429  0.2498  0.2194
 2277poe     o210034   6.028   7.134   1.552  0.6033 -0.1018  0.1697
 2277poe    c2310035   5.917   7.168   1.632  0.0646 -0.1839 -0.5330
 2277poe    c2310036   5.958   7.293   1.712 -0.0492 -0.0854 -0.6278
 2277poe     o210037   6.096   7.278   1.740 -0.1540 -0.2231 -0.1765
 2277poe    c2310038   6.127   7.395   1.812 -0.2802 -0.6035  0.5108
 2277poe    c2310039   6.255   7.346   1.882  0.1760 -0.1206  0.0323
 2277poe     o210040   6.349   7.275   1.805  0.1220 -0.1539 -0.0033
 2277poe    c2310041   6.461   7.237   1.882  0.1661 -0.0339 -0.0081
 2277poe    c2310042   6.554   7.147   1.798 -0.1046 -0.0768 -0.2621
 2277poe     o210043   6.490   7.030   1.751 -0.1863  0.0427 -0.4502
 2277poe    c3110044   6.581   6.932   1.709 -0.0271  0.3189 -0.7537
 2278poe    c3110045   1.705   1.210   3.660  0.5514  0.2264  0.6108
 2278poe     o210046   1.800   1.145   3.578  0.3708  0.1517  0.4598
 2278poe    c2310047   1.861   1.033   3.638  0.1605 -0.0312  0.3332
 2278poe    c2310048   1.945   0.953   3.538 -0.0771  0.2129 -0.0657
 2278poe     o210049   2.037   1.035   3.468  0.1282  0.5100  0.5494
 2278poe    c2310050   2.136   0.963   3.398 -0.5266  0.3879 -0.2587
 2278poe    c2310051   2.100   0.882   3.272 -0.0886 -0.2038 -0.0091
 2278poe     o210052   2.093   0.955   3.151  0.4448 -0.2413 -0.0632
 2278poe    c2310053   1.965   0.998   3.111  0.7208  0.5967 -0.0697
 2278poe    c2310054   1.953   1.079   2.980 -0.1292 -0.2087 -0.5042
 2278poe     o210055   1.990   1.215   2.978  0.5726 -0.3942 -0.4745
 2278poe    c3110056   1.978   1.274   2.851  0.3316 -0.6405 -0.5658
 2279poe    c3110057   6.381   2.327   2.456 -0.2461 -0.1171 -0.2552
 2279poe     o210058   6.389   2.467   2.440  0.1748 -0.0951  0.1131
 2279poe    c2310059   6.470   2.503   2.330 -0.1376  0.3840  0.0407
 2279poe    c2310060   6.453   2.645   2.272 -0.9456  0.2668 -0.0262
 2279poe     o210061   6.510   2.754   2.341 -0.0722 -0.1929  0.0029
 2279poe    c2310062   6.648   2.760   2.314 -0.0013 -0.0739  0.3917
 2279poe    c2310063   6.745   2.866   2.369  0.2808 -0.0573 -0.1332
 2279poe     o210064   6.765   2.855   2.509  0.1026  0.0421 -0.0998
 2279poe    c2310065   6.812   2.973   2.569 -0.0168 -0.1778  0.4289
 2279poe    c2310066   6.762   2.991   2.713 -0.2973 -0.5563  0.3786
 2279poe     o210067   6.624   3.009   2.740 -0.2889  0.3165 -0.1442
 2279poe    c3110068   6.601   3.140   2.787 -0.1831  0.4727 -0.5224
 2280poe    c3110069   4.673   4.674   4.306  0.1994  0.1108  0.0162
 2280poe     o210070   4.619   4.751   4.201 -0.5807 -0.1581  0.2092
 2280poe    c2310071   4.627   4.888   4.237  0.9439 -0.2068  0.1287
 2280poe    c2310072   4.754   4.942   4.168  0.3377  0.6290 -0.3409
 2280poe     o210073   4.759   4.889   4.038 -0.4067 -0.0321 -0.1068
 2280poe    c2310074   4.848   4.961   3.956 -0.1920 -0.1429  0.0304
 2280poe    c2310075   4.995   4.913   3.954 -0.2030 -0.2035  0.5989
 2280poe     o210076   4.997   4.772   3.941 -0.0736 -0.0948 -0.6509
 2280poe    c2310077   5.125   4.714   3.946  0.1436  0.4514  0.7507
 2280poe    c2310078   5.122   4.560   3.942  0.4622  0.4552  0.3189
 2280poe     o210079   5.048   4.507   3.834  0.6691 -0.0378  0.4177
 2280poe    c3110080   5.086   4.372   3.815  0.1063 -0.1125 -0.2120
 2281poe    c3110081   4.604   4.119   3.202  0.0614 -0.3885  0.3773
 2281poe     o210082   4.687   4.071   3.099 -0.3055  0.3750 -0.2941
 2281poe    c2310083   4.824   4.087   3.128 -0.3168 -0.2943  0.1608
 2281poe    c2310084   4.920   4.058   3.011 -0.3889 -0.3288  0.1096
 2281poe     o210085   4.931   3.929   2.956  0.2297  0.0179 -0.6017
 2281poe    c2310086   5.050   3.861   2.988 -0.0118 -0.2622 -0.2821
 2281poe    c2310087   5.061   3.725   2.916 -0.1094 -0.1546 -0.5001
 2281poe     o210088   5.072   3.751   2.777  0.1909  0.0028 -0.4479
 2281poe    c2310089   5.025   3.639   2.706 -0.1273 -0.2442  0.1426
 2281poe    c2310090   4.980   3.677   2.564  0.2470 -0.1826  0.0388
 2281poe     o210091   4.858   3.745   2.551 -0.0385 -0.6683  0.1281
 2281poe    c3110092   4.834   3.755   2.412 -0.0141  0.6714  0.1983
 2282poe    c3110093   1.051   6.107   3.473 -0.0476  0.0865  0.2246
 2282poe     o210094   0.935   6.102   3.554 -0.2007  0.0200  0.0024
 2282poe    c2310095   0.825   6.046   3.487 -0.2109 -0.0845  0.1066
 2282poe    c2310096   0.707   5.991   3.569 -0.2803 -0.3418 -0.1624
 2282poe     o210097   0.612   6.090   3.600 -0.3733 -0.4516 -0.0956
 2282poe    c2310098   0.517   6.047   3.695 -0.5907  0.1284 -0.0479
 2282poe    c2310099   0.429   6.168   3.732 -0.1943  0.4992 -0.3080
 2282poe     o210100   0.514   6.257   3.801  0.0171 -0.1612  0.2911
 2282poe    c2310101   0.446   6.366   3.858 -0.0082 -0.0874  0.1210
 2282poe    c2310102   0.511   6.506   3.859  0.0164 -0.0954 -0.2742
 2282poe     o210103   0.491   6.576   3.739  0.1177  0.4357  0.0174
 2282poe    c3110104   0.446   6.706   3.771 -0.5551  0.0850  0.4953
 2283poe    c3110105   6.445   1.260   3.082  0.0443  0.0498 -0.2360
 2283poe     o210106   6.379   1.339   2.985  0.5389  0.2199 -0.4350
 2283poe    c2310107   6.243   1.302   2.993  0.5854  0.1443  0.0185
 2283poe    c2310108   6.166   1.400   2.903  0.1634  0.3515  0.5985
 2283poe     o210109   6.240   1.408   2.783 -0.6962 -1.0029 -0.0524
 2283poe    c2310110   6.194   1.506   2.692  0.1125 -0.4263  0.1459
 2283poe    c2310111   6.290   1.527   2.573 -0.4966 -0.0690 -0.2889
 2283poe     o210112   6.420   1.532   2.628 -0.4663 -1.1072 -0.2372
 2283poe    c2310113   6.517   1.565   2.531  0.1026 -0.1413  0.6303
 2283poe    c2310114   6.567   1.450   2.442  0.0785  0.1053  0.2969
 2283poe     o210115   6.630   1.354   2.524 -0.1700  0.2875  0.7027
 2283poe    c3110116   6.709   1.275   2.437 -0.5219  0.7227 -0.0222
 2284poe    c3110117   3.292   2.841   2.360  0.1283 -0.3276 -0.6104
 2284poe     o210118   3.319   2.727   2.439  0.1287  0.2812  0.2834
 2284poe    c2310119   3.204   2.667   2.494  0.4502 -0.6021  0.0073
 2284poe    c2310120   3.182   2.702   2.643  0.5501  0.0376 -0.1264
 2284poe     o210121   3.259   2.621   2.729  0.3198 -0.3499 -0.2807
 2284poe    c2310122   3.213   2.616   2.863  0.0112 -0.3150 -0.3845
 2284poe    c2310123   3.227   2.482   2.938 -0.3506 -0.5142 -0.6671
 2284poe     o210124   3.361   2.481   2.981 -0.4826 -0.0727 -0.2367
 2284poe    c2310125   3.377   2.363   3.056  0.0845  0.2837  0.2114
 2284poe    c2310126   3.527   2.330   3.059 -0.0494 -0.3407  0.0917
 2284poe     o210127   3.577   2.310   2.929 -0.5336 -0.5160 -0.0676
 2284poe    c3110128   3.716   2.290   2.915 -0.4656 -0.2564  0.2248
 2285poe    c3110129   3.001   5.628   1.677 -0.0364  0.0801 -0.5593
 2285poe     o210130   2.917   5.732   1.634 -0.3989  0.0549  0.0742
 2285poe    c2310131   2.785   5.698   1.669 -0.1561 -0.7038  0.2641
 2285poe    c2310132   2.692   5.820   1.658  0.3488 -0.2953  0.4897
 2285poe     o210133   2.666   5.856   1.524 -0.0527  0.1074  0.6719
 2285poe    c2310134   2.674   5.996   1.534  0.2495  0.0838  0.7471
 2285poe    c2310135   2.681   6.069   1.399 -0.1915 -1.0662  0.0874
 2285poe     o210136   2.810   6.038   1.350 -0.1554 -0.5548 -0.1517
 2285poe    c2310137   2.821   6.045   1.210  0.6768 -0.5149 -0.0886
 2285poe    c2310138   2.967   6.052   1.161  0.3521  0.5032 -0.9605
 2285poe     o210139   3.025   5.923   1.164 -0.3898  0.1806 -0.0491
 2285poe    c3110140   3.162   5.923   1.133 -0.4554  0.1701 -0.3405
 2286poe    c3110141   1.126   2.758   4.659 -0.4419  0.0887 -0.2499
 2286poe     o210142   1.028   2.748   4.760 -0.2092  0.0606 -0.0263
 2286poe    c2310143   0.914   2.825   4.730 -0.2267  0.1573  0.2886
 2286poe    c2310144   0.825   2.871   4.847  0.1002  0.3449  0.4652
 2286poe     o210145   0.913   2.949   4.925  0.2281  0.4530  0.2127
 2286poe    c2310146   0.853   2.982   5.048 -0.2598 -0.4054  0.2119
 2286poe    c2310147   0.954   3.065   5.130 -0.3374  0.1220 -0.2198
 2286poe     o210148   1.023   3.148   5.040  0.2357  0.0606  0.1587
 2286poe    c2310149   1.093   3.250   5.107  0.4287 -0.1345  0.2541
 2286poe    c2310150   1.114   3.383   5.031 -0.0775 -0.4647 -0.4746
 2286poe     o210151   1.161   3.361   4.900 -0.7924  0.0459 -0.8209
 2286poe    c3110152   1.206   3.488   4.860 -0.2319  0.2131  0.2881
 2287poe    c3110153   4.734   0.631   7.022  0.1783 -0.0971  0.4144
 2287poe     o210154   4.633   0.632   6.924  0.1485  0.0231  0.4461
 2287poe    c2310155   4.673   0.571   6.804 -0.1274 -0.6242  0.6753
 2287poe    c2310156   4.562   0.558   6.698  0.3275 -0.2848  0.1493
 2287poe     o210157   4.463   0.462   6.728 -0.0123 -0.0913 -0.3344
 2287poe    c2310158   4.384   0.443   6.613  0.2788 -0.1560 -0.5243
 2287poe    c2310159   4.309   0.309   6.628 -0.5883  0.3638 -0.1459
 2287poe     o210160   4.260   0.309   6.760  0.0971 -0.1375  0.1172
 2287poe    c2310161   4.189   0.190   6.788  0.2687 -0.2333  0.1440
 2287poe    c2310162   4.149   0.173   6.936 -0.3316  0.5087  0.0748
 2287poe     o210163   4.238   0.244   7.018  0.3677  0.0213 -0.2537
 2287poe    c3110164   4.219   0.214   7.154  0.4487  0.0675 -0.2317
 2288poe    c3110165   6.910   5.145   3.055  0.3647 -0.3612 -0.2326
 2288poe     o210166   6.986   5.160   2.937  0.0812 -1.0182 -0.4977
 2288poe    c2310167   7.116   5.207   2.966 -0.3085 -0.4956  0.4430
 2288poe    c2310168   7.176   5.230   2.827 -0.2932  0.4816  0.6046
 2288poe     o210169   7.110   5.314   2.735 -0.0356  0.3069  0.2543
 2288poe    c2310170   7.189   5.355   2.626 -0.0087  0.6602  0.4063
 2288poe    c2310171   7.117   5.445   2.524 -0.1948  0.1063  0.0478
 2288poe     o210172   7.042   5.542   2.594  0.5558  0.1588  0.7903
 2288poe    c2310173   6.974   5.632   2.510  0.9776  0.1215  0.4031
 2288poe    c2310174   6.894   5.731   2.597  0.0195 -0.1809 -0.1131
 2288poe     o210175   6.812   5.687   2.703  0.0171 -0.3479 -0.1842
 2288poe    c3110176   6.795   5.800   2.785  0.0943 -0.1306 -0.4637
 2289poe    c3110177   0.889   5.498   4.005 -0.1052 -0.0720 -0.0168
 2289poe     o210178   0.762   5.465   4.058 -0.1586  0.0608 -0.0612
 2289poe    c2310179   0.719   5.531   4.174  0.4712 -0.2376  0.3452
 2289poe    c2310180   0.581   5.483   4.222  0.3582 -0.4239 -0.1703
 2289poe     o210181   0.594   5.344   4.243  0.3657 -0.4000 -0.0244
 2289poe    c2310182   0.481   5.301   4.316 -0.0597  0.8835  0.1067
 2289poe    c2310183   0.430   5.164   4.267  0.2126  0.7317  0.2447
 2289poe     o210184   0.392   5.183   4.133 -0.0431  0.3112  0.2546
 2289poe    c2310185   0.339   5.060   4.090  0.4918  0.2110 -0.1335
 2289poe    c2310186   0.278   5.045   3.949  0.1461 -0.0695  0.0435
 2289poe     o210187   0.158   5.118   3.933 -0.0751 -0.4322  0.0469
 2289poe    c3110188   0.043   5.048   3.974 -0.2901 -0.3902 -0.4708
 2290poe    c3110189   6.550   3.509   0.015  0.4154  0.6526 -0.5260
 2290poe     o210190   6.687   3.479  -0.003  0.2303 -0.4785 -0.1598
 2290poe    c2310191   6.722   3.463  -0.139  0.6620  0.4846 -0.1728
 2290poe    c2310192   6.874   3.482  -0.144  0.7621 -0.1614  0.2398
 2290poe     o210193   6.942   3.380  -0.074  0.0197 -0.8281  0.0076
 2290poe    c2310194   7.074   3.413  -0.037 -0.1904  0.1367 -0.0603
 2290poe    c2310195   7.150   3.301   0.037 -0.6690 -0.1950 -0.0627
 2290poe     o210196   7.111   3.289   0.172 -0.2322  0.3899  0.1201
 2290poe    c2310197   7.214   3.227   0.245  0.3099  1.1052 -0.0274
 2290poe    c2310198   7.181   3.246   0.394  0.0121  0.3717  0.0017
 2290poe     o210199   7.046   3.208   0.408 -0.0101  0.5780  0.3815
 2290poe    c3110200   7.017   3.183   0.543  0.6991 -0.4143  0.3633
 2291poe    c3110201   4.105   3.142   2.605  0.2046 -0.6385  0.3795
 2291poe     o210202   4.032   3.193   2.714  0.3983 -0.0274  0.2305
 2291poe    c2310203   3.899   3.149   2.699  0.4388  0.0109 -0.2458
 2291poe    c2310204   3.826   3.282   2.723  0.4917 -0.0911  0.4918
 2291poe     o210205   3.891   3.352   2.827 -0.3201  0.2631  0.7700
 2291poe    c2310206   3.840   3.479   2.860  0.1632  0.6462  0.0562
 2291poe    c2310207   3.921   3.521   2.983  0.2851  0.0583  0.1778
 2291poe     o210208   4.060   3.523   2.958  0.2677  0.1451  0.0869
 2291poe    c2310209   4.112   3.576   3.077  0.2830  0.6551 -0.1447
 2291poe    c2310210   4.255   3.631   3.061  0.2998  0.6469 -0.0231
 2291poe     o210211   4.351   3.531   3.034  0.0283  0.3324  0.1702
 2291poe    c3110212   4.473   3.597   3.007  0.2499 -0.2059 -0.1653
 2292poe    c3110213   2.684   0.795   0.056  0.0555  0.5857  0.0059
 2292poe     o210214   2.815   0.841   0.077  0.3548 -0.2304 -0.0541
 2292poe    c2310215   2.837   0.968   0.021  0.1732 -0.1746  0.0026
 2292poe    c2310216   2.965   1.030   0.079  0.0857 -0.1525  0.1719
 2292poe     o210217   2.944   1.081   0.209 -0.0573 -0.0775  0.1193
 2292poe    c2310218   3.047   1.160   0.264 -0.1349  0.0180  0.1290
 2292poe    c2310219   3.010   1.230   0.396 -0.5584  0.2507 -0.1122
 2292poe     o210220   3.005   1.136   0.501 -0.0263  0.2900 -0.0484
 2292poe    c2310221   2.964   1.190   0.625 -0.3961  0.0410 -0.0590
 2292poe    c2310222   2.945   1.079   0.730 -0.0374 -0.0568 -0.0948
 2292poe     o210223   2.827   1.007   0.704 -0.0445 -0.0110 -0.1917
 2292poe    c3110224   2.792   0.922   0.811 -0.2612  0.2179 -0.0788
 2293poe    c3110225   2.859   7.111   0.091 -0.3910 -0.2064 -0.0262
 2293poe     o210226   2.899   7.228   0.023  0.4605 -0.3119  0.2711
 2293poe    c2310227   2.860   7.327   0.115 -0.8022 -0.0332 -0.5354
 2293poe    c2310228   2.891   7.466   0.058 -0.3412  0.2043  0.2838
 2293poe     o210229   3.029   7.491   0.051 -0.1589 -0.6206  0.8409
 2293poe    c2310230   3.091   7.519   0.175  0.5749 -0.1529  0.3792
 2293poe    c2310231   3.241   7.550   0.158  0.4647  0.2712  0.1553
 2293poe     o210232   3.257   7.670   0.086 -0.0391 -0.0254 -0.4609
 2293poe    c2310233   3.389   7.695   0.043  0.0582 -0.0153 -0.1570
 2293poe    c2310234   3.408   7.831  -0.026  0.3015  0.1659  0.2668
 2293poe     o210235   3.351   7.942   0.041 -0.4421  0.1776 -0.3797
 2293poe    c3110236   3.369   8.054  -0.043  0.4094  0.2718 -0.0754
 2294poe    c3110237   2.817   5.098   5.485  0.2989  0.1891  0.1547
 2294poe     o210238   2.744   5.217   5.504  0.0397  0.0087  0.2954
 2294poe    c2310239   2.764   5.269   5.634  0.1763  0.0870  0.2433
 2294poe    c2310240   2.689   5.394   5.684  0.3682  0.2310  0.1741
 2294poe     o210241   2.549   5.378   5.674  0.2705  0.6660  0.7716
 2294poe    c2310242   2.492   5.363   5.802  0.2192 -0.7663  0.5994
 2294poe    c2310243   2.352   5.301   5.790 -0.2126  0.2688  0.1580
 2294poe     o210244   2.263   5.385   5.719 -0.0135  0.5495  0.2369
 2294poe    c2310245   2.130   5.341   5.705  0.0591  0.2990  0.3211
 2294poe    c2310246   2.049   5.432   5.611  0.1956 -0.0401 -0.1301
 2294poe     o210247   2.042   5.561   5.667  0.2981 -0.0763 -0.0334
 2294poe    c3110248   1.965   5.661   5.603  0.4762 -0.6421 -1.1457
 2295poe    c3110249   2.474   0.811   4.141  0.1731  0.1565  0.5196
 2295poe     o210250   2.455   0.734   4.024  0.0595  0.7615  0.1325
 2295poe    c2310251   2.473   0.791   3.897  0.1622  0.0292 -0.1874
 2295poe    c2310252   2.478   0.677   3.793  0.4353 -0.4478  0.3475
 2295poe     o210253   2.358   0.612   3.829  0.1001 -0.2508 -0.3997
 2295poe    c2310254   2.339   0.500   3.745  0.1869 -0.8154  0.3218
 2295poe    c2310255   2.228   0.405   3.792 -0.3224 -0.5197 -0.2699
 2295poe     o210256   2.274   0.351   3.914 -0.1808  0.1012 -0.0485
 2295poe    c2310257   2.238   0.219   3.947 -0.8634  0.4227  0.5314
 2295poe    c2310258   2.331   0.174   4.061 -0.2378  0.1381 -0.0805
 2295poe     o210259   2.310   0.261   4.170  0.4060 -0.3590  0.4539
 2295poe    c3110260   2.273   0.193   4.288 -0.4236 -0.3022  0.2371
 2296poe    c3110261   4.725   4.091   0.823  0.3058 -0.1397  0.0560
 2296poe     o210262   4.771   4.035   0.701  0.2432 -0.1957  0.0576
 2296poe    c2310263   4.736   3.899   0.702  0.3543 -0.2256 -0.3443
 2296poe    c2310264   4.762   3.819   0.572  0.2345 -0.0095 -0.5020
 2296poe     o210265   4.668   3.852   0.472 -0.2120 -0.1950 -0.1472
 2296poe    c2310266   4.608   3.739   0.414  0.6080 -0.5170 -0.3847
 2296poe    c2310267   4.548   3.773   0.277 -0.2503 -0.4210  0.0079
 2296poe     o210268   4.641   3.800   0.174  0.0087 -0.4225  0.2404
 2296poe    c2310269   4.666   3.937   0.152  0.3696 -0.4805  0.2833
 2296poe    c2310270   4.727   3.947   0.012  0.0223  0.0790  0.1650
 2296poe     o210271   4.630   3.926  -0.088  0.2291 -0.4891  0.0802
 2296poe    c3110272   4.681   3.909  -0.219 -0.0108 -0.0126 -0.0749
 2297poe    c3110273   6.952   5.527   1.004 -0.2390 -0.1744  0.4376
 2297poe     o210274   7.081   5.481   0.973 -0.3714 -0.0112 -0.3907
 2297poe    c2310275   7.169   5.585   0.937  0.0683 -0.1739  0.1905
 2297poe    c2310276   7.307   5.523   0.909 -0.0256 -0.1811 -0.2687
 2297poe     o210277   7.322   5.451   0.788 -0.2798 -0.5947 -0.0566
 2297poe    c2310278   7.430   5.363   0.806 -0.2828 -0.6265 -0.1962
 2297poe    c2310279   7.452   5.281   0.677  0.1647 -0.4281 -0.2467
 2297poe     o210280   7.484   5.367   0.570  0.4753  0.2735  0.4010
 2297poe    c2310281   7.532   5.302   0.455 -0.3456  0.2598  0.0627
 2297poe    c2310282   7.430   5.293   0.340 -0.1977  0.2323 -0.0657
 2297poe     o210283   7.374   5.409   0.282 -0.2978 -0.0344 -0.5149
 2297poe    c3110284   7.260   5.367   0.211 -0.2837 -0.0208 -0.5454
 2298poe    c3110285   5.577   1.991   0.695  0.0710  0.3282 -0.7609
 2298poe     o210286   5.686   1.905   0.672 -0.0843 -0.0171 -0.2237
 2298poe    c2310287   5.788   1.965   0.597 -0.8862  1.3144 -0.2819
 2298poe    c2310288   5.912   2.033   0.659 -0.3352 -0.1151  0.2167
 2298poe     o210289   5.891   2.157   0.722 -0.1106  0.1629 -0.2572
 2298poe    c2310290   5.959   2.174   0.844 -0.2304 -0.2086 -0.1383
 2298poe    c2310291   5.986   2.323   0.872  0.0537 -0.2435 -0.2321
 2298poe     o210292   6.111   2.361   0.817 -0.2139  0.4890 -0.3392
 2298poe    c2310293   6.129   2.497   0.849 -0.4423  0.4595 -0.0752
 2298poe    c2310294   6.273   2.551   0.831 -0.1173 -0.2281  0.4126
 2298poe     o210295   6.368   2.525   0.932  0.1001  0.4892  0.3930
 2298poe    c3110296   6.474   2.619   0.925  0.7652 -0.2961 -0.3379
 2299poe    c3110297   4.088   0.666   5.411 -0.6027  0.0120 -0.1299
 2299poe     o210298   4.116   0.796   5.364  0.0191  0.0416  0.3061
 2299poe    c2310299   4.066   0.873   5.472  0.4508 -0.4809  0.8850
 2299poe    c2310300   4.125   1.015   5.479  0.2416 -0.3701  0.4092
 2299poe     o210301   4.257   1.003   5.524  0.1413  0.2377  0.8688
 2299poe    c2310302   4.311   1.133   5.527 -0.5809  0.5530  0.3117
 2299poe    c2310303   4.426   1.127   5.629  0.1933  0.3211 -0.5662
 2299poe     o210304   4.499   1.007   5.618 -0.0947  0.0846  0.0662
 2299poe    c2310305   4.618   1.012   5.693  0.1340  0.7030 -0.3282
 2299poe    c2310306   4.692   0.878   5.715 -0.7668  0.2814  0.1993
 2299poe     o210307   4.602   0.792   5.782 -0.0744 -0.3672  0.3030
 2299poe    c3110308   4.665   0.669   5.810  0.3245 -0.2306  0.0104
 2300poe    c3110309   6.077   5.333   1.904 -0.3171 -0.1040 -0.3099
 2300poe     o210310   6.128   5.462   1.877  0.1796 -0.2415 -0.0436
 2300poe    c2310311   6.187   5.490   1.752 -0.3638  0.5113 -0.1326
 2300poe    c2310312   6.105   5.551   1.636 -0.1366  0.5191 -0.2889
 2300poe     o210313   6.060   5.680   1.671  0.1834  0.5707 -0.0616
 2300poe    c2310314   5.943   5.678   1.750  0.3972  0.1044  0.2473
 2300poe    c2310315   5.895   5.811   1.810  0.0152 -0.0466  0.2807
 2300poe     o210316   5.995   5.855   1.900  0.0570  0.0587  0.1832
 2300poe    c2310317   5.955   5.978   1.956 -0.6995 -0.2105  0.2486
 2300poe    c2310318   6.009   6.006   2.098 -0.5068  0.4313  0.0494
 2300poe     o210319   5.948   5.942   2.207 -0.0191  0.1231  0.1463
 2300poe    c3110320   5.825   6.003   2.240  0.0460  0.3851 -0.0986
 2301poe    c3110321   7.014   6.889   0.749 -0.6565 -0.2411  0.6370
 2301poe     o210322   7.014   7.028   0.729 -0.0927 -0.3630 -0.2884
 2301poe    c2310323   7.121   7.063   0.644 -0.1832 -0.1494 -0.3154
 2301poe    c2310324   7.121   7.212   0.605  0.5130  0.0298  0.3393
 2301poe     o210325   6.990   7.243   0.564  0.4545 -0.1167  0.4147
 2301poe    c2310326   6.970   7.381   0.545  0.2299 -0.1724  0.2431
 2301poe    c2310327   6.824   7.387   0.496  0.3806 -0.9139 -0.3172
 2301poe     o210328   6.742   7.313   0.585  0.3779 -0.3715  0.1363
 2301poe    c2310329   6.605   7.336   0.558  0.4283 -0.3937 -0.1439
 2301poe    c2310330   6.524   7.292   0.682  0.4008 -0.1417 -0.0730
 2301poe     o210331   6.527   7.153   0.701  0.0473 -0.1437 -0.0174
 2301poe    c3110332   6.421   7.099   0.777  0.0100 -0.6581 -0.4224
 2302poe    c3110333   3.401   6.655   5.673 -0.0733 -0.0001  0.2969
 2302poe     o210334   3.469   6.778   5.665  0.1775 -0.1626 -0.1128
 2302poe    c2310335   3.384   6.887   5.639 -0.0661 -0.3214  0.0107
 2302poe    c2310336   3.469   7.015   5.619 -0.0369 -0.3418  0.0083
 2302poe     o210337   3.525   7.063   5.739 -0.1174  0.3049 -0.2145
 2302poe    c2310338   3.629   7.156   5.715  0.2679 -0.0476  0.0625
 2302poe    c2310339   3.698   7.209   5.842  0.0301 -0.3704  0.3289
 2302poe     o210340   3.732   7.100   5.924  0.0648 -0.1035  0.6734
 2302poe    c2310341   3.810   7.134   6.036  0.8140 -0.0925  0.1532
 2302poe    c2310342   3.839   7.001   6.107 -0.4494 -0.2182  0.4475
 2302poe     o210343   3.721   6.926   6.090 -0.7077  0.3043 -0.0871
 2302poe    c3110344   3.720   6.810   6.170  0.5574  0.2883 -0.0891
 2303poe    c3110345   4.601   0.440   4.185  0.2444 -0.5994  0.2175
 2303poe     o210346   4.692   0.527   4.249  0.1014 -0.1936 -0.1188
 2303poe    c2310347   4.709   0.514   4.389  0.1765 -0.3303 -0.1403
 2303poe    c2310348   4.810   0.623   4.430 -0.0270  0.0152 -0.5449
 2303poe     o210349   4.917   0.615   4.339  0.1485  0.6103 -0.3926
 2303poe    c2310350   5.016   0.711   4.370  0.4085  0.2358 -0.0414
 2303poe    c2310351   5.146   0.674   4.296  0.3419  0.2837 -0.1830
 2303poe     o210352   5.116   0.638   4.163  0.3643 -0.3401 -0.0236
 2303poe    c2310353   5.223   0.667   4.077  0.2773 -0.8681 -0.3164
 2303poe    c2310354   5.177   0.710   3.936 -0.2450  0.1785  0.1632
 2303poe     o210355   5.067   0.799   3.939 -0.3337  0.0596  0.5227
 2303poe    c3110356   5.033   0.831   3.806 -1.1873  0.3029  0.7935
 2304poe    c3110357   2.882   4.648   2.873  0.1929  0.1481  0.1682
 2304poe     o210358   2.766   4.664   2.794  0.0496  0.8106  0.5030
 2304poe    c2310359   2.795   4.734   2.675 -0.3200  0.0256 -0.0508
 2304poe    c2310360   2.677   4.803   2.605 -0.6635 -0.3400  0.1646
 2304poe     o210361   2.592   4.695   2.571 -0.6049 -0.3409  0.0202
 2304poe    c2310362   2.493   4.733   2.478  0.2292  0.3731 -0.5901
 2304poe    c2310363   2.428   4.613   2.407 -0.2639  0.3372 -0.0823
 2304poe     o210364   2.407   4.497   2.484 -0.0188  0.4324  0.1291
 2304poe    c2310365   2.331   4.402   2.412  0.1679  0.3473  0.0444
 2304poe    c2310366   2.226   4.347   2.510 -0.2124 -0.2521 -0.6883
 2304poe     o210367   2.288   4.259   2.601  0.3471  0.6915 -0.1294
 2304poe    c3110368   2.210   4.255   2.718  0.1553  0.2130 -0.2709
 2305poe    c3110369   2.830   4.147   5.254  0.3137 -0.5715  0.1515
 2305poe     o210370   2.815   4.153   5.394 -0.2337  0.0043  0.0697
 2305poe    c2310371   2.754   4.275   5.429  0.6075  0.3952  0.1817
 2305poe    c2310372   2.754   4.307   5.579 -0.1115 -0.4105  0.3539
 2305poe     o210373   2.881   4.344   5.627 -0.1885 -0.2325  0.4227
 2305poe    c2310374   2.885   4.354   5.767 -0.4565  0.5041  0.3803
 2305poe    c2310375   2.966   4.247   5.843  0.0650  0.4117 -0.2968
 2305poe     o210376   3.095   4.232   5.789  0.1796 -0.5943  0.2238
 2305poe    c2310377   3.170   4.126   5.843  0.2179 -0.5937  0.1718
 2305poe    c2310378   3.296   4.132   5.755  0.2531 -0.1224  0.2511
 2305poe     o210379   3.274   4.164   5.619 -0.4680 -0.0113  0.3906
 2305poe    c3110380   3.393   4.133   5.551 -0.5569 -0.1229  0.2854
 2306poe    c3110381   4.197   1.605   1.738  0.2230 -0.1699 -0.2443
 2306poe     o210382   4.178   1.742   1.711  0.1499 -0.2068 -0.3811
 2306poe    c2310383   4.071   1.788   1.790  0.4800 -0.1155  0.0183
 2306poe    c2310384   4.049   1.938   1.762 -0.3049 -0.2135  0.0823
 2306poe     o210385   4.173   2.003   1.744 -0.4193 -0.0702 -0.1962
 2306poe    c2310386   4.169   2.144   1.738 -0.1003 -0.0633 -0.2528
 2306poe    c2310387   4.275   2.207   1.645  0.0907  0.1938  0.1403
 2306poe     o210388   4.256   2.152   1.517 -0.0341  0.1365  0.1836
 2306poe    c2310389   4.326   2.231   1.424 -0.1149 -0.2537 -0.2116
 2306poe    c2310390   4.285   2.190   1.281  0.7359 -0.0259 -0.5293
 2306poe     o210391   4.302   2.050   1.283  0.6573 -0.0275  0.3217
 2306poe    c3110392   4.279   1.993   1.157 -0.5759 -0.1741  0.6045
 2307poe    c3110393   4.850   0.012   4.518  0.0767  0.0541  0.2084
 2307poe     o210394   4.779  -0.104   4.479  0.1221 -0.0507  0.4341
 2307poe    c2310395   4.688  -0.078   4.375  0.6529  0.4518  0.0917
 2307poe    c2310396   4.587   0.038   4.376 -0.3069 -0.3722  0.0211
 2307poe     o210397   4.482   0.023   4.470  0.1858 -0.0230  0.6407
 2307poe    c2310398   4.383   0.122   4.456  0.0035 -0.3092 -0.1714
 2307poe    c2310399   4.256   0.096   4.539  0.0747 -0.3582 -0.0773
 2307poe     o210400   4.291   0.093   4.675 -0.6125 -0.1241  0.1052
 2307poe    c2310401   4.187   0.112   4.769 -0.1071  0.0887  0.6300
 2307poe    c2310402   4.241   0.151   4.908  0.0582  0.8799  0.3526
 2307poe     o210403   4.313   0.038   4.952  0.0789  0.7546  0.0025
 2307poe    c3110404   4.351   0.047   5.087 -0.0036  0.0408  0.0789
 2308poe    c3110405   2.869   1.611   3.016  0.6068 -0.2136  0.1470
 2308poe     o210406   2.809   1.489   2.978  0.2486  0.2084 -0.6669
 2308poe    c2310407   2.846   1.438   2.852  1.1457 -0.2275 -0.2299
 2308poe    c2310408   2.852   1.284   2.845  0.0390 -0.2814 -0.1537
 2308poe     o210409   2.914   1.240   2.964 -0.6816 -0.3127  0.2162
 2308poe    c2310410   2.922   1.099   2.973  0.2003 -0.3179 -0.5069
 2308poe    c2310411   3.020   1.046   3.079 -0.2477  0.2350  0.1920
 2308poe     o210412   2.980   1.079   3.210  0.3283  0.3664  0.3376
 2308poe    c2310413   3.066   1.014   3.302  0.2669 -0.6157 -0.2935
 2308poe    c2310414   3.086   1.083   3.438 -0.3820 -0.4796 -0.2639
 2308poe     o210415   2.973   1.073   3.522 -0.0390  0.2117  0.2798
 2308poe    c3110416   2.985   1.148   3.642 -0.9341  0.2386  0.3592
 2309poe    c3110417   5.851   0.799   0.163  0.1921  0.7448 -0.2798
 2309poe     o210418   5.977   0.787   0.102  0.3176  0.3876  0.0446
 2309poe    c2310419   6.085   0.818   0.188  0.4837  0.1578 -0.0786
 2309poe    c2310420   6.223   0.792   0.126  0.4800  0.2668 -0.1321
 2309poe     o210421   6.193   0.821  -0.009 -0.2314  0.3889  0.0486
 2309poe    c2310422   6.304   0.799  -0.093 -0.2519 -0.3829  0.2133
 2309poe    c2310423   6.291   0.851  -0.237  0.5636 -0.3869  0.1349
 2309poe     o210424   6.187   0.790  -0.309  0.3711 -0.0912  0.1592
 2309poe    c2310425   6.175   0.850  -0.436  0.1227 -0.5163 -0.0205
 2309poe    c2310426   6.074   0.800  -0.541 -0.2503  0.3566 -0.0807
 2309poe     o210427   5.941   0.834  -0.510 -0.3538 -0.5646  0.5014
 2309poe    c3110428   5.851   0.792  -0.610  0.0287  0.2914 -0.2086
 2310poe    c3110429   2.025   5.322   0.602 -0.2058 -0.0074  0.0060
 2310poe     o210430   1.900   5.345   0.540 -0.3940 -0.2150  0.3063
 2310poe    c2310431   1.828   5.224   0.527 -0.5444 -0.0774 -0.1403
 2310poe    c2310432   1.720   5.220   0.417 -0.7075 -0.3321  0.0303
 2310poe     o210433   1.764   5.223   0.284 -0.1937  0.0551  0.2089
 2310poe    c2310434   1.813   5.101   0.233  0.1694  0.5050 -0.5378
 2310poe    c2310435   1.883   5.121   0.097 -0.0269 -0.0199 -0.7175
 2310poe     o210436   1.810   5.196   0.002 -0.0952  0.5921 -0.1857
 2310poe    c2310437   1.889   5.194  -0.115  0.1605  0.2355 -0.0083
 2310poe    c2310438   1.807   5.269  -0.221 -0.1085 -0.4691 -0.3069
 2310poe     o210439   1.825   5.409  -0.211 -0.2978 -0.4318 -0.4746
 2310poe    c3110440   1.747   5.463  -0.315 -0.2425 -0.0792 -0.3344
 2311poe    c3110441   6.411   3.391   5.077 -0.1804  0.6365  0.1128
 2311poe     o210442   6.373   3.297   5.175 -0.2644  0.1951 -0.3397
 2311poe    c2310443   6.477   3.243   5.252 -0.3725  0.4703  0.0011
 2311poe    c2310444   6.446   3.218   5.401  0.9053 -0.3723  0.1437
 2311poe     o210445   6.338   3.128   5.416  0.1566  0.5927  0.6648
 2311poe    c2310446   6.295   3.106   5.548 -0.6602 -0.1359  0.2851
 2311poe    c2310447   6.183   3.000   5.559 -0.4652 -0.3711  0.0176
 2311poe     o210448   6.060   3.052   5.513 -0.0174  0.3806 -0.3579
 2311poe    c2310449   5.972   2.941   5.510 -0.1948  0.4802  0.8058
 2311poe    c2310450   5.827   2.979   5.475  0.1049  0.7165 -0.2127
 2311poe     o210451   5.802   3.006   5.339 -0.0610  0.5544 -0.2126
 2311poe    c3110452   5.686   3.083   5.317  0.0339  0.7744  0.0643
 2312poe    c3110453   5.272   2.284   5.471 -0.0085  0.2224  0.1098
 2312poe     o210454   5.211   2.162   5.436  0.1495  0.1555  0.0659
 2312poe    c2310455   5.090   2.208   5.381  0.2360 -0.2876 -0.5021
 2312poe    c2310456   4.998   2.091   5.343 -0.4484  0.1173 -0.1091
 2312poe     o210457   5.079   2.005   5.267 -0.4129  0.2872 -0.2628
 2312poe    c2310458   5.029   1.881   5.221  0.0458  0.4307 -1.1764
 2312poe    c2310459   5.138   1.792   5.157 -0.0142 -0.4775 -0.0352
 2312poe     o210460   5.250   1.781   5.241  0.1303  0.0063 -0.1591
 2312poe    c2310461   5.353   1.708   5.178  0.0460 -0.2728  0.0258
 2312poe    c2310462   5.497   1.724   5.231 -0.0391 -0.0709  0.1999
 2312poe     o210463   5.586   1.823   5.183 -0.0925  0.0628  0.3775
 2312poe    c3110464   5.585   1.851   5.045  0.1185  0.6956  0.5007
 2313poe    c3110465   1.182   1.587   4.895 -0.1041 -0.0086 -0.5062
 2313poe     o210466   1.053   1.639   4.870 -0.3684 -0.2131  0.3956
 2313poe    c2310467   0.960   1.537   4.839 -0.0811 -0.2818 -0.2625
 2313poe    c2310468   0.817   1.575   4.882  0.0737  0.0230 -0.0045
 2313poe     o210469   0.790   1.708   4.843 -0.3364 -0.0653 -0.0316
 2313poe    c2310470   0.663   1.756   4.878 -0.1032  0.2749  0.3533
 2313poe    c2310471   0.643   1.891   4.807 -0.1414  0.0844  0.0024
 2313poe     o210472   0.732   1.984   4.864  0.0447 -0.0270 -0.1032
 2313poe    c2310473   0.680   2.115   4.855 -0.5821 -0.2068  0.6987
 2313poe    c2310474   0.778   2.205   4.933 -0.0798 -0.8348  0.8001
 2313poe     o210475   0.909   2.160   4.910  0.0280 -0.1964  0.1533
 2313poe    c3110476   1.004   2.264   4.914  0.2305 -0.3499 -0.4226
 2314poe    c3110477   6.474   3.179   3.484  0.5727  0.1262 -0.4066
 2314poe     o210478   6.437   3.301   3.425 -0.5245 -0.2607 -0.5354
 2314poe    c2310479   6.358   3.372   3.518 -0.6698 -0.3722 -0.5738
 2314poe    c2310480   6.342   3.516   3.466 -0.1096 -0.1572 -0.1513
 2314poe     o210481   6.457   3.591   3.432 -0.1367  0.1068  0.3289
 2314poe    c2310482   6.409   3.701   3.357 -0.0412 -0.3817 -0.4626
 2314poe    c2310483   6.512   3.772   3.268 -0.0246  0.1751 -0.0054
 2314poe     o210484   6.512   3.698   3.148  0.2590 -0.0984  0.1627
 2314poe    c2310485   6.523   3.771   3.028 -0.1529 -0.2331  0.0423
 2314poe    c2310486   6.568   3.677   2.914  0.4755  0.0707  0.0352
 2314poe     o210487   6.688   3.605   2.934  0.2961 -0.3346 -0.3413
 2314poe    c3110488   6.682   3.499   2.842 -0.5600 -0.0809 -0.5963
 2315poe    c3110489   6.142   4.635   3.769 -0.3164  0.0163 -0.5643
 2315poe     o210490   6.015   4.625   3.829 -0.0698 -0.0355 -0.0421
 2315poe    c2310491   5.957   4.753   3.840  0.0684 -0.0360  0.7448
 2315poe    c2310492   5.823   4.759   3.915 -0.2235 -0.0712  0.2262
 2315poe     o210493   5.727   4.674   3.855 -0.0017 -0.1084 -0.0806
 2315poe    c2310494   5.613   4.659   3.937  0.1767  0.1257  0.2128
 2315poe    c2310495   5.551   4.520   3.918  0.5167  0.0148 -0.0990
 2315poe     o210496   5.530   4.509   3.780  0.1032  0.1362 -0.0462
 2315poe    c2310497   5.485   4.378   3.750 -0.1588  0.1421  0.3178
 2315poe    c2310498   5.503   4.350   3.600 -0.1127  0.1571  0.3204
 2315poe     o210499   5.622   4.410   3.555 -0.1378 -0.1727 -0.1990
 2315poe    c3110500   5.645   4.349   3.430 -0.1149 -0.2513 -0.1562
 2316poe    c3110501   0.617   3.166   1.240  0.1219  0.9595 -0.1628
 2316poe     o210502   0.660   3.293   1.283  0.1761  0.7301  0.4662
 2316poe    c2310503   0.747   3.292   1.394  0.0936  0.2374  0.5308
 2316poe    c2310504   0.826   3.424   1.409  0.1991  0.1887  0.4080
 2316poe     o210505   0.893   3.447   1.287  0.4452  0.6320  0.6236
 2316poe    c2310506   0.984   3.550   1.319  0.2815  0.8447  0.4098
 2316poe    c2310507   1.059   3.593   1.193 -0.1334  0.1350 -0.0896
 2316poe     o210508   1.135   3.487   1.139 -0.4740  0.0181 -0.3418
 2316poe    c2310509   1.173   3.531   1.010 -0.4820 -0.3392 -0.4678
 2316poe    c2310510   1.206   3.397   0.942 -0.4556 -0.4081 -0.3207
 2316poe     o210511   1.095   3.311   0.932 -0.2635 -0.6840 -0.0783
 2316poe    c3110512   1.129   3.205   0.846  0.2959 -0.3488 -0.2784
 2317poe    c3110513   5.720   5.847   6.600  0.1173 -0.2076  0.2725
 2317poe     o210514   5.720   5.745   6.697  0.3272 -0.4308  0.0384
 2317poe    c2310515   5.743   5.804   6.823  0.1024  0.1343 -0.1827
 2317poe    c2310516   5.615   5.851   6.893 -0.2250  0.2179 -0.8270
 2317poe     o210517   5.549   5.727   6.905  0.3956 -0.0588 -0.1808
 2317poe    c2310518   5.421   5.739   6.964  0.4347 -0.2856 -0.0494
 2317poe    c2310519   5.328   5.617   6.953  0.0905 -0.0566  0.2828
 2317poe     o210520   5.388   5.505   7.016 -0.1038 -0.0973  0.3969
 2317poe    c2310521   5.298   5.397   7.023 -0.7463  0.4443  0.5367
 2317poe    c2310522   5.352   5.256   7.052 -0.0657  0.5147 -0.3457
 2317poe     o210523   5.460   5.220   6.969  0.1564 -0.3599  0.3095
 2317poe    c3110524   5.402   5.132   6.874 -0.4736 -0.0319  0.3823
 2318poe    c3110525   0.754   0.160   5.891  0.0775  0.8394  0.4653
 2318poe     o210526   0.841   0.175   5.781 -0.1561 -0.7983  0.0305
 2318poe    c2310527   0.972   0.139   5.819  0.0290 -0.1407  0.0313
 2318poe    c2310528   1.079   0.215   5.739  0.2344 -0.3904  0.0674
 2318poe     o210529   1.089   0.178   5.604 -0.3869  0.1900 -0.1452
 2318poe    c2310530   1.174   0.273   5.544 -0.1132 -0.0138 -0.0848
 2318poe    c2310531   1.181   0.266   5.390 -1.1801  0.0319 -0.1461
 2318poe     o210532   1.236   0.140   5.358 -0.0697  0.4372  0.1055
 2318poe    c2310533   1.261   0.136   5.219 -1.0043 -0.1126 -0.0562
 2318poe    c2310534   1.307  -0.006   5.184 -0.5171  0.1378 -0.4392
 2318poe     o210535   1.224  -0.111   5.228 -0.0474 -0.0592 -0.0159
 2318poe    c3110536   1.300  -0.223   5.188  0.3177  0.1313  0.1356
 2319poe    c3110537   2.976   0.093   4.847  0.2196  0.3300 -0.5410
 2319poe     o210538   2.910   0.202   4.908 -0.3612 -0.2003 -0.2048
 2319poe    c2310539   2.771   0.185   4.909 -0.4105  0.1910  0.0124
 2319poe    c2310540   2.708   0.286   5.007  0.0861  0.1435  0.3820
 2319poe     o210541   2.754   0.416   4.975  0.8307 -0.2572 -0.2264
 2319poe    c2310542   2.661   0.520   4.996  0.8451 -0.1553 -0.6508
 2319poe    c2310543   2.739   0.646   4.952  0.0351  0.4653 -0.3286
 2319poe     o210544   2.877   0.635   4.976 -0.0100 -0.2491 -0.3606
 2319poe    c2310545   2.932   0.755   5.027 -0.7577 -0.1022  0.1117
 2319poe    c2310546   3.014   0.743   5.157 -0.1466  0.2283 -0.2401
 2319poe     o210547   3.133   0.668   5.145 -0.6085 -0.5688  0.0826
 2319poe    c3110548   3.206   0.671   5.265  0.2115 -0.0426 -0.4222
 2320poe    c3110549   5.868   1.963   2.830  0.8345 -0.5297  0.1347
 2320poe     o210550   5.749   1.889   2.844  0.2305  0.2882 -0.5846
 2320poe    c2310551   5.787   1.753   2.833 -0.1239  0.1351  0.0676
 2320poe    c2310552   5.681   1.694   2.738 -0.0917  0.1885 -0.0012
 2320poe     o210553   5.561   1.652   2.800  0.0656 -0.3268 -0.0383
 2320poe    c2310554   5.449   1.631   2.718 -0.0060 -0.2460  0.0386
 2320poe    c2310555   5.379   1.765   2.687  0.4208  0.1439  0.7488
 2320poe     o210556   5.308   1.821   2.795 -0.5377 -0.3733  0.4023
 2320poe    c2310557   5.280   1.959   2.784 -0.7273 -0.4654 -0.3453
 2320poe    c2310558   5.216   1.989   2.921 -0.0851  0.3923 -0.2227
 2320poe     o210559   5.296   1.977   3.037 -0.3790 -0.2372 -0.0829
 2320poe    c3110560   5.223   2.021   3.149  0.2952 -0.2200  0.3530
 2321poe    c3110561   3.629   3.612   4.318 -0.1232  0.3209  0.1980
 2321poe     o210562   3.539   3.689   4.394 -0.0684  0.0145  0.5778
 2321poe    c2310563   3.463   3.775   4.311  0.7595  0.6078  0.4213
 2321poe    c2310564   3.373   3.852   4.409 -0.7632  0.0533 -0.5104
 2321poe     o210565   3.314   3.764   4.503 -0.0195 -0.1514 -0.2323
 2321poe    c2310566   3.215   3.822   4.585  0.2274 -0.0503 -0.0036
 2321poe    c2310567   3.156   3.723   4.688 -0.2325 -0.6834 -0.8643
 2321poe     o210568   3.270   3.673   4.753  0.0977  0.6146 -0.4183
 2321poe    c2310569   3.226   3.641   4.883  0.6880 -0.5583 -0.4947
 2321poe    c2310570   3.342   3.588   4.969  0.7135  0.5933  0.2022
 2321poe     o210571   3.407   3.482   4.901  0.2721  0.2439  0.3187
 2321poe    c3110572   3.527   3.452   4.968 -0.0455  0.0800  0.8217
 2322poe    c3110573   2.160   3.989   0.114  0.8458 -0.4999 -0.4096
 2322poe     o210574   2.245   4.001   0.226  0.2694 -0.2697  0.0098
 2322poe    c2310575   2.359   4.078   0.196 -0.1847  0.6654  0.6218
 2322poe    c2310576   2.459   4.048   0.309  0.1857  0.4614  0.2438
 2322poe     o210577   2.451   4.108   0.437 -0.0177 -0.2248  0.5567
 2322poe    c2310578   2.478   4.246   0.429  0.1950 -0.2742  0.4043
 2322poe    c2310579   2.454   4.319   0.563 -0.6530 -0.2833  0.2578
 2322poe     o210580   2.538   4.273   0.666 -0.5032  0.0188  0.2718
 2322poe    c2310581   2.512   4.341   0.787 -0.3398  0.0595  0.2843
 2322poe    c2310582   2.617   4.319   0.897 -0.1150 -0.2237  0.0147
 2322poe     o210583   2.606   4.200   0.972  0.5660 -0.1976  0.1580
 2322poe    c3110584   2.517   4.184   1.080  0.3265  0.1000  0.0062
 2323poe    c3110585   5.985   5.999   4.121 -0.5055 -0.2761 -0.0721
 2323poe     o210586   5.912   5.897   4.184 -0.1761 -0.5926 -0.2018
 2323poe    c2310587   5.994   5.812   4.261  0.2103 -0.2541 -0.2401
 2323poe    c2310588   5.940   5.698   4.349  0.3476  0.4781  0.8161
 2323poe     o210589   5.859   5.731   4.459 -0.1597  0.4665  0.4531
 2323poe    c2310590   5.771   5.633   4.509  0.0590  0.1614  0.2388
 2323poe    c2310591   5.675   5.561   4.413  0.3533  0.1111 -0.0180
 2323poe     o210592   5.741   5.468   4.329  0.1576 -0.1597  0.1286
 2323poe    c2310593   5.662   5.414   4.225 -0.1698 -0.3983  0.4949
 2323poe    c2310594   5.682   5.264   4.197  0.5422 -0.2259  0.0519
 2323poe     o210595   5.637   5.204   4.316 -0.3226  0.6036  0.1518
 2323poe    c3110596   5.708   5.088   4.355  0.5094  0.9595 -0.2858
 2324poe    c3110597   0.416   6.748   6.062 -0.1924 -0.3666  0.3634
 2324poe     o210598   0.339   6.834   5.981  0.0094 -0.1174  0.4371
 2324poe    c2310599   0.208   6.845   6.031 -0.3808 -0.3452 -0.5274
 2324poe    c2310600   0.130   6.961   5.966 -0.0450  0.1334 -0.0798
 2324poe     o210601   0.184   7.084   6.009  0.3390 -0.1718  0.3080
 2324poe    c2310602   0.080   7.178   6.023  0.3847 -0.0759 -0.0016
 2324poe    c2310603   0.138   7.308   6.083  0.2042 -0.0894  0.2022
 2324poe     o210604   0.220   7.361   5.981 -0.3269  0.1093 -0.1304
 2324poe    c2310605   0.291   7.476   6.020  0.1665 -0.1574 -0.2259
 2324poe    c2310606   0.350   7.533   5.890 -0.8356  0.4377 -0.4334
 2324poe     o210607   0.396   7.427   5.809  0.5604  0.5026  0.2318
 2324poe    c3110608   0.435   7.494   5.692  0.3148  0.0171 -0.1350
 2325poe    c3110609   1.791   3.307   6.783  0.5219  0.3682  0.3275
 2325poe     o210610   1.816   3.172   6.752 -0.2753  0.4063 -0.5404
 2325poe    c2310611   1.798   3.155   6.614  0.5779  0.3722 -0.6566
 2325poe    c2310612   1.807   3.008   6.569 -0.2362 -0.0866  0.6195
 2325poe     o210613   1.936   2.954   6.591 -0.0407  0.1504  0.0915
 2325poe    c2310614   1.935   2.813   6.588 -0.0792  0.1471  0.2243
 2325poe    c2310615   2.081   2.766   6.586 -0.3080 -0.5693 -0.0379
 2325poe     o210616   2.142   2.806   6.706  0.1670 -0.4025 -0.3296
 2325poe    c2310617   2.278   2.768   6.705  0.2851 -0.0125  0.2125
 2325poe    c2310618   2.343   2.786   6.843  0.1844  0.1843  0.2332
 2325poe     o210619   2.290   2.907   6.893  0.1452  0.2329  0.0754
 2325poe    c3110620   2.392   2.968   6.969  0.1667 -0.3117  0.4878
 2326poe    c3110621   6.789   1.463   4.185 -0.6905 -0.1377  0.0339
 2326poe     o210622   6.798   1.457   4.325  0.1493  0.1067 -0.0036
 2326poe    c2310623   6.675   1.444   4.394 -0.0521 -0.2773 -0.4297
 2326poe    c2310624   6.699   1.415   4.543  0.6476 -0.3193 -0.5454
 2326poe     o210625   6.785   1.517   4.589 -0.3219  0.2501  0.0297
 2326poe    c2310626   6.843   1.485   4.714 -0.1977  0.2097 -0.0393
 2326poe    c2310627   6.935   1.602   4.755 -0.0067  0.1112 -0.1852
 2326poe     o210628   7.021   1.640   4.650  0.2647  0.0293  0.0032
 2326poe    c2310629   7.103   1.749   4.685  0.1587  0.0057  0.3275
 2326poe    c2310630   7.203   1.777   4.572  0.0231 -0.2368  0.1459
 2326poe     o210631   7.138   1.774   4.446 -0.5128  1.4449  0.3516
 2326poe    c3110632   7.234   1.788   4.344 -0.3978 -0.6083  0.1375
 2327poe    c3110633   3.200   1.410   3.217  0.1111 -0.6284  0.0178
 2327poe     o210634   3.209   1.453   3.352  0.2157  0.1943 -0.2429
 2327poe    c2310635   3.318   1.536   3.384  0.2779 -0.0964  0.3070
 2327poe    c2310636   3.300   1.557   3.536 -0.1998  0.1034  0.2271
 2327poe     o210637   3.177   1.620   3.564 -0.1819  0.4216 -0.3809
 2327poe    c2310638   3.150   1.604   3.702  0.3507  0.1843 -0.2991
 2327poe    c2310639   3.023   1.690   3.714  0.3434  0.2158 -0.5904
 2327poe     o210640   2.910   1.650   3.640  0.1115  0.4974 -0.3904
 2327poe    c2310641   2.787   1.715   3.665  0.0604  0.3581 -0.2829
 2327poe    c2310642   2.703   1.694   3.537 -0.6342  0.1140  0.2017
 2327poe     o210643   2.781   1.730   3.425 -0.4741 -0.1706  0.2218
 2327poe    c3110644   2.695   1.761   3.318 -0.3994 -0.0958  0.1829
 2328poe    c3110645   6.009   1.652   6.170  0.5841  0.1848 -0.0064
 2328poe     o210646   6.063   1.531   6.216  0.4812  0.1434  0.0054
 2328poe    c2310647   5.987   1.476   6.322  0.1528  0.2245 -0.1856
 2328poe    c2310648   6.052   1.348   6.377  0.1055  0.0689 -0.4913
 2328poe     o210649   6.176   1.376   6.439 -0.0597 -0.1367 -0.0607
 2328poe    c2310650   6.210   1.263   6.517  0.5556  0.1877  0.1476
 2328poe    c2310651   6.356   1.279   6.562  0.8100  0.0578 -0.6117
 2328poe     o210652   6.367   1.415   6.596 -0.0113 -0.1610  0.6180
 2328poe    c2310653   6.494   1.455   6.642  0.2225  0.3785 -0.4631
 2328poe    c2310654   6.486   1.608   6.662 -0.5229  0.3094 -0.2302
 2328poe     o210655   6.428   1.670   6.549 -0.0568 -0.1633 -0.7360
 2328poe    c3110656   6.427   1.809   6.571  0.7745 -0.2984  0.2569
 2329poe    c3110657   5.414   4.519   6.153 -0.0773 -0.6135  0.5106
 2329poe     o210658   5.498   4.507   6.265  0.2577  0.4509  0.3869
 2329poe    c2310659   5.604   4.599   6.250  0.4307  0.1011 -0.5651
 2329poe    c2310660   5.698   4.574   6.370 -0.3131 -0.0756 -0.0128
 2329poe     o210661   5.761   4.448   6.372 -0.3927 -0.1125  0.1579
 2329poe    c2310662   5.854   4.438   6.478 -0.3041 -0.6815  0.0284
 2329poe    c2310663   5.909   4.298   6.509  0.1688 -0.4280  0.3367
 2329poe     o210664   5.806   4.204   6.524 -0.2882  0.0232  0.0568
 2329poe    c2310665   5.772   4.144   6.401 -0.2658 -0.0488  0.0858
 2329poe    c2310666   5.631   4.176   6.349  0.0124  0.3367 -0.4365
 2329poe     o210667   5.593   4.104   6.234 -0.4411 -0.6269  0.3073
 2329poe    c3110668   5.460   4.142   6.210 -0.3218 -0.2176  0.2854
 2330poe    c3110669   2.131   3.704   1.995  0.0582  0.4629 -0.4523
 2330poe     o210670   2.129   3.774   1.873 -0.0430 -0.1022 -0.7756
 2330poe    c2310671   2.074   3.899   1.907 -0.3256 -0.4365  0.0103
 2330poe    c2310672   2.138   4.021   1.839 -0.4958 -0.5171 -0.2991
 2330poe     o210673   2.123   4.028   1.699 -0.4615  0.0303 -0.2780
 2330poe    c2310674   2.227   4.100   1.636 -0.4795  0.0370 -0.2994
 2330poe    c2310675   2.211   4.100   1.483 -0.5868  0.2603 -0.2888
 2330poe     o210676   2.234   3.971   1.432 -0.8701  0.0366  0.1425
 2330poe    c2310677   2.195   3.957   1.297  0.0107  0.0942 -0.1273
 2330poe    c2310678   2.190   3.814   1.241 -0.2210 -0.0189  0.1788
 2330poe     o210679   2.080   3.746   1.300 -0.1506 -0.5062 -0.2433
 2330poe    c3110680   2.031   3.635   1.228 -0.4703 -0.9303  0.6209
 2331poe    c3110681   2.659   3.511   4.119  0.1332  0.2340 -0.1181
 2331poe     o210682   2.571   3.402   4.103 -0.1149  0.3919  0.1634
 2331poe    c2310683   2.505   3.397   3.978  0.0128 -0.1093  0.1153
 2331poe    c2310684   2.386   3.494   3.981 -0.0740 -0.2196  0.2362
 2331poe     o210685   2.319   3.473   4.104 -0.0810  0.1382  0.2945
 2331poe    c2310686   2.209   3.560   4.106 -0.0272  0.2142  0.0597
 2331poe    c2310687   2.117   3.527   4.226  0.4491 -0.5876  0.2056
 2331poe     o210688   2.014   3.432   4.212 -0.2922  0.2301  0.0829
 2331poe    c2310689   1.956   3.417   4.340  0.0146 -0.7902  0.1107
 2331poe    c2310690   1.834   3.323   4.343 -0.8199  0.2621 -0.2756
 2331poe     o210691   1.886   3.196   4.312 -0.1893  0.3689  0.3315
 2331poe    c3110692   1.803   3.083   4.331  0.3192  0.0055  0.4130
 2332poe    c3110693   5.425   0.045   6.612  0.3063 -0.1360 -0.3383
 2332poe     o210694   5.371   0.168   6.571  0.7683  0.0413 -0.4200
 2332poe    c2310695   5.260   0.205   6.650  0.7302  0.1969 -0.5452
 2332poe    c2310696   5.196   0.337   6.604  0.5832  0.0730 -0.6962
 2332poe     o210697   5.281   0.449   6.604  0.2806  0.3048 -0.4654
 2332poe    c2310698   5.198   0.561   6.583 -0.3444 -0.0460  0.1097
 2332poe    c2310699   5.288   0.673   6.528 -0.7228  0.1149 -0.1929
 2332poe     o210700   5.367   0.617   6.425 -0.3281  0.0437  0.1444
 2332poe    c2310701   5.435   0.707   6.341 -0.4079 -0.3884 -0.3873
 2332poe    c2310702   5.554   0.627   6.285  0.1596 -0.0735  0.3381
 2332poe     o210703   5.625   0.557   6.384  0.5863  0.1919  0.2190
 2332poe    c3110704   5.738   0.498   6.324  0.0187 -0.6738 -0.0010
 2333poe    c3110705   4.381   1.286   1.038  0.3820 -0.1508 -0.2440
 2333poe     o210706   4.377   1.146   1.054 -0.2622 -0.1000  0.0593
 2333poe    c2310707   4.300   1.087   1.156  0.3356 -0.2994  0.4012
 2333poe    c2310708   4.147   1.078   1.140  0.3374  0.0594  0.1693
 2333poe     o210709   4.112   1.021   1.015 -0.6977  0.0154  0.4684
 2333poe    c2310710   3.981   1.070   1.003 -0.5381  0.3796  0.1909
 2333poe    c2310711   3.907   0.957   0.928 -0.0421  0.2168 -0.0587
 2333poe     o210712   3.987   0.930   0.815  0.4662  0.1906  0.3060
 2333poe    c2310713   3.932   0.824   0.740  0.5723 -0.0181  0.5232
 2333poe    c2310714   4.037   0.803   0.630  0.0311  0.2046 -0.0396
 2333poe     o210715   4.161   0.818   0.695  0.1022  0.0558 -0.1415
 2333poe    c3110716   4.254   0.805   0.590  0.5875  0.4040  0.2369
 2334poe    c3110717   1.648   6.598   3.983 -0.0134  0.1600 -0.3951
 2334poe     o210718   1.625   6.484   4.063  0.6805  0.2390 -0.0742
 2334poe    c2310719   1.734   6.397   4.040  0.4890 -0.0060 -0.0532
 2334poe    c2310720   1.731   6.273   4.131 -0.6678  0.0134 -0.0491
 2334poe     o210721   1.594   6.256   4.160 -0.6765 -0.3973 -0.3248
 2334poe    c2310722   1.567   6.154   4.253  0.2389  0.0287  0.4117
 2334poe    c2310723   1.416   6.129   4.249  0.2174  0.2040  0.1575
 2334poe     o210724   1.346   6.251   4.252  0.2507  0.2434 -0.5396
 2334poe    c2310725   1.206   6.249   4.234  0.1848 -0.0922  0.0164
 2334poe    c2310726   1.139   6.388   4.242  0.0720 -0.1277 -0.3283
 2334poe     o210727   1.180   6.455   4.125  0.1612 -0.3957 -0.4537
 2334poe    c3110728   1.158   6.593   4.145  0.9464 -0.3490  0.1529
 2335poe    c3110729   2.909   1.588   5.202  0.0337  0.4518 -0.3819
 2335poe     o210730   2.936   1.698   5.286  0.0727 -0.0041  0.2152
 2335poe    c2310731   2.936   1.674   5.425  0.3081 -0.2914  0.1675
 2335poe    c2310732   2.922   1.812   5.493  0.8636 -0.0904 -0.1193
 2335poe     o210733   3.005   1.901   5.423  0.3103  0.1803 -0.4376
 2335poe    c2310734   3.039   2.011   5.505  1.0810 -0.4948  0.1604
 2335poe    c2310735   3.102   2.118   5.414 -0.0007  0.0571  0.0544
 2335poe     o210736   3.214   2.079   5.339  0.0567 -0.3684  0.3603
 2335poe    c2310737   3.277   2.189   5.279 -0.0211 -0.6646 -0.2733
 2335poe    c2310738   3.258   2.191   5.126 -0.2848  0.0295 -0.2361
 2335poe     o210739   3.322   2.087   5.055 -0.1260 -0.1501  0.1637
 2335poe    c3110740   3.280   2.089   4.920  0.3466  0.6314  0.0220
 2336poe    c3110741   1.485   2.587   4.428 -0.4817 -0.4556  0.7230
 2336poe     o210742   1.444   2.483   4.342 -0.1656 -0.0494  0.0773
 2336poe    c2310743   1.390   2.530   4.220 -0.4000  0.0727  0.2301
 2336poe    c2310744   1.376   2.406   4.131  0.2209  0.3511 -0.2560
 2336poe     o210745   1.490   2.323   4.141  0.1334  0.2604 -0.0222
 2336poe    c2310746   1.474   2.187   4.107  0.4677  0.1391  0.3012
 2336poe    c2310747   1.615   2.126   4.110  0.3981 -0.0672 -0.4227
 2336poe     o210748   1.664   2.164   4.237 -0.0950 -0.3077 -0.1583
 2336poe    c2310749   1.782   2.092   4.268 -0.3365 -0.4965  0.3304
 2336poe    c2310750   1.881   2.153   4.368 -0.3751  0.0876  0.0151
 2336poe     o210751   1.821   2.183   4.492 -0.1189 -0.0937  0.1845
 2336poe    c3110752   1.916   2.219   4.590  0.1195 -0.7045  0.1820
 2337poe    c3110753   3.508   1.925   5.636 -0.1021  0.1275 -0.4066
 2337poe     o210754   3.449   1.797   5.632 -0.5416  0.3243 -0.2416
 2337poe    c2310755   3.335   1.802   5.715 -0.8040  0.1864 -0.5963
 2337poe    c2310756   3.235   1.687   5.692 -0.0688 -0.4847 -0.4700
 2337poe     o210757   3.268   1.556   5.730 -0.0595 -0.3890 -0.1496
 2337poe    c2310758   3.171   1.460   5.692 -0.2524 -0.0511 -0.5127
 2337poe    c2310759   3.238   1.334   5.635  0.2713  0.0745 -0.1910
 2337poe     o210760   3.238   1.342   5.494  0.4366  0.3055 -0.1775
 2337poe    c2310761   3.290   1.227   5.431 -0.3707 -0.2717  0.1875
 2337poe    c2310762   3.254   1.213   5.282  0.4246  0.4480 -0.0834
 2337poe     o210763   3.120   1.171   5.270  0.2895  0.9035 -0.1946
 2337poe    c3110764   3.093   1.122   5.140 -0.1112 -0.1515  0.2692
 2338poe    c3110765   5.518   5.664   5.535 -0.0654  0.9655  0.4102
 2338poe     o210766   5.436   5.680   5.649 -0.6026  0.6942  0.0650
 2338poe    c2310767   5.299   5.657   5.623 -0.4973  0.1592 -0.0326
 2338poe    c2310768   5.202   5.689   5.738  0.2596  0.0571  0.6447
 2338poe     o210769   5.235   5.634   5.863 -0.0247 -0.1530  0.6285
 2338poe    c2310770   5.127   5.647   5.954 -0.6648  0.0940 -0.1515
 2338poe    c2310771   5.172   5.598   6.093 -0.3470  0.0357 -0.2731
 2338poe     o210772   5.275   5.683   6.137 -0.5212  0.0673  0.0775
 2338poe    c2310773   5.314   5.639   6.265  0.1132  0.2653 -0.0455
 2338poe    c2310774   5.396   5.743   6.343  0.2617  0.3369 -0.2926
 2338poe     o210775   5.320   5.861   6.358 -0.4065 -0.1676  0.3917
 2338poe    c3110776   5.393   5.971   6.409  0.6701 -0.7249  0.0905
 2339poe    c3110777   5.733   0.239   3.948 -0.4836  0.4269  0.3179
 2339poe     o210778   5.687   0.364   3.900  0.0576  0.4681 -0.1025
 2339poe    c2310779   5.696   0.465   3.998  0.2749  0.1489  0.2068
 2339poe    c2310780   5.637   0.586   3.925 -0.0654  0.0344  0.2899
 2339poe     o210781   5.726   0.604   3.817 -0.0094 -0.5330  0.2419
 2339poe    c2310782   5.671   0.694   3.724 -0.1087 -0.6136  0.2225
 2339poe    c2310783   5.759   0.700   3.598 -0.6324 -0.2377 -0.1302
 2339poe     o210784   5.733   0.601   3.501 -0.0612 -0.5026 -0.0147
 2339poe    c2310785   5.735   0.654   3.370  0.7839 -0.4931 -0.0021
 2339poe    c2310786   5.716   0.548   3.260 -0.2097  0.5217 -0.8217
 2339poe     o210787   5.824   0.460   3.238 -0.4516 -0.1595  0.5521
 2339poe    c3110788   5.789   0.364   3.141 -0.0499  0.7736 -0.5504
 2340poe    c3110789   6.028   6.799   7.048 -0.0269  0.0357  0.1329
 2340poe     o210790   6.003   6.686   7.130 -0.4792  0.2570  0.3009
 2340poe    c2310791   5.890   6.710   7.211 -0.6190 -0.2466  0.2547
 2340poe    c2310792   5.862   6.618   7.331  0.3921 -0.6184  0.2096
 2340poe     o210793   5.834   6.492   7.274  0.0867 -0.2725 -0.4179
 2340poe    c2310794   5.802   6.397   7.373 -0.1386 -0.0164 -0.2447
 2340poe    c2310795   5.748   6.267   7.309 -0.2045  0.2605 -0.7536
 2340poe     o210796   5.837   6.204   7.220  0.1228  0.0022 -0.2500
 2340poe    c2310797   5.930   6.128   7.294  0.0572  0.7863  0.6514
 2340poe    c2310798   6.042   6.056   7.218 -0.2754  0.5424  0.3880
 2340poe     o210799   6.116   6.159   7.155  0.0790 -0.0668 -0.2028
 2340poe    c3110800   6.184   6.107   7.042  0.2273 -0.6649  0.1561
 2341poe    c3110801   4.464   0.930   6.371 -0.4478 -0.2595  0.6424
 2341poe     o210802   4.464   0.793   6.402  0.2137 -0.2192  0.8387
 2341poe    c2310803   4.516   0.720   6.294  0.2036  0.6647  0.2339
 2341poe    c2310804   4.421   0.681   6.179  0.3883 -0.1745  0.3620
 2341poe     o210805   4.320   0.591   6.218  0.0053  0.2530  0.3610
 2341poe    c2310806   4.237   0.546   6.113  0.0243  0.4094  0.2785
 2341poe    c2310807   4.096   0.505   6.158  0.1114  0.6433  0.7671
 2341poe     o210808   4.097   0.408   6.260 -0.2392 -0.1523  0.0204
 2341poe    c2310809   3.962   0.373   6.282 -0.3216  0.0790 -0.1211
 2341poe    c2310810   3.943   0.264   6.389 -0.7959  0.1931 -0.0852
 2341poe     o210811   4.011   0.141   6.379 -0.5830  0.2677  0.4327
 2341poe    c3110812   3.978   0.061   6.490 -0.4417  0.0051  0.2856
 2342poe    c3110813   6.985   2.321   6.033 -0.2093 -0.0703  0.2303
 2342poe     o210814   7.062   2.204   6.021 -0.4506 -0.2097  0.0272
 2342poe    c2310815   7.146   2.185   6.132  0.0068  0.1428 -0.2585
 2342poe    c2310816   7.237   2.066   6.097 -0.2387  0.0331 -0.5225
 2342poe     o210817   7.265   2.058   5.959  0.1282 -0.0440 -0.4443
 2342poe    c2310818   7.361   1.964   5.918  0.4968 -0.1672  0.6605
 2342poe    c2310819   7.350   1.939   5.766 -0.3387  0.5886  0.5914
 2342poe     o210820   7.220   1.895   5.734 -0.1275  0.7467 -0.5177
 2342poe    c2310821   7.191   1.872   5.598  0.1994 -0.3303 -0.4178
 2342poe    c2310822   7.079   1.771   5.568 -0.1441 -0.1879  0.3563
 2342poe     o210823   7.114   1.646   5.624  0.2138 -0.0332  0.4800
 2342poe    c3110824   7.008   1.556   5.601  0.2527  0.0670 -0.0961
 2343poe    c3110825   5.886   5.108   1.466 -0.4731  0.3630  0.2943
 2343poe     o210826   5.891   5.061   1.599  0.0002 -1.0109 -0.1980
 2343poe    c2310827   5.989   4.960   1.610  0.8232 -0.2722 -0.6075
 2343poe    c2310828   6.022   4.947   1.760 -0.4174  0.2413 -0.2737
 2343poe     o210829   5.897   4.922   1.820 -0.2119  0.2864  0.1835
 2343poe    c2310830   5.913   4.922   1.960  0.1019 -0.0352  0.1498
 2343poe    c2310831   5.785   4.882   2.036 -0.3080  0.2741 -0.3610
 2343poe     o210832   5.672   4.950   1.988 -0.1405  0.7678 -0.0626
 2343poe    c2310833   5.559   4.879   2.034  0.3603  0.0286  0.0375
 2343poe    c2310834   5.442   4.906   1.938  0.3948  0.1014  0.0165
 2343poe     o210835   5.470   4.860   1.808 -0.3576 -0.5412  0.0717
 2343poe    c3110836   5.351   4.845   1.734 -0.2785  0.4282 -0.2658
 2344poe    c3110837   2.873   3.473   4.421 -0.1184  0.1510 -0.2104
 2344poe     o210838   2.834   3.338   4.407  0.0057  0.0160  0.6745
 2344poe    c2310839   2.943   3.262   4.359 -0.2857 -0.0250  0.0633
 2344poe    c2310840   2.897   3.122   4.314 -0.4432  0.1827 -0.4204
 2344poe     o210841   2.846   3.047   4.422  0.7307 -0.3062 -0.1961
 2344poe    c2310842   2.821   2.912   4.392 -0.1163 -0.2008  0.0040
 2344poe    c2310843   2.670   2.886   4.403 -0.2043  0.0983 -0.4724
 2344poe     o210844   2.579   2.953   4.318 -0.4256  0.0248 -0.2935
 2344poe    c2310845   2.465   2.871   4.313 -0.4071 -0.0424  0.3105
 2344poe    c2310846   2.354   2.893   4.418 -0.2318 -0.3289  0.5546
 2344poe     o210847   2.299   3.021   4.399  0.2067 -0.1957  0.1744
 2344poe    c3110848   2.220   3.058   4.510  0.0680  0.8483 -0.2618
 2345poe    c3110849   3.701   6.306   3.076  0.1131  0.2293  0.4563
 2345poe     o210850   3.657   6.383   2.966 -0.8392 -0.1954  0.5362
 2345poe    c2310851   3.575   6.298   2.888 -0.2682  0.1159 -0.4194
 2345poe    c2310852   3.502   6.386   2.784 -0.1064  0.8726  0.0961
 2345poe     o210853   3.587   6.466   2.705  0.2736 -0.0729 -0.4745
 2345poe    c2310854   3.552   6.467   2.569  0.0303 -0.2606 -0.4147
 2345poe    c2310855   3.642   6.555   2.480  0.3104 -0.0684  0.0557
 2345poe     o210856   3.767   6.491   2.483 -0.0374 -0.7509  0.2433
 2345poe    c2310857   3.865   6.586   2.446 -0.2347 -0.3148  0.8237
 2345poe    c2310858   3.901   6.697   2.546  0.1579  0.4939 -0.1944
 2345poe     o210859   3.946   6.645   2.669 -0.6828  0.1170 -0.0375
 2345poe    c3110860   3.996   6.749   2.751  0.1475 -0.0989 -0.2601
 2346poe    c3110861   2.463   7.115   6.926 -0.2059  0.4249 -0.1062
 2346poe     o210862   2.326   7.097   6.902 -0.1688 -0.2504  0.1666
 2346poe    c2310863   2.290   7.111   6.766 -0.1973  0.3999  0.2352
 2346poe    c2310864   2.142   7.082   6.738 -0.2447  0.4140  0.4748
 2346poe     o210865   2.071   7.153   6.838 -0.5480  0.7311  0.0390
 2346poe    c2310866   1.932   7.151   6.818 -0.5461  0.5508  0.0382
 2346poe    c2310867   1.877   7.274   6.893 -1.0643  0.3496 -0.0094
 2346poe     o210868   1.893   7.250   7.030  0.0243  0.1691 -0.1648
 2346poe    c2310869   1.859   7.365   7.104  0.2759  0.2723 -0.2069
 2346poe    c2310870   1.890   7.338   7.253 -0.2862 -0.2961 -0.1851
 2346poe     o210871   2.027   7.327   7.286 -0.2120 -0.0325 -0.3989
 2346poe    c3110872   2.065   7.242   7.392  0.5137 -0.1019 -0.7116
 2347poe    c3110873   5.574   7.092   3.610 -0.5507  0.0915  0.2178
 2347poe     o210874   5.559   7.072   3.471  0.0391  0.2738  0.1294
 2347poe    c2310875   5.657   7.141   3.397  0.2130  0.2413  0.3265
 2347poe    c2310876   5.637   7.137   3.244 -0.0625  0.1468  0.3661
 2347poe     o210877   5.542   7.224   3.186 -0.3659 -0.3218  0.1519
 2347poe    c2310878   5.533   7.200   3.047  0.0746 -0.1318  0.0865
 2347poe    c2310879   5.435   7.298   2.980 -0.1457 -0.5126 -0.1537
 2347poe     o210880   5.303   7.286   3.027 -0.0191 -0.4280  0.2254
 2347poe    c2310881   5.216   7.343   2.932 -0.2043 -0.7215  0.2163
 2347poe    c2310882   5.074   7.360   2.989 -0.2567 -0.2817 -0.0378
 2347poe     o210883   5.012   7.233   2.988 -0.6683 -0.0802 -0.0626
 2347poe    c3110884   4.886   7.225   3.051 -0.4782 -0.0301  0.3267
 2348poe    c3110885   2.592   1.112   5.506 -0.3081 -0.0570 -0.4835
 2348poe     o210886   2.589   1.244   5.457 -0.6982  0.0956 -0.0523
 2348poe    c2310887   2.519   1.257   5.336 -0.5548 -0.4904 -0.1971
 2348poe    c2310888   2.543   1.400   5.285  0.5492 -0.4030  0.5392
 2348poe     o210889   2.552   1.499   5.384 -0.3782 -0.3457  0.5733
 2348poe    c2310890   2.524   1.632   5.347  0.2172 -0.3658  0.0449
 2348poe    c2310891   2.447   1.707   5.457  0.0558  0.3960 -0.5759
 2348poe     o210892   2.516   1.697   5.579 -0.5662  0.1607 -0.2367
 2348poe    c2310893   2.446   1.766   5.680 -0.3258 -0.0647  0.0857
 2348poe    c2310894   2.538   1.809   5.796 -0.2207 -0.1462  0.0335
 2348poe     o210895   2.593   1.937   5.773  0.3838 -0.4775 -0.3952
 2348poe    c3110896   2.671   1.992   5.876 -0.4038 -0.5057  0.2247
 2349poe    c3110897   3.763   5.864   5.969  0.0581  0.1443 -0.5855
 2349poe     o210898   3.626   5.845   5.997  0.2917  0.1012  0.5973
 2349poe    c2310899   3.600   5.714   5.951 -0.2692  0.3333  0.2327
 2349poe    c2310900   3.458   5.679   6.000 -0.2528  0.0824  0.0963
 2349poe     o210901   3.450   5.692   6.140  0.2335 -0.6316  0.1943
 2349poe    c2310902   3.321   5.658   6.184  0.0073 -0.0357 -0.0103
 2349poe    c2310903   3.279   5.721   6.319 -0.2818 -0.2578  0.0034
 2349poe     o210904   3.258   5.860   6.319 -0.1017 -0.2301 -0.3126
 2349poe    c2310905   3.219   5.916   6.442  0.2311  0.1936 -0.3950
 2349poe    c2310906   3.096   6.008   6.425 -0.1772 -0.3476 -0.4120
 2349poe     o210907   3.106   6.131   6.358  0.2322 -0.0280  0.2255
 2349poe    c3110908   2.979   6.185   6.387  0.0841 -0.1760 -0.1393
 2350poe    c3110909   6.179   0.682   3.513  0.2935 -0.3835  0.5894
 2350poe     o210910   6.182   0.790   3.422 -0.1831 -0.7218  0.1725
 2350poe    c2310911   6.072   0.878   3.433  0.6067  0.2806  0.1790
 2350poe    c2310912   6.085   0.999   3.339  0.1396  0.2107  0.0210
 2350poe     o210913   6.186   1.091   3.375  0.3550 -0.0833  0.1764
 2350poe    c2310914   6.165   1.161   3.495  0.2517 -0.1665  0.2074
 2350poe    c2310915   6.286   1.250   3.531  0.4074  0.0056 -0.7207
 2350poe     o210916   6.391   1.161   3.560  0.0944 -0.2071 -0.2306
 2350poe    c2310917   6.499   1.246   3.591 -0.3336  0.1554  0.2942
 2350poe    c2310918   6.637   1.178   3.581 -0.3320  0.2147 -0.0957
 2350poe     o210919   6.664   1.147   3.446 -0.0238  0.7182 -0.1541
 2350poe    c3110920   6.802   1.156   3.416  0.0267 -0.6320 -0.3953
 2351poe    c3110921   5.394   5.066   3.026 -0.7469 -0.2015 -0.3152
 2351poe     o210922   5.456   4.949   3.074  0.5689  0.6178  0.0625
 2351poe    c2310923   5.520   4.876   2.971  0.5217  0.4314  0.1641
 2351poe    c2310924   5.581   4.735   2.985  0.0307  0.1712 -0.3085
 2351poe     o210925   5.703   4.741   3.055 -0.1545  0.5134 -0.0104
 2351poe    c2310926   5.769   4.619   3.034  0.4820  0.6808  0.9341
 2351poe    c2310927   5.836   4.548   3.153  0.3795 -0.7370  0.1778
 2351poe     o210928   5.921   4.635   3.224 -0.3926 -0.1132  0.3633
 2351poe    c2310929   5.987   4.577   3.334 -0.1840 -0.4813  0.0468
 2351poe    c2310930   6.054   4.687   3.418 -0.2289 -0.2628 -0.2042
 2351poe     o210931   6.105   4.763   3.311  0.6132 -0.5165  0.0140
 2351poe    c3110932   6.200   4.851   3.366  0.4316 -0.1173 -0.3055
 2352poe    c3110933   3.739   6.787   4.038 -0.7339  0.0324  0.2455
 2352poe     o210934   3.668   6.846   3.931 -0.3216 -0.1210 -0.1166
 2352poe    c2310935   3.616   6.974   3.956  0.1819  0.1288 -0.3394
 2352poe    c2310936   3.513   6.994   3.843 -0.0853  0.2627 -0.0743
 2352poe     o210937   3.581   6.981   3.720  0.3199  0.0603  0.1681
 2352poe    c2310938   3.484   6.981   3.618  0.3019  0.0662  0.1850
 2352poe    c2310939   3.551   6.935   3.487 -0.1210  0.0020 -0.0126
 2352poe     o210940   3.648   6.839   3.523 -0.2773 -0.0460  0.2818
 2352poe    c2310941   3.734   6.828   3.412 -0.2128  0.0669  0.3203
 2352poe    c2310942   3.841   6.723   3.448  0.0947  0.2480 -0.0618
 2352poe     o210943   3.788   6.593   3.458  0.1502  0.2345  0.0605
 2352poe    c3110944   3.888   6.502   3.497 -0.2445 -0.2901 -0.1288
 2353poe    c3110945   0.141   1.677   3.129 -0.0980 -0.1037  0.5111
 2353poe     o210946   0.028   1.598   3.160 -0.0872  0.0482  0.9412
 2353poe    c2310947  -0.045   1.549   3.050  0.6803 -0.5293  0.6771
 2353poe    c2310948  -0.165   1.458   3.081  0.2639 -0.1144  0.3011
 2353poe     o210949  -0.288   1.521   3.110  0.2830 -0.1357  0.4305
 2353poe    c2310950  -0.343   1.462   3.225  0.1142 -0.3020  0.2650
 2353poe    c2310951  -0.478   1.528   3.259  0.0377 -0.3486  0.0518
 2353poe     o210952  -0.457   1.649   3.329 -0.1333 -0.4000  0.1935
 2353poe    c2310953  -0.570   1.728   3.359  0.0073 -0.3142  0.4935
 2353poe    c2310954  -0.621   1.815   3.243 -0.0849 -0.0952  0.6976
 2353poe     o210955  -0.692   1.741   3.146  0.3756  0.3039  0.0497
 2353poe    c3110956  -0.825   1.715   3.184  0.3760 -0.0610 -0.2029
 2354poe    c3110957   1.506   4.478   1.714 -0.0276  0.2062  0.8803
 2354poe     o210958   1.585   4.514   1.602 -0.3384 -0.4540  0.4453
 2354poe    c2310959   1.559   4.649   1.568  0.6647 -0.2981  0.2903
 2354poe    c2310960   1.652   4.688   1.451 -0.0775  0.2047 -0.1380
 2354poe     o210961   1.661   4.601   1.341  0.6505  0.4327 -0.2623
 2354poe    c2310962   1.755   4.622   1.237  0.2753  0.4234 -0.6045
 2354poe    c2310963   1.899   4.576   1.260  0.0692  0.0173 -0.1134
 2354poe     o210964   1.980   4.621   1.366 -0.0816 -0.1995  0.0965
 2354poe    c2310965   2.013   4.759   1.367 -0.0145 -0.2123 -0.2299
 2354poe    c2310966   2.068   4.784   1.509  0.4111  0.2394 -0.4738
 2354poe     o210967   2.198   4.730   1.514  0.1595 -0.4093 -0.8402
 2354poe    c3110968   2.284   4.812   1.590  0.0797 -0.4796 -0.6725
 2355poe    c3110969   1.670   5.699   0.896  0.7844  0.0229 -0.1148
 2355poe     o210970   1.738   5.783   0.986 -0.2617  0.0867  0.6324
 2355poe    c2310971   1.876   5.768   0.959 -0.2813  0.2811  0.4237
 2355poe    c2310972   1.951   5.853   1.063 -0.1843  0.3934  0.2626
 2355poe     o210973   1.973   5.987   1.025 -0.0792  0.2451 -0.2029
 2355poe    c2310974   1.890   6.080   1.091 -0.7537 -0.5526  0.0913
 2355poe    c2310975   1.946   6.119   1.229 -0.2898 -0.6915 -0.0532
 2355poe     o210976   2.072   6.181   1.222 -0.7569  0.2229 -0.5283
 2355poe    c2310977   2.101   6.226   1.352 -0.3154 -0.3796 -0.4178
 2355poe    c2310978   2.232   6.307   1.364 -0.7148  0.1628  0.3693
 2355poe     o210979   2.233   6.419   1.279  0.1141  0.1571  0.3607
 2355poe    c3110980   2.169   6.533   1.332  0.4315  0.3291  0.3757
 2356poe    c3110981   0.771   1.091   5.699  0.1203 -0.6438  1.0329
 2356poe     o210982   0.875   1.168   5.643 -0.6892  0.1907  0.6443
 2356poe    c2310983   0.958   1.086   5.564 -0.4212  0.6049  0.4929
 2356poe    c2310984   1.086   1.151   5.509 -0.2672 -0.0990  0.0073
 2356poe     o210985   1.180   1.169   5.613 -0.1114 -0.0858 -0.1345
 2356poe    c2310986   1.305   1.212   5.563 -0.0343 -0.1777 -0.0195
 2356poe    c2310987   1.383   1.270   5.682  0.0347 -0.0967 -0.1042
 2356poe     o210988   1.317   1.384   5.733  0.3458 -0.0661  0.2399
 2356poe    c2310989   1.395   1.452   5.829  0.1360  0.1820  0.2355
 2356poe    c2310990   1.307   1.557   5.899 -0.2004 -0.2321  0.4394
 2356poe     o210991   1.182   1.493   5.911 -0.1940 -0.4276 -0.4963
 2356poe    c3110992   1.094   1.566   5.994  0.1931  0.0204 -0.4765
 2357poe    c3110993   5.186   3.008   4.712 -0.2945  0.3481  0.0830
 2357poe     o210994   5.231   3.002   4.846 -0.2467 -0.5624  0.0375
 2357poe    c2310995   5.325   3.105   4.870 -0.4837 -0.4507  0.5136
 2357poe    c2310996   5.349   3.095   5.021 -0.2044  0.1563  0.5100
 2357poe     o210997   5.376   2.961   5.056 -0.5518  0.0496  0.3624
 2357poe    c2310998   5.372   2.936   5.195 -0.1413  0.0111  0.3672
 2357poe    c2310999   5.402   2.788   5.225  0.3235  0.0709  0.2140
 2357poe     o211000   5.328   2.715   5.130  0.2494 -0.1573  0.4466
 2357poe    c2311001   5.356   2.577   5.133  0.2088 -0.1881 -0.4646
 2357poe    c2311002   5.245   2.490   5.071  0.3322 -0.5590 -0.1710
 2357poe     o211003   5.231   2.519   4.934 -0.2214 -0.2106 -0.0460
 2357poe    c3111004   5.138   2.431   4.875 -0.3256  0.1804 -0.4693
 2358poe    c3111005   6.419   6.995   1.376  0.0986  0.4467 -0.0445
 2358poe     o211006   6.347   7.105   1.326 -0.0555  0.4735  0.2371
 2358poe    c2311007   6.369   7.124   1.188 -0.1011 -0.1821  0.1388
 2358poe    c2311008   6.261   7.209   1.119 -0.1309 -0.2187  0.1407
 2358poe     o211009   6.285   7.344   1.152  0.1559 -0.2667  0.1301
 2358poe    c2311010   6.164   7.400   1.198  0.3717  0.1259  0.2236
 2358poe    c2311011   6.208   7.534   1.259 -0.5650  0.2036  0.7473
 2358poe     o211012   6.308   7.535   1.358  0.2459  0.0144 -0.0605
 2358poe    c2311013   6.372   7.660   1.346 -0.1315  0.2895  0.7062
 2358poe    c2311014   6.489   7.700   1.438  0.0417  0.5076  0.3964
 2358poe     o211015   6.613   7.638   1.412 -0.2533  0.2250 -0.3551
 2358poe    c3111016   6.620   7.500   1.438  0.3990  0.3742  0.2928
 2359poe    c3111017   1.323   3.011   5.917  0.2140  0.0048  0.0375
 2359poe     o211018   1.213   2.981   5.835 -0.2374 -0.2868  0.7343
 2359poe    c2311019   1.187   3.094   5.754 -0.1175 -0.4048  0.5291
 2359poe    c2311020   1.076   3.065   5.652  0.0668 -0.2288  0.2788
 2359poe     o211021   0.953   3.043   5.717  0.3809 -0.4422  0.8030
 2359poe    c2311022   0.873   2.961   5.635  0.1759  0.1180  0.4383
 2359poe    c2311023   0.824   2.852   5.732  0.3233 -0.0126  0.3655
 2359poe     o211024   0.765   2.919   5.841  0.1335  0.6940 -0.1649
 2359poe    c2311025   0.734   2.831   5.947  0.0811  0.0912 -0.6778
 2359poe    c2311026   0.643   2.886   6.059  0.2797 -0.3303 -0.3054
 2359poe     o211027   0.708   3.002   6.108 -0.4281 -0.1770  0.2776
 2359poe    c3111028   0.627   3.056   6.210 -0.6447  0.1961 -0.0883
 2360poe    c3111029   5.691   0.771   1.967 -1.0849  0.0870 -0.0604
 2360poe     o211030   5.681   0.875   1.873  0.2205  0.1434 -0.1574
 2360poe    c2311031   5.711   0.819   1.747  0.1663 -0.9255  0.2952
 2360poe    c2311032   5.638   0.889   1.631 -0.2404 -0.5406  0.7808
 2360poe     o211033   5.498   0.883   1.617 -0.1496 -0.1227 -0.4679
 2360poe    c2311034   5.452   0.925   1.491  0.3067 -0.0026 -0.5946
 2360poe    c2311035   5.310   0.983   1.504  0.2501 -0.3387  0.3746
 2360poe     o211036   5.238   0.897   1.589  0.1549 -0.2491  0.3856
 2360poe    c2311037   5.101   0.927   1.600 -0.0083 -0.5963 -0.6216
 2360poe    c2311038   5.038   0.821   1.691 -0.1577  0.0029 -0.0233
 2360poe     o211039   5.125   0.801   1.800 -0.0139 -0.0027 -0.1394
 2360poe    c3111040   5.058   0.786   1.923  0.1603 -0.5700 -0.1103
 2361poe    c3111041   2.521   1.361   1.534  0.0760 -0.2030  0.4148
 2361poe     o211042   2.478   1.493   1.559 -0.5742 -0.2715 -0.2799
 2361poe    c2311043   2.426   1.501   1.690  0.1777  0.2430 -0.0055
 2361poe    c2311044   2.394   1.651   1.706 -0.3504  0.1891 -0.5085
 2361poe     o211045   2.338   1.705   1.589 -0.0403  0.4328 -0.5461
 2361poe    c2311046   2.323   1.845   1.595 -0.8253  0.3307 -0.0262
 2361poe    c2311047   2.254   1.886   1.463 -0.4375 -0.1187 -0.3707
 2361poe     o211048   2.316   1.812   1.361 -0.1888  0.0975 -0.3773
 2361poe    c2311049   2.290   1.873   1.237 -0.4947  0.0379 -0.3412
 2361poe    c2311050   2.341   1.776   1.128  0.5185  0.0423  0.1267
 2361poe     o211051   2.275   1.652   1.113 -0.0018  0.3355 -0.0136
 2361poe    c3111052   2.293   1.595   0.985  0.1572  0.3172  0.0168
 2362poe    c3111053   2.352   5.711   3.618 -0.1359  0.6353 -0.4973
 2362poe     o211054   2.242   5.789   3.580 -0.2631  0.3601 -0.6965
 2362poe    c2311055   2.111   5.741   3.605  0.0701 -0.1744  0.0502
 2362poe    c2311056   2.062   5.801   3.738 -0.3318 -0.0233 -0.1673
 2362poe     o211057   2.037   5.938   3.715  0.1038  0.1000  0.0927
 2362poe    c2311058   1.960   6.013   3.807  0.2061  0.3980 -0.0620
 2362poe    c2311059   1.939   6.162   3.776 -0.2040  0.3697  0.0786
 2362poe     o211060   2.056   6.231   3.815  0.1818 -0.1492 -0.1590
 2362poe    c2311061   2.058   6.355   3.749  0.0482 -0.3405 -0.5217
 2362poe    c2311062   2.110   6.465   3.843 -0.5089 -0.0147 -0.5936
 2362poe     o211063   2.032   6.468   3.961 -0.3352 -0.0507 -0.4778
 2362poe    c3111064   2.018   6.596   4.017 -0.1542 -0.4950  0.6017
 2363poe    c3111065   1.296   7.087   6.199  0.3817  0.2217 -0.2054
 2363poe     o211066   1.343   7.220   6.189  0.4160  0.2717  0.5569
 2363poe    c2311067   1.437   7.214   6.084  0.1167  0.2415  0.2874
 2363poe    c2311068   1.473   7.358   6.045  0.2361  0.1214 -0.0460
 2363poe     o211069   1.354   7.433   6.045 -0.0087 -0.2644 -0.0753
 2363poe    c2311070   1.380   7.571   6.028 -0.6641 -0.1229  0.0592
 2363poe    c2311071   1.253   7.654   5.998 -0.1738  0.5155 -0.2697
 2363poe     o211072   1.143   7.618   6.079  0.6550 -0.7221  0.3433
 2363poe    c2311073   1.021   7.674   6.038  0.7193 -0.4937  0.4584
 2363poe    c2311074   0.908   7.657   6.141  0.1653  0.3087 -0.0014
 2363poe     o211075   0.865   7.523   6.152  0.3579  0.2746  0.3776
 2363poe    c3111076   0.762   7.508   6.248  0.0078 -0.1088 -0.0521
 2364poe    c3111077   0.636   0.300   3.387 -0.3427 -0.1585 -0.2722
 2364poe     o211078   0.514   0.338   3.328 -0.4663  0.1466  0.1727
 2364poe    c2311079   0.507   0.262   3.210  0.0509  0.2362  0.0828
 2364poe    c2311080   0.387   0.306   3.125  0.3508 -0.3329 -0.6569
 2364poe     o211081   0.259   0.264   3.168  0.4604  0.2201  0.2280
 2364poe    c2311082   0.247   0.125   3.155 -0.1728  0.3220 -0.3310
 2364poe    c2311083   0.185   0.043   3.270  0.3862  0.0047 -0.2540
 2364poe     o211084   0.233   0.069   3.400  0.1927 -0.4862 -0.0820
 2364poe    c2311085   0.306  -0.039   3.453  0.0766 -0.3905  0.2757
 2364poe    c2311086   0.321  -0.022   3.605 -0.0577  0.9440  0.1454
 2364poe     o211087   0.207  -0.054   3.682  0.2684 -0.2944  0.1352
 2364poe    c3111088   0.238  -0.047   3.820 -0.0184  0.4412  0.1695
 2365poe    c3111089   5.742   3.001   0.764  0.0204 -0.2009  0.1061
 2365poe     o211090   5.712   2.885   0.689 -0.1942 -0.0120 -0.1018
 2365poe    c2311091   5.831   2.810   0.682  0.0422  0.3994 -0.5793
 2365poe    c2311092   5.794   2.667   0.641  0.8817 -0.0200  0.0828
 2365poe     o211093   5.683   2.611   0.708  0.1115 -0.0261 -1.1751
 2365poe    c2311094   5.641   2.498   0.635  0.0570 -0.7393 -0.0553
 2365poe    c2311095   5.515   2.444   0.705 -0.1557 -0.2058 -0.0211
 2365poe     o211096   5.416   2.543   0.720  0.0169 -0.1417  0.7429
 2365poe    c2311097   5.311   2.496   0.801 -0.4997 -0.8497 -0.3198
 2365poe    c2311098   5.220   2.619   0.815  0.3664 -0.2505  0.1081
 2365poe     o211099   5.302   2.721   0.868  0.4654  0.0195 -0.5528
 2365poe    c3111100   5.219   2.826   0.911  0.1417 -0.3423 -0.2802
 2366poe    c3111101   5.101   2.499   1.300  0.3072 -0.0169 -0.1022
 2366poe     o211102   5.183   2.389   1.332  0.0667 -0.1762 -0.0295
 2366poe    c2311103   5.103   2.274   1.346 -0.6145  0.3149  0.1548
 2366poe    c2311104   5.119   2.198   1.479 -0.1537 -0.0360 -0.1000
 2366poe     o211105   5.253   2.163   1.505 -0.3474 -0.5620  0.2178
 2366poe    c2311106   5.287   2.172   1.641  0.0778  0.0865  0.0771
 2366poe    c2311107   5.434   2.142   1.676  0.1425  0.1296 -0.1615
 2366poe     o211108   5.518   2.241   1.621 -0.1853  0.4489 -0.0931
 2366poe    c2311109   5.646   2.221   1.676 -0.3488  0.0499  0.1461
 2366poe    c2311110   5.725   2.323   1.591 -0.0985 -0.1009  0.1954
 2366poe     o211111   5.651   2.443   1.602 -0.3960 -0.2767  0.1416
 2366poe    c3111112   5.738   2.552   1.586 -0.3024 -0.3217  0.3289
 2367poe    c3111113   1.573   1.330   2.295 -0.2981 -0.0421 -0.7234
 2367poe     o211114   1.653   1.243   2.373 -0.2176  0.6255 -0.0546
 2367poe    c2311115   1.724   1.319   2.468  0.1721  0.2533 -0.0460
 2367poe    c2311116   1.816   1.211   2.528 -0.3675  0.0736  0.4678
 2367poe     o211117   1.754   1.099   2.587 -0.3777 -0.2698 -0.1840
 2367poe    c2311118   1.841   0.989   2.603 -0.1645 -0.0879 -0.0720
 2367poe    c2311119   1.767   0.856   2.628 -0.2950 -0.0551 -0.2788
 2367poe     o211120   1.696   0.819   2.512 -0.5440  0.1001 -0.1755
 2367poe    c2311121   1.684   0.680   2.496 -0.2129  0.0605 -0.0898
 2367poe    c2311122   1.595   0.632   2.380 -0.2596 -0.1570  0.0351
 2367poe     o211123   1.463   0.614   2.428 -0.4618  0.3520 -0.3231
 2367poe    c3111124   1.374   0.533   2.355 -0.1592 -0.0762 -0.2244
 2368poe    c3111125   2.873   0.928   6.129  0.0643 -0.5561 -0.1584
 2368poe     o211126   3.008   0.908   6.167  0.2168 -0.1332 -0.4644
 2368poe    c2311127   3.054   0.793   6.101  0.1575  0.0188 -0.7723
 2368poe    c2311128   3.200   0.751   6.130 -0.0876 -0.5152 -0.3163
 2368poe     o211129   3.238   0.737   6.265 -0.6535  0.2801 -0.0657
 2368poe    c2311130   3.193   0.616   6.323  0.5080  0.0416  0.3582
 2368poe    c2311131   3.282   0.573   6.441 -0.0612 -0.8514  0.4695
 2368poe     o211132   3.302   0.696   6.507  0.7796 -0.4835 -0.4460
 2368poe    c2311133   3.355   0.681   6.637  0.6057 -0.3836 -0.3629
 2368poe    c2311134   3.255   0.641   6.747 -0.1624 -0.5338 -1.1038
 2368poe     o211135   3.155   0.732   6.786  0.3034 -0.3637 -0.2607
 2368poe    c3111136   3.083   0.684   6.897  0.5465  0.0788  0.0910
 2369poe    c3111137   3.017   1.043   1.358  0.0030  0.0776 -0.0847
 2369poe     o211138   2.974   1.107   1.476  0.2651 -0.2515  0.1892
 2369poe    c2311139   2.860   1.044   1.530  0.0787  0.2906  0.4350
 2369poe    c2311140   2.828   1.125   1.657 -0.3962 -0.1472  0.6011
 2369poe     o211141   2.951   1.143   1.724  0.0925  0.0917 -0.3459
 2369poe    c2311142   2.918   1.194   1.851 -0.0651 -0.2114 -0.2632
 2369poe    c2311143   3.039   1.187   1.946 -0.2106  0.2231 -0.0408
 2369poe     o211144   3.142   1.252   1.876  0.0170 -0.4245 -0.3194
 2369poe    c2311145   3.266   1.243   1.944  0.1886 -0.1016 -0.5838
 2369poe    c2311146   3.361   1.345   1.879 -0.1765  0.4873 -0.1941
 2369poe     o211147   3.413   1.303   1.755 -0.2069  0.7647 -0.3020
 2369poe    c3111148   3.541   1.352   1.724  0.1210  0.5902  0.7509
 2370poe    c3111149   3.750   5.677   1.636 -0.0968  0.1633  0.1496
 2370poe     o211150   3.847   5.586   1.590 -0.4597 -0.3157  0.3146
 2370poe    c2311151   3.837   5.563   1.451  0.3421  0.7024  0.0787
 2370poe    c2311152   3.979   5.549   1.391  0.3445 -0.2299  0.2919
 2370poe     o211153   4.054   5.668   1.383 -0.3127  0.2228  0.7440
 2370poe    c2311154   4.154   5.671   1.284 -0.4875  0.0277  0.5579
 2370poe    c2311155   4.266   5.777   1.291 -0.2322 -0.2386  0.5026
 2370poe     o211156   4.229   5.912   1.280  0.5497 -0.0644 -0.1178
 2370poe    c2311157   4.350   5.982   1.272  0.3715  0.1924 -0.6336
 2370poe    c2311158   4.352   6.135   1.251 -0.1293  0.2233 -0.4541
 2370poe     o211159   4.307   6.210   1.362  0.3102  0.0513 -0.1535
 2370poe    c3111160   4.335   6.348   1.347  0.4137  0.0228 -0.2302
 2371poe    c3111161   3.700   3.898   0.847  0.2421 -0.1884  0.2348
 2371poe     o211162   3.622   3.822   0.758  0.0034 -0.0046  0.2839
 2371poe    c2311163   3.568   3.899   0.653  0.8945 -0.4629 -0.5301
 2371poe    c2311164   3.463   3.809   0.587  1.0182 -0.2898 -0.9614
 2371poe     o211165   3.505   3.675   0.595 -0.0904 -0.6257 -0.6008
 2371poe    c2311166   3.400   3.592   0.552 -0.4316 -0.5088 -0.0097
 2371poe    c2311167   3.445   3.445   0.567  0.2571 -0.3135 -0.1591
 2371poe     o211168   3.526   3.418   0.679  0.9518  0.1182 -0.5488
 2371poe    c2311169   3.539   3.281   0.709  0.4901  0.1710 -0.1116
 2371poe    c2311170   3.635   3.271   0.829  0.2597  0.5302  0.1076
 2371poe     o211171   3.764   3.316   0.795  0.4966 -0.0783  0.1736
 2371poe    c3111172   3.868   3.265   0.875  0.3190 -0.3915  0.2050
 2372poe    c3111173   1.057   3.687   3.019 -0.1149  0.5291  0.2913
 2372poe     o211174   1.063   3.784   2.916  0.4127  0.4569  0.2503
 2372poe    c2311175   1.124   3.724   2.805 -0.1022  0.0184  0.2037
 2372poe    c2311176   1.096   3.788   2.668 -0.2861 -0.9090 -0.2014
 2372poe     o211177   1.178   3.899   2.638 -0.4717 -0.6088  0.3953
 2372poe    c2311178   1.157   3.948   2.508  0.4154 -0.3501  0.3378
 2372poe    c2311179   1.244   4.074   2.500 -0.2473  0.0856 -0.1225
 2372poe     o211180   1.194   4.176   2.584  0.4217 -0.2376  0.6834
 2372poe    c2311181   1.230   4.302   2.532 -0.5348 -0.1962  0.0978
 2372poe    c2311182   1.150   4.429   2.563  0.3194  0.4820 -0.4156
 2372poe     o211183   1.174   4.476   2.694  0.0605  0.2648 -0.2872
 2372poe    c3111184   1.295   4.548   2.710  0.0945 -0.0779  1.0519
 2373poe    c3111185   3.736   4.866   2.105 -0.1662 -0.0139 -0.0537
 2373poe     o211186   3.750   4.746   2.178 -0.0009  0.1771  0.2325
 2373poe    c2311187   3.630   4.672   2.174  0.1499 -0.0412 -0.4653
 2373poe    c2311188   3.666   4.535   2.235 -0.4384 -0.0347 -0.0969
 2373poe     o211189   3.737   4.568   2.352 -0.1934 -0.3313 -0.1609
 2373poe    c2311190   3.794   4.451   2.406  0.0355  0.0422  0.4225
 2373poe    c2311191   3.870   4.507   2.527 -0.3370  0.7328  0.3401
 2373poe     o211192   3.961   4.612   2.502  0.4060  0.0447  0.0967
 2373poe    c2311193   4.084   4.593   2.566  0.3881 -0.0986  0.0873
 2373poe    c2311194   4.189   4.699   2.527 -0.1061  0.3039 -0.1501
 2373poe     o211195   4.212   4.699   2.388  0.6982 -0.2788 -0.0225
 2373poe    c3111196   4.312   4.788   2.343  0.3915  0.3004  0.4275
 2374poe    c3111197   3.129   4.494   0.215 -0.1582 -0.4697  0.7659
 2374poe     o211198   3.008   4.545   0.267 -0.5596 -0.2935 -0.3183
 2374poe    c2311199   2.952   4.458   0.362  0.2368 -0.5764 -0.0994
 2374poe    c2311200   2.800   4.478   0.378  0.2898 -0.2231 -0.0095
 2374poe     o211201   2.757   4.605   0.421  0.2596 -0.4090  0.5219
 2374poe    c2311202   2.782   4.651   0.552  0.9225  0.3658  0.1322
 2374poe    c2311203   2.723   4.793   0.558  0.0387 -0.0061  0.3501
 2374poe     o211204   2.748   4.883   0.453  0.0167 -0.5127 -0.0929
 2374poe    c2311205   2.697   5.012   0.480  0.3137 -0.3489 -0.3109
 2374poe    c2311206   2.735   5.093   0.355  0.0203 -0.0162 -0.1858
 2374poe     o211207   2.725   5.011   0.240  0.1485 -0.2306 -0.0453
 2374poe    c3111208   2.750   5.075   0.117 -0.2335 -0.5482 -0.2899
 2375poe    c3111209   3.978   2.173   4.516 -0.4474  0.1150 -0.1774
 2375poe     o211210   3.868   2.099   4.469 -0.7340  0.8064 -0.6030
 2375poe    c2311211   3.767   2.085   4.567 -0.1412 -0.1300 -0.1112
 2375poe    c2311212   3.692   2.216   4.599  0.6074  0.3693 -0.3479
 2375poe     o211213   3.588   2.232   4.504  0.3630 -0.2713 -0.1963
 2375poe    c2311214   3.499   2.334   4.542  0.3414 -0.3708  0.0233
 2375poe    c2311215   3.381   2.357   4.446  0.2414 -0.5668  0.1003
 2375poe     o211216   3.287   2.252   4.455 -0.2106 -0.1402  0.4528
 2375poe    c2311217   3.197   2.251   4.347  0.2725 -0.3797  0.0480
 2375poe    c2311218   3.052   2.239   4.398  0.3362 -0.4117  0.2207
 2375poe     o211219   2.991   2.361   4.432  0.0500 -0.3679 -0.4436
 2375poe    c3111220   2.867   2.338   4.495  0.6746 -0.6545  0.7062
 2376poe    c3111221   2.432   0.443   5.535 -0.0532 -0.1243 -0.3956
 2376poe     o211222   2.327   0.529   5.496 -0.2480 -0.2058 -0.0517
 2376poe    c2311223   2.236   0.558   5.600  0.1941 -0.2772  0.3588
 2376poe    c2311224   2.140   0.669   5.553  0.4364 -0.2138  0.0154
 2376poe     o211225   2.047   0.617   5.461  0.0033  0.7362 -0.0916
 2376poe    c2311226   1.957   0.721   5.431 -0.3048  0.4550 -0.1475
 2376poe    c2311227   1.870   0.690   5.308 -0.2992 -0.1533 -0.0032
 2376poe     o211228   1.952   0.635   5.208 -0.0911 -0.7685  0.5053
 2376poe    c2311229   1.879   0.581   5.100 -0.2001 -0.0920  0.2413
 2376poe    c2311230   1.960   0.469   5.032  0.0181  0.3849 -0.2982
 2376poe     o211231   2.007   0.384   5.134  0.1045  0.2092 -0.4844
 2376poe    c3111232   2.090   0.288   5.072  0.3277  0.3607 -0.4204
 2377poe    c3111233   3.754   1.784   7.056  0.2438 -0.2389  0.5004
 2377poe     o211234   3.635   1.791   7.132 -0.0908  0.6505 -0.1004
 2377poe    c2311235   3.521   1.790   7.049  0.1372 -0.0784 -0.4082
 2377poe    c2311236   3.403   1.806   7.147  0.1502  0.7597 -0.5273
 2377poe     o211237   3.438   1.906   7.240  0.4675 -0.2420  0.4561
 2377poe    c2311238   3.329   1.943   7.322 -0.1506  0.3971 -0.6197
 2377poe    c2311239   3.388   2.044   7.423 -0.0638  0.2600 -0.5320
 2377poe     o211240   3.483   1.982   7.506 -0.3092  0.4632 -0.0952
 2377poe    c2311241   3.537   2.069   7.603 -0.0886 -0.0748  0.2655
 2377poe    c2311242   3.679   2.042   7.657 -0.1981 -0.4795  0.3602
 2377poe     o211243   3.777   2.038   7.555 -0.4567 -0.0591  0.0898
 2377poe    c3111244   3.906   2.079   7.596 -0.3826  0.1971 -0.4005
 2378poe    c3111245   0.970   1.612   2.842 -0.4237 -0.2812  0.5789
 2378poe     o211246   1.074   1.536   2.898  0.3455  0.4277  0.1393
 2378poe    c2311247   1.106   1.428   2.813  0.2886  0.2810  0.3017
 2378poe    c2311248   1.225   1.337   2.848  0.3471  0.1610 -0.2027
 2378poe     o211249   1.351   1.401   2.841  0.3380  0.2183  0.1587
 2378poe    c2311250   1.458   1.327   2.895  0.7801  0.1702 -0.7743
 2378poe    c2311251   1.590   1.406   2.891  0.8307  0.1746  0.6762
 2378poe     o211252   1.586   1.516   2.978  0.5232  0.5968  0.1330
 2378poe    c2311253   1.690   1.600   2.933  0.4104  0.2248 -0.8313
 2378poe    c2311254   1.664   1.748   2.965 -0.3281 -0.0800  0.0230
 2378poe     o211255   1.696   1.782   3.098 -0.0894 -0.3466  0.0347
 2378poe    c3111256   1.632   1.900   3.140 -0.3635 -0.5298  0.1384
 2379poe    c3111257   4.148   4.937   4.300  0.0942 -0.6125 -0.4725
 2379poe     o211258   4.033   4.945   4.381  0.5758 -0.1023  0.1777
 2379poe    c2311259   3.999   4.821   4.440 -0.4723 -0.0996 -0.4012
 2379poe    c2311260   3.893   4.855   4.547 -0.2341 -0.1995 -0.1324
 2379poe     o211261   3.935   4.947   4.646 -0.1011 -0.2387 -0.1514
 2379poe    c2311262   3.846   4.947   4.755  0.0901  0.5661  0.0064
 2379poe    c2311263   3.918   5.030   4.863  0.2890  0.0066  0.3084
 2379poe     o211264   3.991   5.137   4.807  0.5405 -0.1646  0.3054
 2379poe    c2311265   4.046   5.229   4.899  0.6481 -0.2394  0.3150
 2379poe    c2311266   4.109   5.357   4.842 -0.2481  0.3037  0.5215
 2379poe     o211267   4.233   5.331   4.780 -0.5828 -0.1884  0.0501
 2379poe    c3111268   4.288   5.452   4.732 -0.6096 -0.1826  0.0349
 2380poe    c3111269   0.268   1.445   7.015 -0.2251 -0.0947 -0.2629
 2380poe     o211270   0.171   1.344   6.999 -0.0626 -0.2647 -0.1720
 2380poe    c2311271   0.125   1.293   7.123 -0.0210  0.4300  0.1342
 2380poe    c2311272  -0.021   1.244   7.112  0.1647  0.0349 -0.6656
 2380poe     o211273  -0.023   1.118   7.049  0.4426 -0.2601 -0.0921
 2380poe    c2311274  -0.149   1.063   7.020  0.5444 -0.3913 -0.2897
 2380poe    c2311275  -0.150   0.911   6.999 -0.3501 -0.4725  0.2741
 2380poe     o211276  -0.069   0.862   6.894 -0.2595  0.2497  0.0056
 2380poe    c2311277  -0.055   0.722   6.893 -0.2901  0.2481 -0.4436
 2380poe    c2311278   0.046   0.682   6.784 -0.0584  0.1044 -0.1756
 2380poe     o211279   0.169   0.739   6.823 -0.3447  0.9815 -0.5491
 2380poe    c3111280   0.257   0.761   6.714  0.7624 -0.2852  0.0670
 2381poe    c3111281   3.499   3.638   5.357  0.4767 -0.3304 -0.3163
 2381poe     o211282   3.528   3.668   5.492  0.0420  0.5402 -0.4054
 2381poe    c2311283   3.402   3.667   5.557 -0.1754  0.4018 -0.8255
 2381poe    c2311284   3.410   3.726   5.699  0.5329 -0.6235 -0.4286
 2381poe     o211285   3.496   3.659   5.789  0.2339 -0.4020  0.0228
 2381poe    c2311286   3.473   3.695   5.923  0.0475 -0.3029 -0.0350
 2381poe    c2311287   3.597   3.667   6.009  0.1813  0.2489 -0.0416
 2381poe     o211288   3.711   3.727   5.953 -0.0101  0.3352 -0.3385
 2381poe    c2311289   3.824   3.722   6.037 -0.0891  0.1717 -0.2400
 2381poe    c2311290   3.940   3.795   5.965  0.3316 -0.0964  0.1548
 2381poe     o211291   3.931   3.725   5.842  0.0047 -0.2241  0.2492
 2381poe    c3111292   4.053   3.761   5.782  0.0134 -0.4115  0.1549
 2382poe    c3111293   4.169   3.408   4.057 -0.0544 -0.1571  0.7275
 2382poe     o211294   4.214   3.275   4.069  0.1573 -0.1220  0.3319
 2382poe    c2311295   4.245   3.222   3.942  0.0267 -0.0494  0.2704
 2382poe    c2311296   4.266   3.070   3.946  0.5390  0.0065 -0.2136
 2382poe     o211297   4.349   3.022   4.049 -0.0417 -0.3021  0.1163
 2382poe    c2311298   4.390   2.891   4.016  0.3987 -0.2198  0.3235
 2382poe    c2311299   4.479   2.830   4.126  0.5245 -0.9569 -0.1842
 2382poe     o211300   4.608   2.887   4.131  0.1164  0.0086 -0.3845
 2382poe    c2311301   4.707   2.810   4.195 -0.2562 -0.2642 -0.1317
 2382poe    c2311302   4.843   2.861   4.246 -0.0984 -0.2605 -0.5529
 2382poe     o211303   4.829   2.961   4.345  0.5654 -0.6197 -0.0825
 2382poe    c3111304   4.951   3.024   4.378  0.0861  0.2029  0.1494
 2383poe    c3111305   0.413   2.905   5.700 -0.1427 -0.3093 -0.1242
 2383poe     o211306   0.307   2.994   5.673  0.2217  0.3082  0.4510
 2383poe    c2311307   0.230   3.028   5.787 -0.3020  0.2115  0.1289
 2383poe    c2311308   0.101   3.110   5.765 -0.1003  0.5246  0.0999
 2383poe     o211309   0.132   3.247   5.758  0.1790  0.4535 -0.0695
 2383poe    c2311310   0.037   3.337   5.810  0.0256  0.0200  0.4091
 2383poe    c2311311  -0.079   3.364   5.711  0.3472 -0.6402 -0.1589
 2383poe     o211312  -0.174   3.262   5.686 -0.2292 -0.0955 -0.2130
 2383poe    c2311313  -0.276   3.303   5.598  0.2025  0.0624 -0.6474
 2383poe    c2311314  -0.372   3.185   5.571 -0.0133  0.0990 -0.0519
 2383poe     o211315  -0.323   3.095   5.474  0.4657 -0.0144  0.2958
 2383poe    c3111316  -0.401   2.978   5.484 -0.3043  0.3811 -0.9553
 2384poe    c3111317   6.336   0.260   3.705  0.0103  0.3625 -0.1401
 2384poe     o211318   6.256   0.155   3.754  0.5114  0.0511  0.0144
 2384poe    c2311319   6.333   0.053   3.814  0.2121 -0.0916  0.1621
 2384poe    c2311320   6.237  -0.031   3.899 -0.0977  0.3066  0.2099
 2384poe     o211321   6.169   0.039   4.001 -0.2500  0.1379  0.2244
 2384poe    c2311322   6.119  -0.045   4.103  0.1676 -0.4731 -0.0642
 2384poe    c2311323   6.073   0.021   4.235 -0.2980  0.3869 -0.6498
 2384poe     o211324   5.960   0.106   4.244 -0.0644  0.6428 -0.1215
 2384poe    c2311325   5.983   0.192   4.353  0.2704  0.6110 -0.1631
 2384poe    c2311326   5.871   0.298   4.355  0.0564  0.3832 -0.0822
 2384poe     o211327   5.742   0.257   4.396  0.2464  0.3095  0.4542
 2384poe    c3111328   5.654   0.358   4.349 -0.1561 -0.1840  0.1369
 2385poe    c3111329   3.401   3.158   5.316  0.2195 -0.0018 -0.1154
 2385poe     o211330   3.465   3.115   5.198  0.8352  0.0475  0.1999
 2385poe    c2311331   3.386   3.116   5.082  0.7638 -0.1170  0.2467
 2385poe    c2311332   3.441   3.053   4.952  0.4553  0.0028  0.0585
 2385poe     o211333   3.554   3.124   4.907  0.0971  0.6309  0.1390
 2385poe    c2311334   3.589   3.097   4.773 -0.5158  0.8932 -0.0788
 2385poe    c2311335   3.715   3.176   4.732  0.2075 -0.1012  0.2079
 2385poe     o211336   3.821   3.118   4.805  0.2867 -0.5141 -0.2267
 2385poe    c2311337   3.944   3.153   4.745  0.5471 -0.0658  0.5454
 2385poe    c2311338   4.062   3.094   4.824  0.0220 -0.4063  1.0927
 2385poe     o211339   4.031   2.959   4.848 -0.4142 -0.5746 -0.3106
 2385poe    c3111340   4.133   2.911   4.933 -0.4342  0.2231  0.1787
 2386poe    c3111341   4.610   7.070   0.290  0.1360  0.2743 -0.2263
 2386poe     o211342   4.735   7.005   0.295  0.0451  0.0949 -0.2697
 2386poe    c2311343   4.712   6.873   0.337  0.3635  0.2157  0.2988
 2386poe    c2311344   4.826   6.811   0.419  0.2312  0.0498  0.3595
 2386poe     o211345   4.939   6.776   0.342  0.0639 -0.0566  0.1619
 2386poe    c2311346   5.054   6.756   0.422 -0.0791 -0.4798  0.2653
 2386poe    c2311347   5.169   6.710   0.331 -0.1108  0.4989 -0.2802
 2386poe     o211348   5.158   6.787   0.213  0.0877  0.4532 -0.3293
 2386poe    c2311349   5.245   6.746   0.111 -0.2075 -0.2151 -0.3210
 2386poe    c2311350   5.250   6.856   0.003 -0.3601 -0.0560 -0.1666
 2386poe     o211351   5.122   6.902  -0.032 -0.1965  0.7211  0.2307
 2386poe    c3111352   5.144   6.968  -0.155  0.5853  0.2615  0.1146
 2387poe    c3111353   7.015   1.866   0.949 -0.6224  0.3065  0.1806
 2387poe     o211354   6.970   1.799   0.833  0.3105  0.4016 -0.2449
 2387poe    c2311355   6.857   1.720   0.864  0.4565  0.2146 -0.1890
 2387poe    c2311356   6.804   1.650   0.738  0.2001  0.7550 -0.3837
 2387poe     o211357   6.894   1.566   0.671 -0.1693  0.0517 -0.0053
 2387poe    c2311358   6.840   1.528   0.546  0.2887 -0.2215 -0.1249
 2387poe    c2311359   6.885   1.615   0.427 -0.6646 -0.3267 -0.5685
 2387poe     o211360   7.025   1.625   0.418 -0.6353 -0.2398 -0.0516
 2387poe    c2311361   7.071   1.711   0.316  0.0913 -0.3036  0.2123
 2387poe    c2311362   7.220   1.677   0.305  0.1302 -0.1375  0.2227
 2387poe     o211363   7.296   1.715   0.418  0.1938 -0.3034  0.2370
 2387poe    c3111364   7.392   1.805   0.365 -0.3478 -0.0589 -0.3367
 2388poe    c3111365   2.822   3.907   4.782 -0.3947 -0.4908  0.2581
 2388poe     o211366   2.860   3.943   4.651  0.4398  0.1288  0.6635
 2388poe    c2311367   2.893   4.080   4.647 -0.4656  0.3426  0.2139
 2388poe    c2311368   2.910   4.152   4.511 -0.0813  0.6638  0.4271
 2388poe     o211369   2.790   4.161   4.437  0.0709 -0.2691  0.0583
 2388poe    c2311370   2.823   4.222   4.314  0.5281 -0.3778  0.1235
 2388poe    c2311371   2.708   4.208   4.213  0.8512 -0.0397 -0.2964
 2388poe     o211372   2.656   4.077   4.206 -0.1832  0.3215  0.3840
 2388poe    c2311373   2.561   4.072   4.102  0.0854  0.4510  0.1323
 2388poe    c2311374   2.490   3.936   4.119 -0.3713  0.6383 -0.2403
 2388poe     o211375   2.473   3.918   4.257 -0.3671 -0.0746 -0.3300
 2388poe    c3111376   2.431   3.789   4.297 -0.4739  0.0981  0.1203
 2389poe    c3111377   1.336   7.081   6.765 -0.1230  0.0906 -0.2477
 2389poe     o211378   1.340   7.139   6.893 -0.4399  0.1999 -0.2861
 2389poe    c2311379   1.431   7.247   6.901 -0.3036  0.0100  0.8065
 2389poe    c2311380   1.436   7.288   7.050  0.5975  1.3461  0.4223
 2389poe     o211381   1.442   7.175   7.134  0.1529  0.6090 -0.5132
 2389poe    c2311382   1.496   7.212   7.259 -0.2268  0.5067 -0.3154
 2389poe    c2311383   1.384   7.234   7.362  0.1310  0.1485  0.1535
 2389poe     o211384   1.294   7.126   7.359  0.1116  0.1808 -0.4383
 2389poe    c2311385   1.188   7.141   7.449  0.2641 -0.5733 -0.1227
 2389poe    c2311386   1.072   7.044   7.423  0.2602 -0.6673  0.2295
 2389poe     o211387   0.992   7.070   7.309  0.1330  0.1359  0.4959
 2389poe    c3111388   0.883   6.981   7.302  0.4171 -0.1881  0.1545
 2390poe    c3111389   4.914   2.969   1.978  0.1461 -0.3629 -0.3219
 2390poe     o211390   5.003   2.924   2.078 -0.5726 -0.0334  0.4842
 2390poe    c2311391   5.060   3.038   2.138  0.4769 -0.2417 -0.0925
 2390poe    c2311392   5.016   3.042   2.286  0.6335 -0.3604 -0.0429
 2390poe     o211393   5.043   2.921   2.352  0.0469 -0.6017 -0.2402
 2390poe    c2311394   4.972   2.907   2.473  0.6328 -0.4741  0.1241
 2390poe    c2311395   5.030   2.786   2.548  0.4463 -0.4935  0.2387
 2390poe     o211396   5.039   2.670   2.468  0.5026 -0.3633  0.0578
 2390poe    c2311397   5.053   2.558   2.552  0.4542 -0.4164 -0.0049
 2390poe    c2311398   5.035   2.424   2.478  0.1928 -0.3882  0.0056
 2390poe     o211399   4.904   2.409   2.429  0.2710  0.2911 -0.4265
 2390poe    c3111400   4.874   2.283   2.373 -0.0072  0.0814  0.1838
 2391poe    c3111401   3.565   1.729   1.822  0.1464  0.0848 -0.4243
 2391poe     o211402   3.447   1.804   1.803  0.3218  0.3887 -0.3092
 2391poe    c2311403   3.415   1.809   1.666  0.4012  0.0439 -0.3409
 2391poe    c2311404   3.297   1.907   1.657  0.1462 -0.1660  0.6220
 2391poe     o211405   3.324   2.043   1.681 -0.0890 -0.1061  0.5524
 2391poe    c2311406   3.276   2.071   1.811  0.2176 -0.4442  0.7390
 2391poe    c2311407   3.390   2.123   1.901  0.2423 -0.3509  0.6540
 2391poe     o211408   3.415   2.259   1.873  0.1104 -0.3939  0.3202
 2391poe    c2311409   3.461   2.324   1.989  0.4565 -0.7574  0.3897
 2391poe    c2311410   3.347   2.387   2.072  0.3305 -0.0576 -0.3046
 2391poe     o211411   3.299   2.510   2.022 -0.3125 -0.2248 -0.1031
 2391poe    c3111412   3.181   2.547   2.091  0.4211  0.4138  0.8232
 2392poe    c3111413   1.197   3.715   4.443  0.2532 -0.4924 -0.1738
 2392poe     o211414   1.115   3.790   4.530 -0.0070 -0.5172 -0.3977
 2392poe    c2311415   0.980   3.751   4.529 -0.1202 -0.1319 -0.1557
 2392poe    c2311416   0.892   3.842   4.618 -0.0631  0.0736 -0.3102
 2392poe     o211417   0.893   3.846   4.759  0.4063 -0.6724 -0.2859
 2392poe    c2311418   1.022   3.861   4.813  0.1577 -0.1883  0.1760
 2392poe    c2311419   0.998   3.852   4.965 -0.2663  0.4567  0.1548
 2392poe     o211420   0.911   3.955   5.005 -0.3869  0.4169 -0.0047
 2392poe    c2311421   0.910   3.984   5.143  0.4337 -0.0509  0.1063
 2392poe    c2311422   0.799   4.084   5.179  0.6101 -0.0264  0.5921
 2392poe     o211423   0.819   4.215   5.132 -0.4500 -0.0454  0.0598
 2392poe    c3111424   0.720   4.304   5.179 -0.5717 -0.2428  0.1781
 2393poe    c3111425   0.656   4.650   3.093 -0.1390  0.0989  0.2363
 2393poe     o211426   0.692   4.711   2.971 -0.1830  0.1672  0.2577
 2393poe    c2311427   0.732   4.612   2.880  0.0402  0.3290  0.1783
 2393poe    c2311428   0.870   4.640   2.818  0.1043 -0.0871  0.1269
 2393poe     o211429   0.885   4.780   2.809  0.4152 -0.1185  0.1247
 2393poe    c2311430   0.982   4.807   2.710 -0.1378  0.5130 -0.2536
 2393poe    c2311431   0.957   4.955   2.674 -0.1010  0.5090 -0.2934
 2393poe     o211432   0.953   5.033   2.791  0.1528 -0.6372  0.4977
 2393poe    c2311433   0.917   5.162   2.748  0.3117 -0.6280  0.3882
 2393poe    c2311434   0.936   5.272   2.855 -0.2044  0.0677 -0.2263
 2393poe     o211435   1.073   5.277   2.887 -0.2550  0.0537 -0.0106
 2393poe    c3111436   1.100   5.393   2.963  0.6302  0.0637 -0.3279
 2394poe    c3111437   3.717   6.379   4.861  0.6196  0.3475  0.2427
 2394poe     o211438   3.684   6.264   4.786 -0.1205  0.3980  0.4891
 2394poe    c2311439   3.677   6.164   4.885  0.8327 -0.0939  0.0746
 2394poe    c2311440   3.640   6.033   4.813  0.0657 -0.0296  0.3372
 2394poe     o211441   3.512   6.060   4.761  0.2039 -0.3899 -0.2123
 2394poe    c2311442   3.451   5.949   4.700 -0.0847 -0.4974  0.2635
 2394poe    c2311443   3.301   5.977   4.679  0.1055  0.1202 -0.2963
 2394poe     o211444   3.284   6.106   4.625  0.5738  0.2749 -0.0793
 2394poe    c2311445   3.179   6.114   4.532  0.3153 -0.2142  0.1684
 2394poe    c2311446   3.097   6.242   4.557  0.2430 -0.1125 -0.5652
 2394poe     o211447   3.186   6.350   4.543  0.3770 -0.1326  0.0920
 2394poe    c3111448   3.119   6.473   4.557  0.0499 -0.1835 -0.9259
 2395poe    c3111449   5.050   1.116   4.156  0.2930 -0.3236  0.1924
 2395poe     o211450   5.138   1.219   4.196 -0.1362  0.0960  0.0584
 2395poe    c2311451   5.272   1.177   4.206 -0.0543  0.2667 -0.3284
 2395poe    c2311452   5.357   1.287   4.273  0.1103 -0.1176  0.1001
 2395poe     o211453   5.360   1.396   4.183  0.2413  0.1333  0.4030
 2395poe    c2311454   5.441   1.498   4.235  0.0705  0.3208  0.3046
 2395poe    c2311455   5.442   1.624   4.146  0.1466  0.1070  0.0014
 2395poe     o211456   5.312   1.658   4.104 -0.1086 -0.3658  0.3888
 2395poe    c2311457   5.306   1.772   4.021  0.2051 -0.2652  0.5023
 2395poe    c2311458   5.167   1.779   3.953  0.4054  0.4186  0.1498
 2395poe     o211459   5.123   1.647   3.926 -0.3373  0.7205 -0.1310
 2395poe    c3111460   4.996   1.663   3.867 -0.3645 -0.2488 -0.3489
 2396poe    c3111461   1.069   2.307   6.282 -0.3857 -0.3006 -0.5420
 2396poe     o211462   1.071   2.364   6.153  0.6906  0.1636 -0.3337
 2396poe    c2311463   0.958   2.448   6.137  0.6012  0.1096 -0.0051
 2396poe    c2311464   0.920   2.500   5.997 -0.6312 -0.2804  0.1746
 2396poe     o211465   0.869   2.392   5.922  0.2929 -0.3159 -0.4211
 2396poe    c2311466   0.830   2.437   5.793 -0.7146 -0.1914 -0.0803
 2396poe    c2311467   0.720   2.343   5.741 -0.4814 -0.8174  0.5366
 2396poe     o211468   0.771   2.218   5.782  0.2297 -0.7199 -0.0389
 2396poe    c2311469   0.702   2.106   5.731 -0.2506 -0.5072  0.1393
 2396poe    c2311470   0.785   1.980   5.759  0.2291 -0.2307 -0.0251
 2396poe     o211471   0.859   2.004   5.877  0.1606 -0.0178 -0.0248
 2396poe    c3111472   0.958   1.907   5.902 -0.0288 -0.3715 -0.6330
 2397poe    c3111473   6.494   6.621   2.020 -0.5022  0.0933  0.2853
 2397poe     o211474   6.570   6.739   2.011 -0.2157 -0.0975  0.1958
 2397poe    c2311475   6.591   6.780   2.144  0.1805  0.1173  0.0670
 2397poe    c2311476   6.617   6.931   2.161  0.7334  0.0793 -0.3859
 2397poe     o211477   6.679   6.970   2.281 -0.1928  0.0037  0.1318
 2397poe    c2311478   6.718   7.102   2.251  0.1213 -0.0361  0.3544
 2397poe    c2311479   6.825   7.147   2.352 -0.1901  0.2654  0.5498
 2397poe     o211480   6.772   7.164   2.482 -0.3613 -0.3939  0.5712
 2397poe    c2311481   6.865   7.208   2.578 -0.2764 -0.2243  0.4118
 2397poe    c2311482   6.809   7.314   2.674  0.1426  0.2073  0.1887
 2397poe     o211483   6.680   7.265   2.705  0.1838  0.1453  0.2642
 2397poe    c3111484   6.617   7.356   2.792 -0.1993  0.2619 -0.1366
 2398poe    c3111485   7.112   0.584   3.582 -0.4537  0.1534 -0.1535
 2398poe     o211486   7.177   0.647   3.474  0.4099 -0.0527  0.2461
 2398poe    c2311487   7.094   0.625   3.363  0.4408  0.0812  0.1962
 2398poe    c2311488   7.167   0.695   3.247  0.2707 -0.2757 -0.1288
 2398poe     o211489   7.306   0.667   3.252  0.2974 -0.1492 -0.1704
 2398poe    c2311490   7.376   0.707   3.136 -0.4767  0.4312 -0.4527
 2398poe    c2311491   7.524   0.688   3.173 -0.5412  0.7431 -0.0280
 2398poe     o211492   7.551   0.752   3.296 -0.0626  0.1754  0.1683
 2398poe    c2311493   7.690   0.749   3.322  0.0307  0.3740 -0.2937
 2398poe    c2311494   7.727   0.860   3.422 -0.3854  0.3013 -0.0558
 2398poe     o211495   7.657   0.845   3.544  0.0280 -0.0676  0.1425
 2398poe    c3111496   7.703   0.945   3.632  0.6503  0.1489 -0.4194
 2399poe    c3111497   3.787   4.666   3.278 -0.4970  0.7544  0.4868
 2399poe     o211498   3.681   4.575   3.301 -0.2302  0.3974  0.3101
 2399poe    c2311499   3.619   4.552   3.177  0.1510  0.2692  0.1407
 2399poe    c2311500   3.555   4.413   3.160 -0.2204  0.4826 -0.2441
 2399poe     o211501   3.455   4.372   3.250  0.0097  0.1123 -0.1531
 2399poe    c2311502   3.454   4.232   3.258 -0.1976  0.0985 -0.4015
 2399poe    c2311503   3.346   4.191   3.359 -0.1179 -0.0481 -0.3755
 2399poe     o211504   3.228   4.258   3.320 -0.1859 -0.1171 -0.2873
 2399poe    c2311505   3.121   4.218   3.403  0.1780 -0.4935  0.0130
 2399poe    c2311506   2.999   4.308   3.374  0.4060  0.0499  0.7155
 2399poe     o211507   3.042   4.440   3.349 -0.3605  0.2153  0.2217
 2399poe    c3111508   2.933   4.529   3.340 -0.0117  0.6062 -0.1990
 2400poe    c3111509   5.332   0.243   5.604 -0.0919 -0.2629 -0.3003
 2400poe     o211510   5.223   0.229   5.692  0.0308 -0.0467 -0.1112
 2400poe    c2311511   5.111   0.194   5.613  0.5724  0.7638 -1.2686
 2400poe    c2311512   4.985   0.259   5.674  0.7443 -0.4220  0.4301
 2400poe     o211513   4.987   0.237   5.813  0.1065 -0.2656  0.4639
 2400poe    c2311514   4.896   0.318   5.883 -0.4452 -0.3500 -0.1458
 2400poe    c2311515   4.929   0.305   6.033  0.3896  0.0975 -0.2827
 2400poe     o211516   5.063   0.266   6.054  0.4509  0.2359 -0.4216
 2400poe    c2311517   5.085   0.260   6.193  0.1123 -0.5855 -0.3973
 2400poe    c2311518   5.231   0.228   6.231  0.0333 -0.2344  0.2039
 2400poe     o211519   5.263   0.110   6.161 -0.0677 -0.3641  0.3781
 2400poe    c3111520   5.342   0.039   6.255 -0.1060 -0.6034  0.2305
 2401poe    c3111521   0.223   2.736   6.481 -0.1340 -0.2443  0.1408
 2401poe     o211522   0.248   2.873   6.461 -0.4137 -0.1400  0.4902
 2401poe    c2311523   0.374   2.924   6.496 -0.3222  0.0773 -0.1348
 2401poe    c2311524   0.349   3.074   6.524  0.2455  0.2076 -0.2960
 2401poe     o211525   0.269   3.123   6.419  0.0543  0.4195 -0.0531
 2401poe    c2311526   0.261   3.264   6.420  0.2444  0.4307 -0.1283
 2401poe    c2311527   0.178   3.307   6.299  0.5011 -0.2067 -0.5378
 2401poe     o211528   0.068   3.221   6.279  0.1329  0.1931 -0.2466
 2401poe    c2311529  -0.030   3.282   6.197 -0.1389  0.1863  0.0733
 2401poe    c2311530  -0.150   3.189   6.171  0.0846 -0.1673  0.2925
 2401poe     o211531  -0.117   3.085   6.082  0.0613 -0.2674  0.4000
 2401poe    c3111532  -0.226   3.004   6.043 -0.4479  0.5990 -0.0020
 2402poe    c3111533   5.242   6.055   5.893  0.0329 -0.4103 -0.3477
 2402poe     o211534   5.140   6.072   5.989  0.4944  0.5382 -0.0152
 2402poe    c2311535   5.012   6.105   5.941  0.2668  0.3438  0.4590
 2402poe    c2311536   4.979   6.230   6.024  0.2939  0.4695  0.2818
 2402poe     o211537   4.991   6.199   6.162  0.0666 -0.4095  0.1090
 2402poe    c2311538   4.907   6.283   6.239 -0.4290 -0.7947 -0.0027
 2402poe    c2311539   4.913   6.250   6.389 -0.0456  0.1868  0.2055
 2402poe     o211540   5.044   6.204   6.412 -0.1014 -0.0549  0.0414
 2402poe    c2311541   5.092   6.202   6.545  0.1558 -0.4423 -0.0541
 2402poe    c2311542   5.201   6.307   6.576  0.0568 -0.3573  0.0071
 2402poe     o211543   5.308   6.304   6.484  0.2855  0.0028  0.2594
 2402poe    c3111544   5.383   6.421   6.507  0.1753  0.0532  0.3665
 2403poe    c3111545   5.423   3.327   1.437 -0.3643  0.3009  0.2287
 2403poe     o211546   5.550   3.301   1.491 -0.1702  0.4234 -0.1647
 2403poe    c2311547   5.634   3.257   1.386  0.0169 -0.2238  0.2472
 2403poe    c2311548   5.784   3.233   1.408  0.1238  0.1407 -0.0624
 2403poe     o211549   5.859   3.352   1.418  0.1420  0.0642  0.7588
 2403poe    c2311550   5.991   3.322   1.460  0.5261 -0.1357 -0.5671
 2403poe    c2311551   6.084   3.442   1.434  0.6110  0.0286  0.4774
 2403poe     o211552   6.043   3.556   1.506 -0.2878  0.3636 -0.5490
 2403poe    c2311553   6.121   3.671   1.478  0.1805  0.1488 -0.1290
 2403poe    c2311554   6.098   3.738   1.341 -0.3197  0.1734 -0.0339
 2403poe     o211555   5.962   3.768   1.320 -0.4552 -0.6763 -0.4259
 2403poe    c3111556   5.966   3.821   1.189  0.4375 -0.9619 -0.5171
 2404poe    c3111557   6.161   7.099   5.575  0.3706 -0.1336  0.1971
 2404poe     o211558   6.110   6.967   5.570  0.4773 -0.1846  0.4710
 2404poe    c2311559   5.973   6.978   5.539  0.5586 -0.4577  0.0085
 2404poe    c2311560   5.914   6.844   5.584 -0.3147 -0.0586  0.0689
 2404poe     o211561   5.908   6.830   5.725 -0.1679 -0.1918  0.0627
 2404poe    c2311562   5.840   6.710   5.755 -0.2321 -0.2711 -0.3881
 2404poe    c2311563   5.783   6.704   5.898 -0.4179 -0.3336 -0.4640
 2404poe     o211564   5.882   6.689   5.997 -0.9022  0.7927  0.2039
 2404poe    c2311565   5.826   6.617   6.104 -0.3908  0.2540  0.1136
 2404poe    c2311566   5.937   6.579   6.203 -0.1552  0.4467 -0.0759
 2404poe     o211567   6.035   6.489   6.154  0.3412  0.7544  0.3399
 2404poe    c3111568   6.120   6.439   6.254  0.1271 -0.0502  0.1250
 2405poe    c3111569   5.535   6.985   0.984 -0.5353 -0.0860  0.6283
 2405poe     o211570   5.663   6.927   1.000 -0.2080  0.5454  0.3400
 2405poe    c2311571   5.772   7.014   0.981  0.1702 -0.1088 -0.5595
 2405poe    c2311572   5.902   6.932   0.982 -0.0050 -0.3878 -0.5021
 2405poe     o211573   5.933   6.861   1.100  0.0775  0.0253 -0.2734
 2405poe    c2311574   6.056   6.795   1.079 -0.1054 -0.3172 -0.2851
 2405poe    c2311575   6.085   6.713   1.205  0.3967 -0.1991 -0.3231
 2405poe     o211576   5.971   6.632   1.223 -0.0443  0.3706 -0.5341
 2405poe    c2311577   5.978   6.570   1.350 -0.1080  0.6348 -0.4023
 2405poe    c2311578   5.965   6.417   1.350  0.3153  0.5935  0.5130
 2405poe     o211579   5.839   6.366   1.311  0.4953 -0.1324  0.8591
 2405poe    c3111580   5.811   6.245   1.376  0.0142 -0.7439 -0.4430
 2406poe    c3111581   0.109   0.578   4.340  0.8113  0.3844  0.0388
 2406poe     o211582   0.032   0.615   4.452 -0.1263  0.0719 -0.4914
 2406poe    c2311583   0.009   0.752   4.477 -0.0428  0.0443 -0.2533
 2406poe    c2311584  -0.102   0.767   4.583 -0.2878 -0.4695 -0.4323
 2406poe     o211585  -0.057   0.724   4.709  0.4707 -0.5240 -0.7173
 2406poe    c2311586  -0.022   0.840   4.782 -0.9191 -0.3863 -0.2578
 2406poe    c2311587   0.037   0.825   4.923 -0.3171  0.2994 -0.4369
 2406poe     o211588   0.171   0.781   4.923 -0.4259 -0.0607  0.6006
 2406poe    c2311589   0.214   0.737   5.050  0.1850 -0.5844  0.2154
 2406poe    c2311590   0.329   0.634   5.055  0.4943 -0.2136  0.7905
 2406poe     o211591   0.290   0.513   4.994  0.0207 -0.0177  0.7024
 2406poe    c3111592   0.386   0.416   5.028  0.0707 -0.0818  0.3813
 2407poe    c3111593   0.401   3.875   3.745 -0.3596 -0.1722 -0.2294
 2407poe     o211594   0.526   3.928   3.709 -0.3893 -0.0425 -0.1433
 2407poe    c2311595   0.526   4.067   3.728 -0.1907 -0.0200 -0.3059
 2407poe    c2311596   0.657   4.148   3.720 -0.2907  0.1967  0.1642
 2407poe     o211597   0.740   4.101   3.824 -0.3247  0.1459  0.1683
 2407poe    c2311598   0.847   4.193   3.820  0.2933 -0.5659 -0.0649
 2407poe    c2311599   0.932   4.154   3.942 -0.8004 -0.0537  0.8843
 2407poe     o211600   0.961   4.016   3.937  0.0909  0.1522  0.0549
 2407poe    c2311601   1.048   4.001   4.047  0.4714  0.3677 -0.2119
 2407poe    c2311602   1.091   3.853   4.044  0.0326  0.2189  0.4501
 2407poe     o211603   0.987   3.758   4.038  0.4829 -0.2862  0.5828
 2407poe    c3111604   1.015   3.640   3.965  0.6527  0.0799  0.0443
 2408poe    c3111605   2.360   3.954   2.388  0.0189  0.0959 -0.1030
 2408poe     o211606   2.244   3.877   2.409  0.2777 -0.3622 -0.3476
 2408poe    c2311607   2.160   3.935   2.506  0.1629 -0.5173 -0.3536
 2408poe    c2311608   2.017   3.879   2.491  0.1304 -0.4163 -0.4213
 2408poe     o211609   2.016   3.744   2.530 -0.0033 -0.1828  0.3956
 2408poe    c2311610   1.884   3.696   2.536 -0.1184  0.0188 -0.4830
 2408poe    c2311611   1.899   3.559   2.605  0.4311  0.1747 -0.2920
 2408poe     o211612   1.908   3.573   2.745  0.2187 -0.2930 -0.2285
 2408poe    c2311613   2.036   3.527   2.780  0.1427 -0.4941 -0.2161
 2408poe    c2311614   2.073   3.553   2.927 -0.2951  0.4175 -0.2589
 2408poe     o211615   2.021   3.465   3.025 -0.0794  0.5684 -0.0062
 2408poe    c3111616   2.040   3.511   3.156  0.5734 -0.3190  0.2233
 2409poe    c3111617   2.070   3.180   2.614 -0.0137 -0.3661  0.2946
 2409poe     o211618   1.993   3.080   2.551  0.1756 -0.2554 -0.1238
 2409poe    c2311619   1.891   3.026   2.633  0.0614  0.1686  0.0156
 2409poe    c2311620   1.793   2.940   2.550  0.1287  0.1210 -0.0148
 2409poe     o211621   1.858   2.824   2.504 -0.2307 -0.0248 -0.1559
 2409poe    c2311622   1.778   2.737   2.427  0.1854 -0.4138 -0.1489
 2409poe    c2311623   1.871   2.632   2.362  0.3058 -0.4578  0.0910
 2409poe     o211624   1.981   2.660   2.279  0.0870  0.4048  0.0830
 2409poe    c2311625   2.022   2.537   2.224 -0.2810  0.2269  0.2004
 2409poe    c2311626   2.141   2.564   2.129  0.0659  0.1157  0.5992
 2409poe     o211627   2.264   2.587   2.193  0.5379 -0.0108 -0.2544
 2409poe    c3111628   2.325   2.710   2.159 -0.1959  0.4494  0.0669
 2410poe    c3111629   3.606   1.849   4.848  0.3134 -0.1701 -0.2432
 2410poe     o211630   3.693   1.827   4.956  0.1593 -0.3206 -0.1499
 2410poe    c2311631   3.821   1.797   4.907  0.1273  0.0548 -0.4730
 2410poe    c2311632   3.918   1.765   5.023 -0.0419  0.1292 -0.3106
 2410poe     o211633   3.910   1.870   5.116 -0.2701 -0.2546  0.1032
 2410poe    c2311634   4.028   1.859   5.193 -0.2065 -0.5200 -0.0291
 2410poe    c2311635   4.046   1.993   5.268  0.1638 -0.7836  0.3575
 2410poe     o211636   3.931   2.022   5.343  0.1520 -0.4471  0.2131
 2410poe    c2311637   3.953   2.132   5.428  0.1989  0.1576 -0.5737
 2410poe    c2311638   3.816   2.141   5.498  0.2425 -0.1852 -0.4425
 2410poe     o211639   3.708   2.126   5.409 -0.6571 -0.2177  0.6457
 2410poe    c3111640   3.647   2.252   5.389  0.3133  0.1250 -0.2212
 2411poe    c3111641   1.745   2.555   1.150 -0.5002  0.2242  0.5518
 2411poe     o211642   1.844   2.643   1.198  0.2919 -0.6413  0.5139
 2411poe    c2311643   1.777   2.720   1.295 -0.1541 -0.2296 -0.1223
 2411poe    c2311644   1.892   2.811   1.341 -0.1015 -0.2385 -0.2349
 2411poe     o211645   1.963   2.853   1.227  0.2916 -0.1290  0.0495
 2411poe    c2311646   2.062   2.945   1.266  0.1732 -0.0726  0.2170
 2411poe    c2311647   2.156   2.969   1.146 -0.4104  0.1346 -0.2010
 2411poe     o211648   2.171   2.843   1.086 -0.2542 -0.0067  0.1337
 2411poe    c2311649   2.266   2.851   0.982 -0.3017  0.0516  0.0948
 2411poe    c2311650   2.279   2.732   0.886 -0.4407 -0.1406  0.3117
 2411poe     o211651   2.161   2.718   0.810 -0.2290  0.1135 -0.0664
 2411poe    c3111652   2.188   2.619   0.713 -0.4812 -0.1894  0.1732
 2412poe    c3111653   3.197   5.384   6.624 -0.5219  0.1899  0.2275
 2412poe     o211654   3.289   5.433   6.529 -0.3353 -0.0929  0.2599
 2412poe    c2311655   3.409   5.468   6.594 -0.0910 -0.1714 -0.1446
 2412poe    c2311656   3.527   5.484   6.497 -0.5019 -0.0561 -0.6309
 2412poe     o211657   3.553   5.363   6.428 -0.1352  0.1137 -0.7937
 2412poe    c2311658   3.614   5.393   6.305 -0.5336  0.4980 -0.8989
 2412poe    c2311659   3.663   5.267   6.230 -0.0479 -0.2658  0.6744
 2412poe     o211660   3.547   5.193   6.199 -0.3568  0.2580  0.5592
 2412poe    c2311661   3.565   5.065   6.144 -0.0839  0.6009 -0.1511
 2412poe    c2311662   3.425   5.002   6.130 -0.0126  0.3724  0.1535
 2412poe     o211663   3.348   5.038   6.243 -0.3113  0.0093  0.0655
 2412poe    c3111664   3.224   4.971   6.242 -0.1301 -0.3342  0.4325
 2413poe    c3111665   1.963   3.634   6.196  0.4987  0.5943 -0.0453
 2413poe     o211666   2.004   3.525   6.275 -0.4241  0.4553  0.2595
 2413poe    c2311667   2.067   3.576   6.391  0.2684  0.0515  0.0698
 2413poe    c2311668   2.084   3.448   6.476 -0.0488  0.0916  0.1953
 2413poe     o211669   2.159   3.345   6.416 -0.1259 -0.0202  0.2912
 2413poe    c2311670   2.227   3.261   6.507  0.1700  0.3129  0.3813
 2413poe    c2311671   2.328   3.175   6.430 -0.3249 -0.1907  0.2869
 2413poe     o211672   2.258   3.150   6.310  0.0406 -0.1453  0.0599
 2413poe    c2311673   2.311   3.043   6.236  0.2517  0.1760 -0.2503
 2413poe    c2311674   2.435   3.072   6.148  0.4303  0.1478 -0.0096
 2413poe     o211675   2.416   3.190   6.073  0.0191  0.0984  0.0130
 2413poe    c3111676   2.534   3.224   6.004  0.1367 -0.3943 -0.0297
 2414poe    c3111677   6.188   6.939   0.507  0.1170  0.7122  0.8087
 2414poe     o211678   6.319   6.974   0.472  0.1438  0.3103  0.5020
 2414poe    c2311679   6.392   6.869   0.411 -0.1027  0.4233  0.0097
 2414poe    c2311680   6.523   6.917   0.347  0.3430 -0.0884  0.5292
 2414poe     o211681   6.518   7.019   0.249 -0.0991  0.1149  0.7619
 2414poe    c2311682   6.645   7.069   0.213 -0.3252  0.6614  0.6990
 2414poe    c2311683   6.624   7.184   0.114 -0.2363 -0.2601 -0.4184
 2414poe     o211684   6.574   7.147  -0.013 -0.1461 -0.1092 -0.4986
 2414poe    c2311685   6.599   7.254  -0.102 -0.1008  0.2528 -0.0561
 2414poe    c2311686   6.538   7.204  -0.234 -0.4159 -0.0926  0.2148
 2414poe     o211687   6.424   7.122  -0.220 -0.2853 -0.2650  0.2646
 2414poe    c3111688   6.333   7.141  -0.326  0.1644  0.7661  0.0474
 2415poe    c3111689   6.027   6.292   4.445 -0.1074  0.1111  0.3448
 2415poe     o211690   5.954   6.262   4.561 -0.7647  0.2494 -0.0303
 2415poe    c2311691   5.848   6.346   4.601 -0.9183  0.0962 -0.1124
 2415poe    c2311692   5.815   6.321   4.750 -1.0645  0.2568 -0.1179
 2415poe     o211693   5.791   6.183   4.766  0.3565  0.0506  0.3185
 2415poe    c2311694   5.769   6.139   4.898 -0.4496 -0.3897  0.0450
 2415poe    c2311695   5.774   5.986   4.887  0.3552 -0.4101  0.5824
 2415poe     o211696   5.894   5.945   4.824  0.0891 -0.2743 -0.0240
 2415poe    c2311697   5.900   5.804   4.829  0.3060 -0.2543  0.3452
 2415poe    c2311698   6.045   5.754   4.822  0.3186 -0.1354 -0.3943
 2415poe     o211699   6.133   5.805   4.724  0.0104  0.7235 -0.2317
 2415poe    c3111700   6.249   5.726   4.717 -0.2449  0.4161 -1.1315
 2416poe    c3111701   3.341   2.600   6.315  0.2936  0.4940 -0.1068
 2416poe     o211702   3.201   2.584   6.311  0.4274 -0.7485 -0.3254
 2416poe    c2311703   3.154   2.558   6.181 -0.2472  0.6294 -0.3785
 2416poe    c2311704   3.001   2.573   6.173 -0.3089  0.1446 -0.1399
 2416poe     o211705   2.955   2.697   6.221  0.2254  0.1331  0.4162
 2416poe    c2311706   2.818   2.724   6.199  0.3571  0.5106  0.0470
 2416poe    c2311707   2.770   2.854   6.266 -0.0121  0.3478  0.0964
 2416poe     o211708   2.842   2.955   6.199  0.0294  0.0991 -0.2335
 2416poe    c2311709   2.812   3.068   6.278 -0.0546  0.0455 -0.1881
 2416poe    c2311710   2.895   3.188   6.229  0.0857 -0.0340 -0.1489
 2416poe     o211711   3.031   3.159   6.252  0.0202 -0.2261 -0.0053
 2416poe    c3111712   3.111   3.255   6.188 -0.0993 -0.3255 -0.3064
 2417poe    c3111713   4.929   1.174   6.487  0.1294 -0.1311 -0.0566
 2417poe     o211714   4.996   1.151   6.365 -0.6794  0.1497 -0.5572
 2417poe    c2311715   5.107   1.236   6.347 -0.5547  0.1739  0.2767
 2417poe    c2311716   5.190   1.203   6.222 -0.7353 -0.1564  0.2430
 2417poe     o211717   5.129   1.228   6.097  0.4766  0.6367 -0.2090
 2417poe    c2311718   5.209   1.210   5.982 -0.1194  0.2591 -0.5678
 2417poe    c2311719   5.122   1.188   5.857 -0.4726 -0.3596 -0.2212
 2417poe     o211720   5.018   1.283   5.862  0.0771  0.2222  0.4046
 2417poe    c2311721   4.914   1.269   5.767  0.3921  0.0934  0.0764
 2417poe    c2311722   4.802   1.368   5.804  0.2729 -0.1537  0.3718
 2417poe     o211723   4.788   1.359   5.944 -0.0248 -0.1497  0.3434
 2417poe    c3111724   4.671   1.427   5.984 -0.1295 -0.2898  0.2773
 2418poe    c3111725   2.625   6.977   1.243  0.0803 -0.0844  0.1162
 2418poe     o211726   2.573   6.894   1.142 -0.1663  0.5360 -0.2780
 2418poe    c2311727   2.472   6.817   1.203  0.5436  0.2080  0.5217
 2418poe    c2311728   2.402   6.718   1.107  0.4087  0.8007  0.0012
 2418poe     o211729   2.350   6.781   0.992 -0.3215  0.2496  0.0219
 2418poe    c2311730   2.272   6.701   0.905 -0.4254  0.2958  0.0731
 2418poe    c2311731   2.355   6.628   0.798 -0.5729  0.3044 -0.0464
 2418poe     o211732   2.448   6.713   0.737 -0.2511  0.0056  0.0235
 2418poe    c2311733   2.517   6.642   0.636 -0.2896 -0.2153  0.1523
 2418poe    c2311734   2.635   6.733   0.598 -0.4295 -0.1149 -0.0439
 2418poe     o211735   2.596   6.868   0.604  0.0144  0.0052  0.1733
 2418poe    c3111736   2.677   6.930   0.506 -0.0031  0.3371  0.3684
 2419poe    c3111737   0.908   3.964   5.708  0.3770 -0.3526  0.0900
 2419poe     o211738   0.776   4.011   5.701  0.4087 -0.3246 -0.4041
 2419poe    c2311739   0.755   4.150   5.716 -0.5734 -0.5384  0.3751
 2419poe    c2311740   0.607   4.190   5.707 -0.1891  0.7092 -0.6553
 2419poe     o211741   0.520   4.104   5.778  0.7491  0.5875  0.3698
 2419poe    c2311742   0.388   4.154   5.776  0.5713  0.0950 -0.7988
 2419poe    c2311743   0.302   4.047   5.845  0.7321  0.3227 -0.2448
 2419poe     o211744   0.315   3.925   5.775 -0.3854 -0.0968  0.2437
 2419poe    c2311745   0.236   3.827   5.838 -0.6352  0.0197  0.1139
 2419poe    c2311746   0.241   3.718   5.730  0.2306  0.9176 -0.7776
 2419poe     o211747   0.362   3.695   5.659  0.4679 -0.6805  0.0977
 2419poe    c3111748   0.333   3.604   5.555  0.4539 -0.6705  0.0929
 2420poe    c3111749   5.379   2.657   3.081  0.4237  0.1441 -0.1734
 2420poe     o211750   5.425   2.790   3.074  0.3070  0.2008  0.0929
 2420poe    c2311751   5.524   2.808   2.975 -0.0221  0.6637 -0.1540
 2420poe    c2311752   5.663   2.744   2.993 -0.5013 -0.3943 -0.1445
 2420poe     o211753   5.719   2.774   3.119 -0.3219 -0.0807 -0.2972
 2420poe    c2311754   5.826   2.687   3.150 -0.0875  0.2739 -0.1030
 2420poe    c2311755   5.883   2.699   3.292 -0.1265 -0.3199 -0.0349
 2420poe     o211756   5.972   2.805   3.321 -0.2488 -0.3021  0.2714
 2420poe    c2311757   6.016   2.800   3.455 -0.1750 -0.3699  0.2448
 2420poe    c2311758   6.093   2.927   3.495  0.1635 -0.3558 -0.4426
 2420poe     o211759   5.997   3.029   3.508 -0.2678 -0.8227  0.1034
 2420poe    c3111760   6.055   3.155   3.534 -0.1488 -0.8741  0.0833
 2421poe    c3111761   6.831   0.340   6.022 -0.1328 -0.0249  0.1332
 2421poe     o211762   6.836   0.479   6.000  0.6277 -0.0272  0.2663
 2421poe    c2311763   6.799   0.550   6.116 -0.1844 -0.0912  0.0537
 2421poe    c2311764   6.815   0.703   6.122 -0.0109 -0.1112  0.1099
 2421poe     o211765   6.951   0.737   6.116  0.0287 -0.3330 -0.3086
 2421poe    c2311766   6.985   0.871   6.140  0.0158 -0.2505 -0.7614
 2421poe    c2311767   7.136   0.873   6.106  0.1921  0.1868  0.0236
 2421poe     o211768   7.141   0.848   5.967 -0.4040  0.8309 -0.1258
 2421poe    c2311769   7.268   0.857   5.905 -0.3441  0.2057 -0.1011
 2421poe    c2311770   7.223   0.833   5.760 -0.2115  0.3485 -0.1663
 2421poe     o211771   7.137   0.721   5.758 -0.5530  0.6034  0.1664
 2421poe    c3111772   7.112   0.684   5.624 -0.1473 -0.2665  0.3225
 2422poe    c3111773   1.062   7.011   1.200  0.1878 -0.2694 -0.2086
 2422poe     o211774   1.137   7.084   1.295 -0.2502 -0.5115  0.3252
 2422poe    c2311775   1.049   7.173   1.360 -0.0779 -0.0019 -0.1391
 2422poe    c2311776   1.115   7.308   1.393  0.1596 -0.1205 -0.1325
 2422poe     o211777   1.130   7.373   1.269 -0.6007  0.1431 -0.0909
 2422poe    c2311778   1.211   7.488   1.286 -0.3583  0.0097 -0.3454
 2422poe    c2311779   1.293   7.538   1.165 -0.1521 -0.1015 -0.2516
 2422poe     o211780   1.389   7.440   1.132  0.3760  0.1466  0.5082
 2422poe    c2311781   1.502   7.502   1.074  0.2363 -0.4427 -0.4189
 2422poe    c2311782   1.523   7.491   0.922  0.3982 -0.2150 -0.4135
 2422poe     o211783   1.535   7.360   0.871 -0.5783 -0.4991  0.0592
 2422poe    c3111784   1.562   7.364   0.733 -0.5124  0.1865  0.0870
 2423poe    c3111785   4.998   2.868   1.583  0.1069  0.4577 -0.2066
 2423poe     o211786   5.106   2.836   1.668 -0.3401  0.4891  0.3795
 2423poe    c2311787   5.177   2.954   1.695 -0.0088  0.3393  0.1791
 2423poe    c2311788   5.326   2.930   1.725 -0.0529  0.1236  0.2257
 2423poe     o211789   5.353   2.839   1.830 -0.0271  0.0600  0.1638
 2423poe    c2311790   5.492   2.842   1.849  0.0215  0.4098 -0.2307
 2423poe    c2311791   5.545   2.721   1.929  0.1857  0.1546 -0.7190
 2423poe     o211792   5.537   2.599   1.859  0.0447 -0.2474 -0.0086
 2423poe    c2311793   5.592   2.487   1.924 -0.0083 -0.4631 -0.3312
 2423poe    c2311794   5.490   2.387   1.980  0.0039 -0.4462 -0.2785
 2423poe     o211795   5.407   2.445   2.079  0.3992  0.2393 -0.3445
 2423poe    c3111796   5.283   2.382   2.058  0.1622  0.6741 -0.2536
 2424poe    c3111797   4.989   6.123   1.993 -0.2724  0.2904 -0.0443
 2424poe     o211798   4.933   6.020   1.914  0.2492 -0.3174  0.3744
 2424poe    c2311799   5.029   5.995   1.813 -0.2273  0.7406 -0.3514
 2424poe    c2311800   5.010   5.866   1.731 -0.0213  0.5230 -0.0583
 2424poe     o211801   5.040   5.760   1.819 -0.4569  0.3059 -0.1693
 2424poe    c2311802   5.037   5.636   1.751  0.4488  0.1630  0.0387
 2424poe    c2311803   5.031   5.520   1.852 -0.2910  0.3092  0.1666
 2424poe     o211804   4.936   5.552   1.952  0.2133  0.4715  0.5980
 2424poe    c2311805   4.901   5.437   2.025  0.2080 -0.1119 -0.3040
 2424poe    c2311806   4.836   5.486   2.155 -0.0622 -0.1923 -0.4090
 2424poe     o211807   4.916   5.591   2.204 -0.3535 -0.2180  0.1355
 2424poe    c3111808   4.864   5.650   2.321  0.0187 -0.6239  0.5111
 2425poe    c3111809   6.610   4.459   5.754  0.0114  0.4591  0.1724
 2425poe     o211810   6.712   4.503   5.667 -0.0363  0.1664 -0.0313
 2425poe    c2311811   6.778   4.622   5.704  0.5526  0.0221 -0.6037
 2425poe    c2311812   6.895   4.654   5.608  0.5547  0.3021 -0.5094
 2425poe     o211813   6.945   4.528   5.568 -0.0435 -0.1373  0.0885
 2425poe    c2311814   7.057   4.541   5.483 -0.2513  0.5060 -0.0951
 2425poe    c2311815   7.033   4.476   5.345  0.0983 -0.1761  0.1577
 2425poe     o211816   6.973   4.349   5.356  0.2889 -0.3030 -0.2589
 2425poe    c2311817   6.977   4.270   5.239  0.4339 -0.3476 -0.2230
 2425poe    c2311818   6.883   4.148   5.244  0.0914 -0.0685  0.2987
 2425poe     o211819   6.755   4.186   5.291 -0.0568 -0.1630 -0.0257
 2425poe    c3111820   6.675   4.071   5.307 -0.3064  0.0099 -0.0255
 2426poe    c3111821   5.066   4.379   5.039 -0.2403  0.2619  0.7085
 2426poe     o211822   4.925   4.388   5.038 -0.2591 -0.0838 -0.1678
 2426poe    c2311823   4.880   4.426   4.910 -0.1268 -0.3677 -0.2995
 2426poe    c2311824   4.762   4.337   4.866 -0.4773  0.2240 -0.5706
 2426poe     o211825   4.646   4.347   4.945 -0.1449 -0.0570 -0.0436
 2426poe    c2311826   4.533   4.279   4.897 -0.1443 -0.1733  0.1166
 2426poe    c2311827   4.426   4.268   5.007 -0.3349  0.1377 -0.0369
 2426poe     o211828   4.437   4.386   5.083 -0.6133  0.3114 -0.2684
 2426poe    c2311829   4.349   4.371   5.192 -0.6279  0.9019 -0.1940
 2426poe    c2311830   4.335   4.506   5.265 -0.6260  0.1591  1.2105
 2426poe     o211831   4.452   4.544   5.335 -0.0922  0.1057  0.3646
 2426poe    c3111832   4.440   4.676   5.385 -0.4928  0.2488 -0.0999
 2427poe    c3111833   6.642   3.949   7.104  0.0841 -0.6335 -0.4767
 2427poe     o211834   6.632   4.052   7.007  0.4993  0.0127  0.1594
 2427poe    c2311835   6.568   4.162   7.068 -0.3508 -0.2403 -0.2656
 2427poe    c2311836   6.534   4.266   6.959 -0.0364 -0.0934 -0.2271
 2427poe     o211837   6.622   4.236   6.853  0.0619 -0.2106 -0.1118
 2427poe    c2311838   6.597   4.335   6.757 -0.1221  0.5966  0.7546
 2427poe    c2311839   6.706   4.371   6.654 -0.3287 -0.3907  0.1773
 2427poe     o211840   6.752   4.256   6.587  0.0235 -0.4633  0.5355
 2427poe    c2311841   6.855   4.309   6.508  0.4804 -0.3362  1.2129
 2427poe    c2311842   6.972   4.209   6.496  0.9085  0.2780  0.0546
 2427poe     o211843   7.041   4.213   6.619  0.5977  0.7694  0.2183
 2427poe    c3111844   7.144   4.116   6.607 -0.0156  0.0489  0.6932
 2428poe    c3111845   0.684   3.256   2.918  0.5975  0.0059 -0.3731
 2428poe     o211846   0.650   3.364   3.002  0.5251  0.0486 -0.4572
 2428poe    c2311847   0.754   3.458   2.988  1.1708 -0.4533  0.7945
 2428poe    c2311848   0.711   3.587   3.062 -0.5478 -0.0549 -0.8233
 2428poe     o211849   0.644   3.661   2.963 -0.9603  0.0242 -0.4885
 2428poe    c2311850   0.562   3.755   3.029 -0.1702  0.0645  0.4609
 2428poe    c2311851   0.481   3.838   2.927  0.0755 -0.5246 -0.2284
 2428poe     o211852   0.552   3.942   2.865 -0.1224  0.0846  0.5425
 2428poe    c2311853   0.470   4.004   2.768 -0.0555  0.1306  0.5150
 2428poe    c2311854   0.538   4.112   2.683 -0.1141 -0.2492 -0.0226
 2428poe     o211855   0.630   4.053   2.594  0.4295 -0.1065  0.4346
 2428poe    c3111856   0.724   4.145   2.544 -0.1003  0.3806  0.3276
 2429poe    c3111857   0.673   4.171   6.635  0.1552 -0.5121 -0.5896
 2429poe     o211858   0.773   4.172   6.734 -0.1527  0.2685 -0.2744
 2429poe    c2311859   0.781   4.042   6.789 -0.5019  0.5669  0.4956
 2429poe    c2311860   0.862   4.024   6.919 -0.3689 -0.2453  0.3066
 2429poe     o211861   0.806   4.059   7.043 -0.2850  0.1600  0.2340
 2429poe    c2311862   0.720   3.961   7.097 -0.2075  0.0157  0.0972
 2429poe    c2311863   0.586   4.010   7.155 -0.1679  0.5283 -0.2377
 2429poe     o211864   0.511   4.049   7.042 -0.3196 -0.0681 -0.3489
 2429poe    c2311865   0.381   4.089   7.078 -0.4186 -0.7637  0.0854
 2429poe    c2311866   0.294   4.135   6.959  0.4462  0.2892 -0.1547
 2429poe     o211867   0.334   4.254   6.894  0.2051  0.4216 -0.0643
 2429poe    c3111868   0.232   4.335   6.839  0.3062  0.3516 -0.3590
 2430poe    c3111869   6.585   2.407   3.333  0.2263  0.5205 -0.2152
 2430poe     o211870   6.699   2.426   3.414  0.0332 -0.0462  0.1952
 2430poe    c2311871   6.727   2.563   3.427  0.1731 -0.0503 -0.0624
 2430poe    c2311872   6.875   2.606   3.419  0.0774  0.3675  0.3593
 2430poe     o211873   6.956   2.555   3.522  0.4501  0.2130 -0.0062
 2430poe    c2311874   7.086   2.611   3.515  0.4563  0.2342  0.2789
 2430poe    c2311875   7.190   2.540   3.604  0.1483 -0.7732 -0.1434
 2430poe     o211876   7.161   2.567   3.740 -0.1217  0.3533 -0.4116
 2430poe    c2311877   7.259   2.528   3.833 -0.6308 -0.0526 -0.0423
 2430poe    c2311878   7.217   2.422   3.937  0.2000 -0.1316  0.2228
 2430poe     o211879   7.214   2.292   3.885  0.1216  0.0380 -0.1993
 2430poe    c3111880   7.110   2.221   3.949  0.2999  0.1262  0.1889
 2431poe    c3111881   5.478   3.525   6.788 -0.8711  0.0541 -0.7265
 2431poe     o211882   5.537   3.642   6.840 -0.2002 -0.5055 -0.1944
 2431poe    c2311883   5.498   3.689   6.967  0.9084 -0.0832 -0.0032
 2431poe    c2311884   5.560   3.614   7.086  0.8699  0.1436  0.1611
 2431poe     o211885   5.683   3.668   7.129  1.1195 -0.2088 -0.1046
 2431poe    c2311886   5.713   3.583   7.238 -0.2838 -0.9493 -0.2637
 2431poe    c2311887   5.846   3.645   7.284 -0.5147 -0.1880 -0.6024
 2431poe     o211888   5.844   3.776   7.336  0.4493 -0.3241 -0.1880
 2431poe    c2311889   5.951   3.856   7.291  0.0003 -0.2296 -1.1205
 2431poe    c2311890   5.925   4.008   7.291 -0.1137 -0.2246  0.5895
 2431poe     o211891   5.825   4.049   7.200  0.0240  0.3603  0.6994
 2431poe    c3111892   5.824   4.188   7.181  0.5936  0.2850  0.1115
 2432poe    c3111893   5.931   4.599   5.765 -0.3944 -0.1870 -0.3308
 2432poe     o211894   5.841   4.562   5.867 -0.3314 -0.1460 -0.2603
 2432poe    c2311895   5.869   4.443   5.938 -0.0056  0.2344  0.2591
 2432poe    c2311896   5.822   4.306   5.885 -0.0435  0.4474 -0.2663
 2432poe     o211897   5.682   4.295   5.894  0.0557 -0.3987  0.3769
 2432poe    c2311898   5.632   4.199   5.804  0.0526  0.1542 -0.2170
 2432poe    c2311899   5.481   4.205   5.775 -0.0050  0.0598  0.0670
 2432poe     o211900   5.448   4.327   5.713 -0.7959 -0.2545 -0.1432
 2432poe    c2311901   5.321   4.377   5.749 -0.4322  0.2474  0.4538
 2432poe    c2311902   5.257   4.482   5.656 -0.5083 -0.1757  0.0296
 2432poe     o211903   5.277   4.423   5.530 -0.2914  0.2001 -0.1097
 2432poe    c3111904   5.207   4.498   5.432 -0.2045 -0.0180 -0.3400
 2433poe    c3111905   3.610   3.620   1.625  0.2873 -0.3395 -0.4397
 2433poe     o211906   3.733   3.637   1.693 -0.1928 -0.0312  0.3692
 2433poe    c2311907   3.790   3.759   1.651  0.0203 -0.3366 -0.2481
 2433poe    c2311908   3.944   3.761   1.661  0.0217  0.3820 -0.3629
 2433poe     o211909   3.998   3.748   1.790 -0.0178  0.6138 -0.3239
 2433poe    c2311910   4.138   3.746   1.773  0.0443 -0.2285  0.2286
 2433poe    c2311911   4.217   3.753   1.905 -0.1633  0.2808  0.3286
 2433poe     o211912   4.184   3.646   1.991  0.2344 -0.0273  0.0987
 2433poe    c2311913   4.199   3.686   2.125 -0.2842  0.2933  0.0628
 2433poe    c2311914   4.134   3.579   2.215 -0.2763  0.0498 -0.2195
 2433poe     o211915   4.196   3.452   2.213 -0.2511  0.0449  0.5025
 2433poe    c3111916   4.156   3.366   2.316 -0.3768 -0.6406 -0.1100
 2434poe    c3111917   3.834   5.840   0.616 -0.0308  0.0102 -0.5199
 2434poe     o211918   3.821   5.977   0.585 -0.2339  0.1122  0.0051
 2434poe    c2311919   3.879   6.009   0.461 -0.2128  0.0515 -0.0008
 2434poe    c2311920   3.900   6.160   0.442 -0.1979  0.1336  0.6324
 2434poe     o211921   3.785   6.242   0.442 -0.2236  0.1305 -0.7548
 2434poe    c2311922   3.814   6.378   0.420 -0.7953  0.3818  0.0166
 2434poe    c2311923   3.687   6.453   0.466 -0.2939  1.1508  0.1820
 2434poe     o211924   3.668   6.444   0.605  0.3398 -0.0231  0.2086
 2434poe    c2311925   3.642   6.575   0.652 -0.0972 -0.0301 -0.0043
 2434poe    c2311926   3.528   6.598   0.753  0.0950 -0.0644  0.2240
 2434poe     o211927   3.400   6.575   0.699  0.1997 -0.9806  0.3552
 2434poe    c3111928   3.290   6.575   0.788 -0.1604  0.1184 -0.0785
 2435poe    c3111929   5.013   1.275   1.306 -0.0268 -0.5315 -0.0559
 2435poe     o211930   4.925   1.380   1.271  0.2246 -0.3234 -0.0685
 2435poe    c2311931   4.832   1.335   1.175  0.4950 -0.2858 -0.3507
 2435poe    c2311932   4.712   1.429   1.156  0.3448 -0.5463 -0.6957
 2435poe     o211933   4.738   1.564   1.125 -0.4921 -0.1918  0.1106
 2435poe    c2311934   4.784   1.581   0.993  0.0429 -0.5775  0.2435
 2435poe    c2311935   4.715   1.705   0.933  0.6053 -0.1169  0.5289
 2435poe     o211936   4.747   1.824   1.000 -0.2241  0.2738  0.2544
 2435poe    c2311937   4.676   1.937   0.955 -0.0519  0.0069 -0.7244
 2435poe    c2311938   4.719   2.059   1.038 -0.3413 -0.1040 -0.4049
 2435poe     o211939   4.672   2.054   1.171  0.2515  0.2928 -0.1752
 2435poe    c3111940   4.723   2.159   1.249 -0.1162  0.1802  0.2195
 2436poe    c3111941   5.451   2.399   3.907 -0.0798  0.0595 -0.3401
 2436poe     o211942   5.395   2.280   3.855  0.6625 -0.4602  0.0244
 2436poe    c2311943   5.402   2.285   3.714 -0.3454  0.4253 -0.0090
 2436poe    c2311944   5.310   2.178   3.654  0.3239 -0.0451 -0.2086
 2436poe     o211945   5.179   2.214   3.692  0.3315 -0.3776  0.1293
 2436poe    c2311946   5.103   2.118   3.621  0.1683  0.2158 -0.5039
 2436poe    c2311947   4.965   2.133   3.687  0.2006 -0.7549 -0.2053
 2436poe     o211948   4.976   2.139   3.827 -0.0440  0.1496 -0.2195
 2436poe    c2311949   4.864   2.092   3.898 -0.1318  0.6148 -0.0474
 2436poe    c2311950   4.891   2.098   4.050 -0.8978  0.4013  0.0997
 2436poe     o211951   4.996   2.010   4.082 -1.1153  0.1713  0.1863
 2436poe    c3111952   4.997   1.972   4.217 -0.3218  0.8690  0.3863
 2437poe    c3111953   3.804   1.533   4.647 -0.0671 -0.0607 -0.0840
 2437poe     o211954   3.762   1.574   4.519 -0.4974  0.3712  0.1897
 2437poe    c2311955   3.855   1.563   4.413  0.0862 -0.0773  0.7413
 2437poe    c2311956   3.997   1.622   4.416  0.1033 -0.0703 -0.0968
 2437poe     o211957   4.005   1.761   4.437  0.2014  0.0083 -0.6349
 2437poe    c2311958   4.129   1.826   4.427  0.4858 -0.4897 -0.3560
 2437poe    c2311959   4.188   1.825   4.285  0.4758  0.2657 -0.3723
 2437poe     o211960   4.101   1.887   4.193 -0.3079  0.2631  0.3584
 2437poe    c2311961   4.188   1.954   4.104 -0.2799  0.1788  0.3222
 2437poe    c2311962   4.172   2.104   4.076  0.0993  0.2225  0.3346
 2437poe     o211963   4.037   2.109   4.035  0.1225 -0.0196  0.2306
 2437poe    c3111964   4.036   2.219   3.947  0.5216 -0.4376 -0.3021
 2438poe    c3111965   2.654   1.149   4.244 -0.2720  0.3308 -0.5731
 2438poe     o211966   2.777   1.146   4.175  0.0432  0.1364 -0.0071
 2438poe    c2311967   2.759   1.110   4.040  0.4746  0.9567 -0.2868
 2438poe    c2311968   2.899   1.104   3.977  0.5426 -0.4390 -0.0214
 2438poe     o211969   2.969   1.214   4.031  0.1288 -0.3212  0.2812
 2438poe    c2311970   3.103   1.204   3.988  0.0672 -0.3092  0.0852
 2438poe    c2311971   3.182   1.326   4.040 -0.0777 -0.0816 -0.2220
 2438poe     o211972   3.177   1.309   4.180  0.6685 -0.0485 -0.1867
 2438poe    c2311973   3.280   1.380   4.245  0.2440  0.2660  0.1491
 2438poe    c2311974   3.263   1.357   4.396 -0.0839  0.2988  0.1179
 2438poe     o211975   3.243   1.224   4.440 -0.3066  0.3505  0.1760
 2438poe    c3111976   3.372   1.180   4.476 -0.3470  0.6230  0.6597
 2439poe    c3111977   0.025   2.142   2.491 -0.1056  0.0651  0.1063
 2439poe     o211978  -0.016   2.011   2.521  0.8688 -0.2441  0.1431
 2439poe    c2311979   0.045   1.911   2.443 -0.0152  0.2498 -1.2087
 2439poe    c2311980  -0.029   1.776   2.441  0.0877  0.1560  0.2748
 2439poe     o211981  -0.071   1.750   2.573  0.1016 -0.3145  0.1882
 2439poe    c2311982  -0.157   1.639   2.579  0.0533 -0.2946 -0.1204
 2439poe    c2311983  -0.222   1.595   2.712 -0.0216  0.1489 -0.0068
 2439poe     o211984  -0.273   1.716   2.764 -0.3148  0.1503 -0.2918
 2439poe    c2311985  -0.360   1.694   2.872 -0.2391  0.5588 -0.1482
 2439poe    c2311986  -0.386   1.827   2.946  0.1185  0.3772  0.3100
 2439poe     o211987  -0.274   1.911   2.950  0.1743  0.2881  0.6962
 2439poe    c3111988  -0.296   2.027   3.027 -0.3157  0.0186  0.9625
 2440poe    c3111989   2.708   6.961   4.819 -0.4472  0.2254 -0.0205
 2440poe     o211990   2.706   6.940   4.680 -0.2258  0.2633 -0.0301
 2440poe    c2311991   2.832   6.914   4.622 -0.2833 -0.1136  0.0097
 2440poe    c2311992   2.814   6.902   4.469 -0.4945 -0.2334  0.0451
 2440poe     o211993   2.719   6.803   4.435 -0.1614 -0.5365 -0.0065
 2440poe    c2311994   2.685   6.786   4.299  0.1990  0.3696 -0.2185
 2440poe    c2311995   2.602   6.903   4.243 -0.1105  0.0724 -0.3819
 2440poe     o211996   2.484   6.922   4.317  0.0657 -0.2464 -0.0155
 2440poe    c2311997   2.382   6.950   4.224  0.0777 -0.6762 -0.1605
 2440poe    c2311998   2.251   6.955   4.303  0.3751 -0.0392  0.3031
 2440poe     o211999   2.274   7.024   4.424  0.3843  0.0127  0.2719
 2440poe    c3112000   2.162   7.015   4.510  0.1569  0.2713  0.0061
 2441poe    c3112001   0.879   0.953   2.039  0.6048  0.0960  0.2751
 2441poe     o212002   0.865   0.816   2.071 -0.2829  0.0594 -0.2524
 2441poe    c2312003   0.815   0.763   1.951 -0.3394  0.2647 -0.3204
 2441poe    c2312004   0.825   0.609   1.964 -0.2697  0.2784 -0.2162
 2441poe     o212005   0.731   0.567   2.060 -0.5422  0.4083 -0.4266
 2441poe    c2312006   0.732   0.426   2.059 -0.2513  0.4069 -0.0471
 2441poe    c2312007   0.702   0.377   2.202  0.3995 -0.1654 -0.1015
 2441poe     o212008   0.812   0.428   2.273  0.2067 -0.2289  0.2416
 2441poe    c2312009   0.831   0.346   2.386 -0.0390 -0.3342  0.2080
 2441poe    c2312010   0.957   0.397   2.459  0.2290 -0.1499 -0.3788
 2441poe     o212011   0.932   0.534   2.477 -0.0091 -0.2056 -0.2826
 2441poe    c3112012   1.024   0.590   2.569 -0.5413 -0.0792  0.1778
 2442poe    c3112013   0.906   5.721   4.535  0.0330 -0.0167  0.2764
 2442poe     o212014   0.957   5.634   4.634  0.5173 -0.3405 -0.2520
 2442poe    c2312015   1.022   5.521   4.580  0.6198 -0.2383 -0.3435
 2442poe    c2312016   1.054   5.403   4.673 -0.2950 -0.0832  0.1780
 2442poe     o212017   1.173   5.411   4.748 -0.1128 -0.2381 -0.0958
 2442poe    c2312018   1.158   5.322   4.856 -0.4324  0.3410  0.3396
 2442poe    c2312019   1.287   5.238   4.868 -0.4306  0.3972  0.7390
 2442poe     o212020   1.390   5.327   4.905 -0.1740  0.2787  0.3236
 2442poe    c2312021   1.504   5.255   4.947 -0.4834 -0.3203  0.1510
 2442poe    c2312022   1.589   5.333   5.050 -0.2579  0.3328 -0.5257
 2442poe     o212023   1.646   5.448   4.991  0.1895  0.3255 -0.1078
 2442poe    c3112024   1.786   5.450   5.010  0.2385  0.1457 -0.4506
 2443poe    c3112025   1.451   6.369   3.213  0.5852  0.0299 -0.1916
 2443poe     o212026   1.480   6.374   3.075 -0.2013 -0.1533 -0.3673
 2443poe    c2312027   1.378   6.307   3.002 -0.4114  0.0818 -0.2909
 2443poe    c2312028   1.409   6.299   2.852  0.8018 -0.1820 -0.0369
 2443poe     o212029   1.451   6.430   2.819  0.1775 -0.0652 -0.3729
 2443poe    c2312030   1.496   6.438   2.685 -0.0354  0.3163 -0.4229
 2443poe    c2312031   1.537   6.586   2.674  0.0424  0.3070 -0.2674
 2443poe     o212032   1.634   6.616   2.772 -0.1201  0.3967 -0.1339
 2443poe    c2312033   1.676   6.748   2.745  0.2149  0.2233 -0.4645
 2443poe    c2312034   1.752   6.810   2.865  0.2402 -0.2590 -0.2266
 2443poe     o212035   1.865   6.727   2.878  0.1440 -0.3821 -0.1781
 2443poe    c3112036   1.967   6.799   2.943 -0.0821 -0.2430  0.0256
 2444poe    c3112037   5.327   2.351   6.505  0.0812  0.2431 -0.1065
 2444poe     o212038   5.222   2.328   6.596 -0.2513  0.1575 -0.5103
 2444poe    c2312039   5.261   2.255   6.710  0.2534  0.2698 -0.6112
 2444poe    c2312040   5.136   2.194   6.777  0.4099  0.3114 -0.2783
 2444poe     o212041   5.050   2.305   6.769  0.2093  0.1931  0.2491
 2444poe    c2312042   4.920   2.270   6.813  0.0251 -0.4632 -0.7799
 2444poe    c2312043   4.804   2.362   6.771  0.4768  0.2792 -0.4426
 2444poe     o212044   4.813   2.492   6.824  0.2824  0.0746  0.0998
 2444poe    c2312045   4.727   2.573   6.746  0.0001 -0.0927  0.2340
 2444poe    c2312046   4.762   2.723   6.757  0.1560 -0.1068 -0.0615
 2444poe     o212047   4.892   2.762   6.719 -0.0715  0.3413 -0.3957
 2444poe    c3112048   4.925   2.895   6.754  0.3167  0.3107 -0.6425
 2445poe    c3112049   4.169   1.311   4.050 -0.0785  0.1922 -0.2058
 2445poe     o212050   4.220   1.180   4.047 -0.6369 -0.0397  0.1912
 2445poe    c2312051   4.266   1.149   4.177 -0.0768 -0.5983 -0.1372
 2445poe    c2312052   4.353   1.022   4.191  0.5226 -0.0900  0.8808
 2445poe     o212053   4.266   0.912   4.172  0.2185  0.3071 -0.0982
 2445poe    c2312054   4.354   0.804   4.191 -0.0853  0.0966  0.1318
 2445poe    c2312055   4.281   0.677   4.145  0.5646  0.0943 -0.9307
 2445poe     o212056   4.200   0.702   4.033 -0.0800  0.0023 -0.4885
 2445poe    c2312057   4.155   0.588   3.963 -0.1142 -0.1393 -0.2397
 2445poe    c2312058   4.058   0.641   3.855  0.0867  0.0921 -0.3081
 2445poe     o212059   3.963   0.728   3.912  0.0325 -0.0735 -0.1456
 2445poe    c3112060   3.885   0.787   3.811  0.1299  0.0930 -0.1229
 2446poe    c3112061   3.567   2.065   2.273 -0.1917  0.2411 -0.2673
 2446poe     o212062   3.459   1.976   2.253 -0.3174  0.3827 -0.2245
 2446poe    c2312063   3.511   1.852   2.210 -0.1471  0.2206  0.4352
 2446poe    c2312064   3.402   1.760   2.153 -0.3328  0.3091  0.6481
 2446poe     o212065   3.319   1.712   2.257 -0.3867 -0.3571  0.3014
 2446poe    c2312066   3.201   1.662   2.199 -0.2633 -0.0690 -0.2013
 2446poe    c2312067   3.141   1.567   2.304  0.0969 -0.1161 -0.0381
 2446poe     o212068   3.131   1.647   2.421 -0.1294  0.6827 -0.5935
 2446poe    c2312069   3.082   1.563   2.523  0.3890  0.4773 -0.5107
 2446poe    c2312070   3.008   1.651   2.626 -0.1691 -0.2281 -0.3002
 2446poe     o212071   3.102   1.750   2.661 -0.1870 -0.3831  0.1808
 2446poe    c3112072   3.031   1.841   2.742 -0.4896 -0.1759 -0.3117
 2447poe    c3112073   3.221   2.314   2.412 -0.1856 -0.1702  0.3441
 2447poe     o212074   3.279   2.278   2.536  0.1932 -0.4877  0.0770
 2447poe    c2312075   3.190   2.209   2.621 -0.0267  0.0960  0.3283
 2447poe    c2312076   3.281   2.169   2.739 -0.3906 -0.3519  0.4593
 2447poe     o212077   3.376   2.072   2.703 -0.0666  0.0354  0.2632
 2447poe    c2312078   3.467   2.048   2.808  0.0700 -0.1112  0.1120
 2447poe    c2312079   3.598   1.991   2.750  0.0344  0.2256 -0.3007
 2447poe     o212080   3.670   2.072   2.659 -0.3184  0.6414 -0.2124
 2447poe    c2312081   3.796   2.024   2.617 -0.5481  0.2692 -0.4916
 2447poe    c2312082   3.880   2.126   2.539 -0.6315  0.5313 -0.2438
 2447poe     o212083   3.912   2.244   2.609 -0.6477  0.2729  0.1971
 2447poe    c3112084   4.019   2.213   2.695 -0.5378 -0.2916 -0.1414
 2448poe    c3112085   5.236   5.188   4.181  0.2658 -0.6907 -0.1013
 2448poe     o212086   5.231   5.102   4.293 -0.3129 -0.1945  0.2624
 2448poe    c2312087   5.171   4.978   4.261  0.3401 -0.5288  0.3115
 2448poe    c2312088   5.176   4.899   4.393  0.1432  0.0092  0.6453
 2448poe     o212089   5.057   4.931   4.461 -0.3184 -0.0772 -0.1099
 2448poe    c2312090   5.013   4.824   4.541  0.4808 -0.0361  0.3921
 2448poe    c2312091   4.861   4.813   4.565  0.4220  0.2526  0.1552
 2448poe     o212092   4.816   4.922   4.642  0.5428  0.0640  0.4915
 2448poe    c2312093   4.690   4.897   4.701  0.2279  0.1703 -0.1320
 2448poe    c2312094   4.645   5.023   4.776 -0.0740  0.0226 -0.0640
 2448poe     o212095   4.623   5.127   4.684  0.2775 -0.1140 -0.3021
 2448poe    c3112096   4.589   5.241   4.761  0.3364  0.3206 -0.9077
 2449poe    c3112097   3.917   2.389   4.838 -0.5089 -0.0607  0.3131
 2449poe     o212098   3.831   2.499   4.857  0.2270  0.5078  0.3711
 2449poe    c2312099   3.756   2.457   4.969  0.2943  0.4178  0.3823
 2449poe    c2312100   3.647   2.563   4.990  0.1168  0.3990 -0.4167
 2449poe     o212101   3.550   2.561   4.888 -0.4300  0.0450  0.1046
 2449poe    c2312102   3.438   2.641   4.920 -0.2719  0.1636  0.3683
 2449poe    c2312103   3.321   2.624   4.820 -0.4562  0.3964  0.5422
 2449poe     o212104   3.329   2.692   4.697  0.2666  0.3213  0.5432
 2449poe    c2312105   3.224   2.671   4.606  1.0356  0.1795 -0.3321
 2449poe    c2312106   3.218   2.762   4.482  0.1095  0.3728 -0.1582
 2449poe     o212107   3.320   2.728   4.390 -0.2151 -0.3802 -0.2444
 2449poe    c3112108   3.281   2.765   4.260  0.1944 -0.0110 -0.2657
 2450poe    c3112109   0.019   4.843   5.175 -0.4189  0.3410  0.4587
 2450poe     o212110   0.107   4.932   5.240  0.2538 -0.1440  0.2212
 2450poe    c2312111   0.094   4.914   5.379 -0.5641  0.1901  0.1929
 2450poe    c2312112   0.159   5.029   5.457 -0.3622  0.2264 -0.0256
 2450poe     o212113   0.294   5.039   5.419 -0.1951  0.1006  0.5298
 2450poe    c2312114   0.345   5.165   5.457  0.3615  0.1674 -0.4030
 2450poe    c2312115   0.496   5.161   5.428  0.4940  0.3762  0.2407
 2450poe     o212116   0.523   5.127   5.294  0.5557 -0.2377  0.4071
 2450poe    c2312117   0.645   5.186   5.255  0.6629 -0.4273  0.4538
 2450poe    c2312118   0.626   5.200   5.102  0.5748 -0.1402  0.4904
 2450poe     o212119   0.565   5.081   5.056 -0.1231  0.4193 -0.0320
 2450poe    c3112120   0.566   5.073   4.916 -0.0005  0.1029 -0.0144
 2451poe    c3112121   1.433   1.483   1.720 -0.3687 -0.2189 -0.0123
 2451poe     o212122   1.486   1.608   1.682  0.1524 -0.2233  0.6995
 2451poe    c2312123   1.456   1.694   1.790 -0.0863  0.4220  0.1177
 2451poe    c2312124   1.525   1.826   1.752 -0.0787  0.4402  0.1951
 2451poe     o212125   1.619   1.797   1.651  0.0376  0.6386  0.2467
 2451poe    c2312126   1.694   1.915   1.628 -0.2173  0.6819 -0.3614
 2451poe    c2312127   1.822   1.900   1.543  0.0693  0.3358  0.1237
 2451poe     o212128   1.788   1.830   1.425  0.0185 -0.1586  0.4297
 2451poe    c2312129   1.899   1.840   1.339 -0.4087  0.2970 -0.0795
 2451poe    c2312130   1.879   1.738   1.226  0.8187 -0.2195  0.1505
 2451poe     o212131   1.890   1.610   1.283 -1.2014 -0.2662  0.5186
 2451poe    c3112132   1.929   1.515   1.186  0.5734  0.5594  0.3820
 2452poe    c3112133   0.432   1.156   5.984 -0.3094 -0.6810 -0.5402
 2452poe     o212134   0.470   1.112   6.112  0.8739  0.0956 -0.6055
 2452poe    c2312135   0.585   1.030   6.110  1.1054  0.4026 -0.0327
 2452poe    c2312136   0.608   0.949   6.240  0.7065  0.2256 -0.0704
 2452poe     o212137   0.627   1.037   6.349  0.4773 -0.1534  0.2751
 2452poe    c2312138   0.590   0.971   6.468 -0.7325 -0.1934 -0.1125
 2452poe    c2312139   0.598   1.068   6.586  0.0739 -0.1120 -0.2292
 2452poe     o212140   0.503   1.172   6.573 -0.2652 -0.2578  0.9584
 2452poe    c2312141   0.528   1.276   6.665 -0.4521  0.3422  0.3374
 2452poe    c2312142   0.441   1.397   6.629 -0.3683  0.1091 -0.6764
 2452poe     o212143   0.301   1.383   6.642 -0.2800  0.0204  0.2084
 2452poe    c3112144   0.232   1.500   6.607 -0.3459 -0.0982 -0.0638
 2453poe    c3112145   4.820   7.008   1.961  0.1063  0.3824  0.0043
 2453poe     o212146   4.808   7.019   2.101 -0.0328 -0.0482  0.0257
 2453poe    c2312147   4.779   7.152   2.138 -0.7443 -0.0996 -0.3282
 2453poe    c2312148   4.714   7.158   2.277  0.1544  0.2090  0.0857
 2453poe     o212149   4.774   7.056   2.355  0.1783  0.3612  0.2665
 2453poe    c2312150   4.693   7.038   2.469 -0.0113  0.3115  0.1237
 2453poe    c2312151   4.755   6.931   2.561  0.0775  0.3202  0.0739
 2453poe     o212152   4.749   6.807   2.494  0.3271  0.0784  0.4959
 2453poe    c2312153   4.686   6.711   2.576 -0.3715  0.0258 -0.0914
 2453poe    c2312154   4.709   6.572   2.515 -0.2717 -0.1787  0.4058
 2453poe     o212155   4.845   6.536   2.505 -0.2801  0.1767 -1.3202
 2453poe    c3112156   4.855   6.408   2.445  0.9473 -0.2299 -0.2952
 2454poe    c3112157   6.238   5.033   0.063 -0.0402  0.0492  0.7806
 2454poe     o212158   6.100   5.015   0.040  0.0972 -0.2363  0.1741
 2454poe    c2312159   6.053   4.886   0.072  0.1883 -0.3906 -0.2947
 2454poe    c2312160   5.906   4.883   0.028  0.0756  0.1651  0.0298
 2454poe     o212161   5.860   5.005   0.081  0.2041  0.2274 -0.0022
 2454poe    c2312162   5.725   5.026   0.048  0.0921  0.4473  0.5846
 2454poe    c2312163   5.693   5.153   0.129 -0.5302  0.3260  0.5333
 2454poe     o212164   5.763   5.264   0.078 -0.0018 -0.5360 -0.6656
 2454poe    c2312165   5.709   5.380   0.138  0.4776 -0.3959 -0.4989
 2454poe    c2312166   5.747   5.512   0.068 -0.1423  0.2717  0.4108
 2454poe     o212167   5.888   5.511   0.061 -0.1117  0.2723  0.9656
 2454poe    c3112168   5.937   5.620  -0.014  0.1411 -0.4048  0.1276
 2455poe    c3112169   6.620   5.973   0.342  0.0645 -0.3315  0.1818
 2455poe     o212170   6.614   6.070   0.445 -0.1262 -0.1147 -0.0328
 2455poe    c2312171   6.482   6.106   0.479 -0.0894  0.6875 -0.6995
 2455poe    c2312172   6.485   6.230   0.571  0.1169  0.5973 -0.5822
 2455poe     o212173   6.545   6.341   0.508  0.3323  0.6306 -0.3186
 2455poe    c2312174   6.519   6.465   0.571 -0.7561  0.1777  0.1609
 2455poe    c2312175   6.586   6.577   0.488 -0.2697  0.3062  0.7144
 2455poe     o212176   6.721   6.570   0.527 -0.0259  0.3049 -0.1023
 2455poe    c2312177   6.812   6.650   0.456 -0.0261  0.2636 -0.1495
 2455poe    c2312178   6.950   6.624   0.519 -0.4937 -0.0175  0.7736
 2455poe     o212179   6.950   6.487   0.551 -0.3856 -0.1673  0.1397
 2455poe    c3112180   7.078   6.435   0.578 -0.5409 -0.5468  0.1597
 2456poe    c3112181   4.913   3.026   0.731  0.1645 -0.3013  0.1405
 2456poe     o212182   5.006   2.946   0.661  0.2814  0.2379 -0.3211
 2456poe    c2312183   4.944   2.873   0.558 -0.6652  0.5146  0.0406
 2456poe    c2312184   5.015   2.742   0.517  0.0466  0.6018  0.9532
 2456poe     o212185   5.139   2.772   0.457 -0.2623 -0.0202 -0.0218
 2456poe    c2312186   5.189   2.648   0.411 -0.0619 -0.1623  0.5636
 2456poe    c2312187   5.320   2.652   0.329  0.1006 -0.5720  0.8034
 2456poe     o212188   5.433   2.682   0.408  0.1509  0.2583  0.4240
 2456poe    c2312189   5.548   2.680   0.327  0.0907  0.5327  0.3335
 2456poe    c2312190   5.576   2.819   0.267 -0.0615  0.4074 -0.0282
 2456poe     o212191   5.483   2.867   0.172 -0.0209 -0.1167 -0.3330
 2456poe    c3112192   5.552   2.969   0.103  0.2788  0.2782  0.5495
 2457poe    c3112193   3.162   4.235   3.013 -0.1174 -0.1447 -0.5081
 2457poe     o212194   3.041   4.200   2.951 -0.2753  0.5730 -0.6148
 2457poe    c2312195   2.969   4.121   3.043  0.3060  0.4057 -0.2973
 2457poe    c2312196   2.856   4.050   2.965 -0.2898  0.2711  0.6701
 2457poe     o212197   2.765   4.150   2.925  0.0103  0.2098 -0.1969
 2457poe    c2312198   2.642   4.104   2.875  0.1581 -0.2863 -0.1061
 2457poe    c2312199   2.655   4.053   2.730 -0.1670 -0.2393 -0.1520
 2457poe     o212200   2.687   4.163   2.647 -0.1989  0.0161  0.1689
 2457poe    c2312201   2.710   4.108   2.519 -0.1775 -0.1190  0.2307
 2457poe    c2312202   2.710   4.229   2.424  0.7366 -0.3381 -0.0636
 2457poe     o212203   2.774   4.333   2.495 -0.0584  0.2368 -0.1720
 2457poe    c3112204   2.775   4.452   2.419 -0.1311  0.4600  0.1729
 2458poe    c3112205   4.674   6.435   5.931  0.0189 -0.0042  0.3296
 2458poe     o212206   4.708   6.400   5.798 -0.1009  0.5444  0.1532
 2458poe    c2312207   4.794   6.484   5.724  0.5662 -0.1066  0.1765
 2458poe    c2312208   4.790   6.446   5.575 -0.5268  0.7076 -0.0184
 2458poe     o212209   4.654   6.425   5.548 -0.5087  0.3649  0.1489
 2458poe    c2312210   4.627   6.381   5.416 -0.0014  0.3187  0.0601
 2458poe    c2312211   4.476   6.367   5.393  0.0988 -0.5171 -0.1093
 2458poe     o212212   4.435   6.296   5.508  0.5342 -0.1799  0.2583
 2458poe    c2312213   4.309   6.241   5.476  0.5283  0.0260 -0.0842
 2458poe    c2312214   4.239   6.182   5.600 -0.0092  0.0798 -0.3627
 2458poe     o212215   4.211   6.271   5.705 -0.0711  0.2929 -0.5580
 2458poe    c3112216   4.146   6.208   5.814 -0.4884  1.0189 -0.3819
 2459poe    c3112217   0.778   2.014   6.431  0.3905 -0.5346  0.2273
 2459poe     o212218   0.757   2.119   6.522 -0.0942 -0.2155 -0.2481
 2459poe    c2312219   0.633   2.099   6.585  0.0185 -0.5504 -0.1298
 2459poe    c2312220   0.605   2.233   6.657 -0.2899 -0.5212 -0.3005
 2459poe     o212221   0.703   2.263   6.754 -0.4650 -0.1113 -0.2479
 2459poe    c2312222   0.672   2.382   6.823  0.0839 -0.1324  0.0428
 2459poe    c2312223   0.799   2.430   6.896 -0.3388  0.2400  0.5341
 2459poe     o212224   0.836   2.319   6.975 -0.5133 -0.2140 -0.0167
 2459poe    c2312225   0.961   2.340   7.038 -0.7474  0.3309  0.2710
 2459poe    c2312226   1.008   2.212   7.110 -0.2641  0.1523 -0.3512
 2459poe     o212227   0.961   2.096   7.044 -0.2616 -0.5700  0.8793
 2459poe    c3112228   1.033   1.978   7.073 -0.3546 -0.8738 -0.1151
 2460poe    c3112229   3.787   3.420   5.538  0.7782 -0.0712  0.0867
 2460poe     o212230   3.756   3.306   5.616  0.5518 -0.0233  0.0683
 2460poe    c2312231   3.835   3.191   5.590 -0.2822 -0.5289 -0.2664
 2460poe    c2312232   3.860   3.088   5.701 -0.1544  0.1288  0.3226
 2460poe     o212233   3.943   3.131   5.807  0.6335 -0.2079 -0.1494
 2460poe    c2312234   3.972   3.019   5.888  0.3995 -0.2460 -0.1177
 2460poe    c2312235   4.068   3.065   5.999  0.1542  0.1552 -0.0680
 2460poe     o212236   4.002   3.146   6.094 -0.0648 -0.1289  0.0223
 2460poe    c2312237   4.095   3.177   6.195 -0.1366 -0.0950  0.0782
 2460poe    c2312238   4.042   3.266   6.309  0.1479 -0.3050  0.3774
 2460poe     o212239   4.014   3.400   6.275  0.1685 -0.3647  0.1244
 2460poe    c3112240   3.955   3.468   6.384 -0.0589  0.4792 -0.5166
 2461poe    c3112241   2.029   4.255   3.528  0.0378 -0.1577 -0.6402
 2461poe     o212242   2.008   4.385   3.577  0.2959 -0.2597 -0.2556
 2461poe    c2312243   1.901   4.444   3.506  0.1689 -0.0570  0.0959
 2461poe    c2312244   1.886   4.591   3.549 -0.7323 -0.1897  0.2533
 2461poe     o212245   1.913   4.624   3.683 -0.1316  0.4485 -0.0169
 2461poe    c2312246   1.875   4.757   3.709  0.2993  0.5579  0.0656
 2461poe    c2312247   1.909   4.817   3.846  0.2526  0.3441  0.1713
 2461poe     o212248   1.813   4.773   3.940  0.1415 -0.0121 -0.1100
 2461poe    c2312249   1.845   4.805   4.073 -0.2218  0.3909 -0.1195
 2461poe    c2312250   1.774   4.730   4.188  0.3505  0.3324  0.1989
 2461poe     o212251   1.799   4.592   4.203 -0.0934  0.2189 -0.0900
 2461poe    c3112252   1.681   4.529   4.158  0.1445 -0.4398  0.1995
 2462poe    c3112253   2.972   2.606   6.815  0.2511  0.2638  0.2897
 2462poe     o212254   2.973   2.483   6.747  0.0634  0.3438  0.1385
 2462poe    c2312255   2.949   2.508   6.610  0.2427  0.1549  0.0713
 2462poe    c2312256   2.908   2.375   6.543  0.0827  0.1421  0.1929
 2462poe     o212257   3.016   2.285   6.538 -0.0960 -0.1049  0.7547
 2462poe    c2312258   3.018   2.241   6.404 -0.0659  0.5596  0.5324
 2462poe    c2312259   3.150   2.164   6.385 -0.3245  0.2259  0.0765
 2462poe     o212260   3.142   2.034   6.439  0.3390  0.1407 -0.0222
 2462poe    c2312261   3.255   1.950   6.422  0.2812  0.0337  0.1135
 2462poe    c2312262   3.213   1.804   6.444 -0.5016  0.1883 -0.2985
 2462poe     o212263   3.186   1.757   6.574  0.0350  0.0135 -0.2497
 2462poe    c3112264   3.157   1.620   6.558 -0.3290  0.0517  0.0630
 2463poe    c3112265   1.970   2.272   5.842 -0.6443  0.1170 -0.6544
 2463poe     o212266   2.076   2.297   5.752  0.2447  0.0545  0.3659
 2463poe    c2312267   2.037   2.390   5.654  0.2809 -0.1057  0.1980
 2463poe    c2312268   2.133   2.376   5.535  0.4852 -0.2884  0.3818
 2463poe     o212269   2.103   2.257   5.464  0.5680 -0.3327  0.4218
 2463poe    c2312270   2.201   2.238   5.364  0.1429  0.0896 -0.0825
 2463poe    c2312271   2.260   2.098   5.342  0.0826  0.0643 -0.0828
 2463poe     o212272   2.173   2.002   5.286  0.2522 -0.0940 -0.0769
 2463poe    c2312273   2.121   1.912   5.381  0.1863 -0.5183 -0.5098
 2463poe    c2312274   2.018   1.828   5.303 -0.4427  0.0627 -0.3178
 2463poe     o212275   1.903   1.907   5.281 -0.2599  0.3748 -0.1590
 2463poe    c3112276   1.804   1.841   5.206  0.5944 -0.3877 -0.6429
 2464poe    c3112277   5.252   4.765   1.162  0.0330 -0.2282  0.0427
 2464poe     o212278   5.362   4.839   1.115 -0.1460 -0.0573 -0.1135
 2464poe    c2312279   5.468   4.772   1.180 -0.3557 -0.2426  0.0436
 2464poe    c2312280   5.596   4.840   1.125 -0.7237 -0.0189 -0.5535
 2464poe     o212281   5.618   4.785   0.997  0.4070  0.2761 -0.4939
 2464poe    c2312282   5.734   4.834   0.933  0.2934  0.4814 -0.5433
 2464poe    c2312283   5.783   4.765   0.805 -0.1876 -0.4382 -0.2445
 2464poe     o212284   5.697   4.769   0.693 -0.3879  0.0673 -0.0749
 2464poe    c2312285   5.754   4.715   0.576 -0.3840 -0.0503 -0.0184
 2464poe    c2312286   5.640   4.704   0.473 -0.4761  1.0036 -0.0442
 2464poe     o212287   5.532   4.646   0.542  0.1635 -0.3554 -0.1347
 2464poe    c3112288   5.436   4.648   0.439 -0.5283  0.1591  0.4989
 2465poe    c3112289   3.538   6.973   0.543 -0.1671 -0.4717  0.4653
 2465poe     o212290   3.621   6.992   0.431 -0.2396  0.2552  0.5313
 2465poe    c2312291   3.655   6.877   0.357  0.0556  0.2380  0.6898
 2465poe    c2312292   3.775   6.898   0.263 -0.3229  0.1354  0.1818
 2465poe     o212293   3.743   7.019   0.197  0.1423 -0.0150 -0.3274
 2465poe    c2312294   3.843   7.054   0.104  0.6574 -0.1648  0.1633
 2465poe    c2312295   3.818   7.197   0.051  0.3021 -0.2566  0.0811
 2465poe     o212296   3.801   7.282   0.162 -0.1894 -0.1612 -0.0642
 2465poe    c2312297   3.801   7.415   0.116  0.5250 -0.2139 -0.2281
 2465poe    c2312298   3.772   7.510   0.233  0.2054 -0.2643 -0.2663
 2465poe     o212299   3.632   7.506   0.251  0.2821 -0.5196  0.2887
 2465poe    c3112300   3.584   7.594   0.351  1.0491  0.0610  0.1501
 2466poe    c3112301   6.852   6.800   2.756  0.0303 -0.0747 -0.5144
 2466poe     o212302   6.720   6.783   2.804  0.0697 -0.6896 -0.6202
 2466poe    c2312303   6.668   6.652   2.792  0.2917 -0.8446  0.0377
 2466poe    c2312304   6.634   6.606   2.649  0.1778 -0.4532 -0.0627
 2466poe     o212305   6.545   6.698   2.588  0.1770 -0.5325 -0.1799
 2466poe    c2312306   6.449   6.638   2.504 -0.1850  0.3098 -0.3678
 2466poe    c2312307   6.325   6.724   2.472 -0.3605  0.1536 -0.1167
 2466poe     o212308   6.363   6.840   2.401  0.0513  0.1147  0.0365
 2466poe    c2312309   6.252   6.904   2.343 -0.0223  0.2564  0.3320
 2466poe    c2312310   6.295   7.038   2.281 -0.3469  0.1877 -0.0482
 2466poe     o212311   6.311   7.151   2.364  0.3483  0.0513  0.0061
 2466poe    c3112312   6.354   7.258   2.283 -0.2362 -0.3483 -0.8491
 2467poe    c3112313   4.124   4.847   1.039 -0.2270 -0.2725  0.0729
 2467poe     o212314   4.159   4.724   0.980  0.6156  0.0294 -0.0696
 2467poe    c2312315   4.157   4.724   0.839 -0.6043 -0.3126 -0.0668
 2467poe    c2312316   4.147   4.573   0.810  0.0520 -0.3948  0.1340
 2467poe     o212317   4.232   4.506   0.901  0.3653 -0.0786  0.0740
 2467poe    c2312318   4.213   4.369   0.874 -0.3895  0.0165  0.1100
 2467poe    c2312319   4.307   4.290   0.968 -0.1880  0.0287 -0.0802
 2467poe     o212320   4.277   4.339   1.097  0.2831  0.3738 -0.1001
 2467poe    c2312321   4.372   4.300   1.193  0.0853  0.3234  0.0750
 2467poe    c2312322   4.323   4.296   1.339  0.9003  0.7892  0.3696
 2467poe     o212323   4.239   4.396   1.392 -0.0685 -0.2897  0.9343
 2467poe    c3112324   4.172   4.359   1.510 -0.4947 -0.0879  0.7560
 2468poe    c3112325   2.895   6.398   5.563 -0.4023 -0.8093  0.0734
 2468poe     o212326   3.002   6.323   5.615  0.1222 -0.3938 -0.3930
 2468poe    c2312327   3.110   6.334   5.525  0.2492  0.0041 -0.1953
 2468poe    c2312328   3.233   6.255   5.572 -0.0600 -0.2538  0.1866
 2468poe     o212329   3.188   6.125   5.604 -0.2454 -0.0794  0.6352
 2468poe    c2312330   3.300   6.052   5.647  0.2472  0.2853 -0.0172
 2468poe    c2312331   3.248   5.911   5.683 -0.4834  0.4722 -0.3281
 2468poe     o212332   3.126   5.928   5.751 -0.1589  0.4189  0.2703
 2468poe    c2312333   3.117   5.809   5.827  0.1423  0.4188  0.3072
 2468poe    c2312334   2.987   5.802   5.909  0.2488 -0.3491  0.4156
 2468poe     o212335   2.979   5.896   6.014  0.5456  0.0773  0.0597
 2468poe    c3112336   2.849   5.900   6.069  0.4795  0.3089 -0.1146
 2469poe    c3112337   4.565   4.591   2.608  0.9963  0.0689  0.5565
 2469poe     o212338   4.556   4.731   2.593 -0.2393 -0.0053  0.5167
 2469poe    c2312339   4.656   4.812   2.651  0.0629  0.3400 -0.4645
 2469poe    c2312340   4.615   4.858   2.792 -0.2210  0.0252 -0.4407
 2469poe     o212341   4.710   4.941   2.855 -0.4574 -0.1899  0.2139
 2469poe    c2312342   4.667   4.975   2.985 -0.0113 -0.4162  0.4233
 2469poe    c2312343   4.782   5.031   3.071  0.1675  0.1894 -0.2053
 2469poe     o212344   4.877   4.943   3.126  0.2766  0.3458 -0.1442
 2469poe    c2312345   4.966   5.032   3.191  0.1521  0.4421 -0.1053
 2469poe    c2312346   5.075   4.962   3.274 -0.7326 -0.1042  0.6238
 2469poe     o212347   5.158   4.878   3.198 -0.4990  0.0664  0.6887
 2469poe    c3112348   5.256   4.815   3.278  0.2421  0.2050 -0.0983
 2470poe    c3112349   6.853   3.255   6.564  0.4744 -0.4388  0.1677
 2470poe     o212350   6.726   3.315   6.545  0.5138 -0.4651 -0.1954
 2470poe    c2312351   6.616   3.229   6.564  0.3283 -0.2393 -0.2371
 2470poe    c2312352   6.486   3.311   6.573  0.3308 -0.2050 -0.4933
 2470poe     o212353   6.489   3.388   6.455  0.5791  0.0553 -0.3207
 2470poe    c2312354   6.375   3.471   6.447  0.2453 -0.3778 -0.1376
 2470poe    c2312355   6.389   3.548   6.315 -0.5227  0.4802  0.2672
 2470poe     o212356   6.515   3.609   6.333 -0.0407 -0.3837 -0.1102
 2470poe    c2312357   6.543   3.716   6.246  0.1195 -0.2518  0.1043
 2470poe    c2312358   6.559   3.679   6.097  0.2699  0.1562  0.0169
 2470poe     o212359   6.685   3.616   6.096 -0.1521 -0.6940  0.0151
 2470poe    c3112360   6.727   3.593   5.963  0.4834  0.0177  0.0900
 2471poe    c3112361   3.695   0.708   2.913 -0.1124  0.4010  0.4809
 2471poe     o212362   3.630   0.653   2.801 -0.0351  0.0058  0.6250
 2471poe    c2312363   3.659   0.516   2.794  0.1297  0.0731 -0.1022
 2471poe    c2312364   3.555   0.435   2.714 -0.0850  0.1589  0.0898
 2471poe     o212365   3.423   0.448   2.762 -0.3320 -0.0372 -0.5311
 2471poe    c2312366   3.380   0.339   2.839  0.0370  0.2757  0.1323
 2471poe    c2312367   3.241   0.384   2.887 -0.1573 -0.5697  0.3882
 2471poe     o212368   3.269   0.494   2.971 -0.7057  0.1099 -0.3068
 2471poe    c2312369   3.274   0.456   3.107  0.0330 -0.3441 -0.4565
 2471poe    c2312370   3.290   0.574   3.204  0.2603 -0.6594 -0.1072
 2471poe     o212371   3.406   0.648   3.173 -0.5202  0.5043 -0.3388
 2471poe    c3112372   3.403   0.771   3.242 -0.5814  0.2509  0.1158
 2472poe    c3112373   2.505   3.712   2.980 -0.1833  0.1218  0.3879
 2472poe     o212374   2.610   3.796   3.025  0.2954 -0.2792  0.0351
 2472poe    c2312375   2.645   3.757   3.156 -0.2223  0.1219  0.2989
 2472poe    c2312376   2.759   3.653   3.159 -0.2454  0.0861 -0.0338
 2472poe     o212377   2.792   3.623   3.292 -0.2679  0.3851  0.0401
 2472poe    c2312378   2.882   3.515   3.294 -0.4224  0.2589  0.1767
 2472poe    c2312379   2.934   3.473   3.433 -0.6497  0.2563  0.2617
 2472poe     o212380   3.030   3.564   3.483 -0.1821 -0.1599  0.1218
 2472poe    c2312381   3.085   3.521   3.606 -0.1532 -0.0120  0.1605
 2472poe    c2312382   3.149   3.629   3.696  0.0303 -0.1756  0.2272
 2472poe     o212383   3.275   3.666   3.645 -0.1126  0.2492  0.1824
 2472poe    c3112384   3.340   3.739   3.747 -0.0652  0.0654  0.2837
 2473poe    c3112385   0.252   6.902   4.645  0.4230 -0.9779  0.1657
 2473poe     o212386   0.388   6.880   4.614  0.3454 -0.4944 -0.5335
 2473poe    c2312387   0.457   6.841   4.731  0.0906  0.0427 -0.1999
 2473poe    c2312388   0.607   6.856   4.702  0.0241  0.3218 -0.4113
 2473poe     o212389   0.632   6.835   4.565  0.1982 -0.3454 -0.2823
 2473poe    c2312390   0.767   6.823   4.528  0.1998 -0.5294 -0.2139
 2473poe    c2312391   0.785   6.754   4.391  0.1571 -0.0627 -0.4565
 2473poe     o212392   0.712   6.816   4.288 -0.0725  0.2026 -0.1358
 2473poe    c2312393   0.762   6.803   4.157  0.1123 -1.1077  0.0564
 2473poe    c2312394   0.654   6.854   4.061  0.4084  0.1546  0.3830
 2473poe     o212395   0.611   6.983   4.100  0.3671  0.2662 -0.0281
 2473poe    c3112396   0.515   7.025   4.006  0.6319  0.2606 -0.3008
 2474poe    c3112397   1.452   3.753   5.836  0.1644 -0.0847  0.0779
 2474poe     o212398   1.388   3.807   5.949  0.9753  0.4156  0.3094
 2474poe    c2312399   1.275   3.876   5.901  0.9354 -0.0617 -0.2939
 2474poe    c2312400   1.173   3.880   6.016  0.6197 -0.2753 -0.5654
 2474poe     o212401   1.230   3.915   6.140 -0.0022 -0.4362 -0.2238
 2474poe    c2312402   1.136   3.942   6.241  0.4622 -0.1716  0.1469
 2474poe    c2312403   1.208   4.001   6.363  0.2086 -0.1385  0.2834
 2474poe     o212404   1.312   3.913   6.400  0.3520  0.1201  0.5047
 2474poe    c2312405   1.407   3.957   6.494  0.3339  0.0929  0.5354
 2474poe    c2312406   1.493   3.841   6.548  0.8883  0.3981  0.3142
 2474poe     o212407   1.514   3.760   6.435  0.0781  0.5461  0.0527
 2474poe    c3112408   1.609   3.660   6.466 -0.0691  0.3251 -0.1995
 2475poe    c3112409   0.861   3.510   6.638  0.3991 -0.0547 -0.0493
 2475poe     o212410   0.884   3.376   6.675 -0.2357 -0.2172 -0.2321
 2475poe    c2312411   1.019   3.338   6.661 -0.2429 -0.0380 -0.7906
 2475poe    c2312412   1.033   3.212   6.749  0.2028  0.3229 -0.3419
 2475poe     o212413   0.910   3.144   6.750  0.5129 -0.2387 -0.0142
 2475poe    c2312414   0.911   3.030   6.834 -0.4132  0.2221  0.6381
 2475poe    c2312415   0.766   2.976   6.835 -0.1883 -0.3872  0.5818
 2475poe     o212416   0.682   3.083   6.871  0.1490  0.1221 -0.1080
 2475poe    c2312417   0.553   3.051   6.918  0.1395 -0.0165 -0.2253
 2475poe    c2312418   0.465   3.176   6.940  0.3868  0.0400  0.4837
 2475poe     o212419   0.439   3.247   6.821  0.4024 -0.2884  0.2807
 2475poe    c3112420   0.369   3.368   6.841  0.3910 -0.2271 -0.1321
 2476poe    c3112421   6.029   2.904   3.851 -0.5424 -0.0450 -0.5442
 2476poe     o212422   5.932   2.843   3.933 -0.0875 -0.2178 -0.1352
 2476poe    c2312423   5.824   2.922   3.976  0.6115  0.3906  0.5410
 2476poe    c2312424   5.719   2.841   4.055  0.3104  0.1674 -0.0837
 2476poe     o212425   5.785   2.730   4.110 -0.1518 -0.0531  0.0292
 2476poe    c2312426   5.691   2.637   4.160 -0.1675  0.0398  0.1717
 2476poe    c2312427   5.777   2.524   4.218 -0.1933 -0.1072 -0.0802
 2476poe     o212428   5.872   2.483   4.121  0.0637 -0.0889  0.1621
 2476poe    c2312429   5.927   2.353   4.129  0.4945  0.0292 -0.7688
 2476poe    c2312430   6.027   2.340   4.246 -0.4526  0.1965  0.0786
 2476poe     o212431   6.149   2.408   4.221 -0.1558 -0.3811 -0.0546
 2476poe    c3112432   6.232   2.408   4.335 -0.4243 -0.1941  0.1422
 2477poe    c3112433   4.276   4.798   1.529  0.1487 -0.0909 -0.1064
 2477poe     o212434   4.369   4.809   1.634  0.0590  0.7418 -0.1104
 2477poe    c2312435   4.300   4.852   1.750  0.2276  0.2301  0.1790
 2477poe    c2312436   4.397   4.919   1.849  0.0089  0.6521  0.1068
 2477poe     o212437   4.439   5.046   1.804  0.3052  0.3640 -0.4513
 2477poe    c2312438   4.523   5.098   1.905  0.0589 -0.1918  0.0466
 2477poe    c2312439   4.569   5.241   1.869 -0.0563 -0.0452  0.4728
 2477poe     o212440   4.462   5.332   1.852 -0.1054 -0.2246 -0.2163
 2477poe    c2312441   4.489   5.470   1.843 -0.7523 -0.0896 -0.1455
 2477poe    c2312442   4.368   5.560   1.874 -0.5154  0.3456 -0.4681
 2477poe     o212443   4.275   5.556   1.768 -0.6963 -0.0174 -0.2984
 2477poe    c3112444   4.270   5.668   1.682  0.0681 -0.1758 -0.5630
 2478poe    c3112445   5.013   0.322   2.546  0.0556 -0.3136  0.1850
 2478poe     o212446   4.877   0.283   2.544 -0.1780  0.4772 -0.0455
 2478poe    c2312447   4.842   0.256   2.678 -0.6593 -0.6177 -0.3820
 2478poe    c2312448   4.692   0.260   2.713 -0.5451  0.1627  0.0455
 2478poe     o212449   4.615   0.167   2.640 -0.0867  0.1063 -0.3769
 2478poe    c2312450   4.480   0.174   2.683 -0.0942 -0.4455 -0.2951
 2478poe    c2312451   4.386   0.067   2.625 -0.3260 -0.6933  0.5222
 2478poe     o212452   4.263   0.052   2.691 -0.6860  0.0280  0.0382
 2478poe    c2312453   4.177  -0.042   2.630 -0.3374 -0.3810  0.1698
 2478poe    c2312454   4.054   0.025   2.564 -0.2008 -0.1673  0.1289
 2478poe     o212455   3.959   0.068   2.658  0.1689  0.5272  0.1892
 2478poe    c3112456   3.845   0.121   2.594  0.9902  1.0677 -0.8491
 2479poe    c3112457   4.961   4.536   6.917  0.2083 -0.2088 -0.0458
 2479poe     o212458   5.009   4.465   6.805  0.1844  0.6063 -0.5849
 2479poe    c2312459   5.150   4.469   6.803  0.2184  0.0689  0.3282
 2479poe    c2312460   5.195   4.335   6.742 -0.3233 -0.1383  0.3758
 2479poe     o212461   5.100   4.289   6.649  0.0234 -0.4839  0.1881
 2479poe    c2312462   5.158   4.179   6.582  0.1681 -0.2159 -0.1239
 2479poe    c2312463   5.059   4.126   6.476 -0.1291 -0.1360  0.1118
 2479poe     o212464   4.947   4.064   6.535 -0.2968  0.2445  0.1923
 2479poe    c2312465   4.842   4.059   6.442  0.2677 -0.2426 -0.4216
 2479poe    c2312466   4.709   4.032   6.515  0.3581  0.1229 -0.1173
 2479poe     o212467   4.670   4.123   6.615  0.0432 -0.2249  0.0786
 2479poe    c3112468   4.536   4.111   6.658  0.0601  0.0730  0.2109
 2480poe    c3112469   3.195   3.210   6.955  0.2591 -0.4358  0.6647
 2480poe     o212470   3.297   3.113   6.956  0.2256 -0.4877 -0.1215
 2480poe    c2312471   3.397   3.153   7.047 -0.0606 -0.2774  0.1060
 2480poe    c2312472   3.451   3.037   7.132  0.1367 -0.2512  0.0175
 2480poe     o212473   3.357   2.984   7.222  0.2923  0.2201  0.4619
 2480poe    c2312474   3.394   2.848   7.237 -0.1045 -0.0003 -0.4940
 2480poe    c2312475   3.285   2.796   7.331 -0.5066  0.3789 -0.7462
 2480poe     o212476   3.265   2.875   7.446 -0.3806 -0.3588 -0.2046
 2480poe    c2312477   3.153   2.845   7.526 -0.4009  0.2494  0.0018
 2480poe    c2312478   3.154   2.936   7.650 -0.2313  0.0945  0.1143
 2480poe     o212479   3.149   3.070   7.606 -0.1672  0.0939  0.1042
 2480poe    c3112480   3.035   3.136   7.657 -0.1492  0.3712 -0.2125
 2481poe    c3112481   4.162   1.980   0.748 -0.1328 -0.0813 -0.5935
 2481poe     o212482   4.293   2.010   0.705  0.2358 -0.4396  0.2522
 2481poe    c2312483   4.318   1.941   0.585 -0.0319 -0.7338  0.3628
 2481poe    c2312484   4.462   1.962   0.533 -0.2600 -0.2922 -0.1053
 2481poe     o212485   4.474   2.100   0.504  0.4231 -0.3308 -0.0085
 2481poe    c2312486   4.481   2.127   0.366  0.6696 -0.3411  0.0007
 2481poe    c2312487   4.526   2.271   0.340  0.3728 -0.1237  0.6555
 2481poe     o212488   4.661   2.280   0.379  0.4753 -0.9645  0.5020
 2481poe    c2312489   4.734   2.378   0.308  0.3814 -1.1680  0.1231
 2481poe    c2312490   4.883   2.368   0.345  0.5035 -0.2143 -0.1037
 2481poe     o212491   4.886   2.316   0.476  0.3476 -0.3839 -0.1686
 2481poe    c3112492   5.008   2.337   0.542  0.0139 -0.4407  0.4790
 2482poe    c3112493   2.941   5.645   5.508 -0.0980 -0.1573 -0.2919
 2482poe     o212494   2.989   5.575   5.395 -0.0820  0.3140 -0.5761
 2482poe    c2312495   2.887   5.553   5.301 -0.2293 -0.3386 -0.2680
 2482poe    c2312496   2.953   5.487   5.178  0.6879  0.4858 -0.2259
 2482poe     o212497   3.081   5.538   5.148  0.7661  0.1477 -0.4685
 2482poe    c2312498   3.126   5.492   5.022 -0.5007  0.6133 -1.1043
 2482poe    c2312499   3.266   5.557   5.017  0.2086 -0.8097 -0.3960
 2482poe     o212500   3.334   5.533   5.138  0.7191 -1.0588 -0.7317
 2482poe    c2312501   3.450   5.614   5.132  0.6022 -0.8353 -0.0912
 2482poe    c2312502   3.531   5.618   5.262 -0.2317 -0.4019  0.4231
 2482poe     o212503   3.479   5.687   5.374 -0.0435 -0.0199  0.2803
 2482poe    c3112504   3.557   5.648   5.485  0.0823 -0.3185  0.0876
 2483poe    c3112505   0.794   2.460   0.365  0.2766  0.4664 -0.0994
 2483poe     o212506   0.755   2.325   0.367  0.3782  0.4390  0.1435
 2483poe    c2312507   0.689   2.285   0.249  0.6357 -0.3314  0.2520
 2483poe    c2312508   0.591   2.168   0.274 -0.5324  0.6873  0.5500
 2483poe     o212509   0.665   2.074   0.349 -0.2042  0.4945 -0.0080
 2483poe    c2312510   0.588   1.970   0.404  0.1618  0.1621 -0.1190
 2483poe    c2312511   0.670   1.853   0.460  0.1518  0.0995 -0.2350
 2483poe     o212512   0.769   1.883   0.556 -0.1383 -0.3211  0.1990
 2483poe    c2312513   0.802   1.775   0.642  0.7855 -0.1720  0.0433
 2483poe    c2312514   0.907   1.819   0.746  0.5823 -0.0790  0.2095
 2483poe     o212515   1.008   1.895   0.683  0.1676  0.2673 -0.0482
 2483poe    c3112516   1.093   1.946   0.783 -0.2736 -0.1592  0.5558
 2484poe    c3112517   0.499   1.184   4.927 -0.8449 -0.2579  0.1239
 2484poe     o212518   0.527   1.057   4.873 -0.7022 -0.3029  0.3036
 2484poe    c2312519   0.591   0.983   4.975 -0.8181 -0.2405  0.4220
 2484poe    c2312520   0.638   0.844   4.929  0.1348  0.2246 -0.0375
 2484poe     o212521   0.584   0.826   4.800  0.3502 -0.1213 -0.0794
 2484poe    c2312522   0.603   0.701   4.736  0.2581 -0.2048  0.0555
 2484poe    c2312523   0.508   0.684   4.615  0.0563 -0.3665  0.2358
 2484poe     o212524   0.490   0.807   4.548 -0.6162 -0.3366  0.4642
 2484poe    c2312525   0.389   0.795   4.450 -0.0420 -0.6486 -0.0999
 2484poe    c2312526   0.315   0.929   4.444  0.2644 -0.4991 -0.5505
 2484poe     o212527   0.390   1.046   4.421  0.0356 -0.3441 -0.5154
 2484poe    c3112528   0.298   1.153   4.409  0.0908 -0.2987 -0.5357
 2485poe    c3112529   4.993   4.907   1.460 -0.1205 -0.1099  0.0618
 2485poe     o212530   4.856   4.920   1.430 -0.1186 -0.0288  0.0905
 2485poe    c2312531   4.828   4.884   1.297 -0.4254  0.2968  0.0641
 2485poe    c2312532   4.676   4.869   1.278 -0.3234 -0.2405 -0.3696
 2485poe     o212533   4.606   4.989   1.303  0.2406  0.0133  0.0144
 2485poe    c2312534   4.567   5.071   1.194 -0.5632 -0.2715  0.0807
 2485poe    c2312535   4.438   5.030   1.122 -0.6307  0.3629 -0.1589
 2485poe     o212536   4.450   4.921   1.033 -0.1160  0.0901  0.2434
 2485poe    c2312537   4.519   4.943   0.913 -0.2784 -0.3784  0.0648
 2485poe    c2312538   4.488   5.053   0.809  0.8192 -0.3082 -0.2099
 2485poe     o212539   4.505   5.184   0.859 -0.7980 -0.0649 -0.2209
 2485poe    c3112540   4.480   5.282   0.762  0.3736  0.7439  0.2733
 2486poe    c3112541   5.925   2.312   0.408  0.2243  0.2959  0.2418
 2486poe     o212542   6.041   2.341   0.333  0.4773 -0.0751  0.4884
 2486poe    c2312543   6.160   2.299   0.396  0.5422 -0.3886  0.1571
 2486poe    c2312544   6.256   2.253   0.285  0.6045 -0.0716  0.0786
 2486poe     o212545   6.281   2.354   0.189  0.0986 -0.2255 -0.2146
 2486poe    c2312546   6.330   2.304   0.067  0.8722  0.2956 -0.1234
 2486poe    c2312547   6.324   2.410  -0.045  0.3966  0.7064  0.2818
 2486poe     o212548   6.186   2.430  -0.063  0.3658 -0.0072 -0.3225
 2486poe    c2312549   6.182   2.527  -0.166 -0.4686 -0.2259 -0.5012
 2486poe    c2312550   6.038   2.564  -0.208 -0.5497  0.1637  0.1091
 2486poe     o212551   5.965   2.641  -0.116  0.1015  0.4324  0.4111
 2486poe    c3112552   5.840   2.663  -0.178  0.2645  0.1313 -0.0288
 2487poe    c3112553   3.697   6.830   4.763  0.3303 -0.1900 -0.0701
 2487poe     o212554   3.788   6.840   4.655  0.5780 -0.1998  0.1377
 2487poe    c2312555   3.872   6.953   4.667  0.1065  0.1002  0.6430
 2487poe    c2312556   3.933   6.963   4.527 -0.5672  0.1839  0.3522
 2487poe     o212557   4.005   6.848   4.491 -0.1142  0.6332 -0.2062
 2487poe    c2312558   4.035   6.844   4.353 -1.4698 -0.4891 -0.4904
 2487poe    c2312559   4.118   6.718   4.322  0.1204  0.2506  0.6171
 2487poe     o212560   4.038   6.613   4.371  0.1547  0.2218  0.6126
 2487poe    c2312561   4.021   6.504   4.283 -0.0337  0.1768  0.7030
 2487poe    c2312562   3.922   6.399   4.335  0.2691 -0.7801 -0.6086
 2487poe     o212563   3.965   6.373   4.467  0.2641  0.2428 -0.3985
 2487poe    c3112564   3.889   6.273   4.533  0.7114 -0.1639 -0.4970
 2488poe    c3112565   4.257   4.481   3.534  0.3461  0.1956  0.8897
 2488poe     o212566   4.247   4.343   3.506 -0.2459  0.5711 -0.8452
 2488poe    c2312567   4.266   4.317   3.369  0.0922 -0.2729 -0.6400
 2488poe    c2312568   4.229   4.171   3.338 -0.2361 -0.2665 -0.2867
 2488poe     o212569   4.304   4.089   3.424 -1.3604 -0.4390  0.5563
 2488poe    c2312570   4.250   3.960   3.442 -0.2306 -1.0631 -0.3458
 2488poe    c2312571   4.313   3.892   3.565 -0.3083 -0.5255 -0.0049
 2488poe     o212572   4.337   3.989   3.664 -0.0956 -0.7989  0.2141
 2488poe    c2312573   4.343   3.936   3.794 -0.1726  0.1729  0.6243
 2488poe    c2312574   4.211   3.906   3.868 -0.7224  0.0605 -0.3884
 2488poe     o212575   4.157   4.021   3.929  0.1162  0.1712  0.1680
 2488poe    c3112576   4.044   4.001   4.010  0.1442  0.7912  0.3640
 2489poe    c3112577   4.808   2.700   6.318  0.5590  0.5675  0.0193
 2489poe     o212578   4.812   2.559   6.330  0.0061  0.5409 -0.0934
 2489poe    c2312579   4.760   2.498   6.214  0.4749 -0.1704  0.0679
 2489poe    c2312580   4.723   2.350   6.236  0.1125 -0.0768  0.0915
 2489poe     o212581   4.626   2.323   6.334  0.2140  0.1557  0.2587
 2489poe    c2312582   4.497   2.381   6.331  0.3508  0.4384 -0.1414
 2489poe    c2312583   4.404   2.345   6.213  0.5408  0.5208 -0.3190
 2489poe     o212584   4.359   2.212   6.223 -0.1012  0.7279 -0.3751
 2489poe    c2312585   4.272   2.186   6.115  0.1621 -0.4071 -0.3294
 2489poe    c2312586   4.272   2.040   6.067 -0.1690 -0.3162 -0.6099
 2489poe     o212587   4.270   1.942   6.169 -0.2767  0.4317  0.1084
 2489poe    c3112588   4.404   1.909   6.201 -0.2763  0.6108  0.3038
 2490poe    c3112589   5.566   2.125   1.103  0.2786 -0.6152 -0.5565
 2490poe     o212590   5.550   2.019   1.195  0.0249 -0.3311 -0.2687
 2490poe    c2312591   5.415   2.016   1.234  0.0928 -0.1798 -0.0186
 2490poe    c2312592   5.383   1.877   1.291 -0.1831 -0.3119 -0.4892
 2490poe     o212593   5.356   1.775   1.197 -0.1885 -0.6223 -0.1537
 2490poe    c2312594   5.306   1.656   1.253  0.3773 -0.3412  0.9791
 2490poe    c2312595   5.295   1.533   1.162 -0.1375  0.6582 -0.3254
 2490poe     o212596   5.426   1.488   1.136 -0.2203  0.0684  0.2667
 2490poe    c2312597   5.429   1.357   1.085 -0.2940 -0.0293  0.5095
 2490poe    c2312598   5.562   1.326   1.014 -0.3481 -0.0794  0.4303
 2490poe     o212599   5.574   1.418   0.908 -0.6296 -0.2910  0.2133
 2490poe    c3112600   5.576   1.354   0.782  0.3713 -0.1916  0.1701
 2491poe    c3112601   6.506   6.819   5.108 -0.4414 -0.2356 -0.0069
 2491poe     o212602   6.443   6.922   5.034  0.3848  0.3866  0.1391
 2491poe    c2312603   6.532   6.974   4.938  0.0121  0.2431 -0.2861
 2491poe    c2312604   6.488   7.106   4.872 -0.4128 -0.0571 -0.6173
 2491poe     o212605   6.354   7.102   4.829 -0.4453 -0.5931 -0.4737
 2491poe    c2312606   6.307   7.228   4.786 -0.5278 -0.4009  0.1702
 2491poe    c2312607   6.154   7.238   4.772 -0.4948  0.0265  0.1077
 2491poe     o212608   6.091   7.220   4.897  0.1228  0.3814  0.4762
 2491poe    c2312609   5.963   7.161   4.881  0.1407  0.5963 -0.5231
 2491poe    c2312610   5.886   7.179   5.014  0.2955  0.2895 -0.3913
 2491poe     o212611   5.985   7.201   5.112 -0.2728 -0.0323  0.2575
 2491poe    c3112612   5.938   7.226   5.242 -0.1685  0.3656  0.2182
 2492poe    c3112613   3.461   1.611   0.746 -0.0057 -0.1801 -0.3254
 2492poe     o212614   3.543   1.497   0.736 -0.5009 -0.5608 -0.1040
 2492poe    c2312615   3.647   1.539   0.822 -0.3604 -1.0226 -0.0421
 2492poe    c2312616   3.768   1.445   0.817  0.6199  0.2153 -0.0855
 2492poe     o212617   3.833   1.458   0.693  0.0609  0.0032 -0.4005
 2492poe    c2312618   3.973   1.451   0.699  0.0406 -0.0228  0.0339
 2492poe    c2312619   4.029   1.502   0.565  0.0010  0.3663  0.1619
 2492poe     o212620   4.005   1.405   0.465 -0.3219  0.2480  0.3547
 2492poe    c2312621   4.019   1.457   0.335 -0.0642  0.0155  0.2874
 2492poe    c2312622   3.933   1.384   0.231  0.2022  0.4292 -0.2292
 2492poe     o212623   3.796   1.396   0.264  0.1199 -0.3176 -0.2730
 2492poe    c3112624   3.721   1.313   0.179 -0.9300  0.2879  0.0444
 2493poe    c3112625   1.476   0.783   6.424  0.2813 -0.1377  0.4829
 2493poe     o212626   1.377   0.719   6.501 -0.3189  0.2635  0.0495
 2493poe    c2312627   1.264   0.682   6.424  0.0354 -0.4652 -0.1242
 2493poe    c2312628   1.158   0.611   6.510 -0.4630  0.2892 -0.1096
 2493poe     o212629   1.190   0.474   6.515 -0.8612  0.2073  0.2133
 2493poe    c2312630   1.088   0.398   6.577 -0.3764 -0.2825  0.4160
 2493poe    c2312631   1.131   0.251   6.591  0.2088 -0.1416  0.1313
 2493poe     o212632   1.123   0.176   6.472 -0.1784  0.1320 -0.0156
 2493poe    c2312633   1.069   0.046   6.468 -0.2119  0.1345  0.3156
 2493poe    c2312634   0.924   0.037   6.418 -0.0440  0.6476 -0.2833
 2493poe     o212635   0.895   0.068   6.284 -0.0055 -0.4336 -0.5520
 2493poe    c3112636   0.756   0.062   6.263 -0.0198  0.1453 -0.6392
 2494poe    c3112637   1.442   3.024   3.179  0.3344 -0.4026 -0.4762
 2494poe     o212638   1.405   2.908   3.250  0.0729 -0.0438 -0.0262
 2494poe    c2312639   1.375   2.924   3.387  0.1315  0.5934 -0.0832
 2494poe    c2312640   1.366   2.792   3.467  0.2789  0.4092 -0.3674
 2494poe     o212641   1.265   2.708   3.416  0.2161  0.0583  0.3330
 2494poe    c2312642   1.271   2.584   3.483  0.1558 -0.1350 -0.0180
 2494poe    c2312643   1.180   2.470   3.434  0.0308 -0.2753  0.5320
 2494poe     o212644   1.044   2.502   3.453  0.0003 -0.0885  0.0139
 2494poe    c2312645   0.950   2.399   3.430 -0.2454  0.0611  0.3378
 2494poe    c2312646   0.932   2.361   3.282  0.0570  0.1074  0.2866
 2494poe     o212647   0.841   2.256   3.258  0.1301  0.0038  0.4603
 2494poe    c3112648   0.912   2.135   3.241 -0.2748 -0.2275  0.3809
 2495poe    c3112649   3.188   2.280   3.525  0.3376 -0.2804 -0.4164
 2495poe     o212650   3.060   2.251   3.576  0.3362 -0.1152 -0.3237
 2495poe    c2312651   3.032   2.115   3.549  0.0153 -0.1034 -0.0555
 2495poe    c2312652   2.881   2.090   3.568  0.0503 -0.1818  0.1202
 2495poe     o212653   2.830   2.138   3.690 -0.2158 -0.2133  0.0216
 2495poe    c2312654   2.703   2.078   3.704 -0.2663 -0.0891  0.0998
 2495poe    c2312655   2.615   2.175   3.785 -0.0654  0.2662 -0.0994
 2495poe     o212656   2.680   2.188   3.910  0.4144  0.2062 -0.3418
 2495poe    c2312657   2.606   2.270   3.997 -0.2962 -0.3829 -0.3760
 2495poe    c2312658   2.716   2.291   4.103 -0.1827 -0.5948 -0.4527
 2495poe     o212659   2.838   2.317   4.039  0.1163  0.2757  0.4510
 2495poe    c3112660   2.933   2.399   4.103  0.1371 -0.0168  0.7953
 2496poe    c3112661   5.596   1.428   6.919 -0.3091 -0.2863  0.3339
 2496poe     o212662   5.511   1.539   6.943 -0.1081 -0.0233 -0.1699
 2496poe    c2312663   5.575   1.660   6.907  0.0807  0.0648  0.4595
 2496poe    c2312664   5.478   1.778   6.924  0.2113  0.2704 -0.2189
 2496poe     o212665   5.453   1.804   7.060 -0.3919 -0.4221 -0.1879
 2496poe    c2312666   5.384   1.924   7.085 -0.0386 -0.1518 -0.4966
 2496poe    c2312667   5.347   1.933   7.234 -0.5515  0.0452 -0.6327
 2496poe     o212668   5.272   1.821   7.277 -0.0811 -0.1123 -0.2095
 2496poe    c2312669   5.231   1.822   7.411 -0.4047 -0.7799 -0.3037
 2496poe    c2312670   5.333   1.783   7.519 -0.1979 -0.2513 -0.3068
 2496poe     o212671   5.375   1.649   7.505  0.0435 -0.2207  0.0963
 2496poe    c3112672   5.471   1.619   7.604  0.4536  0.2695 -0.1480
 2497poe    c3112673   3.918   6.467   1.528 -0.3784 -0.5439  0.1468
 2497poe     o212674   3.942   6.466   1.667  0.0346  0.6905  0.1021
 2497poe    c2312675   3.834   6.396   1.725  0.3757 -0.1307 -0.2330
 2497poe    c2312676   3.820   6.391   1.878 -0.0786  0.6288 -0.2413
 2497poe     o212677   3.796   6.514   1.944 -0.3841  0.4638 -0.0402
 2497poe    c2312678   3.734   6.484   2.066 -0.1903 -0.0619 -0.0674
 2497poe    c2312679   3.651   6.608   2.105  0.4512  0.2910  0.1749
 2497poe     o212680   3.736   6.718   2.082  0.4503  0.2996  0.2125
 2497poe    c2312681   3.670   6.839   2.111 -0.1424  0.1342 -0.4375
 2497poe    c2312682   3.782   6.944   2.120  0.1893 -0.2851  0.3923
 2497poe     o212683   3.862   6.948   2.004  0.0595  0.2601  0.3210
 2497poe    c3112684   3.941   7.065   1.996 -0.4087  0.6006  0.5528
 2498poe    c3112685   2.266   5.041   4.352  0.3046  0.2006  0.0377
 2498poe     o212686   2.296   5.058   4.489  0.4038  0.4393 -0.0136
 2498poe    c2312687   2.207   4.981   4.568  0.7158  0.1087  0.0183
 2498poe    c2312688   2.195   5.018   4.717 -0.3347  0.3376 -0.1112
 2498poe     o212689   2.296   4.964   4.800 -0.2854  0.5686 -0.0219
 2498poe    c2312690   2.284   5.019   4.929 -0.5554  0.0005  0.1969
 2498poe    c2312691   2.352   4.934   5.037  0.1633  0.3248  0.0040
 2498poe     o212692   2.491   4.956   5.032  0.2662 -0.3300 -0.1194
 2498poe    c2312693   2.565   4.903   5.140  0.0537  0.0649  0.2238
 2498poe    c2312694   2.593   4.754   5.115  0.1574  0.0697  0.3146
 2498poe     o212695   2.486   4.672   5.155 -0.2157  0.3721 -0.0613
 2498poe    c3112696   2.510   4.534   5.138 -0.3080  0.2952  0.4359
 2499poe    c3112697   4.836   4.572   0.400  0.4052 -0.3135 -0.3395
 2499poe     o212698   4.740   4.664   0.356  0.7193  0.0319 -0.3087
 2499poe    c2312699   4.623   4.649   0.432  0.3698 -0.3317 -0.9067
 2499poe    c2312700   4.518   4.727   0.351  0.0890  0.1614 -0.0824
 2499poe     o212701   4.564   4.848   0.295 -0.1180  0.2492 -0.0654
 2499poe    c2312702   4.453   4.910   0.234 -0.0684  0.0203 -0.3909
 2499poe    c2312703   4.482   5.048   0.171 -0.0611  0.2704  0.1566
 2499poe     o212704   4.592   5.029   0.085 -0.3721  0.2012 -0.2287
 2499poe    c2312705   4.643   5.154   0.047 -0.3039  0.2918  0.1534
 2499poe    c2312706   4.747   5.154  -0.066 -0.2495  0.6446  0.2019
 2499poe     o212707   4.857   5.075  -0.026 -0.4258  0.3649  0.1361
 2499poe    c3112708   4.969   5.117  -0.100  0.1286 -0.0870  0.7068
 2500poe    c3112709   3.731   2.890   6.436  0.6444 -0.2524 -0.3363
 2500poe     o212710   3.730   2.833   6.307 -0.2490 -0.2471 -0.3429
 2500poe    c2312711   3.674   2.703   6.299  0.0847 -0.4145 -0.0090
 2500poe    c2312712   3.702   2.652   6.156 -0.7306  0.1784 -0.3898
 2500poe     o212713   3.636   2.730   6.059 -0.0282  0.5941 -0.5430
 2500poe    c2312714   3.644   2.673   5.930  0.5962  0.4859 -0.4595
 2500poe    c2312715   3.545   2.739   5.832  0.3568 -0.1014 -0.6192
 2500poe     o212716   3.539   2.879   5.847 -0.0050 -0.1972  0.1993
 2500poe    c2312717   3.446   2.929   5.753  0.3951  0.5331  0.1782
 2500poe    c2312718   3.484   3.077   5.735  0.1019  0.6227  0.2900
 2500poe     o212719   3.497   3.122   5.868 -0.4592  0.3054  0.4570
 2500poe    c3112720   3.513   3.262   5.874 -0.8436  0.3849 -0.2917
 2501poe    c3112721   6.819   0.696   1.633  0.2895 -0.0880  0.3400
 2501poe     o212722   6.944   0.633   1.615  0.0042 -0.5591 -0.0236
 2501poe    c2312723   7.046   0.721   1.656 -0.3666 -0.1515  0.0347
 2501poe    c2312724   7.176   0.662   1.598  0.1468  0.3775  0.6338
 2501poe     o212725   7.176   0.521   1.611  0.4043  0.3414  0.2545
 2501poe    c2312726   7.298   0.452   1.625  0.1593 -0.1234  0.0974
 2501poe    c2312727   7.248   0.310   1.658  0.1591 -0.1158  0.1295
 2501poe     o212728   7.158   0.268   1.559  0.0410  0.1477  0.1251
 2501poe    c2312729   7.214   0.167   1.477  0.0510 -0.0863  0.4214
 2501poe    c2312730   7.116   0.083   1.394  0.1723 -0.1768  0.3702
 2501poe     o212731   7.062   0.181   1.308  0.4592 -0.1527  0.2169
 2501poe    c3112732   6.953   0.135   1.232  0.5692 -0.5044  0.2733
 2502poe    c3112733   6.259   1.160   0.368  0.4506 -0.1160 -0.3277
 2502poe     o212734   6.395   1.183   0.396  0.2745  0.2900  0.1925
 2502poe    c2312735   6.468   1.211   0.279 -0.1504  0.2498 -0.0842
 2502poe    c2312736   6.574   1.317   0.314 -0.3509  0.3931  0.0841
 2502poe     o212737   6.702   1.269   0.351 -0.2795  0.4196 -0.1313
 2502poe    c2312738   6.795   1.223   0.255 -0.1120  0.4906 -0.0019
 2502poe    c2312739   6.933   1.280   0.293  0.1142  0.1756 -0.3453
 2502poe     o212740   6.982   1.205   0.402 -0.3071  0.4846  0.0605
 2502poe    c2312741   7.073   1.275   0.483  0.0441  0.0347  0.0571
 2502poe    c2312742   7.130   1.183   0.592  0.0570  0.1146  0.1172
 2502poe     o212743   7.046   1.200   0.704 -0.4704 -0.5639 -0.1738
 2502poe    c3112744   7.102   1.128   0.812  0.3709  0.2437 -0.0570
 2503poe    c3112745   5.550   5.770   3.583  0.3884 -0.2397  0.9344
 2503poe     o212746   5.679   5.821   3.557  0.2131 -0.0790  0.3461
 2503poe    c2312747   5.773   5.755   3.638 -0.2918 -0.3397  0.7274
 2503poe    c2312748   5.920   5.799   3.620 -0.4111  0.0238  0.6454
 2503poe     o212749   5.954   5.923   3.678 -0.1642  0.2086  0.1117
 2503poe    c2312750   6.075   5.981   3.635 -0.1693  0.3971  0.3507
 2503poe    c2312751   6.093   6.119   3.701 -0.5367  0.5180  0.2035
 2503poe     o212752   5.981   6.199   3.671 -0.2946  0.5468 -0.6287
 2503poe    c2312753   5.996   6.327   3.728  0.2711  0.1796  0.0557
 2503poe    c2312754   5.868   6.401   3.687  0.0701 -0.2591 -0.1211
 2503poe     o212755   5.858   6.428   3.549  0.4453 -0.5159 -0.1978
 2503poe    c3112756   5.745   6.506   3.520  0.4154 -0.2622  0.5712
 2504poe    c3112757   2.896   2.841   3.069 -0.3697  0.5651  0.1763
 2504poe     o212758   2.837   2.764   2.966 -0.1623  0.2518  0.2893
 2504poe    c2312759   2.857   2.627   2.992 -0.2446  0.2108  0.1350
 2504poe    c2312760   2.764   2.530   2.917  0.1939 -0.4580  0.4451
 2504poe     o212761   2.643   2.514   2.988  0.0894  0.0984  0.3930
 2504poe    c2312762   2.552   2.442   2.908  0.0945  0.7005 -0.1701
 2504poe    c2312763   2.407   2.422   2.957 -0.0127  0.3197 -0.6340
 2504poe     o212764   2.327   2.538   2.962  0.4488  0.6104  0.4327
 2504poe    c2312765   2.236   2.533   3.069  0.2438 -0.4154  0.2283
 2504poe    c2312766   2.093   2.582   3.036  0.4956  0.1214 -0.0906
 2504poe     o212767   2.089   2.721   3.019  0.3867  0.1124 -0.1394
 2504poe    c3112768   1.962   2.779   3.044  0.1945 -0.2283 -0.3251
 2505poe    c3112769   2.572   1.284   0.176  0.4066 -0.0637 -0.4192
 2505poe     o212770   2.559   1.157   0.236  0.9873  0.0125 -0.1317
 2505poe    c2312771   2.434   1.120   0.182  0.4214  0.1384  1.0527
 2505poe    c2312772   2.405   0.970   0.202 -0.1564  0.0946 -0.0507
 2505poe     o212773   2.280   0.931   0.149 -0.0836 -0.5696  0.2570
 2505poe    c2312774   2.270   0.797   0.191  0.1563 -0.4574  0.6895
 2505poe    c2312775   2.140   0.732   0.139  0.0075  0.2928  0.0940
 2505poe     o212776   2.146   0.707   0.000 -0.0864  0.1356  0.1181
 2505poe    c2312777   2.056   0.610  -0.049  0.3766  0.0786 -0.6179
 2505poe    c2312778   2.033   0.675  -0.187  0.0359  0.6291 -0.3064
 2505poe     o212779   2.153   0.690  -0.260  0.0654 -0.1263 -0.4259
 2505poe    c3112780   2.123   0.722  -0.394 -0.0199 -0.2428 -0.4341
 2506poe    c3112781   6.428   4.748   5.192 -0.2124  0.1972  0.3758
 2506poe     o212782   6.478   4.629   5.135 -0.2330  0.4033 -0.0785
 2506poe    c2312783   6.604   4.651   5.076 -0.0129 -0.2319  0.1483
 2506poe    c2312784   6.658   4.522   5.011  0.0347 -0.0217 -0.2301
 2506poe     o212785   6.553   4.448   4.953 -0.1258 -0.0493  0.0926
 2506poe    c2312786   6.596   4.322   4.906 -0.0771  0.2464 -0.6703
 2506poe    c2312787   6.478   4.240   4.849 -0.3141  0.2675 -0.2123
 2506poe     o212788   6.377   4.232   4.947  0.1767 -0.7837  0.2229
 2506poe    c2312789   6.276   4.138   4.919  0.2849 -0.8994  0.2227
 2506poe    c2312790   6.209   4.133   5.057 -0.0987 -0.2013  0.0682
 2506poe     o212791   6.141   4.251   5.092  0.4730  0.2420 -0.3124
 2506poe    c3112792   6.073   4.232   5.214  0.2630  0.5016 -0.3876
 2507poe    c3112793   6.684   4.791   0.293 -0.4527 -0.4197  0.5797
 2507poe     o212794   6.546   4.772   0.277 -0.3212 -0.8975 -0.0237
 2507poe    c2312795   6.481   4.842   0.381  0.0082  0.1156 -0.4909
 2507poe    c2312796   6.328   4.824   0.384 -0.0115  0.2731 -0.5382
 2507poe     o212797   6.294   4.691   0.414 -0.0286  0.3805 -0.0741
 2507poe    c2312798   6.161   4.659   0.448  0.1996 -0.1204  0.3706
 2507poe    c2312799   6.146   4.598   0.589 -0.0001 -0.2980  0.2729
 2507poe     o212800   6.181   4.688   0.692  0.2130  0.1155 -0.1562
 2507poe    c2312801   6.179   4.622   0.816  0.6159  0.2813 -0.0591
 2507poe    c2312802   6.177   4.700   0.948 -0.3231  0.0778  0.0535
 2507poe     o212803   6.054   4.767   0.966 -0.2707  0.1774  0.0457
 2507poe    c3112804   6.024   4.788   1.102 -0.2803  0.2649  0.0298
 2508poe    c3112805   6.312   5.616   3.542  0.1760 -0.6993  0.1348
 2508poe     o212806   6.387   5.631   3.660 -0.4292 -0.5385  0.5038
 2508poe    c2312807   6.306   5.682   3.764 -0.6030 -0.9840  0.5879
 2508poe    c2312808   6.392   5.727   3.883 -0.0866  0.0281 -0.1502
 2508poe     o212809   6.492   5.822   3.853 -0.4022  0.2965 -0.3644
 2508poe    c2312810   6.582   5.848   3.959  0.1247 -0.5094 -0.5981
 2508poe    c2312811   6.677   5.960   3.913 -0.0558  0.0457  0.3676
 2508poe     o212812   6.716   5.926   3.782  0.4129 -0.1198  0.5486
 2508poe    c2312813   6.837   5.982   3.739  0.0249  0.8276  0.6732
 2508poe    c2312814   6.837   6.018   3.589  0.2877 -0.0311  0.4593
 2508poe     o212815   6.848   5.912   3.498 -0.1562  0.3096 -0.0007
 2508poe    c3112816   6.859   5.966   3.369  0.6635  0.0113 -0.0652
 2509poe    c3112817   5.763   5.302   2.072 -0.2359 -0.0745  0.2295
 2509poe     o212818   5.746   5.398   2.173  0.1412  0.1950  0.0401
 2509poe    c2312819   5.861   5.478   2.189  0.0230  0.3593  0.0708
 2509poe    c2312820   5.837   5.576   2.306 -0.4176  0.0545  0.2398
 2509poe     o212821   5.706   5.628   2.296 -0.1648  0.6365 -0.1226
 2509poe    c2312822   5.673   5.707   2.407  0.1678  0.2257  0.2755
 2509poe    c2312823   5.519   5.707   2.398  0.1768 -0.4056  0.1450
 2509poe     o212824   5.468   5.578   2.371  0.1348 -0.2023 -0.7920
 2509poe    c2312825   5.331   5.590   2.341 -0.0284 -0.1060 -0.0443
 2509poe    c2312826   5.290   5.455   2.279 -0.1735 -0.2141  0.2845
 2509poe     o212827   5.386   5.396   2.194 -0.2087  0.2605 -0.0861
 2509poe    c3112828   5.321   5.306   2.108 -0.5309  0.5795 -0.1785
 2510poe    c3112829   0.810   5.533   4.967 -0.3157 -0.1010  0.1083
 2510poe     o212830   0.775   5.661   4.920 -0.0488 -0.1854 -0.3255
 2510poe    c2312831   0.653   5.696   4.981 -0.1495 -0.1085 -0.5690
 2510poe    c2312832   0.639   5.844   4.940  0.2352  0.1097  0.0707
 2510poe     o212833   0.760   5.911   4.967  0.2817  0.1975 -0.3606
 2510poe    c2312834   0.754   6.047   4.928 -0.9310  0.3322  0.2598
 2510poe    c2312835   0.901   6.094   4.926 -0.5219 -0.9088 -0.1779
 2510poe     o212836   0.964   6.028   4.819 -0.2196 -0.0824 -0.5237
 2510poe    c2312837   1.075   6.107   4.784 -0.5828  0.5286 -0.2955
 2510poe    c2312838   1.148   6.056   4.659 -0.1328  0.0703  0.1473
 2510poe     o212839   1.195   5.924   4.676 -0.4020  0.0184  0.5117
 2510poe    c3112840   1.320   5.911   4.611 -0.7761 -0.0757 -0.1944
 2511poe    c3112841   6.449   6.932   4.357 -0.8474  0.2635 -0.0754
 2511poe     o212842   6.376   6.815   4.383 -0.4550 -0.0117 -0.2016
 2511poe    c2312843   6.467   6.709   4.362 -0.3204 -0.1239  0.8900
 2511poe    c2312844   6.407   6.573   4.402  0.0539 -0.6046 -0.1510
 2511poe     o212845   6.400   6.550   4.541 -0.4911 -0.1075 -0.0938
 2511poe    c2312846   6.364   6.422   4.590 -0.6060 -0.0578 -0.0471
 2511poe    c2312847   6.398   6.414   4.740 -0.6416  0.0672 -0.0323
 2511poe     o212848   6.343   6.522   4.811  0.0373  0.3604  0.0553
 2511poe    c2312849   6.360   6.492   4.948 -0.5104 -0.7207 -0.1017
 2511poe    c2312850   6.229   6.500   5.029 -0.0990 -0.0013  0.5011
 2511poe     o212851   6.188   6.629   4.989 -0.1967 -0.1935 -0.0147
 2511poe    c3112852   6.070   6.671   5.053 -0.0807 -0.1144  0.1473
 2512poe    c3112853   3.560   0.292   1.662 -0.4494 -0.2152 -0.6226
 2512poe     o212854   3.508   0.166   1.625 -0.0020 -0.5093 -0.2654
 2512poe    c2312855   3.599   0.061   1.648 -0.3108 -0.7832 -0.2759
 2512poe    c2312856   3.603   0.019   1.796 -0.1750 -0.1313 -0.0890
 2512poe     o212857   3.478  -0.027   1.843 -0.1884 -0.1549 -0.1473
 2512poe    c2312858   3.436  -0.155   1.800 -0.0566 -0.2964  0.1428
 2512poe    c2312859   3.297  -0.191   1.856 -0.1186 -0.2677  0.0077
 2512poe     o212860   3.195  -0.123   1.787 -0.0618 -0.2257 -0.0342
 2512poe    c2312861   3.068  -0.152   1.840  0.1154 -0.0679  0.4802
 2512poe    c2312862   2.964  -0.074   1.756  0.2086 -0.3486  0.1024
 2512poe     o212863   2.933  -0.125   1.629  0.6027  0.1031 -0.1780
 2512poe    c3112864   2.825  -0.064   1.563  0.4464 -0.0857 -0.0975
 2513poe    c3112865   2.431   6.404   2.818  0.0376 -0.1404  0.4460
 2513poe     o212866   2.418   6.475   2.939 -0.7451  0.1652  0.1874
 2513poe    c2312867   2.339   6.405   3.032 -0.6587 -0.0146  0.1262
 2513poe    c2312868   2.352   6.498   3.154  0.5440  0.6652 -0.5051
 2513poe     o212869   2.251   6.596   3.158  0.1368  0.2305  0.1637
 2513poe    c2312870   2.116   6.561   3.179  0.1611  0.1820  0.2399
 2513poe    c2312871   2.072   6.477   3.300 -0.1155 -0.0288 -0.0069
 2513poe     o212872   2.084   6.337   3.285  0.1853  0.0147 -0.1823
 2513poe    c2312873   1.990   6.271   3.203  0.2736 -0.1726 -0.1327
 2513poe    c2312874   2.019   6.123   3.174  0.3647 -0.1455 -0.1829
 2513poe     o212875   1.973   6.046   3.284  0.3798 -0.0046 -0.0776
 2513poe    c3112876   2.041   5.925   3.260  0.1419 -0.1211 -0.1632
 2514poe    c3112877   1.332   0.199   4.339  0.4080  0.0126 -0.0720
 2514poe     o212878   1.241   0.126   4.260  0.1571  0.2086  0.0367
 2514poe    c2312879   1.169   0.032   4.336 -0.2094  0.2451 -0.2628
 2514poe    c2312880   1.033  -0.002   4.271 -0.2538 -0.0978  0.0069
 2514poe     o212881   0.957   0.117   4.270  0.3870  0.3175 -0.1652
 2514poe    c2312882   0.820   0.087   4.285  0.3216  0.4643 -0.4648
 2514poe    c2312883   0.747   0.198   4.364  0.5586  0.0323  0.3693
 2514poe     o212884   0.615   0.149   4.375  0.2001  0.8023 -0.4892
 2514poe    c2312885   0.524   0.242   4.430 -0.1420  0.1112  0.1179
 2514poe    c2312886   0.379   0.206   4.392 -0.1020 -0.1970  0.2539
 2514poe     o212887   0.337   0.091   4.463  0.2315 -0.7616 -0.4416
 2514poe    c3112888   0.207   0.067   4.416  0.1613 -0.5056 -0.3801
 2515poe    c3112889   6.372   5.248   0.471 -0.1886 -0.4339 -0.0035
 2515poe     o212890   6.376   5.314   0.596 -0.7375 -0.2735 -0.0688
 2515poe    c2312891   6.411   5.227   0.701 -0.1525 -0.3291 -0.3051
 2515poe    c2312892   6.400   5.291   0.841 -0.1797 -0.6507 -0.1584
 2515poe     o212893   6.292   5.383   0.841  0.1839 -0.2202 -0.7358
 2515poe    c2312894   6.287   5.458   0.960  0.5942 -0.0654 -0.8147
 2515poe    c2312895   6.179   5.566   0.945  0.3245 -0.1769  0.2621
 2515poe     o212896   6.213   5.652   0.839 -0.2688 -0.4210 -0.1271
 2515poe    c2312897   6.113   5.750   0.823  0.2101  0.1767  0.5091
 2515poe    c2312898   6.092   5.798   0.678  0.1812 -0.1649  0.4003
 2515poe     o212899   6.029   5.699   0.601  0.1801  0.2810 -0.1757
 2515poe    c3112900   6.008   5.771   0.481  0.1360 -0.0395 -0.3621
 2516poe    c3112901   5.790   5.264   5.016  0.4304 -0.0370  0.7087
 2516poe     o212902   5.751   5.265   5.152 -0.2178 -0.1483  0.5258
 2516poe    c2312903   5.618   5.310   5.156 -0.2943 -0.3173 -0.0405
 2516poe    c2312904   5.555   5.279   5.293 -0.0472 -0.3885  0.0566
 2516poe     o212905   5.629   5.343   5.395 -0.2953 -0.3797  0.2326
 2516poe    c2312906   5.574   5.314   5.522 -0.2829  0.3102  0.4000
 2516poe    c2312907   5.666   5.336   5.643 -0.0394 -0.5736  0.3815
 2516poe     o212908   5.769   5.240   5.655  0.4388 -0.1439 -0.2238
 2516poe    c2312909   5.822   5.238   5.786 -0.0535  0.0876 -0.0160
 2516poe    c2312910   5.933   5.135   5.816 -0.0402 -0.1267 -0.7708
 2516poe     o212911   5.866   5.017   5.853 -0.4728  0.5081  0.5420
 2516poe    c3112912   5.971   4.931   5.889 -0.0865  0.3241 -0.9517
 2517poe    c3112913   4.154   5.049   5.509 -0.2612  0.7245 -0.6563
 2517poe     o212914   4.072   4.935   5.498  0.5338  0.1508 -0.7516
 2517poe    c2312915   4.115   4.846   5.397  0.5386 -0.6193 -0.0812
 2517poe    c2312916   4.041   4.712   5.413 -0.4324 -0.1535 -0.5808
 2517poe     o212917   4.038   4.663   5.546  0.2057 -0.2338 -0.5956
 2517poe    c2312918   3.957   4.551   5.572 -0.0301 -0.1101 -0.7810
 2517poe    c2312919   3.974   4.521   5.723 -0.4210  0.4240 -0.6288
 2517poe     o212920   3.973   4.640   5.799 -0.2374 -0.1188  0.2366
 2517poe    c2312921   3.977   4.614   5.937  0.3614 -0.2656  0.1934
 2517poe    c2312922   3.937   4.731   6.028  0.3091 -0.0317 -0.1292
 2517poe     o212923   4.032   4.834   6.023  0.2573  0.0296  0.1412
 2517poe    c3112924   4.011   4.946   6.107  0.3295  0.3022 -0.2005
 2518poe    c3112925   5.409   6.387   1.741  0.8799  0.0622 -0.4882
 2518poe     o212926   5.436   6.480   1.844 -0.1886 -0.0997 -0.0456
 2518poe    c2312927   5.466   6.602   1.778  1.0805 -0.4030 -0.0415
 2518poe    c2312928   5.500   6.718   1.873  0.1182 -0.3225  0.2103
 2518poe     o212929   5.577   6.660   1.977  0.5329 -0.1339  0.0092
 2518poe    c2312930   5.617   6.752   2.076 -0.3385  0.3426 -0.0614
 2518poe    c2312931   5.676   6.656   2.181 -0.3247  0.4258  0.0069
 2518poe     o212932   5.583   6.552   2.204  0.0579  0.0307 -0.2123
 2518poe    c2312933   5.652   6.448   2.270 -0.4761  0.0238  0.3422
 2518poe    c2312934   5.599   6.315   2.212  0.0999 -0.1750  0.2709
 2518poe     o212935   5.581   6.331   2.073 -0.0525  0.1584  0.3294
 2518poe    c3112936   5.542   6.208   2.017  0.2118 -0.0331  0.5704
 2519poe    c3112937   2.453   6.278   2.122 -0.2484 -0.2392 -0.2376
 2519poe     o212938   2.458   6.302   2.261  0.5675 -0.2785 -0.2558
 2519poe    c2312939   2.588   6.328   2.310  0.4314 -0.1205  0.0273
 2519poe    c2312940   2.587   6.337   2.463  0.3768 -0.3475  0.0413
 2519poe     o212941   2.515   6.451   2.505  0.3316 -0.3678  0.0193
 2519poe    c2312942   2.577   6.578   2.510 -0.1063 -0.1403 -0.2959
 2519poe    c2312943   2.487   6.668   2.598  0.1542 -0.2758  0.1148
 2519poe     o212944   2.380   6.727   2.527 -0.2096 -0.6362  0.3618
 2519poe    c2312945   2.297   6.805   2.610  0.3739  0.0674  0.2937
 2519poe    c2312946   2.158   6.738   2.605  0.2401  0.3620 -0.0513
 2519poe     o212947   2.145   6.687   2.475 -0.1454 -0.2052  0.2097
 2519poe    c3112948   2.012   6.657   2.438 -0.2116  0.4381 -0.0796
 2520poe    c3112949   4.683   6.587   6.894 -0.0904 -0.2279  0.8545
 2520poe     o212950   4.718   6.464   6.836  0.5160  0.3320 -0.0032
 2520poe    c2312951   4.845   6.420   6.878  0.2275  0.2279  0.7766
 2520poe    c2312952   4.837   6.316   6.991 -0.5324 -0.2961  0.2519
 2520poe     o212953   4.777   6.196   6.948 -1.1733  0.1142 -0.0222
 2520poe    c2312954   4.789   6.095   7.046 -0.2749  0.1867 -0.0483
 2520poe    c2312955   4.732   5.969   6.979 -0.6282 -0.1817  0.9226
 2520poe     o212956   4.609   5.999   6.918 -0.1327  0.4277  0.1944
 2520poe    c2312957   4.522   5.889   6.907  0.5055 -0.0344 -0.3215
 2520poe    c2312958   4.379   5.938   6.878  0.3682  0.2002  0.7108
 2520poe     o212959   4.377   6.046   6.788 -0.2541 -0.2432  0.1837
 2520poe    c3112960   4.256   6.051   6.716 -0.3010 -0.4041  0.2508
 2521poe    c3112961   6.754   6.622   1.652 -0.3479  0.2694 -0.1328
 2521poe     o212962   6.867   6.596   1.731  0.0929  0.2688 -0.7609
 2521poe    c2312963   6.887   6.456   1.738  0.5850  0.3817  0.2158
 2521poe    c2312964   7.001   6.440   1.841  0.6342 -0.2750  0.0599
 2521poe     o212965   6.973   6.483   1.972 -0.1962 -0.4465 -0.0507
 2521poe    c2312966   6.904   6.384   2.043 -0.0466 -0.4806  0.0471
 2521poe    c2312967   6.828   6.446   2.162 -0.3096 -0.0988 -0.3209
 2521poe     o212968   6.915   6.541   2.218 -0.4087 -0.0432 -0.2599
 2521poe    c2312969   6.867   6.609   2.332 -0.1439  0.7065 -0.5882
 2521poe    c2312970   6.977   6.717   2.341 -0.1675  0.6923 -0.0874
 2521poe     o212971   6.980   6.784   2.217  0.1587 -0.1601 -0.5468
 2521poe    c3112972   7.055   6.903   2.220  0.0758 -0.1177 -0.1233
 2522poe    c3112973   3.488   4.816   0.252  0.6105 -0.2635  0.1416
 2522poe     o212974   3.525   4.952   0.245  0.0320 -0.1473 -0.7492
 2522poe    c2312975   3.422   5.031   0.190 -0.1601  0.4935  0.4971
 2522poe    c2312976   3.482   5.156   0.123 -0.0761  0.0169 -0.3276
 2522poe     o212977   3.566   5.211   0.222 -0.2367  0.0856 -0.2291
 2522poe    c2312978   3.608   5.341   0.186  0.3065  0.0235  0.1679
 2522poe    c2312979   3.703   5.406   0.289  0.3848 -0.0515  0.1435
 2522poe     o212980   3.840   5.376   0.283  0.3724  0.0007 -0.4863
 2522poe    c2312981   3.889   5.407   0.411 -0.0235  0.4826 -0.4481
 2522poe    c2312982   4.039   5.419   0.444  0.0171 -0.4430 -0.2602
 2522poe     o212983   4.101   5.529   0.381 -0.0064 -0.1794  0.1715
 2522poe    c3112984   4.196   5.593   0.463  0.1654 -0.1410 -0.0554
 2523poe    c3112985   2.496   1.506   2.895  0.1444 -0.2936  0.6034
 2523poe     o212986   2.448   1.386   2.952 -0.5049 -0.1219  0.4312
 2523poe    c2312987   2.408   1.294   2.853  0.1685 -0.2284  0.2532
 2523poe    c2312988   2.371   1.163   2.924 -0.2167 -0.1873  0.1338
 2523poe     o212989   2.454   1.119   3.029 -0.1822 -0.2036  0.0998
 2523poe    c2312990   2.447   0.981   3.055 -0.2492 -0.2217 -0.0177
 2523poe    c2312991   2.535   0.949   3.177 -0.0382 -0.2053 -0.1654
 2523poe     o212992   2.503   1.045   3.274  0.0530 -0.2497 -0.0910
 2523poe    c2312993   2.602   1.039   3.374 -0.0967 -0.0336  0.0736
 2523poe    c2312994   2.577   1.134   3.493 -0.0106  0.0835 -0.0014
 2523poe     o212995   2.535   1.260   3.445  0.8934  0.3675 -0.0775
 2523poe    c3112996   2.487   1.340   3.551  0.0764  0.2951 -0.3861
 2524poe    c3112997   3.785   3.715   3.940 -0.3047 -0.3714  0.2163
 2524poe     o212998   3.727   3.794   4.042 -0.2958 -0.2586  0.1342
 2524poe    c2312999   3.659   3.908   3.996 -0.0769 -0.2687 -0.2216
 2524poe    c2313000   3.629   3.998   4.118 -0.2177 -0.4487 -0.1245
 2524poe     o213001   3.743   4.075   4.144 -0.1146 -0.7987  0.4908
 2524poe    c2313002   3.723   4.190   4.223  0.0243 -0.4293 -0.0017
 2524poe    c2313003   3.862   4.253   4.247 -0.1589 -0.0668  0.1132
 2524poe     o213004   3.947   4.180   4.332 -0.5884 -0.3428  0.3136
 2524poe    c2313005   4.065   4.254   4.358 -0.7949  0.0930  0.0241
 2524poe    c2313006   4.162   4.184   4.455 -0.4043  0.9724  0.2835
 2524poe     o213007   4.093   4.147   4.572  0.2170 -0.0236  0.3450
 2524poe    c3113008   4.172   4.062   4.652  0.4334  0.1583  0.3251
 2525poe    c3113009   6.512   2.453   4.779 -0.0364 -0.6117 -0.1268
 2525poe     o213010   6.588   2.406   4.670  0.1458 -0.5099 -0.0442
 2525poe    c2313011   6.594   2.502   4.567 -0.2247 -0.3163  0.1108
 2525poe    c2313012   6.653   2.434   4.442  0.1107  0.0936  0.0418
 2525poe     o213013   6.567   2.322   4.430 -0.0334  0.1690  0.3644
 2525poe    c2313014   6.618   2.240   4.327 -0.5390  0.0855  0.1792
 2525poe    c2313015   6.500   2.173   4.253 -0.1066 -0.2287 -0.2327
 2525poe     o213016   6.436   2.076   4.333 -0.5596  0.3677  0.1439
 2525poe    c2313017   6.364   1.975   4.265  0.5081 -0.3307  0.0192
 2525poe    c2313018   6.238   1.940   4.347  0.3624  0.2133  0.0326
 2525poe     o213019   6.149   2.049   4.356 -0.2321 -0.2727  0.1088
 2525poe    c3113020   6.060   2.044   4.465  0.0262  0.0024  0.3347
 2526poe    c3113021   6.592   5.501   4.598 -1.1104  0.2833  0.4165
 2526poe     o213022   6.549   5.422   4.706 -0.1327 -0.2959  0.4031
 2526poe    c2313023   6.561   5.491   4.829  0.3228  0.3423  0.0065
 2526poe    c2313024   6.694   5.499   4.906  0.4635  0.0193 -0.2018
 2526poe     o213025   6.763   5.377   4.893  0.0428 -0.1814 -0.5739
 2526poe    c2313026   6.875   5.384   4.977 -0.3810 -0.1793 -0.0028
 2526poe    c2313027   6.923   5.243   5.016  0.3619 -0.0119 -0.2758
 2526poe     o213028   6.923   5.163   4.900 -0.2115 -0.1636 -0.1781
 2526poe    c2313029   6.940   5.026   4.930  0.2261 -0.0376  0.1564
 2526poe    c2313030   6.916   4.942   4.804 -0.1720  0.3125 -0.0037
 2526poe     o213031   6.804   4.989   4.732  0.1797  0.3957 -0.5010
 2526poe    c3113032   6.727   4.884   4.678 -0.8242  0.7226  0.2640
 2527poe    c3113033   1.745   4.107   6.478 -0.1493 -0.7254  0.0439
 2527poe     o213034   1.724   4.236   6.428  0.5101 -0.6112  0.0466
 2527poe    c2313035   1.594   4.282   6.457  0.3493 -0.7450 -0.4424
 2527poe    c2313036   1.551   4.409   6.381  0.2096 -0.3728  0.2413
 2527poe     o213037   1.635   4.522   6.384 -0.2012 -0.0514 -0.3171
 2527poe    c2313038   1.559   4.637   6.353  0.1048  0.2182 -0.0719
 2527poe    c2313039   1.575   4.703   6.214 -0.0066  0.3981  0.0001
 2527poe     o213040   1.701   4.748   6.171  0.1277 -0.1423 -0.1875
 2527poe    c2313041   1.695   4.790   6.036  0.0634  0.3253 -0.0412
 2527poe    c2313042   1.826   4.836   5.969 -0.0491  0.3874 -0.2192
 2527poe     o213043   1.908   4.729   5.928  0.1400  0.4203  0.0681
 2527poe    c3113044   1.978   4.771   5.813 -0.2109  0.6596 -0.0607
 2528poe    c3113045   6.575   3.601   3.966 -0.0483  0.4438  0.0340
 2528poe     o213046   6.639   3.490   3.907 -0.6224  0.0506  0.1494
 2528poe    c2313047   6.699   3.512   3.782 -0.6462 -0.5040  0.0371
 2528poe    c2313048   6.795   3.398   3.743  0.0710  0.1561 -0.1579
 2528poe     o213049   6.720   3.279   3.757 -0.0177  0.2531  0.2001
 2528poe    c2313050   6.799   3.162   3.748 -0.1322  0.1399  0.6328
 2528poe    c2313051   6.704   3.045   3.776  0.3596 -0.3593  0.2347
 2528poe     o213052   6.639   3.046   3.901  0.0651 -0.4906  0.0839
 2528poe    c2313053   6.543   2.944   3.919  0.0861 -0.5753 -0.2803
 2528poe    c2313054   6.496   2.939   4.066  0.0876  0.0788 -0.2554
 2528poe     o213055   6.594   2.911   4.163 -0.4558 -0.1023  0.2376
 2528poe    c3113056   6.534   2.894   4.290  0.0413 -0.3461  0.4425
 2529poe    c3113057   4.329   5.203   6.954 -0.4468 -0.6047  0.3267
 2529poe     o213058   4.243   5.308   6.993 -0.1994 -0.1484 -0.3337
 2529poe    c2313059   4.135   5.240   7.052 -0.1660 -0.2509 -0.3889
 2529poe    c2313060   4.047   5.331   7.140  0.1960 -0.4382  0.1761
 2529poe     o213061   4.017   5.447   7.065 -0.0398 -0.4428  0.2598
 2529poe    c2313062   3.922   5.534   7.122 -0.0695 -0.2919 -0.0178
 2529poe    c2313063   3.989   5.647   7.202 -0.0999  0.2037 -0.6870
 2529poe     o213064   4.098   5.707   7.134 -0.0087  0.9034  0.0570
 2529poe    c2313065   4.155   5.819   7.197  0.2988  0.9951 -0.3823
 2529poe    c2313066   4.265   5.772   7.294 -0.0457  0.1721 -0.3803
 2529poe     o213067   4.376   5.747   7.211  0.0621  0.2280 -0.2532
 2529poe    c3113068   4.494   5.736   7.287 -0.1307 -0.4637 -0.0522
 2530poe    c3113069   6.465   0.055   5.334  0.1941 -0.2419  0.2342
 2530poe     o213070   6.554  -0.018   5.414  0.0770 -0.4467  0.1796
 2530poe    c2313071   6.668  -0.056   5.340 -0.2716  0.2843 -0.7455
 2530poe    c2313072   6.758  -0.154   5.416 -0.3919  0.7628  0.0293
 2530poe     o213073   6.691  -0.271   5.458  0.6944  0.1093  0.0002
 2530poe    c2313074   6.767  -0.360   5.536 -0.1079 -0.2757  0.3585
 2530poe    c2313075   6.673  -0.468   5.592 -0.0208 -0.7693 -0.4213
 2530poe     o213076   6.579  -0.430   5.690  0.5639  0.1804 -0.2140
 2530poe    c2313077   6.486  -0.533   5.711  0.4416  0.2526 -0.4096
 2530poe    c2313078   6.401  -0.490   5.832  0.2399  0.3248 -0.5746
 2530poe     o213079   6.374  -0.356   5.796  0.2736  0.6172  0.4671
 2530poe    c3113080   6.279  -0.295   5.879  0.0837 -0.0985  0.7856
 2531poe    c3113081   1.495   6.522   0.646 -0.1482  0.7140 -0.0999
 2531poe     o213082   1.364   6.570   0.667 -0.3662 -0.0951  0.4109
 2531poe    c2313083   1.321   6.617   0.541  0.2617 -0.2672  0.1279
 2531poe    c2313084   1.190   6.695   0.563  0.5673  0.2984 -0.0619
 2531poe     o213085   1.205   6.823   0.620 -0.1467  0.0788  0.6282
 2531poe    c2313086   1.079   6.856   0.673 -0.6798 -0.3961 -0.3233
 2531poe    c2313087   1.069   6.965   0.782 -0.2034 -0.7862  0.1124
 2531poe     o213088   1.064   7.099   0.738  0.1861 -0.7119  0.2871
 2531poe    c2313089   1.185   7.162   0.705 -0.3096 -0.1013 -0.3892
 2531poe    c2313090   1.161   7.314   0.697  0.0841  0.0205  0.6042
 2531poe     o213091   1.150   7.391   0.815 -0.4737  0.8907 -0.0059
 2531poe    c3113092   1.184   7.524   0.784 -0.5629  0.8567 -0.2553
 2532poe    c3113093   5.364   3.708   1.989 -0.4748 -0.3005  1.2120
 2532poe     o213094   5.476   3.627   1.959 -0.1806  0.5959 -0.2080
 2532poe    c2313095   5.453   3.496   2.005  0.4839  0.5934  0.1299
 2532poe    c2313096   5.592   3.432   2.021 -0.1918 -0.8451  0.4529
 2532poe     o213097   5.658   3.409   1.898  0.3061  0.5292  0.4444
 2532poe    c2313098   5.780   3.345   1.927  0.0267 -0.2013  0.0202
 2532poe    c2313099   5.908   3.410   1.983 -0.1133  0.2331 -0.1567
 2532poe     o213100   5.962   3.525   1.923  0.5233 -0.2888 -0.5959
 2532poe    c2313101   6.067   3.588   1.992 -0.1039 -0.1744  0.2689
 2532poe    c2313102   6.204   3.518   1.989  0.1160  0.2594  0.0825
 2532poe     o213103   6.215   3.393   2.054 -0.2303  0.1215 -0.1219
 2532poe    c3113104   6.346   3.340   2.056 -0.3417 -0.1677 -0.3526
 2533poe    c3113105   1.385   0.775   1.257 -0.2226 -0.2380  0.4307
 2533poe     o213106   1.447   0.879   1.185  0.1366 -0.4826  0.3842
 2533poe    c2313107   1.452   0.822   1.056  0.5239 -0.2330  0.2857
 2533poe    c2313108   1.528   0.917   0.963  0.2408 -0.2793  0.0057
 2533poe     o213109   1.666   0.903   0.986  0.3013 -0.1872 -0.2888
 2533poe    c2313110   1.740   0.969   0.886  0.1875  0.3378 -0.0301
 2533poe    c2313111   1.889   0.936   0.911  0.1397  0.1061 -0.0508
 2533poe     o213112   1.925   0.942   1.047  0.1218  0.1500 -0.0481
 2533poe    c2313113   2.037   0.863   1.081  0.1465  0.3657  0.3763
 2533poe    c2313114   2.022   0.832   1.231 -0.3907 -0.1250  0.2229
 2533poe     o213115   1.890   0.797   1.267 -0.4448 -0.0100  0.1399
 2533poe    c3113116   1.875   0.765   1.404  0.4498 -0.0102  0.2459
 2534poe    c3113117   4.656   1.366   5.030 -0.0632 -0.1790 -0.3379
 2534poe     o213118   4.782   1.341   4.970 -0.0370  0.3994 -0.5267
 2534poe    c2313119   4.795   1.209   4.923  0.3137  0.3539 -0.3066
 2534poe    c2313120   4.916   1.214   4.828  0.3390 -0.3688 -0.3144
 2534poe     o213121   4.915   1.316   4.730  0.4234 -0.4118 -0.3603
 2534poe    c2313122   5.011   1.298   4.629  0.0974 -0.2022 -0.7085
 2534poe    c2313123   4.995   1.399   4.513 -0.6187  0.0876 -0.3573
 2534poe     o213124   4.983   1.523   4.580 -0.0647  0.0515 -0.1878
 2534poe    c2313125   4.941   1.621   4.487  0.2960  0.2880 -0.1006
 2534poe    c2313126   4.941   1.762   4.548 -0.3647  0.0603  0.4338
 2534poe     o213127   5.077   1.798   4.560 -0.3150  0.1853 -0.4383
 2534poe    c3113128   5.100   1.934   4.588  0.7972 -0.1392  0.2855
 2535poe    c3113129   6.347   0.801   5.556 -0.1784 -0.7662  0.4783
 2535poe     o213130   6.226   0.855   5.607  0.1714  0.4939  0.0256
 2535poe    c2313131   6.156   0.751   5.672  0.2037  0.5759  0.1913
 2535poe    c2313132   6.013   0.784   5.720 -0.0954 -0.6019  0.1346
 2535poe     o213133   6.003   0.895   5.807 -0.0994 -0.2748 -0.2787
 2535poe    c2313134   5.865   0.907   5.831  0.0151 -0.1807  0.3470
 2535poe    c2313135   5.841   1.038   5.908  0.3188 -0.2236  0.5190
 2535poe     o213136   5.932   1.134   5.857  0.1493  0.0157  0.6649
 2535poe    c2313137   5.902   1.261   5.909 -0.0906  0.1052  0.3132
 2535poe    c2313138   6.034   1.341   5.919  0.2179 -0.3173 -0.3153
 2535poe     o213139   6.147   1.257   5.918  0.6552  0.2610  0.0289
 2535poe    c3113140   6.269   1.317   5.883  0.4919  0.0459 -0.9143
 2536poe    c3113141   0.083   4.345   2.804 -0.4502 -0.3431 -0.0484
 2536poe     o213142   0.114   4.391   2.675  0.4365 -0.8554 -0.0265
 2536poe    c2313143   0.004   4.364   2.592  0.1342  0.3545 -0.0480
 2536poe    c2313144  -0.097   4.479   2.574 -0.3373 -0.0438  0.0247
 2536poe     o213145  -0.049   4.590   2.502 -0.0557 -0.2788 -0.1538
 2536poe    c2313146  -0.152   4.686   2.485 -0.0808 -0.2388  0.2188
 2536poe    c2313147  -0.132   4.780   2.365  0.5672 -0.3293  0.2521
 2536poe     o213148  -0.016   4.861   2.364  0.1286  0.2993 -0.4437
 2536poe    c2313149  -0.021   4.972   2.451 -0.2785  0.1073 -0.2188
 2536poe    c2313150   0.120   5.025   2.481 -0.3203 -0.0656  0.2893
 2536poe     o213151   0.214   4.940   2.542 -0.0477  0.1199  0.1325
 2536poe    c3113152   0.342   4.996   2.558 -0.2198  0.7354 -0.5785
 2537poe    c3113153   3.307   4.970   4.377 -0.2608  0.1381 -0.6602
 2537poe     o213154   3.211   5.071   4.399  0.1296  0.3592  0.0465
 2537poe    c2313155   3.120   5.039   4.503 -0.0400  0.4142 -0.0849
 2537poe    c2313156   2.993   5.127   4.502 -0.1780  0.2259  0.4332
 2537poe     o213157   2.923   5.111   4.381  0.1289  0.2288  0.2523
 2537poe    c2313158   2.814   5.200   4.389 -0.2787 -0.2265 -0.1190
 2537poe    c2313159   2.740   5.229   4.257 -0.1783  0.4032 -0.0415
 2537poe     o213160   2.708   5.106   4.196  0.8300  0.0556  0.1132
 2537poe    c2313161   2.690   5.106   4.057  0.1239  0.3656  0.1974
 2537poe    c2313162   2.629   4.970   4.018  0.6093  0.0913  0.3784
 2537poe     o213163   2.701   4.849   4.027 -0.0419 -0.3414 -0.1604
 2537poe    c3113164   2.626   4.742   3.974 -0.3004 -0.0886 -0.3152
 2538poe    c3113165   6.030   6.558   3.058  0.5357  0.4768  0.5443
 2538poe     o213166   6.129   6.460   3.080 -0.3983 -0.5623  0.1722
 2538poe    c2313167   6.151   6.402   2.953  0.3346 -0.4637  0.2516
 2538poe    c2313168   6.262   6.296   2.955  0.3445 -0.4594 -0.0396
 2538poe     o213169   6.220   6.179   3.022 -0.5525  0.0595  0.3257
 2538poe    c2313170   6.335   6.098   3.024 -0.4861  0.1489  0.1129
 2538poe    c2313171   6.309   5.956   3.077  0.5121 -0.1300 -0.1193
 2538poe     o213172   6.272   5.949   3.213  0.2879  0.3496 -0.1548
 2538poe    c2313173   6.199   5.836   3.255  0.3484  0.2041 -0.4359
 2538poe    c2313174   6.047   5.835   3.229  0.3572  0.3592 -0.4893
 2538poe     o213175   5.991   5.954   3.281 -0.0264 -0.0539  0.0535
 2538poe    c3113176   5.851   5.952   3.264 -0.0576  0.0523  0.2921
 2539poe    c3113177   1.321   4.635   1.159  0.3186 -0.4550 -0.4647
 2539poe     o213178   1.273   4.534   1.245 -0.0233  0.2085  0.1382
 2539poe    c2313179   1.165   4.460   1.191  0.2931 -0.0531 -0.1387
 2539poe    c2313180   1.151   4.317   1.247 -0.1409 -0.0113 -0.1392
 2539poe     o213181   1.189   4.298   1.381  0.1332 -0.0191 -0.2155
 2539poe    c2313182   1.147   4.173   1.431 -0.4647  0.4480  0.4955
 2539poe    c2313183   1.166   4.172   1.584  0.4379 -0.0987  0.3925
 2539poe     o213184   1.075   4.251   1.658 -0.0387 -0.1745 -0.1001
 2539poe    c2313185   1.078   4.221   1.795  0.1120  0.0808 -0.0472
 2539poe    c2313186   0.975   4.309   1.868  0.4848  0.4536  0.0392
 2539poe     o213187   0.972   4.430   1.796 -0.0803  0.4346  0.0217
 2539poe    c3113188   0.918   4.536   1.872 -0.0300  0.3427  0.1863
 2540poe    c3113189   1.891   0.635   3.048 -0.2023 -0.8744 -0.1794
 2540poe     o213190   1.978   0.528   3.021  0.7364 -0.1457 -0.0878
 2540poe    c2313191   1.925   0.405   3.065 -0.4927  0.2844 -0.3264
 2540poe    c2313192   2.033   0.296   3.046 -0.0143  0.6623  0.1749
 2540poe     o213193   2.070   0.319   2.912 -0.4844 -0.4412 -0.1613
 2540poe    c2313194   2.168   0.226   2.872 -0.2280 -0.3175  0.1742
 2540poe    c2313195   2.232   0.286   2.746  0.6260 -0.1435  0.6825
 2540poe     o213196   2.268   0.420   2.768 -0.3994  0.2654 -0.0932
 2540poe    c2313197   2.344   0.469   2.659  0.1833  0.1601  0.2645
 2540poe    c2313198   2.398   0.613   2.654 -0.2746  0.3649  1.0297
 2540poe     o213199   2.293   0.702   2.625  0.1174  0.4348 -0.2195
 2540poe    c3113200   2.294   0.837   2.668  0.2420  0.1421  0.6938
 2541poe    c3113201   1.687   4.987   1.228 -0.0747 -0.1923 -0.0629
 2541poe     o213202   1.825   5.009   1.250 -0.0986  0.5357 -0.5856
 2541poe    c2313203   1.862   5.094   1.357 -0.3541 -0.1780  0.0771
 2541poe    c2313204   1.985   5.175   1.314  0.2370 -0.9765  0.2528
 2541poe     o213205   2.080   5.089   1.254  0.6293 -0.2980 -0.1111
 2541poe    c2313206   2.212   5.140   1.254  0.3980  0.3073 -0.1194
 2541poe    c2313207   2.315   5.056   1.176  0.4933  0.2407  0.0757
 2541poe     o213208   2.261   5.048   1.046  0.0606 -0.1470  0.2753
 2541poe    c2313209   2.356   5.006   0.950  0.1643  0.1488  0.2474
 2541poe    c2313210   2.280   4.931   0.840  0.3272  0.3868 -0.0275
 2541poe     o213211   2.148   4.982   0.836  0.2647  0.2045 -0.3464
 2541poe    c3113212   2.079   4.904   0.742 -0.3470 -0.8551  0.9455
 2542poe    c3113213   3.589   0.871   4.218 -0.1829 -0.4943  0.6651
 2542poe     o213214   3.599   0.777   4.113 -0.5101  0.0371  0.1519
 2542poe    c2313215   3.653   0.659   4.169 -0.1547  0.3394  0.4538
 2542poe    c2313216   3.693   0.559   4.058 -0.3158 -0.0510  0.7482
 2542poe     o213217   3.583   0.526   3.976  0.0562  0.1030  0.1879
 2542poe    c2313218   3.605   0.413   3.894  0.4061  0.3794 -0.1043
 2542poe    c2313219   3.488   0.377   3.800  0.5208  0.3232 -0.2260
 2542poe     o213220   3.424   0.495   3.756 -0.0302  0.1136  0.0114
 2542poe    c2313221   3.352   0.478   3.636 -0.0141  0.1457 -0.0028
 2542poe    c2313222   3.330   0.622   3.585  0.3593  0.0377 -0.4653
 2542poe     o213223   3.290   0.695   3.698  0.1819  0.0503 -0.5367
 2542poe    c3113224   3.259   0.830   3.671 -0.1142 -0.0610 -0.7564
 2543poe    c3113225   1.459   3.332   0.617 -0.2181  0.2753  0.4580
 2543poe     o213226   1.328   3.329   0.565 -0.1019 -0.2824  0.1927
 2543poe    c2313227   1.298   3.194   0.533  0.0903 -0.2702 -0.0487
 2543poe    c2313228   1.151   3.192   0.487  0.0555 -0.2086  0.0581
 2543poe     o213229   1.128   3.268   0.370 -0.2837  0.2132  0.3987
 2543poe    c2313230   1.011   3.233   0.300 -0.0529  0.0820  0.0803
 2543poe    c2313231   0.993   3.325   0.178 -0.1111  0.0591  0.0714
 2543poe     o213232   1.012   3.455   0.229 -0.3365  0.0451  0.1919
 2543poe    c2313233   0.993   3.555   0.132 -0.1142 -0.1460 -0.0490
 2543poe    c2313234   1.000   3.700   0.184  0.0822 -0.1347 -0.1063
 2543poe     o213235   1.107   3.711   0.275  0.2668 -0.2560 -0.3095
 2543poe    c3113236   1.098   3.837   0.337  0.0955 -0.3904 -0.0597
 2544poe    c3113237   3.002   3.165   2.448 -0.4201 -0.3321  0.3069
 2544poe     o213238   2.999   3.292   2.510 -0.0645 -0.0182 -0.3090
 2544poe    c2313239   2.996   3.276   2.650 -0.6381  0.4366 -0.2647
 2544poe    c2313240   2.930   3.398   2.717 -0.5368  0.5511 -0.3717
 2544poe     o213241   2.982   3.509   2.648  0.4486  0.3620  0.0529
 2544poe    c2313242   2.938   3.630   2.703 -0.0884  0.0430  0.3263
 2544poe    c2313243   3.022   3.747   2.648 -0.2230  0.2402  0.5346
 2544poe     o213244   3.004   3.767   2.510 -0.0318 -0.4707  0.4023
 2544poe    c2313245   3.082   3.868   2.450 -0.0389 -0.4912  0.3579
 2544poe    c2313246   3.012   3.913   2.320 -0.1744  0.0229  0.6057
 2544poe     o213247   3.006   3.799   2.238 -0.2503  0.4608 -0.0038
 2544poe    c3113248   2.971   3.820   2.103  0.0671 -0.1713 -0.1890
 2545poe    c3113249   3.674   4.908   3.604 -0.7678 -0.1842  0.1514
 2545poe     o213250   3.730   4.779   3.602  0.4746  0.3587 -0.4546
 2545poe    c2313251   3.855   4.772   3.668 -0.0131 -0.4749  0.4117
 2545poe    c2313252   3.883   4.622   3.682  0.3977 -0.4655 -0.2588
 2545poe     o213253   3.780   4.560   3.755  0.1936 -0.2974 -0.4036
 2545poe    c2313254   3.818   4.436   3.811 -0.2981 -0.0196  0.5718
 2545poe    c2313255   3.708   4.380   3.902 -0.4740  0.2416  0.5223
 2545poe     o213256   3.586   4.388   3.832 -0.2130 -0.4178 -0.0224
 2545poe    c2313257   3.490   4.319   3.909  0.1676 -0.2899  0.5724
 2545poe    c2313258   3.352   4.337   3.844  0.6521  0.6024 -0.2306
 2545poe     o213259   3.330   4.476   3.826  0.1659  0.5245 -0.2535
 2545poe    c3113260   3.207   4.504   3.764 -0.2983 -0.1613  0.3321
 2546poe    c3113261   5.407   0.045   4.224 -0.3536 -0.0910 -0.5353
 2546poe     o213262   5.510  -0.051   4.220  0.0490  0.3340 -0.4610
 2546poe    c2313263   5.632   0.019   4.209  0.7167 -0.6920  0.2899
 2546poe    c2313264   5.736  -0.082   4.157  0.9782 -0.0512 -0.4390
 2546poe     o213265   5.692  -0.144   4.038 -0.1734  0.0667 -0.0966
 2546poe    c2313266   5.775  -0.256   4.015 -0.0060  0.1341  0.1859
 2546poe    c2313267   5.738  -0.315   3.878 -0.1924  0.8901 -0.0939
 2546poe     o213268   5.599  -0.335   3.883 -0.0557 -0.0701  0.0868
 2546poe    c2313269   5.551  -0.399   3.767 -0.3930  0.1968  0.0763
 2546poe    c2313270   5.399  -0.423   3.772 -0.4206  0.2857 -0.2766
 2546poe     o213271   5.350  -0.292   3.790  0.0946  0.4626 -0.1523
 2546poe    c3113272   5.214  -0.301   3.756 -0.1088  0.3212  0.6703
 2547poe    c3113273   0.392   6.625   1.410  0.5856  0.4834 -0.3506
 2547poe     o213274   0.317   6.588   1.296  0.3695 -0.5834  0.1266
 2547poe    c2313275   0.385   6.529   1.187  0.4405  0.2261 -0.2812
 2547poe    c2313276   0.294   6.546   1.064  0.1464 -0.7058 -0.2041
 2547poe     o213277   0.172   6.478   1.084 -0.3179  0.0062 -0.5679
 2547poe    c2313278   0.084   6.483   0.975 -0.3160  0.2772 -0.5593
 2547poe    c2313279  -0.043   6.407   1.021  0.0003 -0.2760 -0.5887
 2547poe     o213280  -0.066   6.439   1.156 -0.2009 -0.0003 -0.6861
 2547poe    c2313281  -0.184   6.372   1.194 -0.5815  0.5065 -0.9722
 2547poe    c2313282  -0.235   6.418   1.333  0.1423 -0.8110 -0.2582
 2547poe     o213283  -0.367   6.376   1.358  0.0113 -0.0593  0.3283
 2547poe    c3113284  -0.472   6.445   1.294  0.6422  0.5787 -0.0380
 2548poe    c3113285   6.196   2.548   6.513 -0.5934 -0.0989 -0.3788
 2548poe     o213286   6.117   2.601   6.409 -0.8338 -0.4802 -0.3938
 2548poe    c2313287   6.046   2.710   6.463  0.1636  0.0750 -0.1832
 2548poe    c2313288   5.992   2.816   6.366 -0.2897  0.2491  0.2540
 2548poe     o213289   5.906   2.750   6.275  0.2964 -0.1605 -0.0087
 2548poe    c2313290   5.815   2.832   6.205  0.6867  0.3634  0.0914
 2548poe    c2313291   5.789   2.765   6.069  0.3259  0.4540  0.1142
 2548poe     o213292   5.734   2.640   6.107  0.5660  0.2184 -0.3043
 2548poe    c2313293   5.677   2.578   5.994  0.0462  0.2197 -0.0449
 2548poe    c2313294   5.601   2.460   6.056 -0.5436  0.5409 -0.1422
 2548poe     o213295   5.698   2.392   6.134 -0.4169  0.4624 -0.3675
 2548poe    c3113296   5.650   2.261   6.154  0.4057  0.0933 -0.7506
 2549poe    c3113297   1.448   1.509   6.713 -0.2438  0.0532 -0.0481
 2549poe     o213298   1.580   1.471   6.681 -0.0921  0.2730  0.3012
 2549poe    c2313299   1.609   1.564   6.579  0.2625 -0.4318 -0.2500
 2549poe    c2313300   1.756   1.564   6.533  0.2695  0.6498 -0.2606
 2549poe     o213301   1.800   1.433   6.503 -0.1361  0.3896  0.2670
 2549poe    c2313302   1.925   1.397   6.557  0.0211 -0.2426 -0.4988
 2549poe    c2313303   1.964   1.259   6.501 -0.0764 -0.2844 -0.4638
 2549poe     o213304   1.891   1.168   6.580  0.2583 -0.2728 -0.1409
 2549poe    c2313305   1.956   1.092   6.680 -0.3405 -0.2116  0.2961
 2549poe    c2313306   1.863   0.980   6.732 -0.8352  0.0699  0.0239
 2549poe     o213307   1.829   0.896   6.624  0.6454 -0.1087 -0.3237
 2549poe    c3113308   1.741   0.790   6.654  0.5268  0.2333  0.5457
 2550poe    c3113309   0.588   6.496   0.385 -0.0016  0.5295  0.0794
 2550poe     o213310   0.643   6.561   0.273 -0.3908 -0.2207 -0.5611
 2550poe    c2313311   0.777   6.516   0.263 -0.2761 -0.0554  0.1875
 2550poe    c2313312   0.855   6.595   0.156 -0.2178  0.1086  0.3508
 2550poe     o213313   0.765   6.621   0.051 -0.0303  0.1662  0.2047
 2550poe    c2313314   0.813   6.643  -0.080 -0.1581  0.0670  0.1401
 2550poe    c2313315   0.705   6.602  -0.181  0.1342 -0.3145 -0.0178
 2550poe     o213316   0.608   6.703  -0.169  0.1390 -0.2513 -0.5003
 2550poe    c2313317   0.503   6.693  -0.262 -0.1274  0.1452 -0.2466
 2550poe    c2313318   0.392   6.793  -0.224  0.0180  0.3330 -0.3150
 2550poe     o213319   0.341   6.772  -0.094 -0.5716 -0.3591 -0.6510
 2550poe    c3113320   0.242   6.871  -0.082 -0.4119 -0.2412 -0.2886
 2551poe    c3113321   2.345   2.323   0.429 -0.3262 -0.7007  0.1056
 2551poe     o213322   2.446   2.249   0.364  0.7457  0.7437  0.0820
 2551poe    c2313323   2.531   2.170   0.443  0.4645  0.0998 -0.2533
 2551poe    c2313324   2.612   2.223   0.563  0.1606 -0.0835  0.0343
 2551poe     o213325   2.726   2.294   0.523  0.2548 -0.0468  0.3633
 2551poe    c2313326   2.716   2.419   0.589 -0.4189 -0.1414  0.4470
 2551poe    c2313327   2.847   2.495   0.561 -0.2801 -0.3034  0.6551
 2551poe     o213328   2.969   2.452   0.619  0.4625  0.0904 -0.5820
 2551poe    c2313329   3.075   2.490   0.534  0.2843  0.7984 -0.4941
 2551poe    c2313330   3.207   2.412   0.542 -0.0785  0.1623 -0.6266
 2551poe     o213331   3.279   2.458   0.654 -0.0457 -0.4238 -0.4038
 2551poe    c3113332   3.397   2.385   0.680  0.6161  0.7237 -0.1004
 2552poe    c3113333   6.793   2.421   3.982  0.3314 -0.6975  0.3437
 2552poe     o213334   6.868   2.538   4.005 -0.3520 -0.2305  0.2386
 2552poe    c2313335   6.873   2.616   3.888 -0.0462  0.0581  0.4447
 2552poe    c2313336   6.883   2.764   3.930 -0.4278  0.0046  0.7230
 2552poe     o213337   7.007   2.820   3.966  0.0521 -0.4673 -0.1523
 2552poe    c2313338   7.063   2.922   3.886 -0.3583  0.0615  0.2231
 2552poe    c2313339   7.201   2.973   3.931  0.0351 -0.9601  0.1941
 2552poe     o213340   7.184   3.028   4.060 -0.4226  0.0095 -0.2729
 2552poe    c2313341   7.300   3.064   4.132 -0.4521  0.0378 -0.2393
 2552poe    c2313342   7.267   3.146   4.258  0.0120 -0.0787 -0.0380
 2552poe     o213343   7.185   3.083   4.355  0.5196 -0.0510  0.4103
 2552poe    c3113344   7.145   3.170   4.459  0.1221  0.2548  0.0070
 2553poe    c3113345   1.546   5.485   1.155 -0.3328 -0.6066 -0.5361
 2553poe     o213346   1.413   5.471   1.201 -0.1431  0.0321  0.2231
 2553poe    c2313347   1.389   5.337   1.237  0.0860  0.0201  0.3358
 2553poe    c2313348   1.257   5.325   1.317 -0.1876 -0.0572 -0.1226
 2553poe     o213349   1.147   5.365   1.239  0.2448  0.0418 -0.6894
 2553poe    c2313350   1.031   5.355   1.319  0.3181  0.0357 -0.5838
 2553poe    c2313351   0.918   5.417   1.235 -0.1573  0.0814  0.0829
 2553poe     o213352   0.925   5.345   1.113  0.1386  0.0477  0.1182
 2553poe    c2313353   0.823   5.391   1.027  0.1252 -0.2291 -0.0141
 2553poe    c2313354   0.813   5.288   0.913 -0.1233  0.4285 -0.5961
 2553poe     o213355   0.945   5.291   0.861  0.0154  0.1846 -0.2646
 2553poe    c3113356   0.973   5.191   0.767 -0.3027 -0.1674  0.0112
 2554poe    c3113357   0.868   1.321   0.603  0.2779  0.3051 -0.1916
 2554poe     o213358   0.953   1.231   0.536  0.1010 -0.0216  0.0252
 2554poe    c2313359   0.936   1.107   0.603 -0.0107 -0.2108 -0.3522
 2554poe    c2313360   1.040   1.009   0.545 -0.1383 -0.5384 -0.0324
 2554poe     o213361   1.010   1.016   0.407  0.3606  0.9282 -0.0862
 2554poe    c2313362   1.112   0.953   0.332 -0.4038 -0.4829  0.0397
 2554poe    c2313363   1.088   0.962   0.180 -0.4159 -0.2709  0.0541
 2554poe     o213364   1.050   1.090   0.136  0.0834 -0.1851 -0.1341
 2554poe    c2313365   1.066   1.093  -0.004  0.1394  0.4454 -0.1176
 2554poe    c2313366   1.011   1.224  -0.063 -0.8063  0.1614  0.1220
 2554poe     o213367   1.082   1.338  -0.017 -0.4369  0.0073 -0.0641
 2554poe    c3113368   1.049   1.459  -0.082  0.0976  0.2162  0.0535
 2555poe    c3113369   2.952   6.326   6.822 -0.3085  0.4139  0.1791
 2555poe     o213370   3.019   6.298   6.943  0.2752 -0.2111 -0.2812
 2555poe    c2313371   2.965   6.179   6.997  0.1686 -0.0533 -0.0386
 2555poe    c2313372   3.030   6.151   7.133 -0.2765 -0.1441  0.1566
 2555poe     o213373   3.020   6.242   7.240 -0.5219  0.6446 -0.5297
 2555poe    c2313374   2.895   6.257   7.306 -0.1970  0.4800  0.1374
 2555poe    c2313375   2.903   6.354   7.425  0.2632  0.2932  0.2605
 2555poe     o213376   2.972   6.465   7.372 -0.4742  0.5593 -0.1487
 2555poe    c2313377   2.981   6.562   7.474  0.2696  0.1589  0.1775
 2555poe    c2313378   3.054   6.679   7.408 -0.4739  0.3182 -0.3816
 2555poe     o213379   3.184   6.647   7.361 -0.3783  0.7374 -0.4139
 2555poe    c3113380   3.260   6.765   7.352 -0.5274  0.8349 -0.3922
 2556poe    c3113381   4.878   4.760   3.602  0.2442 -0.4775 -0.2634
 2556poe     o213382   4.870   4.654   3.510  0.0208 -0.6843 -0.0108
 2556poe    c2313383   4.993   4.585   3.505  0.2239 -0.3505  0.3939
 2556poe    c2313384   4.987   4.461   3.414  0.1505 -0.0470 -0.0185
 2556poe     o213385   4.897   4.364   3.461  0.1722 -0.1197 -0.1264
 2556poe    c2313386   4.985   4.268   3.516  0.8032  0.2276 -0.5171
 2556poe    c2313387   4.899   4.163   3.588  0.8251  0.1378 -0.6211
 2556poe     o213388   4.847   4.195   3.715  0.1359  0.3249 -0.9475
 2556poe    c2313389   4.756   4.100   3.766  0.3018  0.8292  0.3383
 2556poe    c2313390   4.676   4.132   3.894 -0.3330 -0.4521  0.2763
 2556poe     o213391   4.583   4.236   3.879  0.2161  0.0882  0.5713
 2556poe    c3113392   4.491   4.240   3.986 -0.1384 -0.6607  0.2959
 2557poe    c3113393   2.485   3.413   2.524 -0.1603  0.0465  0.6453
 2557poe     o213394   2.482   3.524   2.438  0.2918 -0.7596 -0.4389
 2557poe    c2313395   2.608   3.557   2.383  0.2871 -0.1096 -0.0781
 2557poe    c2313396   2.610   3.573   2.230 -0.1149  0.2073 -0.0526
 2557poe     o213397   2.598   3.447   2.169 -0.6883  0.1544  0.1689
 2557poe    c2313398   2.649   3.452   2.038 -0.7723 -0.2423  0.1183
 2557poe    c2313399   2.616   3.330   1.950 -0.3442 -0.1697 -0.1459
 2557poe     o213400   2.677   3.206   1.981  0.2801  0.1960  0.1148
 2557poe    c2313401   2.795   3.182   1.909  0.3482 -0.0353  0.3011
 2557poe    c2313402   2.835   3.034   1.914 -0.0846 -0.1654 -0.0124
 2557poe     o213403   2.933   3.010   2.013  0.1660 -0.0069 -0.2225
 2557poe    c3113404   2.942   2.874   2.047 -0.1030  0.1563  0.5283
 2558poe    c3113405   1.782   2.418   5.245  0.0997  1.1325 -0.6664
 2558poe     o213406   1.768   2.480   5.370 -0.0863  0.3837 -0.3143
 2558poe    c2313407   1.762   2.620   5.358 -0.6177  0.3887 -0.0389
 2558poe    c2313408   1.691   2.703   5.467 -0.2804  0.0663  0.4271
 2558poe     o213409   1.745   2.670   5.593  0.7304  0.1702  0.0386
 2558poe    c2313410   1.674   2.729   5.700  1.0302  0.5820  0.0095
 2558poe    c2313411   1.732   2.739   5.842  0.8047 -0.0757  0.1511
 2558poe     o213412   1.808   2.858   5.840  0.1717  0.3255 -0.3630
 2558poe    c2313413   1.926   2.849   5.916 -0.0150 -0.5223 -0.1639
 2558poe    c2313414   2.017   2.969   5.884 -0.3990 -0.2044 -0.0734
 2558poe     o213415   1.984   3.091   5.946 -0.1589 -0.1678 -0.0167
 2558poe    c3113416   1.875   3.149   5.878 -0.6059 -0.1043  0.7377
 2559poe    c3113417   5.908   6.829   6.645 -0.7056 -1.1821 -0.5415
 2559poe     o213418   5.995   6.729   6.692  0.5199  0.1657  0.1535
 2559poe    c2313419   6.125   6.776   6.664  0.5139 -0.0247 -0.2014
 2559poe    c2313420   6.233   6.668   6.678 -0.0720 -0.5520  0.2581
 2559poe     o213421   6.255   6.616   6.808  0.0120 -0.3801  0.3115
 2559poe    c2313422   6.382   6.556   6.804  0.1319 -0.0943 -0.2332
 2559poe    c2313423   6.402   6.454   6.917 -0.3249  0.2950  0.2031
 2559poe     o213424   6.435   6.482   7.051 -0.3518  0.5760  0.1510
 2559poe    c2313425   6.483   6.371   7.123 -0.1512  0.7521  0.2890
 2559poe    c2313426   6.546   6.405   7.259 -0.3821 -0.6251  0.7592
 2559poe     o213427   6.679   6.451   7.250 -0.7008  0.1884  0.0734
 2559poe    c3113428   6.711   6.582   7.208 -0.3723  0.0799 -0.0178
 2560poe    c3113429   6.521   2.928   0.289  0.1942  0.0439 -0.4405
 2560poe     o213430   6.514   3.011   0.403  0.0202  0.1794 -0.5492
 2560poe    c2313431   6.459   3.139   0.379 -0.6909 -0.0553 -0.2186
 2560poe    c2313432   6.424   3.222   0.503  0.2888  0.1062 -0.0435
 2560poe     o213433   6.534   3.253   0.586  0.1864 -0.4517  0.3039
 2560poe    c2313434   6.491   3.328   0.698 -0.1287  0.2955 -0.3125
 2560poe    c2313435   6.540   3.474   0.704  0.1712  0.1608  0.7302
 2560poe     o213436   6.495   3.564   0.605 -0.0207 -0.2874  0.4044
 2560poe    c2313437   6.592   3.608   0.513  0.0383  0.1789  0.6867
 2560poe    c2313438   6.521   3.697   0.410  0.2461 -0.3968  0.0372
 2560poe     o213439   6.417   3.641   0.333  0.0735 -0.1949  0.1224
 2560poe    c3113440   6.360   3.753   0.270  0.0378  0.1203  0.7034
 2561poe    c3113441   0.449   4.175   4.809  0.0113  0.0493  0.0908
 2561poe     o213442   0.449   4.034   4.798 -0.0847  0.0400  0.2121
 2561poe    c2313443   0.538   3.983   4.894  0.1393  0.4697  0.2345
 2561poe    c2313444   0.478   3.877   4.988 -0.0180  0.4908  0.1571
 2561poe     o213445   0.419   3.768   4.921  0.1441  0.3736  0.2035
 2561poe    c2313446   0.378   3.670   5.013  0.4661  0.0546  0.0084
 2561poe    c2313447   0.299   3.569   4.928 -0.5332  0.2451  0.6935
 2561poe     o213448   0.176   3.623   4.885 -0.2375  0.3394 -0.0507
 2561poe    c2313449   0.119   3.543   4.783  0.0885 -0.0859  0.0938
 2561poe    c2313450  -0.020   3.605   4.756  0.3311  0.2560 -0.3906
 2561poe     o213451  -0.013   3.745   4.775  0.2508  0.2123 -0.0327
 2561poe    c3113452  -0.145   3.791   4.759 -0.0292 -0.2229  0.9162
 2562poe    c3113453   4.500   3.328   3.437  0.6920 -0.0428 -0.3257
 2562poe     o213454   4.548   3.218   3.510 -0.4865 -0.5183 -0.2489
 2562poe    c2313455   4.542   3.100   3.434  0.1912 -0.5471 -0.2622
 2562poe    c2313456   4.572   2.982   3.529  0.2295 -0.3613 -0.0449
 2562poe     o213457   4.695   2.972   3.598  0.0363  0.2745  0.4113
 2562poe    c2313458   4.806   2.934   3.520 -0.6486 -0.6651 -0.1393
 2562poe    c2313459   4.924   2.962   3.615 -0.6762  0.1477 -0.3316
 2562poe     o213460   4.897   3.065   3.706  0.4991 -0.1239  0.3501
 2562poe    c2313461   5.006   3.090   3.792  0.4879  0.2681  0.2523
 2562poe    c2313462   4.943   3.183   3.898 -0.0725  0.2851 -0.0936
 2562poe     o213463   4.820   3.126   3.938  0.1196 -0.0321  0.0448
 2562poe    c3113464   4.765   3.210   4.037  0.0038 -0.0418 -0.0111
 2563poe    c3113465   3.336   6.354   5.981 -0.1356 -0.0978 -0.0060
 2563poe     o213466   3.476   6.342   5.976 -0.1425 -0.2424  0.1320
 2563poe    c2313467   3.530   6.468   6.009 -0.0279 -0.2014 -0.2128
 2563poe    c2313468   3.676   6.458   6.057  0.0272  0.3108 -0.2693
 2563poe     o213469   3.686   6.401   6.186  0.2280 -0.2152 -0.5126
 2563poe    c2313470   3.811   6.419   6.247 -0.2790  0.3968  0.3732
 2563poe    c2313471   3.814   6.330   6.372 -0.0019 -0.2291 -0.0740
 2563poe     o213472   3.804   6.193   6.341  0.2785 -0.1917 -0.3255
 2563poe    c2313473   3.874   6.116   6.437  0.8755  0.5238 -0.1775
 2563poe    c2313474   3.866   5.969   6.392 -0.2846  0.6391 -0.3902
 2563poe     o213475   3.746   5.907   6.351  0.2529 -0.1691 -0.7791
 2563poe    c3113476   3.778   5.770   6.358  0.2334 -0.1241  0.6564
 2564poe    c3113477   4.378   4.025   2.168 -0.1139 -0.1096 -0.2319
 2564poe     o213478   4.415   4.149   2.112  0.0636  0.0328  0.1978
 2564poe    c2313479   4.384   4.252   2.203  0.2991  0.1043  0.1982
 2564poe    c2313480   4.449   4.381   2.151  0.1909  0.0251 -0.1321
 2564poe     o213481   4.433   4.364   2.012  0.3513  0.1967 -0.1729
 2564poe    c2313482   4.453   4.488   1.948 -0.1382  0.5350  0.3265
 2564poe    c2313483   4.447   4.482   1.794  0.1030  0.3398  0.3241
 2564poe     o213484   4.560   4.420   1.736  0.1144  0.5464  0.1261
 2564poe    c2313485   4.555   4.425   1.595 -0.3707  0.1267  0.1254
 2564poe    c2313486   4.673   4.498   1.528  0.0958 -0.5626  0.1968
 2564poe     o213487   4.802   4.448   1.557  0.2176  0.0997  0.8214
 2564poe    c3113488   4.896   4.552   1.568 -0.3200  0.6768  0.0426
 2565poe    c3113489   2.868   0.856   4.407  0.3220  0.5266 -0.0536
 2565poe     o213490   2.989   0.885   4.474  0.1910  0.8720  0.0352
 2565poe    c2313491   2.978   0.868   4.613  0.5718 -0.7854 -0.1217
 2565poe    c2313492   3.108   0.898   4.690  0.1123 -0.3524  0.4897
 2565poe     o213493   3.207   0.799   4.675  0.2709 -0.0875 -0.2405
 2565poe    c2313494   3.305   0.806   4.776  0.1105 -0.1652 -0.0786
 2565poe    c2313495   3.370   0.670   4.808 -0.2300 -0.3284 -0.0866
 2565poe     o213496   3.395   0.602   4.687 -0.8527 -0.2914 -0.2412
 2565poe    c2313497   3.489   0.497   4.681 -0.6707 -0.1052 -0.7352
 2565poe    c2313498   3.543   0.489   4.537  0.4234  0.1512 -0.3440
 2565poe     o213499   3.429   0.482   4.455  0.2077  0.3961 -0.0709
 2565poe    c3113500   3.459   0.401   4.343  0.8306  0.1892  0.2439
 2566poe    c3113501   2.541   5.424   3.834  0.1326  0.4832 -0.5342
 2566poe     o213502   2.568   5.498   3.951 -0.3705 -0.3257  0.1051
 2566poe    c2313503   2.457   5.575   3.994 -0.1559  0.1244 -0.1460
 2566poe    c2313504   2.463   5.594   4.146  0.3727 -0.4527 -0.0868
 2566poe     o213505   2.540   5.710   4.165 -0.1575 -0.0508 -0.3451
 2566poe    c2313506   2.597   5.705   4.294 -0.0229 -0.2102 -0.4112
 2566poe    c2313507   2.658   5.842   4.327 -0.3323 -0.1392 -0.1374
 2566poe     o213508   2.754   5.872   4.229 -0.4873  0.0425 -0.2346
 2566poe    c2313509   2.769   6.011   4.206 -0.1288  0.0853  0.2438
 2566poe    c2313510   2.875   6.039   4.098 -0.1904  0.5795  0.3124
 2566poe     o213511   2.843   5.991   3.969  0.0610  0.2475  0.3743
 2566poe    c3113512   2.953   6.021   3.886  0.0342  0.0625  0.2707
 2567poe    c3113513   1.218   5.840   2.232 -0.3230 -0.2539 -0.0118
 2567poe     o213514   1.167   5.711   2.260 -0.2777 -0.3268 -0.2610
 2567poe    c2313515   1.278   5.636   2.304 -0.3302 -0.1368  0.1971
 2567poe    c2313516   1.217   5.505   2.356 -0.2000 -0.2114  0.1613
 2567poe     o213517   1.156   5.421   2.261  0.2633 -0.2083 -0.1385
 2567poe    c2313518   1.087   5.319   2.330 -0.5961  0.7139  0.3896
 2567poe    c2313519   1.033   5.224   2.222  0.4105  0.1401  0.3736
 2567poe     o213520   1.126   5.227   2.117 -0.2218  1.3300 -0.1769
 2567poe    c2313521   1.074   5.160   2.004 -0.2856 -0.0251  0.6345
 2567poe    c2313522   1.158   5.195   1.879 -0.2090 -0.1334  0.6553
 2567poe     o213523   1.195   5.330   1.890 -0.2972 -0.0609  0.0872
 2567poe    c3113524   1.256   5.379   1.772  0.5146  0.2630  0.6295
 2568poe    c3113525   2.049   5.315   3.305 -0.0433  0.4947  0.2533
 2568poe     o213526   2.167   5.274   3.370  0.2135 -0.5172 -0.8032
 2568poe    c2313527   2.287   5.337   3.331 -0.0388  0.2522 -0.3827
 2568poe    c2313528   2.413   5.303   3.413 -0.5364  0.4408  0.4674
 2568poe     o213529   2.440   5.164   3.418 -0.2052  0.4860 -0.0227
 2568poe    c2313530   2.569   5.141   3.472 -0.1543  0.0655 -0.3185
 2568poe    c2313531   2.607   4.996   3.504 -0.0057  0.1729 -0.0083
 2568poe     o213532   2.627   4.915   3.390  0.5104 -0.1026  0.2748
 2568poe    c2313533   2.570   4.787   3.389 -0.0670  0.1524  0.2141
 2568poe    c2313534   2.604   4.700   3.267 -0.0873  0.1056  0.2421
 2568poe     o213535   2.570   4.781   3.157 -0.3190 -0.5189 -0.1561
 2568poe    c3113536   2.577   4.701   3.041 -0.4145 -0.0822 -0.4685
 2569poe    c3113537   3.650   4.331   6.040  0.0226  0.0636  0.5245
 2569poe     o213538   3.777   4.355   6.096  0.3323  0.0729 -0.1655
 2569poe    c2313539   3.832   4.229   6.128 -0.2123 -0.0852  0.1664
 2569poe    c2313540   3.977   4.257   6.174 -0.0560  0.3457 -0.5668
 2569poe     o213541   3.985   4.347   6.282  0.2762 -0.4069  0.0493
 2569poe    c2313542   4.112   4.410   6.283  0.1525 -0.1598  0.2917
 2569poe    c2313543   4.125   4.500   6.407  0.5115  0.3303 -0.0966
 2569poe     o213544   4.009   4.580   6.419  0.2473 -0.0579 -0.0174
 2569poe    c2313545   4.019   4.660   6.535 -0.5775 -0.2276  0.1719
 2569poe    c2313546   3.903   4.761   6.541 -0.0552  0.3926 -0.1372
 2569poe     o213547   3.776   4.711   6.574 -0.1731  0.6331 -0.2286
 2569poe    c3113548   3.693   4.815   6.621 -0.6976 -0.1877  0.6922
 2570poe    c3113549   2.443   4.067   6.731 -0.6375  0.2741  0.3062
 2570poe     o213550   2.402   4.091   6.598  0.3507  0.3110  0.0005
 2570poe    c2313551   2.383   3.976   6.519 -0.2827  0.1673  0.3596
 2570poe    c2313552   2.280   4.013   6.410  0.2865  0.4632 -0.0844
 2570poe     o213553   2.323   4.074   6.290  0.0544  0.1684 -0.3185
 2570poe    c2313554   2.213   4.137   6.228 -0.0261  0.0124 -0.3353
 2570poe    c2313555   2.218   4.191   6.084 -0.0226 -0.0618 -0.3634
 2570poe     o213556   2.290   4.312   6.087  0.2583 -0.2362  0.1025
 2570poe    c2313557   2.342   4.351   5.962  0.1478  0.3124  0.2248
 2570poe    c2313558   2.442   4.465   5.992  0.2075  0.2529  0.2527
 2570poe     o213559   2.551   4.420   6.069 -0.2042 -0.1010  0.6394
 2570poe    c3113560   2.654   4.516   6.085 -0.2655  0.0087  0.3831
 2571poe    c3113561   1.687   3.449   5.038 -0.1375 -0.2529  0.3730
 2571poe     o213562   1.785   3.369   4.977  0.4409  0.5063  0.2858
 2571poe    c2313563   1.839   3.406   4.852  0.0263  0.2979  0.0420
 2571poe    c2313564   1.962   3.318   4.822  0.2185  0.6165 -0.1081
 2571poe     o213565   2.052   3.312   4.930 -0.1919 -0.6079  0.1820
 2571poe    c2313566   2.142   3.205   4.915  0.2348 -0.2916  0.4616
 2571poe    c2313567   2.081   3.069   4.951 -0.2017 -0.3181 -0.3414
 2571poe     o213568   2.022   3.074   5.079  0.2817 -0.2621 -0.1179
 2571poe    c2313569   1.953   2.952   5.099 -0.4565  0.1441 -0.1474
 2571poe    c2313570   1.964   2.917   5.248 -0.5734  0.4375 -0.0682
 2571poe     o213571   1.974   3.040   5.316 -0.2769  0.6059 -0.4140
 2571poe    c3113572   1.976   3.009   5.453 -0.1372  0.6610 -0.4038
 2572poe    c3113573   7.088   2.927   1.762  0.3846 -0.3372 -0.0818
 2572poe     o213574   7.174   2.968   1.866 -0.4610  0.5211  0.2925
 2572poe    c2313575   7.300   2.904   1.864 -0.5974  0.2677 -0.4180
 2572poe    c2313576   7.381   2.976   1.973  0.2084 -0.8467 -0.2660
 2572poe     o213577   7.343   2.968   2.108  0.2407 -0.0828 -0.2071
 2572poe    c2313578   7.461   3.000   2.178  0.0980 -0.0601  0.0265
 2572poe    c2313579   7.472   2.940   2.320  0.2258 -0.2638 -0.0687
 2572poe     o213580   7.348   2.963   2.382  0.1874 -0.3173 -0.1248
 2572poe    c2313581   7.340   2.947   2.522  0.6611 -0.1724 -0.0802
 2572poe    c2313582   7.408   3.043   2.622 -0.2522 -0.0084  0.3904
 2572poe     o213583   7.352   3.172   2.620  0.1764  0.1760  0.1741
 2572poe    c3113584   7.400   3.251   2.726  0.4266  0.4784 -0.1634
 2573poe    c3113585   0.553   6.733   1.976 -0.0540  0.2349 -0.5155
 2573poe     o213586   0.653   6.711   2.074 -0.1295  0.3335 -0.4168
 2573poe    c2313587   0.598   6.697   2.203 -0.4113 -0.1745 -0.5889
 2573poe    c2313588   0.708   6.688   2.311 -0.6238  0.1162 -0.3466
 2573poe     o213589   0.781   6.567   2.309 -0.0130  0.4835 -0.4602
 2573poe    c2313590   0.888   6.574   2.401 -0.6962 -0.3729  0.4157
 2573poe    c2313591   0.971   6.444   2.400 -0.6099 -0.3147 -0.1303
 2573poe     o213592   0.900   6.342   2.466 -0.8925  0.3301  0.5758
 2573poe    c2313593   0.989   6.234   2.484 -1.0204  0.1224 -0.0235
 2573poe    c2313594   0.921   6.125   2.570 -0.1008 -0.1676  0.3503
 2573poe     o213595   0.849   6.033   2.491  0.2065  0.1792 -0.3421
 2573poe    c3113596   0.821   5.915   2.562  0.1676  0.1078 -0.4764
 2574poe    c3113597   4.570   0.276   1.600  0.2180 -0.1639 -0.1307
 2574poe     o213598   4.494   0.216   1.702  0.1832  0.0672 -0.0220
 2574poe    c2313599   4.402   0.128   1.642  0.2303  0.1088 -0.1562
 2574poe    c2313600   4.349   0.043   1.760  0.7829  0.0582  0.0584
 2574poe     o213601   4.360   0.129   1.871  0.4632  0.0071  0.1278
 2574poe    c2313602   4.287   0.086   1.984 -0.2696  0.4120 -0.1823
 2574poe    c2313603   4.282   0.200   2.088 -0.3028 -0.1670  0.4540
 2574poe     o213604   4.405   0.267   2.098 -0.2719 -0.1011 -0.3190
 2574poe    c2313605   4.397   0.372   2.192  0.0288 -0.7113  0.3975
 2574poe    c2313606   4.534   0.437   2.219 -0.1863  0.2371 -0.7000
 2574poe     o213607   4.588   0.464   2.092  0.7946 -0.0747 -0.3586
 2574poe    c3113608   4.710   0.532   2.106  0.5200  0.3250  0.1053
 2575poe    c3113609   0.769   2.973   3.152  0.2657  0.1237 -0.2197
 2575poe     o213610   0.896   3.014   3.200  0.1763  0.1484 -0.0043
 2575poe    c2313611   0.900   3.138   3.266 -0.3144  0.3599 -0.3634
 2575poe    c2313612   1.047   3.186   3.264 -0.2924  0.3164  0.0527
 2575poe     o213613   1.102   3.174   3.135  0.0225  0.8499  0.1380
 2575poe    c2313614   1.192   3.279   3.108  0.4255  0.4610 -0.0318
 2575poe    c2313615   1.261   3.252   2.973  0.1282  0.1584 -0.1230
 2575poe     o213616   1.170   3.277   2.868  0.0020  0.5486  0.0775
 2575poe    c2313617   1.207   3.219   2.745 -0.5057  0.5210 -0.0655
 2575poe    c2313618   1.132   3.266   2.619  0.2566  0.0558 -0.7079
 2575poe     o213619   1.131   3.406   2.600 -0.2535  0.1682  0.0793
 2575poe    c3113620   1.076   3.424   2.471  0.0081 -0.1764 -0.0814
 2576poe    c3113621   6.501   2.325   1.723  0.5666  0.2919 -0.2147
 2576poe     o213622   6.435   2.336   1.599  0.0319 -0.6926 -0.0228
 2576poe    c2313623   6.509   2.405   1.501 -0.1480 -0.8039 -0.2390
 2576poe    c2313624   6.436   2.444   1.371 -0.5676 -0.5074  0.0812
 2576poe     o213625   6.342   2.545   1.398 -0.3917 -0.3549  0.1232
 2576poe    c2313626   6.215   2.516   1.345 -0.5697  0.4093  0.1114
 2576poe    c2313627   6.125   2.640   1.332 -0.5303  0.3942 -0.3210
 2576poe     o213628   6.110   2.704   1.457  0.0218 -0.0899  0.0028
 2576poe    c2313629   6.013   2.804   1.432  0.5403  0.5235  0.4087
 2576poe    c2313630   5.986   2.893   1.554  0.1733  0.3934  0.4238
 2576poe     o213631   5.950   2.814   1.665 -0.7882 -0.0806 -0.2159
 2576poe    c3113632   5.880   2.894   1.758  0.1463  0.2153  0.2376
 2577poe    c3113633   1.820   6.745   5.116 -0.5779 -0.4787  0.3442
 2577poe     o213634   1.871   6.616   5.088  0.0092 -0.2185  0.1911
 2577poe    c2313635   1.978   6.587   5.175  0.4213 -0.4166 -0.3784
 2577poe    c2313636   2.027   6.441   5.166  0.0669 -0.5413 -0.3070
 2577poe     o213637   2.094   6.413   5.045 -0.0625  0.0252 -0.5131
 2577poe    c2313638   2.087   6.272   5.038  0.8379 -0.0409 -0.2123
 2577poe    c2313639   2.068   6.223   4.893  0.0408 -0.5371  0.0573
 2577poe     o213640   1.940   6.257   4.843 -0.2262 -0.3730  0.8363
 2577poe    c2313641   1.872   6.154   4.775 -0.0088 -0.0895  0.1915
 2577poe    c2313642   1.728   6.190   4.733  0.0981 -0.0841 -0.1776
 2577poe     o213643   1.743   6.265   4.615 -0.0719  0.4315  0.1283
 2577poe    c3113644   1.636   6.351   4.584  0.0735  0.5289 -0.1075
 2578poe    c3113645   0.177   5.975   4.890 -1.0673 -0.3740 -0.0323
 2578poe     o213646   0.180   6.099   4.957 -0.0554 -0.0136 -0.7220
 2578poe    c2313647   0.150   6.071   5.092  0.1375  0.3690 -0.5978
 2578poe    c2313648   0.133   6.192   5.185 -0.3670  0.2903 -0.5866
 2578poe     o213649   0.252   6.268   5.185 -0.2915  0.1909  0.5182
 2578poe    c2313650   0.212   6.401   5.207  0.1919  0.3510  0.4317
 2578poe    c2313651   0.333   6.493   5.182 -0.0785  0.5786 -0.0690
 2578poe     o213652   0.381   6.502   5.050 -0.7603 -0.5842 -0.4129
 2578poe    c2313653   0.463   6.394   5.011 -0.0821 -0.3810  0.4069
 2578poe    c2313654   0.510   6.405   4.864  0.2052  0.6759  0.5716
 2578poe     o213655   0.608   6.498   4.824  0.5585  0.1318  0.1784
 2578poe    c3113656   0.647   6.467   4.692  0.3712 -0.2081  0.2018
 2579poe    c3113657   1.819   0.547   1.910 -0.4931 -0.2003  0.7442
 2579poe     o213658   1.950   0.505   1.941 -0.3067  0.5356  0.9935
 2579poe    c2313659   1.954   0.379   2.005  0.0001 -0.0367 -0.1245
 2579poe    c2313660   2.013   0.382   2.147  0.2979 -0.2632 -0.2412
 2579poe     o213661   2.152   0.403   2.134  0.2368  0.1507 -0.2420
 2579poe    c2313662   2.215   0.362   2.253  0.0500  0.0807 -0.1661
 2579poe    c2313663   2.351   0.433   2.270 -0.1155  0.2616  0.4303
 2579poe     o213664   2.335   0.573   2.280 -0.1393  0.2458  0.6126
 2579poe    c2313665   2.451   0.645   2.245 -0.2890  0.0846 -0.2410
 2579poe    c2313666   2.428   0.797   2.246  0.3362  0.1808 -0.3268
 2579poe     o213667   2.319   0.834   2.164  0.0549  0.4003  0.1448
 2579poe    c3113668   2.357   0.889   2.040  0.4217 -0.1303  0.0181
 2580poe    c3113669   0.276   4.327   4.517 -0.4416 -0.0361  0.3971
 2580poe     o213670   0.162   4.327   4.434 -0.4183  0.1897  0.3642
 2580poe    c2313671   0.122   4.193   4.420 -0.5413  0.2669 -0.0293
 2580poe    c2313672   0.003   4.210   4.324  0.2812  0.5204 -1.0278
 2580poe     o213673  -0.077   4.316   4.373 -0.0513 -0.1055 -0.1953
 2580poe    c2313674  -0.202   4.331   4.308 -0.3143  0.0877  0.3493
 2580poe    c2313675  -0.293   4.441   4.366 -0.5409 -0.1518  0.4454
 2580poe     o213676  -0.235   4.567   4.343 -0.1097 -0.4353 -0.0323
 2580poe    c2313677  -0.308   4.682   4.380  0.6478 -0.1674  0.6721
 2580poe    c2313678  -0.246   4.811   4.324  0.0200 -0.0517  0.2368
 2580poe     o213679  -0.127   4.840   4.393  0.0642 -0.1796  0.2152
 2580poe    c3113680  -0.065   4.964   4.367  0.4557 -0.2525  0.7969
 2581poe    c3113681   4.372   5.160   5.826  0.8437 -0.1748  0.9618
 2581poe     o213682   4.388   5.023   5.854 -0.5031 -0.5298  0.1039
 2581poe    c2313683   4.390   4.978   5.988  0.1757 -0.1971  0.2109
 2581poe    c2313684   4.528   4.997   6.053  0.2047 -0.0644  0.1132
 2581poe     o213685   4.578   5.129   6.050 -0.0488  0.0246 -0.1868
 2581poe    c2313686   4.716   5.129   6.022 -0.0038 -0.3968  0.0220
 2581poe    c2313687   4.746   5.217   5.899  0.2872 -0.1818  0.2435
 2581poe     o213688   4.738   5.353   5.935  0.1945 -0.1828  0.2289
 2581poe    c2313689   4.773   5.434   5.825 -0.4540 -0.0143  0.1464
 2581poe    c2313690   4.670   5.546   5.802 -0.6305 -0.1043  0.4915
 2581poe     o213691   4.532   5.516   5.795 -0.5315 -0.4142 -0.1850
 2581poe    c3113692   4.461   5.584   5.896  0.1376 -0.4598  0.3309
 2582poe    c3113693   0.653   1.829   4.382  0.1186 -0.7255 -0.1547
 2582poe     o213694   0.791   1.816   4.361  0.1563 -0.3729 -0.1399
 2582poe    c2313695   0.820   1.851   4.227  0.2684  0.1817  0.0270
 2582poe    c2313696   0.960   1.911   4.208  0.3700  0.0060  0.2239
 2582poe     o213697   1.055   1.814   4.248 -0.1769 -0.8135 -0.4340
 2582poe    c2313698   1.179   1.881   4.256 -0.4471 -0.3296 -0.2582
 2582poe    c2313699   1.293   1.778   4.261 -0.1078  0.0214 -0.6659
 2582poe     o213700   1.278   1.681   4.160 -0.1412 -0.5793 -0.0949
 2582poe    c2313701   1.381   1.586   4.153  0.5319  0.1506 -0.2291
 2582poe    c2313702   1.329   1.464   4.075  0.1602  0.1881 -0.0398
 2582poe     o213703   1.212   1.425   4.145 -0.0958  0.1021 -0.5101
 2582poe    c3113704   1.150   1.307   4.100 -0.2401 -0.0364  0.0473
 2583poe    c3113705   3.657   6.747   5.271 -0.2364  0.1392  0.0624
 2583poe     o213706   3.796   6.751   5.252 -0.2410  0.2222  0.0469
 2583poe    c2313707   3.854   6.826   5.356 -0.0776  0.1428  0.0133
 2583poe    c2313708   3.995   6.769   5.383 -0.0609  0.3426  0.3582
 2583poe     o213709   4.069   6.748   5.265  0.2028  0.2328  0.5402
 2583poe    c2313710   4.204   6.723   5.295  0.4009  0.0880 -0.4333
 2583poe    c2313711   4.271   6.664   5.170 -0.0907 -0.3599 -0.4908
 2583poe     o213712   4.232   6.534   5.130 -0.6872 -0.1856 -0.4773
 2583poe    c2313713   4.300   6.502   5.011  0.1604  0.0151 -0.0532
 2583poe    c2313714   4.246   6.376   4.942 -0.1685 -0.2406  0.6558
 2583poe     o213715   4.138   6.408   4.857  0.0713 -0.2384  0.3506
 2583poe    c3113716   4.100   6.283   4.802 -0.3248  0.0941 -0.1397
 2584poe    c3113717   2.353   0.853   5.156  0.1092  0.5775 -0.1553
 2584poe     o213718   2.300   0.845   5.025  0.5132  0.0882 -0.2978
 2584poe    c2313719   2.251   0.718   4.989 -1.1815  0.6353 -0.0242
 2584poe    c2313720   2.246   0.726   4.835  0.0530  0.2543 -0.0975
 2584poe     o213721   2.145   0.815   4.792 -0.1797  0.2129  0.3526
 2584poe    c2313722   2.130   0.825   4.652 -0.2718 -0.1105  0.3388
 2584poe    c2313723   2.021   0.923   4.605 -0.1307 -0.1205 -0.0097
 2584poe     o213724   1.894   0.878   4.645  0.0442 -0.2442  0.4104
 2584poe    c2313725   1.797   0.970   4.601  0.5077  0.1259  0.1517
 2584poe    c2313726   1.656   0.942   4.656  0.4785 -0.9807 -0.4534
 2584poe     o213727   1.636   0.987   4.788 -0.1282 -0.4297 -0.7318
 2584poe    c3113728   1.507   0.955   4.836  0.2024 -0.3667  0.2138
 2585poe    c3113729   1.971   6.402   0.914 -0.5405 -0.1023 -0.3967
 2585poe     o213730   2.031   6.329   0.809 -0.0536 -0.1197 -0.1056
 2585poe    c2313731   2.067   6.410   0.700 -0.1580  0.1277  0.0435
 2585poe    c2313732   2.118   6.338   0.573  0.2410  0.4321  0.0256
 2585poe     o213733   2.256   6.314   0.575  0.2776  0.6447  0.0884
 2585poe    c2313734   2.294   6.226   0.472  0.3645  0.8261 -0.0363
 2585poe    c2313735   2.444   6.194   0.485  0.1935  0.0391  0.0718
 2585poe     o213736   2.462   6.085   0.573  0.1991  0.0128  0.0383
 2585poe    c2313737   2.597   6.045   0.581  0.0560 -0.3756  0.5795
 2585poe    c2313738   2.619   5.928   0.678  0.1892 -0.6356  0.2374
 2585poe     o213739   2.593   5.948   0.815  0.3890  0.2630  0.1493
 2585poe    c3113740   2.595   5.819   0.871 -0.9646 -0.0746 -0.5405
 2586poe    c3113741   5.322   2.798   6.207  0.4464  0.3791 -0.0660
 2586poe     o213742   5.242   2.890   6.136  0.1496  0.2810  0.1377
 2586poe    c2313743   5.111   2.839   6.131 -0.0349  0.7688 -0.0914
 2586poe    c2313744   5.048   2.930   6.023 -0.3212  0.2573 -0.3602
 2586poe     o213745   5.036   3.065   6.061  0.3258  0.3135 -0.3332
 2586poe    c2313746   4.967   3.131   5.957 -0.1897  0.3265  0.0110
 2586poe    c2313747   5.009   3.279   5.953  0.2913  0.1993  0.3160
 2586poe     o213748   4.990   3.323   6.086  0.2809 -0.4270  0.5249
 2586poe    c2313749   5.030   3.458   6.090 -0.2903 -0.2445  0.1407
 2586poe    c2313750   5.056   3.501   6.235  0.2437 -0.0766 -0.0036
 2586poe     o213751   5.117   3.393   6.303  0.1867 -0.4368 -0.5164
 2586poe    c3113752   5.152   3.425   6.436 -0.5869 -0.2674 -0.3487
 2587poe    c3113753   3.735   5.532   2.669 -0.6875 -0.5117 -0.1084
 2587poe     o213754   3.684   5.638   2.748  0.4141  0.1256 -0.2224
 2587poe    c2313755   3.590   5.589   2.841 -0.0010  0.8618 -0.2507
 2587poe    c2313756   3.446   5.637   2.815 -0.4976 -0.5375 -0.1560
 2587poe     o213757   3.407   5.766   2.856 -0.1668 -0.4812 -0.0167
 2587poe    c2313758   3.279   5.792   2.805 -0.0778 -0.2385 -0.1207
 2587poe    c2313759   3.233   5.927   2.863  0.3060 -0.2824  0.2906
 2587poe     o213760   3.267   5.921   3.000  0.7281 -0.0981  0.1942
 2587poe    c2313761   3.259   6.050   3.057  0.0732 -0.0076 -0.0861
 2587poe    c2313762   3.286   6.040   3.209 -0.0283  0.2099 -0.0534
 2587poe     o213763   3.418   5.991   3.217  0.0011  0.3671  0.4261
 2587poe    c3113764   3.445   5.946   3.348 -0.2342 -1.0131  0.0130
 2588poe    c3113765   6.665   4.330   3.039  0.0520 -0.6353  0.7996
 2588poe     o213766   6.555   4.288   2.962  0.1387  0.3995  0.0849
 2588poe    c2313767   6.437   4.253   3.031 -0.0445 -0.2375 -0.5370
 2588poe    c2313768   6.338   4.371   3.034  0.2480  0.0019 -0.0813
 2588poe     o213769   6.268   4.368   2.911 -0.1485  0.2013  0.1363
 2588poe    c2313770   6.204   4.492   2.897 -0.5252  0.0132  0.1818
 2588poe    c2313771   6.130   4.507   2.762 -0.2943 -0.0463  0.0474
 2588poe     o213772   6.011   4.432   2.750 -0.8998  0.8062  0.5982
 2588poe    c2313773   5.990   4.405   2.614  0.3609  0.0679  0.5376
 2588poe    c2313774   5.845   4.354   2.596  0.3135  0.4801 -0.3073
 2588poe     o213775   5.806   4.223   2.631  0.3168  0.4952 -0.2457
 2588poe    c3113776   5.811   4.214   2.771 -0.5482  0.5405 -0.2073
 2589poe    c3113777   3.758   2.662   6.915  0.6626 -0.6196 -0.5800
 2589poe     o213778   3.872   2.715   6.851  0.6165  0.2553  0.0514
 2589poe    c2313779   3.873   2.856   6.843 -0.1138  0.2622 -0.0340
 2589poe    c2313780   4.019   2.903   6.827 -0.3001  0.7923 -0.2071
 2589poe     o213781   4.045   2.893   6.689  0.0978 -0.0689 -0.0749
 2589poe    c2313782   4.183   2.905   6.665  0.2635 -0.5832  0.5940
 2589poe    c2313783   4.218   2.861   6.522 -0.3594  0.2631  0.1788
 2589poe     o213784   4.202   2.723   6.500  0.0753  0.2757 -0.2220
 2589poe    c2313785   4.222   2.682   6.366 -0.2070 -0.0257 -0.1717
 2589poe    c2313786   4.102   2.601   6.313  0.0252 -0.2053 -0.4230
 2589poe     o213787   4.128   2.466   6.342 -0.4832 -0.1540  0.2902
 2589poe    c3113788   4.024   2.384   6.292 -0.1058  0.0667 -0.8840
 2590poe    c3113789   0.108   3.235   5.250 -0.2264 -0.2299 -0.3320
 2590poe     o213790   0.013   3.133   5.275 -0.5382  0.0131 -0.5088
 2590poe    c2313791   0.030   3.076   5.403 -0.3621  0.3537 -0.3785
 2590poe    c2313792  -0.030   2.934   5.406  0.6498 -0.0740  0.2618
 2590poe     o213793  -0.004   2.865   5.285 -0.0908  0.2701 -0.1004
 2590poe    c2313794  -0.044   2.732   5.307 -0.2816  0.3261 -0.1035
 2590poe    c2313795  -0.024   2.638   5.186  0.3259  0.3462 -0.0232
 2590poe     o213796  -0.095   2.664   5.067  0.3605  0.5496 -0.0001
 2590poe    c2313797  -0.068   2.566   4.970 -0.2329  0.2863  0.0941
 2590poe    c2313798  -0.120   2.593   4.828  0.1769  0.2620 -0.0634
 2590poe     o213799  -0.055   2.690   4.749  0.6815 -0.0466 -0.0261
 2590poe    c3113800   0.086   2.683   4.739  0.7165 -0.1091  0.4803
 2591poe    c3113801   1.498   5.629   0.567 -0.0660 -0.8238  0.2897
 2591poe     o213802   1.550   5.587   0.443  0.2210  0.1406  0.0813
 2591poe    c2313803   1.477   5.647   0.338  0.0607 -0.4611 -0.1557
 2591poe    c2313804   1.545   5.642   0.200  0.3160 -0.2351 -0.0408
 2591poe     o213805   1.674   5.695   0.181  0.1564  0.2218  0.1631
 2591poe    c2313806   1.688   5.719   0.043  0.0146  0.0813  0.1252
 2591poe    c2313807   1.826   5.778   0.011  0.0323 -0.1045 -0.1451
 2591poe     o213808   1.917   5.677   0.049  0.0840 -0.1879 -0.4902
 2591poe    c2313809   2.055   5.708   0.058  0.0655 -0.1397 -0.3777
 2591poe    c2313810   2.127   5.598   0.138 -0.3911 -0.5781 -0.5633
 2591poe     o213811   2.033   5.525   0.214 -0.4278  0.0232 -0.0157
 2591poe    c3113812   2.108   5.425   0.278  0.6710  0.5235 -0.5037
 2592poe    c3113813   0.567   2.440   4.095  0.0897 -0.5488  0.5761
 2592poe     o213814   0.520   2.325   4.028  0.0430 -0.3336  0.2387
 2592poe    c2313815   0.512   2.213   4.114  0.1684 -0.3041  0.2878
 2592poe    c2313816   0.441   2.097   4.043  0.1905 -0.4709  0.5393
 2592poe     o213817   0.498   2.066   3.918 -0.4769 -0.2866  0.1850
 2592poe    c2313818   0.429   1.956   3.863 -0.2307  0.0613 -0.8510
 2592poe    c2313819   0.501   1.908   3.735  0.5426 -0.2093 -0.3218
 2592poe     o213820   0.493   2.018   3.647 -0.2795 -0.0983 -0.1221
 2592poe    c2313821   0.608   2.008   3.566 -0.0622  0.1189  0.1578
 2592poe    c2313822   0.580   2.098   3.444 -0.0902  0.3137  0.3078
 2592poe     o213823   0.517   2.213   3.498 -0.1265  0.2620  0.3760
 2592poe    c3113824   0.490   2.299   3.390  0.3821  0.3431  0.3083
 2593poe    c3113825   0.947   4.724   6.987 -0.0151 -0.1733 -0.7866
 2593poe     o213826   0.973   4.862   6.975  0.2608 -0.1653 -0.1652
 2593poe    c2313827   0.912   4.902   6.854  0.5001 -0.1252 -0.2738
 2593poe    c2313828   0.934   5.054   6.853 -0.0352 -0.0414  0.1722
 2593poe     o213829   0.907   5.105   6.981 -0.1493 -0.4710  0.3203
 2593poe    c2313830   0.905   5.246   6.975  0.2160 -0.4574  0.4828
 2593poe    c2313831   0.927   5.313   7.112 -0.6959 -0.6264  0.7203
 2593poe     o213832   1.057   5.272   7.149 -0.2486  0.5819  0.5198
 2593poe    c2313833   1.082   5.326   7.277 -0.0391  0.1503  0.6624
 2593poe    c2313834   1.208   5.272   7.347  0.1422 -0.2159  0.0698
 2593poe     o213835   1.221   5.132   7.356  0.0770 -0.1979  0.4994
 2593poe    c3113836   1.355   5.099   7.385  0.1696  0.2058  0.5355
 2594poe    c3113837   0.623   5.896   1.857  0.1786 -0.2399  0.3692
 2594poe     o213838   0.602   5.799   1.756  0.5761 -0.1360  0.1860
 2594poe    c2313839   0.599   5.853   1.626  0.1623 -0.1410  0.1921
 2594poe    c2313840   0.538   5.758   1.520  0.7816  0.2178 -0.4954
 2594poe     o213841   0.594   5.629   1.515 -0.2171 -0.2832  0.6693
 2594poe    c2313842   0.507   5.552   1.435  0.0942  0.2007 -0.1505
 2594poe    c2313843   0.552   5.405   1.436 -0.0358  0.1600  0.5043
 2594poe     o213844   0.562   5.359   1.568 -0.1030 -0.1084  0.4160
 2594poe    c2313845   0.618   5.231   1.589 -0.1230 -0.2357 -0.2777
 2594poe    c2313846   0.586   5.183   1.732  0.1759  0.3213 -0.0194
 2594poe     o213847   0.615   5.297   1.809  0.4083  0.3018 -0.0796
 2594poe    c3113848   0.560   5.283   1.938  0.1639 -0.1467 -0.2334
 2595poe    c3113849   7.085   5.108   0.784  0.0395 -0.5922 -0.0261
 2595poe     o213850   6.996   5.086   0.890 -0.1192 -0.1369 -0.0629
 2595poe    c2313851   6.892   5.182   0.891 -0.2038 -0.2301  0.1612
 2595poe    c2313852   6.809   5.159   1.019 -0.2518  0.5364  0.2730
 2595poe     o213853   6.906   5.150   1.121  0.1150 -0.5976 -0.1540
 2595poe    c2313854   6.846   5.156   1.248 -0.1881 -0.7662 -0.2894
 2595poe    c2313855   6.936   5.133   1.371 -0.0050  0.3038 -0.2163
 2595poe     o213856   6.970   5.000   1.403  0.4447  0.3608 -0.4421
 2595poe    c2313857   7.101   4.985   1.453  0.0762 -0.1067  0.4124
 2595poe    c2313858   7.131   4.839   1.488  0.0551 -0.2838 -0.2929
 2595poe     o213859   7.144   4.767   1.367 -0.6691 -0.4926 -0.2482
 2595poe    c3113860   7.146   4.629   1.393 -0.2165 -0.3893  0.2781
 2596poe    c3113861   6.222   2.655   5.309 -0.6737  0.9458  0.2056
 2596poe     o213862   6.258   2.702   5.181  0.1485 -0.0498  0.0597
 2596poe    c2313863   6.340   2.817   5.181  0.0071  0.0515 -0.1920
 2596poe    c2313864   6.347   2.891   5.046 -0.3536  0.0983 -0.1848
 2596poe     o213865   6.221   2.937   5.003 -0.6547 -0.3688  0.1826
 2596poe    c2313866   6.241   3.011   4.885 -0.5802 -0.3860  0.1850
 2596poe    c2313867   6.102   3.057   4.838 -0.4484  0.1545  0.3150
 2596poe     o213868   6.015   2.946   4.834 -0.2828  0.0241  0.3566
 2596poe    c2313869   5.906   2.986   4.755 -0.0602 -0.0133  0.0253
 2596poe    c2313870   5.799   2.875   4.768 -0.4533  0.3903  0.2720
 2596poe     o213871   5.809   2.827   4.900  0.3656 -0.1353  0.0262
 2596poe    c3113872   5.740   2.705   4.905 -0.2488  0.2072 -0.0334
 2597poe    c3113873   6.488   3.574   1.388  0.0592 -0.1415 -0.0071
 2597poe     o213874   6.509   3.685   1.473 -0.0788 -0.3930  0.3561
 2597poe    c2313875   6.586   3.664   1.589  0.0673 -0.3315  0.2695
 2597poe    c2313876   6.642   3.796   1.647  0.2085 -0.5149  0.5524
 2597poe     o213877   6.556   3.897   1.695  0.4975  0.2087 -0.4268
 2597poe    c2313878   6.626   3.985   1.780  0.0655 -0.1013  0.2641
 2597poe    c2313879   6.528   4.099   1.813  0.0731 -0.0706  0.1838
 2597poe     o213880   6.480   4.136   1.686  0.0069 -0.0680  0.2099
 2597poe    c2313881   6.387   4.242   1.694 -0.0804 -0.1720  0.5865
 2597poe    c2313882   6.292   4.211   1.576  0.2087 -0.0540  0.3207
 2597poe     o213883   6.234   4.083   1.584 -0.5725  0.2714 -0.1271
 2597poe    c3113884   6.099   4.084   1.543 -0.4474  0.0394 -0.5511
 2598poe    c3113885   4.966   0.434   1.286 -0.2306  0.0679 -0.4769
 2598poe     o213886   4.874   0.406   1.183 -0.5941 -0.5112 -0.0060
 2598poe    c2313887   4.753   0.369   1.245 -0.6886  0.1397  0.2057
 2598poe    c2313888   4.640   0.404   1.146 -1.2042 -0.8518  0.4313
 2598poe     o213889   4.649   0.353   1.015 -0.0460 -0.3661  0.3099
 2598poe    c2313890   4.531   0.377   0.940  0.1847  0.4667  0.1947
 2598poe    c2313891   4.540   0.466   0.815  0.3784 -0.3475 -0.3796
 2598poe     o213892   4.598   0.594   0.826 -0.2747 -0.0810  0.0716
 2598poe    c2313893   4.561   0.683   0.928  0.2362  0.1053  0.0958
 2598poe    c2313894   4.649   0.809   0.945  0.2518  0.1099 -0.0203
 2598poe     o213895   4.783   0.776   0.969  0.3108  0.0841 -0.3757
 2598poe    c3113896   4.846   0.901   0.985 -0.2039  0.2871  0.1245
 2599poe    c3113897   4.562   0.116   3.652 -0.3073 -0.3655  0.1665
 2599poe     o213898   4.489   0.080   3.537  0.4671 -0.0385 -0.4364
 2599poe    c2313899   4.585   0.079   3.433  0.5065 -0.1652 -0.3982
 2599poe    c2313900   4.516   0.109   3.299 -0.0340  0.2883 -0.0221
 2599poe     o213901   4.468   0.240   3.284 -0.0503  0.2335 -0.4730
 2599poe    c2313902   4.556   0.338   3.232  0.4349  0.2633  0.3907
 2599poe    c2313903   4.512   0.484   3.248 -0.4158  0.0824 -0.2046
 2599poe     o213904   4.434   0.531   3.141  0.0633  0.1141 -0.5423
 2599poe    c2313905   4.366   0.650   3.174  0.2914  0.1733 -0.2837
 2599poe    c2313906   4.269   0.700   3.066  0.0365 -0.1093 -0.1878
 2599poe     o213907   4.176   0.602   3.026  0.0433 -0.4022  0.5043
 2599poe    c3113908   4.065   0.654   2.957  0.2477 -0.4432  0.1412
 2600poe    c3113909   4.813   4.892   6.712  0.0674  0.1418  0.1481
 2600poe     o213910   4.875   4.974   6.616  0.1858 -0.3988 -0.2434
 2600poe    c2313911   4.839   4.942   6.483  0.1174 -0.6671 -0.1606
 2600poe    c2313912   4.907   5.029   6.376  0.2992  0.1014  0.5707
 2600poe     o213913   5.044   4.996   6.371  0.2958  0.1175  0.3809
 2600poe    c2313914   5.124   5.097   6.314  0.2834  0.0268  0.2027
 2600poe    c2313915   5.270   5.051   6.298  0.0126 -0.6787 -0.2842
 2600poe     o213916   5.307   4.992   6.421  0.2962 -0.0722 -0.0785
 2600poe    c2313917   5.426   4.916   6.411  0.0034 -0.6104  0.4632
 2600poe    c2313918   5.466   4.894   6.558 -0.4317  0.9413  0.8308
 2600poe     o213919   5.349   4.841   6.617 -0.2634 -0.3125  0.0762
 2600poe    c3113920   5.366   4.809   6.753  0.0298 -0.0397  0.1059
 2601poe    c3113921   2.313   4.573   1.223 -0.0409  0.1088  0.0193
 2601poe     o213922   2.337   4.542   1.358 -0.2018  0.1152  0.0499
 2601poe    c2313923   2.464   4.481   1.360 -0.4461 -0.3921  0.4702
 2601poe    c2313924   2.513   4.497   1.505  0.3896  0.2371  0.1299
 2601poe     o213925   2.395   4.497   1.583  0.1056 -0.6383 -0.2894
 2601poe    c2313926   2.419   4.440   1.710 -0.3721 -0.4750 -0.1257
 2601poe    c2313927   2.291   4.418   1.793 -0.3796 -0.3725 -0.1108
 2601poe     o213928   2.223   4.542   1.799  0.0893 -0.1189 -0.0017
 2601poe    c2313929   2.195   4.600   1.924 -0.3756 -0.0315 -0.1457
 2601poe    c2313930   2.064   4.679   1.941 -0.4734 -0.3592  0.7031
 2601poe     o213931   1.952   4.609   1.892 -0.2003  0.0187 -0.4953
 2601poe    c3113932   1.842   4.681   1.841 -0.2390  0.2735 -0.0539
 2602poe    c3113933   2.402   5.572   4.674 -0.1120  0.2464  0.7604
 2602poe     o213934   2.295   5.520   4.599  0.5975  0.1302 -0.1883
 2602poe    c2313935   2.320   5.401   4.529 -0.1953 -0.1221 -0.0579
 2602poe    c2313936   2.216   5.410   4.416 -0.0423 -0.1952 -0.2064
 2602poe     o213937   2.082   5.413   4.462  0.0096 -0.1976 -0.0532
 2602poe    c2313938   1.999   5.409   4.348 -0.3072  0.1583  0.1662
 2602poe    c2313939   1.858   5.426   4.409 -0.5392  0.2186 -0.3764
 2602poe     o213940   1.854   5.537   4.496  0.5373 -0.3182  0.3945
 2602poe    c2313941   1.754   5.633   4.469  0.5043 -0.2974  0.5890
 2602poe    c2313942   1.732   5.757   4.558  0.2248 -0.0162  0.1307
 2602poe     o213943   1.691   5.706   4.682 -0.6779  0.1424 -0.0910
 2602poe    c3113944   1.724   5.812   4.769 -0.4568  0.1028 -0.1245
 2603poe    c3113945   0.231   1.951   2.136  0.1763  0.2272  0.7719
 2603poe     o213946   0.349   1.888   2.181  0.1140 -0.0300  0.5768
 2603poe    c2313947   0.410   1.838   2.064  0.1193 -0.3834  0.7286
 2603poe    c2313948   0.542   1.762   2.086  0.4007 -0.0903  0.0666
 2603poe     o213949   0.625   1.805   2.192  0.2845  0.4107 -0.0423
 2603poe    c2313950   0.745   1.731   2.193 -0.0767 -0.1819  0.0643
 2603poe    c2313951   0.835   1.793   2.300 -0.1935  0.6574 -0.3154
 2603poe     o213952   0.764   1.850   2.408 -0.0163 -0.4905  0.4264
 2603poe    c2313953   0.856   1.892   2.507  0.4614  0.1843 -0.2952
 2603poe    c2313954   0.766   1.949   2.618  0.2153 -0.6542 -0.0583
 2603poe     o213955   0.677   2.048   2.572 -0.0807 -0.7423  0.3235
 2603poe    c3113956   0.584   2.083   2.673 -0.3074 -0.4820  0.0240
 2604poe    c3113957   3.821   4.530   0.999  0.0282 -0.1717  0.1955
 2604poe     o213958   3.708   4.487   1.071 -0.0474  0.1651  0.2801
 2604poe    c2313959   3.664   4.559   1.183 -0.8232 -0.4050  0.3461
 2604poe    c2313960   3.696   4.475   1.308 -0.5975  0.0986  0.6299
 2604poe     o213961   3.645   4.343   1.302  0.0629 -0.1300  0.0150
 2604poe    c2313962   3.734   4.268   1.381  0.5599 -0.2768 -0.6738
 2604poe    c2313963   3.657   4.149   1.442  0.3464  0.2157  0.0323
 2604poe     o213964   3.595   4.082   1.335  0.2249 -0.5331  0.5622
 2604poe    c2313965   3.555   3.949   1.356 -0.2829 -0.4276  0.2735
 2604poe    c2313966   3.529   3.898   1.213 -0.1269  0.1892  0.0230
 2604poe     o213967   3.464   3.993   1.132 -0.1210  0.2461  0.0849
 2604poe    c3113968   3.397   3.939   1.020  0.1286 -0.0225  0.0665
 2605poe    c3113969   6.664   7.089   4.036 -0.0622  0.2772  0.0068
 2605poe     o213970   6.775   7.126   3.957 -0.1666 -0.3541 -0.4460
 2605poe    c2313971   6.854   7.016   3.917 -0.1798 -0.6467  0.3038
 2605poe    c2313972   6.953   7.062   3.808 -0.2051 -0.0626  0.5240
 2605poe     o213973   6.996   7.188   3.854 -0.6093  0.1695  0.2741
 2605poe    c2313974   7.039   7.278   3.754 -0.7594 -0.3204 -0.2347
 2605poe    c2313975   7.131   7.385   3.815 -0.3667 -0.6606 -0.2253
 2605poe     o213976   7.050   7.460   3.903  0.2085 -0.2608 -0.0301
 2605poe    c2313977   7.127   7.550   3.979 -0.2002  0.1758 -0.1300
 2605poe    c2313978   7.025   7.644   4.047 -0.4132 -0.0033 -0.2004
 2605poe     o213979   6.931   7.590   4.136 -0.1078  0.2066  0.2550
 2605poe    c3113980   6.853   7.682   4.210 -0.3887  0.3419 -0.2039
 2606poe    c3113981   1.796   3.752   5.896  0.7765  0.3755  0.0157
 2606poe     o213982   1.868   3.711   5.782  0.3255 -0.0732 -0.1082
 2606poe    c2313983   1.943   3.595   5.811 -0.3476 -0.5025 -0.0532
 2606poe    c2313984   2.023   3.595   5.680  0.0423 -0.3161  0.1833
 2606poe     o213985   1.929   3.613   5.576  0.3021  0.2304  0.0402
 2606poe    c2313986   2.002   3.607   5.455  0.0426 -0.3939 -0.0833
 2606poe    c2313987   1.915   3.655   5.338 -0.3571  0.0053  0.3754
 2606poe     o213988   1.894   3.794   5.356  0.5297  0.1992 -0.0445
 2606poe    c2313989   1.805   3.852   5.263  0.2697  0.6520  0.4838
 2606poe    c2313990   1.796   4.003   5.294 -0.3935  0.6720  0.1963
 2606poe     o213991   1.910   4.077   5.258  0.2826 -0.3470  0.2068
 2606poe    c3113992   1.906   4.188   5.345  0.2262 -0.2423  0.0709
 2607poe    c3113993   3.751   3.209   1.197 -0.0064 -0.0311 -0.1406
 2607poe     o213994   3.782   3.279   1.316 -0.1197 -0.1956 -0.0148
 2607poe    c2313995   3.696   3.269   1.427 -0.1982  0.0809 -0.0515
 2607poe    c2313996   3.722   3.158   1.531 -0.6593  0.0924  0.0758
 2607poe     o213997   3.833   3.174   1.615 -0.4189 -0.7310 -0.0751
 2607poe    c2313998   3.811   3.083   1.721  0.4067 -0.5810  0.2348
 2607poe    c2313999   3.895   3.109   1.848  0.3672  0.0674  0.1337
 2607poe     o214000   4.029   3.070   1.832  0.2080 -0.2921 -0.3545
 2607poe    c2314001   4.122   3.096   1.934  0.2383 -0.1040 -0.4297
 2607poe    c2314002   4.153   2.965   2.009  0.0384 -0.0825 -0.3102
 2607poe     o214003   4.209   2.869   1.923  0.4920  0.2883 -0.4325
 2607poe    c3114004   4.244   2.761   2.007  0.1915  0.3464 -0.2312
 2608poe    c3114005   1.427   6.836   0.264 -0.4184 -0.1288  0.2945
 2608poe     o214006   1.348   6.781   0.161 -0.0075  0.0799 -0.1331
 2608poe    c2314007   1.272   6.680   0.222  0.2799  0.2607  0.5414
 2608poe    c2314008   1.228   6.572   0.120  0.0687  0.3431  0.5457
 2608poe     o214009   1.140   6.480   0.181  0.0852  0.0261  0.0926
 2608poe    c2314010   1.204   6.387   0.265  0.0555 -0.4828 -0.4423
 2608poe    c2314011   1.124   6.257   0.286  0.4808 -0.7292 -0.3480
 2608poe     o214012   1.085   6.196   0.165  0.0194 -0.2323 -0.4533
 2608poe    c2314013   0.974   6.109   0.166  0.0611 -0.2807 -0.0241
 2608poe    c2314014   0.839   6.181   0.145  0.1124 -0.0711  0.3528
 2608poe     o214015   0.813   6.247   0.023  0.3079 -0.1919  0.2439
 2608poe    c3114016   0.820   6.173  -0.096 -0.1618 -0.2196  0.2333
 2609poe    c3114017   5.927   1.081   4.617  0.5141  0.3607  0.0203
 2609poe     o214018   5.859   1.175   4.697  0.2031  0.2932 -0.1632
 2609poe    c2314019   5.944   1.209   4.804 -0.0689 -0.7189  0.3803
 2609poe    c2314020   5.878   1.324   4.882  0.2424 -0.3403  0.0821
 2609poe     o214021   5.741   1.292   4.884  0.0257  0.5620  0.0914
 2609poe    c2314022   5.696   1.370   4.993 -0.5389  0.1837  0.1313
 2609poe    c2314023   5.550   1.341   5.032 -0.4204  0.1070  0.5231
 2609poe     o214024   5.474   1.331   4.913  0.1048 -0.7373  0.2514
 2609poe    c2314025   5.341   1.295   4.941 -0.2580  0.3087 -0.1080
 2609poe    c2314026   5.287   1.194   4.837  0.0359 -0.2219  0.2535
 2609poe     o214027   5.350   1.070   4.861 -0.1715 -0.1788  1.0487
 2609poe    c3114028   5.253   0.967   4.871 -0.3530 -0.1487 -0.2746
 2610poe    c3114029   5.397   6.883   2.473  0.4903 -0.2669 -0.2954
 2610poe     o214030   5.283   6.900   2.553  0.7077 -0.4508  0.0560
 2610poe    c2314031   5.298   7.014   2.634  0.0652 -0.4763  0.2237
 2610poe    c2314032   5.168   7.027   2.715  0.0840 -0.3974  0.2418
 2610poe     o214033   5.120   6.906   2.770  0.2183 -0.4906  0.1559
 2610poe    c2314034   5.004   6.929   2.847  0.2259 -0.5735  0.1925
 2610poe    c2314035   4.984   6.799   2.927 -1.2878 -0.7357 -0.4178
 2610poe     o214036   5.016   6.689   2.845  0.6584 -0.4342 -0.1136
 2610poe    c2314037   4.993   6.572   2.920  0.1921 -0.2430  0.0414
 2610poe    c2314038   5.009   6.445   2.835 -0.3954 -0.2424 -0.0751
 2610poe     o214039   5.138   6.428   2.781 -0.2949 -0.1662  0.1399
 2610poe    c3114040   5.148   6.293   2.739  0.0741 -0.0946 -0.0037
 2611poe    c3114041   5.413   6.351   1.222 -0.0705 -0.0726  0.5523
 2611poe     o214042   5.388   6.410   1.348  0.2106 -0.3052  0.7176
 2611poe    c2314043   5.260   6.389   1.404 -0.1469  0.4394  0.1938
 2611poe    c2314044   5.220   6.246   1.444  0.0278  0.3152 -0.0735
 2611poe     o214045   5.185   6.165   1.334  0.0651 -0.0008  0.1429
 2611poe    c2314046   5.235   6.034   1.340  0.3620  0.0908 -0.2669
 2611poe    c2314047   5.128   5.927   1.310  0.2898  0.0538  0.1176
 2611poe     o214048   5.089   5.956   1.178  0.2229  0.5649  0.2473
 2611poe    c2314049   4.966   5.895   1.149  0.3551  0.3064  0.2322
 2611poe    c2314050   4.924   5.889   1.000  0.1758 -0.7695  0.3120
 2611poe     o214051   5.032   5.827   0.935  0.1747 -0.6415  0.1888
 2611poe    c3114052   4.982   5.778   0.813 -0.0346  0.0274  0.0049
 2612poe    c3114053   5.231   4.398   1.850  0.1059  0.2964  0.2412
 2612poe     o214054   5.206   4.296   1.945  0.4091  0.3280  0.3564
 2612poe    c2314055   5.074   4.294   1.995  0.4825 -0.0083  0.5331
 2612poe    c2314056   5.016   4.155   2.030  0.5423 -0.0636  0.4175
 2612poe     o214057   5.031   4.065   1.924  0.3913 -0.1377  0.4593
 2612poe    c2314058   4.973   3.939   1.951 -0.3818  0.0780 -0.1541
 2612poe    c2314059   4.941   3.869   1.818  0.2276 -0.0972 -0.2104
 2612poe     o214060   4.848   3.948   1.746  0.2956 -0.3693 -0.6009
 2612poe    c2314061   4.781   3.863   1.657  0.2672 -0.6398 -0.3241
 2612poe    c2314062   4.687   3.953   1.574  0.0710 -0.3283  0.2260
 2612poe     o214063   4.745   4.050   1.489 -0.4664 -0.0110  0.2197
 2612poe    c3114064   4.662   4.075   1.379  0.1145  0.1339 -0.1893
 2613poe    c3114065   6.265   0.140   2.831 -0.2022 -0.1639 -0.3164
 2613poe     o214066   6.335   0.021   2.804 -0.3188 -0.3885  0.3411
 2613poe    c2314067   6.270  -0.101   2.833 -0.7745 -0.0834  0.6207
 2613poe    c2314068   6.342  -0.236   2.816 -0.0960  0.4285 -0.7543
 2613poe     o214069   6.444  -0.246   2.914 -0.5639 -0.2982 -0.3328
 2613poe    c2314070   6.398  -0.326   3.021 -0.0459  0.5619  0.5440
 2613poe    c2314071   6.507  -0.352   3.128 -0.0107 -0.7451  0.2020
 2613poe     o214072   6.530  -0.245   3.217 -0.2958 -0.1778 -0.3883
 2613poe    c2314073   6.465  -0.269   3.339  0.0826 -0.0248 -0.1533
 2613poe    c2314074   6.556  -0.215   3.451 -0.0651 -0.1862  0.0453
 2613poe     o214075   6.567  -0.079   3.415  0.1289 -0.1588  0.2101
 2613poe    c3114076   6.600  -0.003   3.529  0.1617 -0.5800  0.4843
 2614poe    c3114077   1.247   4.036   3.456 -0.0396  0.2219 -0.0763
 2614poe     o214078   1.347   4.083   3.544  0.3316 -0.2972 -0.2110
 2614poe    c2314079   1.422   4.185   3.482 -0.3517  0.2493 -0.1505
 2614poe    c2314080   1.552   4.218   3.558 -0.6030 -0.2428  0.5016
 2614poe     o214081   1.520   4.226   3.695  0.5464 -0.4837  0.7958
 2614poe    c2314082   1.638   4.241   3.770  0.7185 -0.6908  0.5649
 2614poe    c2314083   1.609   4.218   3.919  0.2486  0.1355  0.6048
 2614poe     o214084   1.543   4.094   3.926  0.2951  0.0939  0.3313
 2614poe    c2314085   1.589   4.023   4.039  0.4293 -0.7059 -0.2142
 2614poe    c2314086   1.500   3.903   4.074  0.2917 -0.5038  0.1390
 2614poe     o214087   1.489   3.807   3.972  0.1878 -0.0949 -0.2393
 2614poe    c3114088   1.595   3.715   3.954 -0.1937 -0.5073 -0.4143
 2615poe    c3114089   1.880   6.635   1.620  0.2010  0.3661 -0.0405
 2615poe     o214090   1.864   6.744   1.707  0.6746  0.2092  0.2490
 2615poe    c2314091   1.769   6.829   1.647  0.2740 -0.3930  0.0203
 2615poe    c2314092   1.787   6.975   1.694  0.3942 -0.3671 -0.1077
 2615poe     o214093   1.797   6.982   1.834 -0.3578  0.2220 -0.0798
 2615poe    c2314094   1.817   7.113   1.884  0.2654  0.1958 -0.2465
 2615poe    c2314095   1.933   7.137   1.983 -0.2527  0.6524  0.2578
 2615poe     o214096   2.066   7.115   1.942 -0.2684 -0.1456  0.6165
 2615poe    c2314097   2.153   7.166   2.041  0.3877  0.4444 -0.2470
 2615poe    c2314098   2.301   7.164   1.998  0.4095 -0.3948 -0.1453
 2615poe     o214099   2.331   7.042   1.932  0.1183 -0.5474  0.0008
 2615poe    c3114100   2.453   7.079   1.872  0.3612 -0.6439  0.4285
 2616poe    c3114101   6.968   6.247   0.203  0.1141  0.0330 -0.0657
 2616poe     o214102   7.024   6.118   0.184 -0.5360 -0.2456 -0.1217
 2616poe    c2314103   6.972   6.034   0.284 -0.2793  0.2659  0.4479
 2616poe    c2314104   6.991   5.881   0.278 -0.1182  0.3106 -0.2335
 2616poe     o214105   6.894   5.833   0.188 -0.0175 -0.0902 -0.1283
 2616poe    c2314106   6.851   5.700   0.211  0.2975 -0.3076 -0.7653
 2616poe    c2314107   6.727   5.684   0.122 -0.1669  0.1790 -0.2125
 2616poe     o214108   6.770   5.677  -0.012  0.8623  0.0551  0.1170
 2616poe    c2314109   6.677   5.760  -0.078 -0.1156 -0.7779  0.4269
 2616poe    c2314110   6.705   5.756  -0.229 -0.0282  0.1651  0.4137
 2616poe     o214111   6.830   5.819  -0.248  0.3142 -0.4714  0.5308
 2616poe    c3114112   6.855   5.830  -0.387  0.0596 -0.2424  0.5026
 2617poe    c3114113   3.040   5.651   4.373  0.7593  0.1289 -0.1434
 2617poe     o214114   3.023   5.545   4.282 -0.2928 -0.4106  0.6555
 2617poe    c2314115   2.966   5.606   4.168  0.4990 -0.2030  0.3598
 2617poe    c2314116   2.956   5.500   4.058 -0.0163  0.5057 -0.2888
 2617poe     o214117   3.080   5.445   4.018 -0.0713  0.3697 -0.2732
 2617poe    c2314118   3.057   5.339   3.928  0.7457 -0.1397  0.1106
 2617poe    c2314119   3.185   5.258   3.896  0.3439 -0.5841 -0.3879
 2617poe     o214120   3.218   5.159   3.990  0.2162 -0.0123  0.2676
 2617poe    c2314121   3.296   5.061   3.926 -0.1320  0.4693 -0.9338
 2617poe    c2314122   3.385   4.980   4.023 -0.6342  0.2277 -0.6716
 2617poe     o214123   3.480   4.895   3.963 -0.2139  0.5690 -0.4978
 2617poe    c3114124   3.614   4.929   3.988 -0.3409  0.8852 -0.2353
 2618poe    c3114125   3.344   4.339   1.690  0.2573 -0.2249 -0.3588
 2618poe     o214126   3.402   4.210   1.692  0.2208 -0.2369  0.0075
 2618poe    c2314127   3.481   4.188   1.807 -0.3984  0.2050  0.5299
 2618poe    c2314128   3.518   4.041   1.836  0.0145  0.2081  0.0403
 2618poe     o214129   3.425   3.969   1.914  0.0449  0.1947  0.0642
 2618poe    c2314130   3.497   3.852   1.943 -0.2122  0.0015 -0.0753
 2618poe    c2314131   3.421   3.790   2.062  0.6611  0.4611  0.7246
 2618poe     o214132   3.441   3.878   2.171  0.0385  0.6837  0.6607
 2618poe    c2314133   3.438   3.815   2.298  0.3365 -0.3405  0.1736
 2618poe    c2314134   3.534   3.875   2.403  0.1416 -0.3700  0.3694
 2618poe     o214135   3.519   4.015   2.414  0.0695 -0.3451 -0.0131
 2618poe    c3114136   3.625   4.080   2.481 -0.1246 -0.4643  0.4176
 2619poe    c3114137   6.838   3.431   1.068 -1.0445 -0.2293 -0.5218
 2619poe     o214138   6.887   3.299   1.060  0.0585  0.1305 -0.0305
 2619poe    c2314139   6.926   3.278   0.926 -0.3616 -0.7940 -0.0149
 2619poe    c2314140   6.984   3.136   0.913  0.2704 -0.5206 -0.1848
 2619poe     o214141   6.913   3.030   0.972  0.5347 -0.3951  0.3674
 2619poe    c2314142   6.946   2.906   0.913 -0.0409 -0.3802  0.0074
 2619poe    c2314143   6.921   2.785   1.006 -0.0516 -0.2236  0.2096
 2619poe     o214144   6.799   2.805   1.072 -0.3190  0.2173 -0.4088
 2619poe    c2314145   6.764   2.721   1.179 -0.4878  0.8633  0.0502
 2619poe    c2314146   6.629   2.774   1.231 -0.7658  0.1980  0.0268
 2619poe     o214147   6.646   2.914   1.224  0.0997  0.0896 -0.2148
 2619poe    c3114148   6.521   2.957   1.275 -0.0691 -0.3696 -0.2396
 2620poe    c3114149   4.621   5.194   2.619  0.6079  0.6025  0.0120
 2620poe     o214150   4.550   5.262   2.720  0.2424  0.0683  0.1181
 2620poe    c2314151   4.641   5.320   2.810  0.4077  0.0065 -0.0106
 2620poe    c2314152   4.563   5.388   2.924 -0.0611 -0.0367 -0.3030
 2620poe     o214153   4.472   5.479   2.867  0.3436  0.6374  0.1225
 2620poe    c2314154   4.392   5.526   2.974  0.0578  0.5968 -0.0747
 2620poe    c2314155   4.295   5.635   2.925  0.0106  0.5915  0.0062
 2620poe     o214156   4.229   5.604   2.804 -0.4619  0.1044  0.3845
 2620poe    c2314157   4.167   5.721   2.756  0.0085  0.2988  0.2364
 2620poe    c2314158   4.125   5.701   2.609  0.2506 -0.2415  0.2356
 2620poe     o214159   4.244   5.649   2.557  0.1742  0.0731 -0.2617
 2620poe    c3114160   4.235   5.653   2.416 -0.5654  0.2691 -0.2120
 2621poe    c3114161   6.880   4.826   3.956  0.1339  0.1368 -0.1692
 2621poe     o214162   6.753   4.887   3.954 -0.3026 -0.7565 -0.2631
 2621poe    c2314163   6.672   4.777   3.986 -0.7887 -0.3192  0.0229
 2621poe    c2314164   6.527   4.830   3.986 -0.6871 -0.0401  0.2402
 2621poe     o214165   6.522   4.929   3.886  0.7697 -0.0837  0.0955
 2621poe    c2314166   6.399   4.995   3.866  0.7276 -0.1882  0.0098
 2621poe    c2314167   6.407   5.075   3.734  0.4357 -0.5215 -0.2107
 2621poe     o214168   6.490   5.188   3.747 -0.0933 -0.1611  0.1072
 2621poe    c2314169   6.519   5.245   3.621 -0.8079  0.0158  0.0179
 2621poe    c2314170   6.606   5.371   3.638 -0.0180 -0.6074  0.7188
 2621poe     o214171   6.735   5.347   3.690  0.3961 -0.0372 -0.0233
 2621poe    c3114172   6.804   5.470   3.690 -0.2934  0.3566  0.1388
 2622poe    c3114173   2.110   2.114   6.501 -0.5673 -0.6696 -0.0759
 2622poe     o214174   2.181   1.993   6.485 -0.0518 -0.3900  0.0431
 2622poe    c2314175   2.202   1.975   6.347 -0.4257  0.2180 -0.0974
 2622poe    c2314176   2.283   1.846   6.325 -0.2838  0.2480  0.2344
 2622poe     o214177   2.422   1.845   6.351 -0.2517  0.3395  0.0693
 2622poe    c2314178   2.469   1.716   6.317 -0.2496  0.2909  0.2564
 2622poe    c2314179   2.620   1.735   6.298 -0.2194  0.1979  0.3943
 2622poe     o214180   2.672   1.800   6.412 -0.0493  1.0994 -0.1832
 2622poe    c2314181   2.813   1.792   6.418 -0.1238 -0.2629  0.0790
 2622poe    c2314182   2.845   1.872   6.545  0.0495  0.2217 -0.2665
 2622poe     o214183   2.763   1.986   6.541 -0.4911 -0.1314  0.4473
 2622poe    c3114184   2.801   2.059   6.655  0.1124  0.4040 -0.0907
 2623poe    c3114185   3.558   0.656   1.824  0.3317 -0.7376 -0.1451
 2623poe     o214186   3.430   0.610   1.787  0.0859 -0.0308 -0.1929
 2623poe    c2314187   3.390   0.713   1.699  0.1825  0.0264 -0.1699
 2623poe    c2314188   3.286   0.673   1.593  0.2285  0.4254 -0.3673
 2623poe     o214189   3.316   0.558   1.518 -0.2922 -0.1398  0.2773
 2623poe    c2314190   3.215   0.515   1.430  0.0025  0.4233 -0.3445
 2623poe    c2314191   3.265   0.436   1.307  0.2430  0.3844 -0.2216
 2623poe     o214192   3.363   0.505   1.232  0.8566 -0.4121 -0.1649
 2623poe    c2314193   3.365   0.466   1.097  0.2401  0.1688 -0.3445
 2623poe    c2314194   3.246   0.495   1.003 -0.1449  0.3118  0.1791
 2623poe     o214195   3.225   0.631   0.972  0.1745  0.3130 -0.0430
 2623poe    c3114196   3.109   0.638   0.892  0.3980  0.1452 -0.3837
 2624poe    c3114197   1.622   6.395   5.048 -0.4312  0.1201 -0.2683
 2624poe     o214198   1.618   6.446   5.179 -0.1104 -0.3444 -0.0777
 2624poe    c2314199   1.487   6.496   5.197  0.1010  0.1562  0.0794
 2624poe    c2314200   1.488   6.598   5.312 -0.5775  0.1401  0.0999
 2624poe     o214201   1.461   6.535   5.435  0.0987 -0.1875  0.0809
 2624poe    c2314202   1.464   6.626   5.542  0.1416  0.0261 -0.1009
 2624poe    c2314203   1.581   6.617   5.642 -0.2197  0.7701  0.3978
 2624poe     o214204   1.702   6.648   5.577  0.0263 -0.0802  0.4296
 2624poe    c2314205   1.804   6.686   5.667 -0.0915  0.1992  0.4465
 2624poe    c2314206   1.932   6.729   5.593  0.0539  0.0406  0.6050
 2624poe     o214207   2.001   6.621   5.534  0.3743  0.5398  0.0496
 2624poe    c3114208   2.127   6.661   5.484  0.0880  0.5852 -0.6446
 2625poe    c3114209   2.916   6.624   4.912  0.0409 -0.3538  0.3733
 2625poe     o214210   2.839   6.548   5.002 -0.3915  0.1073  0.4004
 2625poe    c2314211   2.793   6.626   5.110 -0.5736  0.5412  0.0123
 2625poe    c2314212   2.737   6.523   5.209  0.4521 -0.2561 -0.2145
 2625poe     o214213   2.670   6.424   5.134  0.6707 -0.3469 -0.2921
 2625poe    c2314214   2.599   6.318   5.193 -0.0103  0.0832 -0.3220
 2625poe    c2314215   2.499   6.263   5.089 -0.3316  0.7339 -0.3638
 2625poe     o214216   2.582   6.237   4.978 -0.2139  0.1562 -0.1455
 2625poe    c2314217   2.501   6.172   4.883 -0.0179 -0.1773 -0.0893
 2625poe    c2314218   2.598   6.082   4.804  0.1194 -0.1814  0.0827
 2625poe     o214219   2.691   6.152   4.724 -0.1024  0.0207 -0.0017
 2625poe    c3114220   2.777   6.058   4.664  0.1231  0.1532  0.1108
 2626poe    c3114221   0.225   5.665   5.697 -1.0256  0.0494 -0.4542
 2626poe     o214222   0.258   5.710   5.567 -0.0842 -0.4859 -0.4035
 2626poe    c2314223   0.329   5.622   5.483  0.3757 -0.4511 -0.0620
 2626poe    c2314224   0.367   5.694   5.353  0.2153 -0.2544 -0.0004
 2626poe     o214225   0.463   5.797   5.361 -0.3065  0.2064  0.3816
 2626poe    c2314226   0.589   5.744   5.394 -0.2616 -0.0595 -0.2049
 2626poe    c2314227   0.699   5.844   5.434 -0.0431 -0.4160  0.0985
 2626poe     o214228   0.684   5.882   5.568 -0.4645 -0.0715 -0.0451
 2626poe    c2314229   0.714   5.790   5.671 -0.1709 -0.4417 -0.4622
 2626poe    c2314230   0.663   5.816   5.813  0.3978 -0.0723 -0.3253
 2626poe     o214231   0.524   5.838   5.829  0.5262  0.7058 -0.2281
 2626poe    c3114232   0.470   5.823   5.958  0.4407 -0.0605 -0.3503
 2627poe    c3114233   5.681   4.014   1.323  0.1007 -0.0024  0.5293
 2627poe     o214234   5.549   4.064   1.316  0.1673  0.1546  0.3650
 2627poe    c2314235   5.492   4.039   1.190 -0.3990 -0.4428  0.7269
 2627poe    c2314236   5.347   4.091   1.193 -0.3574 -0.2324 -0.4282
 2627poe     o214237   5.267   3.980   1.226  0.0392 -0.4691 -0.2538
 2627poe    c2314238   5.132   4.009   1.255  0.0834 -0.4863 -0.0314
 2627poe    c2314239   5.064   3.900   1.341 -0.5007 -0.0442  0.0751
 2627poe     o214240   5.042   3.778   1.275 -0.3598  0.0516 -0.1518
 2627poe    c2314241   4.987   3.676   1.356  0.0686  0.0941  0.1964
 2627poe    c2314242   4.991   3.540   1.284  0.1043  0.0621  0.2588
 2627poe     o214243   5.123   3.506   1.250  0.1094 -0.0952  0.4347
 2627poe    c3114244   5.126   3.372   1.205 -0.4795 -0.2201  0.7575
 2628poe    c3114245   2.407   6.209   0.082  0.0548  0.0029  0.3936
 2628poe     o214246   2.357   6.236  -0.048 -0.0319  0.2899  0.4859
 2628poe    c2314247   2.438   6.313  -0.134 -0.4958 -0.1242 -0.3291
 2628poe    c2314248   2.377   6.324  -0.275  0.3429 -0.3030 -0.7141
 2628poe     o214249   2.256   6.397  -0.269  0.2590 -0.5258  0.5470
 2628poe    c2314250   2.174   6.380  -0.381  0.2625  0.2787  0.4147
 2628poe    c2314251   2.091   6.509  -0.398 -0.6224 -0.2843  0.3750
 2628poe     o214252   2.042   6.545  -0.270 -0.3452  0.6618  0.2173
 2628poe    c2314253   1.973   6.665  -0.294 -0.3595  0.6518  0.2079
 2628poe    c2314254   1.873   6.702  -0.182 -0.2695  0.3816  0.3776
 2628poe     o214255   1.934   6.778  -0.081 -0.2702  0.2051  0.5110
 2628poe    c3114256   1.838   6.788   0.021 -0.7713 -0.5143  0.1130
 2629poe    c3114257   4.501   6.440   1.684 -0.3854 -0.2256  0.0799
 2629poe     o214258   4.463   6.314   1.736  0.3546 -0.3571  0.3195
 2629poe    c2314259   4.565   6.271   1.823 -0.0184  0.1686  1.0247
 2629poe    c2314260   4.541   6.121   1.847  0.4586 -0.0413  0.2176
 2629poe     o214261   4.403   6.097   1.865  0.3806 -0.1882 -0.5073
 2629poe    c2314262   4.374   5.964   1.899  0.0644 -0.2113 -0.8730
 2629poe    c2314263   4.227   5.945   1.941  0.2089  0.3765 -0.0788
 2629poe     o214264   4.149   5.953   1.823  0.1751 -0.6677 -0.1374
 2629poe    c2314265   4.018   6.000   1.847  0.1961 -0.1923 -0.9149
 2629poe    c2314266   3.931   5.977   1.722 -0.5708  0.6252 -0.5346
 2629poe     o214267   3.988   6.045   1.613  0.0980  0.8007 -0.0795
 2629poe    c3114268   3.935   5.996   1.492  1.2684 -0.3964 -0.1195
 2630poe    c3114269   0.889   3.269   6.329 -0.3174 -0.1717  0.4843
 2630poe     o214270   0.956   3.291   6.207 -0.6502  0.3254  0.3894
 2630poe    c2314271   1.041   3.403   6.216  0.3238 -0.3396 -0.4079
 2630poe    c2314272   1.116   3.412   6.081  0.2095 -0.4701 -0.4806
 2630poe     o214273   1.028   3.432   5.973 -0.0818 -0.0205 -0.1676
 2630poe    c2314274   1.095   3.435   5.848  0.3296 -0.1576  0.0485
 2630poe    c2314275   0.983   3.479   5.752  0.0630  0.3899  0.6029
 2630poe     o214276   0.871   3.398   5.784  0.3867 -0.6037 -0.6841
 2630poe    c2314277   0.781   3.415   5.677  0.4864  0.2207 -0.6456
 2630poe    c2314278   0.636   3.368   5.693  0.7461 -0.2261  0.4667
 2630poe     o214279   0.583   3.419   5.814  0.2070  0.5401 -0.0853
 2630poe    c3114280   0.459   3.355   5.835  0.3256  0.2981 -0.1158
 2631poe    c3114281   2.823   4.384   1.697  0.3537  1.2801 -0.4031
 2631poe     o214282   2.925   4.362   1.603  0.4844  0.2417 -0.0301
 2631poe    c2314283   2.965   4.467   1.519  0.3712  0.2468 -0.0777
 2631poe    c2314284   3.074   4.414   1.423  0.1991  0.2241 -0.2627
 2631poe     o214285   3.047   4.316   1.326 -0.0380  0.0475 -0.0220
 2631poe    c2314286   2.967   4.367   1.222 -0.1406  0.0151  0.0414
 2631poe    c2314287   2.950   4.253   1.120 -0.6530  0.0228  0.1154
 2631poe     o214288   2.900   4.146   1.198 -0.0082  0.0007  0.5001
 2631poe    c2314289   2.885   4.034   1.115 -0.6216  0.0513  0.5431
 2631poe    c2314290   2.838   3.913   1.197  0.7613 -0.5706  0.4329
 2631poe     o214291   2.924   3.907   1.309  1.0925  0.2449  0.2276
 2631poe    c3114292   2.909   3.788   1.383 -0.0859  0.1853 -0.0889
 2632poe    c3114293   5.254   5.538   0.506 -0.2564  0.1906  0.2745
 2632poe     o214294   5.135   5.566   0.577 -0.1927  0.0540  0.4384
 2632poe    c2314295   5.042   5.472   0.528  0.0680 -0.4768  0.9648
 2632poe    c2314296   4.923   5.439   0.620 -0.9382  0.1378 -0.0916
 2632poe     o214297   4.962   5.367   0.735 -0.2114  0.1775 -0.3093
 2632poe    c2314298   4.852   5.301   0.792 -0.0975 -0.0835 -0.3928
 2632poe    c2314299   4.893   5.203   0.903  0.2373  0.1843 -0.2813
 2632poe     o214300   4.988   5.276   0.979  0.1600  0.1351 -0.1365
 2632poe    c2314301   5.025   5.225   1.105  0.4546  0.1586 -0.2143
 2632poe    c2314302   5.159   5.285   1.151  0.1565  0.6034  0.0831
 2632poe     o214303   5.244   5.285   1.038 -0.3955 -0.4800 -0.3456
 2632poe    c3114304   5.376   5.317   1.076 -0.3737 -0.5273 -0.3835
 2633poe    c3114305   4.654   2.596   1.426 -0.1668 -0.3714 -0.4775
 2633poe     o214306   4.559   2.609   1.530  0.1086  0.1253 -0.2858
 2633poe    c2314307   4.624   2.661   1.644 -0.2325  0.0323 -0.0483
 2633poe    c2314308   4.516   2.696   1.748  0.0427  0.4676  0.0930
 2633poe     o214309   4.440   2.805   1.700 -0.1855  0.2456 -0.0503
 2633poe    c2314310   4.477   2.938   1.728  0.2867  0.1211 -0.0749
 2633poe    c2314311   4.594   2.998   1.648  0.3209 -0.0023 -0.1180
 2633poe     o214312   4.552   3.000   1.514  0.2847 -0.6302 -0.1195
 2633poe    c2314313   4.660   3.042   1.434 -0.2821  1.0284 -0.0453
 2633poe    c2314314   4.619   3.038   1.285  0.1898  0.4217 -0.1651
 2633poe     o214315   4.571   2.912   1.244 -0.0086  0.4332  0.0304
 2633poe    c3114316   4.576   2.900   1.104 -0.2799 -0.4607  0.0918
 2634poe    c3114317   0.597   5.610   0.154  0.1175 -0.2008 -0.3076
 2634poe     o214318   0.545   5.739   0.129 -0.5325 -0.4025 -0.0328
 2634poe    c2314319   0.619   5.836   0.199 -0.5859 -0.1901 -0.2724
 2634poe    c2314320   0.551   5.972   0.172  0.1971  0.2522 -0.0851
 2634poe     o214321   0.454   5.976   0.274  0.6041  0.1059  0.3072
 2634poe    c2314322   0.365   6.081   0.246  0.3283 -0.1957  0.0470
 2634poe    c2314323   0.227   6.079   0.314  0.2570 -0.1182 -0.0943
 2634poe     o214324   0.218   6.064   0.454 -0.5090  0.1742 -0.1081
 2634poe    c2314325   0.237   6.185   0.524  0.2145 -0.1559  0.2717
 2634poe    c2314326   0.211   6.181   0.676  0.4061  0.2615  0.3191
 2634poe     o214327   0.310   6.124   0.759  0.3925 -0.2385 -0.0015
 2634poe    c3114328   0.265   6.083   0.886  0.4193 -0.0785  0.0599
 2635poe    c3114329   6.794   0.222   6.520 -0.2442 -0.0439 -0.0887
 2635poe     o214330   6.721   0.342   6.518 -0.0809  0.0598  0.0589
 2635poe    c2314331   6.637   0.330   6.405  0.6097  0.0648 -0.4611
 2635poe    c2314332   6.551   0.458   6.395  0.4540  0.0256  0.3136
 2635poe     o214333   6.470   0.469   6.510  0.1320  0.2073  0.0698
 2635poe    c2314334   6.338   0.483   6.462  0.0108 -0.6601  0.1256
 2635poe    c2314335   6.246   0.412   6.562 -0.1031 -0.3313  0.2553
 2635poe     o214336   6.274   0.449   6.695 -0.4413 -0.1678  0.2834
 2635poe    c2314337   6.228   0.365   6.799  0.0407 -0.2820  0.4094
 2635poe    c2314338   6.259   0.422   6.938  0.0838  0.3559  0.1442
 2635poe     o214339   6.396   0.413   6.970  0.0321  0.3737  0.3728
 2635poe    c3114340   6.425   0.466   7.098  0.3997  0.1155  0.4003
 2636poe    c3114341   2.652   5.682   1.977  0.2315 -0.5337 -0.0418
 2636poe     o214342   2.615   5.801   2.044  0.4974 -0.2643 -0.3711
 2636poe    c2314343   2.708   5.829   2.146  0.1233  0.2996 -0.1807
 2636poe    c2314344   2.727   5.981   2.159 -0.0209  0.2567  0.5800
 2636poe     o214345   2.809   6.008   2.048 -0.2116  0.0803  0.3953
 2636poe    c2314346   2.841   6.142   2.018  0.2079 -0.1353 -0.1568
 2636poe    c2314347   2.887   6.170   1.874 -0.3364 -0.1905 -0.3453
 2636poe     o214348   3.017   6.125   1.843 -0.0073  0.2448  0.3674
 2636poe    c2314349   3.025   5.994   1.790  0.0133  0.1872  0.5140
 2636poe    c2314350   3.169   5.951   1.757 -0.1846 -0.4455  0.4609
 2636poe     o214351   3.266   5.967   1.858 -0.1222  0.1621  0.3107
 2636poe    c3114352   3.399   5.968   1.811 -0.2877  0.1062 -0.1625
 2637poe    c3114353   0.661   6.276   1.328  0.3307 -0.0836 -1.1563
 2637poe     o214354   0.733   6.328   1.437 -0.6129  0.1857 -0.6496
 2637poe    c2314355   0.660   6.292   1.552  0.1725  0.2070 -0.1369
 2637poe    c2314356   0.732   6.373   1.661 -0.1236  0.0198  0.2010
 2637poe     o214357   0.766   6.490   1.590  0.2174 -0.3963 -0.3241
 2637poe    c2314358   0.819   6.584   1.680  0.0916 -0.2619 -0.3909
 2637poe    c2314359   0.873   6.686   1.578 -0.1944  0.2741 -0.0116
 2637poe     o214360   0.958   6.621   1.487 -0.0785  0.1832  0.1614
 2637poe    c2314361   1.034   6.725   1.431  0.0551  0.2397  0.4461
 2637poe    c2314362   1.141   6.660   1.341  0.0384  0.1506  0.4908
 2637poe     o214363   1.094   6.632   1.211  0.3162 -0.1967  0.4646
 2637poe    c3114364   1.192   6.555   1.145  0.2552  0.2784 -0.1942
 2638poe    c3114365   5.509   5.695   3.981  0.2190  0.0090 -0.5500
 2638poe     o214366   5.382   5.743   4.017  0.2893  0.1335 -0.4685
 2638poe    c2314367   5.320   5.803   3.905  0.2195  0.4811 -0.2443
 2638poe    c2314368   5.206   5.894   3.955  0.0669  0.1286  0.0492
 2638poe     o214369   5.146   5.836   4.068  0.5166  0.2513  0.3502
 2638poe    c2314370   5.049   5.918   4.129  0.6117  0.3294  0.3973
 2638poe    c2314371   5.020   5.851   4.265  0.0420 -0.0556  0.0922
 2638poe     o214372   5.144   5.844   4.332  0.3001  0.5232 -0.3105
 2638poe    c2314373   5.136   5.786   4.460 -0.2235  0.0888 -0.5359
 2638poe    c2314374   5.245   5.845   4.552 -0.5276 -0.0034 -0.1108
 2638poe     o214375   5.371   5.798   4.513 -0.3909  0.2694 -0.0017
 2638poe    c3114376   5.482   5.825   4.595 -0.0324 -1.0092 -0.0341
 2639poe    c3114377   1.666   6.185   0.833  0.6677 -0.4568 -0.1510
 2639poe     o214378   1.548   6.146   0.901  0.2347  0.3666 -0.4147
 2639poe    c2314379   1.433   6.211   0.852 -0.0228  0.2374  0.0215
 2639poe    c2314380   1.312   6.210   0.948 -0.0106 -0.2373  0.0365
 2639poe     o214381   1.329   6.095   1.026 -0.1518 -0.2863 -0.0050
 2639poe    c2314382   1.230   6.087   1.127 -0.3047 -0.1811 -0.1474
 2639poe    c2314383   1.281   5.995   1.238 -0.8306 -0.2998 -0.0018
 2639poe     o214384   1.316   5.867   1.190 -0.3596 -0.1960  0.0619
 2639poe    c2314385   1.340   5.770   1.289  0.4975 -0.3284 -0.2651
 2639poe    c2314386   1.449   5.786   1.397 -0.1200  0.0708  0.3033
 2639poe     o214387   1.575   5.816   1.342 -0.1587 -0.1147  0.1142
 2639poe    c3114388   1.675   5.842   1.438 -0.0072  0.0689 -0.0896
 2640poe    c3114389   4.591   3.629   5.419 -0.1753 -0.2603  0.3836
 2640poe     o214390   4.520   3.654   5.299 -0.1385 -0.0714  0.3998
 2640poe    c2314391   4.461   3.539   5.242 -0.4722  0.1395  0.3194
 2640poe    c2314392   4.353   3.583   5.141 -0.0462 -0.3947 -0.3789
 2640poe     o214393   4.419   3.646   5.034  0.4249 -0.2396 -0.0036
 2640poe    c2314394   4.329   3.643   4.925 -0.8400  1.0710  0.9706
 2640poe    c2314395   4.356   3.769   4.840  0.0651  0.5416  0.4627
 2640poe     o214396   4.496   3.781   4.824  0.1889 -1.0557  0.1388
 2640poe    c2314397   4.536   3.886   4.739  0.2524 -0.5454  0.7911
 2640poe    c2314398   4.681   3.930   4.771  0.4070 -0.6543  0.2399
 2640poe     o214399   4.703   3.898   4.906  0.4663  0.3487  0.4731
 2640poe    c3114400   4.826   3.939   4.963  0.6866  0.6843 -0.2368
 2641poe    c3114401   5.254   1.110   2.103 -0.7093  0.3107  0.4851
 2641poe     o214402   5.346   1.191   2.171 -0.0859  0.2823 -0.3166
 2641poe    c2314403   5.278   1.308   2.209 -0.2315 -0.0959  0.6234
 2641poe    c2314404   5.377   1.422   2.241 -0.1254 -0.1346  0.4363
 2641poe     o214405   5.449   1.394   2.359  0.0650  0.2800  0.4214
 2641poe    c2314406   5.583   1.439   2.353 -0.0225  0.4718 -0.1017
 2641poe    c2314407   5.669   1.376   2.464 -0.4580  0.0515  0.0002
 2641poe     o214408   5.696   1.242   2.432  0.1420  0.2321 -0.2604
 2641poe    c2314409   5.797   1.194   2.518 -0.2134 -0.2030 -0.0805
 2641poe    c2314410   5.866   1.061   2.480  0.7739  0.0896  0.6438
 2641poe     o214411   5.930   1.053   2.354 -0.3410  0.2057  0.0582
 2641poe    c3114412   5.976   0.921   2.338 -0.2497  0.2977 -0.4252
 2642poe    c3114413   4.213   2.458   0.671 -0.2278  0.7516  0.5099
 2642poe     o214414   4.121   2.501   0.573  0.3290  0.1123 -0.3078
 2642poe    c2314415   3.990   2.449   0.574  0.4385 -0.1657 -0.2878
 2642poe    c2314416   3.904   2.518   0.466  0.2851 -0.0891 -0.1182
 2642poe     o214417   3.960   2.502   0.338  0.3893  0.1611 -0.1044
 2642poe    c2314418   3.872   2.531   0.232 -0.0496  0.0850  0.2383
 2642poe    c2314419   3.929   2.477   0.099 -0.2288  1.0972 -0.2573
 2642poe     o214420   4.055   2.531   0.066  0.2338  0.3461  0.2557
 2642poe    c2314421   4.072   2.570  -0.069 -0.0059  0.1132  0.1566
 2642poe    c2314422   4.216   2.538  -0.113 -0.1156 -0.3415  0.1217
 2642poe     o214423   4.302   2.566  -0.004 -0.1380 -0.3037  0.1297
 2642poe    c3114424   4.427   2.504  -0.026  0.0089 -0.2216  0.7201
 2643poe    c3114425   6.427   6.687   6.335  0.9268  0.2413  0.1093
 2643poe     o214426   6.505   6.620   6.432  0.0753 -0.1085  0.5597
 2643poe    c2314427   6.636   6.672   6.424 -0.1415  0.4743  0.7478
 2643poe    c2314428   6.732   6.563   6.472  0.1067  0.1278 -0.4888
 2643poe     o214429   6.717   6.454   6.384  0.0994 -0.5228  0.3013
 2643poe    c2314430   6.808   6.353   6.422  0.3456 -0.1159  0.8066
 2643poe    c2314431   6.824   6.229   6.332 -0.0621  0.1857  0.3116
 2643poe     o214432   6.695   6.194   6.286  0.2181 -0.6122  0.1310
 2643poe    c2314433   6.708   6.075   6.211  0.4502 -0.3257 -0.2880
 2643poe    c2314434   6.569   6.024   6.166  0.5020 -0.1222 -0.6889
 2643poe     o214435   6.508   6.142   6.119 -0.1087 -0.1454  0.0184
 2643poe    c3114436   6.384   6.121   6.056 -0.1421 -0.2759  0.1286
 2644poe    c3114437   1.234   5.112   4.115 -0.1936 -0.6830 -0.0105
 2644poe     o214438   1.279   5.098   3.983  0.3683  0.9591 -0.0102
 2644poe    c2314439   1.383   5.003   3.985 -0.9756 -0.5607 -0.2942
 2644poe    c2314440   1.435   4.983   3.841  0.2996  0.6176 -0.0276
 2644poe     o214441   1.418   5.098   3.763  0.3892  0.7362  0.1284
 2644poe    c2314442   1.467   5.076   3.633  0.2534 -0.0241  0.2011
 2644poe    c2314443   1.490   5.207   3.554 -0.2716  0.1873  0.3941
 2644poe     o214444   1.363   5.261   3.524 -0.2005  0.2771  0.2537
 2644poe    c2314445   1.378   5.397   3.491 -0.1309  0.3222  0.4715
 2644poe    c2314446   1.241   5.467   3.503 -0.2947  0.0186  0.3577
 2644poe     o214447   1.214   5.503   3.637  0.4331  0.1828  0.4606
 2644poe    c3114448   1.127   5.614   3.647 -0.0199 -0.1659  0.3913
 2645poe    c3114449   0.201   1.035   5.269 -0.0146  0.3807  0.4540
 2645poe     o214450   0.241   1.153   5.335 -0.3603  0.6891  0.1096
 2645poe    c2314451   0.133   1.194   5.416 -0.4079  0.2544  0.2637
 2645poe    c2314452   0.161   1.337   5.465  0.1005  0.2562 -0.0232
 2645poe     o214453   0.296   1.343   5.504 -0.0092  0.0973  0.3799
 2645poe    c2314454   0.326   1.475   5.544 -0.1833  0.3839 -0.4233
 2645poe    c2314455   0.479   1.470   5.564 -0.2686  0.0247  0.1907
 2645poe     o214456   0.528   1.417   5.442 -0.0076 -0.2463  0.4123
 2645poe    c2314457   0.666   1.443   5.437 -0.0301 -0.1789  0.1550
 2645poe    c2314458   0.731   1.402   5.303  0.3082 -0.3577  0.3720
 2645poe     o214459   0.717   1.264   5.279 -0.1306 -0.2441 -0.0432
 2645poe    c3114460   0.818   1.215   5.193 -0.1258 -0.3365  0.0144
 2646poe    c3114461   2.671   5.328   6.511  0.1871  0.2513 -0.0790
 2646poe     o214462   2.548   5.304   6.576  0.2785  0.2769  0.1038
 2646poe    c2314463   2.445   5.308   6.479  0.4177 -0.0599 -0.0593
 2646poe    c2314464   2.319   5.271   6.560  0.5961 -0.5099  0.0218
 2646poe     o214465   2.347   5.327   6.686 -0.1803 -0.2967  0.1069
 2646poe    c2314466   2.237   5.333   6.773 -0.3064 -0.1052 -0.0658
 2646poe    c2314467   2.277   5.416   6.896 -0.1060  0.0720 -0.2513
 2646poe     o214468   2.413   5.392   6.925 -0.1890  0.0307  0.1038
 2646poe    c2314469   2.435   5.430   7.059 -0.6738  0.1406  0.1556
 2646poe    c2314470   2.576   5.488   7.083 -0.2112 -0.7120 -0.4279
 2646poe     o214471   2.672   5.386   7.075  0.0674 -0.5030  0.1908
 2646poe    c3114472   2.801   5.442   7.061 -0.0712 -0.2892 -0.2544
 2647poe    c3114473   5.413   6.530   0.581  0.4651  0.3946 -0.4294
 2647poe     o214474   5.390   6.555   0.718  0.0458  0.4705 -0.5113
 2647poe    c2314475   5.279   6.639   0.737 -0.8212 -0.6740 -0.4322
 2647poe    c2314476   5.218   6.620   0.878 -0.1589  0.2663 -0.0154
 2647poe     o214477   5.287   6.662   0.994  0.3428 -0.0965 -0.1792
 2647poe    c2314478   5.195   6.664   1.100  0.5145 -0.3957 -0.0253
 2647poe    c2314479   5.222   6.765   1.213  0.5381  0.1243 -0.4962
 2647poe     o214480   5.212   6.893   1.154 -0.2939  0.2301 -0.1343
 2647poe    c2314481   5.211   6.998   1.248 -0.4128 -0.0229  0.1500
 2647poe    c2314482   5.229   7.138   1.186 -0.0428 -0.3034 -0.3802
 2647poe     o214483   5.126   7.193   1.108 -0.3671  0.5782  0.6524
 2647poe    c3114484   5.180   7.307   1.045  0.3050 -0.2493 -0.3037
 2648poe    c3114485   3.484   5.049   2.251 -0.3465 -0.4857 -0.1846
 2648poe     o214486   3.383   5.064   2.348 -0.1499 -0.2333 -0.0141
 2648poe    c2314487   3.310   4.947   2.378 -0.0264 -0.4787 -0.6489
 2648poe    c2314488   3.226   4.971   2.504  0.5029 -0.2133 -0.3428
 2648poe     o214489   3.129   5.073   2.506  0.2404 -0.4590 -0.4262
 2648poe    c2314490   2.998   5.023   2.517  0.2991 -0.4256  0.4950
 2648poe    c2314491   2.908   5.130   2.581  0.1458 -0.1784 -0.1282
 2648poe     o214492   2.922   5.251   2.511  0.2774  0.0169  0.2336
 2648poe    c2314493   2.832   5.353   2.547  0.2133  0.0948 -0.1355
 2648poe    c2314494   2.903   5.479   2.495  0.3103  0.2244  0.3025
 2648poe     o214495   3.041   5.464   2.521  0.4117  0.4211 -0.1116
 2648poe    c3114496   3.104   5.581   2.475 -0.1886  0.7930  0.0006
 2649poe    c3114497   2.716   0.198   2.758  0.0020  0.1006  0.3097
 2649poe     o214498   2.807   0.156   2.857  0.3434 -0.2818 -0.1600
 2649poe    c2314499   2.871   0.264   2.921 -0.7397  0.1193  0.2765
 2649poe    c2314500   2.952   0.217   3.043  0.1443 -0.4084 -0.4996
 2649poe     o214501   3.061   0.134   3.009  0.0300 -0.4670 -0.7238
 2649poe    c2314502   3.118   0.061   3.115 -0.2981  0.2931 -0.0160
 2649poe    c2314503   3.190  -0.058   3.050 -0.3723  0.2423 -0.0056
 2649poe     o214504   3.119  -0.145   2.964  0.0219  0.1625 -0.2554
 2649poe    c2314505   3.201  -0.257   2.939 -0.1484 -0.0674  0.1958
 2649poe    c2314506   3.183  -0.333   2.806 -0.2865  0.1889  0.0661
 2649poe     o214507   3.060  -0.401   2.801  0.0004 -0.3191 -0.1894
 2649poe    c3114508   3.046  -0.427   2.663 -0.8136 -0.4195 -0.0963
 2650poe    c3114509   2.278   1.289   2.028 -0.3166 -0.3835  0.0027
 2650poe     o214510   2.265   1.411   2.097 -0.4239  0.1351 -0.9208
 2650poe    c2314511   2.395   1.464   2.104 -0.5572  0.3161  0.3561
 2650poe    c2314512   2.374   1.611   2.146 -0.1567  0.4178  0.2021
 2650poe     o214513   2.313   1.680   2.039  0.7975  0.4947 -0.3089
 2650poe    c2314514   2.264   1.807   2.075 -0.1224 -0.0024  0.2284
 2650poe    c2314515   2.147   1.854   1.986 -0.2288 -0.1055  0.3127
 2650poe     o214516   2.040   1.763   1.992 -0.2009 -0.1627 -0.0295
 2650poe    c2314517   1.926   1.819   1.932 -0.0214 -0.5084 -0.6995
 2650poe    c2314518   1.805   1.731   1.969 -0.0892 -0.2266 -0.2492
 2650poe     o214519   1.848   1.605   1.921  0.5709 -0.1694  0.1686
 2650poe    c3114520   1.747   1.508   1.932  0.0049  0.3340 -0.4596
 2651poe    c3114521   4.905   1.700   2.270  0.1137 -0.3429 -0.1547
 2651poe     o214522   4.778   1.759   2.259 -0.0092 -0.6678 -0.4793
 2651poe    c2314523   4.697   1.733   2.372 -0.0714  0.4824 -0.2498
 2651poe    c2314524   4.564   1.803   2.339 -0.0335  0.6094 -0.1314
 2651poe     o214525   4.528   1.795   2.203  0.1814  0.3515 -0.1726
 2651poe    c2314526   4.445   1.899   2.157 -0.3409 -0.2238 -0.5412
 2651poe    c2314527   4.405   1.858   2.014 -0.2890 -0.0027 -0.6195
 2651poe     o214528   4.518   1.809   1.946 -0.1007 -0.5662  0.0867
 2651poe    c2314529   4.507   1.830   1.807 -0.1071 -0.5788  0.0853
 2651poe    c2314530   4.632   1.794   1.725  0.1986 -0.4703  0.5041
 2651poe     o214531   4.741   1.861   1.786  0.2121  0.0787 -0.1066
 2651poe    c3114532   4.862   1.842   1.716  0.2740  0.9269 -0.2330
 2652poe    c3114533   0.680   6.373   3.536 -0.0176 -0.6534  0.0066
 2652poe     o214534   0.817   6.365   3.571  0.0693 -0.0106 -0.1757
 2652poe    c2314535   0.869   6.491   3.605 -0.0101  0.0426 -0.2508
 2652poe    c2314536   0.967   6.469   3.722 -0.1995  0.0557 -0.0887
 2652poe     o214537   1.031   6.346   3.695 -0.5975 -0.1552 -0.0741
 2652poe    c2314538   1.132   6.337   3.793  0.0433 -0.1262 -0.7296
 2652poe    c2314539   1.157   6.185   3.800  0.0857 -0.0997 -0.2890
 2652poe     o214540   1.050   6.102   3.838  0.1377  0.0614  0.2142
 2652poe    c2314541   1.095   5.974   3.875  0.0411 -0.1061 -0.2482
 2652poe    c2314542   0.987   5.894   3.950 -0.0536  0.4427  0.2032
 2652poe     o214543   0.877   5.866   3.867 -0.1991 -0.0491  0.5530
 2652poe    c3114544   0.757   5.828   3.931 -0.4185 -0.0385  0.1535
 2653poe    c3114545   3.568   0.015   6.684 -0.5886 -0.0812  0.3860
 2653poe     o214546   3.481  -0.078   6.623 -0.3501  0.2511 -0.4778
 2653poe    c2314547   3.555  -0.180   6.560  0.5592  0.8049 -0.3265
 2653poe    c2314548   3.459  -0.259   6.469  0.4303  0.2760  0.2638
 2653poe     o214549   3.379  -0.358   6.531  0.3423 -0.0651 -0.3888
 2653poe    c2314550   3.272  -0.379   6.441  0.3233 -0.3254 -0.3060
 2653poe    c2314551   3.163  -0.433   6.535  0.4974 -0.1061  0.0261
 2653poe     o214552   3.124  -0.346   6.639 -0.4794  0.2515 -0.6214
 2653poe    c2314553   3.048  -0.416   6.735 -0.3368  0.6492 -0.2155
 2653poe    c2314554   3.024  -0.310   6.844 -0.1498  0.4808 -0.0111
 2653poe     o214555   3.150  -0.288   6.906 -0.2047 -0.3725  0.4224
 2653poe    c3114556   3.138  -0.194   7.010 -0.1493 -0.2119  0.2833
 2654poe    c3114557   6.767   4.371   6.101  0.1466  0.3691 -0.0322
 2654poe     o214558   6.908   4.369   6.106  0.1385 -0.1628 -0.0284
 2654poe    c2314559   6.940   4.233   6.084 -0.3741 -0.2890  0.0046
 2654poe    c2314560   7.084   4.217   6.135 -0.3169 -0.5058 -0.2236
 2654poe     o214561   7.178   4.290   6.059 -0.2953 -0.2996  0.0015
 2654poe    c2314562   7.294   4.296   6.140 -0.3096  0.2005 -0.0084
 2654poe    c2314563   7.349   4.438   6.159 -0.0144  0.0528  0.2602
 2654poe     o214564   7.343   4.506   6.035 -0.5643  0.2384  0.3819
 2654poe    c2314565   7.402   4.634   6.040  0.3637 -0.1722  0.1649
 2654poe    c2314566   7.403   4.690   5.897 -0.3807  0.2596  0.3247
 2654poe     o214567   7.270   4.677   5.850 -0.2307  0.0823 -0.0572
 2654poe    c3114568   7.230   4.729   5.725 -0.2974  0.5419  0.1535
 2655poe    c3114569   2.444   5.691   2.993  0.1989 -0.4310 -0.2015
 2655poe     o214570   2.471   5.780   3.100 -0.0333 -0.6550  0.0443
 2655poe    c2314571   2.483   5.716   3.225 -0.1214 -0.4164  0.1742
 2655poe    c2314572   2.538   5.813   3.332  0.0845 -0.0997 -0.2134
 2655poe     o214573   2.597   5.754   3.446 -0.3146  0.3152  0.2096
 2655poe    c2314574   2.646   5.859   3.526  0.1216  0.5230 -0.3194
 2655poe    c2314575   2.730   5.815   3.648 -0.0988  0.3903 -0.2162
 2655poe     o214576   2.845   5.749   3.600 -0.4236 -0.1990 -0.2083
 2655poe    c2314577   2.903   5.686   3.712 -0.2028  0.6665  0.1775
 2655poe    c2314578   3.056   5.699   3.717 -0.1073  0.0395 -0.8644
 2655poe     o214579   3.122   5.608   3.631 -0.1744 -0.4407 -0.4109
 2655poe    c3114580   3.243   5.663   3.585  0.1595 -0.7230  0.1175
 2656poe    c3114581   3.054   3.334   4.736 -0.3815 -0.2152 -0.2206
 2656poe     o214582   3.010   3.244   4.836 -0.1264 -0.2636 -0.1533
 2656poe    c2314583   2.987   3.308   4.959 -0.4141 -0.5990 -0.0340
 2656poe    c2314584   2.938   3.221   5.077 -0.1222 -0.2843  0.3232
 2656poe     o214585   2.827   3.159   5.014  0.0479 -0.4637  0.1995
 2656poe    c2314586   2.760   3.064   5.093 -0.1611  0.0427  0.6333
 2656poe    c2314587   2.641   3.012   5.010  0.3717 -0.0092 -0.1007
 2656poe     o214588   2.696   2.962   4.890  0.3854  0.0342 -0.1133
 2656poe    c2314589   2.605   2.889   4.812  0.2366 -0.0356  0.1246
 2656poe    c2314590   2.662   2.747   4.800 -0.2166 -0.1623 -0.6219
 2656poe     o214591   2.791   2.758   4.743 -0.2146 -0.2915 -0.6430
 2656poe    c3114592   2.854   2.634   4.766  0.1766  0.0211 -0.0091
 2657poe    c3114593   2.118   4.293   6.635  0.1107  0.0041 -0.3793
 2657poe     o214594   2.211   4.398   6.645 -0.2342  0.2252  0.6931
 2657poe    c2314595   2.142   4.521   6.646 -0.3527  0.1800 -0.4004
 2657poe    c2314596   2.237   4.634   6.690 -0.1446 -0.1074 -0.1055
 2657poe     o214597   2.337   4.665   6.595  0.1840 -0.6259  0.0654
 2657poe    c2314598   2.427   4.748   6.664 -0.3543  0.3717 -0.4098
 2657poe    c2314599   2.517   4.832   6.571 -0.2085  0.2828 -0.3487
 2657poe     o214600   2.569   4.747   6.472  0.0095  0.1590 -0.1304
 2657poe    c2314601   2.617   4.818   6.361  0.1309  0.6959  0.2634
 2657poe    c2314602   2.503   4.873   6.274  0.2056 -0.2594 -0.4593
 2657poe     o214603   2.423   4.763   6.237  0.0108 -0.2991  0.0802
 2657poe    c3114604   2.320   4.788   6.144 -0.0658 -0.2579  0.1760
 2658poe    c3114605   3.055   5.031   0.673  0.6586  0.1853 -0.6032
 2658poe     o214606   3.119   4.936   0.754  0.2475  0.3814 -0.0413
 2658poe    c2314607   3.239   4.886   0.699 -0.0930 -0.1980 -0.2675
 2658poe    c2314608   3.357   4.942   0.781 -0.2348  0.2552 -0.3737
 2658poe     o214609   3.364   4.901   0.915 -0.0303  0.2212 -0.3943
 2658poe    c2314610   3.495   4.900   0.967 -0.2033 -0.0432  0.0413
 2658poe    c2314611   3.499   4.878   1.120 -0.2409 -0.1503  0.0269
 2658poe     o214612   3.380   4.936   1.168  0.0111  0.5721 -0.2036
 2658poe    c2314613   3.383   4.943   1.309  0.0894 -0.4051 -0.1499
 2658poe    c2314614   3.235   4.961   1.348  0.0805  0.1660 -0.4355
 2658poe     o214615   3.178   5.055   1.260 -0.4839  0.1497 -0.0934
 2658poe    c3114616   3.088   5.142   1.325 -0.2333  0.4156 -0.1068
 2659poe    c3114617   6.254   4.505   7.020 -0.2185  0.7320  0.0015
 2659poe     o214618   6.290   4.555   6.893 -0.3109  0.4046 -0.1536
 2659poe    c2314619   6.245   4.478   6.783 -0.3261  0.2836 -0.0629
 2659poe    c2314620   6.273   4.543   6.646  0.2373  1.2478  0.4964
 2659poe     o214621   6.411   4.556   6.620  0.4231 -0.0471  0.7885
 2659poe    c2314622   6.435   4.677   6.553  0.2242 -0.2242  0.3940
 2659poe    c2314623   6.578   4.735   6.546  0.2242 -0.2064  0.5528
 2659poe     o214624   6.624   4.758   6.677  0.4008  0.5727  0.3581
 2659poe    c2314625   6.749   4.823   6.687  0.4025  0.4316  1.4617
 2659poe    c2314626   6.793   4.960   6.632  0.0804 -0.0671 -0.0986
 2659poe     o214627   6.853   4.962   6.505  0.1613 -0.0758 -0.0603
 2659poe    c3114628   6.908   5.090   6.484  0.3114 -0.1054  0.1502
 2660poe    c3114629   1.396   2.368   5.305 -0.3462 -0.3695  0.1418
 2660poe     o214630   1.379   2.498   5.253 -0.1296 -0.3210  0.1882
 2660poe    c2314631   1.275   2.559   5.326  0.0893  0.3181 -0.0313
 2660poe    c2314632   1.243   2.706   5.291 -0.1635  0.2091 -0.2617
 2660poe     o214633   1.346   2.801   5.300 -0.1975  0.1980  0.2893
 2660poe    c2314634   1.297   2.930   5.330 -0.4055  0.1520  0.1516
 2660poe    c2314635   1.390   3.042   5.280 -0.0119 -0.1720  0.1503
 2660poe     o214636   1.411   3.040   5.140 -0.4900 -0.2097  0.0775
 2660poe    c2314637   1.490   3.152   5.109 -0.2739 -0.3233  0.2115
 2660poe    c2314638   1.544   3.169   4.965 -0.4926  0.3572  0.2025
 2660poe     o214639   1.443   3.182   4.869 -0.4739  0.0686  0.1412
 2660poe    c3114640   1.505   3.201   4.744  0.3924  0.1714  0.5800
 2661poe    c3114641   5.495   3.518   5.315  0.5932  0.0647 -0.0749
 2661poe     o214642   5.595   3.542   5.412  0.6849  0.6522 -0.3094
 2661poe    c2314643   5.532   3.603   5.523  0.9508  0.2342  0.0732
 2661poe    c2314644   5.632   3.646   5.632  0.7812 -0.2017  0.4040
 2661poe     o214645   5.696   3.762   5.583 -0.4288  0.4260  0.2678
 2661poe    c2314646   5.810   3.799   5.658 -0.1528  0.0547  0.0330
 2661poe    c2314647   5.889   3.903   5.577 -0.4740 -0.2750 -0.7103
 2661poe     o214648   5.955   3.820   5.484  0.2993 -0.6567  0.1648
 2661poe    c2314649   6.042   3.905   5.412  0.3091 -0.4611  0.4066
 2661poe    c2314650   6.146   3.835   5.322 -0.3537 -0.1388 -0.6245
 2661poe     o214651   6.223   3.747   5.400 -0.1861 -0.1008 -0.7450
 2661poe    c3114652   6.314   3.680   5.316  0.2547 -0.1120 -0.2653
 2662poe    c3114653   2.704   1.771   0.542  0.0213  0.0965 -0.2750
 2662poe     o214654   2.777   1.692   0.633 -0.3352  0.0536 -0.0257
 2662poe    c2314655   2.757   1.554   0.607  0.1430 -0.0334  0.0626
 2662poe    c2314656   2.662   1.493   0.711 -0.1851  0.3676 -0.0000
 2662poe     o214657   2.725   1.461   0.833 -0.2811 -0.6788 -0.2176
 2662poe    c2314658   2.628   1.477   0.935 -0.2361 -0.4390 -0.2127
 2662poe    c2314659   2.688   1.466   1.076 -0.1133 -0.3700 -0.2593
 2662poe     o214660   2.787   1.567   1.080 -0.0570 -0.4310 -0.1261
 2662poe    c2314661   2.845   1.568   1.209  0.3708 -0.2014 -0.3220
 2662poe    c2314662   2.908   1.708   1.224 -0.3883  0.0766  0.2798
 2662poe     o214663   2.958   1.754   1.101 -0.4420  0.3622  0.3624
 2662poe    c3114664   3.055   1.853   1.127  0.3001 -0.1266 -0.4518
 2663poe    c3114665   1.655   2.346   6.471 -0.1041  0.2842  0.9324
 2663poe     o214666   1.622   2.483   6.467 -0.0647  0.2774  0.2478
 2663poe    c2314667   1.632   2.520   6.332  0.2759  0.0393  0.2056
 2663poe    c2314668   1.599   2.668   6.302 -0.0694  0.0111  0.4450
 2663poe     o214669   1.464   2.710   6.297 -0.2370 -0.5618  0.0205
 2663poe    c2314670   1.386   2.649   6.197 -0.5079 -0.2485  0.0403
 2663poe    c2314671   1.261   2.727   6.153 -0.1899  0.1746 -0.1232
 2663poe     o214672   1.137   2.709   6.219 -0.1741  0.0631 -0.1250
 2663poe    c2314673   1.067   2.829   6.199 -0.6521 -0.0850  0.6024
 2663poe    c2314674   0.998   2.876   6.328  0.1254  0.7451  0.7282
 2663poe     o214675   0.870   2.837   6.372  0.1796  0.0008  0.2444
 2663poe    c3114676   0.829   2.895   6.494  0.4820  0.1644  0.2695
 2664poe    c3114677   4.413   1.221   3.587 -0.2789 -0.5792  0.1079
 2664poe     o214678   4.535   1.240   3.657  0.0566  0.1061 -0.6467
 2664poe    c2314679   4.492   1.244   3.791  0.3883  0.5802 -0.5540
 2664poe    c2314680   4.613   1.209   3.878  0.0078 -0.1235 -0.3030
 2664poe     o214681   4.725   1.263   3.811  0.0821  0.3081  0.1627
 2664poe    c2314682   4.841   1.206   3.869 -0.1449 -0.2583  0.0736
 2664poe    c2314683   4.965   1.251   3.789  0.0425 -0.2212  0.3806
 2664poe     o214684   4.944   1.225   3.652  0.0900  0.2926  0.2737
 2664poe    c2314685   5.061   1.260   3.582  0.0712  0.0436  0.1133
 2664poe    c2314686   5.075   1.190   3.445  0.2757  0.0217  0.1450
 2664poe     o214687   4.965   1.216   3.361  0.4306  0.8431  0.1887
 2664poe    c3114688   4.991   1.213   3.222  0.1633  0.1681  0.1517
 2665poe    c3114689   2.718   1.770   2.461 -0.0768 -0.3738 -0.1315
 2665poe     o214690   2.626   1.866   2.510 -0.2310 -0.4953 -0.1860
 2665poe    c2314691   2.538   1.816   2.609 -0.1609 -0.0485  0.1045
 2665poe    c2314692   2.442   1.927   2.655 -0.1416 -0.0861  0.2364
 2665poe     o214693   2.399   1.992   2.537  0.3580  0.4708  0.3610
 2665poe    c2314694   2.329   2.110   2.570 -0.4782  0.1968 -0.3956
 2665poe    c2314695   2.267   2.165   2.440 -0.7405  0.2815 -0.2347
 2665poe     o214696   2.378   2.181   2.356 -0.5612  0.0213 -0.0494
 2665poe    c2314697   2.362   2.267   2.246 -0.1780  0.0045 -0.1208
 2665poe    c2314698   2.458   2.254   2.127 -0.5174  0.0697 -0.4044
 2665poe     o214699   2.453   2.126   2.068 -0.5005 -0.0929 -0.0551
 2665poe    c3114700   2.515   2.128   1.941  0.2283 -0.9204  0.2730
 2666poe    c3114701   3.508   6.077   0.276  0.3649 -0.4443 -0.6432
 2666poe     o214702   3.369   6.085   0.254  0.3344 -0.4736 -0.4685
 2666poe    c2314703   3.312   6.003   0.353  0.2359 -0.1287 -0.2377
 2666poe    c2314704   3.175   5.951   0.308  0.0448  0.4916 -0.3773
 2666poe     o214705   3.189   5.827   0.242 -0.0480  0.0895  0.3512
 2666poe    c2314706   3.067   5.767   0.204  0.0773  0.0779 -0.0335
 2666poe    c2314707   3.069   5.613   0.200  0.7594  0.0744  0.3936
 2666poe     o214708   3.182   5.594   0.117 -0.0026 -0.1001 -0.6145
 2666poe    c2314709   3.165   5.468   0.055  0.0598 -0.3967 -0.0385
 2666poe    c2314710   3.264   5.475  -0.063 -0.0509  0.4291 -0.0907
 2666poe     o214711   3.373   5.551  -0.017  0.2082  0.0482 -0.0712
 2666poe    c3114712   3.474   5.566  -0.114 -0.5036 -0.1102 -0.8478
 2667poe    c3114713   1.368   2.628   1.543  0.4960 -0.6703 -0.6503
 2667poe     o214714   1.453   2.717   1.611  0.1682 -0.7246 -0.1678
 2667poe    c2314715   1.384   2.832   1.655  0.1354 -0.6604 -0.3901
 2667poe    c2314716   1.481   2.952   1.667 -0.1268 -0.5213  0.3413
 2667poe     o214717   1.573   2.925   1.771  0.4703 -0.2613 -0.1153
 2667poe    c2314718   1.555   2.994   1.892 -0.1227 -0.6356  0.0169
 2667poe    c2314719   1.657   2.969   2.004  0.1740 -0.3966 -0.1989
 2667poe     o214720   1.778   2.961   1.932  0.2717 -0.5859 -0.0152
 2667poe    c2314721   1.876   2.902   2.015  0.0486 -0.0132  0.6634
 2667poe    c2314722   2.006   2.889   1.934 -0.1877 -0.2143  0.3142
 2667poe     o214723   1.961   2.835   1.811 -0.4742  0.6581  0.0302
 2667poe    c3114724   2.070   2.791   1.733 -0.4402  0.1551  0.3550
 2668poe    c3114725   1.159   1.771   1.449  0.2320 -0.6059  0.7132
 2668poe     o214726   1.052   1.701   1.389 -0.1077  0.5794 -0.0789
 2668poe    c2314727   1.000   1.782   1.286 -0.2650  0.7158  0.1081
 2668poe    c2314728   0.925   1.686   1.191  0.1959  0.0013  0.4593
 2668poe     o214729   0.871   1.584   1.271  0.2539 -0.2519  0.1759
 2668poe    c2314730   0.781   1.505   1.197 -0.0717  0.1947  0.0972
 2668poe    c2314731   0.680   1.444   1.295  0.2267 -0.0691  0.2392
 2668poe     o214732   0.751   1.398   1.408  0.2657 -0.7258 -0.0475
 2668poe    c2314733   0.669   1.396   1.523 -0.3579 -0.8627 -0.4915
 2668poe    c2314734   0.691   1.271   1.610  0.1174 -0.4844 -0.0614
 2668poe     o214735   0.616   1.157   1.573  0.5008 -0.4522 -0.9775
 2668poe    c3114736   0.626   1.058   1.673 -0.3964 -0.1372 -0.5627
 2669poe    c3114737   0.172   4.133   3.487 -0.6511 -0.2466  0.4807
 2669poe     o214738   0.160   4.262   3.543 -0.2032 -0.0980  0.2374
 2669poe    c2314739   0.055   4.337   3.487  0.6781  0.5412 -0.5745
 2669poe    c2314740   0.017   4.460   3.572  0.0618 -0.6119  0.8660
 2669poe     o214741   0.113   4.563   3.577 -0.4556 -0.1302  0.8906
 2669poe    c2314742   0.071   4.677   3.649 -0.6585  0.4745 -0.1502
 2669poe    c2314743   0.177   4.787   3.630  0.0798 -0.1374  0.3543
 2669poe     o214744   0.308   4.736   3.637  0.0964 -0.1287  0.0985
 2669poe    c2314745   0.413   4.824   3.605 -0.2550  0.3961  0.3902
 2669poe    c2314746   0.543   4.746   3.632 -0.3081  0.0505 -0.3177
 2669poe     o214747   0.523   4.622   3.568  0.0110 -0.2081  0.0811
 2669poe    c3114748   0.645   4.564   3.528  0.4178  0.2816  0.5831
 2670poe    c3114749   1.194   4.908   4.960  0.5023  0.1833  0.0883
 2670poe     o214750   1.215   4.769   4.947 -0.2411  0.0955 -0.1998
 2670poe    c2314751   1.347   4.743   4.987 -0.4241  0.0372  0.3887
 2670poe    c2314752   1.380   4.598   4.945 -0.0094  0.1388  0.3552
 2670poe     o214753   1.370   4.577   4.806  0.2446  1.1001  0.1832
 2670poe    c2314754   1.407   4.442   4.786 -0.2206  0.9750  0.1372
 2670poe    c2314755   1.350   4.382   4.657  0.4528  1.5271 -0.4286
 2670poe     o214756   1.211   4.402   4.641  0.1163 -0.2681  0.0590
 2670poe    c2314757   1.159   4.290   4.572 -0.5437  0.6230 -0.9091
 2670poe    c2314758   1.006   4.276   4.574 -0.4958  0.1789  0.0227
 2670poe     o214759   0.948   4.285   4.702  0.1694 -0.1306  0.3525
 2670poe    c3114760   0.807   4.292   4.691  0.1599  0.0022  0.5597
 2671poe    c3114761   1.539   4.725   0.255  1.2280 -0.3903 -0.4975
 2671poe     o214762   1.522   4.707   0.116  1.4941 -0.3106 -0.5399
 2671poe    c2314763   1.485   4.574   0.087 -0.3092  0.1813 -0.5709
 2671poe    c2314764   1.427   4.572  -0.055 -0.3385  0.4235 -0.5627
 2671poe     o214765   1.506   4.656  -0.137  0.3830  0.0867 -0.2122
 2671poe    c2314766   1.483   4.627  -0.273 -0.0871 -0.3307 -0.0499
 2671poe    c2314767   1.557   4.741  -0.345 -0.3542  0.1362  0.4042
 2671poe     o214768   1.487   4.862  -0.323 -0.0857  0.3722 -0.0160
 2671poe    c2314769   1.576   4.959  -0.373 -0.0235  0.0215 -0.6020
 2671poe    c2314770   1.500   5.093  -0.372  0.3528  0.2312 -0.2231
 2671poe     o214771   1.445   5.124  -0.246  0.3640 -0.2003 -0.1119
 2671poe    c3114772   1.415   5.262  -0.251  0.2420 -0.2274 -0.1225
 2672poe    c3114773   0.487   4.595   5.037 -0.1650 -0.1732 -0.0499
 2672poe     o214774   0.597   4.668   5.086 -0.2124 -0.1889  0.0807
 2672poe    c2314775   0.693   4.671   4.983 -0.3807  0.3608 -0.0626
 2672poe    c2314776   0.819   4.760   4.991  0.5355 -0.8720 -0.3878
 2672poe     o214777   0.894   4.719   5.103 -0.4065 -0.9468  0.2235
 2672poe    c2314778   0.874   4.812   5.207 -0.3190 -0.4712 -0.1818
 2672poe    c2314779   0.995   4.812   5.301  0.1447 -0.1410 -0.7722
 2672poe     o214780   1.025   4.690   5.366  0.3668  0.2167 -0.1971
 2672poe    c2314781   0.946   4.663   5.481  0.1688  0.3576 -0.2990
 2672poe    c2314782   0.992   4.529   5.541 -0.6580  0.1958 -0.0219
 2672poe     o214783   1.019   4.432   5.443 -0.5081  0.1149  0.0985
 2672poe    c3114784   1.003   4.294   5.472  0.4161 -0.0937 -0.3483
 2673poe    c3114785   6.972   6.413   6.950  0.4198  0.0844  0.0635
 2673poe     o214786   7.110   6.381   6.949  0.3364 -0.2693 -0.0348
 2673poe    c2314787   7.165   6.408   7.076 -0.1203 -0.4318  0.2002
 2673poe    c2314788   7.315   6.387   7.099  0.0208  0.0396 -0.2871
 2673poe     o214789   7.341   6.251   7.073  0.0411  0.0493 -0.3171
 2673poe    c2314790   7.473   6.228   7.031  0.1603  0.1524  0.0004
 2673poe    c2314791   7.500   6.113   6.932  0.8062  0.2103  0.1027
 2673poe     o214792   7.493   5.983   6.986 -0.6388  0.0539 -0.4077
 2673poe    c2314793   7.497   5.887   6.883 -0.0560 -0.1302 -0.2223
 2673poe    c2314794   7.459   5.752   6.945 -0.0028  0.0917  0.2990
 2673poe     o214795   7.333   5.741   7.007 -0.2711 -0.4075 -0.3148
 2673poe    c3114796   7.290   5.607   7.019 -0.1425 -0.4342 -0.1416
 2674poe    c3114797   2.374   4.217   5.423  0.0910  0.0329 -0.1488
 2674poe     o214798   2.262   4.298   5.393  0.2630  0.1786 -0.4002
 2674poe    c2314799   2.259   4.403   5.487 -0.2009 -0.1614 -0.0320
 2674poe    c2314800   2.122   4.467   5.514 -0.3902 -0.5104 -0.1638
 2674poe     o214801   2.052   4.521   5.404 -0.0732  0.5891  0.1656
 2674poe    c2314802   1.933   4.589   5.438 -0.1191  0.4341  0.3174
 2674poe    c2314803   1.834   4.590   5.321 -0.2102 -0.0465  0.3870
 2674poe     o214804   1.922   4.622   5.215 -0.2213 -0.3182  0.2947
 2674poe    c2314805   1.857   4.655   5.094  0.1841 -0.0126  0.1577
 2674poe    c2314806   1.977   4.694   5.006  0.3569  0.3999  0.5703
 2674poe     o214807   2.085   4.604   5.010  0.1318  0.1228  0.4679
 2674poe    c3114808   2.158   4.642   4.895 -0.4270 -0.3882 -0.0598
 2675poe    c3114809   0.358   4.066   0.845 -0.3355  0.4909 -0.0732
 2675poe     o214810   0.220   4.073   0.870 -0.2401  0.4607  0.4836
 2675poe    c2314811   0.161   3.945   0.861 -0.5628  0.6411 -0.0267
 2675poe    c2314812   0.007   3.950   0.870 -0.5685 -0.1566  0.3833
 2675poe     o214813  -0.055   4.011   0.759  0.3035  0.2265  0.0993
 2675poe    c2314814  -0.192   3.994   0.787  0.3126 -0.3718 -0.1915
 2675poe    c2314815  -0.282   4.033   0.668  0.1983  0.5790  0.1952
 2675poe     o214816  -0.300   4.171   0.647  0.9120  0.6361 -0.0660
 2675poe    c2314817  -0.372   4.194   0.528  0.3305 -0.0118  0.1586
 2675poe    c2314818  -0.441   4.331   0.534 -0.6454 -0.4810 -0.1078
 2675poe     o214819  -0.562   4.341   0.606 -0.1513 -0.3559  0.7224
 2675poe    c3114820  -0.617   4.470   0.622 -0.3847 -0.2962 -0.4607
 2676poe    c3114821   0.628   6.388   5.823 -0.4894 -0.3319 -0.2592
 2676poe     o214822   0.746   6.314   5.844 -0.2996  0.0561  0.0598
 2676poe    c2314823   0.821   6.364   5.953  0.7609 -0.1290 -0.5700
 2676poe    c2314824   0.912   6.253   6.009  0.8227  0.2893  0.1707
 2676poe     o214825   0.993   6.192   5.911 -0.3339 -0.3390 -0.4208
 2676poe    c2314826   1.082   6.104   5.976 -0.3072 -0.0589 -0.0760
 2676poe    c2314827   1.194   6.074   5.874 -0.2898  0.5985 -0.2586
 2676poe     o214828   1.130   6.060   5.749  0.2571  0.1092 -0.4895
 2676poe    c2314829   1.228   6.012   5.660  0.7069  0.6502 -0.2908
 2676poe    c2314830   1.151   5.978   5.532 -0.0066  0.3505  0.2136
 2676poe     o214831   1.093   6.094   5.476  0.1010  0.3728  0.1491
 2676poe    c3114832   1.029   6.063   5.354 -0.3835  0.8622  0.2782
 2677poe    c3114833   4.748   6.502   3.597  0.0783 -0.3503  0.7465
 2677poe     o214834   4.695   6.391   3.529 -0.0985  0.0031  0.3037
 2677poe    c2314835   4.671   6.287   3.621 -0.6059 -0.1942 -0.0443
 2677poe    c2314836   4.533   6.219   3.620 -0.3599 -0.7057  0.1429
 2677poe     o214837   4.493   6.146   3.507  0.1390  0.0414 -0.5257
 2677poe    c2314838   4.494   6.005   3.514 -0.6922  0.0605  0.0913
 2677poe    c2314839   4.417   5.932   3.403  0.0120  0.0939 -0.4185
 2677poe     o214840   4.455   5.969   3.272 -0.0347  0.6463 -0.2769
 2677poe    c2314841   4.459   5.863   3.179  0.0757  0.5090 -0.1161
 2677poe    c2314842   4.553   5.902   3.064  0.2735 -0.3953 -0.2654
 2677poe     o214843   4.694   5.897   3.079  0.2033  0.0302  0.6253
 2677poe    c3114844   4.736   5.763   3.085 -0.5901 -0.2596  0.0074
 2678poe    c3114845   1.744   0.119   4.593 -0.1405  0.4660  0.3333
 2678poe     o214846   1.666   0.210   4.668 -0.4073  0.1995  0.3833
 2678poe    c2314847   1.721   0.245   4.794  0.0941  0.2013  0.1664
 2678poe    c2314848   1.603   0.259   4.892  0.3649  0.3609  0.4719
 2678poe     o214849   1.499   0.351   4.868  0.4033  0.4375  0.6048
 2678poe    c2314850   1.387   0.326   4.950 -0.2669 -0.2622 -0.4973
 2678poe    c2314851   1.311   0.460   4.955 -0.0002 -0.1339  0.3066
 2678poe     o214852   1.292   0.496   4.820  0.2992  0.3151  0.3803
 2678poe    c2314853   1.215   0.613   4.802  0.2549  0.2055 -0.1731
 2678poe    c2314854   1.230   0.638   4.651 -0.3993  0.2534 -0.2315
 2678poe     o214855   1.363   0.679   4.627 -0.5012  1.0046  0.4443
 2678poe    c3114856   1.379   0.757   4.511  0.0195  0.4018  0.1073
 2679poe    c3114857   0.161   1.111   3.630  0.2209 -0.6021 -0.3334
 2679poe     o214858   0.157   1.184   3.751  0.6491 -0.6795 -0.2729
 2679poe    c2314859   0.116   1.100   3.856 -0.1975  0.3606  0.2441
 2679poe    c2314860   0.137   1.167   3.993 -0.0596 -0.3170  0.5620
 2679poe     o214861   0.098   1.301   3.971 -0.5180 -0.5156  0.1526
 2679poe    c2314862   0.125   1.388   4.078 -0.1440 -0.4702  0.0228
 2679poe    c2314863   0.057   1.517   4.030 -0.0013 -0.3213  0.2165
 2679poe     o214864   0.074   1.549   3.893 -0.1457  0.3484  0.3511
 2679poe    c2314865   0.031   1.680   3.866 -0.0039  0.3899  0.3220
 2679poe    c2314866   0.026   1.722   3.718 -0.3145 -0.9603 -0.0623
 2679poe     o214867   0.156   1.726   3.664 -0.1465 -0.4365  0.3787
 2679poe    c3114868   0.145   1.785   3.536 -0.2237  0.2153  0.6782
 2680poe    c3114869   6.202   2.207   5.270  0.2153 -0.1393  0.4019
 2680poe     o214870   6.231   2.176   5.405  0.1283 -0.6873  0.2979
 2680poe    c2314871   6.360   2.223   5.438  0.1894 -0.9815  0.4804
 2680poe    c2314872   6.393   2.210   5.588 -0.0385 -0.5787  0.5666
 2680poe     o214873   6.316   2.283   5.681 -0.6605  0.0043 -0.3857
 2680poe    c2314874   6.326   2.230   5.811  0.4177  0.0645 -0.4347
 2680poe    c2314875   6.408   2.322   5.903 -0.5789 -0.0269  0.5707
 2680poe     o214876   6.360   2.453   5.921 -0.3584  0.1956 -0.4214
 2680poe    c2314877   6.254   2.471   6.012 -0.3441  0.4727 -0.4605
 2680poe    c2314878   6.253   2.617   6.062 -0.4827  0.1418  0.5190
 2680poe     o214879   6.268   2.703   5.951  0.3955 -0.0945  0.4479
 2680poe    c3114880   6.257   2.839   5.987  0.1125  0.0879 -0.3233
 2681poe    c3114881   0.307   2.127   1.409  0.4635 -0.3843 -0.5284
 2681poe     o214882   0.381   2.240   1.449  0.0683 -0.1817 -0.3532
 2681poe    c2314883   0.352   2.338   1.352 -0.1053  0.2252  0.1040
 2681poe    c2314884   0.413   2.475   1.386 -0.1430  0.3569 -0.3605
 2681poe     o214885   0.544   2.482   1.334  0.0573  0.0508  0.0982
 2681poe    c2314886   0.606   2.596   1.390 -0.0648  0.1505  0.0325
 2681poe    c2314887   0.754   2.595   1.348 -0.2127 -0.1807 -0.4891
 2681poe     o214888   0.813   2.485   1.415 -0.0118  0.3142  0.1596
 2681poe    c2314889   0.953   2.479   1.401 -0.0332 -0.6591  0.3133
 2681poe    c2314890   0.999   2.357   1.483  0.2780 -0.2893  0.6969
 2681poe     o214891   0.926   2.245   1.438 -0.3228  0.3401  0.0708
 2681poe    c3114892   0.970   2.122   1.493 -0.0366  0.3653 -0.0980
 2682poe    c3114893   5.312   1.613   6.056  0.1744  0.1532  0.2780
 2682poe     o214894   5.381   1.726   6.009 -0.1717  0.1447 -0.2564
 2682poe    c2314895   5.295   1.831   5.969  0.4828  0.9210  0.3457
 2682poe    c2314896   5.363   1.905   5.852  0.0969  0.4962 -0.1478
 2682poe     o214897   5.493   1.935   5.896  0.2387 -0.7493  0.3126
 2682poe    c2314898   5.563   2.019   5.807 -0.3226 -0.6254 -0.0184
 2682poe    c2314899   5.707   2.035   5.860 -0.5258  0.1426  0.3103
 2682poe     o214900   5.791   1.923   5.845  0.1937  0.6721  0.3491
 2682poe    c2314901   5.924   1.947   5.886  0.3734  0.7527 -0.2769
 2682poe    c2314902   6.019   1.830   5.855  0.3748  0.6526  0.1040
 2682poe     o214903   5.992   1.787   5.724 -0.2763  0.5612  0.2657
 2682poe    c3114904   6.079   1.681   5.691 -0.3576  0.4160  0.5180
 2683poe    c3114905   0.144   6.468   6.319 -0.0523 -0.1681 -0.2405
 2683poe     o214906   0.104   6.580   6.395  0.3152 -0.0544 -0.2099
 2683poe    c2314907  -0.005   6.626   6.318  0.1754 -0.1755 -0.0842
 2683poe    c2314908  -0.073   6.745   6.389  0.0882  0.1079 -0.6383
 2683poe     o214909   0.033   6.833   6.415  0.1935 -0.3202  0.4158
 2683poe    c2314910  -0.013   6.965   6.397  0.2420 -0.3876 -0.1929
 2683poe    c2314911   0.094   7.054   6.463  0.3082 -0.1468 -0.6190
 2683poe     o214912   0.226   7.026   6.422  0.4070 -0.1119 -0.3232
 2683poe    c2314913   0.334   7.095   6.481  0.1139 -0.1019  0.2010
 2683poe    c2314914   0.476   7.066   6.431 -0.1833 -0.0294 -0.7029
 2683poe     o214915   0.498   6.927   6.447  0.3506  0.0812 -0.4667
 2683poe    c3114916   0.627   6.882   6.413  0.5392  0.0456  0.2723
 2684poe    c3114917   3.155   2.230   1.415 -0.2284  0.1046 -0.1407
 2684poe     o214918   3.188   2.206   1.280  0.2859  0.3069 -0.0514
 2684poe    c2314919   3.318   2.152   1.278  0.0330 -0.3084 -0.3941
 2684poe    c2314920   3.420   2.258   1.232 -0.5066  0.1622 -0.5175
 2684poe     o214921   3.416   2.369   1.319  0.0813  0.2075 -0.5442
 2684poe    c2314922   3.405   2.500   1.268 -0.4485  0.3053 -0.1784
 2684poe    c2314923   3.364   2.601   1.377 -0.5070  0.1905 -0.0934
 2684poe     o214924   3.468   2.611   1.472 -0.1397 -0.8753 -0.3670
 2684poe    c2314925   3.441   2.724   1.552  0.4244 -0.8689 -0.1806
 2684poe    c2314926   3.529   2.743   1.678 -0.1509  0.0645  0.0903
 2684poe     o214927   3.541   2.634   1.766 -0.5101 -0.0204  0.0393
 2684poe    c3114928   3.588   2.681   1.891  0.0917 -0.6044  0.0368
 2685poe    c3114929   3.736   1.548   3.186  0.3107 -0.3274 -0.3906
 2685poe     o214930   3.833   1.453   3.224  0.0618 -0.4315 -0.0127
 2685poe    c2314931   3.865   1.396   3.099  0.2190 -0.1245 -0.1124
 2685poe    c2314932   3.979   1.295   3.122  0.1468 -0.0478  0.5849
 2685poe     o214933   4.093   1.365   3.165  0.0083  0.2504  0.4652
 2685poe    c2314934   4.208   1.290   3.133 -0.2981  0.0707 -0.2324
 2685poe    c2314935   4.342   1.362   3.156 -0.1783 -0.2376  0.0505
 2685poe     o214936   4.378   1.402   3.286  0.2007 -0.3687 -0.0142
 2685poe    c2314937   4.491   1.486   3.281  0.0953 -0.1750  0.8036
 2685poe    c2314938   4.458   1.628   3.332  0.0145  0.2426 -0.3771
 2685poe     o214939   4.379   1.631   3.449 -0.0166 -0.1061 -0.3849
 2685poe    c3114940   4.343   1.757   3.502  0.2438  0.0091 -0.4783
 2686poe    c3114941   6.308   4.888   2.416 -0.1772  0.4660 -0.5866
 2686poe     o214942   6.330   4.802   2.306  0.3137  0.3628 -0.4128
 2686poe    c2314943   6.214   4.771   2.232 -0.0035  0.6847 -0.0559
 2686poe    c2314944   6.234   4.677   2.112  0.1511  0.3075  0.2645
 2686poe     o214945   6.256   4.548   2.166  0.4503  0.2670  0.0547
 2686poe    c2314946   6.160   4.452   2.126  0.1243  0.2399  0.8590
 2686poe    c2314947   6.191   4.306   2.164 -0.1654 -0.0179  0.1264
 2686poe     o214948   6.169   4.271   2.298 -0.1766  0.6594  0.3081
 2686poe    c2314949   6.143   4.133   2.310  0.4553  0.5414  0.3995
 2686poe    c2314950   6.063   4.080   2.431  0.3392 -0.0990  0.0498
 2686poe     o214951   6.131   4.083   2.554  0.3931 -0.3112  0.0251
 2686poe    c3114952   6.070   3.997   2.649  0.5353 -0.6057 -0.1487
 2687poe    c3114953   2.544   1.811   7.062  0.0368 -0.4406 -0.1278
 2687poe     o214954   2.579   1.947   7.065  0.5372 -0.5698  0.0930
 2687poe    c2314955   2.717   1.942   7.093  0.6583 -0.1472 -0.4011
 2687poe    c2314956   2.767   2.029   7.210 -0.4613  0.2269 -0.1877
 2687poe     o214957   2.697   2.150   7.193 -0.4339  0.2506 -0.1319
 2687poe    c2314958   2.775   2.250   7.254  0.3068 -0.3682 -0.0578
 2687poe    c2314959   2.710   2.384   7.214 -0.0768 -0.5473 -0.0320
 2687poe     o214960   2.713   2.408   7.075  0.5180 -0.1911  0.0410
 2687poe    c2314961   2.641   2.526   7.047  0.3819 -0.2967 -0.0575
 2687poe    c2314962   2.618   2.559   6.899 -0.1788 -0.0412  0.0868
 2687poe     o214963   2.566   2.461   6.812  0.0685  0.3325 -0.4877
 2687poe    c3114964   2.544   2.510   6.681  0.3917 -0.4533 -0.8433
 2688poe    c3114965   6.591   6.161   5.739  0.0534 -0.3676 -0.2442
 2688poe     o214966   6.536   6.227   5.627 -0.5839  0.0174  0.2944
 2688poe    c2314967   6.531   6.153   5.508 -0.1497 -0.0600  0.3210
 2688poe    c2314968   6.664   6.142   5.432 -0.5092  0.0220 -0.3302
 2688poe     o214969   6.758   6.062   5.500 -0.6007 -0.2270 -0.4967
 2688poe    c2314970   6.892   6.081   5.460 -0.4087 -0.6401 -0.0700
 2688poe    c2314971   6.993   5.979   5.514  0.2213 -0.0391 -0.1014
 2688poe     o214972   6.945   5.849   5.488 -0.6306  0.0530  0.9193
 2688poe    c2314973   7.043   5.747   5.499  0.0310  0.5347 -0.2873
 2688poe    c2314974   7.016   5.637   5.394 -0.6766  0.5227 -0.0987
 2688poe     o214975   6.894   5.566   5.399 -0.0609 -0.5627 -0.3212
 2688poe    c3114976   6.922   5.429   5.381 -0.2377 -0.5889 -0.3903
 2689poe    c3114977   1.641   5.607   2.840  0.2722  0.0792  0.2534
 2689poe     o214978   1.694   5.646   2.964  0.0510  0.4136  0.2456
 2689poe    c2314979   1.743   5.532   3.031 -0.4775  0.2171  0.2986
 2689poe    c2314980   1.817   5.574   3.160  0.4146  0.1112 -0.1719
 2689poe     o214981   1.724   5.616   3.257  0.4606  0.3349 -0.2253
 2689poe    c2314982   1.782   5.623   3.385  0.2304  0.8087 -0.1451
 2689poe    c2314983   1.683   5.682   3.487  0.0686  0.1850  0.0617
 2689poe     o214984   1.673   5.822   3.500  1.1542  0.2128  0.7397
 2689poe    c2314985   1.556   5.836   3.576  0.3993  0.1904 -0.3958
 2689poe    c2314986   1.515   5.981   3.609 -0.0859 -0.0564  0.1136
 2689poe     o214987   1.460   6.057   3.504 -0.3760  0.0432  0.3366
 2689poe    c3114988   1.459   6.188   3.556 -0.5455 -0.3285  1.2830
 2690poe    c3114989   1.632   1.334   0.597 -0.3990  0.5018  0.5200
 2690poe     o214990   1.558   1.412   0.505 -0.2508 -0.1583 -0.1710
 2690poe    c2314991   1.552   1.339   0.385  0.2366 -0.0558 -0.2601
 2690poe    c2314992   1.436   1.386   0.296 -0.1590 -0.1621  0.1991
 2690poe     o214993   1.464   1.504   0.223 -0.7618 -0.4447 -0.4964
 2690poe    c2314994   1.367   1.537   0.127 -1.0370 -0.1843 -0.1338
 2690poe    c2314995   1.400   1.640   0.017  0.0157 -0.5307 -0.1526
 2690poe     o214996   1.524   1.616  -0.046  0.1592  0.0368 -0.0937
 2690poe    c2314997   1.567   1.736  -0.107 -0.2282  0.3887  0.3114
 2690poe    c2314998   1.711   1.734  -0.161 -0.2531 -0.4039  0.2590
 2690poe     o214999   1.814   1.686  -0.078  0.0415  0.3553  0.3420
 2690poe    c3115000   1.907   1.788  -0.049  0.8360 -0.1699 -0.3033
 2691poe    c3115001   0.098   5.456   3.241 -0.0928 -0.3259 -0.5757
 2691poe     o215002   0.147   5.525   3.129  0.5980  0.0577 -0.0440
 2691poe    c2315003   0.049   5.605   3.067  0.1952 -0.4729 -0.0887
 2691poe    c2315004   0.110   5.642   2.931  0.2907 -0.8720 -0.1573
 2691poe     o215005   0.242   5.692   2.935  0.0453 -0.2014 -0.2066
 2691poe    c2315006   0.268   5.750   2.809  0.2685  0.2566  0.0495
 2691poe    c2315007   0.403   5.824   2.805  0.1384  0.4900 -0.0424
 2691poe     o215008   0.495   5.740   2.872  0.2234  0.4657 -0.1883
 2691poe    c2315009   0.622   5.801   2.877  0.6797 -0.5276  0.4636
 2691poe    c2315010   0.720   5.687   2.913  0.3733 -0.8749  0.2032
 2691poe     o215011   0.642   5.604   2.996 -0.1844 -0.2300  0.3342
 2691poe    c3115012   0.724   5.516   3.070  0.4903 -0.4300 -0.6216
 2692poe    c3115013   5.235   3.361   7.107 -0.2993  0.3215 -0.0352
 2692poe     o215014   5.265   3.239   7.045 -0.3212  0.3460 -0.0939
 2692poe    c2315015   5.182   3.223   6.931 -0.2784  0.2625 -0.1138
 2692poe    c2315016   5.215   3.094   6.853 -0.2837 -0.0259  0.3572
 2692poe     o215017   5.215   2.986   6.944  0.1598 -0.1338  0.2331
 2692poe    c2315018   5.281   2.880   6.878 -0.1875 -0.1076 -0.1624
 2692poe    c2315019   5.302   2.751   6.959  0.2317  0.1292  0.1107
 2692poe     o215020   5.174   2.703   6.994  0.2463  0.1023  0.1278
 2692poe    c2315021   5.173   2.589   7.078 -0.1868 -0.2894 -0.4010
 2692poe    c2315022   5.030   2.544   7.114 -0.0934 -0.3305 -0.0843
 2692poe     o215023   4.968   2.656   7.172  0.4598 -0.1541  0.1758
 2692poe    c3115024   4.840   2.669   7.113  0.5057  0.3079  0.1743
 2693poe    c3115025   3.744   2.086   1.850  0.3963  0.5574 -0.1308
 2693poe     o215026   3.727   2.183   1.749  0.4819 -0.2382 -0.9268
 2693poe    c2315027   3.771   2.313   1.782  0.5096 -0.5282  0.2260
 2693poe    c2315028   3.894   2.353   1.699  0.2331 -0.2011 -0.0314
 2693poe     o215029   3.859   2.440   1.594 -0.1324 -0.2216  0.0735
 2693poe    c2315030   3.977   2.477   1.527 -0.0525 -0.2328  0.2099
 2693poe    c2315031   3.955   2.599   1.436  0.5110  0.0293  0.4196
 2693poe     o215032   4.069   2.626   1.357  0.5402  0.6411  0.6611
 2693poe    c2315033   4.040   2.725   1.261  0.6041  0.1305  0.1048
 2693poe    c2315034   4.142   2.760   1.151  0.1404 -0.1596 -0.4198
 2693poe     o215035   4.202   2.886   1.171 -0.0066 -0.0724 -0.5199
 2693poe    c3115036   4.218   2.952   1.047  0.4590 -0.0038 -0.4280
 2694poe    c3115037   4.950   5.434   5.456  0.5803 -0.4037  0.4596
 2694poe     o215038   4.841   5.421   5.367  0.4698  0.5549  0.4376
 2694poe    c2315039   4.780   5.547   5.350  0.8275  0.6322 -0.3039
 2694poe    c2315040   4.668   5.563   5.246  0.0391 -0.1042  0.4137
 2694poe     o215041   4.536   5.527   5.281  0.0054 -0.1117  0.2835
 2694poe    c2315042   4.437   5.529   5.182  0.0393 -0.2890  0.2457
 2694poe    c2315043   4.300   5.480   5.233 -0.2173  0.2343  0.0703
 2694poe     o215044   4.260   5.564   5.339  0.3260  0.4351  0.1200
 2694poe    c2315045   4.135   5.524   5.390  0.4639 -0.0594  0.0727
 2694poe    c2315046   4.088   5.645   5.473  0.3765  0.2273 -0.3957
 2694poe     o215047   4.199   5.681   5.552  0.1257  0.4766 -0.1510
 2694poe    c3115048   4.162   5.744   5.672 -0.3751 -0.5594  0.2511
 2695poe    c3115049   3.686   0.869   1.528 -0.3164 -0.0607 -0.6474
 2695poe     o215050   3.672   0.768   1.430 -0.0526 -0.4964 -0.2417
 2695poe    c2315051   3.720   0.651   1.492  0.4443 -0.2872 -0.2219
 2695poe    c2315052   3.698   0.525   1.406  0.1515 -0.3799 -0.0151
 2695poe     o215053   3.770   0.513   1.285 -0.5127  0.2031 -0.4729
 2695poe    c2315054   3.801   0.377   1.267 -0.2902  0.2321 -0.3126
 2695poe    c2315055   3.865   0.352   1.129  0.0782 -0.2411 -0.0593
 2695poe     o215056   3.761   0.338   1.034 -0.0864 -0.5003  0.1565
 2695poe    c2315057   3.812   0.363   0.905  0.4754  0.2682  0.5138
 2695poe    c2315058   3.692   0.420   0.826  0.6325 -0.0605  0.0349
 2695poe     o215059   3.653   0.551   0.857  0.2999  0.0568 -0.8456
 2695poe    c3115060   3.555   0.596   0.766 -0.1172  0.4744 -0.2088
 2696poe    c3115061   1.214   2.043   2.539 -0.5085 -0.3708 -0.4700
 2696poe     o215062   1.352   2.069   2.547 -0.5780 -0.2018  0.2450
 2696poe    c2315063   1.407   2.043   2.674 -0.3254 -0.5571  0.0638
 2696poe    c2315064   1.518   2.147   2.696 -0.2801 -0.4838 -0.5015
 2696poe     o215065   1.607   2.130   2.588  0.4028 -0.4956  0.0562
 2696poe    c2315066   1.726   2.205   2.599  0.0345  0.1571 -0.3785
 2696poe    c2315067   1.823   2.221   2.480  0.4681 -0.8297 -0.1659
 2696poe     o215068   1.749   2.260   2.367  0.2619 -0.3759  0.1239
 2696poe    c2315069   1.831   2.248   2.253 -0.4898  0.0617 -0.4825
 2696poe    c2315070   1.749   2.240   2.123 -0.5739  0.0634 -0.4288
 2696poe     o215071   1.657   2.134   2.120 -0.9662  0.3952 -0.2912
 2696poe    c3115072   1.613   2.120   1.987 -0.3530  0.2944 -0.4855
 2697poe    c3115073   1.410   0.892   3.909  0.4156  0.5788  0.2156
 2697poe     o215074   1.272   0.919   3.903  0.3452  0.1684 -0.0364
 2697poe    c2315075   1.234   1.039   3.840 -0.1217 -0.0998 -0.2741
 2697poe    c2315076   1.081   1.056   3.842 -0.1250 -0.1509  0.1201
 2697poe     o215077   1.040   0.998   3.963 -0.3314 -0.1951  0.0305
 2697poe    c2315078   0.900   1.008   3.972 -0.3702 -0.3915 -0.3248
 2697poe    c2315079   0.856   0.975   4.116 -0.3466 -0.2576 -0.2861
 2697poe     o215080   0.904   0.844   4.138 -0.0202 -0.1696 -0.4732
 2697poe    c2315081   0.888   0.815   4.275  0.2920 -0.2205 -0.4462
 2697poe    c2315082   0.935   0.673   4.311  0.5052  0.0412  0.3297
 2697poe     o215083   1.075   0.653   4.301  0.4423 -0.2783  0.0615
 2697poe    c3115084   1.113   0.518   4.296 -0.0143 -0.4276  0.4832
 2698poe    c3115085   1.816   0.568   6.121 -0.0643  0.1986  0.3760
 2698poe     o215086   1.883   0.687   6.155  0.4241  0.1921 -0.5344
 2698poe    c2315087   1.845   0.724   6.285  0.0784 -0.5481 -0.4181
 2698poe    c2315088   1.846   0.878   6.288 -0.1657 -0.5405 -0.6947
 2698poe     o215089   1.936   0.914   6.185  0.2389 -0.3620 -0.2838
 2698poe    c2315090   1.918   1.052   6.164 -0.3417 -0.3001  0.5884
 2698poe    c2315091   2.051   1.117   6.120 -0.7570  0.0991 -0.0954
 2698poe     o215092   2.116   1.035   6.027 -0.1817  0.1476  0.2605
 2698poe    c2315093   2.247   1.078   5.993 -0.3719  0.6793  0.1871
 2698poe    c2315094   2.345   0.965   5.955 -0.7644  0.2770  0.3580
 2698poe     o215095   2.361   0.873   6.060  0.1763 -0.3283 -0.3089
 2698poe    c3115096   2.479   0.797   6.043  0.1113 -0.3300 -0.7498
 2699poe    c3115097   4.510   2.320   4.484  0.4573 -0.2495 -0.0661
 2699poe     o215098   4.521   2.380   4.611 -1.0588  0.5519 -0.2972
 2699poe    c2315099   4.418   2.336   4.697 -0.4991  0.3908  0.2951
 2699poe    c2315100   4.447   2.390   4.838  0.1523  0.2176  0.2350
 2699poe     o215101   4.494   2.521   4.814  0.7920 -0.0496  0.0352
 2699poe    c2315102   4.524   2.573   4.941  0.6637 -0.0091  0.0484
 2699poe    c2315103   4.615   2.693   4.907  0.6656  0.0266  0.1781
 2699poe     o215104   4.682   2.660   4.787 -0.1370  0.4700 -0.4048
 2699poe    c2315105   4.762   2.761   4.730 -0.3227  0.6903 -0.2769
 2699poe    c2315106   4.816   2.676   4.613 -0.0393 -0.2629  0.5347
 2699poe     o215107   4.724   2.586   4.554 -0.2186  0.3978 -0.2082
 2699poe    c3115108   4.778   2.533   4.435 -0.1573  0.2713 -0.1247
 2700poe    c3115109   2.123   6.096   2.238  0.2896  0.2668 -0.1178
 2700poe     o215110   2.196   5.982   2.277 -0.4798 -0.1585  0.1018
 2700poe    c2315111   2.280   6.008   2.387 -0.1319 -0.0978 -0.1748
 2700poe    c2315112   2.320   5.876   2.456 -0.4663 -0.1031  0.0117
 2700poe     o215113   2.342   5.786   2.349 -0.2650  0.2569 -0.2522
 2700poe    c2315114   2.372   5.653   2.386 -0.0272  0.3318 -0.1690
 2700poe    c2315115   2.402   5.568   2.262  0.0768 -0.3181  0.2942
 2700poe     o215116   2.327   5.622   2.156  0.2210 -0.3800  0.1595
 2700poe    c2315117   2.298   5.527   2.055  0.3780  0.0614 -0.3073
 2700poe    c2315118   2.261   5.599   1.924  0.1556  0.4095 -0.0558
 2700poe     o215119   2.130   5.647   1.944  0.1208  0.1745  0.2967
 2700poe    c3115120   2.079   5.730   1.841 -0.0052  0.1092  0.3064
 2701lim     li15121   1.764   0.855   1.153 -0.6320  0.3824 -0.0099
 2702lim     li15122   6.468   2.664   2.740  0.4196  0.1819 -0.2092
 2703lim     li15123   0.320   0.156   5.857  0.2722  0.3764 -0.9449
 2704lim     li15124   4.395   5.938   4.496 -0.3185 -0.0523 -0.3028
 2705lim     li15125   3.624   6.970   5.953  0.2302  0.9124 -0.9064
 2706lim     li15126   0.614   5.447   1.725  0.3413  0.8792  0.3556
 2707lim     li15127   4.588   2.549   4.676 -0.0423  0.0716 -0.3107
 2708lim     li15128   5.485   0.046   0.070  0.9797  0.5523 -0.4644
 2709lim     li15129   5.651   1.625   1.639  1.2621  0.2219 -0.2816
 2710lim     li15130   0.406   5.924   2.181 -0.7151 -0.3016  0.2279
 2711lim     li15131   3.606   1.901   0.163  0.0744  1.0753  0.1882
 2712lim     li15132   4.270   6.538   3.356 -0.3483 -1.1897 -0.0585
 2713lim     li15133   0.809   4.309   6.851 -0.3516 -0.2380  0.0357
 2714lim     li15134   2.255   5.834   2.186 -1.4180 -0.7921 -0.4241
 2715lim     li15135   1.852   6.289   5.489 -0.2138  0.1621  0.9553
 2716lim     li15136   1.862   4.351   0.402  0.1367 -0.5492  0.3945
 2717lim     li15137   0.986   5.025   0.002  0.6226 -0.0242  0.2138
 2718lim     li15138   2.831   3.021   1.385  0.9375  1.9922 -0.6208
 2719lim     li15139   0.762   2.321   1.354  0.5807  0.5475 -0.0978
 2720lim     li15140   2.747   4.337   2.684 -0.6136  0.7337 -0.3387
 2721lim     li15141   0.147   5.297   3.911 -0.2569  0.8649  0.3981
 2722lim     li15142   4.208   2.580   0.151 -0.8661  0.6517 -0.2572
 2723lim     li15143   5.400   6.454   5.131 -0.9883 -0.0471  0.1585
 2724lim     li15144   1.701   2.116   5.541  0.4686  1.3335 -0.7763
 2725lim     li15145   4.167   2.882   0.630 -0.1502 -0.8409  0.0871
 2726lim     li15146   0.874   2.193   5.920 -1.2388  0.2358 -0.5504
 2727lim     li15147   1.602   6.016   3.159 -0.4647  0.2295  0.1420
 2728lim     li15148   5.211   3.120   0.377 -0.4460  0.2828 -0.4288
 2729lim     li15149   5.152   5.340   0.878  0.4415  0.5114 -0.3682
 2730lim     li15150   6.415   4.448   5.060  0.7126 -0.2836  1.6698
 2731lim     li15151   1.639   1.258   6.899 -0.1147  0.0493  1.2680
 2732lim     li15152   1.166   3.468   0.325 -0.1031 -0.7923 -0.5241
 2733lim     li15153   1.472   5.992   0.979  0.4076 -0.2680  0.7390
 2734lim     li15154   2.015   4.379   3.985  0.2073 -0.0337  0.0644
 2735lim     li15155   5.314   0.833   5.376  0.0815  0.1552 -0.2737
 2736lim     li15156   5.241   2.004   5.348 -0.6660 -0.3865  0.2618
 2737lim     li15157   4.095   0.221   2.989  0.5070  0.1678  0.1700
 2738lim     li15158   3.036   3.464   2.478  0.2607 -0.0604  1.0193
 2739lim     li15159   6.681   5.016   3.864  0.0300 -0.2213 -1.5310
 2740lim     li15160   4.211   0.842   5.023  0.0016 -0.0772 -0.1968
 2741lim     li15161   1.348   6.209   7.043  0.4491  0.7778  0.1854
 2742lim     li15162   4.601   2.578   2.638 -1.7295 -0.5482 -0.8731
 2743lim     li15163   5.922   2.657   4.022  0.2553 -0.0537 -0.9147
 2744lim     li15164   4.663   4.738   4.027  0.2883 -0.2709 -0.4346
 2745lim     li15165   4.458   0.272   1.865  0.1223  0.2175 -0.0201
 2746lim     li15166   3.991   5.418   3.785 -0.8615  0.0094 -0.0974
 2747lim     li15167   2.831   7.034   3.811 -0.9151 -0.2044 -0.3644
 2748lim     li15168   2.245   4.562   1.506 -0.2619 -0.1087 -1.3989
 2749lim     li15169   4.775   6.833   4.817 -0.1436  0.8331 -0.6897
 2750lim     li15170   1.844   4.768   2.303  0.2533 -0.7128  0.0598
 2751lim     li15171   5.358   2.609   5.656 -0.2355 -0.0501 -0.0267
 2752lim     li15172   5.407   5.987   3.027  0.1635  0.2056 -0.1621
 2753lim     li15173   4.315   6.209   1.751  0.6784 -0.5299  0.2352
 2754lim     li15174   2.743   4.844   0.284  0.6619  0.9342 -0.5147
 2755lim     li15175   4.960   5.695   2.046  0.7303  0.3919  0.2750
 2756lim     li15176   4.528   1.906   5.279 -0.2177  0.2302  0.6944
 2757lim     li15177   1.380   4.105   3.718 -0.3873 -0.5508 -0.1322
 2758lim     li15178   5.606   6.107   3.707 -0.2106 -0.6236 -0.1544
 2759lim     li15179   2.109   0.492   2.898 -0.3743  0.3762 -0.1062
 2760lim     li15180   0.427   2.184   3.652  0.5196  0.3451 -0.8076
 2761lim     li15181   5.030   0.513   0.262  0.5689  0.5003  0.2216
 2762lim     li15182   4.163   0.966   0.848 -0.0506 -0.0899 -0.4933
 2763lim     li15183   5.353   4.673   2.346 -1.1148 -0.4061 -0.8577
 2764lim     li15184   3.455   4.514   5.348 -0.1939 -0.1235  0.6416
 2765lim     li15185   4.734   4.155   5.947  0.2609  1.0012 -0.4920
 2766lim     li15186   0.202   2.405   0.597  0.6192 -0.4803  0.3163
 2767lim     li15187   2.119   2.932   6.840 -0.3400 -0.9421 -0.7019
 2768lim     li15188   6.807   3.249   4.122  0.1579 -0.8347  0.3526
 2769lim     li15189   2.999   4.073   1.330  0.1618 -1.0700  0.4870
 2770lim     li15190   6.093   1.053   5.832  1.1504 -0.1881  0.3908
 2771lim     li15191   2.133   3.321   6.242 -0.6585 -0.0419  0.5507
 2772lim     li15192   5.923   1.958   5.422  0.2008 -1.5354 -0.0068
 2773lim     li15193   3.262   4.431   3.300 -0.0291  0.0167  0.4517
 2774lim     li15194   5.476   2.402   1.580  0.5034 -0.6326  0.7083
 2775lim     li15195   3.604   2.432   2.573 -0.1907 -0.6126 -0.0834
 2776lim     li15196   5.208   1.505   4.048  0.8095  0.0434 -0.6433
 2777lim     li15197   4.069   3.319   2.842 -0.0595 -0.2512 -0.5632
 2778lim     li15198   6.568   6.281   6.211  0.2967 -0.0529 -0.1835
 2779lim     li15199   4.764   2.201   0.509  0.6065  0.3080  1.0939
 2780lim     li15200   0.570   5.519   6.305  1.0830 -0.2185  0.4877
 2781lim     li15201   1.847   3.760   5.595 -0.1410 -0.0057 -0.6777
 2782lim     li15202   3.529   4.194   1.209 -0.1871  0.1456  1.6767
 2783lim     li15203   4.508   3.472   2.094  1.3089 -0.2426  0.5084
 2784lim     li15204   5.795   3.880   6.757 -1.3555 -0.1830 -0.6085
 2785lim     li15205   3.648   5.089   0.314  0.4728 -1.8840 -0.3898
 2786lim     li15206   3.502   6.411   6.704 -0.4247  0.3006  0.8818
 2787lim     li15207   4.784   4.169   0.570 -0.6565  0.6561  0.8636
 2788lim     li15208   5.285   3.758   3.644  1.1015 -0.0221 -0.2230
 2789lim     li15209   1.065   6.929   1.915 -0.3907  0.4435 -0.2546
 2790lim     li15210   4.223   4.571   1.062 -1.1410  0.0910 -0.2308
 2791lim     li15211   2.474   2.234   5.700  0.8068 -0.0109 -0.1724
 2792lim     li15212   5.202   4.906   6.531  0.1708 -0.6240 -0.3746
 2793lim     li15213   2.075   1.522   3.271 -0.1809  0.2701 -0.5668
 2794lim     li15214   5.133   2.944   3.205 -0.5320  0.0968 -0.2237
 2795lim     li15215   4.497   3.209   5.674  0.6085  0.5439  0.6810
 2796lim     li15216   5.465   2.696   0.806  0.4403  1.1091 -0.3608
 2797lim     li15217   6.856   0.078   0.677  0.9604 -0.9245 -0.1128
 2798lim     li15218   3.283   1.751   2.448 -0.0101 -0.0126 -0.8855
 2799lim     li15219   3.126   6.422   0.176  0.5625  0.2604 -0.5251
 2800lim     li15220   1.337   7.055   7.051 -0.3271 -0.1938  0.0367
 2801lim     li15221   2.864   3.096   4.852  0.2147 -0.3580  0.1833
 2802lim     li15222   0.143   3.794   4.843  0.5010  0.3487  0.0404
 2803lim     li15223   3.413   5.181   6.323 -0.6175 -0.5390 -0.1836
 2804lim     li15224   6.658   3.437   6.438 -0.3397 -0.6588 -0.1524
 2805lim     li15225   0.846   0.352   1.082  0.1173 -0.3629  0.4518
 2806lim     li15226   2.762   0.299   6.138  0.3689  0.8861  0.0426
 2807lim     li15227   2.907   5.603   0.934 -0.8738 -0.7885 -0.9445
 2808lim     li15228   0.144   3.004   6.369  1.0984  0.6791 -0.4389
 2809lim     li15229   6.574   4.587   2.375 -0.1682 -0.5249  0.1847
 2810lim     li15230   4.184   5.407   1.743 -0.0557  0.2278  0.0550
 2811lim     li15231   0.292   3.432   3.196  0.7087 -0.6252  1.0480
 2812lim     li15232   3.761   3.668   5.789 -0.8330 -0.2602 -0.3357
 2813lim     li15233   0.738   4.854   2.891  0.3430 -0.2035 -0.6264
 2814lim     li15234   4.959   1.304   6.039  1.6184 -0.3092 -1.1025
 2815lim     li15235   5.297   0.834   1.742 -0.0851 -0.1438 -0.1099
 2816lim     li15236   1.201   5.390   2.067 -0.5143  0.6787  0.5758
 2817lim     li15237   1.608   1.646   1.574  0.6648  0.6722  1.2905
 2818lim     li15238   0.934   1.990   0.542  0.1114 -1.0876  0.5720
 2819lim     li15239   1.500   7.034   1.095 -0.2132 -1.1282  1.9646
 2820lim     li15240   6.031   0.817   7.053  0.9787  0.0014  0.1552
 2821lim     li15241   7.096   5.167   7.095 -0.3659 -1.5338  0.6320
 2822lim     li15242   3.457   3.018   2.889 -0.3490 -0.0372  0.6926
 2823lim     li15243   3.306   0.614   4.482  0.7706  0.5043 -0.7397
 2824lim     li15244   3.820   6.730   1.925 -1.1101 -0.7872  0.6145
 2825lim     li15245   5.742   5.353   6.762  0.1822 -0.1860  0.3038
 2826lim     li15246   0.928   1.504   4.400  0.3568 -0.2385 -0.0022
 2827lim     li15247   4.730   3.064   3.764  0.6686 -0.1120 -0.0381
 2828lim     li15248   2.163   3.726   1.701  1.4901  0.9245 -0.8481
 2829lim     li15249   0.913   1.098   3.144 -0.1153 -0.3561 -0.2856
 2830lim     li15250   6.364   5.056   5.873  0.1912  0.3933  0.9530
 2831lim     li15251   4.795   0.833   2.914 -0.1578 -0.3731 -1.0949
 2832lim     li15252   1.762   2.966   0.649  0.0837 -0.3200  0.1389
 2833lim     li15253   3.862   4.705   2.326  0.0908  0.1509  0.8723
 2834lim     li15254   6.218   6.498   3.451 -0.4756 -0.5658  0.8068
 2835lim     li15255   6.396   2.631   5.798  0.1265  0.3056 -0.4907
 2836lim     li15256   6.754   2.986   1.099 -1.0111 -0.6370  0.6392
 2837lim     li15257   0.404   0.857   1.365 -0.1635 -1.1259 -0.4327
 2838lim     li15258   1.643   2.018   0.865  0.6724  0.7189  0.1435
 2839lim     li15259   6.960   1.809   1.825 -0.8878  0.2749 -0.0490
 2840lim     li15260   0.947   1.673   3.842 -0.1050 -0.1771  0.7087
 2841lim     li15261   3.295   4.214   2.195 -0.0608 -0.5446  1.2372
 2842lim     li15262   0.875   3.331   5.982 -0.3411  0.6708 -0.7771
 2843lim     li15263   0.211   6.237   3.281 -0.8975 -0.3424 -0.4776
 2844lim     li15264   4.482   4.198   1.959 -0.4704 -0.5243  1.2348
 2845lim     li15265   6.278   1.555   6.499  0.2580  0.6039  0.1934
 2846lim     li15266   6.704   1.852   1.397  0.4003  0.2941 -1.0491
 2847lim     li15267   3.016   1.127   6.747 -0.0628  0.0055 -0.4641
 2848lim     li15268   5.253   2.858   4.957  0.9100  0.9551  0.4591
 2849lim     li15269   6.270   3.275   4.551 -0.3119  1.3247 -0.2828
 2850lim     li15270   6.263   0.965   3.897  0.1904 -0.3240  0.9612
 2851lim     li15271   1.998   0.823   6.055  0.3422 -0.0163 -0.7616
 2852lim     li15272   1.164   4.358   3.114 -0.2380 -0.4616  0.3998
 2853lim     li15273   0.968   1.179   0.361  0.3956 -0.5691  0.6828
 2854lim     li15274   7.098   2.103   5.892 -0.5753  0.4183 -0.4366
 2855lim     li15275   4.958   5.301   4.573 -0.1092 -0.5346 -0.5100
 2856lim     li15276   3.737   1.975   5.313  0.6277 -0.2044 -0.1438
 2857lim     li15277   5.806   0.059   5.912 -0.1288  0.0293 -0.7206
 2858lim     li15278   5.688   4.549   3.686 -0.6261 -0.6048 -0.5125
 2859lim     li15279   3.754   4.153   4.685  0.2745  0.2839 -0.2370
 2860lim     li15280   2.035   3.107   3.903 -0.1867 -0.2553 -1.0893
 2861lim     li15281   0.912   5.788   4.932  0.1699 -0.0877 -0.0052
 2862lim     li15282   5.792   2.521   6.228  0.3141  0.3989  0.2050
 2863lim     li15283   4.548   5.438   6.385 -0.0054  0.7615 -0.1834
 2864lim     li15284   5.979   3.451   5.446 -1.0158  0.7135 -1.0422
 2865lim     li15285   3.602   3.635   0.741  0.1971  0.9417 -0.9930
 2866lim     li15286   1.572   2.341   4.312  0.4154  0.2051 -0.4730
 2867lim     li15287   3.290   2.823   6.696 -0.5272  0.4785  0.1154
 2868lim     li15288   1.376   5.472   4.773 -0.3427 -0.3657 -0.9675
 2869lim     li15289   1.390   1.020   2.469 -0.2735  0.2617  0.2851
 2870lim     li15290   0.868   6.453   1.432  0.2977  0.3579  0.1392
 2871lim     li15291   4.212   2.001   1.448  1.3704  0.5995  0.0835
 2872lim     li15292   5.086   2.770   2.160  0.1985  1.1627  0.5822
 2873lim     li15293   0.036   4.456   4.424  0.4376  0.4933  0.1080
 2874lim     li15294   2.305   0.750   6.902  0.5389  1.0140 -0.5972
 2875lim     li15295   5.666   3.697   2.708  0.0694  0.2059  0.4555
 2876lim     li15296   2.639   4.948   3.193 -0.0492 -0.1394 -0.1991
 2877lim     li15297   3.193   2.058   6.851 -0.8464  0.2735 -0.4789
 2878lim     li15298   2.948   1.230   4.214  0.5103  0.3801 -0.4316
 2879lim     li15299   0.465   5.596   2.973 -0.5921 -0.7265  0.0255
 2880lim     li15300   1.999   2.720   1.119 -0.4655 -0.6194 -0.5404
 2881lim     li15301   1.141   4.537   5.329  0.1784 -0.2286  0.0241
 2882lim     li15302   5.162   1.435   7.068 -0.4582 -0.0176  0.2833
 2883lim     li15303   0.899   2.736   4.093 -0.8213  0.0044 -0.4755
 2884lim     li15304   2.577   2.633   3.360 -0.3944  0.5641 -0.3573
 2885lim     li15305   5.661   3.653   1.607  0.4421 -0.0052 -0.3819
 2886lim     li15306   6.736   5.630   5.469  0.9431 -0.1071  0.0282
 2887lim     li15307   3.076   0.755   0.396  0.3923  0.7619 -0.0823
 2888lim     li15308   1.975   4.447   6.240 -0.5932  0.3549 -0.5953
 2889lim     li15309   1.489   6.401   4.149  0.3159 -1.6257 -0.7018
 2890lim     li15310   3.209   0.293   1.936 -0.6148 -0.1787 -1.2821
 2891lim     li15311   6.639   7.087   2.646  0.2083  0.0628  0.2156
 2892lim     li15312   4.840   1.455   4.836 -0.1367  0.2155  0.9155
 2893lim     li15313   2.899   4.019   6.688 -0.1949  0.1924 -0.3608
 2894lim     li15314   7.117   0.395   4.770  0.4533  0.6723  0.2374
 2895lim     li15315   5.135   6.119   6.214 -0.2085 -0.4361  0.5066
 2896lim     li15316   3.450   3.665   4.582 -1.6293 -1.0625  0.7313
 2897lim     li15317   6.107   5.281   3.149  0.7376 -0.1730 -0.6755
 2898lim     li15318   0.535   2.504   2.610 -0.1976  0.8133  0.3269
 2899lim     li15319   6.958   3.234   0.247 -1.0680  0.6708 -0.0799
 2900lim     li15320   5.335   4.055   1.677 -1.2220 -0.5855  0.4344
 2901lim     li15321   2.088   5.060   0.997 -0.6370  0.6974 -0.5436
 2902lim     li15322   0.707   4.819   6.411 -0.3735 -0.1379 -0.3936
 2903lim     li15323   0.083   1.383   3.796  1.0336 -1.0764  0.4483
 2904lim     li15324   2.442   3.319   4.219 -0.0584 -1.0350 -0.4232
 2905lim     li15325   3.602   3.578   3.411  0.5850  0.7351 -0.3103
 2906lim     li15326   1.084   4.545   4.629  0.4248 -1.3460 -0.7593
 2907lim     li15327   4.092   0.836   4.041  0.5247  0.1740  0.2591
 2908lim     li15328   2.293   6.648   2.394 -0.7162 -0.3063  0.1476
 2909lim     li15329   3.536   5.982   6.053  0.4542 -0.3118 -0.6862
 2910lim     li15330   5.504   4.088   5.348  0.4690  0.3329 -0.6991
 2911lim     li15331   5.501   6.496   2.025  0.0256  0.0627  0.1187
 2912lim     li15332   0.539   6.794   5.139  0.6366 -0.3711  1.1560
 2913lim     li15333   1.864   5.581   0.194  0.5866 -0.4014 -0.4681
 2914lim     li15334   2.237   5.661   6.050 -0.3129 -0.9593  0.3404
 2915lim     li15335   4.114   5.591   6.705  0.3623  1.1380  0.7523
 2916lim     li15336   6.543   2.243   4.617  0.1227  0.0310  0.4858
 2917lim     li15337   5.691   1.171   4.767 -0.7909  1.0589 -0.5079
 2918lim     li15338   6.142   4.107   4.258 -0.1971  1.1694 -0.9790
 2919lim     li15339   2.592   4.861   4.666 -0.5148 -0.2883  0.2990
 2920lim     li15340   3.408   6.216   4.675 -0.3950 -0.6302  0.1275
 2921lim     li15341   4.127   0.917   0.194 -0.2950  1.2310 -0.3606
 2922lim     li15342   5.970   5.054   4.644 -0.1957 -0.5552  0.4871
 2923lim     li15343   1.822   1.653   0.311  0.1639 -1.0174 -0.2711
 2924lim     li15344   3.516   0.810   1.117 -0.3125  1.1596 -1.2479
 2925lim     li15345   0.568   0.170   5.330  0.0216  0.1897  0.3908
 2926lim     li15346   7.100   2.463   6.434  0.6671  0.3589 -1.3669
 2927lim     li15347   3.109   0.036   6.652 -0.4042 -0.5421  0.1788
 2928lim     li15348   1.203   2.749   3.062 -0.2014 -0.7992  0.3448
 2929lim     li15349   4.038   5.084   4.636  0.0524 -0.9189  0.6967
 2930lim     li15350   2.597   4.002   4.352 -0.0180  0.2833  0.5452
 2931lim     li15351   3.537   1.493   0.545 -0.0441  0.0961  0.0021
 2932lim     li15352   3.157   6.440   2.159  0.2504  0.0654  0.0563
 2933lim     li15353   2.859   4.835   4.121  0.1889  0.9608 -0.4406
 2934lim     li15354   5.483   6.964   4.087 -0.9182  0.2308  0.0412
 2935lim     li15355   0.253   0.636   3.424  0.0757 -0.8764 -0.8364
 2936lim     li15356   3.922   4.296   0.092  1.1131 -0.2651 -0.0632
 2937lim     li15357   4.942   0.496   0.805 -0.2699  0.6919  0.6543
 2938lim     li15358   1.433   0.510   4.729 -0.6510 -0.2179  0.0642
 2939lim     li15359   5.886   0.138   2.314 -0.2531 -0.4466 -0.2657
 2940lim     li15360   3.173   7.018   1.306  0.0088 -1.0762 -1.3507
 2941lim     li15361   0.746   2.613   2.051  0.4512  0.2868 -0.0197
 2942lim     li15362   1.558   6.546   2.934  1.0112 -0.6782  1.0563
 2943lim     li15363   3.610   4.560   3.715 -0.0146  0.5514 -0.1387
 2944lim     li15364   1.583   0.248   3.365 -0.8516  0.8345 -0.7650
 2945lim     li15365   0.485   6.859   4.460  0.5979 -0.6914  0.2615
 2946lim     li15366   3.689   0.023   0.331  0.5818 -0.5745  0.0731
 2947lim     li15367   5.889   5.226   5.288 -0.1042 -0.4524  0.5095
 2948lim     li15368   4.864   6.947   2.236 -0.6523  0.2024 -0.0767
 2949lim     li15369   5.543   1.792   6.009  0.4336  1.0094  0.6386
 2950lim     li15370   3.247   5.022   1.096 -0.3777  1.0071 -0.3695
 2951lim     li15371   2.197   5.811   0.492  0.4812  0.2636  1.0038
 2952lim     li15372   4.849   5.261   5.282 -0.2975  0.2181  0.2057
 2953lim     li15373   2.974   1.669   3.468 -0.2169 -0.8337  0.8220
 2954lim     li15374   4.281   3.187   4.216  0.7037 -0.2783  0.3629
 2955lim     li15375   4.141   1.834   6.229 -0.1794  0.8798 -0.7514
 2956lim     li15376   1.473   1.392   5.265  0.2405 -0.1389 -0.0040
 2957lim     li15377   4.640   5.037   1.483 -0.3089 -0.0766  0.0355
 2958lim     li15378   6.422   1.735   4.962  0.0760  0.2312  0.2055
 2959lim     li15379   6.565   5.848   3.693  1.3585  0.9238  0.2400
 2960lim     li15380   4.548   6.325   5.672  0.4237 -0.0832 -0.0356
 2961lim     li15381   5.920   0.326   3.619 -0.1387 -0.7832  0.0836
 2962lim     li15382   2.364   6.062   3.821 -0.7280 -0.8586 -0.3112
 2963lim     li15383   0.820   2.155   6.917 -1.6869 -0.3782 -0.0187
 2964lim     li15384   2.014   1.584   1.948  0.0129 -0.3076 -0.3071
 2965lim     li15385   4.034   0.818   6.499 -0.5252 -0.9099 -0.0361
 2966lim     li15386   2.097   4.561   5.229  0.3468  0.4809 -0.4804
 2967lim     li15387   5.872   1.964   7.047 -0.5247  1.0933 -0.7794
 2968lim     li15388   1.751   2.888   1.769 -0.6162 -0.1751  0.8987
 2969lim     li15389   0.062   2.853   1.339 -0.2466 -0.4416  0.1704
 2970lim     li15390   1.239   0.274   6.181  0.6576  0.2149 -0.5950
 2971lim     li15391   6.327   0.936   4.428  0.6290  0.6941  0.3322
 2972lim     li15392   3.101   0.728   2.735 -0.3876 -0.2979 -1.3562
 2973lim     li15393   6.286   6.695   4.772 -0.3788  0.5424  0.5538
 2974lim     li15394   3.104   4.224   5.600  0.0798  0.3423 -0.1235
 2975lim     li15395   2.098   0.620   1.911  0.7538  0.2446  1.1028
 2976lim     li15396   0.435   3.849   5.684 -0.1973 -1.7884  0.0374
 2977lim     li15397   2.546   2.135   7.110 -1.1351 -0.2801  0.1639
 2978lim     li15398   2.790   6.196   3.180  0.7948  0.6879  0.3279
 2979lim     li15399   3.569   1.188   5.864 -0.0402 -0.7773 -0.2026
 2980lim     li15400   6.131   3.654   0.550 -0.7992 -0.5255  1.8098
 2981lim     li15401   1.544   4.791   7.078  0.9624 -0.4967 -0.1737
 2982lim     li15402   6.888   1.502   6.144  1.0997  0.5715  0.8701
 2983lim     li15403   0.404   1.288   5.375  0.7848 -0.0186 -0.4608
 2984lim     li15404   5.865   0.802   0.989  0.1085  0.2169  0.0356
 2985lim     li15405   1.288   5.223   3.827  0.6991 -0.2367  0.4679
 2986lim     li15406   6.356   3.967   1.644 -0.1547 -0.6626  0.6640
 2987lim     li15407   6.467   0.672   3.091 -1.2195 -0.3467 -0.3034
 2988lim     li15408   2.488   6.898   0.741  0.3088  0.5580 -0.2608
 2989lim     li15409   3.964   1.482   3.532  1.1489  0.4936  1.2300
 2990lim     li15410   0.869   0.602   2.332 -0.9736  0.1979 -0.7260
 2991lim     li15411   1.219   1.123   1.524 -1.0370  1.4684 -0.4404
 2992lim     li15412   0.076   5.877   7.006 -0.7005 -0.4753  0.0751
 2993lim     li15413   0.228   4.459   0.725  0.7706 -0.5083  0.6034
 2994lim     li15414   7.008   3.117   5.139 -0.9870  1.0770 -0.2553
 2995lim     li15415   1.946   7.020   5.923  0.0309 -0.1614 -0.4050
 2996lim     li15416   0.644   3.255   0.663 -0.0182 -0.5697 -0.7718
 2997lim     li15417   4.880   0.557   4.174 -0.4694  1.6948 -0.4100
 2998lim     li15418   4.584   3.938   2.763 -0.0025 -0.4703 -0.2593
 2999lim     li15419   0.161   4.709   2.051  0.9525  0.3078 -0.5107
 3000lim     li15420   3.077   1.182   1.603 -0.9532  0.3317 -0.3741
 3001lim     li15421   7.019   0.458   1.581  0.9368 -0.5085 -1.7583
 3002lim     li15422   2.071   3.159   5.230  0.1068 -0.5200  0.1073
 3003lim     li15423   4.302   3.776   6.934 -0.0259 -0.8114 -0.0876
 3004lim     li15424   3.536   2.994   5.982  0.1305  1.3486  1.1506
 3005lim     li15425   6.926   1.586   4.503 -0.9905 -0.1574  0.9894
 3006lim     li15426   0.509   0.966   4.717 -0.3197 -0.0272  0.4172
 3007lim     li15427   5.646   6.517   0.976 -0.1587 -0.8188  0.3995
 3008lim     li15428   6.054   6.261   5.745 -0.0780 -0.9242  0.4687
 3009lim     li15429   4.696   1.773   2.103 -0.4563  0.2401  0.4273
 3010lim     li15430   2.878   1.667   0.960 -0.6423  0.4667  1.4737
 3011lim     li15431   4.011   4.785   5.698 -1.6061 -0.3457  1.2093
 3012lim     li15432   4.132   0.829   2.075  0.2120  0.0581  0.6110
 3013lim     li15433   2.395   1.642   1.415  0.7224 -0.2072 -0.0156
 3014lim     li15434   6.149   0.077   5.059 -0.3339  0.2309  0.0830
 3015lim     li15435   5.473   5.686   5.840  0.4075 -0.0726 -0.1199
 3016lim     li15436   0.254   0.900   0.075  0.2168 -0.8180  0.3066
 3017lim     li15437   1.430   2.426   4.870  0.5570  0.2787  0.6855
 3018lim     li15438   2.401   6.233   1.009 -0.8441  0.2230 -0.3252
 3019lim     li15439   2.179   4.906   3.427  0.4050  0.0973  1.0261
 3020lim     li15440   2.580   1.425   5.528  0.6897 -0.4266  0.4251
 3021lim     li15441   4.168   1.269   2.496 -0.3324 -0.1949 -0.9270
 3022lim     li15442   5.125   5.398   3.405 -0.4740  0.0654 -0.4708
 3023lim     li15443   2.515   5.361   6.767  0.7782  0.7959 -0.6235
 3024lim     li15444   3.202   0.261   5.569 -0.3504 -0.4272  0.4673
 3025lim     li15445   0.493   3.709   2.392  0.1940  0.5375 -0.2759
 3026lim     li15446   0.101   4.507   5.920  0.3713  2.0702 -1.0842
 3027lim     li15447   4.671   3.619   4.383 -1.0501  0.2542  0.5040
 3028lim     li15448   4.197   2.163   6.618  0.5159 -0.0701  0.0685
 3029lim     li15449   6.937   5.872   4.569 -0.2415 -0.5877 -0.3140
 3030lim     li15450   7.049   2.744   4.346 -0.2776  0.3608 -0.1101
 3031lim     li15451   0.929   1.578   1.454  0.2855 -0.1986 -1.0909
 3032lim     li15452   6.940   5.950   1.810 -0.1239  0.3096  0.1102
 3033lim     li15453   4.780   6.981   5.854  0.3958  0.0533 -0.4115
 3034lim     li15454   2.517   3.376   0.229 -0.0284  0.4493  1.0898
 3035lim     li15455   3.703   6.841   3.754  0.7440 -0.7861  1.1816
 3036lim     li15456   6.755   4.265   3.861  0.2582 -0.4416 -0.1359
 3037lim     li15457   6.516   1.010   2.016  0.5392 -0.3782 -0.2781
 3038lim     li15458   2.867   2.229   3.876  0.3027  1.6980 -0.8040
 3039lim     li15459   2.315   1.571   4.428 -0.3704  0.0008 -0.6795
 3040lim     li15460   4.348   5.540   2.687  0.3472 -0.1899  0.3776
 3041lim     li15461   1.951   6.576   4.674 -0.9885 -0.7211 -0.0999
 3042lim     li15462   6.428   1.444   2.824  0.2688 -0.3154  1.0912
 3043lim     li15463   6.705   4.077   6.856  0.1926 -0.7814  0.0309
 3044lim     li15464   3.865   2.682   4.528 -0.0917  0.4731 -0.8239
 3045lim     li15465   3.426   1.852   4.420  1.0517  0.3047 -0.3644
 3046lim     li15466   1.484   2.732   6.799 -1.1646  1.0766  1.3113
 3047lim     li15467   0.360   2.299   5.030  0.0532  0.5267 -0.2324
 3048lim     li15468   6.482   6.845   5.676 -0.6692  0.0550 -0.1010
 3049lim     li15469   4.963   6.146   0.650 -0.2483  0.8516  0.9938
 3050lim     li15470   3.805   3.014   5.194  1.0673  0.3855 -0.8698
 3051lim     li15471   2.156   6.489   6.966  1.5558 -0.6661 -0.1041
 3052lim     li15472   3.181   5.314   1.894  0.1561 -0.2767  1.6038
 3053lim     li15473   0.259   0.919   2.459 -0.3410  0.3143  1.3169
 3054lim     li15474   4.576   3.759   4.974  0.3384  1.1115 -0.5393
 3055lim     li15475   6.675   5.627   1.476  0.6836 -0.3555  0.9793
 3056lim     li15476   1.093   4.942   5.760  0.2500 -0.4573  0.2209
 3057lim     li15477   5.068   3.225   6.219 -0.9478  0.5174  0.2842
 3058lim     li15478   5.900   6.465   6.956  0.1576  0.1684  0.6527
 3059lim     li15479   4.694   6.246   3.165  0.1452 -0.6397  0.0806
 3060lim     li15480   1.940   2.046   3.768 -0.2210 -0.4772 -1.1062
 3061lim     li15481   0.253   5.637   0.528 -0.2850 -0.1338  0.1565
 3062lim     li15482   1.161   0.873   4.032 -0.5587  0.1912 -0.2088
 3063lim     li15483   3.941   6.258   2.724 -0.9889 -0.5570  0.4087
 3064lim     li15484   5.666   3.622   4.170 -0.7382  0.1115  0.4260
 3065lim     li15485   0.334   4.580   3.563  0.1874 -0.0228  0.6986
 3066lim     li15486   7.057   5.077   1.056 -0.1867 -1.1345  0.2943
 3067lim     li15487   3.159   5.588   5.315 -0.1565  0.1920 -0.6590
 3068lim     li15488   5.519   4.741   5.824 -0.3413 -0.8195 -0.0942
 3069lim     li15489   0.992   6.186   5.742 -0.0722  0.5827  0.8526
 3070lim     li15490   6.735   5.228   2.699  0.2262 -0.2316 -0.1485
 3071lim     li15491   2.676   1.035   0.605 -0.4764 -0.8559  1.4016
 3072lim     li15492   5.476   1.381   3.118 -0.4063  0.0163  0.3811
 3073lim     li15493   6.801   3.546   3.342 -0.2254  0.0267  0.9380
 3074lim     li15494   0.779   5.093   4.082 -0.7195 -0.6912 -0.4947
 3075lim     li15495   3.310   3.044   0.277  0.0272 -0.5583 -0.2620
 3076lim     li15496   3.338   0.838   6.380  0.1681 -0.3951  1.1874
 3077lim     li15497   0.921   0.511   3.672  0.4924 -0.6082  0.5299
 3078lim     li15498   6.781   5.175   4.774  0.6837 -0.0279  1.3848
 3079lim     li15499   1.624   5.348   5.886  0.4050  0.3627 -0.2933
 3080lim     li15500   6.945   0.651   0.833 -0.3828 -0.3559 -0.9174
 3081lim     li15501   4.697   3.384   0.013  1.2710 -0.7908  0.3130
 3082lim     li15502   3.425   5.844   3.041  0.6722 -1.3143 -0.1115
 3083lim     li15503   4.199   0.386   3.555  1.0298 -0.4116  0.5377
 3084lim     li15504   2.286   2.015   4.806 -0.1939 -0.0117 -0.3379
 3085lim     li15505   2.056   0.471   5.297 -0.8529 -0.2991 -0.3419
 3086lim     li15506   0.528   6.502   2.639  0.3994 -0.0986  0.9955
 3087lim     li15507   6.232   5.697   2.431 -0.0199 -0.6156 -0.1166
 3088lim     li15508   2.590   1.938   6.467 -1.0379 -0.3668  0.1966
 3089lim     li15509   2.227   0.221   1.380  0.3774  0.9822  0.2946
 3090lim     li15510   4.340   2.230   3.280 -0.0636 -0.6178  0.7095
 3091lim     li15511   5.007   6.853   0.163  0.4182  0.0084  0.6335
 3092lim     li15512   5.559   6.934   1.516  0.0605  0.3707 -0.2751
 3093lim     li15513   1.242   6.101   6.428 -0.3759 -0.0126  0.6421
 3094lim     li15514   1.158   1.555   3.069 -0.8736  0.6304 -0.8321
 3095lim     li15515   2.002   5.536   4.591 -0.5252 -0.6842 -0.1474
 3096lim     li15516   0.140   1.720   0.597  0.3936  0.4161  1.1418
 3097lim     li15517   6.927   1.870   2.785 -0.9301  0.5534  0.0431
 3098lim     li15518   4.359   0.012   6.256 -0.1999  1.2758 -0.2906
 3099lim     li15519   0.605   6.664   0.103 -0.0319  0.3661  1.2302
 3100lim     li15520   5.066   2.421   6.619 -1.7566 -0.1352 -0.4520
 3101lim     li15521   6.886   0.137   3.987  0.5469 -0.3932 -0.6153
 3102lim     li15522   1.593   0.092   3.882  0.6586 -0.4757 -0.2410
 3103lim     li15523   6.155   2.741   0.195  0.5797 -0.8875 -0.6197
 3104lim     li15524   3.903   1.987   4.023 -0.0695  0.1016 -0.9016
 3105lim     li15525   6.018   1.796   3.826 -0.7108  0.6408 -0.9263
 3106lim     li15526   6.811   0.842   5.255  0.6841 -0.6875  0.1465
 3107lim     li15527   2.876   2.745   5.656 -1.0294 -1.0442  0.0764
 3108lim     li15528   4.888   4.570   2.971  0.1374  0.5780  0.2538
 3109lim     li15529   0.552   3.664   1.179  0.1264 -1.2867 -0.8710
 3110lim     li15530   6.569   4.690   7.047 -0.4328  0.6706  0.8127
 3111lim     li15531   5.575   5.455   2.274 -0.2648 -0.3393  0.3055
 3112lim     li15532   0.826   4.590   0.976  0.3789 -0.4215 -0.0766
 3113lim     li15533   5.523   0.306   4.865 -0.0308  0.3051 -0.1416
 3114lim     li15534   1.141   6.986   5.392 -1.0591 -0.1450 -0.6063
 3115lim     li15535   7.054   0.401   2.403  0.2407  0.2084  0.6432
 3116lim     li15536   0.172   4.021   0.406 -0.5302  1.4479 -0.3997
 3117lim     li15537   0.821   3.919   3.908 -0.2182  0.0401  0.5377
 3118lim     li15538   2.550   2.017   2.444 -1.0081 -0.0580  0.0429
 3119lim     li15539   5.284   5.772   4.167 -0.5150 -0.2247 -0.2279
 3120lim     li15540   4.787   1.655   1.258 -1.5277 -0.5919  1.0313
 3121lim     li15541   1.041   3.054   4.885  0.3642 -0.6254 -0.1104
 3122lim     li15542   3.987   6.559   4.531  0.1845  1.3284  0.8963
 3123lim     li15543   5.086   4.070   4.662  0.4502  0.9826 -0.5813
 3124lim     li15544   1.917   1.029   5.040  0.5531 -0.1691  1.2998
 3125lim     li15545   0.842   1.400   6.396  0.2525  0.0849  0.7761
 3126lim     li15546   5.609   1.591   0.963  0.3489  1.1421 -0.2586
 3127lim     li15547   6.421   2.093   0.957  0.1029 -0.9270 -0.3291
 3128lim     li15548   2.879   3.702   5.753 -0.8522  0.5141 -1.1807
 3129lim     li15549   0.280   4.475   2.618 -0.6890 -0.4485  0.6334
 3130lim     li15550   2.197   3.894   5.028  0.1674 -0.2377 -0.7385
 3131lim     li15551   0.034   3.713   1.764  0.2819  1.5545 -0.0349
 3132lim     li15552   6.256   5.500   0.706  0.4472  0.3787  1.0846
 3133lim     li15553   6.328   3.090   2.487  0.6704 -0.6272  0.2408
 3134lim     li15554   3.056   6.108   5.710  0.6582  0.1506  0.0086
 3135lim     li15555   2.335   0.601   4.026  0.3825  0.8330  0.4464
 3136lim     li15556   3.511   2.373   1.497 -0.3056  0.1186  0.2273
 3137lim     li15557   6.065   3.784   6.236  0.1698  0.3509 -0.0691
 3138lim     li15558   0.701   0.369   0.310  0.1882  0.7844  0.6448
 3139lim     li15559   4.303   6.407   0.747  0.1652 -0.0429 -0.6838
 3140lim     li15560   4.606   4.459   5.098  1.6960 -0.3508 -0.1234
 3141lim     li15561   3.816   3.513   1.819  0.5938 -0.5807 -0.3126
 3142lim     li15562   4.288   2.805   1.595 -0.6428  0.2906 -0.0031
 3143lim     li15563   3.527   4.468   6.618  0.4245  0.0165  0.5527
 3144lim     li15564   1.167   1.347   5.817  0.2287 -0.4914  1.2147
 3145lim     li15565   3.381   0.637   3.854  0.0942  1.0893  0.0735
 3146lim     li15566   1.492   2.133   2.449 -0.5384 -0.3099 -0.7202
 3147lim     li15567   5.463   1.974   3.079  0.6046  0.1218 -1.5598
 3148lim     li15568   1.956   6.735   1.877  1.4389 -0.4961 -0.1330
 3149lim     li15569   2.600   5.436   1.364  0.5573  0.3929  0.0709
 3150lim     li15570   4.181   3.574   0.831 -0.2379  0.4995 -0.1561
 3151lim     li15571   5.927   6.092   4.661  0.2545  1.2106  0.3624
 3152lim     li15572   5.234   0.062   3.342 -1.0893  0.6015 -0.0859
 3153lim     li15573   1.004   4.422   1.621 -1.0371  0.3401 -0.0335
 3154lim     li15574   6.744   2.295   3.521  1.0606 -0.2233 -0.5192
 3155lim     li15575   0.884   6.214   3.668  0.0037 -0.5823 -0.7066
 3156lim     li15576   4.365   5.616   5.466 -0.0444  0.1821  0.6155
 3157lim     li15577   1.095   5.329   1.059 -0.4150 -0.8669 -0.2046
 3158lim     li15578   3.754   6.143   0.952 -1.4724  0.4996 -0.0400
 3159lim     li15579   3.839   2.928   3.804 -0.1465  0.2276  0.2667
 3160lim     li15580   4.663   1.504   0.167  1.4601 -0.7319 -0.8160
 3161lim     li15581   1.544   4.222   1.292  0.5878  0.9820 -0.8726
 3162lim     li15582   5.876   1.228   1.966  0.6483  0.1942 -0.0339
 3163lim     li15583   0.600   1.905   2.342  0.1566  0.4902 -0.4966
 3164lim     li15584   5.624   3.080   3.329 -0.0649  0.0823  0.5417
 3165lim     li15585   1.380   3.782   6.283 -0.3895  1.5130 -0.3126
 3166lim     li15586   0.777   3.264   6.769 -0.6220  1.1382 -1.0305
 3167lim     li15587   6.619   7.036   3.245 -0.0558 -0.3220  0.9607
 3168lim     li15588   3.081   2.300   0.915 -1.2601 -0.7377  0.1761
 3169lim     li15589   0.638   5.986   0.602  0.4755  0.8771 -0.3446
 3170lim     li15590   6.616   1.117   0.712  0.6714 -0.8596 -0.2006
 3171lim     li15591   6.185   0.070   1.618  0.7451 -0.2425 -0.1233
 3172lim     li15592   2.410   6.820   5.834  0.8836 -0.6156 -0.7709
 3173lim     li15593   3.342   5.682   0.093 -0.0324  0.5540  0.4111
 3174lim     li15594   1.607   1.374   6.204  0.0293  1.2727  0.7586
 3175lim     li15595   4.393   0.875   5.596 -0.4787 -0.0371 -0.6010
 3176lim     li15596   2.477   1.289   3.108  0.1825  0.1652 -0.3001
 3177lim     li15597   2.395   5.343   5.323  0.6477  0.6533 -0.0330
 3178lim     li15598   6.178   2.516   1.733  1.1296 -0.4636 -0.8362
 3179lim     li15599   2.918   0.445   4.941 -0.2427  0.6148 -0.8845
 3180lim     li15600   4.710   1.265   3.636  0.1196 -0.6622 -0.3822
 3181lim     li15601   6.451   7.022   7.074 -0.7947  0.2674 -0.8394
 3182lim     li15602   2.760   6.398   4.966 -0.5130  0.5887  0.0679
 3183lim     li15603   6.486   5.559   6.447  0.2137  0.4372 -0.4139
 3184lim     li15604   7.045   0.704   5.896  0.1938  0.7763  0.3261
 3185lim     li15605   4.496   2.264   5.682 -1.2335  0.2449  0.4944
 3186lim     li15606   0.904   1.985   4.888  0.6967 -0.8133  0.5425
 3187lim     li15607   5.975   2.849   4.989  0.1075  0.8353 -0.9326
 3188lim     li15608   5.126   6.741   2.699  0.2506  0.0221 -1.4471
 3189lim     li15609   6.825   4.392   5.558 -0.1874 -0.7820  0.0272
 3190lim     li15610   2.201   0.505   0.603  0.9406  0.1959 -1.0213
 3191lim     li15611   2.693   3.766   3.685 -0.3777 -0.2085 -0.2907
 3192lim     li15612   5.401   3.482   0.843  0.2044  0.1262 -0.1693
 3193lim     li15613   6.866   2.343   7.048 -1.1452  0.4201  0.5659
 3194lim     li15614   5.139   2.225   3.873 -0.6084 -0.4399 -0.3548
 3195lim     li15615   3.186   5.437   4.266  0.6491  0.6790  0.2400
 3196lim     li15616   5.679   5.944   0.948  0.1729 -0.2479 -0.5321
 3197lim     li15617   2.745   3.910   0.564  0.1510  0.0145  0.9212
 3198lim     li15618   6.520   4.626   1.195  0.1198  0.3968  0.2757
 3199lim     li15619   6.990   6.651   2.091 -0.4184  0.4723  0.3048
 3200lim     li15620   2.720   6.887   2.907  0.5360  0.2687 -1.0300
 3201lim     li15621   0.111   2.986   2.247 -0.8801  0.5623  0.1777
 3202lim     li15622   3.105   5.266   2.511 -0.1253 -0.4093 -0.0654
 3203lim     li15623   1.870   3.685   7.116 -0.9746 -0.1879 -0.2391
 3204lim     li15624   0.158   6.445   4.704 -0.8591 -0.6013  1.0791
 3205lim     li15625   0.113   6.499   1.263 -0.0396 -0.2754  1.1904
 3206lim     li15626   5.779   5.011   1.720  0.3530 -0.2926 -0.2965
 3207lim     li15627   2.520   4.411   6.394  0.0148 -0.0090 -0.6005
 3208lim     li15628   6.729   0.456   6.657 -0.6951 -0.3190 -0.1397
 3209lim     li15629   4.733   4.824   0.248 -0.6108 -0.0541  0.1349
 3210lim     li15630   0.455   5.003   5.187  0.5722 -0.9188 -0.0655
 3211lim     li15631   5.648   2.376   2.644 -0.5786  1.1875  0.2805
 3212lim     li15632   1.306   4.968   2.982  0.5417  0.8980 -0.4543
 3213lim     li15633   6.690   3.957   2.620  0.3940 -0.8666 -0.0284
 3214lim     li15634   0.163   6.716   6.484 -0.4037  0.0139 -1.2833
 3215lim     li15635   0.606   3.566   4.712  0.1869  0.6534  0.1552
 3216lim     li15636   5.982   5.143   0.080  0.2437 -0.0696  0.7553
 3217lim     li15637   2.449   6.991   4.475  0.6245 -0.1408  0.2109
 3218lim     li15638   1.252   3.341   2.037 -0.2961 -1.0704  0.8211
 3219lim     li15639   5.160   0.227   5.881  0.2611  1.3324 -0.1084
 3220lim     li15640   0.621   1.280   2.187  1.7059 -0.0054 -0.3712
 3221lim     li15641   5.477   0.492   6.488  0.9773 -0.1937 -1.2581
 3222lim     li15642   1.529   3.712   2.880  0.1183 -0.1500 -0.4755
 3223lim     li15643   6.794   6.399   0.595 -0.2436  0.2729 -1.1735
 3224lim     li15644   4.289   4.192   3.594 -0.7249 -0.1612 -1.1371
 3225lim     li15645   2.168   0.017   7.001  1.0980 -0.1066 -0.3707
 3226lim     li15646   5.948   4.798   3.186  0.7237  0.3842  1.0687
 3227lim     li15647   1.158   3.088   3.730 -0.8211  0.2122  0.2711
 3228lim     li15648   0.084   1.102   6.619  0.4249  0.3260 -0.1230
 3229lim     li15649   4.991   7.113   1.010  0.1599  0.6874 -1.0592
 3230lim     li15650   3.064   1.828   5.272  0.0437 -0.3008  1.4502
 3231lim     li15651   1.679   5.805   2.132  0.3815 -0.3552 -0.3327
 3232lim     li15652   2.218   3.255   2.136  0.9670 -0.6429  0.6044
 3233lim     li15653   4.546   6.133   6.820  1.1960 -0.8929 -0.4357
 3234lim     li15654   0.360   6.098   5.558  0.3425  0.3683  0.6001
 3235lim     li15655   2.331   2.818   2.709  0.3684  0.4345  0.6965
 3236lim     li15656   5.429   4.103   0.124  0.9110  0.6180 -0.3354
 3237lim     li15657   5.530   4.718   0.711 -0.1794 -0.7406  1.1156
 3238lim     li15658   4.937   4.341   6.680  0.4788 -0.7565  0.7841
 3239lim     li15659   4.349   0.381   6.890 -0.3018 -0.1540  0.2082
 3240lim     li15660   3.920   6.685   5.142 -0.3558 -0.2685 -1.0742
 3241ntf    cn115661   1.004   2.289   5.477 -0.2982 -0.1784 -0.1316
 3241ntf    sn215662   0.900   2.305   5.328  0.0130  0.1270 -0.3179
 3241ntf    nn315663   0.915   2.454   5.281 -0.0837  0.0884 -0.4696
 3241ntf    sn215664   0.806   2.548   5.219 -0.3100  0.0250 -0.1730
 3241ntf    cn115665   0.774   2.637   5.374  0.1772 -0.1292  0.0176
 3241ntf    fn415666   0.987   2.385   5.566  0.1315  0.1366 -0.3853
 3241ntf    fn415667   0.992   2.175   5.543  0.8423 -0.4016 -0.2901
 3241ntf    fn415668   1.130   2.304   5.440 -0.2280 -0.3974  0.0207
 3241ntf    on515669   0.968   2.216   5.238  0.0403 -0.0049 -0.1683
 3241ntf    on515670   0.768   2.271   5.376  0.1561 -0.1300 -0.1020
 3241ntf    on515671   0.681   2.495   5.170 -0.1891 -0.4584  0.0481
 3241ntf    on515672   0.881   2.639   5.136  0.0758 -0.3424 -0.2299
 3241ntf    fn415673   0.880   2.705   5.415 -0.2209  0.4054  0.1739
 3241ntf    fn415674   0.669   2.717   5.368  0.1430 -0.2100 -0.4940
 3241ntf    fn415675   0.744   2.547   5.466  0.1857 -0.0857  0.0632
 3242ntf    cn115676   5.237   3.711   0.533 -0.2251 -0.5101  0.3818
 3242ntf    sn215677   5.271   3.660   0.362 -0.3500 -0.0294  0.2117
 3242ntf    nn315678   5.185   3.765   0.283 -0.1250  0.2739  0.3698
 3242ntf    sn215679   5.029   3.757   0.270 -0.1039  0.4349  0.0034
 3242ntf    cn115680   5.028   3.688   0.102 -0.1867  0.3255  0.0490
 3242ntf    fn415681   5.113   3.688   0.571 -0.2738 -0.3130  0.3429
 3242ntf    fn415682   5.297   3.630   0.619  0.4244 -0.2237  0.2090
 3242ntf    fn415683   5.272   3.835   0.563 -0.2966 -0.4146  0.0761
 3242ntf    on515684   5.411   3.695   0.351 -0.3355 -0.3499 -0.7740
 3242ntf    on515685   5.242   3.519   0.359 -0.0829 -0.0823  0.0048
 3242ntf    on515686   4.963   3.885   0.261 -0.3342  0.3474  0.4096
 3242ntf    on515687   4.965   3.653   0.346 -0.5184  0.0231 -0.9012
 3242ntf    fn415688   5.079   3.566   0.098  0.1128  0.4493  0.0361
 3242ntf    fn415689   4.904   3.687   0.057 -0.3956  0.1640  0.6195
 3242ntf    fn415690   5.101   3.763   0.021  0.2057 -0.2050 -0.0970
 3243ntf    cn115691   1.435   2.010   6.727 -0.1660  0.2937 -0.0976
 3243ntf    sn215692   1.287   1.910   6.693 -0.0452  0.1305 -0.1477
 3243ntf    nn315693   1.345   1.814   6.583  0.1122  0.1102 -0.0474
 3243ntf    sn215694   1.260   1.746   6.470  0.1996 -0.1586  0.0483
 3243ntf    cn115695   1.265   1.876   6.344 -0.0491 -0.1542  0.0418
 3243ntf    fn415696   1.472   2.098   6.636  0.0315  0.2902 -0.0205
 3243ntf    fn415697   1.413   2.087   6.833  0.1716 -0.0563  0.2325
 3243ntf    fn415698   1.541   1.936   6.756 -0.5643 -0.1211  0.3306
 3243ntf    on515699   1.258   1.834   6.812 -0.4132  0.0513 -0.2878
 3243ntf    on515700   1.188   2.000   6.639 -0.6768 -0.3245  0.2336
 3243ntf    on515701   1.117   1.727   6.485  0.2381 -0.0015  0.6362
 3243ntf    on515702   1.332   1.648   6.394  0.2340 -0.1875  0.1186
 3243ntf    fn415703   1.385   1.894   6.291 -0.2121  0.1353 -0.2326
 3243ntf    fn415704   1.178   1.843   6.250 -0.4542  0.4356  0.2020
 3243ntf    fn415705   1.215   1.993   6.381 -0.2332 -0.2321  0.0364
 3244ntf    cn115706   1.993   2.213   6.916  0.0369  0.2150 -0.2804
 3244ntf    sn215707   2.115   2.348   6.910  0.2956 -0.0052 -0.0342
 3244ntf    nn315708   2.062   2.437   7.029 -0.1838 -0.2396 -0.0707
 3244ntf    sn215709   2.134   2.525   7.137 -0.0371 -0.4757  0.0266
 3244ntf    cn115710   2.034   2.488   7.284  0.1260  0.3133  0.3444
 3244ntf    fn415711   2.013   2.133   6.813  0.6331 -0.0912  0.0663
 3244ntf    fn415712   2.002   2.144   7.028  0.0670  0.4814 -0.1166
 3244ntf    fn415713   1.869   2.259   6.910 -0.1026 -0.1727 -0.3829
 3244ntf    on515714   2.229   2.264   6.937  0.3397 -0.1146 -0.5530
 3244ntf    on515715   2.101   2.404   6.777 -0.1266  0.6859  0.2925
 3244ntf    on515716   2.099   2.665   7.124 -0.2470 -0.5090  0.2297
 3244ntf    on515717   2.269   2.487   7.170 -0.3503 -0.9496  0.7730
 3244ntf    fn415718   2.053   2.577   7.379  0.1633  0.4483  0.2108
 3244ntf    fn415719   1.903   2.478   7.265  0.2481 -0.4256 -0.1852
 3244ntf    fn415720   2.070   2.379   7.349 -0.6829 -0.1030  0.1172
 3245ntf    cn115721   5.930   5.578   6.022  0.0342 -0.0706 -0.3236
 3245ntf    sn215722   5.953   5.470   6.167 -0.0452 -0.1612 -0.3783
 3245ntf    nn315723   5.843   5.359   6.154  0.1251 -0.3527 -0.1974
 3245ntf    sn215724   5.701   5.348   6.220  0.2876 -0.3258  0.1598
 3245ntf    cn115725   5.645   5.191   6.147  0.4356 -0.2279 -0.1645
 3245ntf    fn415726   5.953   5.518   5.907  0.3935 -0.4196 -0.0712
 3245ntf    fn415727   5.808   5.629   6.016 -0.2822 -0.7792  0.0124
 3245ntf    fn415728   6.020   5.673   6.035 -0.4415  0.2839  0.4429
 3245ntf    on515729   6.080   5.404   6.148 -0.2605 -0.6366 -0.1697
 3245ntf    on515730   5.947   5.554   6.284  0.0760 -0.4170 -0.1865
 3245ntf    on515731   5.612   5.439   6.152  0.4861 -0.2062  0.0600
 3245ntf    on515732   5.683   5.331   6.362 -0.2481  0.3232  0.1778
 3245ntf    fn415733   5.624   5.201   6.016  0.2011 -0.2495 -0.1281
 3245ntf    fn415734   5.745   5.107   6.166  0.3966 -0.1768  0.2665
 3245ntf    fn415735   5.532   5.141   6.194  0.3364  0.2696  0.1352
 3246ntf    cn115736   1.780   0.019   5.229 -0.1323  0.0314 -0.0387
 3246ntf    sn215737   1.701   0.154   5.320 -0.0947 -0.1121  0.2055
 3246ntf    nn315738   1.609   0.065   5.412 -0.1107  0.0367  0.3345
 3246ntf    sn215739   1.658  -0.023   5.531  0.2579 -0.3397 -0.0913
 3246ntf    cn115740   1.641   0.100   5.663  0.5531 -0.2990 -0.0905
 3246ntf    fn415741   1.689  -0.075   5.207 -0.4313  0.3065  0.0338
 3246ntf    fn415742   1.816   0.060   5.108 -0.0253  0.1743  0.0407
 3246ntf    fn415743   1.883  -0.051   5.276 -0.0849 -0.2462 -0.5399
 3246ntf    on515744   1.808   0.224   5.388  0.4730 -0.6416 -0.1319
 3246ntf    on515745   1.618   0.222   5.224 -0.4348 -0.3557  0.3262
 3246ntf    on515746   1.797  -0.063   5.537  0.3816  0.0454 -0.3783
 3246ntf    on515747   1.565  -0.127   5.568 -0.4454  0.2667 -0.1481
 3246ntf    fn415748   1.514   0.111   5.701  0.4182 -0.0392 -0.6151
 3246ntf    fn415749   1.706   0.067   5.774  0.3410  0.2095  0.1910
 3246ntf    fn415750   1.675   0.218   5.612  0.6869 -0.5916 -0.6766
 3247ntf    cn115751   2.388   3.516   6.791 -0.0243 -0.2623 -0.0714
 3247ntf    sn215752   2.218   3.522   6.854 -0.0458  0.1277 -0.1617
 3247ntf    nn315753   2.141   3.618   6.756 -0.0206 -0.0208 -0.3276
 3247ntf    sn215754   2.024   3.716   6.794 -0.0577 -0.0464 -0.3753
 3247ntf    cn115755   2.113   3.874   6.798  0.0966 -0.1390 -0.1177
 3247ntf    fn415756   2.381   3.475   6.666  0.5075  0.1875 -0.2533
 3247ntf    fn415757   2.443   3.637   6.789  0.1922 -0.3573  0.0381
 3247ntf    fn415758   2.462   3.436   6.866 -0.1356 -0.5458 -0.2648
 3247ntf    on515759   2.180   3.383   6.846 -0.3064  0.2399 -0.9278
 3247ntf    on515760   2.244   3.573   6.987  0.4151 -0.4495 -0.0275
 3247ntf    on515761   1.970   3.705   6.927 -0.1121  0.4899 -0.3548
 3247ntf    on515762   1.928   3.736   6.688 -0.2999 -0.0291 -0.1535
 3247ntf    fn415763   2.197   3.872   6.901  0.0954 -0.1564 -0.1170
 3247ntf    fn415764   2.179   3.898   6.686 -0.1828  0.0306 -0.2480
 3247ntf    fn415765   2.031   3.975   6.825  0.4569  0.0798  0.1770
 3248ntf    cn115766   0.212   2.273   1.937  0.1844 -0.3531 -0.0945
 3248ntf    sn215767   0.298   2.433   1.943  0.0472 -0.2841  0.0334
 3248ntf    nn315768   0.208   2.523   2.035 -0.1800 -0.1033 -0.3645
 3248ntf    sn215769   0.226   2.545   2.189 -0.0527 -0.1062 -0.3787
 3248ntf    cn115770   0.069   2.476   2.250  0.1310 -0.0992  0.1072
 3248ntf    fn415771   0.161   2.248   2.057  0.9588  0.2473  0.3667
 3248ntf    fn415772   0.108   2.277   1.856 -0.0757  0.1608  0.2622
 3248ntf    fn415773   0.294   2.176   1.900  0.5064 -0.2353  0.3037
 3248ntf    on515774   0.428   2.395   1.994  0.2524 -0.0762 -0.3347
 3248ntf    on515775   0.279   2.481   1.809 -0.4141  0.0354  0.2125
 3248ntf    on515776   0.208   2.685   2.219  0.1177 -0.0605 -0.4873
 3248ntf    on515777   0.332   2.473   2.257  0.0162  0.0609 -0.3089
 3248ntf    fn415778  -0.033   2.492   2.167 -0.3776 -0.3897  0.6689
 3248ntf    fn415779   0.085   2.346   2.266  0.4127 -0.0490  0.2356
 3248ntf    fn415780   0.035   2.508   2.374  0.1337 -0.1452  0.1201
 3249ntf    cn115781   5.879   4.163   1.895  0.3215 -0.1627 -0.1689
 3249ntf    sn215782   5.904   3.987   1.932  0.3126 -0.1874 -0.2773
 3249ntf    nn315783   5.851   3.979   2.080  0.0457  0.1705 -0.3525
 3249ntf    sn215784   5.705   3.955   2.132  0.1113  0.0123 -0.2393
 3249ntf    cn115785   5.726   3.774   2.138  0.1974  0.0450  0.4960
 3249ntf    fn415786   5.877   4.187   1.765  0.6436  0.2201 -0.1060
 3249ntf    fn415787   5.762   4.216   1.928  0.5374  0.2267 -0.0134
 3249ntf    fn415788   5.971   4.237   1.954  0.1632  0.2041 -0.3773
 3249ntf    on515789   5.817   3.914   1.843 -0.4591  0.3072  0.0609
 3249ntf    on515790   6.047   3.976   1.917  0.2130 -0.8774 -0.7843
 3249ntf    on515791   5.597   3.981   2.039 -0.0672 -0.1783 -0.0880
 3249ntf    on515792   5.677   4.001   2.265 -0.2786  0.0472 -0.3317
 3249ntf    fn415793   5.821   3.742   2.224 -0.1181 -0.4152  0.6760
 3249ntf    fn415794   5.612   3.718   2.175  0.0516  0.0110  0.0078
 3249ntf    fn415795   5.766   3.723   2.023 -0.4272  0.5168  0.0632
 3250ntf    cn115796   5.858   5.274   1.031  0.0378  0.3011  0.1911
 3250ntf    sn215797   5.891   5.205   0.866  0.1986 -0.0486  0.3679
 3250ntf    nn315798   5.741   5.178   0.827  0.4374 -0.2036 -0.4601
 3250ntf    sn215799   5.682   5.188   0.682 -0.6217  0.0088 -0.0207
 3250ntf    cn115800   5.644   5.366   0.679 -0.6337  0.0090  0.1346
 3250ntf    fn415801   5.779   5.192   1.098  0.3458  0.2076  0.4463
 3250ntf    fn415802   5.964   5.295   1.108  0.2590  0.4639 -0.1583
 3250ntf    fn415803   5.790   5.386   1.022  0.1646  0.3746  0.1408
 3250ntf    on515804   5.953   5.314   0.796  0.1488 -0.1120  0.2252
 3250ntf    on515805   5.975   5.088   0.879 -0.1631 -0.3207  0.2961
 3250ntf    on515806   5.553   5.124   0.679 -0.3540 -0.5246 -0.1259
 3250ntf    on515807   5.779   5.161   0.579  0.0764 -0.1023  0.6578
 3250ntf    fn415808   5.646   5.431   0.564 -0.0250  0.1062  0.1947
 3250ntf    fn415809   5.528   5.400   0.733 -0.3036  0.6619  0.4528
 3250ntf    fn415810   5.728   5.429   0.760 -0.2869 -0.0081 -0.2131
 3251ntf    cn115811   2.709   6.487   6.601 -0.2995  0.0625  0.0848
 3251ntf    sn215812   2.623   6.625   6.520 -0.3486 -0.1243 -0.1817
 3251ntf    nn315813   2.514   6.639   6.631 -0.1653 -0.0268 -0.0127
 3251ntf    sn215814   2.486   6.760   6.727  0.0845 -0.1015  0.1552
 3251ntf    cn115815   2.609   6.724   6.856 -0.4317 -0.0607  0.6637
 3251ntf    fn415816   2.800   6.428   6.525 -0.3030  0.4488 -0.2230
 3251ntf    fn415817   2.772   6.529   6.710  0.1307 -0.0795 -0.1076
 3251ntf    fn415818   2.621   6.393   6.634 -0.0654 -0.1506  0.1080
 3251ntf    on515819   2.722   6.730   6.514 -0.2707 -0.1745  0.2101
 3251ntf    on515820   2.573   6.573   6.395  0.4315 -0.1665 -0.4833
 3251ntf    on515821   2.361   6.744   6.797 -0.3001  0.0255 -0.4925
 3251ntf    on515822   2.508   6.890   6.669 -0.1680 -0.0639  0.1424
 3251ntf    fn415823   2.732   6.738   6.810 -0.5343 -0.1834  0.3481
 3251ntf    fn415824   2.593   6.811   6.954 -0.3508  0.0237  0.6020
 3251ntf    fn415825   2.589   6.601   6.899 -0.2211 -0.4490 -0.3205
 3252ntf    cn115826   0.869   0.600   6.861  0.4765  0.2126 -0.4127
 3252ntf    sn215827   0.945   0.676   7.007 -0.4118  0.5511 -0.1217
 3252ntf    nn315828   1.096   0.640   6.980 -0.6025 -0.1663 -0.2545
 3252ntf    sn215829   1.175   0.505   6.995 -0.3639  0.0014  0.0242
 3252ntf    cn115830   1.235   0.534   7.164 -0.1300 -0.2543 -0.0155
 3252ntf    fn415831   0.738   0.612   6.853  0.4040 -0.1932  0.1155
 3252ntf    fn415832   0.915   0.653   6.749 -0.2626  0.7912 -0.4499
 3252ntf    fn415833   0.906   0.473   6.865 -0.0494  0.0703  0.0126
 3252ntf    on515834   0.912   0.815   6.989 -0.2851  0.4219 -1.4306
 3252ntf    on515835   0.893   0.614   7.126 -0.3768 -0.1802 -0.4834
 3252ntf    on515836   1.297   0.508   6.919 -0.1551 -0.1052  0.3561
 3252ntf    on515837   1.103   0.380   6.991  0.0960 -0.2755  0.3942
 3252ntf    fn415838   1.317   0.437   7.202  0.1393 -0.0200  0.0042
 3252ntf    fn415839   1.299   0.649   7.175 -0.3782 -0.1153 -0.0123
 3252ntf    fn415840   1.142   0.543   7.257  0.3838 -0.0392  0.4801
 3253ntf    cn115841   5.716   5.779   2.904  0.0841  0.0974 -0.2128
 3253ntf    sn215842   5.705   5.598   2.889  0.1707  0.0541  0.2071
 3253ntf    nn315843   5.614   5.561   3.011  0.0444 -0.3850 -0.0167
 3253ntf    sn215844   5.623   5.455   3.126  0.1533 -0.0501  0.2839
 3253ntf    cn115845   5.690   5.557   3.261  0.0936  0.3233  0.0354
 3253ntf    fn415846   5.760   5.825   2.788 -0.4475 -0.0596 -0.4800
 3253ntf    fn415847   5.601   5.837   2.933 -0.0800 -0.1279 -0.4119
 3253ntf    fn415848   5.796   5.818   3.002  0.1379  0.2906 -0.3335
 3253ntf    on515849   5.648   5.584   2.757  0.7063 -0.9095  0.0702
 3253ntf    on515850   5.839   5.553   2.915  0.0832 -0.4252 -0.1534
 3253ntf    on515851   5.715   5.346   3.108  0.4097  0.1655  0.2882
 3253ntf    on515852   5.493   5.419   3.179  0.1320  0.0425  0.2950
 3253ntf    fn415853   5.609   5.651   3.306 -0.5257 -0.0955 -0.1907
 3253ntf    fn415854   5.738   5.483   3.361 -0.4553  0.2887  0.2779
 3253ntf    fn415855   5.797   5.617   3.211  0.0177  0.0743 -0.4306
 3254ntf    cn115856   6.603   5.318   4.147  0.1717 -0.0383 -0.0670
 3254ntf    sn215857   6.728   5.234   4.249  0.1356 -0.1060 -0.0794
 3254ntf    nn315858   6.803   5.351   4.321 -0.4489  0.3544 -0.2069
 3254ntf    sn215859   6.900   5.453   4.251 -0.4585  0.2932 -0.3097
 3254ntf    cn115860   7.060   5.409   4.324 -0.4887  0.2557 -0.2665
 3254ntf    fn415861   6.656   5.409   4.065 -0.4303  0.0892 -0.3168
 3254ntf    fn415862   6.532   5.233   4.074 -0.3244  0.1908  0.1454
 3254ntf    fn415863   6.515   5.383   4.221  0.3547  0.3878 -0.2187
 3254ntf    on515864   6.653   5.147   4.337  0.2413 -0.0631  0.0537
 3254ntf    on515865   6.814   5.172   4.150  0.1960 -0.4116  0.1625
 3254ntf    on515866   6.868   5.582   4.307  0.0427  0.1464  0.3269
 3254ntf    on515867   6.929   5.439   4.110  0.6454 -0.5383 -0.0124
 3254ntf    fn415868   7.102   5.290   4.284 -0.8649 -0.1403  0.4706
 3254ntf    fn415869   7.147   5.503   4.293 -0.4335  0.1581 -0.4050
 3254ntf    fn415870   7.050   5.399   4.456 -0.2406  0.3829 -0.2374
 3255ntf    cn115871   1.196   1.375   0.960  0.0821  0.4908 -0.1865
 3255ntf    sn215872   1.243   1.435   1.125  0.0606  0.2631 -0.0971
 3255ntf    nn315873   1.360   1.348   1.183  0.0470  0.2558 -0.0806
 3255ntf    sn215874   1.516   1.364   1.182  0.1027 -0.2267  0.1213
 3255ntf    cn115875   1.534   1.389   1.002 -0.5127 -0.3456  0.0417
 3255ntf    fn415876   1.272   1.421   0.862  0.5650  0.1656  0.0320
 3255ntf    fn415877   1.200   1.242   0.958 -0.1569  0.4685  0.6577
 3255ntf    fn415878   1.075   1.415   0.926 -0.4774 -0.7232  0.3261
 3255ntf    on515879   1.270   1.576   1.111  0.0747  0.2401 -0.3071
 3255ntf    on515880   1.128   1.400   1.206  0.1351  0.5363  0.1265
 3255ntf    on515881   1.582   1.238   1.201  0.7135  0.1903  0.7887
 3255ntf    on515882   1.568   1.478   1.253 -0.1028  0.1812 -0.3725
 3255ntf    fn415883   1.490   1.288   0.929  0.2613 -0.3685 -0.4012
 3255ntf    fn415884   1.483   1.499   0.949  0.2143 -0.0533 -0.0643
 3255ntf    fn415885   1.664   1.390   0.982 -0.4784  0.8129  0.2173
 3256ntf    cn115886   1.554   6.632   6.638  0.0681 -0.3598  0.2274
 3256ntf    sn215887   1.464   6.601   6.794  0.1667  0.0591  0.3679
 3256ntf    nn315888   1.317   6.631   6.749  0.0956 -0.0074  0.5548
 3256ntf    sn215889   1.180   6.560   6.776  0.0409 -0.1486 -0.0809
 3256ntf    cn115890   1.068   6.701   6.746 -0.0575 -0.2628 -0.2508
 3256ntf    fn415891   1.683   6.605   6.649  0.1500  0.1017  0.4238
 3256ntf    fn415892   1.504   6.568   6.533 -0.3742 -0.3642  0.4362
 3256ntf    fn415893   1.549   6.762   6.615 -0.4495 -0.4784 -0.3432
 3256ntf    on515894   1.493   6.462   6.821  0.0615  0.0419  0.3928
 3256ntf    on515895   1.520   6.694   6.889  0.0426 -0.0878  0.5850
 3256ntf    on515896   1.144   6.529   6.912  0.4206 -0.0323  0.0450
 3256ntf    on515897   1.157   6.462   6.672 -0.0487  0.2747 -0.4645
 3256ntf    fn415898   1.081   6.761   6.629  0.0696  0.0595 -0.0705
 3256ntf    fn415899   0.942   6.670   6.771 -0.0915  0.2210  0.1787
 3256ntf    fn415900   1.097   6.801   6.826 -0.0782  0.1196 -0.7150
 3257ntf    cn115901   1.398   0.598   1.773  0.0233 -0.3306  0.2037
 3257ntf    sn215902   1.259   0.697   1.837  0.2307  0.1741 -0.1194
 3257ntf    nn315903   1.323   0.749   1.971  0.1908 -0.4659  0.1526
 3257ntf    sn215904   1.307   0.890   2.038  0.0416 -0.3527 -0.1169
 3257ntf    cn115905   1.472   0.961   2.010  0.0113 -0.1334  0.2533
 3257ntf    fn415906   1.507   0.670   1.749 -0.2648  0.2544  0.6014
 3257ntf    fn415907   1.428   0.505   1.862 -0.8265 -0.3373  0.4889
 3257ntf    fn415908   1.364   0.539   1.660  0.3157  0.9559 -0.5792
 3257ntf    on515909   1.234   0.796   1.735  0.1298  0.1405 -0.1275
 3257ntf    on515910   1.162   0.592   1.859 -0.2031  0.4443 -0.7178
 3257ntf    on515911   1.289   0.880   2.181  0.4069 -0.7637 -0.0968
 3257ntf    on515912   1.214   0.978   1.973 -0.2093 -0.2542  0.3747
 3257ntf    fn415913   1.514   0.941   1.886 -0.3705  0.2906  0.0539
 3257ntf    fn415914   1.480   1.092   2.028  0.3057 -0.0251 -0.6269
 3257ntf    fn415915   1.570   0.909   2.083  0.6367  0.4562 -0.1567
 3258ntf    cn115916   4.613   1.632   4.281  0.0258 -0.0364 -0.3281
 3258ntf    sn215917   4.701   1.538   4.152 -0.0485 -0.1594 -0.2894
 3258ntf    nn315918   4.618   1.543   4.019 -0.1520 -0.1154 -0.2236
 3258ntf    sn215919   4.618   1.652   3.905 -0.2217  0.1024 -0.0160
 3258ntf    cn115920   4.452   1.713   3.949  0.0034  0.2249  0.6716
 3258ntf    fn415921   4.656   1.603   4.402  0.4934  0.7736 -0.2978
 3258ntf    fn415922   4.638   1.760   4.262 -0.5260  0.0769 -0.3066
 3258ntf    fn415923   4.482   1.616   4.275 -0.0372  0.4219 -0.1455
 3258ntf    on515924   4.832   1.598   4.157 -0.1147 -0.0494  0.2139
 3258ntf    on515925   4.687   1.402   4.200 -0.1390 -0.1524 -0.2951
 3258ntf    on515926   4.591   1.599   3.774 -0.0066  0.0320 -0.0322
 3258ntf    on515927   4.703   1.767   3.919  0.2903 -0.2780  0.0176
 3258ntf    fn415928   4.415   1.804   3.861  0.1021 -0.2566  0.1227
 3258ntf    fn415929   4.367   1.613   3.935  0.1111  0.2845 -0.4518
 3258ntf    fn415930   4.438   1.762   4.071  0.3171  1.0370  0.3844
 3259ntf    cn115931   6.760   5.291   0.516  0.1904  0.1787  0.2696
 3259ntf    sn215932   6.933   5.306   0.461  0.2482  0.0117  0.4058
 3259ntf    nn315933   6.988   5.163   0.495 -0.4576 -0.2215  0.6035
 3259ntf    sn215934   6.985   5.025   0.419 -0.1521  0.1035 -0.0046
 3259ntf    cn115935   7.165   5.001   0.402 -0.1369  0.2632 -0.0760
 3259ntf    fn415936   6.700   5.187   0.460  0.7504  0.0463 -0.0925
 3259ntf    fn415937   6.744   5.279   0.647  0.0577  0.0279  0.2399
 3259ntf    fn415938   6.697   5.403   0.487  0.1418  0.0016 -0.3119
 3259ntf    on515939   6.917   5.339   0.322  0.2773  0.3562  0.4833
 3259ntf    on515940   6.979   5.413   0.546 -0.2085  0.1604  0.4715
 3259ntf    on515941   6.932   5.039   0.286 -0.0623  0.0917 -0.0422
 3259ntf    on515942   6.949   4.915   0.504 -0.3063 -0.0743 -0.3018
 3259ntf    fn415943   7.223   4.976   0.518  0.3438 -0.3465 -0.4457
 3259ntf    fn415944   7.200   4.906   0.317  0.4046  0.2238  0.1874
 3259ntf    fn415945   7.218   5.114   0.359  0.3229 -0.0095 -0.2263
 3260ntf    cn115946   4.987   6.198   3.806  0.2632 -0.3959  0.0454
 3260ntf    sn215947   5.042   6.126   3.648  0.2211  0.2398 -0.2655
 3260ntf    nn315948   4.988   5.982   3.680  0.2531  0.2927  0.0340
 3260ntf    sn215949   4.918   5.884   3.579  0.0821  0.1816  0.2590
 3260ntf    cn115950   4.770   5.839   3.675  0.1883 -0.1590  0.2633
 3260ntf    fn415951   5.012   6.328   3.802 -0.1182 -0.3198  0.0997
 3260ntf    fn415952   4.857   6.183   3.822  0.2687  0.1421  0.6222
 3260ntf    fn415953   5.049   6.153   3.914  0.0797 -0.0477  0.2954
 3260ntf    on515954   4.987   6.204   3.541 -0.1169  0.5711  0.1455
 3260ntf    on515955   5.185   6.128   3.668  0.2331 -0.5024 -0.2207
 3260ntf    on515956   4.981   5.754   3.574 -0.7136 -0.1951 -0.0094
 3260ntf    on515957   4.857   5.938   3.460  1.0213 -0.2868 -0.4521
 3260ntf    fn415958   4.790   5.795   3.798  0.7165  0.3748  0.3740
 3260ntf    fn415959   4.707   5.952   3.698  0.1769 -0.1389  0.1353
 3260ntf    fn415960   4.687   5.756   3.614 -0.0508  0.2962 -0.0384
 3261ntf    cn115961   2.906   5.319   2.945  0.2284  0.0371 -0.0695
 3261ntf    sn215962   3.023   5.456   2.968  0.0078  0.2464 -0.1906
 3261ntf    nn315963   3.094   5.430   3.106 -0.0619  0.1382 -0.1753
 3261ntf    sn215964   3.226   5.348   3.128 -0.1714 -0.0145 -0.0822
 3261ntf    cn115965   3.252   5.347   3.308  0.1495  0.2830 -0.1257
 3261ntf    fn415966   2.951   5.197   2.970  0.0067  0.0391  0.3441
 3261ntf    fn415967   2.796   5.328   3.018  0.0219 -0.0607 -0.3662
 3261ntf    fn415968   2.864   5.319   2.819  0.1964  0.4481 -0.0611
 3261ntf    on515969   3.111   5.439   2.855 -0.8744 -1.1310 -0.6853
 3261ntf    on515970   2.937   5.571   2.976 -0.3154 -0.0162  0.1100
 3261ntf    on515971   3.346   5.412   3.080 -0.3948  0.2873 -0.2442
 3261ntf    on515972   3.223   5.208   3.093 -0.2141 -0.1689  0.5373
 3261ntf    fn415973   3.371   5.299   3.339  0.1330  0.1798 -0.2204
 3261ntf    fn415974   3.262   5.470   3.354 -0.0819  0.1424  0.3036
 3261ntf    fn415975   3.156   5.297   3.385  0.1394 -0.2456 -0.4745
 3262ntf    cn115976   6.982   3.670   0.579  0.2222  0.1494  0.2615
 3262ntf    sn215977   7.048   3.630   0.414 -0.4597  0.2400 -0.0365
 3262ntf    nn315978   7.059   3.774   0.352  0.3141  0.3600  0.3629
 3262ntf    sn215979   6.948   3.855   0.278  0.0009 -0.1787  0.2341
 3262ntf    cn115980   6.994   3.814   0.107 -0.0340  0.1976  0.1334
 3262ntf    fn415981   6.985   3.566   0.661  0.0350 -0.1670 -0.1265
 3262ntf    fn415982   7.057   3.765   0.632 -0.0061  0.2558  0.3951
 3262ntf    fn415983   6.857   3.712   0.581  0.2807  0.3165  0.4142
 3262ntf    on515984   7.180   3.581   0.445 -0.1327  0.6418 -0.7701
 3262ntf    on515985   6.954   3.537   0.356 -0.3342  0.1573 -0.1077
 3262ntf    on515986   6.969   3.998   0.278 -0.6447 -0.0677 -0.6751
 3262ntf    on515987   6.810   3.816   0.295 -0.1710  0.5106  0.4679
 3262ntf    fn415988   6.897   3.813   0.017  0.1334  0.3802 -0.0507
 3262ntf    fn415989   7.089   3.896   0.064  0.3241 -0.3039 -0.0419
 3262ntf    fn415990   7.048   3.695   0.092 -0.5964 -0.0978  0.4162
 3263ntf    cn115991   0.980   0.685   2.970 -0.0439  0.1005  0.2904
 3263ntf    sn215992   0.825   0.590   2.974 -0.0679  0.1021 -0.4585
 3263ntf    nn315993   0.791   0.556   2.825  0.2524 -0.4157 -0.4145
 3263ntf    sn215994   0.650   0.501   2.782 -0.1713  0.1838  0.1871
 3263ntf    cn115995   0.667   0.323   2.813  0.5511  0.1868 -0.1661
 3263ntf    fn415996   0.980   0.806   2.916 -0.0492 -0.0103  0.0421
 3263ntf    fn415997   1.037   0.701   3.088 -0.0177 -0.0027  0.2920
 3263ntf    fn415998   1.071   0.626   2.895 -0.1837 -0.0698  0.2529
 3263ntf    on515999   0.850   0.475   3.057 -0.6915  0.5784  0.4055
 3263ntf    on516000   0.738   0.692   3.029  0.1658  0.5029 -0.8232
 3263ntf    on516001   0.634   0.503   2.639 -0.2812 -0.5978  0.1851
 3263ntf    on516002   0.539   0.540   2.865 -0.4097  0.3975 -0.2299
 3263ntf    fn416003   0.724   0.302   2.931 -0.0493  0.1085  0.1135
 3263ntf    fn416004   0.548   0.267   2.821  0.4509  0.3971 -0.1825
 3263ntf    fn416005   0.746   0.261   2.727  0.1518 -0.1382 -0.3005
 3264ntf    cn116006   5.287   2.808   4.298 -0.0971  0.0019 -0.0578
 3264ntf    sn216007   5.238   2.645   4.236 -0.2467  0.0681 -0.1153
 3264ntf    nn316008   5.248   2.566   4.371  0.7312  0.2751 -0.0589
 3264ntf    sn216009   5.311   2.425   4.400  0.0344 -0.0073  0.0983
 3264ntf    cn116010   5.161   2.324   4.421 -0.0993  0.2218  0.2513
 3264ntf    fn416011   5.290   2.905   4.207 -0.3621  0.3010  0.2503
 3264ntf    fn416012   5.211   2.850   4.398 -0.3810 -0.7079  0.0265
 3264ntf    fn416013   5.409   2.798   4.347 -0.2679  0.0721  0.3797
 3264ntf    on516014   5.105   2.671   4.187 -0.2586  0.4360  0.1154
 3264ntf    on516015   5.343   2.621   4.140 -0.0149 -0.2844  0.2228
 3264ntf    on516016   5.385   2.420   4.523  0.2870  0.8689 -0.0097
 3264ntf    on516017   5.381   2.357   4.294 -0.3934 -0.4550  0.0958
 3264ntf    fn416018   5.187   2.199   4.455 -0.0075  0.2045  0.1163
 3264ntf    fn416019   5.095   2.372   4.525 -0.3194 -0.4526  0.4282
 3264ntf    fn416020   5.078   2.324   4.318  0.5841  0.3125 -0.3092
 3265ntf    cn116021   1.639   5.778   3.944 -0.1179  0.6114  0.1750
 3265ntf    sn216022   1.458   5.770   3.952 -0.0986 -0.1800 -0.0339
 3265ntf    nn316023   1.442   5.765   4.108 -0.0231 -0.0485 -0.0219
 3265ntf    sn216024   1.398   5.648   4.202 -0.0781 -0.1336 -0.1536
 3265ntf    cn116025   1.217   5.664   4.207 -0.0531 -0.0169  0.5088
 3265ntf    fn416026   1.684   5.734   3.828 -0.4039  0.2351  0.2018
 3265ntf    fn416027   1.685   5.900   3.962  0.8214  0.4041 -0.7000
 3265ntf    fn416028   1.698   5.698   4.031  0.1109  0.2660 -0.2925
 3265ntf    on516029   1.418   5.900   3.904 -0.1771 -0.1972 -0.0165
 3265ntf    on516030   1.425   5.657   3.869  0.0639  0.0315 -0.3867
 3265ntf    on516031   1.429   5.662   4.342  0.1765  0.4349 -0.2661
 3265ntf    on516032   1.404   5.513   4.151 -0.2140 -0.0491 -0.3917
 3265ntf    fn416033   1.174   5.771   4.272 -0.1894  0.2169  0.0364
 3265ntf    fn416034   1.167   5.660   4.085  0.1839  0.2565  0.4028
 3265ntf    fn416035   1.168   5.558   4.270  0.7642 -0.4415  0.4583
 3266ntf    cn116036   6.151   6.477   2.097  0.6353  0.0949  0.2278
 3266ntf    sn216037   6.062   6.618   2.025  0.3032 -0.1437  0.1697
 3266ntf    nn316038   5.948   6.559   1.935  0.2428 -0.1939  0.2787
 3266ntf    sn216039   5.942   6.533   1.780  0.3837  0.0645  0.2289
 3266ntf    cn116040   5.879   6.363   1.768 -0.1247  0.2538  0.1858
 3266ntf    fn416041   6.075   6.416   2.186 -0.0884  0.3798 -0.1919
 3266ntf    fn416042   6.181   6.388   2.004 -0.3174 -0.2479  0.2393
 3266ntf    fn416043   6.264   6.507   2.161  0.2978 -0.2341  0.9962
 3266ntf    on516044   6.013   6.696   2.136 -0.2445  0.3341 -0.3955
 3266ntf    on516045   6.162   6.690   1.950 -0.1392  0.1953 -0.0977
 3266ntf    on516046   6.068   6.519   1.712  0.1775  0.4957 -0.2531
 3266ntf    on516047   5.840   6.616   1.718  0.1662 -0.4960 -0.1700
 3266ntf    fn416048   5.762   6.347   1.828 -0.0557 -0.5234  0.1149
 3266ntf    fn416049   5.868   6.311   1.646  0.0864  0.3909  0.1068
 3266ntf    fn416050   5.958   6.277   1.830 -0.2406  0.0602  0.0661
 3267ntf    cn116051   6.177   4.512   6.110  0.1436  0.1610 -0.2280
 3267ntf    sn216052   6.278   4.362   6.092 -0.1363 -0.0341 -0.1689
 3267ntf    nn316053   6.256   4.301   6.235  0.2181  0.1768 -0.0227
 3267ntf    sn216054   6.302   4.163   6.294 -0.0194  0.0836 -0.0570
 3267ntf    cn116055   6.451   4.208   6.388  0.0385 -0.2986  0.0357
 3267ntf    fn416056   6.050   4.485   6.130  0.1304  0.2320 -0.2117
 3267ntf    fn416057   6.215   4.582   6.216  0.0266 -0.2555  0.0879
 3267ntf    fn416058   6.190   4.581   5.997  0.4130  0.1355 -0.2134
 3267ntf    on516059   6.218   4.291   5.983 -0.1962 -0.3498  0.0677
 3267ntf    on516060   6.410   4.417   6.074 -0.0964  0.0877  0.4481
 3267ntf    on516061   6.329   4.065   6.192 -0.1050  0.0580 -0.0557
 3267ntf    on516062   6.215   4.121   6.401 -0.2799  0.2377 -0.2054
 3267ntf    fn416063   6.420   4.293   6.484  0.2224 -0.0273 -0.1447
 3267ntf    fn416064   6.507   4.112   6.459  0.1717 -0.2274  0.0276
 3267ntf    fn416065   6.556   4.254   6.322 -0.4220  0.4489 -0.1939
 3268ntf    cn116066   6.436   5.644   2.851  0.0953 -0.0392  0.3055
 3268ntf    sn216067   6.412   5.541   2.999  0.0150 -0.4429  0.0128
 3268ntf    nn316068   6.525   5.599   3.091 -0.1744 -0.3290  0.1730
 3268ntf    sn216069   6.565   5.534   3.228  0.0648  0.0007  0.2629
 3268ntf    cn116070   6.711   5.456   3.154  0.0031  0.0463  0.0930
 3268ntf    fn416071   6.503   5.753   2.883  0.5123 -0.1383 -0.2136
 3268ntf    fn416072   6.520   5.595   2.762 -0.0614  0.1035  0.0784
 3268ntf    fn416073   6.330   5.673   2.778  0.0853 -0.3308  0.2013
 3268ntf    on516074   6.280   5.563   3.054  0.1010 -0.0371  0.0617
 3268ntf    on516075   6.443   5.411   2.945  0.7073 -0.4247  0.3619
 3268ntf    on516076   6.484   5.424   3.274 -0.0131 -0.3185 -0.6118
 3268ntf    on516077   6.621   5.635   3.313 -0.2161  0.3979 -0.0191
 3268ntf    fn416078   6.686   5.330   3.121  0.2038  0.0282  0.0068
 3268ntf    fn416079   6.748   5.508   3.038 -0.0518  0.2483  0.1654
 3268ntf    fn416080   6.816   5.459   3.235  0.1898  0.4379 -0.1604
 3269ntf    cn116081   6.814   6.916   6.667  0.2035 -0.3144  0.0068
 3269ntf    sn216082   6.884   6.885   6.832 -0.2715 -0.0542  0.2618
 3269ntf    nn316083   6.889   7.031   6.889  0.0452  0.1907 -0.3717
 3269ntf    sn216084   7.009   7.128   6.918  0.1405 -0.0235 -0.0377
 3269ntf    cn116085   7.040   7.090   7.093  0.1687 -0.2503 -0.0913
 3269ntf    fn416086   6.853   6.824   6.580  0.8412 -0.3518  0.3247
 3269ntf    fn416087   6.682   6.912   6.657  0.2069  0.1970 -0.2772
 3269ntf    fn416088   6.853   7.028   6.608  0.0556 -0.2423  0.0444
 3269ntf    on516089   6.783   6.806   6.898 -0.2634 -0.0190  0.3165
 3269ntf    on516090   7.014   6.825   6.807 -0.2216  0.2469 -0.2177
 3269ntf    on516091   6.969   7.266   6.928  0.1868  0.0393 -0.6514
 3269ntf    on516092   7.128   7.105   6.838  0.1929 -0.4419  0.1570
 3269ntf    fn416093   7.134   7.167   7.143 -0.1858  0.1222  0.0080
 3269ntf    fn416094   6.930   7.101   7.166 -0.0699 -0.2164 -0.4483
 3269ntf    fn416095   7.070   6.963   7.113  0.7739 -0.0600  0.2080
 3270ntf    cn116096   4.005   2.492   5.956  0.3238 -0.0295 -0.2860
 3270ntf    sn216097   3.955   2.351   5.852 -0.1364 -0.0432 -0.0481
 3270ntf    nn316098   3.872   2.269   5.957  0.2086 -0.1385  0.1517
 3270ntf    sn216099   3.854   2.114   5.976  0.2074 -0.1644 -0.0601
 3270ntf    cn116100   3.675   2.088   5.971  0.2214 -0.2407 -0.1698
 3270ntf    fn416101   4.028   2.600   5.882  0.4353  0.1319 -0.0173
 3270ntf    fn416102   3.915   2.527   6.046  0.3360  0.4022 -0.4387
 3270ntf    fn416103   4.120   2.463   6.014 -0.2143 -0.1244  0.7563
 3270ntf    on516104   3.876   2.422   5.754  0.3470  0.2225 -0.2507
 3270ntf    on516105   4.082   2.299   5.808  0.2461  0.4258  0.4780
 3270ntf    on516106   3.881   2.062   6.108  0.5164  0.4056  0.1064
 3270ntf    on516107   3.910   2.036   5.868 -0.1392 -0.3352 -0.1149
 3270ntf    fn416108   3.636   2.104   5.846  0.9185  0.1130 -0.3455
 3270ntf    fn416109   3.642   1.963   5.998  0.1433 -0.3657 -0.8412
 3270ntf    fn416110   3.611   2.168   6.055 -0.5097 -0.0339 -0.9104
 3271ntf    cn116111   0.179   1.458   2.616 -0.1888  0.6579  0.2507
 3271ntf    sn216112   0.272   1.589   2.702  0.7462  0.3438 -0.2708
 3271ntf    nn316113   0.373   1.510   2.793  0.4035  0.0540 -0.1410
 3271ntf    sn216114   0.486   1.411   2.748  0.0545 -0.5024  0.1960
 3271ntf    cn116115   0.640   1.491   2.801 -0.2711  0.1402  0.1816
 3271ntf    fn416116   0.079   1.501   2.542 -0.0763  0.1808 -0.1877
 3271ntf    fn416117   0.261   1.393   2.535 -0.2075 -0.1793  0.8967
 3271ntf    fn416118   0.134   1.359   2.690 -0.1949  0.1223 -0.4543
 3271ntf    on516119   0.338   1.668   2.601 -0.3649  0.7281 -0.7025
 3271ntf    on516120   0.163   1.652   2.771  0.1331 -0.5585 -0.3911
 3271ntf    on516121   0.514   1.384   2.609  0.5222  0.2092  0.1503
 3271ntf    on516122   0.475   1.293   2.830 -0.3758 -0.2682  0.4776
 3271ntf    fn416123   0.661   1.608   2.744  0.8566  0.1820  0.6512
 3271ntf    fn416124   0.653   1.505   2.932 -0.5569 -0.0063  0.2259
 3271ntf    fn416125   0.744   1.417   2.764 -0.2449 -0.0292  0.5845
 3272ntf    cn116126   0.616   1.880   5.226  0.2948  0.1787  0.5733
 3272ntf    sn216127   0.446   1.917   5.280  0.0158 -0.0490 -0.1324
 3272ntf    nn316128   0.376   1.882   5.143 -0.0023  0.1026 -0.1619
 3272ntf    sn216129   0.295   1.756   5.098  0.1977 -0.1458  0.1616
 3272ntf    cn116130   0.126   1.823   5.115  0.2344 -0.1421  0.5255
 3272ntf    fn416131   0.661   1.976   5.147 -0.6157 -0.0294 -0.2220
 3272ntf    fn416132   0.700   1.866   5.327  0.6061  0.3063  0.3348
 3272ntf    fn416133   0.610   1.773   5.149 -0.9984  0.0770  0.7947
 3272ntf    on516134   0.418   1.824   5.386  0.0193  0.1012  0.0010
 3272ntf    on516135   0.450   2.059   5.304  0.8162 -0.1729  0.5075
 3272ntf    on516136   0.291   1.633   5.172 -0.9517 -0.3842 -0.2651
 3272ntf    on516137   0.304   1.738   4.955 -0.1724 -0.1170  0.1320
 3272ntf    fn416138   0.026   1.743   5.082  0.0869 -0.0285  0.6953
 3272ntf    fn416139   0.085   1.859   5.235 -0.2566  0.4858  0.1798
 3272ntf    fn416140   0.119   1.932   5.039  0.4508 -0.3376  0.2188
 3273ntf    cn116141   6.607   1.708   5.769  0.2825  0.2501 -0.4555
 3273ntf    sn216142   6.603   1.885   5.807 -0.0796  0.0671  0.3769
 3273ntf    nn316143   6.579   1.878   5.962 -0.0799  0.0493  0.3757
 3273ntf    sn216144   6.448   1.887   6.049 -0.4182 -0.1528 -0.1047
 3273ntf    cn116145   6.501   2.019   6.163 -0.5688 -0.0750 -0.1241
 3273ntf    fn416146   6.618   1.668   5.643 -0.7223 -0.4332 -0.3374
 3273ntf    fn416147   6.710   1.657   5.835  0.2523  0.3895 -0.3021
 3273ntf    fn416148   6.497   1.650   5.815  0.6032  0.2969  0.3866
 3273ntf    on516149   6.735   1.924   5.764 -0.2554 -0.0235 -0.2616
 3273ntf    on516150   6.499   1.933   5.720  0.3162  0.0995 -0.0852
 3273ntf    on516151   6.424   1.781   6.144  0.4459 -0.0287  0.2633
 3273ntf    on516152   6.334   1.933   5.974 -0.3073 -0.0769 -0.2269
 3273ntf    fn416153   6.618   1.991   6.218 -0.5762  0.4126  0.1382
 3273ntf    fn416154   6.503   2.135   6.100  0.9387  0.0427  0.1059
 3273ntf    fn416155   6.420   2.034   6.267  0.3110 -0.1243  0.5853
 3274ntf    cn116156   1.485   1.842   4.654 -0.3400 -0.4433  0.5368
 3274ntf    sn216157   1.407   1.976   4.749 -0.0043  0.0550  0.1155
 3274ntf    nn316158   1.505   1.984   4.872  0.0028  0.2532  0.0968
 3274ntf    sn216159   1.537   2.093   4.980 -0.1296  0.0835  0.3062
 3274ntf    cn116160   1.718   2.105   4.973 -0.1477  0.3550  0.2977
 3274ntf    fn416161   1.593   1.888   4.594 -0.1612 -0.8495  0.5425
 3274ntf    fn416162   1.525   1.744   4.733  0.0440 -0.4718  0.3114
 3274ntf    fn416163   1.416   1.780   4.559  0.1157  0.2905 -0.2864
 3274ntf    on516164   1.424   2.086   4.657 -0.2059  0.0514  0.0732
 3274ntf    on516165   1.276   1.922   4.773  0.1875 -0.3014  0.3801
 3274ntf    on516166   1.515   2.047   5.115  0.2938 -1.0029  0.0177
 3274ntf    on516167   1.494   2.226   4.944  0.2888  0.1293 -0.0216
 3274ntf    fn416168   1.767   2.173   4.871  0.0052  0.0649  0.1786
 3274ntf    fn416169   1.774   2.165   5.078  0.1933  0.6333 -0.0399
 3274ntf    fn416170   1.783   1.991   4.961 -0.2505  0.3463 -0.1831
 3275ntf    cn116171   0.273   6.428   1.782  0.1366  0.2110 -0.1270
 3275ntf    sn216172   0.237   6.254   1.745 -0.2599  0.2399  0.1163
 3275ntf    nn316173   0.247   6.263   1.589 -0.0949 -0.3994  0.0843
 3275ntf    sn216174   0.137   6.236   1.480 -0.4567 -0.0297  0.3511
 3275ntf    cn116175   0.207   6.084   1.409 -0.1351  0.2502  0.0631
 3275ntf    fn416176   0.192   6.502   1.708  0.5409  0.1799 -0.5999
 3275ntf    fn416177   0.251   6.460   1.908  0.2903 -0.2963  0.0295
 3275ntf    fn416178   0.397   6.463   1.753  0.3315 -0.2144  0.1864
 3275ntf    on516179   0.347   6.179   1.801 -0.3049 -0.4091 -0.6444
 3275ntf    on516180   0.105   6.238   1.801 -0.2737  0.3902  0.1257
 3275ntf    on516181   0.146   6.330   1.372  0.0098 -0.4158  0.0496
 3275ntf    on516182   0.006   6.200   1.527 -0.6125  0.1077  0.0240
 3275ntf    fn416183   0.122   6.016   1.334 -0.3359  0.2665  0.2755
 3275ntf    fn416184   0.318   6.113   1.344 -0.4032  0.3143 -0.3679
 3275ntf    fn416185   0.256   6.006   1.504 -0.8245 -0.4483 -0.1433
 3276ntf    cn116186   2.139   5.509   2.823 -0.3314 -0.0138  0.2449
 3276ntf    sn216187   2.211   5.387   2.709 -0.1159  0.2089  0.1415
 3276ntf    nn316188   2.354   5.389   2.773  0.3359 -0.3681 -0.8201
 3276ntf    sn216189   2.420   5.278   2.862  0.0689  0.2140  0.1203
 3276ntf    cn116190   2.489   5.159   2.743 -0.2097  0.1205  0.0491
 3276ntf    fn416191   2.159   5.464   2.945  0.2834 -0.1338  0.1001
 3276ntf    fn416192   2.188   5.632   2.821  0.3877 -0.3044 -0.2088
 3276ntf    fn416193   2.007   5.525   2.815 -0.2742  0.2803 -0.2003
 3276ntf    on516194   2.135   5.268   2.739  0.2809  0.1642  0.9898
 3276ntf    on516195   2.207   5.430   2.571  0.0715  0.0061  0.0721
 3276ntf    on516196   2.339   5.194   2.947 -0.0722  0.4652  0.2372
 3276ntf    on516197   2.534   5.334   2.930  0.3675 -0.5390  0.2540
 3276ntf    fn416198   2.547   5.050   2.791 -0.1925  0.4218  0.7252
 3276ntf    fn416199   2.392   5.109   2.668 -0.2549 -0.0334  0.2106
 3276ntf    fn416200   2.577   5.218   2.663 -0.2183  0.1480  0.0598
 3277ntf    cn116201   1.422   1.866   0.483 -0.2589  0.3828 -0.0344
 3277ntf    sn216202   1.418   2.041   0.432 -0.0301  0.3887 -0.0349
 3277ntf    nn316203   1.564   2.045   0.373 -0.0335 -0.6010 -0.1332
 3277ntf    sn216204   1.604   2.064   0.223  0.2410  0.2694  0.0437
 3277ntf    cn116205   1.618   2.245   0.214 -0.0337  0.2922  0.0552
 3277ntf    fn416206   1.505   1.837   0.582 -0.5840  0.0177  0.1323
 3277ntf    fn416207   1.307   1.829   0.535 -0.1810  0.1208 -0.0449
 3277ntf    fn416208   1.445   1.783   0.383 -0.3425 -0.2896  0.5006
 3277ntf    on516209   1.306   2.056   0.342  0.0778  0.1619 -0.2081
 3277ntf    on516210   1.404   2.110   0.558 -0.3582  0.4422 -0.1012
 3277ntf    on516211   1.502   2.029   0.128  0.5347 -0.0984 -0.1425
 3277ntf    on516212   1.737   2.011   0.206  0.2383  0.2505  0.0823
 3277ntf    fn416213   1.502   2.307   0.227 -0.1543  0.1063 -0.1337
 3277ntf    fn416214   1.698   2.298   0.305  0.1951 -0.2946  0.2001
 3277ntf    fn416215   1.666   2.280   0.096  0.0419  0.1534  0.0439
 3278ntf    cn116216   4.351   3.815   1.192  0.3248 -0.3069  0.2967
 3278ntf    sn216217   4.247   3.795   1.340 -0.1905  0.2920  0.0250
 3278ntf    nn316218   4.154   3.919   1.321 -0.0278  0.4635  0.3428
 3278ntf    sn216219   4.018   3.927   1.242  0.0259  0.3987  0.2444
 3278ntf    cn116220   4.032   4.101   1.190 -0.1500  0.3398  0.0015
 3278ntf    fn416221   4.281   3.820   1.080  0.4495 -0.0037  0.2293
 3278ntf    fn416222   4.417   3.930   1.190  0.1116 -0.1916 -0.3261
 3278ntf    fn416223   4.443   3.722   1.176  0.2617 -0.3834  0.3782
 3278ntf    on516224   4.186   3.667   1.314 -0.7588  0.5574  0.0309
 3278ntf    on516225   4.332   3.816   1.455  0.3164 -0.4325 -0.2096
 3278ntf    on516226   3.905   3.918   1.331  0.0361  0.4192  0.2603
 3278ntf    on516227   4.014   3.860   1.115  1.0725  0.0591  0.3780
 3278ntf    fn416228   4.138   4.137   1.121  0.4158  0.2438  0.8034
 3278ntf    fn416229   3.920   4.131   1.126 -0.5993 -0.5071  0.3663
 3278ntf    fn416230   4.032   4.185   1.293  0.5411  0.3640 -0.0171
 3279ntf    cn116231   2.874   3.791   5.101  0.3132 -0.5126  0.2837
 3279ntf    sn216232   3.019   3.772   5.209  0.2603 -0.2765  0.3961
 3279ntf    nn316233   3.135   3.855   5.144 -0.1650  0.2212  0.2644
 3279ntf    sn216234   3.251   3.937   5.210  0.0829  0.1002 -0.0185
 3279ntf    cn116235   3.244   4.106   5.144  0.1733  0.0846 -0.0692
 3279ntf    fn416236   2.853   3.919   5.076 -0.0793 -0.6920 -0.3256
 3279ntf    fn416237   2.891   3.727   4.987  0.1126  0.2017 -0.1525
 3279ntf    fn416238   2.767   3.742   5.161  0.1310  0.1007  0.4612
 3279ntf    on516239   2.971   3.816   5.338  0.0066 -0.1232  0.2512
 3279ntf    on516240   3.044   3.631   5.199 -0.3789 -0.3225 -0.6133
 3279ntf    on516241   3.381   3.893   5.166 -0.1720 -0.6092 -0.0803
 3279ntf    on516242   3.238   3.969   5.350  0.2745  0.2586 -0.0366
 3279ntf    fn416243   3.355   4.170   5.175  0.1112  0.1316  0.0589
 3279ntf    fn416244   3.236   4.113   5.012 -0.0454 -0.0819 -0.0669
 3279ntf    fn416245   3.137   4.176   5.179  0.0674  0.3149 -0.8350
 3280ntf    cn116246   2.156   0.337   6.142 -0.1532 -0.2834 -0.0252
 3280ntf    sn216247   2.199   0.321   5.967  0.2734 -0.0341  0.0557
 3280ntf    nn316248   2.073   0.384   5.898  0.2083 -0.0062  0.2008
 3280ntf    sn216249   1.944   0.314   5.843  0.3543 -0.0239 -0.1238
 3280ntf    cn116250   1.861   0.450   5.755  0.2675 -0.0619 -0.1008
 3280ntf    fn416251   2.100   0.451   6.179 -0.1046 -0.1862 -0.2523
 3280ntf    fn416252   2.072   0.241   6.178 -0.2706 -0.2663 -0.2542
 3280ntf    fn416253   2.259   0.318   6.223 -0.1816 -0.0145  0.0767
 3280ntf    on516254   2.316   0.405   5.962  0.3066 -0.0789  0.0732
 3280ntf    on516255   2.232   0.184   5.936 -0.2688 -0.1989  0.1934
 3280ntf    on516256   1.846   0.268   5.939  0.1081 -0.2498 -0.4809
 3280ntf    on516257   1.982   0.222   5.739 -0.1787  0.1790 -0.5015
 3280ntf    fn416258   1.734   0.422   5.731  0.2498  0.0532 -0.1408
 3280ntf    fn416259   1.856   0.553   5.837  0.1808  0.1168 -0.3305
 3280ntf    fn416260   1.921   0.492   5.645  0.0311 -0.3092 -0.3273
 3281ntf    cn116261   4.877   6.566   1.820  0.3838 -0.4473  0.5446
 3281ntf    sn216262   5.055   6.601   1.823  0.3133  0.0049 -0.1648
 3281ntf    nn316263   5.066   6.747   1.765  0.0489  0.0972  0.0143
 3281ntf    sn216264   5.125   6.797   1.629  0.0676 -0.0350 -0.0263
 3281ntf    cn116265   4.982   6.771   1.520 -0.0862 -0.1052  0.1944
 3281ntf    fn416266   4.848   6.453   1.881 -0.5925 -0.5858 -0.1441
 3281ntf    fn416267   4.803   6.656   1.884  0.1400 -0.0028 -0.3370
 3281ntf    fn416268   4.838   6.560   1.693  0.6125 -0.3609  0.4691
 3281ntf    on516269   5.099   6.594   1.960  0.4046 -0.2445 -0.2078
 3281ntf    on516270   5.109   6.500   1.736 -0.7367 -0.1892 -0.6059
 3281ntf    on516271   5.235   6.726   1.567 -0.1735 -0.4515  0.0247
 3281ntf    on516272   5.146   6.939   1.611 -0.0268 -0.0083  0.0767
 3281ntf    fn416273   4.977   6.641   1.497  0.8726 -0.0779 -0.1754
 3281ntf    fn416274   4.867   6.806   1.577 -0.2318 -0.2937  0.0183
 3281ntf    fn416275   4.992   6.837   1.406 -0.2970  0.1415  0.3169
 3282ntf    cn116276   1.001   5.950   1.688 -0.2380  0.3946 -0.2475
 3282ntf    sn216277   1.078   5.950   1.852 -0.1811 -0.1310 -0.2737
 3282ntf    nn316278   1.125   6.099   1.857 -0.2916 -0.1054  0.0412
 3282ntf    sn216279   1.044   6.228   1.895  0.0544  0.1781 -0.1853
 3282ntf    cn116280   1.086   6.266   2.068  0.6482 -0.2114 -0.2434
 3282ntf    fn416281   0.896   6.030   1.676 -0.2861  0.3995  0.1984
 3282ntf    fn416282   1.096   5.978   1.601 -0.1590  0.0180 -0.2825
 3282ntf    fn416283   0.963   5.828   1.653  0.2067  0.1652  0.0661
 3282ntf    on516284   0.983   5.904   1.951  0.0551 -0.0308  0.0013
 3282ntf    on516285   1.194   5.867   1.833  0.0293  0.2273 -0.5537
 3282ntf    on516286   0.901   6.209   1.892  0.1513 -0.6722  0.2695
 3282ntf    on516287   1.087   6.352   1.834 -0.6935  0.4107 -0.2462
 3282ntf    fn416288   1.075   6.392   2.105 -0.4596 -0.1787 -0.6744
 3282ntf    fn416289   1.014   6.196   2.155  0.2894 -0.2484 -0.5684
 3282ntf    fn416290   1.215   6.238   2.085  0.6721  0.2903  0.4312
 3283ntf    cn116291   2.350   1.959   4.249 -0.2104  0.1089 -0.1908
 3283ntf    sn216292   2.266   2.074   4.137  0.1092  0.2453 -0.2938
 3283ntf    nn316293   2.315   2.212   4.192  0.1577  0.0697  0.1076
 3283ntf    sn216294   2.270   2.297   4.316 -0.2835  0.4429 -0.2999
 3283ntf    cn116295   2.405   2.417   4.339 -0.0502  0.1210  0.0429
 3283ntf    fn416296   2.328   1.829   4.236  0.0141  0.0653 -0.1423
 3283ntf    fn416297   2.480   1.973   4.225 -0.3598  0.8927 -0.5483
 3283ntf    fn416298   2.322   1.985   4.376 -0.3610 -0.2955 -0.1401
 3283ntf    on516299   2.319   2.043   4.006  0.0182 -0.5083 -0.1580
 3283ntf    on516300   2.128   2.036   4.155  0.2425 -0.3073 -0.4184
 3283ntf    on516301   2.270   2.217   4.436 -0.7339  0.4374 -0.3022
 3283ntf    on516302   2.152   2.376   4.290 -0.7522 -0.2683 -0.3653
 3283ntf    fn416303   2.380   2.507   4.433 -0.1569 -0.1898  0.3150
 3283ntf    fn416304   2.518   2.358   4.372  0.1002  0.1928 -0.3379
 3283ntf    fn416305   2.430   2.478   4.224 -0.5028 -0.4134 -0.3448
 3284ntf    cn116306   4.963   1.952   0.008 -0.0568  0.4277 -0.1943
 3284ntf    sn216307   4.804   2.011   0.071 -0.1968  0.0722 -0.2132
 3284ntf    nn316308   4.704   1.962  -0.040 -0.1967 -0.3519 -0.0270
 3284ntf    sn216309   4.568   2.021  -0.090  0.1391  0.1549 -0.3517
 3284ntf    cn116310   4.469   1.869  -0.098  0.2972  0.0207  0.1905
 3284ntf    fn416311   4.969   1.974  -0.123  0.3656  0.1520 -0.2225
 3284ntf    fn416312   5.059   2.027   0.060  0.3330 -0.5051  0.4362
 3284ntf    fn416313   4.989   1.825   0.031 -1.0487  0.2175 -0.2057
 3284ntf    on516314   4.789   1.938   0.195  0.1990  0.0310 -0.1906
 3284ntf    on516315   4.823   2.154   0.082 -0.1789  0.0917 -0.5003
 3284ntf    on516316   4.571   2.067  -0.227  0.8494  0.0485 -0.3777
 3284ntf    on516317   4.493   2.099   0.006 -0.0309 -0.1975 -0.1978
 3284ntf    fn416318   4.344   1.901  -0.128  0.3906  0.0319 -0.1939
 3284ntf    fn416319   4.501   1.786  -0.195  0.5334 -0.2226  0.4754
 3284ntf    fn416320   4.464   1.804   0.017  0.2155  0.7330  0.6018
 3285ntf    cn116321   0.597   0.301   6.764  0.1468 -0.1349  0.2785
 3285ntf    sn216322   0.507   0.277   6.920 -0.0636 -0.1707  0.1532
 3285ntf    nn316323   0.538   0.124   6.935 -0.1295 -0.1782  0.2126
 3285ntf    sn216324   0.625   0.054   7.045  0.4357  0.0164 -0.1028
 3285ntf    cn116325   0.726  -0.041   6.928  0.1852 -0.2608 -0.0970
 3285ntf    fn416326   0.571   0.415   6.702  0.2142 -0.2000  0.1269
 3285ntf    fn416327   0.728   0.296   6.780  0.1682 -0.2264  0.0896
 3285ntf    fn416328   0.567   0.210   6.672 -0.4114  0.1665  0.1572
 3285ntf    on516329   0.571   0.361   7.019 -0.6530  0.2926  0.1414
 3285ntf    on516330   0.370   0.305   6.888  0.0336  0.4050  0.2160
 3285ntf    on516331   0.549  -0.047   7.116 -0.4281  0.1917 -0.7576
 3285ntf    on516332   0.712   0.138   7.123  0.1125  0.2972 -0.0414
 3285ntf    fn416333   0.643  -0.110   6.851 -0.1351  0.0241 -0.0042
 3285ntf    fn416334   0.799   0.028   6.842  0.0658 -0.8895 -0.7132
 3285ntf    fn416335   0.809  -0.134   6.974  0.2936 -0.1317 -0.0314
 3286ntf    cn116336   5.617   2.698   6.701  0.2029  0.1587  0.0959
 3286ntf    sn216337   5.484   2.741   6.584 -0.0577 -0.1374  0.2813
 3286ntf    nn316338   5.466   2.896   6.599 -0.1009 -0.1085 -0.0625
 3286ntf    sn216339   5.553   3.007   6.530 -0.1968  0.1075  0.1607
 3286ntf    cn116340   5.511   3.154   6.628 -0.4195  0.3656 -0.3197
 3286ntf    fn416341   5.732   2.754   6.667  0.3444 -0.5104 -0.5568
 3286ntf    fn416342   5.589   2.752   6.818 -0.4541 -0.0147  0.0217
 3286ntf    fn416343   5.640   2.569   6.719  0.9049  0.3345  0.5006
 3286ntf    on516344   5.546   2.697   6.462 -0.3558 -0.2756  0.1792
 3286ntf    on516345   5.365   2.669   6.623  0.1250 -0.4086  0.3446
 3286ntf    on516346   5.514   3.047   6.397 -0.8045  0.1625  0.3563
 3286ntf    on516347   5.695   2.994   6.553 -0.0801  0.2206 -0.4632
 3286ntf    fn416348   5.536   3.127   6.755 -0.3010 -0.2134 -0.4640
 3286ntf    fn416349   5.576   3.266   6.602  0.0786  0.0429 -0.4569
 3286ntf    fn416350   5.381   3.179   6.616 -0.4739  0.1496 -0.1914
 3287ntf    cn116351   1.070   5.563   5.530 -0.1830  0.3101 -0.2589
 3287ntf    sn216352   0.955   5.542   5.391 -0.1354  0.1862 -0.2788
 3287ntf    nn316353   1.031   5.436   5.303  0.5219  0.1930  0.2722
 3287ntf    sn216354   1.033   5.280   5.315  0.0600  0.1631 -0.0360
 3287ntf    cn116355   1.208   5.246   5.280 -0.0566 -0.2271 -0.2517
 3287ntf    fn416356   1.103   5.449   5.588  0.2803  0.5230 -0.0974
 3287ntf    fn416357   1.183   5.620   5.493 -0.2024  0.2044 -0.4809
 3287ntf    fn416358   1.020   5.639   5.627  0.3172  0.5722 -0.2036
 3287ntf    on516359   0.830   5.497   5.446  0.3420 -0.8905 -0.0460
 3287ntf    on516360   0.956   5.667   5.320 -0.4541  0.5591  0.3647
 3287ntf    on516361   0.974   5.207   5.205  0.0904 -0.3340  0.2738
 3287ntf    on516362   1.010   5.226   5.446  0.1989 -0.3198 -0.2071
 3287ntf    fn416363   1.256   5.329   5.188 -0.1183 -0.0220 -0.1008
 3287ntf    fn416364   1.283   5.259   5.388 -0.0534  0.2720 -0.3124
 3287ntf    fn416365   1.223   5.124   5.231  0.0377 -0.3973  0.2033
 3288ntf    cn116366   0.823   0.904   2.642  0.1827  0.0961  0.0741
 3288ntf    sn216367   0.915   1.061   2.646 -0.0029  0.2051  0.1065
 3288ntf    nn316368   0.826   1.153   2.556 -0.0883 -0.3029 -0.3347
 3288ntf    sn216369   0.859   1.231   2.423 -0.0189  0.1524 -0.0526
 3288ntf    cn116370   0.855   1.405   2.474 -0.1662  0.1329  0.0017
 3288ntf    fn416371   0.705   0.908   2.702  0.0840  0.0599 -0.1176
 3288ntf    fn416372   0.791   0.859   2.522  0.0189  0.3978  0.0032
 3288ntf    fn416373   0.896   0.813   2.704  0.3648  0.1578 -0.0476
 3288ntf    on516374   0.911   1.100   2.785 -0.1497  0.1123  0.1290
 3288ntf    on516375   1.042   1.019   2.590 -0.2337  0.2353 -0.4395
 3288ntf    on516376   0.742   1.237   2.340 -0.4971  0.0431  0.6031
 3288ntf    on516377   0.987   1.211   2.359 -0.0349  0.0984 -0.0683
 3288ntf    fn416378   0.932   1.431   2.578 -0.3017  0.5490  0.0001
 3288ntf    fn416379   0.891   1.496   2.385 -0.5424  0.0313 -0.2600
 3288ntf    fn416380   0.737   1.446   2.519 -0.0528 -0.0566  0.4690
 3289ntf    cn116381   1.769   3.958   3.259 -0.1786  0.0651 -0.0576
 3289ntf    sn216382   1.847   4.016   3.105 -0.1817 -0.2532 -0.1783
 3289ntf    nn316383   1.731   4.099   3.039 -0.1229  0.3186  0.4219
 3289ntf    sn216384   1.676   4.241   3.075 -0.1519  0.4860 -0.2609
 3289ntf    cn116385   1.761   4.345   2.953  0.5220 -0.0825 -0.2798
 3289ntf    fn416386   1.785   4.047   3.356 -0.5307  0.7882 -0.6472
 3289ntf    fn416387   1.638   3.952   3.245 -0.1723 -0.3335  0.0702
 3289ntf    fn416388   1.804   3.838   3.301 -0.1828 -0.0121 -0.2718
 3289ntf    on516389   1.964   4.092   3.143 -0.3311 -0.1424  0.0626
 3289ntf    on516390   1.870   3.901   3.021 -0.2169  0.1581 -0.7635
 3289ntf    on516391   1.716   4.288   3.205 -0.0894  0.8116 -0.3990
 3289ntf    on516392   1.535   4.249   3.042 -0.2134 -0.4162 -0.2393
 3289ntf    fn416393   1.787   4.286   2.837  0.2213 -0.2614 -0.2584
 3289ntf    fn416394   1.694   4.453   2.917 -0.1749 -0.2910  0.3693
 3289ntf    fn416395   1.879   4.385   2.997  0.6433 -0.7148 -0.0161
 3290ntf    cn116396   1.575   3.370   5.966  0.4947  0.1287 -0.1731
 3290ntf    sn216397   1.615   3.423   6.136 -0.4234  0.3584 -0.0223
 3290ntf    nn316398   1.483   3.384   6.211 -0.3972  0.1337 -0.0904
 3290ntf    sn216399   1.454   3.245   6.277  0.0756  0.0426 -0.0737
 3290ntf    cn116400   1.473   3.281   6.454  0.0046 -0.3860  0.0242
 3290ntf    fn416401   1.653   3.415   5.869 -0.1969 -0.2585 -0.9210
 3290ntf    fn416402   1.565   3.239   5.949 -0.3404  0.1207  0.3055
 3290ntf    fn416403   1.454   3.410   5.932  0.4628  0.2301  0.0598
 3290ntf    on516404   1.730   3.344   6.174 -0.3064  0.5181 -0.0408
 3290ntf    on516405   1.638   3.563   6.110 -0.1000  0.2746 -0.2051
 3290ntf    on516406   1.547   3.136   6.255 -0.1671 -0.0118 -0.8662
 3290ntf    on516407   1.314   3.211   6.266 -0.1842  1.1629 -0.3828
 3290ntf    fn416408   1.376   3.364   6.488 -0.1099 -0.4697 -0.0989
 3290ntf    fn416409   1.460   3.174   6.531 -0.0734 -0.2059  0.2607
 3290ntf    fn416410   1.592   3.334   6.476 -0.1682 -0.0094  0.0575
 3291ntf    cn116411   6.274   2.652   3.649  0.1924  0.4195  0.0572
 3291ntf    sn216412   6.378   2.584   3.781  0.0082 -0.0712 -0.0471
 3291ntf    nn316413   6.369   2.430   3.750 -0.4562 -0.0680  0.0607
 3291ntf    sn216414   6.268   2.329   3.814 -0.1365 -0.3772  0.0750
 3291ntf    cn116415   6.348   2.295   3.974 -0.1240 -0.6201  0.0174
 3291ntf    fn416416   6.307   2.603   3.531  0.2027 -0.5128  0.4338
 3291ntf    fn416417   6.148   2.613   3.665  0.3043 -0.0687 -0.2234
 3291ntf    fn416418   6.269   2.784   3.654  0.3391  0.4242  0.0651
 3291ntf    on516419   6.504   2.642   3.741 -0.2022  0.0619 -0.5236
 3291ntf    on516420   6.326   2.620   3.911  0.4173 -0.1317  0.1345
 3291ntf    on516421   6.261   2.205   3.741  0.0806 -0.5039  0.2639
 3291ntf    on516422   6.143   2.391   3.851 -0.1676 -0.2461 -0.2503
 3291ntf    fn416423   6.471   2.248   3.956  0.3076  0.4777  0.0603
 3291ntf    fn416424   6.373   2.396   4.055 -0.8265 -0.2475 -0.2299
 3291ntf    fn416425   6.278   2.204   4.039 -0.0837 -0.6004  0.0890
 3292ntf    cn116426   6.263   3.436   4.053 -0.3211  0.1715  0.0646
 3292ntf    sn216427   6.150   3.317   3.975 -0.0475 -0.2196  0.2648
 3292ntf    nn316428   6.130   3.372   3.830 -0.0818 -0.1323  0.3030
 3292ntf    sn216429   6.012   3.463   3.777  0.1449  0.0289  0.0705
 3292ntf    cn116430   5.874   3.350   3.811  0.1374  0.0431  0.0891
 3292ntf    fn416431   6.240   3.554   3.998 -0.2883  0.2408  0.1991
 3292ntf    fn416432   6.250   3.452   4.184 -0.1125  0.2796  0.0722
 3292ntf    fn416433   6.391   3.410   4.033 -0.3000  0.1333  0.2428
 3292ntf    on516434   6.229   3.197   3.968  0.4284  0.1087 -0.0241
 3292ntf    on516435   6.035   3.314   4.063 -0.0194  0.2597  0.3203
 3292ntf    on516436   6.014   3.476   3.634 -0.2728  0.0464  0.0658
 3292ntf    on516437   5.983   3.583   3.851  0.8357  0.0511  0.3217
 3292ntf    fn416438   5.771   3.371   3.730  0.2012  0.3521  0.0872
 3292ntf    fn416439   5.903   3.221   3.815  0.2727  0.0838  0.4094
 3292ntf    fn416440   5.825   3.372   3.931  0.2245 -0.2541  0.1810
 3293ntf    cn116441   1.477   0.695   2.922  0.0286 -0.2380 -0.0259
 3293ntf    sn216442   1.503   0.859   2.996  0.1197 -0.1350 -0.2838
 3293ntf    nn316443   1.468   0.851   3.149  0.4895 -0.3006 -0.2078
 3293ntf    sn216444   1.488   0.727   3.244  0.0390 -0.0213  0.2553
 3293ntf    cn116445   1.572   0.817   3.377  0.4140  0.1451 -0.0925
 3293ntf    fn416446   1.451   0.697   2.792  0.0645 -0.0331 -0.0303
 3293ntf    fn416447   1.581   0.615   2.937 -0.0682 -0.3400  0.1064
 3293ntf    fn416448   1.369   0.639   2.973 -0.1060  0.2296  0.2104
 3293ntf    on516449   1.642   0.873   2.962  0.2367  0.3893  0.3833
 3293ntf    on516450   1.411   0.942   2.921 -0.1087 -0.5009 -0.4088
 3293ntf    on516451   1.583   0.626   3.205 -0.3233 -0.3530  0.2324
 3293ntf    on516452   1.364   0.688   3.305 -0.1471 -0.0714 -0.1516
 3293ntf    fn416453   1.669   0.891   3.325 -0.0442  0.1169 -1.0023
 3293ntf    fn416454   1.495   0.893   3.453 -0.3273 -0.4353 -0.2528
 3293ntf    fn416455   1.630   0.731   3.460 -0.0664 -0.4886 -0.4156
 3294ntf    cn116456   0.018   2.973   3.453  0.2813  0.1323 -0.1406
 3294ntf    sn216457  -0.142   3.024   3.384  0.0899  0.0972  0.2746
 3294ntf    nn316458  -0.135   2.959   3.241 -0.4611  0.4133  0.1003
 3294ntf    sn216459  -0.091   3.027   3.107 -0.2396 -0.3178 -0.2005
 3294ntf    cn116460  -0.240   3.117   3.054 -0.0218  0.2671  0.1752
 3294ntf    fn416461   0.126   3.015   3.389  0.3063  0.0815 -0.1315
 3294ntf    fn416462   0.032   3.012   3.578  0.3597 -0.2322 -0.0364
 3294ntf    fn416463   0.033   2.842   3.448  0.2297  0.1419 -0.6291
 3294ntf    on516464  -0.230   2.957   3.476 -0.0282 -0.2478 -0.0856
 3294ntf    on516465  -0.136   3.168   3.387 -0.4219  0.1284  0.0732
 3294ntf    on516466  -0.082   2.936   2.996  0.2203 -0.3846 -0.1135
 3294ntf    on516467   0.020   3.118   3.125  0.2547 -0.9229 -0.1491
 3294ntf    fn416468  -0.276   3.207   3.145 -0.1800 -0.2949  0.6761
 3294ntf    fn416469  -0.223   3.171   2.935  0.1279 -0.0048  0.0734
 3294ntf    fn416470  -0.335   3.027   3.036 -0.1594  0.3821  0.3283
 3295ntf    cn116471   6.637   3.665   2.079 -0.0736 -0.2669 -0.0903
 3295ntf    sn216472   6.500   3.771   2.135  0.2729 -0.0075  0.2826
 3295ntf    nn316473   6.418   3.662   2.212  0.2812  0.0613  0.3886
 3295ntf    sn216474   6.429   3.617   2.362 -0.1355  0.1686  0.4524
 3295ntf    cn116475   6.296   3.711   2.443 -0.6015 -0.1994  0.1143
 3295ntf    fn416476   6.730   3.748   2.034  0.2883 -0.6274 -0.0098
 3295ntf    fn416477   6.688   3.600   2.182 -0.5437  0.2137  0.4582
 3295ntf    fn416478   6.614   3.575   1.985 -0.2024 -0.1321 -0.1877
 3295ntf    on516479   6.558   3.876   2.215 -0.1451 -0.0742  0.6771
 3295ntf    on516480   6.434   3.804   2.011  0.5663 -0.2678  0.0548
 3295ntf    on516481   6.547   3.666   2.429  0.3980 -0.0234 -0.3422
 3295ntf    on516482   6.401   3.479   2.390  0.4462  0.0076  0.2512
 3295ntf    fn416483   6.282   3.832   2.392  0.4878  0.0078  0.2857
 3295ntf    fn416484   6.183   3.644   2.425 -0.4519 -0.3197 -0.3932
 3295ntf    fn416485   6.310   3.717   2.574 -0.8092 -0.1208  0.1333
 3296ntf    cn116486   0.986   5.839   6.894 -0.2675  0.1957  0.2453
 3296ntf    sn216487   1.078   5.710   6.807 -0.2628  0.2071  0.2323
 3296ntf    nn316488   1.200   5.689   6.904 -0.3133  0.0478  0.2617
 3296ntf    sn216489   1.337   5.766   6.907 -0.0376 -0.4184 -0.1187
 3296ntf    cn116490   1.438   5.635   6.832  0.0869 -0.0912 -0.5274
 3296ntf    fn416491   0.870   5.858   6.833 -0.0669  0.3635 -0.0854
 3296ntf    fn416492   0.958   5.796   7.016  0.3534 -0.5105  0.1486
 3296ntf    fn416493   1.042   5.958   6.894 -0.7236  0.4139 -0.0539
 3296ntf    on516494   0.986   5.599   6.809 -0.1519  0.1086 -0.0160
 3296ntf    on516495   1.113   5.768   6.679 -0.1310  0.2870  0.3045
 3296ntf    on516496   1.388   5.783   7.040 -0.1584 -0.0786 -0.1163
 3296ntf    on516497   1.347   5.878   6.817 -0.7689 -0.1612  0.1076
 3296ntf    fn416498   1.564   5.674   6.820  0.1235  0.0880  0.3520
 3296ntf    fn416499   1.441   5.529   6.912  0.6124  0.1980 -0.1518
 3296ntf    fn416500   1.388   5.605   6.714 -0.2513  0.2245 -0.4647
 3297ntf    cn116501   0.570   4.075   6.267 -0.1241 -0.0949 -0.0454
 3297ntf    sn216502   0.670   3.992   6.140 -0.2410 -0.2253 -0.0527
 3297ntf    nn316503   0.765   3.903   6.227 -0.0758 -0.2329 -0.2409
 3297ntf    sn216504   0.761   3.749   6.254  0.5334 -0.2806 -0.4000
 3297ntf    cn116505   0.633   3.740   6.383  0.2539 -0.2368 -0.6732
 3297ntf    fn416506   0.523   3.997   6.364 -0.0767 -0.0054  0.0499
 3297ntf    fn416507   0.651   4.162   6.325  0.0317  0.0601 -0.4937
 3297ntf    fn416508   0.467   4.148   6.229 -0.3188 -0.2888  0.1024
 3297ntf    on516509   0.569   3.932   6.056 -0.4196 -0.1896  0.1365
 3297ntf    on516510   0.741   4.097   6.072 -0.3309 -0.1949 -0.1016
 3297ntf    on516511   0.873   3.693   6.327  0.5144  0.3559  0.1308
 3297ntf    on516512   0.700   3.664   6.154 -0.0318  0.1869 -0.4555
 3297ntf    fn416513   0.653   3.823   6.485 -0.3155 -0.1313 -0.6412
 3297ntf    fn416514   0.513   3.774   6.340 -0.0298 -0.6602 -0.2274
 3297ntf    fn416515   0.619   3.625   6.447  0.2929  0.0796 -0.0845
 3298ntf    cn116516   2.093   4.614   4.466 -0.1041  0.2163  0.1254
 3298ntf    sn216517   2.243   4.512   4.483 -0.0055  0.2949 -0.2535
 3298ntf    nn316518   2.351   4.623   4.458  0.4129  0.0125  0.2794
 3298ntf    sn216519   2.449   4.639   4.336 -0.0121 -0.3032 -0.1059
 3298ntf    cn116520   2.568   4.510   4.382  0.0339 -0.1899  0.0960
 3298ntf    fn416521   1.986   4.539   4.484 -0.2072  0.3236 -0.0374
 3298ntf    fn416522   2.086   4.713   4.555 -0.0027  0.3043  0.0350
 3298ntf    fn416523   2.085   4.672   4.348 -0.2520 -0.0320  0.0143
 3298ntf    on516524   2.244   4.464   4.619  0.1150 -0.1262 -0.4030
 3298ntf    on516525   2.232   4.415   4.378 -0.5291 -0.3231  0.3585
 3298ntf    on516526   2.525   4.761   4.349 -0.3451 -0.0711 -0.3280
 3298ntf    on516527   2.395   4.606   4.207  0.0161 -0.4242 -0.0859
 3298ntf    fn416528   2.654   4.547   4.475 -0.3948  0.4146  0.2567
 3298ntf    fn416529   2.513   4.401   4.432 -0.4523 -0.2483 -0.5546
 3298ntf    fn416530   2.633   4.470   4.274 -0.0468 -0.5802  0.1911
 3299ntf    cn116531   4.918   2.512   3.438 -0.2450 -0.4771 -0.1347
 3299ntf    sn216532   5.006   2.442   3.296  0.1658 -0.1155 -0.0607
 3299ntf    nn316533   4.891   2.455   3.190  0.5567 -0.0665 -0.4851
 3299ntf    sn216534   4.873   2.536   3.057 -0.0258  0.2309 -0.2332
 3299ntf    cn116535   4.996   2.438   2.963  0.0147 -0.1812  0.2469
 3299ntf    fn416536   4.844   2.616   3.400 -0.0130 -0.3075 -0.1259
 3299ntf    fn416537   4.830   2.431   3.494 -0.2800 -0.1428  0.3060
 3299ntf    fn416538   4.997   2.547   3.538  0.2419 -0.1433 -0.6335
 3299ntf    on516539   5.124   2.524   3.283 -0.1880  0.5403  0.7835
 3299ntf    on516540   5.014   2.302   3.328 -1.2208 -0.1620  0.1218
 3299ntf    on516541   4.927   2.669   3.069  0.1149  0.0740  0.9549
 3299ntf    on516542   4.750   2.505   2.988  0.0839 -0.6603 -0.0505
 3299ntf    fn416543   5.031   2.497   2.850 -0.0374  0.1208  0.3856
 3299ntf    fn416544   5.104   2.408   3.033  0.0757  0.1389  0.2930
 3299ntf    fn416545   4.943   2.321   2.932  0.0732 -0.1841  0.1593
 3300ntf    cn116546   3.915   0.271   5.358  0.2069 -0.2853 -0.2784
 3300ntf    sn216547   3.957   0.272   5.181  0.1877  0.2650 -0.2825
 3300ntf    nn316548   3.842   0.360   5.122 -0.0936  0.1622  0.1067
 3300ntf    sn216549   3.706   0.307   5.064  0.3160 -0.2619 -0.4835
 3300ntf    cn116550   3.763   0.247   4.902 -0.1808 -0.3196 -0.6379
 3300ntf    fn416551   3.895   0.392   5.407  0.3916 -0.1386 -0.5598
 3300ntf    fn416552   3.808   0.195   5.376 -0.0202  0.1850  0.3986
 3300ntf    fn416553   4.009   0.211   5.430 -0.2904 -0.7259  0.0138
 3300ntf    on516554   4.081   0.346   5.177  0.4462 -0.1249  0.3004
 3300ntf    on516555   3.953   0.131   5.151 -0.2690  0.3038 -0.4088
 3300ntf    on516556   3.620   0.420   5.039  0.2830 -0.1150  0.2652
 3300ntf    on516557   3.648   0.194   5.133  0.4387 -0.0859 -0.0910
 3300ntf    fn416558   3.874   0.176   4.909 -0.2358 -0.3469  0.0199
 3300ntf    fn416559   3.679   0.158   4.853 -1.0169 -0.0580  0.2933
 3300ntf    fn416560   3.777   0.346   4.815  0.4414  0.1808  0.0230
 3301ntf    cn116561   0.113   6.554   4.042  0.1221 -0.1904 -0.2904
 3301ntf    sn216562   0.147   6.728   4.004 -0.0955 -0.0557  0.1167
 3301ntf    nn316563   0.031   6.802   4.079  0.0131  0.1901  0.0471
 3301ntf    sn216564   0.007   6.855   4.225  0.5579 -0.0317  0.2175
 3301ntf    cn116565  -0.137   6.761   4.283  0.1959  0.2280 -0.2581
 3301ntf    fn416566   0.116   6.535   4.173 -0.1372  0.3029 -0.2096
 3301ntf    fn416567  -0.004   6.508   3.999 -0.1225  0.0619  0.0990
 3301ntf    fn416568   0.194   6.464   3.990 -0.1283 -0.2085 -0.6606
 3301ntf    on516569   0.281   6.747   4.056 -0.0958  0.2642  0.0096
 3301ntf    on516570   0.131   6.737   3.861 -0.5672  0.1021  0.1785
 3301ntf    on516571  -0.041   6.991   4.223  0.2304 -0.1490  0.0632
 3301ntf    on516572   0.114   6.823   4.316  0.3589 -0.7601  0.2020
 3301ntf    fn416573  -0.107   6.633   4.293  0.1334  0.1685 -0.7882
 3301ntf    fn416574  -0.180   6.806   4.400  0.3481  0.0387 -0.1282
 3301ntf    fn416575  -0.235   6.766   4.194 -0.1823  0.2621  0.1622
 3302ntf    cn116576   0.859   1.089   0.984  0.4503  0.0263 -0.4775
 3302ntf    sn216577   0.972   0.965   1.052  0.0923  0.0608  0.1824
 3302ntf    nn316578   1.022   0.900   0.919  0.0322  0.1625  0.1101
 3302ntf    sn216579   1.073   0.754   0.890 -0.2116  0.1526 -0.2872
 3302ntf    cn116580   0.939   0.704   0.779 -0.2908 -0.3727  0.0433
 3302ntf    fn416581   0.781   1.140   1.078  0.8292 -0.1924 -0.0473
 3302ntf    fn416582   0.922   1.186   0.918 -0.5834  0.7706 -0.4065
 3302ntf    fn416583   0.772   1.033   0.901  0.0927 -0.4572  0.2200
 3302ntf    on516584   1.061   1.052   1.126  0.0646  0.0412  0.2393
 3302ntf    on516585   0.881   0.877   1.120  0.6112 -0.5507  0.0958
 3302ntf    on516586   1.079   0.665   1.004 -0.3130  0.3484 -0.1280
 3302ntf    on516587   1.190   0.755   0.806 -0.2105  0.1606 -0.2855
 3302ntf    fn416588   0.957   0.577   0.746  0.5466 -0.2760  0.1080
 3302ntf    fn416589   0.821   0.714   0.839  0.0190 -0.2647  0.6455
 3302ntf    fn416590   0.933   0.774   0.667  0.6668 -0.1868  0.1078
 3303ntf    cn116591   6.227   1.700   2.067  0.1079  0.1755  0.5253
 3303ntf    sn216592   6.165   1.574   2.183  0.0275 -0.1068  0.1766
 3303ntf    nn316593   6.127   1.662   2.307  0.1170 -0.1251  0.2168
 3303ntf    sn216594   5.992   1.725   2.357  0.0736  0.0037 -0.0622
 3303ntf    cn116595   6.059   1.874   2.437 -0.3339 -0.0182  0.3274
 3303ntf    fn416596   6.301   1.648   1.970 -0.3429  0.1283  0.2023
 3303ntf    fn416597   6.141   1.778   2.002  0.1819  0.0481  0.2744
 3303ntf    fn416598   6.315   1.780   2.125  0.3273 -0.0643  0.5239
 3303ntf    on516599   6.060   1.510   2.107  0.2745  0.1848 -0.4212
 3303ntf    on516600   6.282   1.495   2.212 -0.4490 -0.6835  0.5658
 3303ntf    on516601   5.938   1.653   2.470 -0.3827 -0.2000 -0.4090
 3303ntf    on516602   5.896   1.779   2.264 -0.0270 -0.1216 -0.0317
 3303ntf    fn416603   5.968   1.952   2.491 -0.4225  0.1766 -0.1015
 3303ntf    fn416604   6.143   1.841   2.533  0.0117  0.2263  0.1143
 3303ntf    fn416605   6.128   1.946   2.350 -0.0960 -0.3042  0.2761
 3304ntf    cn116606   3.939   4.468   1.817  0.4885 -0.4213  0.0274
 3304ntf    sn216607   4.042   4.408   1.955  0.3353 -0.1887  0.2437
 3304ntf    nn316608   3.928   4.352   2.048  0.1978 -0.2095  0.0637
 3304ntf    sn216609   3.874   4.205   2.044  0.0945 -0.1784  0.3161
 3304ntf    cn116610   3.999   4.124   2.149  0.1647 -0.4793  0.0034
 3304ntf    fn416611   4.002   4.537   1.723  0.0811  0.4393  0.3765
 3304ntf    fn416612   3.874   4.369   1.759  0.5572 -0.3992 -0.0889
 3304ntf    fn416613   3.848   4.547   1.872  0.3164 -0.7323  0.1873
 3304ntf    on516614   4.130   4.311   1.897  0.1481 -0.0485 -0.2819
 3304ntf    on516615   4.097   4.533   2.001  0.5573 -0.1512 -0.1213
 3304ntf    on516616   3.883   4.134   1.918 -0.2283  0.5651 -0.1324
 3304ntf    on516617   3.755   4.186   2.124  0.1073  0.1747  0.4183
 3304ntf    fn416618   4.103   4.084   2.078  0.4969 -0.2854  0.3771
 3304ntf    fn416619   4.056   4.210   2.231  0.6542  0.0330 -0.8622
 3304ntf    fn416620   3.951   4.023   2.220 -0.0076 -0.5347 -0.1868
 3305ntf    cn116621   3.765   0.922   3.335 -0.0079  0.0811  0.1387
 3305ntf    sn216622   3.942   0.884   3.320 -0.0260 -0.0769  0.3100
 3305ntf    nn316623   4.017   0.982   3.417 -0.1543  0.1085  0.2241
 3305ntf    sn216624   4.130   0.953   3.522 -0.0140  0.1071  0.0721
 3305ntf    cn116625   4.274   0.993   3.418  0.1957 -0.1550  0.2600
 3305ntf    fn416626   3.733   1.043   3.293  0.6307  0.2499  0.1409
 3305ntf    fn416627   3.701   0.832   3.262 -0.2494  0.0501  0.3858
 3305ntf    fn416628   3.724   0.917   3.461  0.3279  0.2783  0.2548
 3305ntf    on516629   3.956   0.745   3.354  0.1052 -0.1380  0.0141
 3305ntf    on516630   3.969   0.927   3.185 -0.2776  0.2631  0.3647
 3305ntf    on516631   4.156   0.817   3.563  0.2287  0.4371  1.0533
 3305ntf    on516632   4.132   1.046   3.632  0.0549  0.4634 -0.2287
 3305ntf    fn416633   4.279   0.928   3.303  0.3938  0.0060  0.1757
 3305ntf    fn416634   4.287   1.122   3.390  0.7449 -0.3150 -0.2383
 3305ntf    fn416635   4.390   0.959   3.474  0.1809 -0.0580  0.3509
 3306ntf    cn116636   3.103   3.727   3.027  0.1109  0.4334 -0.1269
 3306ntf    sn216637   3.280   3.755   3.058  0.1702  0.1842 -0.2438
 3306ntf    nn316638   3.345   3.690   2.930  0.3935 -0.5370  0.2290
 3306ntf    sn216639   3.372   3.745   2.786 -0.1265  0.2267  0.4158
 3306ntf    cn116640   3.553   3.763   2.786 -0.1338  0.3051  0.1276
 3306ntf    fn416641   3.071   3.608   2.978  0.6718  0.1256  0.2448
 3306ntf    fn416642   3.028   3.741   3.135  0.1237 -0.1361 -0.0399
 3306ntf    fn416643   3.054   3.809   2.936 -0.3840  0.1217 -0.1467
 3306ntf    on516644   3.294   3.898   3.063  0.7054  0.1369 -0.2970
 3306ntf    on516645   3.293   3.674   3.177  0.7919  0.4748 -0.1130
 3306ntf    on516646   3.325   3.878   2.756  0.4664  0.2001 -0.6925
 3306ntf    on516647   3.355   3.651   2.678 -0.2979  0.4385  0.2577
 3306ntf    fn416648   3.596   3.832   2.891 -0.0882  0.5636 -0.0604
 3306ntf    fn416649   3.621   3.649   2.791  0.5166  0.6896  0.2703
 3306ntf    fn416650   3.598   3.827   2.679  0.3573  0.1783  0.2565
 3307ntf    cn116651   1.337   2.096   3.679  0.1689  0.2024  0.1155
 3307ntf    sn216652   1.167   2.041   3.710  0.0810  0.3936 -0.0244
 3307ntf    nn316653   1.089   2.174   3.736  0.6220  0.7183 -0.0540
 3307ntf    sn216654   1.071   2.239   3.879  0.3903 -0.2274  0.3534
 3307ntf    cn116655   0.899   2.195   3.922  0.3119 -0.0931  0.1784
 3307ntf    fn416656   1.419   1.999   3.643  0.4964  0.6618 -0.3794
 3307ntf    fn416657   1.332   2.179   3.576 -0.4729  0.0075 -0.0182
 3307ntf    fn416658   1.389   2.169   3.776  0.6437  0.0053  0.0145
 3307ntf    on516659   1.125   1.976   3.588 -0.3325 -0.3805  0.5201
 3307ntf    on516660   1.175   1.954   3.825 -0.3481 -0.1862 -0.4201
 3307ntf    on516661   1.072   2.382   3.870  0.0136 -0.2284  0.2683
 3307ntf    on516662   1.152   2.185   3.985 -0.0575 -0.4113  0.6055
 3307ntf    fn416663   0.883   2.066   3.897  0.3592 -0.0722  0.0366
 3307ntf    fn416664   0.864   2.209   4.048 -0.4075 -0.7128  0.0500
 3307ntf    fn416665   0.813   2.269   3.855  0.3274  0.1299  0.4051
 3308ntf    cn116666   1.887   6.109   1.726  0.0252  0.2511  0.0453
 3308ntf    sn216667   2.010   6.163   1.849  0.1662 -0.0609  0.0407
 3308ntf    nn316668   1.978   6.316   1.859 -0.0002 -0.0653 -0.3776
 3308ntf    sn216669   2.009   6.424   1.969  0.0152 -0.7011  0.2546
 3308ntf    cn116670   1.855   6.428   2.066 -0.1966 -0.0995 -0.0973
 3308ntf    fn416671   1.761   6.120   1.763  0.1535 -0.1527  0.6015
 3308ntf    fn416672   1.893   6.171   1.609 -0.4127  0.0047 -0.1100
 3308ntf    fn416673   1.896   5.979   1.704  0.0000  0.0976  0.9181
 3308ntf    on516674   1.967   6.071   1.952 -0.5698  0.4665  0.2151
 3308ntf    on516675   2.133   6.127   1.782 -0.2202 -0.1624 -0.6312
 3308ntf    on516676   2.011   6.556   1.911 -0.4362 -0.7687  0.0787
 3308ntf    on516677   2.113   6.398   2.065 -0.0509 -0.2188  0.4618
 3308ntf    fn416678   1.757   6.483   1.997 -0.2450 -0.1557 -0.0733
 3308ntf    fn416679   1.805   6.306   2.078  0.3245 -0.3145 -0.0777
 3308ntf    fn416680   1.863   6.492   2.181 -0.3048 -0.1707 -0.0499
 3309ntf    cn116681   5.638   1.988   4.417 -0.2660  0.6161 -0.3856
 3309ntf    sn216682   5.497   1.895   4.485  0.1527  0.2149 -0.0606
 3309ntf    nn316683   5.569   1.756   4.495  0.2129  0.2335 -0.2247
 3309ntf    sn216684   5.577   1.650   4.610 -0.1628  0.3257 -0.1138
 3309ntf    cn116685   5.744   1.686   4.670  0.0037 -0.0932 -0.3191
 3309ntf    fn416686   5.692   1.937   4.308 -0.1890 -0.0092 -0.0604
 3309ntf    fn416687   5.607   2.113   4.384  0.2276  0.6536 -0.7128
 3309ntf    fn416688   5.736   2.002   4.504 -0.2211 -0.1113 -0.3119
 3309ntf    on516689   5.471   1.961   4.610 -0.3636  0.5385 -0.3327
 3309ntf    on516690   5.398   1.898   4.379  0.1115  0.4133 -0.0170
 3309ntf    on516691   5.580   1.515   4.560  1.0634  0.5255 -0.6045
 3309ntf    on516692   5.498   1.678   4.728 -0.0105  0.2647  0.0041
 3309ntf    fn416693   5.841   1.683   4.580  0.1062  0.6446 -0.2439
 3309ntf    fn416694   5.754   1.805   4.727 -0.1807  0.1267 -0.7428
 3309ntf    fn416695   5.781   1.598   4.762 -0.4329  0.4591  0.4022
 3310ntf    cn116696   7.034   5.585   6.268  0.1597  0.3467 -0.1408
 3310ntf    sn216697   6.976   5.682   6.410 -0.1785  0.0361 -0.0660
 3310ntf    nn316698   6.957   5.571   6.519 -0.2074  0.3975  0.2996
 3310ntf    sn216699   7.044   5.544   6.648 -0.1417 -0.4082  0.0907
 3310ntf    cn116700   7.170   5.426   6.592  0.3511 -0.0337  0.4012
 3310ntf    fn416701   7.157   5.538   6.286  0.1767  0.5592  0.3290
 3310ntf    fn416702   6.954   5.483   6.244  0.3895  0.2091 -0.3229
 3310ntf    fn416703   7.036   5.666   6.164 -0.2736  0.6033  0.0518
 3310ntf    on516704   7.080   5.779   6.433  0.0227 -0.1721 -0.1092
 3310ntf    on516705   6.848   5.735   6.368 -0.1009 -0.0135 -0.3686
 3310ntf    on516706   6.977   5.458   6.742  0.0904 -1.2881 -0.5294
 3310ntf    on516707   7.122   5.652   6.703 -0.4801  0.0413 -0.3018
 3310ntf    fn416708   7.234   5.378   6.697  0.4200 -0.7551  0.0361
 3310ntf    fn416709   7.125   5.327   6.516  0.1768  0.3628 -0.0154
 3310ntf    fn416710   7.266   5.481   6.520  0.0135 -0.0919 -0.1055
 3311ntf    cn116711   7.104   2.328   3.192  0.0261  0.4411 -0.1770
 3311ntf    sn216712   7.255   2.239   3.241 -0.2762 -0.0551 -0.1384
 3311ntf    nn316713   7.350   2.271   3.120  0.7231 -0.3352  0.5540
 3311ntf    sn216714   7.400   2.186   2.998  0.1877  0.1159  0.0103
 3311ntf    cn116715   7.557   2.118   3.060  0.1487  0.1424  0.1377
 3311ntf    fn416716   7.124   2.458   3.173 -0.2450  0.4028 -0.7320
 3311ntf    fn416717   7.056   2.286   3.076 -0.0483 -0.3025  0.1200
 3311ntf    fn416718   7.013   2.319   3.287  0.3277  0.0489  0.0790
 3311ntf    on516719   7.294   2.321   3.353  0.2014  0.0633 -0.3858
 3311ntf    on516720   7.215   2.102   3.261  1.2937 -0.4029  0.8083
 3311ntf    on516721   7.446   2.261   2.883 -0.3085  0.0579 -0.2252
 3311ntf    on516722   7.325   2.070   2.958  0.5128  0.0316 -0.3681
 3311ntf    fn416723   7.633   2.208   3.119  0.6805 -0.1523 -0.0897
 3311ntf    fn416724   7.539   2.016   3.142  0.0767 -0.2208 -0.3233
 3311ntf    fn416725   7.630   2.068   2.961 -0.1239 -0.0312  0.0237
 3312ntf    cn116726   5.100   1.407   5.361  0.3615 -0.2048 -0.1503
 3312ntf    sn216727   5.058   1.275   5.244  0.0993 -0.1058 -0.1690
 3312ntf    nn316728   4.906   1.258   5.276  0.1631  0.3164  0.3519
 3312ntf    sn216729   4.841   1.183   5.398 -0.1944  0.1158  0.0399
 3312ntf    cn116730   4.792   1.024   5.325 -0.0985 -0.0672  0.3719
 3312ntf    fn416731   5.230   1.434   5.360  0.2584  0.3411  0.3683
 3312ntf    fn416732   5.038   1.521   5.336  0.5523 -0.1002 -0.1481
 3312ntf    fn416733   5.073   1.383   5.488  0.0186  0.2802 -0.1295
 3312ntf    on516734   5.082   1.332   5.113 -0.2593  0.1121 -0.1418
 3312ntf    on516735   5.146   1.169   5.285  0.2113 -0.0857 -0.3529
 3312ntf    on516736   4.713   1.242   5.428 -0.5201 -0.2304 -0.6460
 3312ntf    on516737   4.923   1.133   5.505 -0.0558 -0.3073 -0.2628
 3312ntf    fn416738   4.753   1.029   5.199  0.2624  0.1053  0.2681
 3312ntf    fn416739   4.897   0.945   5.337 -0.1923 -0.2262  0.1624
 3312ntf    fn416740   4.696   0.971   5.400 -0.0196 -0.8036 -0.0344
 3313ntf    cn116741   0.722   6.979   3.563  0.0914  0.3739  0.2254
 3313ntf    sn216742   0.836   7.108   3.623  0.1482  0.4457 -0.0357
 3313ntf    nn316743   0.910   7.026   3.735 -0.0585  0.3617  0.0403
 3313ntf    sn216744   1.051   7.061   3.793 -0.0631  0.0903  0.2165
 3313ntf    cn116745   1.066   6.921   3.908 -0.4308  0.0636  0.2346
 3313ntf    fn416746   0.797   6.877   3.524 -0.0989  0.4921 -0.4652
 3313ntf    fn416747   0.637   6.924   3.648  0.0716 -0.0253 -0.0492
 3313ntf    fn416748   0.650   7.015   3.458  0.3384  0.3147  0.0323
 3313ntf    on516749   0.912   7.139   3.504 -0.0171  0.1239 -0.2283
 3313ntf    on516750   0.749   7.215   3.665 -0.3682  0.0311 -0.0293
 3313ntf    on516751   1.039   7.178   3.877  0.1194  0.2707 -0.0077
 3313ntf    on516752   1.165   7.046   3.707 -0.2248 -0.3717  0.0831
 3313ntf    fn416753   1.185   6.925   3.966 -0.3771 -0.1967  0.1421
 3313ntf    fn416754   0.982   6.931   4.009 -0.2499  0.0244  0.3904
 3313ntf    fn416755   1.047   6.810   3.839  0.0111  0.1586 -0.0427
 3314ntf    cn116756   0.171   0.859   1.997  0.6355  0.1429  0.2014
 3314ntf    sn216757   0.288   0.740   1.925  0.0142 -0.1834 -0.2828
 3314ntf    nn316758   0.208   0.605   1.929 -0.3202  0.0222  0.0285
 3314ntf    sn216759   0.222   0.494   2.040  0.2695  0.0881  0.0262
 3314ntf    cn116760   0.368   0.407   1.976  0.5358  0.4972  0.0786
 3314ntf    fn416761   0.061   0.854   1.924  0.4948  0.2438  0.4090
 3314ntf    fn416762   0.144   0.835   2.124  0.6889 -0.4052  0.1139
 3314ntf    fn416763   0.203   0.987   1.995 -0.0554  0.3166  0.1646
 3314ntf    on516764   0.307   0.780   1.788  1.2044 -0.2272 -0.1453
 3314ntf    on516765   0.409   0.749   2.004  0.0708  0.0419 -0.3952
 3314ntf    on516766   0.123   0.388   2.037  0.4516 -0.0706 -0.4673
 3314ntf    on516767   0.259   0.541   2.171  0.5326  0.1793 -0.0807
 3314ntf    fn416768   0.431   0.342   2.072 -0.1360 -0.0640  0.1453
 3314ntf    fn416769   0.341   0.318   1.882  0.0700  0.2667  0.4313
 3314ntf    fn416770   0.461   0.491   1.931  0.4553  0.5303 -0.0281
 3315ntf    cn116771   3.721   2.426   3.509 -0.5335 -0.2817 -0.6101
 3315ntf    sn216772   3.820   2.275   3.529 -0.0215  0.1080 -0.1521
 3315ntf    nn316773   3.750   2.186   3.420  0.2057  0.1950 -0.3707
 3315ntf    sn216774   3.728   2.031   3.412  0.2181  0.1664  0.1136
 3315ntf    cn116775   3.605   1.998   3.543  0.2668 -0.3049  0.0443
 3315ntf    fn416776   3.741   2.513   3.607  0.1254 -0.4405 -0.5980
 3315ntf    fn416777   3.748   2.488   3.395  0.4601  0.1399 -0.1571
 3315ntf    fn416778   3.591   2.405   3.524 -0.3946 -0.2899  0.6426
 3315ntf    on516779   3.955   2.316   3.501  0.3316 -0.8262  0.1583
 3315ntf    on516780   3.793   2.242   3.667  0.0832  0.2638 -0.0949
 3315ntf    on516781   3.838   1.948   3.454  0.3264 -0.2463 -0.9419
 3315ntf    on516782   3.658   1.989   3.293 -0.5386  0.4342  0.4532
 3315ntf    fn416783   3.652   2.040   3.659 -0.4365  0.1789  0.1604
 3315ntf    fn416784   3.495   2.068   3.523  0.3050 -0.1167  0.4793
 3315ntf    fn416785   3.557   1.877   3.562 -0.3800 -0.1489 -0.5195
 3316ntf    cn116786   0.151   4.762   2.952 -0.0845  0.1675  0.0567
 3316ntf    sn216787   0.313   4.816   3.012  0.0028 -0.1665  0.1236
 3316ntf    nn316788   0.292   4.970   3.036  0.3317 -0.1014 -0.0011
 3316ntf    sn216789   0.383   5.081   3.101  0.0710  0.2338 -0.2080
 3316ntf    cn116790   0.297   5.144   3.248  0.0499 -0.5763  0.1308
 3316ntf    fn416791   0.057   4.786   3.042  0.1700 -0.4714  0.5058
 3316ntf    fn416792   0.113   4.826   2.842 -0.2621 -0.0744 -0.0243
 3316ntf    fn416793   0.140   4.633   2.923 -0.3351  0.1629  0.1699
 3316ntf    on516794   0.336   4.749   3.138  0.3299 -0.1419  0.0777
 3316ntf    on516795   0.395   4.775   2.900  0.4902  0.5417  0.2149
 3316ntf    on516796   0.388   5.201   3.021  0.1837  0.0357 -0.5001
 3316ntf    on516797   0.514   5.040   3.144 -0.1407  0.1465  0.3641
 3316ntf    fn416798   0.286   5.052   3.343  0.2826 -0.1336  0.5892
 3316ntf    fn416799   0.350   5.252   3.303  0.1686 -0.6001  0.0633
 3316ntf    fn416800   0.174   5.177   3.214  0.4335  0.2246 -0.5115
 3317ntf    cn116801   2.370   3.479   3.230 -0.3144 -0.1232 -0.2648
 3317ntf    sn216802   2.487   3.341   3.251 -0.0320  0.1503 -0.0425
 3317ntf    nn316803   2.579   3.368   3.127 -0.5556  0.3600 -0.3892
 3317ntf    sn216804   2.613   3.271   3.008  0.3069 -0.0799  0.1974
 3317ntf    cn116805   2.792   3.256   3.034  0.3284 -0.0613  0.0587
 3317ntf    fn416806   2.264   3.456   3.305  0.0817 -0.3716  0.2273
 3317ntf    fn416807   2.421   3.598   3.257  0.1420 -0.3258 -0.2303
 3317ntf    fn416808   2.329   3.491   3.105 -0.3555  0.5566 -0.1858
 3317ntf    on516809   2.550   3.374   3.377  0.1642  0.1216 -0.1330
 3317ntf    on516810   2.405   3.223   3.241 -0.0977  0.1805  0.1327
 3317ntf    on516811   2.610   3.335   2.878  0.1190 -1.0339 -0.2738
 3317ntf    on516812   2.576   3.132   3.010  0.2302 -0.0641 -0.1094
 3317ntf    fn416813   2.827   3.218   3.155  0.2460  0.0070  0.1042
 3317ntf    fn416814   2.846   3.163   2.957 -0.0258 -0.4204  0.2379
 3317ntf    fn416815   2.855   3.369   3.007  0.0777  0.0727  0.0333
 3318ntf    cn116816   0.504   1.336   0.876 -0.3468 -0.0741  0.2709
 3318ntf    sn216817   0.358   1.294   0.777 -0.1291 -0.1302 -0.0300
 3318ntf    nn316818   0.425   1.269   0.637  0.5166  0.1528  0.2274
 3318ntf    sn216819   0.477   1.381   0.540 -0.0391 -0.0447 -0.3018
 3318ntf    cn116820   0.333   1.396   0.430  0.1498  0.0512 -0.5359
 3318ntf    fn416821   0.614   1.286   0.821 -0.5717  0.1977 -0.4365
 3318ntf    fn416822   0.528   1.465   0.860 -0.0520 -0.1859 -0.2235
 3318ntf    fn416823   0.502   1.309   1.005  0.0957 -0.3671  0.2213
 3318ntf    on516824   0.309   1.170   0.833 -0.6219  0.1571  0.1925
 3318ntf    on516825   0.268   1.406   0.791  0.4474  0.3064  0.1705
 3318ntf    on516826   0.584   1.333   0.457  0.0366 -0.4100  0.0015
 3318ntf    on516827   0.503   1.512   0.596  0.9763 -0.2753 -0.2163
 3318ntf    fn416828   0.353   1.494   0.344 -0.5089  0.4286 -0.2682
 3318ntf    fn416829   0.312   1.284   0.362  0.1312 -0.2140 -0.0961
 3318ntf    fn416830   0.220   1.427   0.491  0.1854 -0.2397 -0.3179
 3319ntf    cn116831   2.362   2.711   5.039 -0.4565 -0.3178  0.1184
 3319ntf    sn216832   2.308   2.610   5.180 -0.0926 -0.2336  0.3205
 3319ntf    nn316833   2.408   2.662   5.289 -0.0664  0.9818 -0.2692
 3319ntf    sn216834   2.387   2.792   5.374 -0.2965  0.5523  0.3419
 3319ntf    cn116835   2.296   2.735   5.521  0.1027 -0.3003  0.2622
 3319ntf    fn416836   2.315   2.679   4.919 -0.0516  0.2905 -0.2041
 3319ntf    fn416837   2.338   2.840   5.054 -0.0440 -0.2158 -0.0739
 3319ntf    fn416838   2.493   2.702   5.021 -0.3898  0.1124  0.3658
 3319ntf    on516839   2.168   2.641   5.195 -0.1632 -0.3928  0.0129
 3319ntf    on516840   2.337   2.478   5.130  0.2562 -0.3095  0.7176
 3319ntf    on516841   2.311   2.902   5.320 -0.2965 -0.2985 -1.4437
 3319ntf    on516842   2.516   2.825   5.430 -0.1069  0.0400  0.2127
 3319ntf    fn416843   2.268   2.834   5.603  0.3694  0.1868 -0.2273
 3319ntf    fn416844   2.185   2.665   5.503 -0.1182  0.1853 -0.3003
 3319ntf    fn416845   2.372   2.653   5.591 -0.0790 -0.5174  0.2058
 3320ntf    cn116846   3.769   5.314   6.784 -0.1050 -0.2102  0.1969
 3320ntf    sn216847   3.648   5.181   6.810 -0.1270 -0.1554  0.3734
 3320ntf    nn316848   3.755   5.074   6.852  0.0781 -0.3075 -0.5196
 3320ntf    sn216849   3.745   4.986   6.981  0.0556 -0.0698 -0.3569
 3320ntf    cn116850   3.899   4.890   6.962  0.3859  0.2855  0.4724
 3320ntf    fn416851   3.708   5.430   6.768  0.1776 -0.0605  0.1882
 3320ntf    fn416852   3.853   5.337   6.884 -0.2219 -0.2170  0.2969
 3320ntf    fn416853   3.851   5.305   6.680 -0.0514 -0.5550  0.2692
 3320ntf    on516854   3.560   5.238   6.909 -0.3324 -0.1052  0.1627
 3320ntf    on516855   3.596   5.170   6.676  0.7888 -0.0455 -0.0004
 3320ntf    on516856   3.646   4.881   6.979 -0.1943  0.1490  0.3091
 3320ntf    on516857   3.782   5.049   7.105  0.8161 -0.3184 -0.4529
 3320ntf    fn416858   3.996   4.979   6.953  0.0835  0.5533 -0.2505
 3320ntf    fn416859   3.935   4.809   7.059  0.3622 -0.6829 -0.3108
 3320ntf    fn416860   3.901   4.819   6.850  0.3430  0.2301  0.5068
 3321ntf    cn116861   1.764   6.554   1.199  0.1288  0.5166  0.3544
 3321ntf    sn216862   1.618   6.622   1.282  0.0297  0.3164  0.3445
 3321ntf    nn316863   1.593   6.511   1.390  0.3023 -0.4088 -0.3316
 3321ntf    sn216864   1.498   6.386   1.383 -0.0511 -0.1803  0.3052
 3321ntf    cn116865   1.601   6.248   1.442  0.2902  0.2372  0.6972
 3321ntf    fn416866   1.739   6.450   1.121 -0.0422  0.0968  0.9621
 3321ntf    fn416867   1.826   6.646   1.127  0.0670  0.3040  0.0302
 3321ntf    fn416868   1.857   6.517   1.286  0.3110 -0.5214 -0.2662
 3321ntf    on516869   1.676   6.744   1.334  0.2958  0.4032 -0.1470
 3321ntf    on516870   1.535   6.636   1.166  0.0192 -0.1306  0.2988
 3321ntf    on516871   1.470   6.337   1.250 -0.1564  0.2641  0.1623
 3321ntf    on516872   1.386   6.391   1.474 -0.2826  0.0616  0.0114
 3321ntf    fn416873   1.660   6.267   1.558  0.0973  0.2187  0.7996
 3321ntf    fn416874   1.516   6.148   1.457 -0.0158  0.4344  0.3304
 3321ntf    fn416875   1.690   6.202   1.356 -0.6039 -0.0543 -0.0946
 3322ntf    cn116876   3.891   1.761   2.296  0.0591 -0.4975  0.0105
 3322ntf    sn216877   3.875   1.654   2.150  0.2656 -0.2609 -0.1865
 3322ntf    nn316878   3.739   1.579   2.170  0.0579  0.1837  0.0860
 3322ntf    sn216879   3.708   1.452   2.256 -0.1764  0.0819 -0.1462
 3322ntf    cn116880   3.561   1.390   2.168 -0.3176 -0.0090  0.1505
 3322ntf    fn416881   3.771   1.802   2.332 -0.1351 -0.9964 -0.0680
 3322ntf    fn416882   3.936   1.693   2.400  0.1363 -0.6992 -0.1539
 3322ntf    fn416883   3.971   1.867   2.283 -0.3565 -0.2342 -0.4082
 3322ntf    on516884   3.871   1.740   2.034 -0.9764  0.0645  0.0805
 3322ntf    on516885   3.992   1.570   2.153  0.2751 -0.2363  0.1882
 3322ntf    on516886   3.666   1.482   2.391 -0.0442 -0.1981 -0.0413
 3322ntf    on516887   3.799   1.340   2.244  0.0845  0.2793 -0.0296
 3322ntf    fn416888   3.512   1.283   2.228 -0.0091 -0.4253 -0.3393
 3322ntf    fn416889   3.458   1.473   2.171 -0.6042 -0.3556 -0.0693
 3322ntf    fn416890   3.588   1.361   2.042  0.1141  0.1133  0.2108
 3323ntf    cn116891   4.251   6.806   1.263  0.3945 -0.1280 -0.0552
 3323ntf    sn216892   4.216   6.801   1.441 -0.3244  0.0224 -0.1913
 3323ntf    nn316893   4.065   6.845   1.451 -0.1691  0.5250  0.0115
 3323ntf    sn216894   3.983   6.943   1.541 -0.3671  0.1063  0.2906
 3323ntf    cn116895   3.965   7.088   1.432 -0.1591 -0.2393 -0.2047
 3323ntf    fn416896   4.206   6.699   1.201  0.3028  0.0742 -0.3419
 3323ntf    fn416897   4.202   6.912   1.200 -0.2093 -0.1303  0.4033
 3323ntf    fn416898   4.381   6.807   1.238  0.3483  0.4219 -0.2976
 3323ntf    on516899   4.244   6.665   1.480 -0.7413  0.1460  0.5726
 3323ntf    on516900   4.313   6.889   1.502 -0.1923  0.1868 -0.6324
 3323ntf    on516901   4.047   6.994   1.659 -0.3496  0.5106  0.1082
 3323ntf    on516902   3.846   6.903   1.563 -0.5207  0.6306  0.3107
 3323ntf    fn416903   4.082   7.146   1.410 -0.2643 -0.1158 -0.4395
 3323ntf    fn416904   3.907   7.066   1.315 -0.4204 -0.3534 -0.0567
 3323ntf    fn416905   3.885   7.177   1.488 -0.1098 -0.1901 -0.2124
 3324ntf    cn116906   5.947   6.679   2.508 -0.1397 -0.3537 -0.1551
 3324ntf    sn216907   5.811   6.674   2.628  0.0309 -0.1109  0.0490
 3324ntf    nn316908   5.827   6.808   2.708 -0.0617 -0.2325  0.2722
 3324ntf    sn216909   5.789   6.954   2.667 -0.0801 -0.3259 -0.0486
 3324ntf    cn116910   5.739   7.017   2.831 -0.2000 -0.1261 -0.1616
 3324ntf    fn416911   6.053   6.657   2.583 -0.6526 -0.1360  0.6476
 3324ntf    fn416912   5.946   6.590   2.410 -0.0468 -0.5499  0.0218
 3324ntf    fn416913   5.975   6.796   2.454  0.1594 -0.4165 -0.1399
 3324ntf    on516914   5.689   6.660   2.552  0.1999 -0.1822 -0.2076
 3324ntf    on516915   5.848   6.559   2.708 -0.4759 -0.2709  0.0614
 3324ntf    on516916   5.679   6.973   2.575 -0.0277  0.3097  0.0113
 3324ntf    on516917   5.908   7.029   2.636 -0.6575  0.5618 -0.1583
 3324ntf    fn416918   5.695   7.141   2.818 -0.4248 -0.1805  0.0821
 3324ntf    fn416919   5.646   6.945   2.890  0.0930 -0.3162  0.0684
 3324ntf    fn416920   5.842   7.014   2.914 -0.2547 -0.3310 -0.1025
 3325ntf    cn116921   6.162   6.571   0.714  0.2151 -0.1870 -0.2153
 3325ntf    sn216922   6.016   6.496   0.636  0.1002 -0.0711 -0.1115
 3325ntf    nn316923   6.024   6.345   0.677 -0.2665 -0.0307  0.1147
 3325ntf    sn216924   5.961   6.213   0.619  0.1291 -0.0863 -0.1941
 3325ntf    cn116925   6.084   6.159   0.496  0.3450 -0.0463  0.0047
 3325ntf    fn416926   6.190   6.687   0.655 -0.4086  0.1124  0.0717
 3325ntf    fn416927   6.144   6.602   0.841  0.4414  0.1209 -0.2547
 3325ntf    fn416928   6.269   6.493   0.715  0.4174  0.0944  0.4769
 3325ntf    on516929   5.911   6.571   0.701  0.3985  0.0665  0.2227
 3325ntf    on516930   6.044   6.531   0.499  0.2499  0.0580 -0.0483
 3325ntf    on516931   5.843   6.242   0.540 -0.1724 -0.1174  0.2396
 3325ntf    on516932   5.954   6.112   0.721 -0.2256 -0.1077 -0.2371
 3325ntf    fn416933   6.099   6.239   0.392 -0.0441 -0.2331 -0.1990
 3325ntf    fn416934   6.207   6.145   0.541  0.4076  0.5566  0.0398
 3325ntf    fn416935   6.050   6.048   0.433  0.2431  0.0305 -0.0763
 3326ntf    cn116936   2.826   4.802   1.366  0.1984  0.4580 -0.0487
 3326ntf    sn216937   2.693   4.893   1.281 -0.0600  0.2321  0.1104
 3326ntf    nn316938   2.733   4.873   1.130 -0.3011 -0.2586  0.1100
 3326ntf    sn216939   2.680   4.770   1.024  0.2022 -0.1476 -0.2513
 3326ntf    cn116940   2.833   4.679   0.984  0.1554 -0.2505 -0.1998
 3326ntf    fn416941   2.826   4.672   1.343 -0.0136  0.3524  0.5239
 3326ntf    fn416942   2.949   4.830   1.326  0.2468 -0.1106 -0.3068
 3326ntf    fn416943   2.828   4.829   1.496 -0.1773  0.0212  0.0497
 3326ntf    on516944   2.574   4.828   1.328  0.0455 -0.1544 -0.1501
 3326ntf    on516945   2.715   5.026   1.332  0.0137  0.0006  0.6941
 3326ntf    on516946   2.648   4.824   0.895 -0.0286 -0.7288 -0.4407
 3326ntf    on516947   2.601   4.663   1.081  0.5987 -0.2807  0.0632
 3326ntf    fn416948   2.821   4.586   0.890 -0.3003  0.0751 -0.4687
 3326ntf    fn416949   2.926   4.765   0.946 -0.1518  0.1120 -0.1436
 3326ntf    fn416950   2.872   4.623   1.097 -0.1236 -0.5856 -0.2710
 3327ntf    cn116951   5.168   5.184   5.987 -0.3088 -0.2546  0.2976
 3327ntf    sn216952   5.275   5.175   5.840 -0.3208 -0.0963  0.2790
 3327ntf    nn316953   5.162   5.146   5.736  0.0696  0.1834 -0.2285
 3327ntf    sn216954   5.148   5.028   5.633 -0.1562 -0.1081  0.1338
 3327ntf    cn116955   5.066   4.906   5.740 -0.0680  0.1032  0.4428
 3327ntf    fn416956   5.108   5.069   6.011 -0.7952  0.0081  0.3589
 3327ntf    fn416957   5.241   5.214   6.093  0.0336 -0.0759  0.0147
 3327ntf    fn416958   5.073   5.274   5.964  0.1024  0.1568  0.1917
 3327ntf    on516959   5.331   5.307   5.823 -0.0964 -0.2144  0.0913
 3327ntf    on516960   5.358   5.063   5.876  0.2135  0.1951 -0.0396
 3327ntf    on516961   5.274   4.968   5.596 -0.0501  0.0658  0.2132
 3327ntf    on516962   5.042   5.052   5.538 -0.5375 -0.7143  0.3996
 3327ntf    fn416963   4.950   4.955   5.782 -0.5762 -0.4571 -0.2879
 3327ntf    fn416964   5.041   4.797   5.669 -0.4731  0.4853 -0.0028
 3327ntf    fn416965   5.129   4.876   5.853 -0.8290 -0.2088  0.7940
 3328ntf    cn116966   3.551   5.940   4.317 -0.3787  0.2650  0.1810
 3328ntf    sn216967   3.384   5.884   4.274 -0.1382 -0.1093 -0.2849
 3328ntf    nn316968   3.408   5.807   4.140 -0.1773 -0.2230 -0.2272
 3328ntf    sn216969   3.316   5.814   4.013 -0.3830  0.2389 -0.0553
 3328ntf    cn116970   3.377   5.970   3.942  0.0479 -0.1043 -0.4396
 3328ntf    fn416971   3.550   6.020   4.422  0.2478 -0.0196  0.4097
 3328ntf    fn416972   3.631   5.839   4.349  0.1383  0.5535 -0.1846
 3328ntf    fn416973   3.611   6.011   4.223  0.1492 -0.1386  0.2041
 3328ntf    on516974   3.338   5.801   4.383 -0.2560  0.7104  0.2987
 3328ntf    on516975   3.323   6.014   4.261  0.0032  0.0473  0.5291
 3328ntf    on516976   3.174   5.830   4.037 -0.4572 -0.2547 -0.1505
 3328ntf    on516977   3.359   5.709   3.924 -0.5582 -0.5169  0.7336
 3328ntf    fn416978   3.369   5.978   3.810 -0.0731 -0.1071 -0.4323
 3328ntf    fn416979   3.307   6.075   3.980 -0.0159 -0.1306 -0.4848
 3328ntf    fn416980   3.504   5.982   3.976  0.0973 -0.4401 -0.4941
 3329ntf    cn116981   4.444   0.622   2.508  0.4034 -0.1103  0.2078
 3329ntf    sn216982   4.345   0.684   2.647  0.3617  0.2905  0.0021
 3329ntf    nn316983   4.239   0.568   2.645  0.2840  0.3666 -0.2688
 3329ntf    sn216984   4.097   0.550   2.580  0.2115 -0.2124  0.0426
 3329ntf    cn116985   4.124   0.424   2.453 -0.2523  0.2249 -0.4950
 3329ntf    fn416986   4.541   0.707   2.481  0.0358  0.0328 -0.7120
 3329ntf    fn416987   4.500   0.504   2.528 -0.1389 -0.4834 -0.4187
 3329ntf    fn416988   4.374   0.615   2.395 -0.0397 -0.3708  0.4922
 3329ntf    on516989   4.432   0.667   2.761  0.0147  0.3878  0.2845
 3329ntf    on516990   4.294   0.816   2.619 -0.1014  0.2573  0.6642
 3329ntf    on516991   4.046   0.664   2.507  0.2598 -0.6498 -0.6709
 3329ntf    on516992   4.006   0.485   2.671  0.1953  0.1353  0.2766
 3329ntf    fn416993   4.011   0.394   2.390 -0.1429 -0.3610 -0.4154
 3329ntf    fn416994   4.212   0.475   2.367 -0.2818  0.5714 -0.3199
 3329ntf    fn416995   4.181   0.316   2.504 -0.1744  0.3888 -0.2352
 3330ntf    cn116996   2.319   4.932   5.765  0.2813  0.1034 -0.0810
 3330ntf    sn216997   2.350   4.903   5.588 -0.1871  0.2615 -0.1922
 3330ntf    nn316998   2.498   4.851   5.595 -0.3198 -0.1639 -0.5300
 3330ntf    sn216999   2.557   4.708   5.621  0.0908  0.0782 -0.1111
 3330ntf    cn117000   2.641   4.730   5.781 -0.1381  0.6725 -0.0696
 3330ntf    fn417001   2.417   4.999   5.824  0.2965  0.0398 -0.0346
 3330ntf    fn417002   2.199   4.987   5.780  0.2257  0.0475 -0.3202
 3330ntf    fn417003   2.321   4.822   5.838 -0.4231  0.2531  0.1707
 3330ntf    on517004   2.251   4.806   5.547 -0.2035  0.1031  0.2154
 3330ntf    on517005   2.334   5.035   5.533 -0.4576  0.3727  0.1502
 3330ntf    on517006   2.663   4.659   5.537  0.5719  0.5405  0.2193
 3330ntf    on517007   2.454   4.612   5.654  0.4115 -0.1655  0.1948
 3330ntf    fn417008   2.575   4.786   5.881 -0.0290  0.6708  0.0030
 3330ntf    fn417009   2.702   4.621   5.825 -0.1526  0.6066 -0.2149
 3330ntf    fn417010   2.739   4.817   5.773 -0.0927  0.6661  0.3633
 3331ntf    cn117011   2.864   0.457   4.002  0.2679  0.0986 -0.5803
 3331ntf    sn217012   2.902   0.591   4.118  0.0033 -0.1585 -0.1936
 3331ntf    nn317013   3.029   0.655   4.050  0.2218 -0.4095 -0.0221
 3331ntf    sn217014   3.172   0.661   4.112  0.2591  0.1604 -0.1585
 3331ntf    cn117015   3.185   0.842   4.114  0.1477  0.1640  0.2695
 3331ntf    fn417016   2.831   0.497   3.880  0.2743  0.0368 -0.6028
 3331ntf    fn417017   2.974   0.391   3.967  0.4105 -0.2135  0.4313
 3331ntf    fn417018   2.762   0.378   4.033  0.1985  0.3317 -0.2113
 3331ntf    on517019   2.790   0.681   4.100 -0.0085 -0.0342  0.4821
 3331ntf    on517020   2.921   0.539   4.251  0.4083  0.4099 -0.0207
 3331ntf    on517021   3.268   0.626   4.010  0.2775 -0.1153 -0.0473
 3331ntf    on517022   3.208   0.624   4.247 -0.5120  0.0151  0.0111
 3331ntf    fn417023   3.302   0.876   4.166  0.4409  0.1522 -0.3758
 3331ntf    fn417024   3.171   0.891   3.992  0.2792  0.0918  0.2265
 3331ntf    fn417025   3.100   0.902   4.197 -0.2506  0.7040 -0.5232
 3332ntf    cn117026   5.518   0.706   5.781 -0.3364 -0.0344 -0.1140
 3332ntf    sn217027   5.629   0.577   5.845 -0.0170  0.1799 -0.2378
 3332ntf    nn317028   5.731   0.561   5.727  0.0764  0.4549 -0.1961
 3332ntf    sn217029   5.711   0.464   5.604  0.1937  0.0847  0.0739
 3332ntf    cn117030   5.882   0.476   5.542  0.1806  0.6113  0.1298
 3332ntf    fn417031   5.467   0.675   5.664 -0.5116 -0.4585  0.0726
 3332ntf    fn417032   5.417   0.731   5.863 -0.0493 -0.1949  0.2951
 3332ntf    fn417033   5.590   0.816   5.765 -0.2023 -0.1347 -0.2013
 3332ntf    on517034   5.691   0.638   5.960  0.5637 -0.3820 -0.2481
 3332ntf    on517035   5.542   0.467   5.875  0.3457 -0.0128  0.1260
 3332ntf    on517036   5.620   0.512   5.504  0.7982 -0.3600 -0.7004
 3332ntf    on517037   5.697   0.327   5.646  0.9191 -0.4473 -1.3526
 3332ntf    fn417038   5.902   0.383   5.449 -0.0691  0.6034  0.0832
 3332ntf    fn417039   5.908   0.593   5.487  0.3763  0.2362 -0.5954
 3332ntf    fn417040   5.970   0.447   5.637  0.1684 -0.1765 -0.0913
 3333ntf    cn117041   6.430   5.167   2.058 -0.1608 -0.2391  0.2196
 3333ntf    sn217042   6.588   5.130   2.141 -0.1171  0.0393  0.2606
 3333ntf    nn317043   6.685   5.236   2.077 -0.1613  0.2649  0.5633
 3333ntf    sn217044   6.780   5.351   2.126  0.1323  0.2473  0.0446
 3333ntf    cn117045   6.935   5.258   2.135 -0.2584 -0.4290 -0.1490
 3333ntf    fn417046   6.435   5.174   1.926 -0.0893  0.3683  0.2524
 3333ntf    fn417047   6.339   5.073   2.077  0.0692 -0.5046  0.0150
 3333ntf    fn417048   6.371   5.280   2.095 -0.1735 -0.1210 -0.1580
 3333ntf    on517049   6.549   5.147   2.278 -0.0681  0.6240  0.2043
 3333ntf    on517050   6.621   4.995   2.102 -1.2311 -0.0781 -0.3259
 3333ntf    on517051   6.766   5.397   2.262 -0.0456  0.1892  0.0462
 3333ntf    on517052   6.797   5.447   2.020 -0.3464  0.2687 -0.0192
 3333ntf    fn417053   6.982   5.221   2.016 -0.4997  0.0762 -0.4041
 3333ntf    fn417054   7.031   5.323   2.199 -0.5855 -0.6207  0.5431
 3333ntf    fn417055   6.923   5.149   2.210 -0.1463 -0.3295  0.0134
 3334ntf    cn117056   5.886   4.306   0.535 -0.0127  0.5252 -0.1000
 3334ntf    sn217057   5.725   4.231   0.574  0.1473  0.2086 -0.0488
 3334ntf    nn317058   5.694   4.310   0.706 -0.3460  0.0073 -0.0455
 3334ntf    sn217059   5.611   4.274   0.835  0.2010 -0.1525  0.2660
 3334ntf    cn117060   5.742   4.305   0.956 -0.1231  0.3324  0.4951
 3334ntf    fn417061   5.932   4.261   0.419 -0.1820  0.8079 -0.2797
 3334ntf    fn417062   5.887   4.439   0.538 -0.1678  0.5331 -0.3916
 3334ntf    fn417063   5.975   4.267   0.625 -0.2497 -0.0108 -0.0960
 3334ntf    on517064   5.633   4.267   0.469 -0.1757  0.0180  0.1692
 3334ntf    on517065   5.763   4.092   0.583  0.9903  0.3813 -0.7149
 3334ntf    on517066   5.573   4.136   0.854 -0.1131 -0.1422 -0.2479
 3334ntf    on517067   5.516   4.373   0.877  0.3105  0.1218 -0.1222
 3334ntf    fn417068   5.700   4.330   1.079 -0.2644  0.3422  0.4449
 3334ntf    fn417069   5.829   4.204   0.954 -0.4174  0.0901 -0.3490
 3334ntf    fn417070   5.817   4.409   0.926 -0.2005  0.4601  0.7367
 3335ntf    cn117071   0.314   0.311   4.009  0.3800 -0.2768 -0.2158
 3335ntf    sn217072   0.438   0.440   4.040 -0.0991  0.0323  0.4455
 3335ntf    nn317073   0.355   0.571   4.021 -0.3231 -0.2029 -0.2206
 3335ntf    sn217074   0.374   0.690   3.921  0.1629 -0.0182  0.0871
 3335ntf    cn117075   0.400   0.812   4.053  0.1555 -0.2462  0.2995
 3335ntf    fn417076   0.272   0.317   3.883 -0.2235  0.0883 -0.0053
 3335ntf    fn417077   0.369   0.192   4.019  0.0850 -0.4176 -0.2546
 3335ntf    fn417078   0.213   0.307   4.094  0.5048  0.0897 -0.0477
 3335ntf    on517079   0.486   0.423   4.175  0.1394 -0.0887  0.3476
 3335ntf    on517080   0.536   0.418   3.937 -0.8126  0.4477 -0.3287
 3335ntf    on517081   0.252   0.734   3.858  0.3756 -0.1476 -0.4199
 3335ntf    on517082   0.493   0.714   3.843  0.1472 -0.6041 -0.1185
 3335ntf    fn417083   0.410   0.939   4.017 -0.6627 -0.1211  0.4855
 3335ntf    fn417084   0.303   0.804   4.143 -0.1514 -0.4447 -0.0413
 3335ntf    fn417085   0.511   0.795   4.122  0.2945 -0.2110  0.0843
 3336ntf    cn117086   4.825   2.664   5.437  0.2232  0.0651  0.0947
 3336ntf    sn217087   4.897   2.603   5.282 -0.2347  0.1025 -0.1364
 3336ntf    nn317088   4.767   2.534   5.227 -0.2555  0.2865 -0.3182
 3336ntf    sn217089   4.725   2.383   5.241 -0.0677  0.2703  0.1160
 3336ntf    cn117090   4.824   2.307   5.108  0.0644  0.1934  0.2589
 3336ntf    fn417091   4.917   2.707   5.522 -0.3339  0.0371  0.7271
 3336ntf    fn417092   4.734   2.758   5.416  0.0178 -0.1283  0.1150
 3336ntf    fn417093   4.754   2.571   5.499  0.3531 -0.2702 -0.2597
 3336ntf    on517094   4.928   2.725   5.212  0.9750 -0.4756 -0.6365
 3336ntf    on517095   5.012   2.524   5.321 -0.2498  0.1127 -0.0691
 3336ntf    on517096   4.590   2.371   5.192  0.0743  0.2785 -0.2853
 3336ntf    on517097   4.760   2.320   5.365 -0.1673 -0.3954 -0.1914
 3336ntf    fn417098   4.955   2.313   5.125  0.1114 -0.4042  0.1238
 3336ntf    fn417099   4.796   2.179   5.088 -0.2452  0.3170 -0.1062
 3336ntf    fn417100   4.810   2.363   4.989  0.1689  0.0125  0.1617
 3337ntf    cn117101   3.841   3.279   0.022  0.0587 -0.3456 -0.0058
 3337ntf    sn217102   3.805   3.219   0.190 -0.0483 -0.0166  0.0908
 3337ntf    nn317103   3.820   3.070   0.142 -0.6500 -0.1044  0.1745
 3337ntf    sn217104   3.869   2.939   0.213  0.1008 -0.0522 -0.2348
 3337ntf    cn117105   3.706   2.857   0.224 -0.0690  0.2737 -0.3171
 3337ntf    fn417106   3.920   3.201  -0.050  0.0207 -0.3709 -0.0203
 3337ntf    fn417107   3.727   3.289  -0.045  0.2348 -0.1197 -0.2765
 3337ntf    fn417108   3.900   3.397   0.016 -0.5355 -0.0717 -0.6544
 3337ntf    on517109   3.907   3.272   0.276 -0.2005 -0.1079  0.3271
 3337ntf    on517110   3.667   3.258   0.204 -0.1848 -0.3293 -0.3553
 3337ntf    on517111   3.922   2.948   0.347  0.2946 -0.4557 -0.2814
 3337ntf    on517112   3.941   2.849   0.127  0.2175 -0.3188  0.1360
 3337ntf    fn417113   3.664   2.817   0.106 -0.3986 -0.2954 -0.0122
 3337ntf    fn417114   3.702   2.751   0.302  0.0477  0.2639 -0.3239
 3337ntf    fn417115   3.618   2.945   0.270 -0.3474 -0.2874  0.2313
 3338ntf    cn117116   1.831   6.923   0.407  0.3947 -0.3856 -0.0224
 3338ntf    sn217117   1.779   7.006   0.560 -0.1710 -0.4950 -0.1566
 3338ntf    nn317118   1.890   6.955   0.658  0.0748  0.2418 -0.0433
 3338ntf    sn217119   1.938   7.010   0.797 -0.3333 -0.1737  0.2649
 3338ntf    cn117120   1.851   6.893   0.906  0.0504 -0.5566  0.1638
 3338ntf    fn417121   1.831   6.791   0.422  0.4434 -0.3627  0.1963
 3338ntf    fn417122   1.740   6.950   0.316  0.1006  0.1706  0.4300
 3338ntf    fn417123   1.949   6.961   0.360  0.3081  0.1835  0.2077
 3338ntf    on517124   1.792   7.146   0.528  0.1410 -0.4929 -0.0239
 3338ntf    on517125   1.649   6.952   0.592  0.0373 -0.6602  0.4290
 3338ntf    on517126   1.874   7.132   0.838  0.1077  0.0295  0.3477
 3338ntf    on517127   2.075   6.980   0.830 -0.3063 -0.3422  0.0049
 3338ntf    fn417128   1.904   6.772   0.892  0.0410 -0.5856  0.3761
 3338ntf    fn417129   1.873   6.928   1.032  0.5828 -0.2636 -0.0083
 3338ntf    fn417130   1.721   6.880   0.886  0.0307  0.0535 -0.1244
 3339ntf    cn117131   0.357   1.452   1.798 -0.0258  0.5235  0.2184
 3339ntf    sn217132   0.231   1.363   1.895  0.0036 -0.1536 -0.3566
 3339ntf    nn317133   0.151   1.482   1.959  0.0949 -0.2184 -0.1200
 3339ntf    sn217134   0.121   1.512   2.110 -0.0308 -0.3565 -0.1174
 3339ntf    cn117135  -0.031   1.414   2.132 -0.1529 -0.0571  0.3800
 3339ntf    fn417136   0.433   1.366   1.732 -0.1011 -0.0583  0.8726
 3339ntf    fn417137   0.311   1.530   1.702 -0.0551  0.0556 -0.1493
 3339ntf    fn417138   0.435   1.519   1.881  0.1185  0.0423  0.4779
 3339ntf    on517139   0.153   1.300   1.791 -0.2134  0.0801 -0.3361
 3339ntf    on517140   0.316   1.279   1.976  0.2436  0.2410 -0.1943
 3339ntf    on517141   0.074   1.648   2.124  0.3587 -0.1846 -0.4412
 3339ntf    on517142   0.217   1.471   2.209 -0.2293  0.1301  0.2830
 3339ntf    fn417143  -0.077   1.409   2.256  0.2876 -0.6524  0.5217
 3339ntf    fn417144  -0.132   1.454   2.056  0.1956 -0.1729 -0.1452
 3339ntf    fn417145  -0.003   1.290   2.096  0.1680  0.0603  0.2246
 3340ntf    cn117146   6.244   4.214   1.128 -0.0522 -0.2214  0.3973
 3340ntf    sn217147   6.390   4.160   1.035 -0.0828 -0.0388  0.2419
 3340ntf    nn317148   6.328   4.040   0.954 -0.0480  0.1708 -0.0937
 3340ntf    sn217149   6.312   3.891   0.999  0.0241  0.1354 -0.1817
 3340ntf    cn117150   6.465   3.825   0.928 -0.0071  0.2341 -0.3416
 3340ntf    fn417151   6.142   4.247   1.050  0.2839  0.1815  0.1300
 3340ntf    fn417152   6.196   4.115   1.203  0.0708 -0.2855  0.3911
 3340ntf    fn417153   6.277   4.315   1.206  0.2153 -0.0109  0.0131
 3340ntf    on517154   6.418   4.276   0.955 -0.2493 -0.4097 -0.3596
 3340ntf    on517155   6.480   4.124   1.142  0.3637  0.0807 -0.0886
 3340ntf    on517156   6.201   3.831   0.929  0.0121 -0.9045  0.6966
 3340ntf    on517157   6.314   3.871   1.142 -0.0236 -0.1017 -0.2138
 3340ntf    fn417158   6.577   3.859   0.990 -0.0897  0.0714 -0.1006
 3340ntf    fn417159   6.473   3.695   0.904 -1.1236 -0.0016  0.4598
 3340ntf    fn417160   6.466   3.876   0.806 -0.4113  0.3837 -0.2833
 3341ntf    cn117161   1.829   4.714   3.074 -0.0504 -0.3375 -0.1578
 3341ntf    sn217162   1.702   4.814   3.158  0.3503 -0.0253  0.0803
 3341ntf    nn317163   1.688   4.940   3.065 -0.0401  0.1097  0.3213
 3341ntf    sn217164   1.737   5.088   3.086  0.0746  0.1184 -0.0099
 3341ntf    cn117165   1.743   5.136   2.911 -0.2999  0.0058 -0.0544
 3341ntf    fn417166   1.946   4.775   3.076 -0.5926  0.7269 -0.0914
 3341ntf    fn417167   1.841   4.594   3.126  0.5962 -0.3696 -0.3823
 3341ntf    fn417168   1.800   4.697   2.946 -0.0137  0.3065 -0.2569
 3341ntf    on517169   1.583   4.733   3.153 -0.1215  0.6743 -0.2194
 3341ntf    on517170   1.749   4.835   3.292  0.5778 -0.1492  0.0209
 3341ntf    on517171   1.874   5.101   3.128 -0.2025  0.2322  0.8767
 3341ntf    on517172   1.634   5.168   3.147  0.1808  0.0026  0.3205
 3341ntf    fn417173   1.639   5.111   2.833 -0.2579  0.1787 -0.1686
 3341ntf    fn417174   1.773   5.264   2.900  0.3041 -0.1612 -0.4059
 3341ntf    fn417175   1.847   5.077   2.854 -0.2813 -0.5066  0.5021
 3342ntf    cn117176   4.961   4.436   1.209  0.3337  0.3937 -0.4140
 3342ntf    sn217177   4.858   4.349   1.087 -0.0315  0.0409  0.1435
 3342ntf    nn317178   4.874   4.443   0.963 -0.4101 -0.3553 -0.2071
 3342ntf    sn217179   4.773   4.553   0.915 -0.4257 -0.2990 -0.0461
 3342ntf    cn117180   4.887   4.695   0.906 -0.1194 -0.5387  0.0381
 3342ntf    fn417181   4.959   4.381   1.329  0.1629 -0.4804 -0.8090
 3342ntf    fn417182   5.087   4.450   1.171  0.1913  0.3069 -0.9277
 3342ntf    fn417183   4.924   4.562   1.225  0.6208  0.4096  0.1676
 3342ntf    on517184   4.919   4.219   1.074 -0.0086  0.1216 -0.5932
 3342ntf    on517185   4.727   4.346   1.147 -0.0065 -0.3003  0.1819
 3342ntf    on517186   4.670   4.613   0.996 -0.2429  0.6358 -0.4826
 3342ntf    on517187   4.751   4.530   0.774  0.6788 -0.8626 -0.1334
 3342ntf    fn417188   4.822   4.790   0.840  0.3017 -0.5796 -0.4410
 3342ntf    fn417189   4.915   4.750   1.023  0.1743 -0.3617 -0.1166
 3342ntf    fn417190   4.996   4.666   0.837 -0.1535 -0.3044 -0.1174
 3343ntf    cn117191   4.923   3.688   6.713 -0.0210 -0.1876  0.0687
 3343ntf    sn217192   4.967   3.554   6.828 -0.0040 -0.3000 -0.0666
 3343ntf    nn317193   4.968   3.438   6.723 -0.3983 -0.2166 -0.1669
 3343ntf    sn217194   4.873   3.315   6.701 -0.1242 -0.4710  0.0494
 3343ntf    cn117195   4.726   3.382   6.617  0.1618 -0.1219 -0.1752
 3343ntf    fn417196   4.913   3.806   6.771  0.5695 -0.0475 -0.1144
 3343ntf    fn417197   5.010   3.709   6.616  0.2331 -0.4507  0.2390
 3343ntf    fn417198   4.814   3.662   6.643 -0.1495  0.1746  0.1334
 3343ntf    on517199   5.096   3.588   6.884 -0.5990  0.4640  0.8890
 3343ntf    on517200   4.854   3.543   6.917  0.2265  0.3317  0.3180
 3343ntf    on517201   4.827   3.254   6.824  1.2491 -0.3574  0.6375
 3343ntf    on517202   4.921   3.226   6.599  0.0468 -0.1912 -0.1149
 3343ntf    fn417203   4.652   3.286   6.565 -0.3840  0.4498 -0.4649
 3343ntf    fn417204   4.645   3.447   6.700  0.3851 -0.1080  0.0337
 3343ntf    fn417205   4.765   3.455   6.514 -0.0355  0.2202 -0.0089
 3344ntf    cn117206   4.183   3.540   3.665  0.1974  0.0875 -0.1232
 3344ntf    sn217207   4.021   3.492   3.599  0.1579 -0.0414  0.0684
 3344ntf    nn317208   4.058   3.419   3.465  0.0419  0.1294 -0.0572
 3344ntf    sn217209   4.003   3.284   3.406  0.1244 -0.0059  0.1738
 3344ntf    cn117210   4.122   3.160   3.465 -0.0206 -0.2593 -0.0627
 3344ntf    fn417211   4.253   3.430   3.690  0.0046 -0.1297 -0.5282
 3344ntf    fn417212   4.259   3.611   3.583 -0.5086  0.4830 -0.4340
 3344ntf    fn417213   4.179   3.604   3.781 -0.0828  0.2327 -0.2123
 3344ntf    on517214   3.958   3.411   3.701  0.0637  0.1185  0.1359
 3344ntf    on517215   3.963   3.620   3.570  0.2443  0.2242  1.0521
 3344ntf    on517216   4.026   3.261   3.265 -0.4604 -0.2129  0.1102
 3344ntf    on517217   3.871   3.252   3.453 -0.2337  0.4381 -0.5232
 3344ntf    fn417218   4.132   3.172   3.596 -0.1797  0.0788 -0.0812
 3344ntf    fn417219   4.090   3.036   3.433 -0.4754 -0.0007 -0.6333
 3344ntf    fn417220   4.244   3.185   3.419  0.1805  0.0146  0.6122
 3345ntf    cn117221   0.047   6.886   2.984 -0.0938 -0.3524 -0.0360
 3345ntf    sn217222   0.183   6.924   2.870 -0.0829 -0.0974  0.0619
 3345ntf    nn317223   0.301   6.950   2.971 -0.0196 -0.2434  0.0255
 3345ntf    sn217224   0.457   6.938   2.956  0.0098  0.2095 -0.0375
 3345ntf    cn117225   0.508   6.936   3.130 -0.1930  0.4434  0.0261
 3345ntf    fn417226   0.027   6.986   3.069 -0.3124 -0.2474 -0.2078
 3345ntf    fn417227  -0.061   6.867   2.910 -0.2417  0.3483 -0.0052
 3345ntf    fn417228   0.070   6.780   3.059 -0.4694 -0.3853  0.0344
 3345ntf    on517229   0.200   6.805   2.791 -0.0956 -0.2259  0.2529
 3345ntf    on517230   0.139   7.048   2.811 -0.0766  0.0945  0.4552
 3345ntf    on517231   0.521   7.059   2.908  0.4233 -0.2739 -0.7221
 3345ntf    on517232   0.504   6.810   2.911  0.1996  0.2623  0.0095
 3345ntf    fn417233   0.471   7.052   3.182 -0.4824  0.1117  0.5780
 3345ntf    fn417234   0.460   6.833   3.199 -0.2948  0.2573 -0.3216
 3345ntf    fn417235   0.640   6.933   3.141 -0.1995 -0.0147 -0.0011
 3346ntf    cn117236   3.560   4.717   5.902  0.3257 -0.0599  0.1069
 3346ntf    sn217237   3.405   4.671   5.819  0.2894  0.3151 -0.0319
 3346ntf    nn317238   3.293   4.731   5.912 -0.3812  0.0471 -0.6567
 3346ntf    sn217239   3.167   4.660   5.973 -0.0339  0.0487  0.0696
 3346ntf    cn117240   3.039   4.785   5.942  0.2193  0.2270 -0.2550
 3346ntf    fn417241   3.591   4.844   5.885 -0.2504  0.0376 -0.2351
 3346ntf    fn417242   3.555   4.696   6.033 -0.0898  0.1304  0.1220
 3346ntf    fn417243   3.664   4.644   5.862  0.2284 -0.2034  0.1146
 3346ntf    on517244   3.408   4.738   5.691  0.1057  0.3423 -0.0223
 3346ntf    on517245   3.411   4.527   5.816  0.4375  0.3238 -0.1495
 3346ntf    on517246   3.177   4.655   6.117  0.9458  0.2178  0.0132
 3346ntf    on517247   3.117   4.537   5.918 -0.5005  0.3658 -0.2153
 3346ntf    fn417248   3.079   4.911   5.952 -0.0353  0.3261 -0.4616
 3346ntf    fn417249   2.986   4.767   5.822 -0.4786 -0.1987  0.1135
 3346ntf    fn417250   2.936   4.765   6.022  0.0392  0.2978 -0.4662
 3347ntf    cn117251   2.871   4.158   0.081 -0.0382  0.4638 -0.0813
 3347ntf    sn217252   2.727   4.159  -0.030 -0.0121  0.1169 -0.1178
 3347ntf    nn317253   2.628   4.246   0.055 -0.4187 -0.7520  0.3190
 3347ntf    sn217254   2.601   4.400   0.039 -0.2678 -0.7522  0.0577
 3347ntf    cn117255   2.471   4.382  -0.088 -0.2461  0.2383 -0.1114
 3347ntf    fn417256   2.966   4.081   0.030 -0.2760  0.2312 -0.1749
 3347ntf    fn417257   2.920   4.281   0.087  0.4912  0.3004 -0.8332
 3347ntf    fn417258   2.851   4.114   0.204  0.8072  0.6891  0.1484
 3347ntf    on517259   2.771   4.214  -0.155  0.6091  0.3084  0.1809
 3347ntf    on517260   2.692   4.019  -0.031 -0.5308  0.2448 -0.5170
 3347ntf    on517261   2.704   4.477  -0.026 -0.3134 -0.6336  0.1250
 3347ntf    on517262   2.538   4.464   0.152  0.0578 -0.0957 -0.1255
 3347ntf    fn417263   2.522   4.348  -0.205 -0.8080  0.2394 -0.3587
 3347ntf    fn417264   2.388   4.283  -0.062  0.2304 -0.1570 -0.0835
 3347ntf    fn417265   2.405   4.496  -0.097 -0.0222  0.3679 -0.1136
 3348ntf    cn117266   2.776   3.230   5.629 -0.2981  0.1700 -0.3142
 3348ntf    sn217267   2.916   3.234   5.513 -0.1138  0.3294 -0.0866
 3348ntf    nn317268   2.998   3.354   5.574  0.0337  0.5929 -0.7988
 3348ntf    sn217269   3.128   3.350   5.661 -0.2630 -0.2466 -0.3807
 3348ntf    cn117270   3.085   3.243   5.802  0.1141 -0.1561 -0.1968
 3348ntf    fn417271   2.713   3.347   5.632 -0.0375  0.3093 -0.2756
 3348ntf    fn417272   2.689   3.140   5.586  0.4895 -0.5799 -0.3482
 3348ntf    fn417273   2.806   3.203   5.755  0.1716  0.2150 -0.4142
 3348ntf    on517274   2.981   3.106   5.530  0.3544  0.6825  0.9227
 3348ntf    on517275   2.850   3.262   5.389 -0.1649 -0.3936 -0.2293
 3348ntf    on517276   3.150   3.474   5.730 -0.3235 -0.6450  0.3713
 3348ntf    on517277   3.244   3.285   5.605 -0.0839 -0.4740  0.2447
 3348ntf    fn417278   3.194   3.221   5.875 -0.2943 -0.0256  0.4553
 3348ntf    fn417279   2.992   3.305   5.872 -0.0453 -0.2500 -0.3262
 3348ntf    fn417280   3.046   3.119   5.783  0.2862 -0.2376 -0.0314
 3349ntf    cn117281   5.986   2.538   4.609  0.1254  0.1141 -0.0020
 3349ntf    sn217282   6.068   2.430   4.731 -0.0558 -0.3413 -0.2791
 3349ntf    nn317283   5.942   2.395   4.818  0.3222  0.1557  0.4763
 3349ntf    sn217284   5.922   2.289   4.932  0.1043  0.1082  0.3935
 3349ntf    cn117285   5.831   2.157   4.846  0.3069  0.1996  0.0371
 3349ntf    fn417286   6.062   2.553   4.501  0.3205 -0.5415  0.0372
 3349ntf    fn417287   5.865   2.501   4.573  0.1994  0.2776 -0.4294
 3349ntf    fn417288   5.980   2.663   4.651  0.4422 -0.0154  0.4319
 3349ntf    on517289   6.113   2.317   4.654  0.1205 -0.2295 -0.3418
 3349ntf    on517290   6.167   2.513   4.795  0.4431 -0.8163 -0.4236
 3349ntf    on517291   5.820   2.335   5.023 -0.4301 -0.0022 -0.1418
 3349ntf    on517292   6.036   2.218   4.985  0.0126 -0.1832  0.2030
 3349ntf    fn417293   5.831   2.044   4.915 -0.1036  0.6993  0.8533
 3349ntf    fn417294   5.708   2.195   4.816  0.3194  0.1614 -0.0666
 3349ntf    fn417295   5.881   2.123   4.728  0.1870  0.1880 -0.0102
 3350ntf    cn117296   2.557   0.412   3.061 -0.0946  0.2748  0.0728
 3350ntf    sn217297   2.626   0.577   3.027  0.0856  0.1837 -0.0061
 3350ntf    nn317298   2.677   0.620   3.169 -0.8677 -0.3666  0.5156
 3350ntf    sn217299   2.786   0.553   3.260 -0.1804 -0.0787 -0.0879
 3350ntf    cn117300   2.838   0.691   3.367  0.1094 -0.1113 -0.1881
 3350ntf    fn417301   2.462   0.424   3.152 -0.2302 -0.4619  0.0348
 3350ntf    fn417302   2.514   0.356   2.948 -0.0070  0.3156  0.0190
 3350ntf    fn417303   2.642   0.329   3.118 -0.1061  0.0755 -0.1986
 3350ntf    on517304   2.725   0.549   2.926  0.1629  0.3472  0.0253
 3350ntf    on517305   2.506   0.646   2.985 -0.0951  0.4720  0.9590
 3350ntf    on517306   2.911   0.518   3.198  0.1094  0.4792  0.1699
 3350ntf    on517307   2.724   0.460   3.351 -0.1873 -0.0717 -0.0857
 3350ntf    fn417308   2.736   0.726   3.442 -0.0582 -0.6469 -0.1640
 3350ntf    fn417309   2.937   0.662   3.450 -0.2125 -0.2766  0.1348
 3350ntf    fn417310   2.875   0.796   3.296 -0.5057  0.4267  0.2784
 3351ntf    cn117311   6.407   6.245   2.119  0.0587 -0.2783 -0.4749
 3351ntf    sn217312   6.539   6.133   2.173  0.1313  0.0978  0.1453
 3351ntf    nn317313   6.596   6.222   2.289 -0.0852  0.0225  0.3081
 3351ntf    sn217314   6.596   6.191   2.443 -0.1118 -0.2641  0.2512
 3351ntf    cn117315   6.775   6.162   2.462 -0.0451  0.2172  0.3623
 3351ntf    fn417316   6.319   6.185   2.040 -0.5358 -0.0725  0.0180
 3351ntf    fn417317   6.337   6.297   2.219  0.4685 -0.1743 -0.2396
 3351ntf    fn417318   6.455   6.345   2.047 -0.1536 -0.5992 -1.0703
 3351ntf    on517319   6.467   6.013   2.207 -0.4032  0.6083  0.8312
 3351ntf    on517320   6.637   6.123   2.067  0.7878  0.2639  0.7248
 3351ntf    on517321   6.529   6.075   2.496  0.1352 -0.5186  0.0121
 3351ntf    on517322   6.571   6.308   2.524 -0.2733  0.2242 -0.4989
 3351ntf    fn417323   6.851   6.267   2.435 -0.0011  0.1138  0.0843
 3351ntf    fn417324   6.808   6.113   2.580 -0.1472 -0.0882  0.2654
 3351ntf    fn417325   6.808   6.076   2.368 -0.1901  0.0527  0.4608
 3352ntf    cn117326   4.064   6.634   5.926 -0.2962 -0.1858 -0.4483
 3352ntf    sn217327   4.082   6.807   5.876 -0.0597 -0.0309  0.1615
 3352ntf    nn317328   4.197   6.784   5.772 -0.1152  0.2935  0.0270
 3352ntf    sn217329   4.350   6.820   5.785 -0.0590  0.0212  0.1250
 3352ntf    cn117330   4.389   6.923   5.641 -0.3058  0.3857  0.3144
 3352ntf    fn417331   3.961   6.624   6.009 -0.0114 -0.3142 -0.1062
 3352ntf    fn417332   4.050   6.557   5.819  0.1000 -0.6019 -0.2053
 3352ntf    fn417333   4.170   6.595   5.995 -0.4053  0.4270  0.0748
 3352ntf    on517334   3.955   6.839   5.816 -0.0002 -0.0499  0.0268
 3352ntf    on517335   4.108   6.883   5.996 -0.4812  0.4879 -0.0710
 3352ntf    on517336   4.437   6.706   5.775 -0.2229 -0.0970  0.0304
 3352ntf    on517337   4.384   6.912   5.891 -0.6834  0.7265 -0.2809
 3352ntf    fn417338   4.336   7.042   5.662  0.0579  0.6347 -0.1524
 3352ntf    fn417339   4.521   6.936   5.638 -0.3068  0.3039 -0.3174
 3352ntf    fn417340   4.352   6.880   5.521  0.5765 -0.1309  0.2204
 3353ntf    cn117341   5.988   0.967   2.971  0.3215  0.0284 -0.2230
 3353ntf    sn217342   6.024   0.840   2.846  0.3904 -0.0130 -0.1614
 3353ntf    nn317343   6.105   0.929   2.745 -0.1974  0.3717 -0.3019
 3353ntf    sn217344   6.261   0.934   2.728 -0.1671  0.4276 -0.0216
 3353ntf    cn117345   6.287   1.103   2.666 -0.1176  0.5105  0.2281
 3353ntf    fn417346   5.905   1.061   2.929  0.6055  0.2533 -0.2807
 3353ntf    fn417347   5.919   0.914   3.071  0.8254 -0.0170  0.1061
 3353ntf    fn417348   6.099   1.017   3.021  0.1490  0.1846  0.0052
 3353ntf    on517349   6.104   0.751   2.927  0.2400 -0.2677 -0.2892
 3353ntf    on517350   5.901   0.790   2.789  0.3032 -0.0895  0.0900
 3353ntf    on517351   6.303   0.853   2.615  0.2591  0.6549 -0.0287
 3353ntf    on517352   6.337   0.922   2.849 -0.0879 -0.9343 -0.1918
 3353ntf    fn417353   6.409   1.151   2.684  0.0782  0.1416 -0.0840
 3353ntf    fn417354   6.264   1.122   2.537  0.3251 -0.0010  0.0705
 3353ntf    fn417355   6.203   1.188   2.723 -0.9631 -0.0941 -0.0964
 3354ntf    cn117356   4.922   0.695   6.340 -0.2103  0.1247  0.1401
 3354ntf    sn217357   4.867   0.688   6.167  0.3595 -0.0981 -0.0363
 3354ntf    nn317358   5.005   0.653   6.102  0.1448 -0.2514 -0.4141
 3354ntf    sn217359   5.076   0.708   5.973  0.1935  0.2321 -0.1841
 3354ntf    cn117360   5.184   0.845   6.023 -0.0014  0.4293 -0.2984
 3354ntf    fn417361   4.967   0.587   6.402 -0.2835  0.0873  0.1276
 3354ntf    fn417362   5.023   0.781   6.330 -0.0373 -0.0454  0.4021
 3354ntf    fn417363   4.832   0.744   6.423 -0.7807 -0.4407 -0.1349
 3354ntf    on517364   4.784   0.571   6.186 -0.0390  0.2439  0.3528
 3354ntf    on517365   4.808   0.818   6.147 -0.2230 -0.2430  0.6842
 3354ntf    on517366   4.980   0.767   5.882 -0.1409  0.4668  0.3188
 3354ntf    on517367   5.162   0.609   5.914 -0.1755 -0.2524  0.0852
 3354ntf    fn417368   5.111   0.946   6.067 -0.2621  0.3013 -0.4373
 3354ntf    fn417369   5.260   0.817   6.128 -0.5236  0.1745  0.0155
 3354ntf    fn417370   5.266   0.885   5.927  0.1472 -0.0132 -0.3586
 3355ntf    cn117371   4.763   1.409   2.396 -0.0243  0.1174  0.2591
 3355ntf    sn217372   4.678   1.259   2.454  0.0828 -0.0561 -0.0261
 3355ntf    nn317373   4.750   1.138   2.386  0.4149  0.3219 -0.3542
 3355ntf    sn217374   4.701   1.077   2.250 -0.2795  0.0545  0.0069
 3355ntf    cn117375   4.864   1.047   2.174 -0.2966 -0.1125  0.0364
 3355ntf    fn417376   4.893   1.385   2.387 -0.0510 -0.0543  0.3399
 3355ntf    fn417377   4.718   1.446   2.277  0.3688 -0.6608 -0.1435
 3355ntf    fn417378   4.743   1.507   2.482 -0.2383  0.2921  0.0116
 3355ntf    on517379   4.713   1.265   2.594 -0.4116 -0.0909  0.1009
 3355ntf    on517380   4.540   1.283   2.418  0.1187 -0.0484 -0.1591
 3355ntf    on517381   4.631   1.168   2.162  0.2053  0.1590 -0.2777
 3355ntf    on517382   4.647   0.945   2.265 -0.3716  0.1002  0.0748
 3355ntf    fn417383   4.900   1.154   2.105  0.6107 -0.4719 -0.0603
 3355ntf    fn417384   4.956   1.019   2.265  0.2099  0.5547 -0.2559
 3355ntf    fn417385   4.861   0.946   2.089 -0.4516 -0.2076  0.1561
 3356ntf    cn117386   1.302   1.311   4.568 -0.5460  0.0308  0.4489
 3356ntf    sn217387   1.138   1.261   4.508 -0.3018  0.0438 -0.2501
 3356ntf    nn317388   1.090   1.189   4.640  0.2416 -0.2280 -0.1978
 3356ntf    sn217389   0.955   1.114   4.667  0.2841 -0.2152  0.0492
 3356ntf    cn117390   1.016   0.944   4.688  0.4951 -0.1751 -0.2350
 3356ntf    fn417391   1.384   1.218   4.614 -0.2983  0.3303  0.6161
 3356ntf    fn417392   1.370   1.387   4.483 -0.2401 -0.9293 -0.1928
 3356ntf    fn417393   1.285   1.390   4.672 -0.0954  0.2594  0.3517
 3356ntf    on517394   1.077   1.388   4.478 -0.2245  0.0616 -0.3304
 3356ntf    on517395   1.163   1.165   4.404 -0.3480 -0.0494 -0.1753
 3356ntf    on517396   0.866   1.109   4.554 -0.1357  0.8229  0.3219
 3356ntf    on517397   0.902   1.149   4.797  0.0248  0.1691 -0.1597
 3356ntf    fn417398   1.044   0.899   4.567  0.5919 -0.4123 -0.1267
 3356ntf    fn417399   1.121   0.928   4.768 -0.0213  0.3160  0.5506
 3356ntf    fn417400   0.914   0.872   4.732  0.3243  0.3600  0.2630
 3357ntf    cn117401   4.449   2.759   5.271 -0.3528 -0.2903  0.0711
 3357ntf    sn217402   4.299   2.790   5.369 -0.1932  0.0004  0.2244
 3357ntf    nn317403   4.213   2.661   5.346  0.4620 -0.3197 -0.4491
 3357ntf    sn217404   4.079   2.622   5.275  0.2579 -0.3852 -0.0353
 3357ntf    cn117405   3.963   2.595   5.412  0.2173 -0.0629 -0.0053
 3357ntf    fn417406   4.499   2.640   5.298 -0.2112 -0.3810 -0.5757
 3357ntf    fn417407   4.437   2.769   5.139  0.3814  0.3285  0.0469
 3357ntf    fn417408   4.539   2.850   5.303 -0.5331 -0.0994  0.0422
 3357ntf    on517409   4.348   2.796   5.504  0.3348  0.0521  0.0305
 3357ntf    on517410   4.244   2.910   5.311  0.3085 -0.1819 -0.6418
 3357ntf    on517411   4.076   2.496   5.205  0.4132 -0.4384  0.0537
 3357ntf    on517412   4.019   2.726   5.194 -0.2969 -0.5520  0.1629
 3357ntf    fn417413   3.999   2.498   5.495 -0.1819  0.0103  0.2571
 3357ntf    fn417414   3.932   2.702   5.483 -0.1196 -0.1347 -0.0445
 3357ntf    fn417415   3.849   2.555   5.359  0.4074 -0.4437 -0.1259
 3358ntf    cn117416   2.841   0.244   0.798 -0.4704 -0.1600  0.1049
 3358ntf    sn217417   2.694   0.215   0.900 -0.4254 -0.0280  0.2086
 3358ntf    nn317418   2.723   0.301   1.028 -0.0531  0.3409 -0.1243
 3358ntf    sn217419   2.775   0.248   1.166 -0.1381  0.0638 -0.1982
 3358ntf    cn117420   2.844   0.402   1.234  0.1629 -0.1935  0.0827
 3358ntf    fn417421   2.847   0.228   0.667 -0.2080 -0.7695  0.1884
 3358ntf    fn417422   2.883   0.370   0.807  0.3940 -0.4306 -0.0293
 3358ntf    fn417423   2.944   0.176   0.846 -0.3189 -0.0084 -0.0058
 3358ntf    on517424   2.594   0.286   0.824 -0.2249  0.0921  0.0589
 3358ntf    on517425   2.685   0.071   0.912 -0.3747 -0.0269  0.2582
 3358ntf    on517426   2.900   0.175   1.159  0.2348  0.5731  0.9622
 3358ntf    on517427   2.673   0.202   1.256  0.1079 -0.3498 -0.1239
 3358ntf    fn417428   2.904   0.393   1.352  0.6464  0.2311 -0.1256
 3358ntf    fn417429   2.933   0.453   1.150  0.3843  0.1264  0.5052
 3358ntf    fn417430   2.750   0.493   1.253  0.2824 -0.0039 -0.2248
 3359ntf    cn117431   6.546   0.947   1.357 -0.2015  0.1650  0.1093
 3359ntf    sn217432   6.642   0.973   1.205 -0.2965 -0.0943  0.0041
 3359ntf    nn317433   6.783   1.006   1.267 -0.1486 -0.5260 -0.0985
 3359ntf    sn217434   6.921   0.932   1.251 -0.0163 -0.3020 -0.0015
 3359ntf    cn117435   7.000   1.031   1.121  0.2841 -0.6578 -0.0927
 3359ntf    fn417436   6.434   0.879   1.338 -0.2142  0.0669  0.5206
 3359ntf    fn417437   6.612   0.865   1.437  0.2746 -0.0773 -0.5260
 3359ntf    fn417438   6.523   1.060   1.421 -0.2096  0.1868  0.0678
 3359ntf    on517439   6.639   0.846   1.136 -0.3279  0.1755 -0.4966
 3359ntf    on517440   6.585   1.091   1.146 -0.6728 -0.1060  0.3404
 3359ntf    on517441   6.922   0.798   1.196  0.0705 -0.1714 -0.3224
 3359ntf    on517442   6.995   0.962   1.370 -0.1560  0.6098 -0.1340
 3359ntf    fn417443   7.000   1.161   1.146 -0.1084 -0.7768  0.5541
 3359ntf    fn417444   7.125   0.994   1.101  0.2332 -0.5753 -0.5803
 3359ntf    fn417445   6.932   1.013   1.008 -0.2142 -0.3400  0.1501
 3360ntf    cn117446   2.566   2.117   1.289 -0.0614 -0.3580  0.1757
 3360ntf    sn217447   2.617   2.145   1.117 -0.0005  0.1919  0.2805
 3360ntf    nn317448   2.562   2.288   1.085 -0.2171  0.1384  0.4167
 3360ntf    sn217449   2.412   2.323   1.050 -0.2055 -0.2627 -0.0431
 3360ntf    cn117450   2.422   2.329   0.869  0.0604  0.1688 -0.0154
 3360ntf    fn417451   2.625   2.198   1.376 -0.1067  0.2719 -0.3764
 3360ntf    fn417452   2.439   2.145   1.316 -0.0783  0.2947 -0.5594
 3360ntf    fn417453   2.592   1.993   1.327  0.0256 -0.4288 -0.1130
 3360ntf    on517454   2.761   2.153   1.125  0.0185  0.2796 -0.1274
 3360ntf    on517455   2.563   2.035   1.041  0.1966  0.5406 -0.3735
 3360ntf    on517456   2.368   2.457   1.079  0.4193 -0.1489  0.4046
 3360ntf    on517457   2.319   2.219   1.086 -0.2994  0.1138  0.8263
 3360ntf    fn417458   2.314   2.373   0.807 -0.1910 -0.3137  0.0755
 3360ntf    fn417459   2.523   2.405   0.829  0.1861 -0.0340 -0.0851
 3360ntf    fn417460   2.452   2.214   0.812 -0.3362  0.0203  0.0777
 3361ntf    cn117461   1.319   3.959   0.578  0.1485  0.0707 -0.3471
 3361ntf    sn217462   1.357   3.829   0.700 -0.0840  0.3130 -0.0128
 3361ntf    nn317463   1.497   3.779   0.648 -0.2758  0.2614 -0.4840
 3361ntf    sn217464   1.637   3.839   0.682 -0.2773 -0.0948  0.1757
 3361ntf    cn117465   1.693   3.722   0.809  0.2398  0.2846  0.3047
 3361ntf    fn417466   1.334   3.926   0.451  0.5111  0.5213 -0.4240
 3361ntf    fn417467   1.192   3.996   0.574  0.0132 -0.3103  0.2246
 3361ntf    fn417468   1.387   4.067   0.611  0.5214 -0.2008 -0.2209
 3361ntf    on517469   1.355   3.897   0.827  0.1796 -0.1446  0.2407
 3361ntf    on517470   1.258   3.727   0.676 -0.3626  0.6659 -0.3967
 3361ntf    on517471   1.633   3.966   0.751  0.0527  0.4753 -0.8205
 3361ntf    on517472   1.733   3.829   0.574 -0.6586 -0.5800 -0.1207
 3361ntf    fn417473   1.823   3.701   0.820  0.3008  0.0944 -0.6666
 3361ntf    fn417474   1.648   3.760   0.927 -0.1544 -0.1071  0.2856
 3361ntf    fn417475   1.639   3.603   0.790 -0.1076  0.5173 -0.1912
 3362ntf    cn117476   2.830   6.965   2.214 -0.0836  0.3464 -0.0470
 3362ntf    sn217477   2.667   6.886   2.222  0.1162 -0.0766 -0.1372
 3362ntf    nn317478   2.621   6.955   2.356  0.1062 -0.0414 -0.1585
 3362ntf    sn217479   2.507   7.056   2.393 -0.0430 -0.2220 -0.1208
 3362ntf    cn117480   2.588   7.212   2.347 -0.0968 -0.0782  0.2738
 3362ntf    fn417481   2.918   6.898   2.142  0.3708  0.8526  0.0256
 3362ntf    fn417482   2.825   7.092   2.176  0.5177  0.3775 -0.0272
 3362ntf    fn417483   2.882   6.967   2.335 -0.2048  0.2173  0.0063
 3362ntf    on517484   2.601   6.931   2.102  0.2782  0.3064 -0.0827
 3362ntf    on517485   2.698   6.746   2.232 -0.1085 -0.1265 -0.1302
 3362ntf    on517486   2.494   7.067   2.536  0.1249  0.4066 -0.1507
 3362ntf    on517487   2.384   7.050   2.317 -0.2237 -0.2416  0.1743
 3362ntf    fn417488   2.693   7.244   2.421  0.1553 -0.4774  0.0902
 3362ntf    fn417489   2.617   7.230   2.219 -0.1673  0.7618  0.3697
 3362ntf    fn417490   2.507   7.316   2.355 -0.0090  0.0228 -0.1469
 3363ntf    cn117491   1.692   3.409   3.497 -0.1805  0.2617 -0.3142
 3363ntf    sn217492   1.670   3.229   3.485 -0.3949  0.2767 -0.1313
 3363ntf    nn317493   1.754   3.208   3.355  0.0246  0.2471  0.1441
 3363ntf    sn217494   1.878   3.113   3.337 -0.1783  0.0273 -0.0949
 3363ntf    cn117495   1.807   2.947   3.363  0.1232 -0.0646  0.1455
 3363ntf    fn417496   1.818   3.449   3.512 -0.3823  0.7051  0.2233
 3363ntf    fn417497   1.638   3.471   3.393 -0.7961  0.4736  0.1251
 3363ntf    fn417498   1.629   3.462   3.600  0.2853 -0.4528  0.3486
 3363ntf    on517499   1.721   3.180   3.611 -0.3855 -0.2501 -0.3392
 3363ntf    on517500   1.527   3.228   3.464 -0.3141  0.3941 -0.7014
 3363ntf    on517501   1.982   3.117   3.437  0.0631  0.3403 -0.3574
 3363ntf    on517502   1.914   3.103   3.198 -0.5599  0.0365 -0.1968
 3363ntf    fn417503   1.719   2.951   3.462  0.0282  0.4980  0.0414
 3363ntf    fn417504   1.749   2.905   3.252  0.0879 -0.3759  0.2819
 3363ntf    fn417505   1.893   2.857   3.407  0.4226  0.0835 -0.1282
 3364ntf    cn117506   1.510   4.813   0.805 -0.0350 -0.1077 -0.3776
 3364ntf    sn217507   1.643   4.926   0.753  0.0958 -0.0202  0.1362
 3364ntf    nn317508   1.568   5.064   0.751  0.2738  0.0766  0.1013
 3364ntf    sn217509   1.530   5.168   0.863 -0.2901 -0.1780  0.1548
 3364ntf    cn117510   1.400   5.255   0.770  0.0995 -0.0649 -0.2894
 3364ntf    fn417511   1.482   4.811   0.934 -0.4755  0.2053 -0.4650
 3364ntf    fn417512   1.393   4.828   0.745 -0.1652 -0.1007 -0.1236
 3364ntf    fn417513   1.549   4.689   0.779  0.2100 -0.1911  0.3639
 3364ntf    on517514   1.740   4.925   0.859  0.2077 -0.4195  0.0312
 3364ntf    on517515   1.687   4.882   0.623  0.9747  0.2481  0.3395
 3364ntf    on517516   1.628   5.272   0.882  0.3649 -0.7670  0.0548
 3364ntf    on517517   1.458   5.110   0.973 -0.3981  0.0993  0.2307
 3364ntf    fn417518   1.284   5.193   0.763  0.0728 -0.0569  0.0751
 3364ntf    fn417519   1.372   5.370   0.828  0.1816 -0.3305  0.2820
 3364ntf    fn417520   1.431   5.281   0.644  0.4734  0.5724 -0.0711
 3365ntf    cn117521   1.329   3.347   4.306  0.0136 -0.4157  0.3341
 3365ntf    sn217522   1.176   3.281   4.233  0.3153 -0.1548 -0.5378
 3365ntf    nn317523   1.201   3.128   4.252  0.6412 -0.0080  0.2325
 3365ntf    sn217524   1.185   3.036   4.379  0.0807  0.1270  0.2642
 3365ntf    cn117525   1.356   2.974   4.393  0.0995  0.1954  0.3419
 3365ntf    fn417526   1.329   3.479   4.320 -0.3908 -0.3782  0.0033
 3365ntf    fn417527   1.351   3.303   4.429  0.2686 -0.2550  0.3471
 3365ntf    fn417528   1.436   3.305   4.241 -0.0702  0.3960 -0.3398
 3365ntf    on517529   1.066   3.333   4.310  0.0435 -0.8533 -0.4515
 3365ntf    on517530   1.183   3.307   4.091 -0.2592 -0.2825 -0.5913
 3365ntf    on517531   1.109   2.917   4.349  0.2278  0.3090 -0.8943
 3365ntf    on517532   1.160   3.110   4.500 -0.2153  0.3514  0.0666
 3365ntf    fn417533   1.438   3.072   4.426  0.3681  0.0246  0.1866
 3365ntf    fn417534   1.381   2.885   4.488 -0.2991 -0.4077 -0.1087
 3365ntf    fn417535   1.405   2.928   4.279  0.0435 -0.2309  0.4882
 3366ntf    cn117536   0.559   2.543   6.274 -0.0040 -0.0125 -0.0922
 3366ntf    sn217537   0.447   2.414   6.211  0.0901 -0.1596  0.0405
 3366ntf    nn317538   0.347   2.492   6.119  0.2334  0.2720  0.2493
 3366ntf    sn217539   0.372   2.517   5.966  0.1522 -0.1259  0.1699
 3366ntf    cn117540   0.301   2.363   5.900 -0.4457  0.1993  0.0443
 3366ntf    fn417541   0.648   2.497   6.361 -0.1883  0.0916  0.1515
 3366ntf    fn417542   0.633   2.601   6.181 -0.1342  0.1500 -0.0931
 3366ntf    fn417543   0.494   2.640   6.336  0.2469  0.2052 -0.1707
 3366ntf    on517544   0.535   2.320   6.146  0.1275 -0.5636  0.6630
 3366ntf    on517545   0.372   2.357   6.321 -0.3803 -0.0530 -0.2227
 3366ntf    on517546   0.508   2.529   5.922  0.1367  0.1860  0.2024
 3366ntf    on517547   0.278   2.614   5.915  0.3589  0.0177  0.0661
 3366ntf    fn417548   0.287   2.361   5.768 -0.0782  0.6645 -0.0050
 3366ntf    fn417549   0.357   2.248   5.933 -0.2192  0.2322 -0.2206
 3366ntf    fn417550   0.177   2.365   5.946 -0.3963  0.0440  0.1832
 3367ntf    cn117551   2.723   3.113   6.765 -0.1886 -0.4895  0.1182
 3367ntf    sn217552   2.811   2.974   6.842  0.1185 -0.2372  0.2233
 3367ntf    nn317553   2.893   3.032   6.962  0.0895  0.7334 -0.2132
 3367ntf    sn217554   2.859   3.052   7.114 -0.3400  0.2137 -0.2375
 3367ntf    cn117555   2.868   2.881   7.177 -0.0290  0.3509  0.0987
 3367ntf    fn417556   2.675   3.082   6.645  0.2371  0.3831 -0.2845
 3367ntf    fn417557   2.618   3.143   6.840 -0.1750 -0.0012 -0.0511
 3367ntf    fn417558   2.793   3.224   6.748 -0.3046 -0.4389 -0.0388
 3367ntf    on517559   2.703   2.885   6.876 -0.6175  0.2300 -0.8494
 3367ntf    on517560   2.896   2.919   6.738  0.6038  0.3694  0.2918
 3367ntf    on517561   2.725   3.096   7.140 -0.2380  0.0183  0.6640
 3367ntf    on517562   2.964   3.121   7.186 -0.0813  0.3826 -0.7749
 3367ntf    fn417563   2.981   2.825   7.136 -0.4031 -0.2335 -0.1362
 3367ntf    fn417564   2.853   2.878   7.308 -0.0769 -0.4432  0.0775
 3367ntf    fn417565   2.770   2.805   7.132  0.1786  0.3015 -0.2752
 3368ntf    cn117566   4.423   3.052   0.029  0.4353 -0.0627  0.0775
 3368ntf    sn217567   4.394   3.037   0.208  0.0551  0.0230  0.0235
 3368ntf    nn317568   4.425   2.886   0.237 -0.0217 -0.0066 -0.0475
 3368ntf    sn217569   4.557   2.813   0.279 -0.2427 -0.3487  0.0587
 3368ntf    cn117570   4.529   2.783   0.457  0.2833 -0.4367  0.1287
 3368ntf    fn417571   4.361   2.957  -0.039  0.2994  0.4404 -0.5105
 3368ntf    fn417572   4.382   3.167  -0.020  0.3834 -0.3140 -0.4724
 3368ntf    fn417573   4.551   3.043  -0.003  0.4681  0.5739  0.0350
 3368ntf    on517574   4.489   3.135   0.254  0.3053  0.0062 -0.4458
 3368ntf    on517575   4.252   3.063   0.219 -0.0140  0.0020 -0.7670
 3368ntf    on517576   4.672   2.898   0.262 -0.5308  0.1145  0.4116
 3368ntf    on517577   4.564   2.687   0.209 -0.1072 -0.3039 -0.0085
 3368ntf    fn417578   4.432   2.696   0.479  0.2198 -0.3324  0.2596
 3368ntf    fn417579   4.635   2.735   0.520  0.6837  0.6136  0.2663
 3368ntf    fn417580   4.493   2.898   0.510  0.0910 -0.3381 -0.2110
 3369ntf    cn117581   0.683   6.306   6.672 -0.0466  0.1707  0.0980
 3369ntf    sn217582   0.563   6.226   6.561 -0.0170  0.3077 -0.0347
 3369ntf    nn317583   0.628   6.263   6.423  0.0462  0.1834 -0.0387
 3369ntf    sn217584   0.621   6.399   6.345  0.5741  0.0569 -0.3169
 3369ntf    cn117585   0.532   6.364   6.191  0.4465  0.5714 -0.3614
 3369ntf    fn417586   0.800   6.245   6.677  0.0353  0.3647  0.6585
 3369ntf    fn417587   0.703   6.434   6.644 -0.3827  0.1347 -0.3322
 3369ntf    fn417588   0.648   6.302   6.799 -0.0416 -0.0524  0.0919
 3369ntf    on517589   0.579   6.086   6.591  0.0648  0.2260 -0.4551
 3369ntf    on517590   0.438   6.290   6.594 -0.6392 -1.1897  0.5890
 3369ntf    on517591   0.754   6.434   6.303  0.5165 -0.6101 -1.0606
 3369ntf    on517592   0.541   6.499   6.412  0.2292 -0.1463 -0.4229
 3369ntf    fn417593   0.550   6.468   6.111  0.6655  0.6934 -0.1546
 3369ntf    fn417594   0.562   6.255   6.123  0.0724 -0.0571  0.4720
 3369ntf    fn417595   0.402   6.356   6.211  0.5113 -0.0215 -0.1670
 3370ntf    cn117596   6.765   6.322   3.058 -0.1233 -0.4353 -0.0950
 3370ntf    sn217597   6.646   6.359   3.191  0.2506 -0.0937  0.1468
 3370ntf    nn317598   6.721   6.460   3.285 -0.5617  0.6259  0.0281
 3370ntf    sn217599   6.820   6.432   3.403 -0.5154 -0.1537 -0.1912
 3370ntf    cn117600   6.915   6.587   3.406 -0.4461 -0.2024  0.1752
 3370ntf    fn417601   6.726   6.220   2.983 -0.0828 -0.6549  0.1778
 3370ntf    fn417602   6.773   6.434   2.989 -0.6902 -0.3324  0.0000
 3370ntf    fn417603   6.887   6.289   3.098 -0.0088  0.2781  0.1573
 3370ntf    on517604   6.538   6.429   3.125  0.1895 -0.0481  0.2971
 3370ntf    on517605   6.622   6.226   3.241  0.1047 -0.1668 -0.1176
 3370ntf    on517606   6.914   6.326   3.380  0.0033  0.2949 -0.1408
 3370ntf    on517607   6.755   6.425   3.532 -0.3085 -0.0544 -0.0816
 3370ntf    fn417608   6.995   6.596   3.511 -0.1573 -0.1479 -0.0476
 3370ntf    fn417609   6.985   6.586   3.294 -0.2535 -0.6265  0.2951
 3370ntf    fn417610   6.838   6.694   3.406  0.1401  0.2254 -0.0249
 3371ntf    cn117611   5.948   4.130   3.379  0.1245 -0.0168 -0.0218
 3371ntf    sn217612   6.077   4.210   3.479  0.1009  0.0459 -0.0419
 3371ntf    nn317613   6.127   4.079   3.550  0.0205  0.2270  0.3495
 3371ntf    sn217614   6.185   4.062   3.695  0.4169  0.1673  0.1832
 3371ntf    cn117615   6.302   3.927   3.656  0.3934  0.0865  0.3932
 3371ntf    fn417616   5.850   4.082   3.453 -0.2920 -0.0366 -0.5758
 3371ntf    fn417617   5.896   4.217   3.294  0.4486  0.1932 -0.0037
 3371ntf    fn417618   5.984   4.025   3.306 -0.3880 -0.0539 -0.2282
 3371ntf    on517619   6.158   4.269   3.376  0.4588  0.2141  0.3329
 3371ntf    on517620   5.996   4.301   3.556 -0.3388 -0.4898  0.1361
 3371ntf    on517621   6.081   4.025   3.787  0.6517  0.1355  0.4375
 3371ntf    on517622   6.271   4.168   3.742 -0.3545  0.6320  0.5681
 3371ntf    fn417623   6.244   3.811   3.633  0.0308  0.3586 -0.0828
 3371ntf    fn417624   6.362   3.952   3.541 -0.1535  0.6291  0.2201
 3371ntf    fn417625   6.396   3.909   3.747  0.2647 -0.4929  0.4108
 3372ntf    cn117626   3.381   2.374   5.806  0.0872 -0.4682  0.0831
 3372ntf    sn217627   3.205   2.417   5.792  0.2005 -0.0395 -0.0235
 3372ntf    nn317628   3.152   2.347   5.921  0.1776 -0.3348 -0.1928
 3372ntf    sn217629   3.039   2.239   5.936 -0.1427 -0.0044 -0.2135
 3372ntf    cn117630   3.135   2.089   5.975 -0.2030 -0.0465 -0.2269
 3372ntf    fn417631   3.402   2.244   5.792 -0.6066 -0.6299  0.5263
 3372ntf    fn417632   3.457   2.428   5.712 -0.4108  0.2837  0.1075
 3372ntf    fn417633   3.444   2.412   5.916 -0.1805 -0.3319  0.1904
 3372ntf    on517634   3.193   2.561   5.792 -0.2084 -0.0682  1.1125
 3372ntf    on517635   3.161   2.358   5.668 -0.6895 -0.1890  0.3564
 3372ntf    on517636   2.957   2.200   5.824 -0.1987  0.0767 -0.1998
 3372ntf    on517637   2.960   2.264   6.054  0.1843  0.0868 -0.0132
 3372ntf    fn417638   3.209   2.055   5.871  0.2285  0.4027 -0.0692
 3372ntf    fn417639   3.221   2.104   6.075 -0.0349 -0.7325 -0.2643
 3372ntf    fn417640   3.065   1.978   5.992  0.4790 -0.4587 -0.0816
 3373ntf    cn117641   5.399   3.193   2.432 -0.4204  0.2919  0.1002
 3373ntf    sn217642   5.375   3.083   2.575  0.0158 -0.0353 -0.0777
 3373ntf    nn317643   5.237   3.137   2.625  0.1241  0.2350 -0.0661
 3373ntf    sn217644   5.214   3.223   2.755  0.0254  0.1897 -0.0536
 3373ntf    cn117645   5.034   3.231   2.777  0.0636  0.5952  0.1091
 3373ntf    fn417646   5.296   3.185   2.350 -0.3540 -0.6298  0.1044
 3373ntf    fn417647   5.412   3.319   2.473 -0.1784  0.4391 -0.4178
 3373ntf    fn417648   5.505   3.162   2.360 -0.4456  0.3135  0.0536
 3373ntf    on517649   5.370   2.948   2.525  0.3010 -0.1933  0.3114
 3373ntf    on517650   5.486   3.119   2.660 -0.0132  0.2288 -0.1476
 3373ntf    on517651   5.247   3.362   2.734  0.3575  0.0877 -0.2109
 3373ntf    on517652   5.259   3.155   2.873  0.4840  0.4086 -0.0986
 3373ntf    fn417653   4.994   3.285   2.891  0.5459 -0.0995  0.6063
 3373ntf    fn417654   4.975   3.300   2.680  0.1614 -0.0902 -0.4419
 3373ntf    fn417655   4.976   3.113   2.763  0.0728  0.5698  0.2883
 3374ntf    cn117656   2.626   3.838   1.753 -0.0746 -0.2950  0.3492
 3374ntf    sn217657   2.681   4.009   1.784  0.2424 -0.3156 -0.0831
 3374ntf    nn317658   2.554   4.050   1.867 -0.1197 -0.9048 -0.3380
 3374ntf    sn217659   2.521   4.009   2.015  0.1185 -0.0300 -0.0363
 3374ntf    cn117660   2.483   4.167   2.095 -0.0344 -0.0942  0.0191
 3374ntf    fn417661   2.632   3.766   1.864  0.2004  0.2511  0.6933
 3374ntf    fn417662   2.500   3.842   1.715 -0.1086 -0.1117  0.4810
 3374ntf    fn417663   2.704   3.779   1.663  0.4644  0.0484  0.5863
 3374ntf    on517664   2.809   3.994   1.848  0.0916  0.0691  0.3119
 3374ntf    on517665   2.682   4.063   1.650  0.3524  0.5170  0.2500
 3374ntf    on517666   2.631   3.969   2.099  0.2323  0.5517  0.0938
 3374ntf    on517667   2.394   3.944   2.035  0.0639 -0.0831 -0.5353
 3374ntf    fn417668   2.358   4.206   2.075 -0.0061  0.1827  0.3774
 3374ntf    fn417669   2.493   4.162   2.226  0.0284  0.3564  0.0329
 3374ntf    fn417670   2.569   4.262   2.063  0.1851 -0.1190  0.5270
 3375ntf    cn117671   1.470   6.357   5.953  0.4411 -0.3574 -0.1659
 3375ntf    sn217672   1.553   6.197   5.978  0.3803 -0.3411  0.1499
 3375ntf    nn317673   1.677   6.244   6.062  0.2351  0.0670  0.1377
 3375ntf    sn217674   1.825   6.268   6.016  0.1838 -0.2691 -0.2097
 3375ntf    cn117675   1.893   6.230   6.180 -0.1831  0.4111  0.1063
 3375ntf    fn417676   1.344   6.340   5.916  0.1095  0.1344  0.6959
 3375ntf    fn417677   1.467   6.428   6.065 -0.4586 -0.0509 -0.3772
 3375ntf    fn417678   1.534   6.432   5.865  0.0172 -0.2798 -0.4132
 3375ntf    on517679   1.455   6.129   6.059 -0.1237  0.3985  0.1775
 3375ntf    on517680   1.574   6.153   5.842 -0.3460 -0.5130  0.0881
 3375ntf    on517681   1.864   6.407   6.000 -0.1110 -0.1793 -0.1473
 3375ntf    on517682   1.879   6.170   5.925 -0.0213 -0.7510  0.1911
 3375ntf    fn417683   1.857   6.324   6.266 -0.1284  0.2480  0.3088
 3375ntf    fn417684   1.848   6.112   6.219  0.0858  0.2238 -0.1373
 3375ntf    fn417685   2.025   6.220   6.181 -0.1577  0.7861  0.5596
 3376ntf    cn117686   6.747   4.505   3.470  0.0824  0.0628 -0.3876
 3376ntf    sn217687   6.686   4.622   3.595 -0.1745 -0.2822 -0.1858
 3376ntf    nn317688   6.720   4.760   3.527  0.5790 -0.2220  0.3018
 3376ntf    sn217689   6.788   4.890   3.582  0.1033  0.2081 -0.1185
 3376ntf    cn117690   6.795   4.996   3.434  0.6998  0.1387 -0.1406
 3376ntf    fn417691   6.662   4.503   3.369  0.0413 -0.0853 -0.3510
 3376ntf    fn417692   6.863   4.545   3.422  0.2481 -0.2902 -0.2846
 3376ntf    fn417693   6.752   4.387   3.530 -0.2403  0.2362 -0.0104
 3376ntf    on517694   6.547   4.584   3.603 -0.3711  0.3074 -0.6185
 3376ntf    on517695   6.768   4.590   3.709 -0.0136  0.0067 -0.2183
 3376ntf    on517696   6.927   4.880   3.617  0.0273 -0.1187  0.0936
 3376ntf    on517697   6.706   4.964   3.675  0.4154 -0.0049  0.3247
 3376ntf    fn417698   6.860   5.110   3.454 -0.1924  0.7207 -0.5191
 3376ntf    fn417699   6.862   4.923   3.346 -0.0529 -0.6514 -0.0663
 3376ntf    fn417700   6.677   5.016   3.378  0.7012  0.4337 -0.0401
 3377ntf    cn117701   2.118   5.121   6.067 -0.3812 -0.2273 -0.1977
 3377ntf    sn217702   1.993   5.161   6.193 -0.1100 -0.2908  0.0923
 3377ntf    nn317703   2.028   5.057   6.305 -0.0769  0.1855  0.5309
 3377ntf    sn217704   1.931   4.990   6.409 -0.3527 -0.0908  0.0966
 3377ntf    cn117705   2.040   4.995   6.554  0.2627  0.5343 -0.3841
 3377ntf    fn417706   2.136   5.207   5.968  0.0714  0.2244  0.2688
 3377ntf    fn417707   2.237   5.120   6.126 -0.2079 -1.1771 -0.5557
 3377ntf    fn417708   2.104   5.000   6.016 -0.3248 -0.4681  0.3455
 3377ntf    on517709   2.037   5.293   6.230 -0.3979  0.0232 -0.6720
 3377ntf    on517710   1.868   5.141   6.125 -0.0562 -0.0163 -0.0884
 3377ntf    on517711   1.923   4.846   6.405 -0.4633 -0.0770 -0.2062
 3377ntf    on517712   1.817   5.067   6.453 -0.6090 -0.2325 -0.3073
 3377ntf    fn417713   2.054   5.121   6.593  0.0835  0.2709  0.5511
 3377ntf    fn417714   1.987   4.924   6.652 -0.2444  0.5418 -0.6509
 3377ntf    fn417715   2.161   4.947   6.528  0.0866  0.3418 -0.8571
 3378ntf    cn117716   1.297   3.976   5.443 -0.3821  0.1259 -0.2944
 3378ntf    sn217717   1.430   4.100   5.450 -0.0157 -0.2545 -0.4585
 3378ntf    nn317718   1.438   4.129   5.296 -0.0206  0.1274 -0.3879
 3378ntf    sn217719   1.402   4.262   5.221 -0.0077  0.2502 -0.1765
 3378ntf    cn117720   1.552   4.364   5.233  0.0521  0.1172  0.2039
 3378ntf    fn417721   1.305   3.894   5.339 -0.2124 -0.9728  0.5612
 3378ntf    fn417722   1.273   3.906   5.553  0.5664 -0.5402 -0.4963
 3378ntf    fn417723   1.185   4.043   5.421 -0.4533  0.0451 -0.1832
 3378ntf    on517724   1.373   4.190   5.547  0.5346 -0.6344  0.2313
 3378ntf    on517725   1.537   4.023   5.508 -0.0454  0.0991  0.0734
 3378ntf    on517726   1.300   4.340   5.287 -0.0944 -0.3311  0.3947
 3378ntf    on517727   1.412   4.244   5.078  0.0233  0.1042 -0.1566
 3378ntf    fn417728   1.648   4.329   5.148 -0.3377 -0.0250 -0.1794
 3378ntf    fn417729   1.536   4.492   5.205 -1.0433 -0.0551 -0.0063
 3378ntf    fn417730   1.606   4.361   5.354 -0.1875 -0.5208  0.3023
 3379ntf    cn117731   5.473   2.544   3.452 -0.1882  0.3971 -0.4391
 3379ntf    sn217732   5.575   2.412   3.379 -0.1457  0.2595 -0.1333
 3379ntf    nn317733   5.724   2.436   3.424 -0.1309  0.2805 -0.1929
 3379ntf    sn217734   5.821   2.344   3.506 -0.1551  0.4948  0.0758
 3379ntf    cn117735   5.982   2.358   3.424 -0.1173 -0.2758  0.0084
 3379ntf    fn417736   5.495   2.662   3.396  0.0846  0.4243 -0.2754
 3379ntf    fn417737   5.343   2.529   3.437 -0.2868  0.2726  0.5120
 3379ntf    fn417738   5.487   2.558   3.583 -1.0936  0.4685 -0.3441
 3379ntf    on517739   5.520   2.286   3.422 -0.0055  0.6445  1.2246
 3379ntf    on517740   5.562   2.442   3.238  0.2327  0.0221 -0.2201
 3379ntf    on517741   5.802   2.201   3.498 -0.0255  0.4660  0.2699
 3379ntf    on517742   5.831   2.394   3.641 -0.3861  0.0886  0.2463
 3379ntf    fn417743   6.072   2.268   3.459  0.2254 -0.0963 -0.4037
 3379ntf    fn417744   5.956   2.344   3.295  0.3791 -0.5205 -0.0659
 3379ntf    fn417745   6.032   2.480   3.436 -0.9387  0.1324 -0.5731
 3380ntf    cn117746   4.894   4.764   6.052 -0.0443 -0.1567 -0.1597
 3380ntf    sn217747   5.019   4.651   6.121 -0.3962 -0.1259  0.5379
 3380ntf    nn317748   4.976   4.516   6.054  0.0007  0.1326 -0.2518
 3380ntf    sn217749   4.919   4.384   6.117 -0.3198  0.1609 -0.4773
 3380ntf    cn117750   5.072   4.285   6.117 -0.0680  0.5484 -0.0901
 3380ntf    fn417751   4.776   4.727   6.098  0.0755 -0.4010 -0.0452
 3380ntf    fn417752   4.913   4.890   6.088 -0.3276 -0.2234  0.2341
 3380ntf    fn417753   4.893   4.762   5.920  0.4175  0.1237 -0.1695
 3380ntf    on517754   5.149   4.704   6.085 -0.5439  0.0410  0.2464
 3380ntf    on517755   4.993   4.659   6.263 -0.0823 -0.5581  0.6190
 3380ntf    on517756   4.834   4.313   6.024 -0.0697 -0.2205 -0.4185
 3380ntf    on517757   4.884   4.378   6.257  0.1965 -0.6303 -0.3706
 3380ntf    fn417758   5.175   4.340   6.181  0.4758 -0.2264 -0.2873
 3380ntf    fn417759   5.051   4.168   6.176  0.3924  0.2713 -0.4668
 3380ntf    fn417760   5.112   4.261   5.993 -0.3984 -0.0965 -0.0746
 3381ntf    cn117761   0.458   0.061   1.341 -0.0483 -0.3723  0.2537
 3381ntf    sn217762   0.556  -0.080   1.281 -0.1630 -0.2297 -0.2724
 3381ntf    nn317763   0.612  -0.010   1.152 -0.0071 -0.6725 -0.4474
 3381ntf    sn217764   0.549  -0.006   1.009 -0.1307 -0.1511 -0.3786
 3381ntf    cn117765   0.665  -0.110   0.915 -0.0172 -0.0013 -0.4048
 3381ntf    fn417766   0.389   0.029   1.449 -0.5022 -0.4776 -0.0660
 3381ntf    fn417767   0.523   0.173   1.369 -0.4332  0.0660 -0.5830
 3381ntf    fn417768   0.361   0.093   1.257 -0.3464 -0.1166  0.6937
 3381ntf    on517769   0.659  -0.105   1.380 -0.1315 -0.1451 -0.2838
 3381ntf    on517770   0.456  -0.182   1.264 -0.1960 -0.2143 -0.1732
 3381ntf    on517771   0.577   0.128   0.963  0.0804 -0.0888 -0.0690
 3381ntf    on517772   0.418  -0.066   0.995 -0.1526 -0.1878 -0.0251
 3381ntf    fn417773   0.701  -0.220   0.977 -0.1093  0.1447 -0.0894
 3381ntf    fn417774   0.613  -0.141   0.797 -0.3292 -0.5119 -0.1327
 3381ntf    fn417775   0.777  -0.041   0.898 -0.1179  0.1907 -0.3022
 3382ntf    cn117776   6.332   1.538   0.632  0.2250 -0.0608  0.4590
 3382ntf    sn217777   6.346   1.551   0.813  0.1682  0.2511  0.4413
 3382ntf    nn317778   6.196   1.541   0.858  0.1517 -0.3968  0.2457
 3382ntf    sn217779   6.097   1.650   0.912  0.2696 -0.1813  0.0273
 3382ntf    cn117780   6.074   1.593   1.083  0.0940  0.2476  0.1479
 3382ntf    fn417781   6.422   1.453   0.584  0.0983  0.1001 -0.0689
 3382ntf    fn417782   6.215   1.488   0.597  0.0803  0.3037  0.4080
 3382ntf    fn417783   6.360   1.651   0.567 -0.2533 -0.1750  0.0482
 3382ntf    on517784   6.415   1.431   0.853  0.7792  0.5917  0.4207
 3382ntf    on517785   6.412   1.678   0.830  0.9036 -0.1295  0.4453
 3382ntf    on517786   5.966   1.646   0.853  0.2722  0.5333 -0.0452
 3382ntf    on517787   6.152   1.782   0.931  0.1733 -0.1746  0.2655
 3382ntf    fn417788   5.992   1.670   1.153  0.2426  0.3665  0.1944
 3382ntf    fn417789   6.022   1.473   1.101  0.0499  0.1789 -0.4261
 3382ntf    fn417790   6.191   1.591   1.146  0.0129 -0.1331  0.2862
 3383ntf    cn117791   6.581   1.555   3.835  0.4617 -0.3755 -0.2098
 3383ntf    sn217792   6.661   1.715   3.807  0.2354 -0.2503 -0.1434
 3383ntf    nn317793   6.695   1.750   3.957 -0.1286  0.1974 -0.1645
 3383ntf    sn217794   6.785   1.868   4.009 -0.1771  0.2571 -0.2151
 3383ntf    cn117795   6.698   2.019   3.955 -0.0186  0.3917 -0.0957
 3383ntf    fn417796   6.471   1.566   3.908  0.5556 -0.2733 -0.0849
 3383ntf    fn417797   6.542   1.503   3.719  0.0710  0.0351 -0.2629
 3383ntf    fn417798   6.656   1.471   3.904  0.4503  0.1915  0.4978
 3383ntf    on517799   6.770   1.680   3.720 -0.1872  0.1233 -0.8259
 3383ntf    on517800   6.559   1.802   3.755  0.2522 -0.3161 -0.2859
 3383ntf    on517801   6.909   1.875   3.936 -0.1218  0.3319 -0.1137
 3383ntf    on517802   6.786   1.869   4.153 -0.1407  0.2809 -0.2157
 3383ntf    fn417803   6.745   2.072   3.844 -0.1621  0.2175 -0.2418
 3383ntf    fn417804   6.571   1.984   3.936  0.0742  0.3593 -0.6611
 3383ntf    fn417805   6.692   2.116   4.044  0.1430  0.1949  0.1316
 3384ntf    cn117806   3.567   2.968   3.425 -0.0568 -0.2247 -0.0133
 3384ntf    sn217807   3.438   3.095   3.415  0.3041  0.1694  0.2621
 3384ntf    nn317808   3.311   3.004   3.436  0.0480  0.4023 -0.2414
 3384ntf    sn217809   3.205   2.953   3.333 -0.0209  0.0185  0.0164
 3384ntf    cn117810   3.078   3.078   3.368  0.0538  0.0256  0.2658
 3384ntf    fn417811   3.560   2.879   3.328 -0.2800 -0.1108 -0.1015
 3384ntf    fn417812   3.686   3.025   3.411 -0.2625  0.1897 -0.1033
 3384ntf    fn417813   3.576   2.910   3.543  0.1781  0.0917  0.1278
 3384ntf    on517814   3.470   3.175   3.530 -0.5519  0.1588  0.5190
 3384ntf    on517815   3.457   3.145   3.281 -0.0566 -0.5087 -0.0469
 3384ntf    on517816   3.133   2.835   3.373 -0.4220  0.2976  0.1181
 3384ntf    on517817   3.248   2.968   3.196  0.1620  0.2970  0.1046
 3384ntf    fn417818   2.974   3.072   3.286  0.1382  0.5977  0.1123
 3384ntf    fn417819   3.035   3.075   3.493 -0.7882 -0.0060 -0.0140
 3384ntf    fn417820   3.125   3.199   3.344 -0.4723  0.1742 -0.0337
 3385ntf    cn117821   6.062   3.172   5.995  0.1851 -0.1446  0.2412
 3385ntf    sn217822   6.157   3.312   5.929 -0.0672 -0.0048  0.1717
 3385ntf    nn317823   6.296   3.239   5.937 -0.2947 -0.4229  0.2994
 3385ntf    sn217824   6.438   3.305   5.925 -0.4269 -0.2138 -0.1445
 3385ntf    cn117825   6.484   3.292   6.101  0.0469  0.7319 -0.1936
 3385ntf    fn417826   6.075   3.147   6.124 -0.3710  0.0563  0.3405
 3385ntf    fn417827   5.935   3.209   5.987  0.1647 -0.1022  0.7017
 3385ntf    fn417828   6.082   3.065   5.921 -0.1720  0.0010 -0.0681
 3385ntf    on517829   6.103   3.314   5.795 -0.0745 -0.3679  0.1681
 3385ntf    on517830   6.128   3.417   6.024  0.6483  0.1965  0.1722
 3385ntf    on517831   6.439   3.449   5.914  0.0283 -0.1604  0.5367
 3385ntf    on517832   6.532   3.223   5.854  0.0880  0.2566 -0.0114
 3385ntf    fn417833   6.582   3.204   6.117 -0.4160  0.1507 -0.5020
 3385ntf    fn417834   6.535   3.404   6.149 -0.2377  0.7547  0.0562
 3385ntf    fn417835   6.386   3.267   6.185  0.6212  0.5229  0.4189
 3386ntf    cn117836   6.287   5.742   0.145 -0.0904 -0.1880  0.0815
 3386ntf    sn217837   6.324   5.596   0.246  0.0658  0.0261  0.3333
 3386ntf    nn317838   6.403   5.525   0.130 -0.3344  0.1864 -0.0386
 3386ntf    sn217839   6.391   5.381   0.069  0.2379  0.0074  0.2601
 3386ntf    cn117840   6.527   5.382  -0.051  0.4020  0.1208  0.4456
 3386ntf    fn417841   6.219   5.717   0.034  0.1393 -0.4480 -0.0037
 3386ntf    fn417842   6.224   5.839   0.209 -0.3049 -0.3872  0.1733
 3386ntf    fn417843   6.399   5.794   0.098 -0.3751 -0.1993 -0.6173
 3386ntf    on517844   6.410   5.644   0.352  0.1264 -0.0220  0.3062
 3386ntf    on517845   6.201   5.533   0.289 -0.2420  0.3280 -0.1082
 3386ntf    on517846   6.278   5.357  -0.017  0.7949 -0.0717 -0.4580
 3386ntf    on517847   6.429   5.271   0.154 -0.0979 -0.3110 -0.0039
 3386ntf    fn417848   6.636   5.425   0.008  0.8473  0.4649 -0.6001
 3386ntf    fn417849   6.551   5.260  -0.097  0.0840  0.1275  0.2543
 3386ntf    fn417850   6.495   5.467  -0.148  0.1893 -0.6952 -0.2109
 3387ntf    cn117851   2.975   0.990   5.705  0.1024 -0.1681 -0.0018
 3387ntf    sn217852   2.993   0.824   5.634 -0.2789 -0.3072  0.2246
 3387ntf    nn317853   2.951   0.740   5.759 -0.0016  0.3394  0.7543
 3387ntf    sn217854   2.828   0.647   5.791  0.2813 -0.3973 -0.2320
 3387ntf    cn117855   2.690   0.761   5.759  0.2398 -0.2609  0.4160
 3387ntf    fn417856   3.070   1.018   5.793 -0.0657  0.5551 -0.0452
 3387ntf    fn417857   2.981   1.087   5.616 -0.0870 -0.2331 -0.0846
 3387ntf    fn417858   2.858   1.004   5.766  0.0215 -0.7407 -0.0178
 3387ntf    on517859   2.899   0.822   5.524  0.2722  0.1178 -0.2614
 3387ntf    on517860   3.136   0.821   5.613 -0.2867  0.1632  0.1067
 3387ntf    on517861   2.818   0.625   5.933  0.1945 -0.0150 -0.1765
 3387ntf    on517862   2.804   0.534   5.705  0.1774 -0.5989  0.0582
 3387ntf    fn417863   2.674   0.798   5.633 -0.0005 -0.0256  0.5134
 3387ntf    fn417864   2.568   0.718   5.785  0.2655 -0.4023  0.3004
 3387ntf    fn417865   2.704   0.873   5.829  0.0078  0.0638 -0.0540
 3388ntf    cn117866   0.660   4.828   1.571  0.5255  0.1270  0.1248
 3388ntf    sn217867   0.798   4.752   1.481  0.3117 -0.1956  0.0675
 3388ntf    nn317868   0.846   4.873   1.394  0.2060 -0.2530 -0.0703
 3388ntf    sn217869   0.991   4.926   1.365  0.1726 -0.2014 -0.1453
 3388ntf    cn117870   1.003   5.046   1.502 -0.2994  0.0382 -0.3134
 3388ntf    fn417871   0.697   4.933   1.643  0.7555  0.1163  0.0229
 3388ntf    fn417872   0.565   4.872   1.490  0.2196  0.2457  0.5421
 3388ntf    fn417873   0.608   4.747   1.662 -0.6404  0.0193 -0.6136
 3388ntf    on517874   0.890   4.713   1.585  0.2663 -0.1576  0.1217
 3388ntf    on517875   0.745   4.646   1.399  0.2529 -0.4216  0.3941
 3388ntf    on517876   1.006   5.012   1.250  0.5329 -0.2643 -0.1479
 3388ntf    on517877   1.092   4.832   1.407  0.1440  0.0594  0.5257
 3388ntf    fn417878   0.978   4.991   1.620  0.1362 -0.5764 -0.5038
 3388ntf    fn417879   1.121   5.103   1.512 -0.1916 -0.1401 -0.5472
 3388ntf    fn417880   0.908   5.138   1.497  0.2839  0.6570  0.0309
 3389ntf    cn117881   4.416   6.045   5.085 -0.4657  0.1356  0.0010
 3389ntf    sn217882   4.245   6.000   5.127 -0.5110  0.0545 -0.2688
 3389ntf    nn317883   4.228   5.924   4.990  0.5857 -0.0351 -0.3649
 3389ntf    sn217884   4.099   5.890   4.907  0.2011  0.1940  0.1351
 3389ntf    cn117885   4.086   5.716   4.958  0.2680  0.3007  0.5257
 3389ntf    fn417886   4.434   6.124   4.980  0.1076  0.5269  0.3871
 3389ntf    fn417887   4.472   6.123   5.175  0.0706  0.0932 -0.2892
 3389ntf    fn417888   4.492   5.940   5.060  0.0422  0.5536 -0.2317
 3389ntf    on517889   4.266   5.918   5.243 -0.0610  0.2626 -0.2035
 3389ntf    on517890   4.184   6.130   5.146 -0.1334  0.0781  0.8032
 3389ntf    on517891   4.119   5.886   4.765  0.0941  0.3581  0.1152
 3389ntf    on517892   3.975   5.938   4.963  0.4907  0.2874  0.7109
 3389ntf    fn417893   4.066   5.703   5.088 -0.4315 -0.8319  0.3164
 3389ntf    fn417894   3.981   5.663   4.897  0.2696  0.3058  0.5189
 3389ntf    fn417895   4.195   5.651   4.922 -0.2957 -0.5562  0.3271
 3390ntf    cn117896   3.915   0.725   5.885  0.0922 -0.1431 -0.4440
 3390ntf    sn217897   3.894   0.602   5.752  0.3818 -0.3245 -0.3231
 3390ntf    nn317898   3.862   0.707   5.640 -0.3829 -0.3986 -0.1813
 3390ntf    sn217899   3.727   0.778   5.604 -0.0675  0.3059  0.0134
 3390ntf    cn117900   3.689   0.700   5.444  0.4100 -0.0799  0.0884
 3390ntf    fn417901   3.951   0.671   6.000 -0.3908  0.0378 -0.2048
 3390ntf    fn417902   3.990   0.821   5.833  0.1844 -0.2452 -0.5003
 3390ntf    fn417903   3.805   0.792   5.916  0.3622 -0.0133  0.2409
 3390ntf    on517904   4.025   0.543   5.744  0.5755  0.1559 -0.7699
 3390ntf    on517905   3.782   0.516   5.783  0.3501 -0.1353  0.0955
 3390ntf    on517906   3.756   0.914   5.565  0.6220  0.1708  0.0451
 3390ntf    on517907   3.616   0.745   5.691 -0.1800  0.1152 -0.2011
 3390ntf    fn417908   3.629   0.582   5.450  0.2959 -0.0038  0.4690
 3390ntf    fn417909   3.606   0.776   5.376  0.0383  0.3720  1.0214
 3390ntf    fn417910   3.794   0.674   5.369  0.3901 -0.0935  0.0650
 3391ntf    cn117911   2.857   5.164   2.140  0.0088 -0.3475  0.1251
 3391ntf    sn217912   2.769   5.314   2.088  0.0418 -0.4122 -0.1179
 3391ntf    nn317913   2.657   5.254   1.996 -0.7100  0.6416  0.0942
 3391ntf    sn217914   2.649   5.243   1.840 -0.0413  0.0942  0.0953
 3391ntf    cn117915   2.599   5.069   1.821  0.5267 -0.0802  0.1939
 3391ntf    fn417916   2.897   5.084   2.043  0.1947 -0.1919  0.0742
 3391ntf    fn417917   2.965   5.194   2.210 -0.3810  0.3031  0.4583
 3391ntf    fn417918   2.785   5.092   2.225 -0.3616 -0.3330 -0.1746
 3391ntf    on517919   2.717   5.369   2.211 -0.4497 -0.4639 -0.3004
 3391ntf    on517920   2.870   5.392   2.021  0.3069 -0.1354  0.5956
 3391ntf    on517921   2.772   5.251   1.765  0.0546 -0.4950  0.1868
 3391ntf    on517922   2.537   5.316   1.786 -0.1013  0.4864  0.7372
 3391ntf    fn417923   2.585   5.027   1.697  0.1793  0.2750  0.1120
 3391ntf    fn417924   2.685   4.979   1.867  0.5567 -0.0976  0.1044
 3391ntf    fn417925   2.487   5.041   1.885  0.0660  0.3976 -0.4000
 3392ntf    cn117926   4.919   5.870   2.651 -0.0789 -0.0632  0.0297
 3392ntf    sn217927   4.925   6.029   2.563 -0.0865 -0.1315 -0.0948
 3392ntf    nn317928   5.079   6.045   2.536 -0.0357 -0.4913 -0.0355
 3392ntf    sn217929   5.170   6.036   2.408 -0.0544  0.2510 -0.1073
 3392ntf    cn117930   5.177   6.211   2.359 -0.3090  0.1913 -0.3575
 3392ntf    fn417931   4.795   5.824   2.666 -0.0494 -0.3071 -0.4498
 3392ntf    fn417932   4.972   5.767   2.588 -0.1484  0.0632 -0.2340
 3392ntf    fn417933   4.968   5.867   2.774 -0.4566  0.1157  0.1891
 3392ntf    on517934   4.846   6.006   2.445  0.4199  0.1906 -0.4980
 3392ntf    on517935   4.875   6.128   2.655 -0.1843  0.1053 -0.4049
 3392ntf    on517936   5.112   5.973   2.292 -0.0664  0.2535 -0.1033
 3392ntf    on517937   5.305   6.001   2.443 -0.5380 -0.5710  0.9981
 3392ntf    fn417938   5.260   6.231   2.258 -0.1901 -0.3742 -0.3743
 3392ntf    fn417939   5.058   6.248   2.314 -0.6615 -0.7494 -0.2280
 3392ntf    fn417940   5.214   6.292   2.457 -0.1551  0.0469 -0.2965
 3393ntf    cn117941   0.967   2.984   1.560 -0.0290 -0.3044 -0.1533
 3393ntf    sn217942   0.845   2.932   1.685 -0.1633 -0.1176 -0.2052
 3393ntf    nn317943   0.720   2.977   1.603  0.1165  0.1012 -0.5172
 3393ntf    sn217944   0.570   2.934   1.624  0.1733  0.1759  0.0430
 3393ntf    cn117945   0.509   3.098   1.675 -0.3788 -0.1452  0.4198
 3393ntf    fn417946   0.941   2.926   1.444  1.1914  0.1667 -0.6752
 3393ntf    fn417947   0.963   3.114   1.537  0.0510 -0.3359 -0.3419
 3393ntf    fn417948   1.092   2.957   1.591 -0.0224 -0.2400 -0.1242
 3393ntf    on517949   0.865   2.790   1.697  0.4002  0.0379  0.8990
 3393ntf    on517950   0.878   3.012   1.801  0.2334  0.1570 -0.5037
 3393ntf    on517951   0.556   2.843   1.735  0.5639 -0.0105 -0.0589
 3393ntf    on517952   0.502   2.903   1.501  0.3313 -1.2763  0.3043
 3393ntf    fn417953   0.524   3.120   1.805  0.1274 -0.1293  0.3572
 3393ntf    fn417954   0.577   3.191   1.611 -0.4143  0.0131  0.6113
 3393ntf    fn417955   0.382   3.119   1.645 -0.2631 -0.2954 -0.1913
 3394ntf    cn117956   3.924   6.154   3.484 -0.1125  0.4999  0.1151
 3394ntf    sn217957   4.038   6.101   3.353 -0.3285  0.0746  0.0982
 3394ntf    nn317958   3.973   5.966   3.308  0.2075 -0.0578 -0.2830
 3394ntf    sn217959   3.939   5.925   3.160  0.1982  0.1991 -0.3512
 3394ntf    cn117960   4.004   5.757   3.139 -0.0498  0.1089 -0.3927
 3394ntf    fn417961   3.973   6.250   3.562 -0.4480  0.3204  0.5512
 3394ntf    fn417962   3.813   6.205   3.435  0.0854  0.6452 -0.1819
 3394ntf    fn417963   3.890   6.049   3.556 -0.2883  0.3011 -0.2575
 3394ntf    on517964   4.030   6.209   3.258 -0.1676 -0.2605 -0.2962
 3394ntf    on517965   4.158   6.088   3.432 -0.4384 -0.3954  0.1902
 3394ntf    on517966   4.005   5.996   3.052 -0.0158  0.4498 -0.3197
 3394ntf    on517967   3.799   5.912   3.129  0.1480 -0.4201  0.1287
 3394ntf    fn417968   4.136   5.751   3.142 -0.0224  0.7865 -0.2161
 3394ntf    fn417969   3.959   5.677   3.235  0.4972  0.2027 -0.0551
 3394ntf    fn417970   3.979   5.695   3.025  0.5096  0.2935 -0.6150
 3395ntf    cn117971   0.249   2.156   4.407  0.1971 -0.0658 -0.0371
 3395ntf    sn217972   0.167   2.268   4.524  0.0780 -0.0885 -0.0986
 3395ntf    nn317973   0.029   2.194   4.523 -0.0482  0.1484 -0.1151
 3395ntf    sn217974  -0.111   2.220   4.456 -0.0814 -0.0414 -0.1180
 3395ntf    cn117975  -0.211   2.227   4.608 -0.3056  0.8071 -0.3016
 3395ntf    fn417976   0.380   2.176   4.401  0.2505 -0.3217  0.2442
 3395ntf    fn417977   0.231   2.029   4.438  0.4995 -0.0843  0.0641
 3395ntf    fn417978   0.201   2.173   4.285  0.2801  0.5350  0.0108
 3395ntf    on517979   0.241   2.261   4.648 -0.4780  0.5896  0.2809
 3395ntf    on517980   0.160   2.400   4.466  0.0832 -0.6562 -1.4383
 3395ntf    on517981  -0.172   2.108   4.389  0.4688 -0.2471 -0.2820
 3395ntf    on517982  -0.134   2.345   4.389  0.2680  0.1391  0.0972
 3395ntf    fn417983  -0.189   2.336   4.680 -0.0821  0.3754  0.2912
 3395ntf    fn417984  -0.341   2.215   4.591 -0.2602 -0.3057  0.0545
 3395ntf    fn417985  -0.174   2.130   4.691  0.1235  1.0349 -0.2221
 3396ntf    cn117986   5.575   5.292   3.690 -0.2338  0.5152 -0.0868
 3396ntf    sn217987   5.476   5.247   3.545 -0.0056  0.2130 -0.1508
 3396ntf    nn317988   5.365   5.159   3.612  0.4631 -0.1887  0.1070
 3396ntf    sn217989   5.375   5.009   3.657 -0.0237 -0.2932 -0.1251
 3396ntf    cn117990   5.381   5.042   3.836  0.3089 -0.2791 -0.1378
 3396ntf    fn417991   5.629   5.187   3.751  0.2154  0.5382 -0.4413
 3396ntf    fn417992   5.683   5.360   3.655  0.1639 -0.1028 -0.0906
 3396ntf    fn417993   5.508   5.367   3.775 -0.3574 -0.2605  0.5126
 3396ntf    on517994   5.416   5.374   3.512 -0.3315  0.1095  0.0348
 3396ntf    on517995   5.564   5.177   3.454  0.0283 -0.0673  0.0982
 3396ntf    on517996   5.501   4.941   3.643 -0.1696 -0.6771  0.3651
 3396ntf    on517997   5.253   4.935   3.636 -0.4834  0.4662 -0.1508
 3396ntf    fn417998   5.315   5.152   3.867 -0.4747 -0.6169 -0.5771
 3396ntf    fn417999   5.312   4.952   3.905  0.1719 -0.1324 -0.0823
 3396ntf    fn418000   5.503   5.060   3.884  0.3194  0.1395 -0.3175
 3397ntf    cn118001   5.742   4.825   2.651 -0.3209  0.3097  0.0071
 3397ntf    sn218002   5.809   4.855   2.484 -0.0693  0.2726  0.1018
 3397ntf    nn318003   5.902   4.978   2.511  0.4897 -0.1987  0.3541
 3397ntf    sn218004   5.899   5.130   2.470 -0.1258 -0.3877 -0.3218
 3397ntf    cn118005   6.033   5.131   2.347  0.0325 -0.1694 -0.1486
 3397ntf    fn418006   5.657   4.724   2.651 -0.1857  0.1952 -0.2010
 3397ntf    fn418007   5.834   4.794   2.740 -0.3040 -0.7941 -0.3770
 3397ntf    fn418008   5.666   4.926   2.688 -0.0611  0.7693 -0.6784
 3397ntf    on518009   5.892   4.739   2.460 -0.4524  0.1126 -0.4542
 3397ntf    on518010   5.696   4.873   2.397  0.0186 -0.6669 -0.2252
 3397ntf    on518011   5.950   5.216   2.574  0.3096 -0.3412 -0.5690
 3397ntf    on518012   5.784   5.181   2.401 -0.3775 -0.5613 -0.0339
 3397ntf    fn418013   6.146   5.111   2.413 -0.0895 -0.1626  0.0620
 3397ntf    fn418014   6.025   5.030   2.262 -0.0564 -0.6245  0.3970
 3397ntf    fn418015   6.044   5.240   2.273 -0.2399  0.0154  0.0781
 3398ntf    cn118016   1.024   2.818   1.049  0.1693 -0.3299  0.1915
 3398ntf    sn218017   0.932   2.846   0.894 -0.1208  0.5135  0.5100
 3398ntf    nn318018   0.861   2.706   0.881  1.0381 -0.0512  0.1065
 3398ntf    sn218019   0.826   2.622   0.753  0.0795  0.2130  0.1815
 3398ntf    cn118020   0.975   2.519   0.764 -0.0758  0.0034  0.3129
 3398ntf    fn418021   0.947   2.796   1.155  0.0798 -0.4555  0.1011
 3398ntf    fn418022   1.104   2.713   1.047 -0.2609 -0.6560 -0.0301
 3398ntf    fn418023   1.103   2.919   1.080 -0.1446 -0.0472  0.0829
 3398ntf    on518024   0.847   2.955   0.936 -0.1438  0.3683  0.8517
 3398ntf    on518025   1.035   2.864   0.796 -0.2456 -0.2878  0.2229
 3398ntf    on518026   0.843   2.684   0.624  0.3076 -0.3966 -0.0817
 3398ntf    on518027   0.715   2.532   0.768  0.0897  0.1560 -0.0877
 3398ntf    fn418028   0.964   2.437   0.868 -0.1968  0.1051  0.3810
 3398ntf    fn418029   0.987   2.442   0.657 -0.0073  0.3024  0.1058
 3398ntf    fn418030   1.090   2.580   0.789  0.1301 -0.1145 -0.3385
 3399ntf    cn118031   2.064   0.000   2.501 -0.1449 -0.4836 -0.4560
 3399ntf    sn218032   1.897   0.015   2.573  0.1574 -0.1895  0.1897
 3399ntf    nn318033   1.838   0.151   2.521 -0.0704 -0.4225 -0.1598
 3399ntf    sn218034   1.743   0.165   2.397  0.1728  0.0490 -0.2918
 3399ntf    cn118035   1.583   0.146   2.480  0.1418  0.1888 -0.3180
 3399ntf    fn418036   2.149   0.102   2.507 -0.5598 -0.1661  0.1624
 3399ntf    fn418037   2.134  -0.104   2.543 -0.0631 -0.1084  0.3632
 3399ntf    fn418038   2.055  -0.017   2.370  0.0009  0.4499 -0.5940
 3399ntf    on518039   1.819  -0.095   2.522 -0.0984  0.3289 -0.5476
 3399ntf    on518040   1.928   0.024   2.714  0.2681 -0.3680  0.1773
 3399ntf    on518041   1.756   0.063   2.296 -0.3100 -0.1830 -0.1213
 3399ntf    on518042   1.739   0.301   2.347  0.1661  0.1190 -0.1007
 3399ntf    fn418043   1.478   0.159   2.401 -0.0487 -0.2298 -0.1362
 3399ntf    fn418044   1.574   0.029   2.541 -0.1220  0.3767  0.0084
 3399ntf    fn418045   1.565   0.230   2.580  0.3550  0.1547 -0.2506
 3400ntf    cn118046   3.448   1.239   2.989  0.1114 -0.0572 -0.0519
 3400ntf    sn218047   3.513   1.171   2.833 -0.0687  0.1342 -0.2127
 3400ntf    nn318048   3.418   1.240   2.729  0.4292 -0.1419 -0.8563
 3400ntf    sn218049   3.302   1.183   2.640  0.0431  0.1946 -0.5723
 3400ntf    cn118050   3.419   1.138   2.508  0.3992 -0.4780 -0.0343
 3400ntf    fn418051   3.527   1.214   3.092  0.2761  0.4030 -0.0634
 3400ntf    fn418052   3.433   1.370   2.981  0.1356 -0.0471  0.0755
 3400ntf    fn418053   3.333   1.187   3.028  0.2018  0.0337  0.3344
 3400ntf    on518054   3.652   1.212   2.829 -0.0157 -0.0405 -0.1834
 3400ntf    on518055   3.494   1.028   2.845  0.2800  0.0598 -0.5279
 3400ntf    on518056   3.225   1.292   2.584 -0.0619  0.3581 -0.1109
 3400ntf    on518057   3.221   1.072   2.684 -0.1924  0.3461 -0.6256
 3400ntf    fn418058   3.475   1.020   2.529  0.6075 -0.3950 -0.1229
 3400ntf    fn418059   3.365   1.128   2.387 -0.2558 -0.4887  0.2512
 3400ntf    fn418060   3.510   1.233   2.495  0.1578 -0.2201  0.1671
 3401ntf    cn118061   2.039   2.568   4.687 -0.0417  0.1290  0.0927
 3401ntf    sn218062   1.887   2.601   4.591 -0.1959  0.0262  0.3013
 3401ntf    nn318063   1.893   2.757   4.585 -0.3699  0.0159 -0.1310
 3401ntf    sn218064   1.825   2.864   4.677  0.3268  0.1719  0.2067
 3401ntf    cn118065   1.648   2.837   4.648  0.3084  0.0934  0.3914
 3401ntf    fn418066   2.049   2.641   4.796  0.0041 -0.1137  0.2510
 3401ntf    fn418067   2.056   2.444   4.727 -0.0852  0.1800  0.2686
 3401ntf    fn418068   2.150   2.594   4.620  0.0412 -0.5227 -0.0288
 3401ntf    on518069   1.902   2.543   4.460 -0.2210  0.0972  0.2676
 3401ntf    on518070   1.797   2.539   4.685 -0.2327  0.3572  0.4845
 3401ntf    on518071   1.851   2.998   4.631  0.1045  0.2799  0.3926
 3401ntf    on518072   1.836   2.847   4.820 -0.1775 -0.2936  0.1940
 3401ntf    fn418073   1.614   2.709   4.647  0.2307  0.1159  0.2366
 3401ntf    fn418074   1.579   2.902   4.741  0.1507  0.0674  0.2926
 3401ntf    fn418075   1.621   2.875   4.524 -0.2022 -0.6198  0.2760
 3402ntf    cn118076   0.826   6.748   6.085  0.1447 -0.2334  0.0828
 3402ntf    sn218077   0.875   6.851   5.944  0.0901  0.1092  0.3114
 3402ntf    nn318078   0.943   6.731   5.868 -0.1997 -0.0573  0.3125
 3402ntf    sn218079   1.074   6.728   5.781 -0.2291  0.2746  0.2540
 3402ntf    cn118080   1.201   6.704   5.908 -0.2980  0.1519  0.2992
 3402ntf    fn418081   0.927   6.675   6.131  0.3946  0.2723  0.3435
 3402ntf    fn418082   0.785   6.821   6.188 -0.1131 -0.2309 -0.0208
 3402ntf    fn418083   0.724   6.668   6.059  0.1442 -0.0941 -0.3474
 3402ntf    on518084   0.748   6.890   5.886  0.3926  0.5557 -0.0630
 3402ntf    on518085   0.958   6.947   6.012 -0.3891  0.9589 -0.2796
 3402ntf    on518086   1.119   6.851   5.722 -0.8118  0.1002 -0.5708
 3402ntf    on518087   1.087   6.604   5.709  0.2694  0.3991  0.1277
 3402ntf    fn418088   1.178   6.597   5.984 -0.2397 -0.0236  0.0708
 3402ntf    fn418089   1.322   6.693   5.855 -0.4460 -0.1736  0.0268
 3402ntf    fn418090   1.215   6.810   5.986  0.0656  0.3838 -0.0786
 3403ntf    cn118091   6.195   1.369   7.002 -0.0149 -0.1220 -0.0814
 3403ntf    sn218092   6.025   1.427   6.976 -0.0287  0.0054  0.2945
 3403ntf    nn318093   5.951   1.303   7.039 -0.0033 -0.3236 -0.3217
 3403ntf    sn218094   5.947   1.260   7.190  0.2312 -0.0322 -0.2306
 3403ntf    cn118095   5.784   1.331   7.230  0.0656 -0.3790 -0.2849
 3403ntf    fn418096   6.228   1.364   7.130 -0.6421 -0.4196  0.0750
 3403ntf    fn418097   6.222   1.246   6.960  0.2538 -0.2207  0.3797
 3403ntf    fn418098   6.284   1.442   6.937  0.2816 -0.2185  0.2147
 3403ntf    on518099   6.023   1.550   7.051  0.1095 -0.0671  0.4181
 3403ntf    on518100   6.009   1.442   6.834  0.1844 -0.0625  0.2633
 3403ntf    on518101   6.039   1.317   7.284  0.0395  0.5924 -0.4162
 3403ntf    on518102   5.922   1.119   7.201 -0.0945  0.0294 -0.1588
 3403ntf    fn418103   5.778   1.456   7.186  0.3629 -0.1246  0.3862
 3403ntf    fn418104   5.688   1.268   7.164 -0.3108 -0.2176  0.1123
 3403ntf    fn418105   5.757   1.321   7.359 -0.0487 -0.2499 -0.2988
 3404ntf    cn118106   5.328   3.258   5.525  0.0604 -0.2416 -0.2923
 3404ntf    sn218107   5.364   3.133   5.652  0.0133  0.0200 -0.0180
 3404ntf    nn318108   5.453   3.214   5.752 -0.1380 -0.2042  0.2990
 3404ntf    sn218109   5.609   3.209   5.765 -0.0976  0.1454 -0.0225
 3404ntf    cn118110   5.629   3.334   5.896 -0.2091  0.1979 -0.0552
 3404ntf    fn418111   5.433   3.287   5.450  0.4274 -0.3135  0.1893
 3404ntf    fn418112   5.227   3.215   5.452 -0.0695 -0.0595 -0.2212
 3404ntf    fn418113   5.292   3.371   5.584  0.8007 -0.1547 -0.0032
 3404ntf    on518114   5.229   3.107   5.696  0.0722  0.1939  0.2611
 3404ntf    on518115   5.444   3.036   5.580 -0.2998 -0.3991  0.1969
 3404ntf    on518116   5.682   3.261   5.652  0.0253  0.0448  0.0105
 3404ntf    on518117   5.653   3.088   5.831 -0.4565  0.0304  0.0070
 3404ntf    fn418118   5.753   3.367   5.930 -0.2602  0.5094 -0.1653
 3404ntf    fn418119   5.577   3.445   5.846 -0.0752  0.2565 -0.0658
 3404ntf    fn418120   5.557   3.301   6.001  0.1875  0.1652  0.2086
 3405ntf    cn118121   2.555   0.370   6.723  0.1009 -0.3334  0.4212
 3405ntf    sn218122   2.708   0.462   6.758 -0.1574  0.1898  0.1826
 3405ntf    nn318123   2.751   0.517   6.617  0.0877  0.1840  0.2542
 3405ntf    sn218124   2.716   0.652   6.546 -0.1909 -0.0211 -0.0026
 3405ntf    cn118125   2.872   0.744   6.562  0.1171 -0.4843 -0.3352
 3405ntf    fn418126   2.519   0.312   6.836 -0.1710  0.2032  0.6131
 3405ntf    fn418127   2.457   0.450   6.685  0.5704 -0.0228 -0.1601
 3405ntf    fn418128   2.564   0.275   6.631 -0.0338 -0.1426  0.2109
 3405ntf    on518129   2.668   0.560   6.856  0.5011 -0.0115  0.6604
 3405ntf    on518130   2.795   0.354   6.799  0.0427  0.2646 -0.0410
 3405ntf    on518131   2.616   0.740   6.602 -0.6529 -0.8505  0.5016
 3405ntf    on518132   2.712   0.635   6.402  0.3737 -0.2372  0.0060
 3405ntf    fn418133   2.892   0.787   6.685  0.2500 -0.3062 -0.4188
 3405ntf    fn418134   2.975   0.662   6.546  0.1054 -0.5354 -0.1510
 3405ntf    fn418135   2.886   0.845   6.477 -0.3981 -0.0701  0.0733
 3406ntf    cn118136   1.529   0.658   5.739  0.5384  0.3166  0.3883
 3406ntf    sn218137   1.623   0.806   5.690  0.2044  0.3788 -0.0690
 3406ntf    nn318138   1.580   0.914   5.795 -0.1844  0.1279  0.0326
 3406ntf    sn218139   1.579   0.908   5.952 -0.1367 -0.1986  0.0208
 3406ntf    cn118140   1.403   0.929   5.991 -0.1357 -0.4459  0.1612
 3406ntf    fn418141   1.516   0.572   5.639  0.5912  0.1277  0.5422
 3406ntf    fn418142   1.582   0.586   5.837 -0.1390 -0.4106  0.2328
 3406ntf    fn418143   1.405   0.682   5.776  0.0448 -0.4596 -0.7090
 3406ntf    on518144   1.761   0.773   5.713  0.1088 -0.5830 -0.7734
 3406ntf    on518145   1.576   0.835   5.557  0.3975  0.3871 -0.1344
 3406ntf    on518146   1.640   1.026   6.008  0.5276 -0.2882 -0.5069
 3406ntf    on518147   1.613   0.780   6.009  0.9340  0.1615  0.2143
 3406ntf    fn418148   1.385   0.945   6.121 -0.3993 -0.4677  0.1289
 3406ntf    fn418149   1.356   1.034   5.926 -0.0292  0.0205  0.8286
 3406ntf    fn418150   1.324   0.828   5.957  0.1259 -0.4861 -0.3286
 3407ntf    cn118151   4.375   0.947   6.829  0.1191 -0.0337  0.0808
 3407ntf    sn218152   4.215   1.032   6.815 -0.2428 -0.6527  0.4051
 3407ntf    nn318153   4.257   1.174   6.869 -0.8450 -0.3030 -0.0276
 3407ntf    sn218154   4.243   1.240   7.011 -0.1673  0.1456 -0.1666
 3407ntf    cn118155   4.109   1.362   6.997 -0.1387  0.1678 -0.2456
 3407ntf    fn418156   4.406   0.930   6.956  0.3353  0.2470  0.0695
 3407ntf    fn418157   4.375   0.831   6.765 -0.4199 -0.1646  0.3200
 3407ntf    fn418158   4.471   1.025   6.780  0.5579 -0.3554  0.4193
 3407ntf    on518159   4.203   1.034   6.671  0.6595 -0.2749  0.3247
 3407ntf    on518160   4.114   0.960   6.887 -0.7507 -0.3833 -0.0317
 3407ntf    on518161   4.362   1.318   7.036 -0.2304  0.3280 -0.4245
 3407ntf    on518162   4.203   1.156   7.121  0.5685  0.2608  0.1935
 3407ntf    fn418163   4.116   1.457   7.089  0.9454 -0.1755  0.0327
 3407ntf    fn418164   4.104   1.427   6.882 -0.2161 -0.3014 -0.5123
 3407ntf    fn418165   3.995   1.297   7.016 -0.0215  0.0723  0.1394
 3408ntf    cn118166   0.511   1.721   6.237 -0.0429 -0.0955  0.2312
 3408ntf    sn218167   0.629   1.765   6.107  0.0521 -0.5285  0.1677
 3408ntf    nn318168   0.558   1.701   5.983 -0.2073 -0.2995  0.1967
 3408ntf    sn218169   0.577   1.552   5.934 -0.0732 -0.2334  0.0466
 3408ntf    cn118170   0.682   1.595   5.792 -0.2919  0.2752  0.0368
 3408ntf    fn418171   0.546   1.777   6.352 -0.3056  0.2067  0.1673
 3408ntf    fn418172   0.394   1.773   6.203  0.0517 -0.1829 -0.2376
 3408ntf    fn418173   0.486   1.593   6.260  0.3303 -0.1890  0.1269
 3408ntf    on518174   0.633   1.909   6.105  0.4198 -0.5355  0.2960
 3408ntf    on518175   0.755   1.703   6.140  0.2062 -0.1438  0.3062
 3408ntf    on518176   0.460   1.491   5.876 -0.0944 -0.2226  0.0775
 3408ntf    on518177   0.656   1.464   6.016  0.1784  0.4697  0.5797
 3408ntf    fn418178   0.712   1.489   5.720 -0.5046  0.1223  0.1710
 3408ntf    fn418179   0.630   1.685   5.710 -0.1077 -0.1364 -0.5364
 3408ntf    fn418180   0.799   1.650   5.823 -0.1261 -0.2810  0.4067
 3409ntf    cn118181   1.861   0.581   0.325  0.1984 -0.1214  0.1299
 3409ntf    sn218182   1.682   0.550   0.313  0.2353 -0.1720 -0.2956
 3409ntf    nn318183   1.633   0.692   0.361  0.6650 -0.1662  0.1327
 3409ntf    sn218184   1.600   0.743   0.505  0.1043 -0.1117 -0.0125
 3409ntf    cn118185   1.420   0.724   0.501  0.1149 -0.3169  0.4341
 3409ntf    fn418186   1.882   0.707   0.291 -0.0449 -0.0629  0.1922
 3409ntf    fn418187   1.909   0.554   0.445  0.1677  0.1294  0.1991
 3409ntf    fn418188   1.925   0.503   0.239  0.0289 -0.1689  0.0467
 3409ntf    on518189   1.652   0.519   0.175  0.1070 -0.2294 -0.2551
 3409ntf    on518190   1.654   0.444   0.406 -0.0428  0.3742  0.2517
 3409ntf    on518191   1.609   0.886   0.515  0.0196 -0.1081  0.0109
 3409ntf    on518192   1.651   0.667   0.617  0.6640  0.3865  0.0759
 3409ntf    fn418193   1.367   0.786   0.397  0.2219 -0.5485  0.2392
 3409ntf    fn418194   1.375   0.599   0.498  0.3261 -0.3723 -0.7231
 3409ntf    fn418195   1.364   0.781   0.607  0.5741 -0.0569  0.5377
 3410ntf    cn118196   4.612   6.032   5.949 -0.5355  0.0164 -0.2616
 3410ntf    sn218197   4.589   6.016   5.769 -0.1464  0.0158 -0.3129
 3410ntf    nn318198   4.734   5.998   5.713  0.1042  0.6464  0.1317
 3410ntf    sn218199   4.780   5.907   5.594 -0.3072  0.1778  0.3288
 3410ntf    cn118200   4.912   6.013   5.527  0.0128 -0.0598  0.5759
 3410ntf    fn418201   4.497   6.070   6.002 -0.2793 -0.0611  0.3594
 3410ntf    fn418202   4.641   5.913   6.000 -0.0289  0.0884 -0.3788
 3410ntf    fn418203   4.711   6.111   5.987 -0.3848 -0.0759 -0.4567
 3410ntf    on518204   4.503   5.900   5.762  0.2040 -0.2285 -0.5693
 3410ntf    on518205   4.542   6.145   5.726 -0.2341  0.0063 -0.2490
 3410ntf    on518206   4.685   5.899   5.486 -0.2500 -0.3857  0.3176
 3410ntf    on518207   4.853   5.790   5.637  0.0541  0.2287 -0.1326
 3410ntf    fn418208   4.982   5.945   5.438 -0.8104 -0.0426 -0.1076
 3410ntf    fn418209   4.858   6.116   5.463 -0.3598 -0.1370  0.7594
 3410ntf    fn418210   4.990   6.064   5.621  0.2037  0.1996  0.2777
 3411ntf    cn118211   0.532   3.078   3.782  0.1863  0.0935 -0.0307
 3411ntf    sn218212   0.667   2.970   3.726  0.0912  0.0979 -0.2666
 3411ntf    nn318213   0.591   2.832   3.725  0.5192 -0.1432  0.0775
 3411ntf    sn218214   0.616   2.706   3.636  0.1327  0.0124 -0.2550
 3411ntf    cn118215   0.479   2.725   3.517  0.0795 -0.0679 -0.2064
 3411ntf    fn418216   0.486   3.027   3.896  0.3627  0.1713  0.0754
 3411ntf    fn418217   0.568   3.202   3.807  0.0657  0.1709 -0.2364
 3411ntf    fn418218   0.432   3.083   3.696 -0.0809  0.0094  0.2705
 3411ntf    on518219   0.705   3.026   3.598  0.1073 -0.1942 -0.3916
 3411ntf    on518220   0.760   2.982   3.835  0.3703 -0.2221 -0.4680
 3411ntf    on518221   0.587   2.579   3.698 -0.1000 -0.0534 -0.4942
 3411ntf    on518222   0.731   2.711   3.549  0.5229  0.1794  0.2701
 3411ntf    fn418223   0.499   2.830   3.441 -0.4023  0.0902 -0.1170
 3411ntf    fn418224   0.469   2.616   3.443 -0.0146 -0.5801  0.5389
 3411ntf    fn418225   0.361   2.742   3.575  0.3570 -0.2018  0.4109
 3412ntf    cn118226   2.341   2.566   5.932 -0.4265 -0.0234  0.1046
 3412ntf    sn218227   2.448   2.688   6.014 -0.0687 -0.1056 -0.2377
 3412ntf    nn318228   2.385   2.693   6.158 -0.1870  0.0980 -0.2967
 3412ntf    sn218229   2.440   2.630   6.291 -0.3767 -0.0159 -0.2705
 3412ntf    cn118230   2.294   2.533   6.338  0.0293 -0.1996  0.6372
 3412ntf    fn418231   2.358   2.447   5.989  0.0137 -0.2123 -0.4116
 3412ntf    fn418232   2.215   2.605   5.947 -0.4496  0.0110 -0.1800
 3412ntf    fn418233   2.369   2.542   5.805 -0.3515  0.2966  0.0615
 3412ntf    on518234   2.579   2.629   6.001 -0.0001  0.1784 -0.8144
 3412ntf    on518235   2.423   2.802   5.930 -0.2446 -0.0997 -0.1770
 3412ntf    on518236   2.448   2.727   6.398 -0.0111 -0.4636  0.1121
 3412ntf    on518237   2.540   2.526   6.280 -0.0790  0.2298  0.0753
 3412ntf    fn418238   2.320   2.454   6.441  0.0858 -0.5771  0.3340
 3412ntf    fn418239   2.190   2.608   6.370  0.2831  0.4027  0.0733
 3412ntf    fn418240   2.261   2.452   6.239 -0.2089  0.4401  0.1833
 3413ntf    cn118241   0.636   1.707   3.263 -0.1120  0.1717  0.2695
 3413ntf    sn218242   0.696   1.554   3.340 -0.1479  0.0655  0.0843
 3413ntf    nn318243   0.559   1.481   3.362  0.0045 -0.2362  0.0440
 3413ntf    sn218244   0.516   1.335   3.398 -0.0098 -0.2019  0.1651
 3413ntf    cn118245   0.453   1.283   3.235 -0.0036 -0.0133  0.1024
 3413ntf    fn418246   0.537   1.764   3.330 -0.0320 -0.1160  0.6351
 3413ntf    fn418247   0.727   1.803   3.259 -0.0289  0.0770 -0.0942
 3413ntf    fn418248   0.589   1.690   3.141 -0.0539  0.3998  0.2150
 3413ntf    on518249   0.785   1.500   3.239 -0.0585 -0.1121  0.2561
 3413ntf    on518250   0.757   1.608   3.458  0.4687  0.0119 -0.2008
 3413ntf    on518251   0.396   1.322   3.478 -0.2892 -0.5777 -0.3077
 3413ntf    on518252   0.623   1.240   3.414  0.0940 -0.0722  0.2380
 3413ntf    fn418253   0.443   1.151   3.234  0.0275 -0.0157  0.0715
 3413ntf    fn418254   0.333   1.332   3.212 -0.3457 -0.7977  0.1865
 3413ntf    fn418255   0.536   1.327   3.141 -0.2989  0.1893 -0.0623
 3414ntf    cn118256   4.795   6.575   0.780 -0.1456  0.2498 -0.2171
 3414ntf    sn218257   4.754   6.629   0.949  0.1317 -0.1390 -0.0233
 3414ntf    nn318258   4.788   6.505   1.039  0.4184 -0.2303 -0.2543
 3414ntf    sn218259   4.706   6.387   1.101  0.0633  0.0092 -0.2688
 3414ntf    cn118260   4.691   6.453   1.270 -0.1978  0.0241 -0.2972
 3414ntf    fn418261   4.732   6.650   0.691 -0.2142 -0.0115 -0.3910
 3414ntf    fn418262   4.925   6.586   0.757 -0.0363 -0.1131  0.2008
 3414ntf    fn418263   4.769   6.447   0.759  0.2116  0.1345  0.0301
 3414ntf    on518264   4.847   6.737   0.974 -0.3066  0.1548  0.3697
 3414ntf    on518265   4.614   6.661   0.938  0.2553  0.3481 -0.2102
 3414ntf    on518266   4.779   6.265   1.121 -0.2039 -0.0471  0.4053
 3414ntf    on518267   4.569   6.375   1.056 -0.1777 -0.0706  0.4684
 3414ntf    fn418268   4.612   6.391   1.356  0.2479  0.1014  0.1743
 3414ntf    fn418269   4.812   6.443   1.322 -0.1547  0.2246 -0.3587
 3414ntf    fn418270   4.659   6.581   1.272  0.6570  0.2407 -0.2421
 3415ntf    cn118271   1.330   3.586   5.317 -0.3904  0.2886  0.0908
 3415ntf    sn218272   1.331   3.441   5.427  0.4459  0.0107 -0.2785
 3415ntf    nn318273   1.468   3.374   5.387  0.1284 -0.7769 -0.0645
 3415ntf    sn218274   1.605   3.386   5.463 -0.1601 -0.3709  0.3991
 3415ntf    cn118275   1.600   3.247   5.581  0.0977 -0.1110  0.7155
 3415ntf    fn418276   1.217   3.654   5.317 -0.7397 -0.2788  0.2969
 3415ntf    fn418277   1.425   3.668   5.357 -0.0800 -0.2236  0.4122
 3415ntf    fn418278   1.362   3.549   5.194 -0.3149 -0.5334  0.3540
 3415ntf    on518279   1.331   3.490   5.562 -0.1839 -0.0511 -0.2557
 3415ntf    on518280   1.211   3.377   5.379  0.3311  0.1731 -0.2071
 3415ntf    on518281   1.622   3.501   5.548  0.5230  0.1221 -0.3975
 3415ntf    on518282   1.715   3.356   5.375 -0.3710  0.3360 -0.1183
 3415ntf    fn418283   1.711   3.221   5.647  0.4123  0.2533  0.3368
 3415ntf    fn418284   1.517   3.271   5.681  0.0669  0.4918  0.5513
 3415ntf    fn418285   1.559   3.132   5.530  0.0956  0.2248 -0.0603
 3416ntf    cn118286   3.340   2.548   5.384 -0.3960 -0.0538  0.2056
 3416ntf    sn218287   3.303   2.726   5.393 -0.1135  0.0373 -0.3559
 3416ntf    nn318288   3.229   2.750   5.257 -0.2950  0.4017 -0.1940
 3416ntf    sn218289   3.077   2.779   5.229 -0.3471  0.1721 -0.1453
 3416ntf    cn118290   3.021   2.615   5.172  0.1412 -0.0420 -0.0191
 3416ntf    fn418291   3.388   2.499   5.271 -0.2244  0.0106  0.2507
 3416ntf    fn418292   3.432   2.522   5.475 -0.0315  0.5188  0.0119
 3416ntf    fn418293   3.243   2.464   5.415 -0.2096 -0.1592  0.5083
 3416ntf    on518294   3.217   2.735   5.509  0.0544  0.3655 -0.2546
 3416ntf    on518295   3.430   2.794   5.395  0.0921 -0.3467 -0.2292
 3416ntf    on518296   3.066   2.860   5.110 -0.3891  0.4958  0.0783
 3416ntf    on518297   2.987   2.810   5.337 -0.4186 -0.8267  0.0904
 3416ntf    fn418298   3.035   2.523   5.265 -0.1822 -0.5071 -0.4261
 3416ntf    fn418299   2.898   2.599   5.126  0.0910  0.6239 -0.1321
 3416ntf    fn418300   3.099   2.569   5.076 -0.1579 -0.0058 -0.2806
 3417ntf    cn118301   2.141   3.190   0.276  0.1897  0.4674  0.0543
 3417ntf    sn218302   2.014   3.232   0.153  0.1453  0.2216  0.0165
 3417ntf    nn318303   1.885   3.186   0.230 -0.2649 -0.1930 -0.8967
 3417ntf    sn218304   1.744   3.250   0.253 -0.0844 -0.0154 -0.2549
 3417ntf    cn118305   1.636   3.138   0.159  0.2453 -0.3281 -0.2607
 3417ntf    fn418306   2.132   3.060   0.297  0.2046  0.4995  0.2657
 3417ntf    fn418307   2.260   3.213   0.225  0.4531 -0.4418  0.2394
 3417ntf    fn418308   2.125   3.259   0.388  0.1522  0.0137  0.3312
 3417ntf    on518309   2.026   3.374   0.133 -1.0379  0.3038 -0.2051
 3417ntf    on518310   2.034   3.142   0.042  0.0750 -0.1770  0.3243
 3417ntf    on518311   1.714   3.374   0.187  0.2946  0.1451 -0.1233
 3417ntf    on518312   1.701   3.233   0.390 -0.3919 -0.0046 -0.3473
 3417ntf    fn418313   1.654   3.148   0.028 -0.4357 -0.0653 -0.3346
 3417ntf    fn418314   1.665   3.010   0.176 -0.0847 -0.3631  0.0266
 3417ntf    fn418315   1.507   3.143   0.186  0.2551  0.0418 -0.2834
 3418ntf    cn118316   2.141   5.513   1.536 -0.0953  0.2397  0.1081
 3418ntf    sn218317   2.146   5.571   1.363  0.3087 -0.4833 -0.1280
 3418ntf    nn318318   2.183   5.722   1.386  0.1017 -0.3822 -0.4465
 3418ntf    sn218319   2.322   5.795   1.379 -0.1471  0.1137 -0.2175
 3418ntf    cn118320   2.296   5.930   1.499  0.2100 -0.3103  0.3393
 3418ntf    fn418321   2.046   5.571   1.608 -0.0563  0.0027  0.3503
 3418ntf    fn418322   2.124   5.382   1.538 -0.0377  0.2344  0.2272
 3418ntf    fn418323   2.259   5.533   1.593  0.2449  0.3575 -0.6119
 3418ntf    on518324   2.252   5.484   1.320  0.3971 -0.1224 -0.6382
 3418ntf    on518325   2.013   5.539   1.317  0.1482 -0.4526  0.3060
 3418ntf    on518326   2.348   5.867   1.257  0.4985  0.2986  0.0268
 3418ntf    on518327   2.426   5.712   1.432 -0.4152 -0.2363 -0.2385
 3418ntf    fn418328   2.194   6.007   1.466  0.0822 -0.5792  0.0983
 3418ntf    fn418329   2.282   5.882   1.621 -0.2329 -0.1818  0.3394
 3418ntf    fn418330   2.398   6.014   1.505 -0.0016 -0.0624  0.4932
 3419ntf    cn118331   3.712   0.287   2.068  0.1880  0.1943 -0.1430
 3419ntf    sn218332   3.872   0.372   2.079  0.3391 -0.1311  0.2024
 3419ntf    nn318333   3.879   0.424   1.931  0.2734 -0.7781 -0.0317
 3419ntf    sn218334   3.999   0.458   1.836  0.2421  0.1332  0.2414
 3419ntf    cn118335   3.989   0.317   1.722 -0.0724  0.1393  0.2608
 3419ntf    fn418336   3.613   0.370   2.043 -0.0254 -0.0573 -0.1366
 3419ntf    fn418337   3.710   0.195   1.973  0.1378 -0.1906  0.2313
 3419ntf    fn418338   3.682   0.232   2.184  0.3176 -0.9132 -0.6239
 3419ntf    on518339   3.859   0.482   2.172  0.3518  0.3100 -0.3085
 3419ntf    on518340   3.970   0.273   2.117  0.1603 -0.2060  0.4688
 3419ntf    on518341   4.129   0.445   1.897  0.1592 -0.0375  0.3838
 3419ntf    on518342   3.964   0.577   1.763  0.1472 -0.0778 -0.0583
 3419ntf    fn418343   4.088   0.309   1.634  0.2979  0.4738  0.6402
 3419ntf    fn418344   3.983   0.208   1.796  0.7520  0.1205  0.3075
 3419ntf    fn418345   3.877   0.318   1.652  0.1841  0.1152 -0.1549
 3420ntf    cn118346   3.612   5.531   1.167 -0.1195 -0.1609 -0.1845
 3420ntf    sn218347   3.457   5.451   1.219 -0.0323 -0.1998  0.0170
 3420ntf    nn318348   3.451   5.507   1.366 -0.3453 -0.4546  0.1013
 3420ntf    sn218349   3.328   5.534   1.460 -0.0839 -0.0695  0.3347
 3420ntf    cn118350   3.293   5.709   1.423  0.2840 -0.0862 -0.1057
 3420ntf    fn418351   3.633   5.648   1.225 -0.3841 -0.4583  0.5228
 3420ntf    fn418352   3.718   5.457   1.195 -0.0623 -0.0113  0.0073
 3420ntf    fn418353   3.605   5.560   1.038 -0.1228  0.3254 -0.0768
 3420ntf    on518354   3.353   5.502   1.134 -0.1940  0.1106  0.3954
 3420ntf    on518355   3.499   5.313   1.212  0.7665  0.0522 -0.2307
 3420ntf    on518356   3.369   5.526   1.598  0.1526 -0.0052  0.2684
 3420ntf    on518357   3.202   5.466   1.437 -0.3304  0.3332  0.4791
 3420ntf    fn418358   3.187   5.752   1.490  0.2268 -0.0162 -0.2397
 3420ntf    fn418359   3.391   5.791   1.456 -0.1490  0.3013  0.2329
 3420ntf    fn418360   3.259   5.730   1.297 -0.2748  0.0051  0.0575
 3421ntf    cn118361   5.068   5.269   2.555  0.1762 -0.2622 -0.1924
 3421ntf    sn218362   5.120   5.234   2.726 -0.1168  0.2638  0.0078
 3421ntf    nn318363   5.009   5.307   2.809 -0.1588 -0.1037  0.2795
 3421ntf    sn218364   5.017   5.420   2.918 -0.0815  0.2205 -0.0612
 3421ntf    cn118365   5.020   5.568   2.812  0.3165  0.0966 -0.2276
 3421ntf    fn418366   4.948   5.223   2.521  0.2559 -0.2451 -0.4989
 3421ntf    fn418367   5.079   5.396   2.523 -0.5568 -0.1876 -0.1659
 3421ntf    fn418368   5.144   5.207   2.466 -0.0636 -0.3160 -0.3619
 3421ntf    on518369   5.108   5.090   2.727 -0.2732  0.2737 -0.2489
 3421ntf    on518370   5.254   5.288   2.732 -0.2540  0.5848  0.1675
 3421ntf    on518371   5.133   5.419   3.003 -0.3650  0.3367  0.3276
 3421ntf    on518372   4.893   5.437   2.988 -0.1036  0.4638 -0.1572
 3421ntf    fn418373   5.126   5.577   2.734  0.4047 -0.0146 -0.1198
 3421ntf    fn418374   4.919   5.566   2.726 -0.1395  0.3909  0.2903
 3421ntf    fn418375   5.018   5.681   2.880  0.5944  0.1432 -0.2984
 3422ntf    cn118376   4.766   3.378   0.979  0.0415 -0.3217 -0.5758
 3422ntf    sn218377   4.672   3.459   0.846 -0.1353  0.1766 -0.1506
 3422ntf    nn318378   4.578   3.339   0.807 -0.1397  0.1704 -0.1206
 3422ntf    sn218379   4.578   3.250   0.678 -0.3800  0.1539 -0.1100
 3422ntf    cn118380   4.475   3.349   0.566 -0.3148  0.0682 -0.2468
 3422ntf    fn418381   4.825   3.266   0.940 -0.0882 -0.4375 -0.4398
 3422ntf    fn418382   4.861   3.464   1.010 -0.5191 -0.0114  0.3187
 3422ntf    fn418383   4.704   3.353   1.093  0.1596  0.1520 -0.4084
 3422ntf    on518384   4.604   3.559   0.923  0.2573  0.1229  0.2671
 3422ntf    on518385   4.786   3.498   0.766 -0.1516  0.0386 -0.2428
 3422ntf    on518386   4.507   3.127   0.699  0.4705 -0.3092  0.1124
 3422ntf    on518387   4.700   3.226   0.605 -0.2855  0.2686  0.0101
 3422ntf    fn418388   4.347   3.327   0.592 -0.1936 -0.2359  0.0957
 3422ntf    fn418389   4.502   3.477   0.586 -0.6184  0.1233 -0.1759
 3422ntf    fn418390   4.504   3.323   0.439 -0.2526 -0.1839 -0.1818
 3423ntf    cn118391   2.998   1.654   6.125  0.0026 -0.0413 -0.0299
 3423ntf    sn218392   2.944   1.490   6.183 -0.1919  0.0106 -0.0651
 3423ntf    nn318393   2.798   1.481   6.127 -0.3195 -0.3257  0.3184
 3423ntf    sn218394   2.732   1.407   6.005 -0.2007 -0.0399  0.0801
 3423ntf    cn118395   2.665   1.264   6.095  0.1738 -0.2069  0.0972
 3423ntf    fn418396   3.119   1.684   6.171  0.1442 -0.0729 -0.3785
 3423ntf    fn418397   3.000   1.668   5.994 -0.1625  0.1261 -0.0146
 3423ntf    fn418398   2.914   1.746   6.168  0.0414 -0.2544  0.5187
 3423ntf    on518399   3.044   1.407   6.120 -0.0931 -0.0753  0.2041
 3423ntf    on518400   2.949   1.496   6.327 -0.5283 -0.4441 -0.0347
 3423ntf    on518401   2.829   1.359   5.909  0.0407  0.4273  0.0879
 3423ntf    on518402   2.618   1.480   5.955  0.0234 -0.0853 -0.5105
 3423ntf    fn418403   2.769   1.188   6.124 -0.0066 -0.3626  0.3373
 3423ntf    fn418404   2.593   1.290   6.203 -0.1812  0.0212 -0.1885
 3423ntf    fn418405   2.588   1.193   6.014 -0.1040  0.1309  0.0597
 3424ntf    cn118406   2.576   2.582   1.809 -0.0888  0.1599  0.0753
 3424ntf    sn218407   2.551   2.759   1.777 -0.0223  0.2160  0.3257
 3424ntf    nn318408   2.423   2.757   1.685  0.1778 -0.0421  0.0520
 3424ntf    sn218409   2.408   2.777   1.530 -0.5512  0.1503  0.1443
 3424ntf    cn118410   2.359   2.612   1.472  0.2028 -0.1169  0.2576
 3424ntf    fn418411   2.562   2.509   1.700  0.0656  0.1439  0.0658
 3424ntf    fn418412   2.696   2.557   1.859 -0.0464  0.2224  0.0034
 3424ntf    fn418413   2.495   2.537   1.904  0.5044 -0.1016  0.4693
 3424ntf    on518414   2.518   2.802   1.911  0.4861 -0.7180  0.7586
 3424ntf    on518415   2.666   2.812   1.709 -0.0245  0.0360  0.1808
 3424ntf    on518416   2.536   2.801   1.467 -0.5486 -0.0691  0.0666
 3424ntf    on518417   2.296   2.863   1.502 -0.5771 -0.0287 -0.3036
 3424ntf    fn418418   2.353   2.605   1.340 -0.0295 -0.0393  0.2641
 3424ntf    fn418419   2.451   2.523   1.507  0.3963 -0.0636 -0.1031
 3424ntf    fn418420   2.242   2.566   1.514  0.1673  0.2010  0.5122
 3425ntf    cn118421   3.868   0.602   4.570 -0.6017  0.1740 -0.2056
 3425ntf    sn218422   3.924   0.774   4.552  0.0052  0.0311  0.2703
 3425ntf    nn318423   3.794   0.859   4.527 -0.3774 -0.7533 -0.4712
 3425ntf    sn218424   3.689   0.913   4.630 -0.0460 -0.3035 -0.3644
 3425ntf    cn118425   3.755   1.080   4.660  0.0729 -0.3644 -0.2851
 3425ntf    fn418426   3.806   0.565   4.459  0.4264 -0.5463 -0.5617
 3425ntf    fn418427   3.971   0.520   4.584 -0.1932  0.6321 -0.4544
 3425ntf    fn418428   3.783   0.584   4.670 -0.3905 -0.0169 -0.0578
 3425ntf    on518429   4.003   0.803   4.669  0.1504  0.2214  0.1260
 3425ntf    on518430   3.994   0.773   4.426 -0.2539  0.2445  0.1218
 3425ntf    on518431   3.702   0.850   4.759 -0.3633  0.2570 -0.0530
 3425ntf    on518432   3.555   0.925   4.578  0.1762  0.5033 -0.7725
 3425ntf    fn418433   3.801   1.149   4.557  0.2592 -0.2370 -0.1165
 3425ntf    fn418434   3.666   1.160   4.717  0.5870 -0.0101  0.0267
 3425ntf    fn418435   3.855   1.077   4.746 -0.5735  0.0071  0.4996
 3426ntf    cn118436   0.183   6.560   5.765  0.0111 -0.2903 -0.2850
 3426ntf    sn218437   0.308   6.606   5.641  0.4881 -0.0087  0.2957
 3426ntf    nn318438   0.224   6.667   5.523  0.6242  0.0957  0.2523
 3426ntf    sn218439   0.172   6.813   5.496 -0.0243 -0.2799 -0.5634
 3426ntf    cn118440  -0.005   6.814   5.535  0.1286  0.0644  0.1448
 3426ntf    fn418441   0.092   6.481   5.710 -0.1502 -0.6124  0.4377
 3426ntf    fn418442   0.238   6.497   5.867  0.4172  0.3479 -0.1086
 3426ntf    fn418443   0.113   6.664   5.806 -0.0558 -0.1179 -0.8241
 3426ntf    on518444   0.400   6.696   5.705  0.5647 -0.2386  0.5104
 3426ntf    on518445   0.360   6.475   5.609  0.5919  0.2152 -0.4634
 3426ntf    on518446   0.172   6.852   5.357 -0.0147  0.7606 -0.2751
 3426ntf    on518447   0.221   6.908   5.593  0.3419 -0.5362 -0.4944
 3426ntf    fn418448  -0.060   6.933   5.523  0.0714 -0.0042 -0.3219
 3426ntf    fn418449  -0.067   6.731   5.452  0.1595  0.0467  0.1394
 3426ntf    fn418450  -0.043   6.782   5.658  0.5550  0.2315  0.3198
 3427ntf    cn118451   5.197   3.309   1.762 -0.2194 -0.1673  0.2722
 3427ntf    sn218452   5.114   3.469   1.738 -0.0824 -0.1160  0.1393
 3427ntf    nn318453   5.109   3.521   1.886  0.1497  0.2231  0.0295
 3427ntf    sn218454   4.990   3.493   1.985  0.1772  0.0439  0.0116
 3427ntf    cn118455   5.080   3.487   2.143 -0.3392  0.3275  0.3179
 3427ntf    fn418456   5.126   3.217   1.826  0.2162 -0.6958  0.0053
 3427ntf    fn418457   5.246   3.257   1.651  0.0764  0.0838  0.2855
 3427ntf    fn418458   5.300   3.325   1.844  0.3733  0.3209 -0.5523
 3427ntf    on518459   5.209   3.546   1.661 -0.1890 -0.2510 -0.1302
 3427ntf    on518460   4.988   3.434   1.677 -0.0560 -0.5681  0.3389
 3427ntf    on518461   4.939   3.358   1.973 -0.3833  0.2474  0.0921
 3427ntf    on518462   4.898   3.602   2.004 -0.3591 -0.3358 -0.3678
 3427ntf    fn418463   5.173   3.393   2.138 -0.4311  0.2461  0.1165
 3427ntf    fn418464   5.148   3.596   2.173 -0.4182  0.6098 -0.4944
 3427ntf    fn418465   5.003   3.458   2.247 -0.3530  0.0060  0.2188
 3428ntf    cn118466   1.762   6.522   0.356 -0.2524 -0.1438  0.3725
 3428ntf    sn218467   1.743   6.364   0.269 -0.1150 -0.0204  0.1191
 3428ntf    nn318468   1.708   6.265   0.385 -0.4817  0.1240  0.1339
 3428ntf    sn218469   1.596   6.156   0.403 -0.0608 -0.2974  0.2321
 3428ntf    cn118470   1.709   6.014   0.414  0.7394  0.3198  0.0838
 3428ntf    fn418471   1.846   6.507   0.457 -0.2862 -0.4403  0.3560
 3428ntf    fn418472   1.827   6.607   0.277 -0.2531 -0.0747  0.4452
 3428ntf    fn418473   1.653   6.579   0.405 -0.5673 -0.6361  0.2447
 3428ntf    on518474   1.639   6.390   0.172  0.0955  0.2108 -0.0472
 3428ntf    on518475   1.874   6.335   0.217 -0.1256  0.2623 -0.0727
 3428ntf    on518476   1.518   6.122   0.287 -0.0241  0.9692 -0.1808
 3428ntf    on518477   1.527   6.172   0.529 -0.3324  0.1165  0.0323
 3428ntf    fn418478   1.645   5.899   0.428 -0.3345  0.8516 -0.3353
 3428ntf    fn418479   1.791   6.012   0.310  0.2020 -0.1636 -0.3340
 3428ntf    fn418480   1.786   6.020   0.522 -0.0810 -0.4676  0.7362
 3429ntf    cn118481   1.570   6.994   4.428  0.1469  0.1178  0.3720
 3429ntf    sn218482   1.552   6.894   4.278 -0.1699 -0.1246  0.5690
 3429ntf    nn318483   1.664   6.971   4.200 -0.0203 -0.4029  0.5057
 3429ntf    sn218484   1.817   6.935   4.190  0.1816  0.5311  0.0954
 3429ntf    cn118485   1.908   7.092   4.207  0.4193  0.3727  0.2959
 3429ntf    fn418486   1.537   7.121   4.410  0.2250  0.0391 -0.3360
 3429ntf    fn418487   1.485   6.950   4.520 -0.4458 -0.6373 -0.5305
 3429ntf    fn418488   1.690   6.990   4.483  0.3206 -0.1577 -0.0323
 3429ntf    on518489   1.593   6.759   4.309  0.5154 -0.0265  0.1281
 3429ntf    on518490   1.419   6.913   4.227 -0.0169 -0.3749  0.0663
 3429ntf    on518491   1.856   6.890   4.059 -0.1725 -0.0112  0.1761
 3429ntf    on518492   1.859   6.862   4.307 -0.0645  0.3404  0.0655
 3429ntf    fn418493   2.037   7.070   4.186  0.1506 -0.4841 -0.5644
 3429ntf    fn418494   1.873   7.173   4.109  0.2049 -0.3517 -0.2402
 3429ntf    fn418495   1.893   7.144   4.327  0.1319  0.2864  0.2978
 3430ntf    cn118496   5.111   3.820   5.575 -0.1040 -0.3788 -0.5308
 3430ntf    sn218497   5.184   3.935   5.695 -0.1058 -0.8547 -0.0715
 3430ntf    nn318498   5.267   3.835   5.783  0.4235 -0.3158  0.0487
 3430ntf    sn218499   5.256   3.815   5.938 -0.1295  0.1081  0.0694
 3430ntf    cn118500   5.339   3.653   5.942 -0.2728  0.0305 -0.0828
 3430ntf    fn418501   5.193   3.788   5.477  0.9191 -0.5325  0.3595
 3430ntf    fn418502   5.066   3.706   5.623 -0.4572 -0.1395 -0.2878
 3430ntf    fn418503   5.006   3.875   5.515 -0.1996  0.2021  0.1545
 3430ntf    on518504   5.266   4.009   5.602  0.0692 -0.2848  0.5251
 3430ntf    on518505   5.080   4.015   5.756  0.0410 -0.6371 -0.1022
 3430ntf    on518506   5.128   3.781   5.995 -0.1080 -0.4692 -0.2241
 3430ntf    on518507   5.347   3.892   6.019 -0.1018  0.1616 -0.0130
 3430ntf    fn418508   5.313   3.579   6.049  0.3156  0.1471  0.1479
 3430ntf    fn418509   5.307   3.574   5.841  0.1894 -0.1224 -0.1140
 3430ntf    fn418510   5.469   3.676   5.933 -0.3047  0.2738  0.0818
 3431ntf    cn118511   6.915   2.209   2.186 -0.1034  0.0279 -0.0843
 3431ntf    sn218512   6.748   2.157   2.137 -0.0766  0.0123 -0.1564
 3431ntf    nn318513   6.702   2.087   2.270  0.2609  0.1014  0.0098
 3431ntf    sn218514   6.718   1.937   2.311 -0.2516  0.0102 -0.1075
 3431ntf    cn118515   6.559   1.854   2.283 -0.1361 -0.2168 -0.0922
 3431ntf    fn418516   6.904   2.314   2.267 -0.1704  0.0332 -0.0998
 3431ntf    fn418517   6.991   2.113   2.234 -0.6352  0.1060  0.9374
 3431ntf    fn418518   6.978   2.249   2.077  0.3092 -0.2565  0.0470
 3431ntf    on518519   6.667   2.274   2.118  0.3209  0.5031  1.1082
 3431ntf    on518520   6.773   2.072   2.023 -0.4967 -0.2600 -0.0465
 3431ntf    on518521   6.742   1.930   2.453 -0.0121  0.3687 -0.1290
 3431ntf    on518522   6.815   1.867   2.230  0.1152  0.4524 -0.0592
 3431ntf    fn418523   6.564   1.722   2.288 -0.1807 -0.2231 -0.1966
 3431ntf    fn418524   6.463   1.902   2.359 -0.0996  0.0149 -0.1918
 3431ntf    fn418525   6.518   1.877   2.159  0.4435  0.5708 -0.1483
 3432ntf    cn118526   4.172   0.411   0.608  0.4445 -0.1109  0.2640
 3432ntf    sn218527   4.145   0.399   0.429 -0.1036  0.7100  0.2877
 3432ntf    nn318528   4.290   0.366   0.378 -0.3110  0.3683 -0.0892
 3432ntf    sn218529   4.394   0.416   0.272 -0.3571  0.1479 -0.2387
 3432ntf    cn118530   4.508   0.513   0.375 -0.1825  0.1456 -0.4291
 3432ntf    fn418531   4.256   0.510   0.630  0.1157  0.4290 -0.8538
 3432ntf    fn418532   4.061   0.435   0.675 -0.0267 -0.5429 -0.3483
 3432ntf    fn418533   4.221   0.299   0.659  0.2053 -0.3573 -0.0406
 3432ntf    on518534   4.055   0.290   0.401  0.9075  0.0333 -0.4185
 3432ntf    on518535   4.095   0.531   0.399 -0.4122  0.4272 -0.4722
 3432ntf    on518536   4.341   0.505   0.172 -0.1600  0.1220 -0.3674
 3432ntf    on518537   4.482   0.311   0.226 -0.3631  0.0835 -0.1050
 3432ntf    fn418538   4.445   0.599   0.453 -0.3377  0.0358 -0.4343
 3432ntf    fn418539   4.583   0.438   0.455 -0.9569 -0.3779 -0.1871
 3432ntf    fn418540   4.595   0.587   0.308  0.0406 -0.3097 -0.6527
 3433ntf    cn118541   2.289   5.102   0.289  0.1613 -0.0483 -0.4141
 3433ntf    sn218542   2.246   4.936   0.229 -0.2610 -0.0176 -0.1999
 3433ntf    nn318543   2.316   4.920   0.089  0.5174  0.1317  0.1681
 3433ntf    sn218544   2.253   4.916  -0.054  0.0742  0.1937  0.3602
 3433ntf    cn118545   2.393   4.994  -0.139  0.0739  0.1344  0.3057
 3433ntf    fn418546   2.418   5.120   0.312  0.0871  0.1991 -0.1893
 3433ntf    fn418547   2.261   5.186   0.191  0.0037  0.3723 -0.0124
 3433ntf    fn418548   2.228   5.138   0.401  0.4883  0.3784 -0.3704
 3433ntf    on518549   2.315   4.853   0.325  0.0366  0.1486 -0.2661
 3433ntf    on518550   2.103   4.924   0.229 -0.2745  0.0621  0.7161
 3433ntf    on518551   2.143   5.006  -0.078  0.0279  0.2187  0.6675
 3433ntf    on518552   2.245   4.780  -0.103  0.0820  0.3972 -0.2068
 3433ntf    fn418553   2.496   4.910  -0.142 -0.2514 -0.2588  0.1615
 3433ntf    fn418554   2.376   5.016  -0.268  0.2571  0.4023  0.3244
 3433ntf    fn418555   2.433   5.112  -0.094  0.4418  0.0372  0.2365
 3434ntf    cn118556   5.433   2.809   1.299  0.1649  0.2028 -0.0151
 3434ntf    sn218557   5.593   2.852   1.223  0.1142 -0.1664 -0.3316
 3434ntf    nn318558   5.641   2.703   1.210 -0.0010 -0.2577  0.2647
 3434ntf    sn218559   5.618   2.595   1.099 -0.0926  0.4141 -0.3804
 3434ntf    cn118560   5.787   2.557   1.045  0.0043  0.0653  0.1552
 3434ntf    fn418561   5.467   2.759   1.417  0.1896  0.1773 -0.0331
 3434ntf    fn418562   5.353   2.913   1.315  0.1592  0.1050  0.6449
 3434ntf    fn418563   5.359   2.716   1.243  0.0285  0.4983 -0.3280
 3434ntf    on518564   5.566   2.935   1.108  0.2890  0.0195 -0.2392
 3434ntf    on518565   5.663   2.914   1.333 -0.3029 -0.1953 -0.0460
 3434ntf    on518566   5.553   2.641   0.979 -0.7852  0.1216 -0.1272
 3434ntf    on518567   5.589   2.463   1.151 -0.2511  0.2949 -0.7695
 3434ntf    fn418568   5.783   2.465   0.950  0.4154 -0.3167  0.5049
 3434ntf    fn418569   5.858   2.660   1.002  0.2559 -0.2378 -0.1668
 3434ntf    fn418570   5.861   2.505   1.142  0.3350  0.1106 -0.0689
 3435ntf    cn118571   3.624   4.643   4.241  0.1237  0.3310  0.1141
 3435ntf    sn218572   3.536   4.600   4.395 -0.3010  0.0949 -0.1936
 3435ntf    nn318573   3.419   4.527   4.321 -0.3581 -0.1063  0.0955
 3435ntf    sn218574   3.266   4.559   4.336 -0.3407  0.0610 -0.0835
 3435ntf    cn118575   3.195   4.392   4.329 -0.2531  0.0103  0.1980
 3435ntf    fn418576   3.738   4.707   4.263  0.2371  0.2814 -0.3348
 3435ntf    fn418577   3.652   4.534   4.173  0.2260  0.2609  0.2660
 3435ntf    fn418578   3.549   4.719   4.163  0.2308  0.1744 -0.1428
 3435ntf    on518579   3.614   4.502   4.467 -0.2191 -0.0360 -0.4562
 3435ntf    on518580   3.512   4.722   4.467  0.5125  0.0607  0.1494
 3435ntf    on518581   3.219   4.624   4.216  0.3039 -0.2271 -0.4947
 3435ntf    on518582   3.231   4.609   4.467 -0.1324  0.5090 -0.1967
 3435ntf    fn418583   3.063   4.387   4.328 -0.2357 -0.4196 -0.3856
 3435ntf    fn418584   3.232   4.327   4.220 -0.4394 -0.1831  0.2503
 3435ntf    fn418585   3.220   4.321   4.437 -0.1165 -0.2083  0.0236
 3436ntf    cn118586   3.098   6.188   0.614  0.0499  0.0781 -0.3907
 3436ntf    sn218587   3.019   6.127   0.766  0.1300 -0.1014 -0.4209
 3436ntf    nn318588   2.899   6.228   0.755  0.2920  0.1876  0.3894
 3436ntf    sn218589   2.860   6.341   0.857  0.1720  0.2247  0.3033
 3436ntf    cn118590   2.780   6.457   0.742  0.0343 -0.4928 -0.3365
 3436ntf    fn418591   3.147   6.311   0.622 -0.3685  0.2361 -0.2389
 3436ntf    fn418592   3.203   6.112   0.585 -0.2263 -0.6714  0.5132
 3436ntf    fn418593   3.016   6.194   0.511 -0.4413 -0.0827 -0.0169
 3436ntf    on518594   2.999   5.985   0.748  0.6638 -0.2358  0.0313
 3436ntf    on518595   3.112   6.160   0.871 -0.4327 -0.1527  0.0991
 3436ntf    on518596   2.970   6.417   0.910 -0.1830  0.7132  0.3470
 3436ntf    on518597   2.748   6.312   0.943 -0.0093 -0.9306 -0.2930
 3436ntf    fn418598   2.671   6.407   0.687 -0.0573 -0.6616 -0.0084
 3436ntf    fn418599   2.749   6.570   0.804  0.3429 -0.3968 -0.3563
 3436ntf    fn418600   2.864   6.480   0.643  0.6869  0.2698  0.3730
 3437ntf    cn118601   2.219   1.048   5.461 -0.0907  0.1326  0.5018
 3437ntf    sn218602   2.197   1.173   5.591  0.2418  0.4507  0.2527
 3437ntf    nn318603   2.205   1.307   5.510  0.1965  0.2591 -0.0715
 3437ntf    sn218604   2.107   1.367   5.402  0.1782  0.1708 -0.1042
 3437ntf    cn118605   2.023   1.484   5.514 -0.0284  0.1265 -0.2130
 3437ntf    fn418606   2.288   0.940   5.495 -0.2651 -0.1128  0.0815
 3437ntf    fn418607   2.101   0.990   5.444  0.2996 -0.4655 -0.2627
 3437ntf    fn418608   2.261   1.090   5.343  0.2259 -0.0339  0.5527
 3437ntf    on518609   2.069   1.147   5.651  0.3352  0.5719  0.5066
 3437ntf    on518610   2.305   1.159   5.686 -0.1600 -0.2951  0.5990
 3437ntf    on518611   2.002   1.278   5.359 -0.2721  0.3302  0.6399
 3437ntf    on518612   2.170   1.453   5.306  0.0253  0.1186 -0.2512
 3437ntf    fn418613   2.103   1.568   5.576  0.2485  0.0231 -0.4230
 3437ntf    fn418614   1.943   1.564   5.445 -0.0429  0.1676 -0.1475
 3437ntf    fn418615   1.954   1.425   5.611  0.1274  0.7848  0.3001
 3438ntf    cn118616   6.991   3.685   2.348  0.0696 -0.1909 -0.0567
 3438ntf    sn218617   7.050   3.623   2.509  0.1848  0.0230 -0.0161
 3438ntf    nn318618   7.177   3.713   2.524  0.4056 -0.2892  0.0044
 3438ntf    sn218619   7.205   3.834   2.621  0.2338 -0.1060 -0.1722
 3438ntf    cn118620   7.288   3.750   2.759  0.0024 -0.0270  0.0145
 3438ntf    fn418621   7.073   3.638   2.255  0.1703  0.2952 -0.2141
 3438ntf    fn418622   6.869   3.651   2.311  0.1188 -0.2526 -0.1619
 3438ntf    fn418623   6.985   3.817   2.346  0.0539 -0.2007 -0.7453
 3438ntf    on518624   6.948   3.644   2.608  0.1530  0.3873 -0.1265
 3438ntf    on518625   7.088   3.485   2.487  0.2906  0.0856 -0.2279
 3438ntf    on518626   7.099   3.899   2.694  0.6936  0.2146  0.2160
 3438ntf    on518627   7.315   3.916   2.577  0.5543 -0.3102  0.2418
 3438ntf    fn418628   7.411   3.709   2.730  0.0904  0.3074 -0.0949
 3438ntf    fn418629   7.307   3.835   2.859 -0.0053  0.0237 -0.0270
 3438ntf    fn418630   7.219   3.652   2.815  0.0308  0.1809  0.4224
 3439ntf    cn118631   6.041   3.299   7.113  0.0025  0.2031  0.0556
 3439ntf    sn218632   6.024   3.236   7.283  0.3116  0.0118  0.0159
 3439ntf    nn318633   5.868   3.247   7.296  0.3329 -0.3108  0.5860
 3439ntf    sn218634   5.778   3.264   7.423 -0.2531  0.1375  0.1187
 3439ntf    cn118635   5.827   3.111   7.509 -0.1054  0.1170 -0.0029
 3439ntf    fn418636   5.986   3.420   7.114 -0.1693  0.1259  0.5917
 3439ntf    fn418637   6.164   3.299   7.064 -0.1533 -0.1670 -0.3442
 3439ntf    fn418638   5.964   3.225   7.035  0.1493  0.0072  0.0962
 3439ntf    on518639   6.067   3.099   7.271  0.9594  0.2311 -0.2204
 3439ntf    on518640   6.095   3.329   7.368 -0.1064 -0.2461  0.6469
 3439ntf    on518641   5.637   3.249   7.395 -0.1172 -0.6170 -0.1721
 3439ntf    on518642   5.819   3.369   7.513  0.3767  0.1856 -0.2214
 3439ntf    fn418643   5.958   3.106   7.531 -0.1484 -0.3320  0.1542
 3439ntf    fn418644   5.772   3.102   7.629 -0.0443  0.0799  0.0227
 3439ntf    fn418645   5.787   3.011   7.433  0.0224  0.3102 -0.3300
 3440ntf    cn118646   1.151   6.376   5.160 -0.0826 -0.2589  0.0072
 3440ntf    sn218647   1.044   6.484   5.259  0.1588  0.0327 -0.0495
 3440ntf    nn318648   0.956   6.384   5.342 -0.3662  0.4840 -0.0573
 3440ntf    sn218649   0.799   6.383   5.351 -0.3659 -0.0942 -0.1140
 3440ntf    cn118650   0.750   6.267   5.220 -0.1188  0.2174 -0.4838
 3440ntf    fn418651   1.231   6.303   5.236  0.2408 -0.0395 -0.1186
 3440ntf    fn418652   1.082   6.293   5.083  0.1440 -0.2393 -0.2211
 3440ntf    fn418653   1.230   6.448   5.081 -0.1813  0.2629  0.3813
 3440ntf    on518654   1.123   6.569   5.346  0.5539 -0.0970 -0.2796
 3440ntf    on518655   0.971   6.556   5.158 -0.2646 -0.1196  0.1458
 3440ntf    on518656   0.727   6.503   5.316 -0.6499 -0.0845  0.4881
 3440ntf    on518657   0.751   6.319   5.471  0.1177  0.2966  0.2922
 3440ntf    fn418658   0.810   6.301   5.108  0.1652  0.9860 -0.1048
 3440ntf    fn418659   0.788   6.143   5.248 -0.3892  0.2832  0.2044
 3440ntf    fn418660   0.619   6.263   5.203 -0.1266  0.4723 -0.4886
 3441ntf    cn118661   6.687   2.008   0.394 -0.1461  0.0555 -0.0096
 3441ntf    sn218662   6.802   2.058   0.525 -0.4221 -0.0111  0.2579
 3441ntf    nn318663   6.792   2.215   0.513 -0.1067  0.0344  0.5762
 3441ntf    sn218664   6.683   2.309   0.575  0.0780  0.4105  0.3310
 3441ntf    cn118665   6.785   2.375   0.710  0.3116 -0.0284  0.3726
 3441ntf    fn418666   6.680   1.876   0.400 -0.1784  0.0431 -0.3001
 3441ntf    fn418667   6.569   2.067   0.405 -0.5131 -0.5944 -0.3634
 3441ntf    fn418668   6.740   2.044   0.278 -0.2941 -0.1179 -0.1325
 3441ntf    on518669   6.748   2.008   0.649 -0.4564  0.0977  0.2874
 3441ntf    on518670   6.924   2.006   0.471 -0.3933  0.4332 -0.1118
 3441ntf    on518671   6.565   2.252   0.635 -0.0640  0.1818 -0.1631
 3441ntf    on518672   6.657   2.421   0.488 -0.0732  0.1771  0.0766
 3441ntf    fn418673   6.819   2.284   0.800  0.0476  0.0010  0.5058
 3441ntf    fn418674   6.897   2.428   0.664 -0.0075  0.4642  0.1565
 3441ntf    fn418675   6.714   2.462   0.782  0.5245  0.0908  0.4396
 3442ntf    cn118676   7.101   6.348   6.008  0.1677  0.1375 -0.2772
 3442ntf    sn218677   7.002   6.239   5.902 -0.2974  0.0857  0.2036
 3442ntf    nn318678   7.030   6.100   5.969  0.3195  0.4008  0.5974
 3442ntf    sn218679   7.131   5.982   5.945 -0.2372  0.0045  0.1784
 3442ntf    cn118680   7.016   5.847   5.905  0.3499 -0.2781 -0.5804
 3442ntf    fn418681   7.052   6.345   6.131  0.2312 -0.7289 -0.2665
 3442ntf    fn418682   7.228   6.310   6.014 -0.0634 -0.5831  0.2560
 3442ntf    fn418683   7.098   6.475   5.971  0.6655  0.3119  0.2685
 3442ntf    on518684   6.867   6.288   5.919 -0.3680 -0.0080 -0.0808
 3442ntf    on518685   7.058   6.250   5.769  0.0009  0.1628  0.3368
 3442ntf    on518686   7.195   5.941   6.067  0.2173  0.2732  0.0377
 3442ntf    on518687   7.219   6.001   5.832 -0.5240  0.3816  0.0138
 3442ntf    fn418688   7.081   5.740   5.865  0.3565 -0.5632  0.1827
 3442ntf    fn418689   6.944   5.805   6.007  0.3991 -0.0726 -0.4612
 3442ntf    fn418690   6.934   5.876   5.805  0.3349  0.3715 -0.3837
 3443ntf    cn118691   3.643   2.798   1.083 -0.0933  0.1698 -0.0192
 3443ntf    sn218692   3.502   2.859   0.986 -0.1900  0.0086  0.0203
 3443ntf    nn318693   3.526   2.785   0.850  0.3237 -0.1233  0.1818
 3443ntf    sn218694   3.633   2.805   0.737  0.2862  0.0286  0.1727
 3443ntf    cn118695   3.534   2.879   0.604  0.3388  0.0441  0.1422
 3443ntf    fn418696   3.755   2.826   1.018  0.0252 -0.0833  0.0745
 3443ntf    fn418697   3.656   2.870   1.193  0.4809  0.0460 -0.0009
 3443ntf    fn418698   3.644   2.669   1.113  0.4192  0.1010 -0.3066
 3443ntf    on518699   3.383   2.810   1.051 -0.2087 -0.2375 -0.1961
 3443ntf    on518700   3.529   3.001   0.986  0.1636 -0.0568  0.4525
 3443ntf    on518701   3.678   2.679   0.682 -0.2344  0.1216 -0.4739
 3443ntf    on518702   3.738   2.900   0.763 -0.0044  0.3193  0.2746
 3443ntf    fn418703   3.519   3.009   0.617  0.2806  0.0970 -0.4367
 3443ntf    fn418704   3.593   2.847   0.489  0.3174  0.2824  0.0650
 3443ntf    fn418705   3.413   2.826   0.597  0.1378  0.5231 -0.0156
 3444ntf    cn118706   5.584   5.887   0.157  0.3242  0.0829  0.4109
 3444ntf    sn218707   5.456   5.887   0.286 -0.0179  0.0985  0.0731
 3444ntf    nn318708   5.333   5.894   0.189 -0.0237 -0.0927  0.0673
 3444ntf    sn218709   5.199   5.975   0.193  0.2627  0.4007 -0.2272
 3444ntf    cn118710   5.078   5.842   0.166  0.5528  0.0684  0.0889
 3444ntf    fn418711   5.583   5.778   0.083 -0.5457  0.4091 -0.0711
 3444ntf    fn418712   5.564   5.986   0.071  0.2178 -0.2199  0.0871
 3444ntf    fn418713   5.711   5.892   0.195  0.5698 -0.7593 -0.2805
 3444ntf    on518714   5.479   5.759   0.347 -0.7630 -0.0253  0.1046
 3444ntf    on518715   5.483   6.001   0.370 -0.5444 -0.0344  0.4228
 3444ntf    on518716   5.177   6.063   0.081 -0.2294 -0.1103 -0.5407
 3444ntf    on518717   5.163   6.016   0.327  0.0376 -0.4271 -0.0269
 3444ntf    fn418718   4.954   5.888   0.180  0.1494 -0.8484 -0.3759
 3444ntf    fn418719   5.091   5.793   0.044 -0.0209  0.3408 -0.0878
 3444ntf    fn418720   5.095   5.741   0.249 -0.1083 -0.3434 -0.2625
 3445ntf    cn118721   6.877   4.355   1.645  0.2420 -0.1529 -0.0610
 3445ntf    sn218722   6.874   4.364   1.827  0.0605 -0.0115 -0.0702
 3445ntf    nn318723   6.736   4.433   1.855  0.1208  0.0906 -0.0230
 3445ntf    sn218724   6.718   4.581   1.904 -0.0248  0.0447  0.0635
 3445ntf    cn118725   6.541   4.578   1.945 -0.0522 -0.0635 -0.0647
 3445ntf    fn418726   7.003   4.368   1.607  0.1599  0.3703 -0.1604
 3445ntf    fn418727   6.823   4.241   1.605  0.2490 -0.2402  0.1740
 3445ntf    fn418728   6.820   4.460   1.588 -0.1620 -0.1625  0.3168
 3445ntf    on518729   6.884   4.230   1.881 -0.1230 -0.1346 -0.3396
 3445ntf    on518730   6.987   4.450   1.852 -0.0454  0.1784 -0.2437
 3445ntf    on518731   6.734   4.674   1.794 -0.0835  0.2124  0.1966
 3445ntf    on518732   6.797   4.602   2.023 -0.0298 -0.3110  0.1285
 3445ntf    fn418733   6.507   4.499   2.045 -0.5983 -0.1739 -0.3354
 3445ntf    fn418734   6.488   4.694   1.979 -0.0150  0.0144 -0.2673
 3445ntf    fn418735   6.470   4.541   1.839 -0.0962  0.0015 -0.0578
 3446ntf    cn118736   3.585   6.139   1.478 -0.1803 -0.0419 -0.1264
 3446ntf    sn218737   3.459   6.270   1.492  0.3057  0.4206 -0.0402
 3446ntf    nn318738   3.460   6.309   1.340  0.8378 -0.2285 -0.2121
 3446ntf    sn218739   3.405   6.432   1.258 -0.0925 -0.2617  0.3490
 3446ntf    cn118740   3.277   6.341   1.165  0.2445  0.3006 -0.6763
 3446ntf    fn418741   3.702   6.193   1.451 -0.5012  0.5561 -0.3370
 3446ntf    fn418742   3.599   6.069   1.590 -0.3582  0.2420  0.0760
 3446ntf    fn418743   3.554   6.057   1.379 -0.3868  0.0142 -0.1094
 3446ntf    on518744   3.350   6.189   1.539  0.6555  0.2604  0.5033
 3446ntf    on518745   3.523   6.360   1.584 -0.2699  0.5862  0.1987
 3446ntf    on518746   3.494   6.476   1.153  0.1533 -0.3226  0.5313
 3446ntf    on518747   3.331   6.538   1.320  0.1375  0.3571 -0.4193
 3446ntf    fn418748   3.200   6.277   1.251 -0.0861  0.6055 -0.7432
 3446ntf    fn418749   3.187   6.423   1.113 -0.7688 -0.2644  0.1626
 3446ntf    fn418750   3.324   6.254   1.076  0.1370 -1.0945  0.5985
 3447ntf    cn118751   6.742   6.333   5.032  0.2880 -0.0328  0.0290
 3447ntf    sn218752   6.827   6.198   4.945 -0.2664 -0.0829 -0.4333
 3447ntf    nn318753   6.809   6.080   5.047 -0.0735  0.1238 -0.1590
 3447ntf    sn218754   6.760   5.932   5.025  0.3574 -0.0495  0.0446
 3447ntf    cn118755   6.918   5.846   5.053  0.2704 -0.1794  0.1313
 3447ntf    fn418756   6.625   6.292   5.078  0.0542  0.4745 -0.1159
 3447ntf    fn418757   6.807   6.368   5.142  0.2316 -0.1555  0.1015
 3447ntf    fn418758   6.720   6.450   4.976 -0.3105 -0.0501  0.2255
 3447ntf    on518759   6.759   6.192   4.817 -0.0532  0.1248 -0.5567
 3447ntf    on518760   6.962   6.247   4.945 -0.2867 -0.0088  0.6632
 3447ntf    on518761   6.721   5.885   4.894  0.3973  0.0221  0.0062
 3447ntf    on518762   6.683   5.897   5.142  0.8358 -0.1947  0.3184
 3447ntf    fn418763   7.006   5.880   4.960  0.2001  0.2393  0.2165
 3447ntf    fn418764   6.984   5.888   5.159 -0.2076  0.1421  0.3063
 3447ntf    fn418765   6.903   5.714   5.049 -0.0227 -0.1274 -0.7005
 3448ntf    cn118766   1.787   0.362   6.454  0.3463  0.4529 -0.3134
 3448ntf    sn218767   1.664   0.255   6.534  0.2755  0.5691 -0.2663
 3448ntf    nn318768   1.747   0.123   6.526 -0.4013  0.1225 -0.0042
 3448ntf    sn218769   1.739   0.010   6.417  0.2925  0.1812 -0.1192
 3448ntf    cn118770   1.610  -0.090   6.495  0.2020 -0.1085 -0.6321
 3448ntf    fn418771   1.752   0.490   6.448  0.0061  0.3978  0.3755
 3448ntf    fn418772   1.903   0.364   6.518  0.3668  0.3729 -0.3482
 3448ntf    fn418773   1.816   0.328   6.330  0.0670  0.0066 -0.2562
 3448ntf    on518774   1.652   0.309   6.668  0.1078 -0.0907 -0.0133
 3448ntf    on518775   1.542   0.272   6.459 -0.1857  0.1714  0.3837
 3448ntf    on518776   1.849  -0.084   6.419 -0.1014 -0.2873 -0.3804
 3448ntf    on518777   1.689   0.046   6.286  0.1556 -0.5179 -0.2638
 3448ntf    fn418778   1.500  -0.023   6.527  0.4424 -0.0195  0.0334
 3448ntf    fn418779   1.568  -0.202   6.438  0.0644 -0.3661 -0.0452
 3448ntf    fn418780   1.649  -0.135   6.614 -0.2611  0.3314 -0.3079
 3449ntf    cn118781   6.932   6.740   5.933  0.0719 -0.1578  0.0940
 3449ntf    sn218782   6.806   6.752   6.063  0.0563  0.1396  0.0527
 3449ntf    nn318783   6.844   6.870   6.160  0.0469 -0.0475  0.2871
 3449ntf    sn218784   6.808   7.021   6.134 -0.2616 -0.1172  0.2976
 3449ntf    cn118785   6.671   7.030   6.253 -0.1686  0.5066  0.3581
 3449ntf    fn418786   7.045   6.689   5.980  0.1120 -0.1620 -0.0070
 3449ntf    fn418787   6.893   6.660   5.835 -0.2117 -0.1502  0.1989
 3449ntf    fn418788   6.966   6.853   5.874 -0.7530 -0.2697 -0.6148
 3449ntf    on518789   6.684   6.763   5.986  0.2489 -0.3361 -0.3219
 3449ntf    on518790   6.824   6.628   6.135  0.2367 -0.2056 -0.5751
 3449ntf    on518791   6.752   7.055   6.006 -0.5368  0.2557  0.5164
 3449ntf    on518792   6.908   7.111   6.187 -0.2810  0.3165 -0.3996
 3449ntf    fn418793   6.712   7.016   6.379  0.0023  0.1280  0.2599
 3449ntf    fn418794   6.608   7.146   6.245  0.3595  0.8376  0.8527
 3449ntf    fn418795   6.588   6.931   6.229  0.1780  0.2795  0.0896
 3450ntf    cn118796   0.287   1.837   6.707 -0.0147  0.2664 -0.0005
 3450ntf    sn218797   0.190   1.990   6.728  0.0484  0.2580  0.3583
 3450ntf    nn318798   0.177   1.996   6.884 -0.1922 -0.2504  0.3637
 3450ntf    sn218799   0.249   2.086   6.992 -0.1444 -0.1105  0.2163
 3450ntf    cn118800   0.232   1.985   7.142  0.0641 -0.1028  0.2446
 3450ntf    fn418801   0.242   1.745   6.790  0.7111  0.2589  0.3907
 3450ntf    fn418802   0.270   1.788   6.585  0.5978  0.2694 -0.0939
 3450ntf    fn418803   0.417   1.845   6.729  0.0304 -0.4398  0.0106
 3450ntf    on518804   0.266   2.103   6.681 -0.1704  0.4974  0.5846
 3450ntf    on518805   0.062   1.958   6.670 -0.0337 -0.4009  0.8928
 3450ntf    on518806   0.174   2.205   7.022  0.6076  0.3462  0.3251
 3450ntf    on518807   0.393   2.091   6.981 -0.0921  0.1262  1.0007
 3450ntf    fn418808   0.297   1.871   7.126 -0.4091 -0.3591  0.1356
 3450ntf    fn418809   0.298   2.045   7.240  0.3267 -0.2959  0.1889
 3450ntf    fn418810   0.108   1.956   7.175  0.0679  0.1658  0.4982
 3451ntf    cn118811   4.080   5.175   6.399  0.0640  0.1398  0.6170
 3451ntf    sn218812   4.179   5.127   6.544  0.1366  0.0042  0.5226
 3451ntf    nn318813   4.260   5.000   6.499 -0.0617  0.0685 -0.0278
 3451ntf    sn218814   4.409   4.958   6.473 -0.0491 -0.2017  0.4661
 3451ntf    cn118815   4.440   4.893   6.640  0.2675  0.1271  0.5382
 3451ntf    fn418816   4.155   5.214   6.297 -0.2685 -0.0456  0.2995
 3451ntf    fn418817   4.007   5.074   6.353 -0.1724  0.3961  0.4260
 3451ntf    fn418818   3.996   5.275   6.422 -0.5188 -0.1966  0.0097
 3451ntf    on518819   4.248   5.245   6.587 -0.1219  0.6083 -0.6715
 3451ntf    on518820   4.081   5.090   6.643  0.2385 -0.2833  0.5185
 3451ntf    on518821   4.498   5.072   6.467 -0.3109  0.0476  1.1267
 3451ntf    on518822   4.424   4.844   6.387 -0.1022  0.2434 -0.1403
 3451ntf    fn418823   4.546   4.815   6.653  0.2412  0.0692  0.4015
 3451ntf    fn418824   4.457   4.991   6.727  0.3853  0.1030  0.5421
 3451ntf    fn418825   4.340   4.817   6.683 -0.0157  0.0258 -0.2849
 3452ntf    cn118826   5.731   4.492   6.857 -0.0982 -0.1490 -0.1418
 3452ntf    sn218827   5.551   4.468   6.861 -0.1423  0.2168  0.2062
 3452ntf    nn318828   5.512   4.580   6.963  0.0236  0.2495  0.2336
 3452ntf    sn218829   5.451   4.571   7.107 -0.0653 -0.0322  0.1786
 3452ntf    cn118830   5.479   4.744   7.157  0.0981 -0.0489  0.1440
 3452ntf    fn418831   5.796   4.437   6.958 -0.3972 -0.1296  0.0593
 3452ntf    fn418832   5.793   4.450   6.748  0.0387  0.2641 -0.2240
 3452ntf    fn418833   5.763   4.619   6.875  0.1708 -0.1907 -0.3157
 3452ntf    on518834   5.508   4.496   6.726 -0.3824  0.4832  0.3368
 3452ntf    on518835   5.535   4.330   6.901  0.0348  0.1971  0.2081
 3452ntf    on518836   5.538   4.496   7.194 -0.4682 -0.6894  0.0228
 3452ntf    on518837   5.310   4.548   7.127 -0.0803 -0.0409  0.0657
 3452ntf    fn418838   5.604   4.772   7.189  0.1854 -0.1875 -0.0716
 3452ntf    fn418839   5.449   4.828   7.059  0.3829  0.2271  0.2923
 3452ntf    fn418840   5.400   4.773   7.259  0.2481  0.0054  0.2444
 3453ntf    cn118841   5.379   1.412   5.721  0.3428 -0.0568  0.1812
 3453ntf    sn218842   5.477   1.534   5.628 -0.0856  0.2425  0.1191
 3453ntf    nn318843   5.541   1.439   5.521  0.1058  0.0675  0.3870
 3453ntf    sn218844   5.691   1.445   5.474  0.0353 -0.0525  0.1417
 3453ntf    cn118845   5.771   1.365   5.617  0.2125  0.4727  0.3406
 3453ntf    fn418846   5.313   1.468   5.820  0.3940  0.1254  0.1129
 3453ntf    fn418847   5.284   1.353   5.651  0.2728 -0.1299  0.3362
 3453ntf    fn418848   5.451   1.318   5.781  0.1958 -0.0797  0.3222
 3453ntf    on518849   5.374   1.620   5.575  0.3607  0.3505 -0.5843
 3453ntf    on518850   5.575   1.587   5.719 -0.1843 -0.2163  0.4982
 3453ntf    on518851   5.752   1.576   5.465 -0.1982  0.0033 -0.6497
 3453ntf    on518852   5.715   1.363   5.359  0.3671  0.0759  0.1162
 3453ntf    fn418853   5.718   1.251   5.657  0.2974  0.2615 -0.1413
 3453ntf    fn418854   5.895   1.329   5.592 -0.0852 -0.4113  0.1157
 3453ntf    fn418855   5.779   1.450   5.718 -0.5425  0.0417  0.7746
 3454ntf    cn118856   4.405   2.975   2.291  0.2935  0.0045  0.0749
 3454ntf    sn218857   4.578   3.002   2.340  0.2121  0.1011  0.3054
 3454ntf    nn318858   4.564   3.057   2.487  0.1638 -0.2496  0.4323
 3454ntf    sn218859   4.539   3.204   2.536 -0.1501 -0.1347 -0.0622
 3454ntf    cn118860   4.708   3.256   2.579 -0.2230  0.0304  0.0250
 3454ntf    fn418861   4.403   2.958   2.159  0.3377  0.3679  0.0262
 3454ntf    fn418862   4.343   2.875   2.351  0.0772  0.0413 -0.0892
 3454ntf    fn418863   4.339   3.086   2.319  0.5729  0.2386 -0.1701
 3454ntf    on518864   4.639   2.872   2.350  0.5020  0.1782 -0.4220
 3454ntf    on518865   4.637   3.098   2.250  0.0880 -0.0523  0.0588
 3454ntf    on518866   4.468   3.200   2.662 -0.4490 -0.2756 -0.2333
 3454ntf    on518867   4.481   3.293   2.439 -0.1216 -0.1496 -0.0926
 3454ntf    fn418868   4.720   3.382   2.620  0.3056  0.1132 -0.3779
 3454ntf    fn418869   4.766   3.175   2.665  0.0403 -0.1119 -0.2873
 3454ntf    fn418870   4.784   3.251   2.471 -0.7279  0.7536 -0.3758
 3455ntf    cn118871   4.749   0.452   3.814 -0.0814 -0.3559  0.2112
 3455ntf    sn218872   4.715   0.492   3.640  0.1133  0.1193  0.2793
 3455ntf    nn318873   4.745   0.646   3.641  1.1887 -0.0823 -0.1339
 3455ntf    sn218874   4.650   0.767   3.613  0.5923 -0.5233 -0.0278
 3455ntf    cn118875   4.567   0.772   3.775 -0.2236 -0.2614 -0.4449
 3455ntf    fn418876   4.683   0.533   3.895 -0.4301 -0.3695 -0.0588
 3455ntf    fn418877   4.713   0.328   3.843 -0.0852 -0.2805  0.5250
 3455ntf    fn418878   4.878   0.466   3.839 -0.1234 -0.0138  0.2406
 3455ntf    on518879   4.813   0.421   3.562 -0.1903 -0.0272  0.0258
 3455ntf    on518880   4.575   0.459   3.628  0.2084 -0.1251 -0.2026
 3455ntf    on518881   4.544   0.747   3.517  0.1347 -0.1105  0.3831
 3455ntf    on518882   4.726   0.889   3.600 -0.1765  0.0052  0.3297
 3455ntf    fn418883   4.657   0.764   3.871 -0.6671  0.0647  0.0007
 3455ntf    fn418884   4.509   0.889   3.792  0.4549  0.0651 -0.3432
 3455ntf    fn418885   4.473   0.682   3.799  0.1373 -0.4052  0.4642
 3456ntf    cn118886   0.221   6.891   1.650  0.0847  0.2883  0.1603
 3456ntf    sn218887   0.050   6.856   1.700  0.0093  0.2355 -0.1365
 3456ntf    nn318888  -0.010   7.001   1.703 -0.1813  0.1695 -0.6875
 3456ntf    sn218889  -0.082   7.075   1.821  0.2802 -0.0339 -0.2774
 3456ntf    cn118890   0.054   7.131   1.927  0.0843 -0.4115  0.1777
 3456ntf    fn418891   0.294   6.961   1.736  0.0984  0.1090  0.2942
 3456ntf    fn418892   0.295   6.784   1.625 -0.0080  0.2006  0.2652
 3456ntf    fn418893   0.218   6.959   1.537 -0.2814  0.3525  0.2089
 3456ntf    on518894  -0.009   6.782   1.591 -0.2319 -0.1066  0.2222
 3456ntf    on518895   0.060   6.785   1.824 -0.0446  0.0229 -0.2536
 3456ntf    on518896  -0.167   6.998   1.909  0.0207  0.6504  0.0825
 3456ntf    on518897  -0.142   7.196   1.770  0.0494 -0.1592 -0.3059
 3456ntf    fn418898   0.021   7.160   2.052  0.3748  0.0732  0.1475
 3456ntf    fn418899   0.153   7.043   1.928  0.3356 -0.1320  0.0670
 3456ntf    fn418900   0.114   7.236   1.872 -0.8373 -0.0676 -0.1835
 3457ntf    cn118901   4.478   1.638   2.917 -0.0731  0.2128  0.0480
 3457ntf    sn218902   4.436   1.813   2.946 -0.2598  0.1807 -0.0308
 3457ntf    nn318903   4.344   1.844   2.822  0.0828 -0.5517 -0.4781
 3457ntf    sn218904   4.223   1.754   2.780 -0.3044 -0.1248 -0.2951
 3457ntf    cn118905   4.105   1.879   2.723 -0.2950  0.1330  0.2452
 3457ntf    fn418906   4.550   1.618   2.808  0.1083  0.3767  0.1348
 3457ntf    fn418907   4.566   1.602   3.010 -0.5181 -0.0843  0.3544
 3457ntf    fn418908   4.377   1.553   2.914  0.0370  0.0995 -0.5473
 3457ntf    on518909   4.379   1.810   3.078  0.0300  0.3499  0.0977
 3457ntf    on518910   4.562   1.883   2.943  0.1099 -0.4895 -0.4924
 3457ntf    on518911   4.147   1.691   2.885  0.1226 -0.6861 -0.3139
 3457ntf    on518912   4.244   1.668   2.666 -0.2507  0.4656 -0.7341
 3457ntf    fn418913   4.140   1.933   2.608 -0.8499  0.2443  0.1244
 3457ntf    fn418914   3.984   1.828   2.704 -0.2759  0.2415 -0.1793
 3457ntf    fn418915   4.088   1.973   2.815  0.0096  0.6445 -0.2145
 3458ntf    cn118916   1.885   0.200   1.138  0.2015  0.1439 -0.5170
 3458ntf    sn218917   1.907   0.319   1.274  0.0417 -0.4918  0.0717
 3458ntf    nn318918   1.776   0.289   1.355 -0.2166 -0.1753 -0.2279
 3458ntf    sn218919   1.762   0.206   1.487  0.3183 -0.1166 -0.1338
 3458ntf    cn118920   1.628   0.302   1.564  0.2074 -0.4807  0.1315
 3458ntf    fn418921   1.774   0.235   1.074  0.0460  0.4649 -0.0761
 3458ntf    fn418922   1.993   0.192   1.062 -0.0151 -0.4391 -0.7734
 3458ntf    fn418923   1.875   0.078   1.188  0.6268  0.1566 -0.4012
 3458ntf    on518924   2.036   0.285   1.329  0.1871 -0.9671 -0.5450
 3458ntf    on518925   1.890   0.448   1.213  0.4143 -0.4046  0.1529
 3458ntf    on518926   1.874   0.227   1.576  0.4302 -0.0192 -0.2980
 3458ntf    on518927   1.704   0.075   1.471  0.2164 -0.0927  0.0288
 3458ntf    fn418928   1.506   0.278   1.522  0.1366 -0.3939  0.2842
 3458ntf    fn418929   1.629   0.272   1.693 -0.0510  0.6547  0.4136
 3458ntf    fn418930   1.640   0.434   1.555  0.8498 -0.5749 -0.4557
 3459ntf    cn118931   1.281   5.789   2.660  0.0062 -0.2021 -0.1505
 3459ntf    sn218932   1.294   5.898   2.805  0.0318 -0.2042 -0.1509
 3459ntf    nn318933   1.252   5.805   2.925  0.1959 -0.2605 -0.1367
 3459ntf    sn218934   1.184   5.830   3.064  0.1914  0.0881 -0.1999
 3459ntf    cn118935   1.266   5.711   3.175 -0.0192 -0.1403 -0.2898
 3459ntf    fn418936   1.325   5.855   2.554 -0.2113  0.1118 -0.0502
 3459ntf    fn418937   1.353   5.681   2.684  0.0636  0.0095  0.6553
 3459ntf    fn418938   1.156   5.756   2.630 -0.2266  0.2028  0.3530
 3459ntf    on518939   1.431   5.942   2.817  0.0897 -0.3747 -0.1835
 3459ntf    on518940   1.198   5.999   2.770 -0.2468 -0.3309  0.2345
 3459ntf    on518941   1.044   5.798   3.069  0.2354 -0.1009 -0.1351
 3459ntf    on518942   1.221   5.950   3.135 -0.0699 -0.0253  0.1343
 3459ntf    fn418943   1.394   5.729   3.202 -0.0782  0.0129 -0.1094
 3459ntf    fn418944   1.210   5.706   3.295  0.3255 -0.2797 -0.1315
 3459ntf    fn418945   1.254   5.586   3.133 -0.0967 -0.3749  0.4286
 3460ntf    cn118946   1.149   4.812   6.518  0.1486 -0.4208  0.2426
 3460ntf    sn218947   1.017   4.688   6.505 -0.0178 -0.2359  0.1762
 3460ntf    nn318948   1.078   4.588   6.400 -0.0873 -0.2426  0.1420
 3460ntf    sn218949   1.116   4.612   6.250 -0.1096 -0.1406  0.1528
 3460ntf    cn118950   1.025   4.474   6.173 -0.1133  0.1178 -0.3139
 3460ntf    fn418951   1.263   4.755   6.554  0.0797 -0.4200  0.4648
 3460ntf    fn418952   1.170   4.875   6.404 -0.6602 -0.3323  0.1429
 3460ntf    fn418953   1.118   4.906   6.606  0.1372 -0.4268  0.2450
 3460ntf    on518954   1.000   4.634   6.637 -0.7828  0.6518  0.4483
 3460ntf    on518955   0.896   4.756   6.463  0.0651 -0.1502  0.0736
 3460ntf    on518956   1.252   4.583   6.214 -0.3382 -0.6989 -0.2762
 3460ntf    on518957   1.065   4.733   6.190  0.4147  0.1835  0.3554
 3460ntf    fn418958   0.897   4.471   6.208 -0.0130  0.3532  0.0880
 3460ntf    fn418959   1.033   4.485   6.042  0.2700 -0.4359 -0.3404
 3460ntf    fn418960   1.072   4.354   6.202  0.1913  0.2217 -0.3781
 3461ntf    cn118961   1.820   4.112   2.235  0.2382 -0.2208  0.2196
 3461ntf    sn218962   1.796   4.247   2.115  0.2637 -0.3109  0.1135
 3461ntf    nn318963   1.640   4.259   2.115  0.3074  0.2532 -0.0657
 3461ntf    sn218964   1.542   4.328   2.216 -0.1576  0.0202 -0.3544
 3461ntf    cn118965   1.380   4.285   2.144 -0.2588 -0.1920 -0.0054
 3461ntf    fn418966   1.769   3.999   2.189 -0.1726  0.1921 -0.3530
 3461ntf    fn418967   1.946   4.078   2.258  0.2934  0.0148  0.2737
 3461ntf    fn418968   1.769   4.133   2.355 -0.4804  0.1632 -0.1470
 3461ntf    on518969   1.859   4.355   2.186  0.0018  0.3779 -0.6881
 3461ntf    on518970   1.854   4.196   1.993  0.0985  0.0247 -0.1061
 3461ntf    on518971   1.539   4.472   2.216 -0.6038  0.0121 -0.2430
 3461ntf    on518972   1.532   4.258   2.342 -0.8917  0.2092 -0.3009
 3461ntf    fn418973   1.292   4.376   2.182 -0.2590 -0.3698  0.4232
 3461ntf    fn418974   1.366   4.287   2.012 -0.2836  0.2635  0.0010
 3461ntf    fn418975   1.335   4.164   2.170  0.4123 -0.4256  0.0990
 3462ntf    cn118976   0.441   2.720   4.562  0.1028 -0.4174  0.0881
 3462ntf    sn218977   0.372   2.888   4.544 -0.2155 -0.5399  0.1572
 3462ntf    nn318978   0.333   2.921   4.693  0.7834 -0.2333  0.3638
 3462ntf    sn218979   0.330   3.065   4.753 -0.1216 -0.0637 -0.0710
 3462ntf    cn118980   0.182   3.060   4.859 -0.2406  0.0315 -0.2321
 3462ntf    fn418981   0.557   2.717   4.624  0.3055 -0.4134 -0.2863
 3462ntf    fn418982   0.361   2.636   4.625 -0.2939 -0.3934 -0.3725
 3462ntf    fn418983   0.469   2.666   4.444  0.1395 -0.2543  0.0219
 3462ntf    on518984   0.489   2.962   4.504 -0.4119 -0.0890  0.4163
 3462ntf    on518985   0.260   2.862   4.457 -0.4096 -0.1525  0.2926
 3462ntf    on518986   0.306   3.174   4.662  0.4700  0.3836  0.3025
 3462ntf    on518987   0.429   3.087   4.855 -0.3053  0.2271  0.0472
 3462ntf    fn418988   0.189   2.993   4.973 -0.6269  0.1532 -0.1338
 3462ntf    fn418989   0.137   3.179   4.897 -0.2561 -0.1611  0.3724
 3462ntf    fn418990   0.076   3.003   4.804 -0.1980 -0.2518 -0.0236
 3463ntf    cn118991   4.363   4.625   4.536  0.0631 -0.1972  0.0237
 3463ntf    sn218992   4.336   4.710   4.695  0.1828  0.0473 -0.0846
 3463ntf    nn318993   4.185   4.673   4.715  0.2315 -0.0367  0.1242
 3463ntf    sn218994   4.129   4.561   4.810 -0.0274 -0.0064  0.0077
 3463ntf    cn118995   4.115   4.659   4.963  0.5415  0.2032 -0.0758
 3463ntf    fn418996   4.286   4.679   4.443  0.2128  0.1584  0.1025
 3463ntf    fn418997   4.486   4.653   4.494 -0.0827 -0.0394 -0.3080
 3463ntf    fn418998   4.352   4.494   4.544 -0.0692 -0.1726  0.2489
 3463ntf    on518999   4.421   4.661   4.800 -0.5953 -0.1917  0.4406
 3463ntf    on519000   4.364   4.845   4.654  0.5368 -0.1530 -0.5204
 3463ntf    on519001   4.208   4.443   4.834 -0.4590 -0.2830  0.0742
 3463ntf    on519002   3.991   4.526   4.784  0.0336  0.0694 -0.4233
 3463ntf    fn419003   4.193   4.767   4.966  0.9717 -0.0818 -0.6950
 3463ntf    fn419004   3.991   4.702   4.977  0.5460 -0.0805  0.9033
 3463ntf    fn419005   4.151   4.589   5.069  0.4085  0.0351 -0.1427
 3464ntf    cn119006   3.178   0.225   4.054  0.2519 -0.3448 -0.3561
 3464ntf    sn219007   3.205   0.068   4.141  0.1846 -0.1275  0.0586
 3464ntf    nn319008   3.218   0.118   4.289 -0.7236 -0.0688  0.1247
 3464ntf    sn219009   3.115   0.129   4.407 -0.5442 -0.1370  0.2882
 3464ntf    cn119010   3.149  -0.032   4.484  0.5205 -0.1876 -0.2686
 3464ntf    fn419011   3.126   0.200   3.935 -0.3901  0.0017 -0.1520
 3464ntf    fn419012   3.100   0.303   4.126  0.2120 -0.1472 -0.6101
 3464ntf    fn419013   3.283   0.298   4.021  0.4059 -0.3536  0.1076
 3464ntf    on519014   3.090  -0.013   4.110  0.4812 -0.7409  0.5395
 3464ntf    on519015   3.336   0.034   4.089  0.4395  0.3808  0.3634
 3464ntf    on519016   2.975   0.130   4.373 -0.4455 -0.3950 -0.1241
 3464ntf    on519017   3.176   0.215   4.507  0.1727  0.1074 -0.3495
 3464ntf    fn419018   3.276  -0.063   4.506  0.3449 -0.7213  0.0104
 3464ntf    fn419019   3.081  -0.041   4.597  0.6629  0.2372 -0.1469
 3464ntf    fn419020   3.098  -0.123   4.403 -0.0240 -0.2799  0.1755
 3465ntf    cn119021   0.046   3.761   4.207 -0.5671 -0.1457 -0.2885
 3465ntf    sn219022  -0.032   3.742   4.371 -0.1232 -0.3242 -0.0963
 3465ntf    nn319023  -0.130   3.864   4.363  0.3697  0.0328 -0.8298
 3465ntf    sn219024  -0.277   3.875   4.308  0.1609  0.2425 -0.2376
 3465ntf    cn119025  -0.376   3.907   4.457  0.0470 -0.3871 -0.1767
 3465ntf    fn419026   0.120   3.654   4.182 -0.4346  0.0061 -0.5473
 3465ntf    fn419027  -0.045   3.790   4.116 -0.1688  0.4180 -0.5079
 3465ntf    fn419028   0.133   3.861   4.214 -0.6544 -0.0884  0.0088
 3465ntf    on519029  -0.085   3.608   4.377 -0.0323 -0.3264  0.7973
 3465ntf    on519030   0.069   3.775   4.468 -0.0638 -0.1739 -0.2096
 3465ntf    on519031  -0.335   3.756   4.251 -0.2790  0.4810 -0.2919
 3465ntf    on519032  -0.293   3.996   4.230  0.7121  0.3817 -0.1443
 3465ntf    fn419033  -0.368   3.814   4.550  0.6683  0.3793  0.5468
 3465ntf    fn419034  -0.349   4.022   4.516 -0.1839 -0.4146 -0.0190
 3465ntf    fn419035  -0.502   3.915   4.417 -0.0133 -0.1163  0.0660
 3466ntf    cn119036   6.571   0.956   6.231  0.1284  0.1501 -0.0962
 3466ntf    sn219037   6.531   0.871   6.386 -0.2020  0.2217 -0.1407
 3466ntf    nn319038   6.545   0.987   6.492 -0.2476 -0.6115  0.7978
 3466ntf    sn219039   6.670   1.027   6.577 -0.0342  0.0148  0.2017
 3466ntf    cn119040   6.611   0.991   6.745 -0.1491  0.0390  0.1661
 3466ntf    fn419041   6.578   0.869   6.132 -0.3191  0.0039 -0.0014
 3466ntf    fn419042   6.483   1.050   6.199  0.1820  0.1522 -0.2417
 3466ntf    fn419043   6.687   1.020   6.241  0.2009  0.0589 -0.3566
 3466ntf    on519044   6.396   0.824   6.375 -0.2819  0.3435  0.2912
 3466ntf    on519045   6.638   0.775   6.401 -0.1891  0.2902  0.2285
 3466ntf    on519046   6.688   1.169   6.590 -0.3659  0.0713  0.0461
 3466ntf    on519047   6.787   0.947   6.550  0.0366  0.2728 -0.2667
 3466ntf    fn419048   6.587   0.862   6.760 -0.1998  0.0966  0.6097
 3466ntf    fn419049   6.709   1.012   6.831 -0.2209 -0.3702  0.3499
 3466ntf    fn419050   6.501   1.057   6.778 -0.5861 -0.5352 -0.1143
 3467ntf    cn119051   4.406   6.940   2.895  0.3248  0.0315 -0.1086
 3467ntf    sn219052   4.528   6.824   2.963  0.1150 -0.1056  0.0344
 3467ntf    nn319053   4.489   6.831   3.115  0.2510  0.0823  0.0606
 3467ntf    sn219054   4.517   6.729   3.231  0.5483  0.4541  0.3179
 3467ntf    cn119055   4.592   6.829   3.364  0.4747  0.1421  0.5955
 3467ntf    fn419056   4.427   7.068   2.923  0.1601 -0.0292  0.2949
 3467ntf    fn419057   4.405   6.937   2.762 -0.2768 -0.1305 -0.1031
 3467ntf    fn419058   4.283   6.913   2.934  0.3193 -0.1835 -0.2751
 3467ntf    on519059   4.486   6.708   2.888 -0.3856  0.5300 -0.6780
 3467ntf    on519060   4.653   6.889   2.931 -0.1183  0.2082 -0.2454
 3467ntf    on519061   4.622   6.635   3.204 -0.0875 -0.1982  0.1013
 3467ntf    on519062   4.399   6.673   3.292  0.7276 -0.0021  0.2414
 3467ntf    fn419063   4.507   6.922   3.404 -0.1615 -0.0316 -0.3312
 3467ntf    fn419064   4.633   6.766   3.473  0.0424  0.3715  0.8941
 3467ntf    fn419065   4.701   6.889   3.319  0.1185  0.3628  0.0150
 3468ntf    cn119066   0.635   5.227   2.446  0.0210 -0.0671  0.2116
 3468ntf    sn219067   0.605   5.390   2.521 -0.1390  0.0522 -0.1069
 3468ntf    nn319068   0.550   5.459   2.391 -0.1938 -0.4886 -0.3749
 3468ntf    sn219069   0.401   5.481   2.348 -0.2367 -0.1586 -0.0604
 3468ntf    cn119070   0.346   5.613   2.460 -0.6413 -0.1958 -0.2139
 3468ntf    fn419071   0.689   5.139   2.528 -0.2686 -0.2719  0.1842
 3468ntf    fn419072   0.523   5.181   2.392  0.0306  0.7100 -0.4940
 3468ntf    fn419073   0.710   5.245   2.338 -0.0250  0.4052  0.2566
 3468ntf    on519074   0.506   5.373   2.624 -0.1378  0.0520 -0.1058
 3468ntf    on519075   0.734   5.442   2.560 -0.0063  0.2275 -0.7634
 3468ntf    on519076   0.309   5.375   2.381  0.0873 -0.5204 -0.3194
 3468ntf    on519077   0.390   5.535   2.215  0.3275 -0.5219 -0.2599
 3468ntf    fn419078   0.236   5.674   2.420 -0.4684  0.6034  0.4816
 3468ntf    fn419079   0.325   5.571   2.584  0.1704  0.0689  0.0194
 3468ntf    fn419080   0.437   5.708   2.469 -0.2443 -0.5333 -0.6393
 3469ntf    cn119081   6.454   6.721   0.923  0.1844 -0.2307 -0.2638
 3469ntf    sn219082   6.636   6.734   0.927  0.1777 -0.2613  0.1439
 3469ntf    nn319083   6.660   6.807   1.064  0.2308  0.0858 -0.0493
 3469ntf    sn219084   6.759   6.919   1.110 -0.0586  0.2295  0.2258
 3469ntf    cn119085   6.899   6.825   1.178 -0.2674 -0.3211 -0.1022
 3469ntf    fn419086   6.400   6.839   0.946 -0.7751 -0.5987 -0.5684
 3469ntf    fn419087   6.400   6.685   0.807  0.1306  0.2033 -0.3751
 3469ntf    fn419088   6.407   6.642   1.018 -0.0229  0.3744  0.1388
 3469ntf    on519089   6.685   6.599   0.939  0.4404 -0.1736  0.0502
 3469ntf    on519090   6.665   6.802   0.803 -0.2379  0.2535  0.3267
 3469ntf    on519091   6.707   6.997   1.219 -0.3429  0.0467  0.2198
 3469ntf    on519092   6.815   6.999   1.003  0.4477 -0.2727  0.1087
 3469ntf    fn419093   6.973   6.916   1.239 -0.0636 -0.2415 -0.4624
 3469ntf    fn419094   6.870   6.732   1.268 -0.0488 -0.4346 -0.1482
 3469ntf    fn419095   6.970   6.783   1.075 -0.0570  0.2904 -0.2116
 3470ntf    cn119096   2.247   6.076   4.531 -0.0795  0.3423  0.2502
 3470ntf    sn219097   2.178   6.127   4.371 -0.1124 -0.5304 -0.0175
 3470ntf    nn319098   2.077   6.010   4.343 -0.8149  0.0882 -0.1057
 3470ntf    sn219099   2.089   5.890   4.243 -0.0993 -0.2202  0.3446
 3470ntf    cn119100   1.921   5.875   4.174  0.0836  0.2829 -0.2264
 3470ntf    fn419101   2.281   5.949   4.517 -0.3418  0.3452 -0.4324
 3470ntf    fn419102   2.347   6.151   4.576  0.1629  0.1872 -0.0306
 3470ntf    fn419103   2.160   6.071   4.631  0.3705 -0.1606  0.6210
 3470ntf    on519104   2.113   6.250   4.410 -0.0509 -0.6364  0.4220
 3470ntf    on519105   2.296   6.126   4.289  0.1594 -0.1731  0.3715
 3470ntf    on519106   2.111   5.769   4.319  0.0212 -0.3715  0.0716
 3470ntf    on519107   2.177   5.907   4.130 -0.0526  0.2408  0.4492
 3470ntf    fn419108   1.871   5.995   4.154  0.0407  0.2203 -0.4897
 3470ntf    fn419109   1.914   5.808   4.060  0.2857 -0.1392  0.0048
 3470ntf    fn419110   1.841   5.810   4.257 -0.3148  1.0578  0.0055
 3471ntf    cn119111   0.357   1.668   1.205  0.3081  0.2075 -0.1085
 3471ntf    sn219112   0.322   1.817   1.108  0.1161  0.1007 -0.2050
 3471ntf    nn319113   0.446   1.908   1.140  0.1293 -0.0707  0.2417
 3471ntf    sn219114   0.579   1.922   1.057 -0.1426  0.0938 -0.1695
 3471ntf    cn119115   0.534   2.041   0.927  0.1143  0.3818  0.0018
 3471ntf    fn419116   0.487   1.651   1.228  0.1797 -0.0247  0.4529
 3471ntf    fn419117   0.290   1.674   1.319 -0.0713  0.3851 -0.3430
 3471ntf    fn419118   0.320   1.555   1.146 -0.2201  0.0762  0.4640
 3471ntf    on519119   0.322   1.777   0.970 -0.2866 -0.0699 -0.1558
 3471ntf    on519120   0.199   1.875   1.155  0.1135  0.2864 -0.4350
 3471ntf    on519121   0.622   1.806   0.984 -0.4402 -0.0369 -0.1364
 3471ntf    on519122   0.687   1.988   1.127 -0.0270 -0.3747  0.0996
 3471ntf    fn419123   0.604   2.022   0.816  0.0924  0.0754  0.0385
 3471ntf    fn419124   0.407   2.035   0.888  0.1202  0.0188  0.0332
 3471ntf    fn419125   0.546   2.167   0.964  0.9810  0.3517 -0.1648
 3472ntf    cn119126   1.058   1.037   6.263  0.1727  0.0329  0.0039
 3472ntf    sn219127   1.096   1.202   6.330  0.1441 -0.0338  0.1845
 3472ntf    nn319128   1.192   1.164   6.448  0.4384  0.0460 -0.0285
 3472ntf    sn219129   1.161   1.185   6.600  0.3355  0.0467 -0.0494
 3472ntf    cn119130   1.082   1.028   6.648  0.1627  0.2593  0.3689
 3472ntf    fn419131   1.167   0.977   6.218 -0.1718 -0.2728 -0.4398
 3472ntf    fn419132   1.009   0.955   6.354  0.5438  0.2283  0.3814
 3472ntf    fn419133   0.972   1.041   6.162  0.3262  0.2547 -0.1173
 3472ntf    on519134   1.169   1.263   6.222 -0.1618 -0.0329 -0.0256
 3472ntf    on519135   0.965   1.254   6.362  0.0131 -0.2369 -0.0078
 3472ntf    on519136   1.061   1.280   6.643  0.1902 -0.1239 -0.0079
 3472ntf    on519137   1.285   1.175   6.673  0.3574 -0.1008 -0.1077
 3472ntf    fn419138   1.032   1.029   6.771 -0.4972  0.0191  0.1097
 3472ntf    fn419139   0.971   1.008   6.578  0.2996  0.4823  0.0832
 3472ntf    fn419140   1.158   0.920   6.646 -0.0981  0.0795  0.1344
 3473ntf    cn119141   6.031   0.058   3.117 -0.3604 -0.2430 -0.2662
 3473ntf    sn219142   6.141   0.003   3.251 -0.2285  0.1618 -0.2077
 3473ntf    nn319143   6.068  -0.126   3.303  0.5593 -0.2665 -0.1455
 3473ntf    sn219144   6.037  -0.157   3.453  0.2675  0.3443 -0.0774
 3473ntf    cn119145   5.920  -0.294   3.428  0.4064  0.2160 -0.0243
 3473ntf    fn419146   6.017  -0.034   3.023 -0.1964 -0.1887 -0.3423
 3473ntf    fn419147   5.907   0.080   3.159 -0.3371  0.3069 -0.4881
 3473ntf    fn419148   6.078   0.165   3.055  0.1718 -0.1398  0.3032
 3473ntf    on519149   6.269  -0.017   3.186  0.0064  0.1351  0.2588
 3473ntf    on519150   6.137   0.110   3.347  0.2952 -0.0912  0.1015
 3473ntf    on519151   5.971  -0.059   3.536  0.2590  0.8937 -0.7307
 3473ntf    on519152   6.148  -0.220   3.520 -0.2900 -0.1893  0.3557
 3473ntf    fn419153   5.971  -0.383   3.344 -0.4140  0.1824 -0.4983
 3473ntf    fn419154   5.889  -0.360   3.538  0.4205 -0.2034 -0.2687
 3473ntf    fn419155   5.807  -0.258   3.370  0.3335 -0.0707 -0.0647
 3474ntf    cn119156   5.003   0.224   5.075  0.2603  0.2796  0.2609
 3474ntf    sn219157   5.115   0.300   4.954 -0.0645  0.0208 -0.2058
 3474ntf    nn319158   5.035   0.431   4.921  0.4632  0.2440 -0.6129
 3474ntf    sn219159   4.934   0.460   4.805 -0.0946 -0.3580 -0.2841
 3474ntf    cn119160   4.796   0.525   4.904  0.2726 -0.0824  0.0518
 3474ntf    fn419161   4.974   0.309   5.173  0.4716  0.0628  0.5122
 3474ntf    fn419162   4.881   0.197   5.033  0.3069  0.1842  0.1850
 3474ntf    fn419163   5.049   0.115   5.134  0.5968 -0.0918 -0.6660
 3474ntf    on519164   5.236   0.333   5.026 -0.1509 -0.2022  0.0403
 3474ntf    on519165   5.121   0.203   4.848 -0.0625 -0.3994  0.1769
 3474ntf    on519166   4.865   0.355   4.735  0.3096 -1.0551  0.3584
 3474ntf    on519167   4.970   0.578   4.730  0.0769  0.1311  0.5658
 3474ntf    fn419168   4.808   0.653   4.934  0.5117 -0.0715 -0.0879
 3474ntf    fn419169   4.683   0.513   4.835  0.3833  0.5905 -0.2573
 3474ntf    fn419170   4.792   0.450   5.013  0.2193  0.4178  0.3968
 3475ntf    cn119171   5.979   6.118   5.201  0.1319  0.0311 -0.3194
 3475ntf    sn219172   6.068   6.174   5.350 -0.3568  0.2995 -0.1250
 3475ntf    nn319173   6.030   6.325   5.333 -0.0309  0.3889 -0.0638
 3475ntf    sn219174   6.014   6.430   5.448  0.0673  0.2723  0.0557
 3475ntf    cn119175   5.834   6.447   5.453  0.0319 -0.1290  0.2097
 3475ntf    fn419176   5.852   6.125   5.238  0.1949  0.4210 -0.1717
 3475ntf    fn419177   5.986   6.200   5.098 -0.1382  0.6924  0.1778
 3475ntf    fn419178   6.004   5.997   5.154  0.2606  0.0598 -0.3255
 3475ntf    on519179   5.998   6.099   5.451 -0.0003  0.2015  0.0524
 3475ntf    on519180   6.208   6.149   5.323 -0.5241 -0.1596 -0.5992
 3475ntf    on519181   6.066   6.560   5.414  0.3038  0.0670 -0.3613
 3475ntf    on519182   6.045   6.384   5.582  0.1350 -0.4481 -0.2051
 3475ntf    fn419183   5.773   6.330   5.466 -0.4480  0.0213 -0.6114
 3475ntf    fn419184   5.780   6.533   5.538 -0.0497  0.2317 -0.2008
 3475ntf    fn419185   5.791   6.487   5.334  0.7279 -0.7137 -0.2440
 3476ntf    cn119186   0.230   0.454   5.416 -0.0474  0.0290 -0.4146
 3476ntf    sn219187   0.063   0.432   5.347 -0.1426 -0.3173 -0.0763
 3476ntf    nn319188  -0.008   0.386   5.479  1.0512 -0.2034  0.6168
 3476ntf    sn219189  -0.030   0.239   5.529  0.2747 -0.3649 -0.1897
 3476ntf    cn119190  -0.048   0.267   5.708 -0.2754 -0.1499 -0.2766
 3476ntf    fn419191   0.317   0.491   5.323 -0.3921 -0.4179 -0.9216
 3476ntf    fn419192   0.229   0.551   5.506  0.1158  0.2133 -0.6096
 3476ntf    fn419193   0.280   0.349   5.479  0.3876  0.4883  0.0158
 3476ntf    on519194   0.025   0.562   5.300  0.3438 -0.0630  0.2300
 3476ntf    on519195   0.092   0.328   5.251  0.4150 -0.1984 -0.0417
 3476ntf    on519196   0.086   0.155   5.514  0.2995 -0.3972  0.1704
 3476ntf    on519197  -0.162   0.195   5.491 -0.0941  1.0014 -0.5734
 3476ntf    fn419198  -0.075   0.151   5.765  0.2127  0.2415  0.7660
 3476ntf    fn419199   0.067   0.315   5.751 -0.3271  0.3322 -0.6556
 3476ntf    fn419200  -0.147   0.350   5.736 -0.0385  0.0073  0.0890
 3477ntf    cn119201   6.000   3.766   4.858 -0.2883 -0.1629 -0.3229
 3477ntf    sn219202   6.121   3.642   4.914 -0.1438  0.1158 -0.0161
 3477ntf    nn319203   6.244   3.739   4.926 -0.3198  0.4442 -0.7795
 3477ntf    sn219204   6.375   3.737   4.839  0.1146  0.2368 -0.1301
 3477ntf    cn119205   6.492   3.822   4.949  0.2536  0.0464 -0.1304
 3477ntf    fn419206   5.874   3.725   4.852 -0.3494  0.0301 -0.3888
 3477ntf    fn419207   6.003   3.871   4.938  0.2634 -0.3308 -0.1225
 3477ntf    fn419208   6.029   3.816   4.739  0.4308  0.4493  0.1039
 3477ntf    on519209   6.076   3.597   5.043 -0.0482  0.5701  0.1798
 3477ntf    on519210   6.127   3.542   4.811 -0.1806  0.7866 -0.6817
 3477ntf    on519211   6.363   3.826   4.726  0.0987  0.3272 -0.0568
 3477ntf    on519212   6.424   3.603   4.817  0.3912  0.3146  0.0153
 3477ntf    fn419213   6.452   3.945   4.975 -0.4397 -0.0504 -0.7063
 3477ntf    fn419214   6.505   3.768   5.069  0.7155  0.4437 -0.0002
 3477ntf    fn419215   6.615   3.831   4.901  0.3365 -0.4559 -0.0198
 3478ntf    cn119216   6.761   1.056   2.728  0.0584 -0.2430 -0.3208
 3478ntf    sn219217   6.878   1.164   2.816 -0.5724  0.1989 -0.0181
 3478ntf    nn319218   6.986   1.060   2.862 -0.5831  0.2695  0.1650
 3478ntf    sn219219   6.982   0.973   2.993  0.0286 -0.0384 -0.0152
 3478ntf    cn119220   7.083   1.071   3.108  0.0125  0.1606 -0.1706
 3478ntf    fn419221   6.807   0.984   2.626  0.0340 -0.5638 -0.1047
 3478ntf    fn419222   6.716   0.959   2.806 -0.2075  0.1149 -0.0293
 3478ntf    fn419223   6.661   1.125   2.676  0.1502 -0.0208 -0.2048
 3478ntf    on519224   6.936   1.243   2.710  0.5040 -0.0915  0.3348
 3478ntf    on519225   6.796   1.231   2.913 -0.3338  0.3931  0.0490
 3478ntf    on519226   7.061   0.855   2.971  0.2404  0.0510  0.2559
 3478ntf    on519227   6.854   0.961   3.058 -0.0852 -0.1582 -0.2597
 3478ntf    fn419228   7.208   1.088   3.066  0.3787  0.0271  0.8455
 3478ntf    fn419229   7.033   1.193   3.125 -0.5134 -0.1351  0.4144
 3478ntf    fn419230   7.097   1.021   3.229 -0.3428  0.2207 -0.1058
 3479ntf    cn119231   0.096   0.378   6.453  0.1243  0.1258 -0.0879
 3479ntf    sn219232   0.025   0.523   6.371 -0.2489  0.1388  0.2512
 3479ntf    nn319233   0.133   0.635   6.393 -0.1788  0.0511  0.3519
 3479ntf    sn219234   0.258   0.690   6.315 -0.3053 -0.5287 -0.2631
 3479ntf    cn119235   0.402   0.603   6.384 -0.0449 -0.0124 -0.1491
 3479ntf    fn419236   0.202   0.323   6.395  0.3963  0.2453  0.2904
 3479ntf    fn419237   0.145   0.404   6.574  0.1892 -0.6765  0.0643
 3479ntf    fn419238   0.006   0.282   6.467  0.0447  0.1724 -0.2844
 3479ntf    on519239   0.011   0.486   6.232 -0.1705  0.7492  0.0742
 3479ntf    on519240  -0.099   0.545   6.441 -0.3300 -0.3738  0.2704
 3479ntf    on519241   0.291   0.825   6.351 -0.2883 -0.6150  0.0487
 3479ntf    on519242   0.260   0.667   6.173 -0.0580 -0.3201 -0.2928
 3479ntf    fn419243   0.393   0.598   6.516 -0.1439 -0.2695 -0.1641
 3479ntf    fn419244   0.396   0.477   6.344  0.1058  0.1184 -0.5846
 3479ntf    fn419245   0.522   0.646   6.351  0.0441 -0.5140 -0.4999
 3480ntf    cn119246   5.471   4.301   3.012  0.2072 -0.1186  0.2111
 3480ntf    sn219247   5.354   4.353   3.142 -0.2420 -0.0262 -0.2272
 3480ntf    nn319248   5.384   4.250   3.256 -0.1854  0.0602 -0.1644
 3480ntf    sn219249   5.320   4.111   3.295  0.1451 -0.1030 -0.2012
 3480ntf    cn119250   5.471   4.018   3.334 -0.0047 -0.3411 -0.1893
 3480ntf    fn419251   5.460   4.173   2.982 -0.3416  0.1303 -0.7027
 3480ntf    fn419252   5.455   4.382   2.909  0.3430 -0.6907 -0.2622
 3480ntf    fn419253   5.595   4.322   3.052  0.2787 -0.1255 -0.0055
 3480ntf    on519254   5.398   4.487   3.172  0.0267 -0.1217 -0.1871
 3480ntf    on519255   5.223   4.343   3.084 -0.3524 -0.1121  0.0366
 3480ntf    on519256   5.253   4.043   3.187 -0.2179 -0.1855  0.0751
 3480ntf    on519257   5.260   4.113   3.426  0.0389  0.8881 -0.2594
 3480ntf    fn419258   5.532   4.060   3.444  0.0892  0.1989 -0.4480
 3480ntf    fn419259   5.433   3.892   3.350 -0.7379 -0.1083 -0.0686
 3480ntf    fn419260   5.561   4.026   3.238 -0.0062  0.2668 -0.1453
 3481ntf    cn119261   4.655   3.655   3.479 -0.4659 -0.0983  0.2966
 3481ntf    sn219262   4.804   3.633   3.580 -0.2426 -0.3684 -0.0896
 3481ntf    nn319263   4.748   3.693   3.714 -0.1229 -0.1780 -0.1243
 3481ntf    sn219264   4.663   3.629   3.830 -0.2032  0.0008 -0.0835
 3481ntf    cn119265   4.808   3.628   3.940 -0.1341 -0.0706 -0.1750
 3481ntf    fn419266   4.547   3.627   3.552 -0.4244  0.5212  0.6012
 3481ntf    fn419267   4.638   3.781   3.441  0.5125 -0.1549 -0.3427
 3481ntf    fn419268   4.648   3.581   3.370 -0.1782 -0.2184  0.3587
 3481ntf    on519269   4.830   3.491   3.585  0.3003 -0.2475  0.7056
 3481ntf    on519270   4.916   3.704   3.524 -0.4949  0.3313  0.2754
 3481ntf    on519271   4.612   3.495   3.813 -0.2268 -0.0166  0.1287
 3481ntf    on519272   4.582   3.734   3.887 -0.0687 -0.0084  0.1255
 3481ntf    fn419273   4.795   3.543   4.041  0.4345 -0.1544 -0.1667
 3481ntf    fn419274   4.917   3.586   3.877  0.0491 -0.0836  0.1462
 3481ntf    fn419275   4.832   3.749   3.987 -0.8043 -0.0399  0.0985
 3482ntf    cn119276   4.293   3.263   1.489 -0.0103 -0.0224 -0.2230
 3482ntf    sn219277   4.278   3.396   1.612  0.3941 -0.0960 -0.0940
 3482ntf    nn319278   4.394   3.493   1.570 -0.1078  0.4326 -0.2630
 3482ntf    sn219279   4.538   3.506   1.631 -0.2027 -0.0577  0.0709
 3482ntf    cn119280   4.625   3.524   1.473 -0.4897 -0.1632 -0.0987
 3482ntf    fn419281   4.257   3.151   1.550  0.3161 -0.0153 -0.0165
 3482ntf    fn419282   4.216   3.278   1.382 -0.4781 -0.1746  0.0864
 3482ntf    fn419283   4.418   3.245   1.450 -0.0119  0.0950 -0.2830
 3482ntf    on519284   4.144   3.443   1.587  0.0422 -0.8178  0.3926
 3482ntf    on519285   4.302   3.343   1.744  0.2473  0.6098  0.2213
 3482ntf    on519286   4.583   3.382   1.688  0.8373  0.1510 -0.2819
 3482ntf    on519287   4.552   3.628   1.708  0.2801 -0.2827  0.3428
 3482ntf    fn419288   4.744   3.578   1.492 -0.2922 -0.5395 -0.2389
 3482ntf    fn419289   4.649   3.412   1.406  0.5761 -0.0549  0.0911
 3482ntf    fn419290   4.565   3.606   1.389 -0.4814  0.0885  0.1430
 3483ntf    cn119291   5.541   4.614   4.370  0.1759 -0.2231 -0.4127
 3483ntf    sn219292   5.386   4.544   4.305 -0.0557 -0.0523 -0.0478
 3483ntf    nn319293   5.451   4.436   4.212  0.1665  0.0387  0.0019
 3483ntf    sn219294   5.420   4.282   4.205  0.1142  0.0258  0.5226
 3483ntf    cn119295   5.290   4.284   4.078  0.4328  0.2685  0.2000
 3483ntf    fn419296   5.527   4.732   4.428 -0.6658 -0.2799 -0.4748
 3483ntf    fn419297   5.592   4.543   4.469  0.2659  0.6172  0.1438
 3483ntf    fn419298   5.631   4.633   4.275  0.5908 -0.2595 -0.0308
 3483ntf    on519299   5.320   4.489   4.421  0.2225 -0.1346  0.0709
 3483ntf    on519300   5.326   4.657   4.239 -0.7125 -0.3528  0.0277
 3483ntf    on519301   5.362   4.214   4.319  0.1333 -0.5641  0.1861
 3483ntf    on519302   5.528   4.211   4.142 -0.0711  0.4395 -0.2744
 3483ntf    fn419303   5.335   4.338   3.966 -0.1878  0.4771  0.0459
 3483ntf    fn419304   5.242   4.166   4.042  0.4705  0.3745 -0.2105
 3483ntf    fn419305   5.181   4.351   4.112  0.3677  0.1084  0.3067
 3484ntf    cn119306   3.327   4.078   6.189 -0.0087 -0.0980  0.1211
 3484ntf    sn219307   3.344   4.147   6.356  0.1880  0.1237  0.0109
 3484ntf    nn319308   3.411   4.024   6.427  0.3573  0.0047 -0.3501
 3484ntf    sn219309   3.557   4.009   6.481  0.1666  0.0598  0.1930
 3484ntf    cn119310   3.564   3.829   6.463 -0.1901  0.0661  0.0051
 3484ntf    fn419311   3.251   3.970   6.197  0.1006 -0.1746  0.1256
 3484ntf    fn419312   3.250   4.147   6.106  0.0159 -0.2512 -0.0303
 3484ntf    fn419313   3.439   4.061   6.121 -0.2031 -0.2399 -0.1706
 3484ntf    on519314   3.431   4.262   6.352 -0.0477  0.3078  0.1926
 3484ntf    on519315   3.206   4.173   6.390 -0.0555 -0.7785 -0.2624
 3484ntf    on519316   3.569   4.028   6.624  0.4332  0.0188  0.1770
 3484ntf    on519317   3.655   4.069   6.392 -0.1273 -0.0433 -0.2004
 3484ntf    fn419318   3.686   3.779   6.455 -0.2430  0.0044 -0.4768
 3484ntf    fn419319   3.503   3.762   6.560 -0.0420  0.2170  0.2014
 3484ntf    fn419320   3.508   3.793   6.348  0.1420  0.6206 -0.3374
 3485ntf    cn119321   7.104   1.436   5.088 -0.3201 -0.3359  0.0545
 3485ntf    sn219322   7.143   1.279   5.005  0.0929 -0.1860 -0.0375
 3485ntf    nn319323   7.104   1.302   4.854  0.3012  0.8159  0.0562
 3485ntf    sn219324   7.198   1.284   4.730  0.5171  0.1656  0.3093
 3485ntf    cn119325   7.314   1.422   4.757  0.1387  0.4935  0.2737
 3485ntf    fn419326   7.134   1.428   5.217  0.3496  0.2410 -0.0588
 3485ntf    fn419327   7.180   1.525   5.027 -0.2068 -0.0948  0.5400
 3485ntf    fn419328   6.976   1.469   5.079 -0.1076  0.5543  0.1734
 3485ntf    on519329   7.285   1.260   5.020  0.2053  0.4034 -0.3041
 3485ntf    on519330   7.064   1.183   5.079  0.3926  0.0358  0.5776
 3485ntf    on519331   7.121   1.311   4.611  0.4426  0.0415  0.3294
 3485ntf    on519332   7.280   1.166   4.721 -0.2754 -0.4559  1.0524
 3485ntf    fn419333   7.404   1.389   4.848  0.0001 -0.0121  0.2319
 3485ntf    fn419334   7.383   1.458   4.650 -0.3308 -0.0395 -0.2213
 3485ntf    fn419335   7.249   1.532   4.789 -0.1722  0.4173 -0.0921
 3486ntf    cn119336   2.836   4.522   4.787 -0.2757  0.1344  0.2524
 3486ntf    sn219337   2.889   4.401   4.912  0.0952 -0.1984 -0.2230
 3486ntf    nn319338   2.910   4.494   5.036  0.4027 -0.1638 -0.3003
 3486ntf    sn219339   3.045   4.555   5.089  0.0529 -0.0463  0.4750
 3486ntf    cn119340   3.009   4.721   5.024 -0.1743 -0.1379  0.3650
 3486ntf    fn419341   2.942   4.572   4.724 -0.0095 -0.6303  0.0811
 3486ntf    fn419342   2.754   4.477   4.694  0.0208  0.0541  0.0297
 3486ntf    fn419343   2.774   4.626   4.842  0.2879  0.6737 -0.1104
 3486ntf    on519344   2.766   4.327   4.922  0.0585 -0.1391 -0.2335
 3486ntf    on519345   3.006   4.336   4.859  0.1577 -0.6153  0.4258
 3486ntf    on519346   3.163   4.516   5.017 -0.3393  0.1906 -0.3170
 3486ntf    on519347   3.052   4.567   5.232 -0.2050 -0.1897  0.5007
 3486ntf    fn419348   2.988   4.715   4.893 -0.5066  0.1593  0.4047
 3486ntf    fn419349   2.897   4.774   5.069  0.2332  0.3167  0.8560
 3486ntf    fn419350   3.101   4.814   5.046  0.0002 -0.2444  0.0966
 3487ntf    cn119351   0.578   4.156   1.937 -0.2777 -0.1841 -0.3703
 3487ntf    sn219352   0.408   4.159   1.874 -0.3302  0.1588 -0.2167
 3487ntf    nn319353   0.415   4.293   1.792  0.1996  0.2074 -0.0967
 3487ntf    sn219354   0.494   4.322   1.660 -0.1911  0.4135 -0.2875
 3487ntf    cn119355   0.372   4.420   1.566 -0.2822  0.2730 -0.3163
 3487ntf    fn419356   0.599   4.045   2.006 -0.4462  0.2239  0.3433
 3487ntf    fn419357   0.671   4.170   1.844  0.2193  0.3765  0.2023
 3487ntf    fn419358   0.600   4.266   2.007  0.1384 -0.2747 -0.3560
 3487ntf    on519359   0.399   4.034   1.802  0.4276 -0.0345  0.0205
 3487ntf    on519360   0.327   4.166   1.992  0.3557  0.0763  0.2620
 3487ntf    on519361   0.504   4.207   1.573 -0.0376 -0.0030  0.2795
 3487ntf    on519362   0.607   4.411   1.673 -0.0571  0.2043 -0.0264
 3487ntf    fn419363   0.359   4.539   1.622  0.3880  0.1250  0.1739
 3487ntf    fn419364   0.416   4.447   1.445 -0.0820  0.1488 -0.2722
 3487ntf    fn419365   0.249   4.374   1.554 -0.5559  0.8566  0.2055
 3488ntf    cn119366   2.640   0.266   1.683 -0.2046  0.1169 -0.3608
 3488ntf    sn219367   2.694   0.330   1.845 -0.2483 -0.1998 -0.2198
 3488ntf    nn319368   2.717   0.482   1.813 -0.3579 -0.2269 -0.4333
 3488ntf    sn219369   2.843   0.564   1.768 -0.3632  0.1150  0.1615
 3488ntf    cn119370   2.912   0.606   1.931  0.0201 -0.1312  0.0648
 3488ntf    fn419371   2.611   0.137   1.687 -0.0764  0.1113  1.0310
 3488ntf    fn419372   2.535   0.328   1.633 -0.1629  0.3190 -0.1990
 3488ntf    fn419373   2.742   0.282   1.600  0.1378 -0.4210 -0.0490
 3488ntf    on519374   2.584   0.318   1.937 -0.4148  0.1344 -0.3726
 3488ntf    on519375   2.815   0.260   1.881 -0.2385  0.1945  0.5262
 3488ntf    on519376   2.808   0.695   1.718  0.4699  0.2547 -0.0693
 3488ntf    on519377   2.941   0.485   1.697 -0.3080  0.1651  0.1821
 3488ntf    fn419378   2.825   0.647   2.022  0.0195 -0.2489  0.1174
 3488ntf    fn419379   2.989   0.510   1.981 -0.2501 -0.4530 -0.1330
 3488ntf    fn419380   2.993   0.710   1.928 -0.2270  0.0504 -0.2687
 3489ntf    cn119381   3.824   5.431   2.275 -0.2819 -0.0527 -0.0303
 3489ntf    sn219382   3.960   5.464   2.159 -0.1377 -0.2626  0.0777
 3489ntf    nn319383   4.072   5.358   2.189  0.1260 -0.0546 -0.1580
 3489ntf    sn219384   4.081   5.202   2.207 -0.0316 -0.0761 -0.2593
 3489ntf    cn119385   4.148   5.202   2.376 -0.1665  0.0438 -0.2053
 3489ntf    fn419386   3.753   5.326   2.236  0.0189 -0.1158 -0.4132
 3489ntf    fn419387   3.862   5.409   2.400 -0.5355 -0.4378 -0.0190
 3489ntf    fn419388   3.739   5.533   2.270  0.1442  0.3132  0.1216
 3489ntf    on519389   3.906   5.454   2.026  0.0296 -0.1627  0.0031
 3489ntf    on519390   4.013   5.594   2.191  0.2004 -0.3241 -0.2371
 3489ntf    on519391   4.182   5.137   2.128 -0.2367  0.1393 -0.6995
 3489ntf    on519392   3.955   5.136   2.227 -0.3483  0.5393 -0.2075
 3489ntf    fn419393   4.071   5.283   2.446  0.6796  0.2081  0.5516
 3489ntf    fn419394   4.148   5.085   2.439  0.1371  0.1133 -0.0759
 3489ntf    fn419395   4.272   5.247   2.382 -0.1039 -0.1822  0.2726
 3490ntf    cn119396   0.389   6.584   0.657 -0.1245  0.2249  0.2853
 3490ntf    sn219397   0.289   6.731   0.618 -0.2419  0.1384  0.2622
 3490ntf    nn319398   0.183   6.680   0.513  0.1517  0.1007 -0.1179
 3490ntf    sn219399   0.192   6.682   0.356  0.3017  0.3902 -0.1060
 3490ntf    cn119400   0.145   6.855   0.324 -0.1928  0.2401 -0.2143
 3490ntf    fn419401   0.356   6.532   0.773 -0.0494 -0.4271  0.0162
 3490ntf    fn419402   0.378   6.486   0.568 -0.2370 -0.0662  0.6195
 3490ntf    fn419403   0.516   6.621   0.664 -0.0772  0.0415  0.3999
 3490ntf    on519404   0.233   6.754   0.749 -0.6000 -0.1530  0.1622
 3490ntf    on519405   0.381   6.832   0.574  0.4790 -0.2350  0.8866
 3490ntf    on519406   0.082   6.603   0.306  0.6220 -0.0148 -0.1663
 3490ntf    on519407   0.318   6.661   0.290  0.3863  0.1210  0.1411
 3490ntf    fn419408   0.014   6.864   0.318 -0.2329 -0.2217 -0.0930
 3490ntf    fn419409   0.190   6.952   0.402  0.2652 -0.0888 -0.0627
 3490ntf    fn419410   0.183   6.894   0.204  0.1715  0.2006 -0.1147
 3491ntf    cn119411   0.543   1.786   1.650  0.0932  0.0693  0.2202
 3491ntf    sn219412   0.715   1.826   1.608  0.2328 -0.4134  0.3306
 3491ntf    nn319413   0.799   1.791   1.736 -0.0515  0.0686  0.6508
 3491ntf    sn219414   0.863   1.653   1.774  0.2030  0.1001  0.3391
 3491ntf    cn119415   1.013   1.718   1.853  0.1507  0.4500  0.1525
 3491ntf    fn419416   0.452   1.854   1.581 -0.6409 -0.4153  0.7005
 3491ntf    fn419417   0.512   1.658   1.639  0.5012 -0.0450  0.3929
 3491ntf    fn419418   0.509   1.808   1.776  0.3772 -0.0004  0.3096
 3491ntf    on519419   0.743   1.747   1.491 -0.3470 -0.2697  0.0934
 3491ntf    on519420   0.712   1.968   1.585  0.0552 -0.5368 -0.4253
 3491ntf    on519421   0.909   1.570   1.665 -0.4580 -0.1593  0.2564
 3491ntf    on519422   0.790   1.594   1.883 -0.3260 -0.1814 -0.1635
 3491ntf    fn419423   1.081   1.791   1.766 -0.4823 -0.1504 -0.8523
 3491ntf    fn419424   0.988   1.791   1.960 -0.0328 -0.0284  0.4402
 3491ntf    fn419425   1.097   1.623   1.891  0.0058  0.1883 -0.1743
 3492ntf    cn119426   0.551   4.499   5.474  0.0494  0.2355 -0.0894
 3492ntf    sn219427   0.374   4.468   5.449  0.0179  0.2862  0.0703
 3492ntf    nn319428   0.381   4.352   5.343 -0.0955 -0.0987  0.4829
 3492ntf    sn219429   0.370   4.197   5.363  0.1340 -0.1266  0.4041
 3492ntf    cn119430   0.292   4.144   5.208  0.1935 -0.2589  0.4195
 3492ntf    fn419431   0.595   4.574   5.574  0.0648  0.4137 -0.2284
 3492ntf    fn419432   0.620   4.386   5.479  0.2392  0.3350 -0.3981
 3492ntf    fn419433   0.595   4.556   5.363 -0.1409  0.0993 -0.2355
 3492ntf    on519434   0.317   4.436   5.577 -0.1086 -0.2065 -0.1043
 3492ntf    on519435   0.330   4.593   5.391  0.0442  0.0204 -0.5331
 3492ntf    on519436   0.275   4.160   5.466 -0.3832  0.7707  0.2591
 3492ntf    on519437   0.494   4.124   5.359 -0.1548 -0.6375  0.5905
 3492ntf    fn419438   0.367   4.180   5.105  0.2913 -0.4673  0.4195
 3492ntf    fn419439   0.272   4.014   5.196  0.6598 -0.2950 -0.0157
 3492ntf    fn419440   0.174   4.200   5.186  0.5014  0.3041  0.1631
 3493ntf    cn119441   3.084   4.138   4.041  0.2317  0.8124  0.2323
 3493ntf    sn219442   3.167   3.977   4.027  0.0255  0.7386 -0.1514
 3493ntf    nn319443   3.099   3.906   4.149  0.2646 -0.1158 -0.5043
 3493ntf    sn219444   2.978   3.807   4.161  0.2440 -0.0361 -0.0292
 3493ntf    cn119445   3.071   3.660   4.107 -0.2385 -0.3990  0.1211
 3493ntf    fn419446   3.117   4.228   3.949 -0.2204  0.0902 -0.6484
 3493ntf    fn419447   2.954   4.127   4.023  0.3662  0.0905 -0.3483
 3493ntf    fn419448   3.097   4.189   4.163 -0.1760  0.0225  0.6169
 3493ntf    on519449   3.132   3.928   3.896 -0.3320 -0.6844  0.4575
 3493ntf    on519450   3.304   4.004   4.064  0.2298 -0.0623 -0.3150
 3493ntf    on519451   2.866   3.824   4.072  0.7051  0.0943 -0.5902
 3493ntf    on519452   2.933   3.781   4.296  0.0752 -0.6282 -0.1979
 3493ntf    fn419453   3.110   3.676   3.982 -0.5166 -0.1041  0.0713
 3493ntf    fn419454   3.181   3.631   4.175 -0.1016 -0.4346 -0.1166
 3493ntf    fn419455   3.001   3.548   4.118 -0.4671 -0.2280  0.4371
 3494ntf    cn119456   6.060   3.035   1.029 -0.0072  0.0712 -0.2686
 3494ntf    sn219457   6.210   3.127   1.073 -0.0064  0.0567 -0.2411
 3494ntf    nn319458   6.199   3.251   0.976 -0.3973  0.2607  0.0615
 3494ntf    sn219459   6.115   3.382   0.996 -0.3161  0.3365 -0.0943
 3494ntf    cn119460   6.227   3.482   1.099  0.1973 -0.1568 -0.1670
 3494ntf    fn419461   6.033   2.933   1.108  0.4915  0.1111 -0.0452
 3494ntf    fn419462   5.950   3.109   1.019  0.1712  0.2889 -0.6597
 3494ntf    fn419463   6.078   2.979   0.910  0.0140 -0.0354 -0.2148
 3494ntf    on519464   6.193   3.148   1.214 -0.1842 -0.1089 -0.2381
 3494ntf    on519465   6.318   3.039   1.036  0.4519  0.3985  0.2633
 3494ntf    on519466   5.988   3.367   1.063 -0.2833  0.1372 -0.0743
 3494ntf    on519467   6.116   3.463   0.877  0.3835 -0.0605 -0.3642
 3494ntf    fn419468   6.349   3.512   1.059  0.0702  0.5267 -0.0594
 3494ntf    fn419469   6.174   3.600   1.125  0.2779 -0.1797  0.0996
 3494ntf    fn419470   6.243   3.425   1.218 -0.3296 -0.5005 -0.2559
 3495ntf    cn119471   1.990   0.326   3.544 -0.2016  0.1369  0.0781
 3495ntf    sn219472   1.908   0.485   3.512  0.0177  0.2636  0.1388
 3495ntf    nn319473   1.931   0.563   3.646 -0.6846  0.7247 -0.0074
 3495ntf    sn219474   1.852   0.551   3.782 -0.2639  0.1591  0.1875
 3495ntf    cn119475   1.710   0.658   3.746  0.0143  0.3838 -0.2448
 3495ntf    fn419476   1.972   0.288   3.670 -0.5065  0.3003  0.0838
 3495ntf    fn419477   1.953   0.218   3.477  0.6170 -0.1136  0.0073
 3495ntf    fn419478   2.121   0.333   3.526 -0.2067  0.0084 -0.0110
 3495ntf    on519479   1.982   0.535   3.400  0.3116 -0.1044  0.1667
 3495ntf    on519480   1.770   0.450   3.488  0.1695 -0.4733  0.2997
 3495ntf    on519481   1.928   0.614   3.887  0.1829 -0.0249 -0.0224
 3495ntf    on519482   1.791   0.423   3.810 -0.0434 -0.1034 -0.4871
 3495ntf    fn419483   1.674   0.730   3.851 -0.7479 -0.3288 -0.0100
 3495ntf    fn419484   1.739   0.748   3.653 -0.1020  0.6371 -0.0350
 3495ntf    fn419485   1.598   0.604   3.700  0.0117  0.2045 -0.0248
 3496ntf    cn119486   4.338   3.623   2.630  0.3361 -0.1457 -0.2294
 3496ntf    sn219487   4.368   3.785   2.553  0.2206  0.0080  0.0437
 3496ntf    nn319488   4.219   3.822   2.520  0.1859  0.0518  0.2528
 3496ntf    sn219489   4.121   3.920   2.593 -0.0765  0.0764 -0.1321
 3496ntf    cn119490   3.973   3.814   2.595  0.0141 -0.0481 -0.0809
 3496ntf    fn419491   4.274   3.547   2.543  0.0791 -0.1303 -0.0558
 3496ntf    fn419492   4.452   3.569   2.670  0.1455 -0.3397  0.0539
 3496ntf    fn419493   4.265   3.637   2.740  0.3551  0.1846 -0.2559
 3496ntf    on519494   4.430   3.863   2.657  0.1200 -0.1574  0.2268
 3496ntf    on519495   4.454   3.759   2.439  0.1801  0.0795 -0.0032
 3496ntf    on519496   4.077   4.035   2.518  0.3080  0.7244  0.6184
 3496ntf    on519497   4.147   3.927   2.735 -0.2811  0.2918 -0.1029
 3496ntf    fn419498   3.941   3.788   2.469 -0.2840 -0.2543  0.0374
 3496ntf    fn419499   3.997   3.693   2.643 -0.4535 -0.0756  0.0802
 3496ntf    fn419500   3.873   3.879   2.651  0.1968  0.1740 -0.0141
 3497ntf    cn119501   2.830   2.807   2.614 -0.1143 -0.4829 -0.5710
 3497ntf    sn219502   2.797   2.817   2.436 -0.6117 -0.0072 -0.4548
 3497ntf    nn319503   2.716   2.684   2.415 -0.6756 -0.1441  0.6012
 3497ntf    sn219504   2.772   2.544   2.371  0.0107  0.2800  0.0963
 3497ntf    cn119505   2.774   2.554   2.189  0.0130 -0.0471  0.0769
 3497ntf    fn419506   2.719   2.792   2.684 -0.1644 -0.3287 -0.6174
 3497ntf    fn419507   2.906   2.704   2.647 -0.0344 -0.3589 -0.3656
 3497ntf    fn419508   2.886   2.918   2.661 -0.7490 -0.4086  0.0199
 3497ntf    on519509   2.719   2.937   2.417 -0.3197  0.2079 -0.2874
 3497ntf    on519510   2.931   2.809   2.384 -0.2744  0.5237  0.3204
 3497ntf    on519511   2.675   2.442   2.404 -0.1753  0.3320 -0.2878
 3497ntf    on519512   2.912   2.516   2.388  0.0288  0.0602 -0.3916
 3497ntf    fn419513   2.858   2.646   2.145  0.0541 -0.2038 -0.1684
 3497ntf    fn419514   2.800   2.441   2.126 -0.5384 -0.1955  0.1089
 3497ntf    fn419515   2.654   2.593   2.150  0.0608 -0.2925 -0.3111
 3498ntf    cn119516   5.266   3.279   4.320  0.3565 -0.1597 -0.1438
 3498ntf    sn219517   5.265   3.458   4.355  0.3143 -0.2461  0.2985
 3498ntf    nn319518   5.263   3.517   4.210  0.5206  0.4019  0.5593
 3498ntf    sn219519   5.187   3.641   4.151  0.4964  0.0253 -0.2161
 3498ntf    cn119520   5.260   3.785   4.233  0.0987  0.1111 -0.0074
 3498ntf    fn419521   5.380   3.243   4.264  0.4911  0.2100 -0.1118
 3498ntf    fn419522   5.252   3.202   4.426  0.5115 -0.1185 -0.0944
 3498ntf    fn419523   5.169   3.252   4.233 -0.0403 -0.5684  0.4172
 3498ntf    on519524   5.147   3.488   4.433  0.3849  0.8519 -0.0120
 3498ntf    on519525   5.394   3.488   4.412  0.3716  0.2595 -0.0925
 3498ntf    on519526   5.047   3.653   4.185  0.5260  0.5448 -0.2603
 3498ntf    on519527   5.222   3.667   4.014 -0.6162 -0.8085 -0.6811
 3498ntf    fn419528   5.198   3.898   4.204  0.3983  0.2207 -0.2224
 3498ntf    fn419529   5.274   3.770   4.364  0.1443 -0.0431 -0.0303
 3498ntf    fn419530   5.383   3.801   4.186  0.1647  0.4420  0.2724
 3499ntf    cn119531   5.267   1.338   1.717  0.0592 -0.2162  0.0850
 3499ntf    sn219532   5.181   1.491   1.763  0.4526  0.1320 -0.3256
 3499ntf    nn319533   5.039   1.446   1.712  0.2470 -0.0718  0.4179
 3499ntf    sn219534   4.911   1.413   1.797 -0.1248  0.2301 -0.0266
 3499ntf    cn119535   4.931   1.233   1.799 -0.0883  0.2335 -0.0673
 3499ntf    fn419536   5.254   1.302   1.590  0.2782 -0.6811  0.1907
 3499ntf    fn419537   5.397   1.347   1.740  0.0323 -0.1164  0.1947
 3499ntf    fn419538   5.219   1.239   1.791 -0.3741 -0.1524 -0.1105
 3499ntf    on519539   5.213   1.488   1.903 -0.4296  0.5902 -0.1074
 3499ntf    on519540   5.244   1.588   1.677  0.2024  0.6111  0.0307
 3499ntf    on519541   4.791   1.433   1.719 -0.1034  0.3553 -0.0274
 3499ntf    on519542   4.920   1.447   1.936  0.7310  0.1955 -0.0670
 3499ntf    fn419543   4.991   1.182   1.693  0.2969 -0.4007  0.4475
 3499ntf    fn419544   5.008   1.189   1.898 -0.0308 -0.0246 -0.2248
 3499ntf    fn419545   4.820   1.165   1.823  0.1692 -0.1532  0.0462
 3500ntf    cn119546   3.578   1.381   6.499 -0.1845  0.0423  0.1229
 3500ntf    sn219547   3.583   1.210   6.437 -0.3919  0.0582  0.0619
 3500ntf    nn319548   3.646   1.134   6.558  0.1195 -0.4711 -0.5331
 3500ntf    sn219549   3.593   1.067   6.690  0.3393  0.0839 -0.1580
 3500ntf    cn119550   3.722   1.127   6.803  0.1889 -0.0206  0.0701
 3500ntf    fn419551   3.473   1.415   6.572 -0.1653  0.2132  0.0704
 3500ntf    fn419552   3.682   1.400   6.578  0.1785 -0.1977 -0.2969
 3500ntf    fn419553   3.584   1.471   6.402  0.3272  0.1776  0.2761
 3500ntf    on519554   3.447   1.168   6.410 -0.4062 -0.2296  0.5674
 3500ntf    on519555   3.666   1.204   6.320  0.0186 -0.0194  0.3574
 3500ntf    on519556   3.616   0.925   6.688  0.3977  0.0922 -0.0653
 3500ntf    on519557   3.470   1.115   6.748  0.2494 -0.5666  0.1913
 3500ntf    fn419558   3.840   1.142   6.744 -0.0798  0.1741 -0.4236
 3500ntf    fn419559   3.676   1.237   6.859  0.4674  0.1553 -0.0464
 3500ntf    fn419560   3.735   1.042   6.903 -0.0084  0.0825  0.1836
 3501ntf    cn119561   7.061   4.074   3.004  0.3485  0.2902  0.1796
 3501ntf    sn219562   6.909   3.994   3.061  0.4581  0.1217  0.2363
 3501ntf    nn319563   6.876   4.076   3.191 -0.0633  0.3311 -0.0241
 3501ntf    sn219564   6.818   4.037   3.332  0.0040 -0.0879 -0.1110
 3501ntf    cn119565   6.645   4.091   3.324 -0.0379 -0.2100 -0.0345
 3501ntf    fn419566   7.131   4.103   3.112 -0.2140 -0.6439  0.8046
 3501ntf    fn419567   7.131   3.994   2.924  0.1130 -0.1723  0.4307
 3501ntf    fn419568   7.032   4.184   2.937 -0.1292  0.1928  0.2281
 3501ntf    on519569   6.815   4.019   2.955 -0.2861 -0.1993  0.8053
 3501ntf    on519570   6.953   3.860   3.092  0.1918 -0.1286 -0.4386
 3501ntf    on519571   6.868   4.119   3.439 -0.2904 -0.2737  0.1689
 3501ntf    on519572   6.803   3.897   3.363 -0.1482 -0.2023 -0.6831
 3501ntf    fn419573   6.591   4.065   3.441  0.0119 -0.1185  0.0094
 3501ntf    fn419574   6.642   4.223   3.312  0.2608 -0.1873  0.1259
 3501ntf    fn419575   6.584   4.037   3.220 -0.0369 -0.5579  0.1476
 3502ntf    cn119576   6.159   1.936   1.620  0.3167 -0.0199  0.1482
 3502ntf    sn219577   6.013   2.045   1.616  0.0499 -0.3902 -0.2368
 3502ntf    nn319578   6.043   2.126   1.485 -0.2025  0.1147  0.0153
 3502ntf    sn219579   6.018   2.089   1.334  0.0291  0.3181 -0.0730
 3502ntf    cn119580   5.910   2.224   1.277 -0.4089  0.0147  0.0365
 3502ntf    fn419581   6.181   1.890   1.742  0.0379  0.7315  0.4862
 3502ntf    fn419582   6.151   1.831   1.539 -1.2011 -0.1920  0.4933
 3502ntf    fn419583   6.267   2.004   1.582  0.0558  0.1763 -0.2491
 3502ntf    on519584   5.902   1.953   1.609 -0.7601  0.4854  0.7417
 3502ntf    on519585   6.035   2.127   1.732  0.6539 -0.6498 -0.1618
 3502ntf    on519586   5.937   1.973   1.305 -0.2500  0.3016  0.7430
 3502ntf    on519587   6.137   2.112   1.256 -0.0862  0.3838 -0.2305
 3502ntf    fn419588   5.787   2.216   1.325 -0.3153  0.2859  0.3225
 3502ntf    fn419589   5.956   2.335   1.332 -0.2846 -0.0232  0.0079
 3502ntf    fn419590   5.908   2.250   1.147  0.3229 -0.0841  0.0013
 3503ntf    cn119591   5.187   0.378   3.726 -0.0310  0.0849  0.4145
 3503ntf    sn219592   5.139   0.219   3.800 -0.3501 -0.0278 -0.0331
 3503ntf    nn319593   5.046   0.267   3.916 -0.2518  0.2898 -0.0870
 3503ntf    sn219594   5.071   0.286   4.070 -0.1415 -0.2735 -0.0367
 3503ntf    cn119595   5.038   0.120   4.137 -0.2102 -0.1126  0.3306
 3503ntf    fn419596   5.269   0.443   3.808  0.3168  0.1954 -0.0143
 3503ntf    fn419597   5.252   0.359   3.612  0.3722  0.5078  0.5727
 3503ntf    fn419598   5.084   0.455   3.697 -0.2247 -0.0853  0.6519
 3503ntf    on519599   5.061   0.154   3.697  0.6027 -1.2370 -0.0207
 3503ntf    on519600   5.261   0.154   3.842 -0.7438 -0.2792  0.7280
 3503ntf    on519601   4.964   0.362   4.129 -0.0384 -0.0218 -0.1750
 3503ntf    on519602   5.205   0.309   4.118 -0.1034  0.2729 -0.4068
 3503ntf    fn419603   5.104   0.025   4.072 -0.3090  0.0185  0.0364
 3503ntf    fn419604   5.072   0.099   4.263  0.2121  0.2904  0.2860
 3503ntf    fn419605   4.910   0.094   4.113 -0.0615 -0.3796 -0.1917
 3504ntf    cn119606   5.827   6.104   6.170 -0.6027  0.2073  0.2628
 3504ntf    sn219607   5.694   6.046   6.059 -0.3823  0.0576  0.0749
 3504ntf    nn319608   5.715   6.158   5.951 -0.3439 -0.2620 -0.2504
 3504ntf    sn219609   5.620   6.278   5.914  0.0374  0.0934 -0.0864
 3504ntf    cn119610   5.544   6.213   5.762 -0.3934 -0.3399  0.3093
 3504ntf    fn419611   5.924   6.165   6.104 -0.8188 -0.1786 -0.4299
 3504ntf    fn419612   5.796   6.175   6.277 -0.4599  0.0689  0.3966
 3504ntf    fn419613   5.878   5.994   6.223  0.0718  0.6146  0.4687
 3504ntf    on519614   5.745   5.919   6.014 -0.1726  0.1473  0.0559
 3504ntf    on519615   5.574   6.043   6.139 -0.2080 -0.1307  0.3325
 3504ntf    on519616   5.694   6.393   5.866  0.1649 -0.0566 -0.2508
 3504ntf    on519617   5.499   6.304   5.987  0.2124  0.2398  0.1547
 3504ntf    fn419618   5.448   6.292   5.718 -0.1213 -0.3300 -0.2779
 3504ntf    fn419619   5.630   6.202   5.662 -0.3324  0.5023  0.2601
 3504ntf    fn419620   5.492   6.093   5.781 -0.2233 -0.4624  0.0177
 3505ntf    cn119621   3.082   5.087   7.079  0.2793  0.3892 -0.0635
 3505ntf    sn219622   3.084   4.932   6.984 -0.1322  0.1877  0.2473
 3505ntf    nn319623   3.072   4.990   6.838 -0.3858 -1.0292 -0.2241
 3505ntf    sn219624   2.942   5.016   6.754 -0.0595  0.2859 -0.3376
 3505ntf    cn119625   2.971   4.888   6.628  0.2387 -0.0212  0.0390
 3505ntf    fn419626   3.088   5.077   7.211  0.1740  0.4406 -0.0547
 3505ntf    fn419627   3.173   5.174   7.039  0.5566  0.2596  0.2795
 3505ntf    fn419628   2.968   5.152   7.058 -0.1442 -0.2943  0.0732
 3505ntf    on519629   3.213   4.877   7.017 -0.1038 -0.0459 -0.2403
 3505ntf    on519630   2.973   4.851   7.026  0.0475 -0.4054 -0.3926
 3505ntf    on519631   2.939   5.144   6.687 -0.4494  0.5828  0.2436
 3505ntf    on519632   2.815   4.982   6.814  0.2358 -0.1298  0.0537
 3505ntf    fn419633   2.871   4.866   6.543 -0.0857  0.8983  0.1647
 3505ntf    fn419634   3.082   4.896   6.557  0.2336 -0.5746 -0.0308
 3505ntf    fn419635   2.994   4.775   6.692 -0.1064 -0.1111  0.0058
 3506ntf    cn119636   1.097   0.235   4.719  0.0662  0.1254 -0.1028
 3506ntf    sn219637   0.997   0.130   4.828  0.3185 -0.4082 -0.3798
 3506ntf    nn319638   0.852   0.157   4.775  0.0857  0.3015  0.5819
 3506ntf    sn219639   0.718   0.206   4.840 -0.1634  0.1094  0.2142
 3506ntf    cn119640   0.709   0.378   4.782  0.1306  0.0263 -0.0794
 3506ntf    fn419641   1.081   0.208   4.590 -0.2673 -0.4052  0.0445
 3506ntf    fn419642   1.065   0.363   4.725  0.0436  0.1560 -0.7373
 3506ntf    fn419643   1.226   0.234   4.748  0.1162  0.3074 -0.3115
 3506ntf    on519644   1.055  -0.000   4.808 -0.4095 -0.8157  0.0906
 3506ntf    on519645   1.027   0.188   4.957 -0.6213 -0.6947 -0.0204
 3506ntf    on519646   0.714   0.213   4.984  0.4128 -0.1249  0.2436
 3506ntf    on519647   0.602   0.149   4.775  0.3706  0.5870 -1.1992
 3506ntf    fn419648   0.617   0.440   4.853 -0.4418 -0.9927  0.0815
 3506ntf    fn419649   0.822   0.447   4.793  0.4355 -0.4990  0.1234
 3506ntf    fn419650   0.670   0.392   4.656  0.4283  0.0676 -0.1700
 3507ntf    cn119651   2.209   0.380   4.673 -0.1153  0.2037  0.0152
 3507ntf    sn219652   2.370   0.334   4.744 -0.1655  0.3278  0.2090
 3507ntf    nn319653   2.456   0.459   4.704 -0.1570  0.2622  0.0204
 3507ntf    sn219654   2.563   0.475   4.590 -0.0705  0.3173  0.1092
 3507ntf    cn119655   2.495   0.611   4.489 -0.1641  0.1539 -0.0488
 3507ntf    fn419656   2.175   0.505   4.700  0.2839  0.3091  0.0426
 3507ntf    fn419657   2.211   0.374   4.541  0.0001  0.4079  0.0070
 3507ntf    fn419658   2.107   0.304   4.709  0.0110 -0.0166 -0.0888
 3507ntf    on519659   2.355   0.324   4.887  0.2847 -0.5254  0.2056
 3507ntf    on519660   2.399   0.208   4.679  0.3288  0.5270  0.0393
 3507ntf    on519661   2.573   0.367   4.495  0.5817  0.4285  0.0513
 3507ntf    on519662   2.687   0.524   4.644 -0.2774  0.1745  0.7239
 3507ntf    fn419663   2.588   0.660   4.409 -0.2086  0.3379  0.0115
 3507ntf    fn419664   2.399   0.563   4.412 -0.0030  0.6293 -0.5525
 3507ntf    fn419665   2.447   0.707   4.567  0.2099  0.2595  0.0548
 3508ntf    cn119666   2.614   3.148   0.818 -0.1318  0.0031 -0.1800
 3508ntf    sn219667   2.471   3.114   0.711 -0.3083 -0.1378  0.0996
 3508ntf    nn319668   2.523   2.976   0.657  0.2369  0.0976  0.0180
 3508ntf    sn219669   2.634   2.939   0.552  0.1280  0.2781 -0.1633
 3508ntf    cn119670   2.570   2.782   0.486  0.0163  0.1570  0.2265
 3508ntf    fn419671   2.726   3.178   0.754 -0.0748 -0.0103 -0.0859
 3508ntf    fn419672   2.592   3.253   0.896 -0.3100  0.3549 -0.7018
 3508ntf    fn419673   2.644   3.049   0.900  0.0213 -0.0812 -0.3367
 3508ntf    on519674   2.361   3.099   0.804 -0.2457 -0.2535  0.1554
 3508ntf    on519675   2.467   3.221   0.614 -0.6232 -0.0284  0.2325
 3508ntf    on519676   2.762   2.902   0.608 -0.1033  0.2545  0.3523
 3508ntf    on519677   2.640   3.030   0.441 -0.1227  0.2677 -0.1856
 3508ntf    fn419678   2.548   2.688   0.576  0.2851  0.3492  0.4924
 3508ntf    fn419679   2.456   2.796   0.419  0.5203  0.7589 -0.5269
 3508ntf    fn419680   2.659   2.726   0.405  0.1373 -0.0411  0.4965
 3509ntf    cn119681   6.823   2.688   0.368  0.0581  0.1771 -0.3086
 3509ntf    sn219682   6.906   2.766   0.510 -0.2076  0.0461 -0.0787
 3509ntf    nn319683   7.056   2.741   0.469 -0.1615 -0.0543  0.1477
 3509ntf    sn219684   7.187   2.717   0.551  0.0125 -0.3314 -0.2104
 3509ntf    cn119685   7.289   2.828   0.451  0.1235  0.0965  0.3711
 3509ntf    fn419686   6.853   2.559   0.365  0.3258  0.2039  0.7173
 3509ntf    fn419687   6.691   2.681   0.380  0.1015 -0.3793 -0.1342
 3509ntf    fn419688   6.862   2.734   0.251 -0.2783 -0.0832 -0.5263
 3509ntf    on519689   6.877   2.907   0.499 -0.4797 -0.0048 -0.0117
 3509ntf    on519690   6.863   2.693   0.626 -0.1044  0.0273 -0.0524
 3509ntf    on519691   7.259   2.593   0.533  0.8311  0.1166 -0.0877
 3509ntf    on519692   7.189   2.765   0.687  0.0324  0.1163 -0.3677
 3509ntf    fn419693   7.241   2.952   0.445 -0.4048 -0.1382 -0.3990
 3509ntf    fn419694   7.412   2.838   0.500  0.2747  0.1694 -0.0168
 3509ntf    fn419695   7.309   2.782   0.328 -0.4895  0.0028  0.3059
 3510ntf    cn119696   3.654   5.492   4.342  0.0095 -0.1905  0.2713
 3510ntf    sn219697   3.623   5.322   4.397 -0.1076 -0.3510 -0.2889
 3510ntf    nn319698   3.535   5.343   4.525  0.2351  0.7270 -0.2237
 3510ntf    sn219699   3.587   5.373   4.670  0.2050  0.1345 -0.0885
 3510ntf    cn119700   3.492   5.241   4.752  0.7419 -0.0846  0.1825
 3510ntf    fn419701   3.743   5.503   4.245  0.2354  0.0691  0.5044
 3510ntf    fn419702   3.546   5.553   4.295 -0.1028 -0.7437 -0.2016
 3510ntf    fn419703   3.697   5.567   4.442  0.1386  0.6087 -0.3741
 3510ntf    on519704   3.544   5.268   4.289 -0.2604 -0.3379 -0.1842
 3510ntf    on519705   3.751   5.259   4.417  0.4213  0.7950  0.0179
 3510ntf    on519706   3.519   5.493   4.712 -0.3990 -0.3370  0.3056
 3510ntf    on519707   3.725   5.347   4.703  0.1601 -0.0878 -0.0712
 3510ntf    fn419708   3.500   5.242   4.884  0.9519 -0.8518  0.1829
 3510ntf    fn419709   3.364   5.262   4.728  0.8434  0.3402  0.0044
 3510ntf    fn419710   3.529   5.118   4.719 -0.1756 -0.3436  0.0968
 3511ntf    cn119711   5.436   4.827   4.966  0.0104 -0.1438  0.4173
 3511ntf    sn219712   5.295   4.810   4.852 -0.0825 -0.3198  0.5581
 3511ntf    nn319713   5.181   4.852   4.951  0.3312  0.4303  0.7204
 3511ntf    sn219714   5.108   4.991   4.955 -0.0327  0.2734 -0.1977
 3511ntf    cn119715   4.946   4.930   5.010  0.0404 -0.0795 -0.3674
 3511ntf    fn419716   5.466   4.955   4.976 -0.1611 -0.1051  0.4416
 3511ntf    fn419717   5.414   4.767   5.082  0.6242 -0.4838  0.3590
 3511ntf    fn419718   5.550   4.783   4.917  0.0098 -0.0008  0.2869
 3511ntf    on519719   5.327   4.904   4.747  0.2594 -0.0869  0.8692
 3511ntf    on519720   5.294   4.671   4.811 -0.5250 -0.2654  0.3886
 3511ntf    on519721   5.078   5.056   4.830  0.0644  0.4098 -0.1499
 3511ntf    on519722   5.150   5.068   5.070  0.0069 -0.0827  0.0267
 3511ntf    fn419723   4.933   4.903   5.139 -0.3120  0.1769 -0.3485
 3511ntf    fn419724   4.852   5.021   4.988 -0.0844 -0.1221 -0.0207
 3511ntf    fn419725   4.900   4.818   4.958  1.0974 -0.7443  0.1007
 3512ntf    cn119726   3.666   5.274   5.755 -0.0628 -0.1964 -0.3052
 3512ntf    sn219727   3.794   5.291   5.627 -0.0240 -0.1305 -0.2575
 3512ntf    nn319728   3.695   5.302   5.505  0.3534  0.2933 -0.5288
 3512ntf    sn219729   3.663   5.194   5.395  0.1762  0.1499 -0.3388
 3512ntf    cn119730   3.778   5.259   5.270  0.4827  0.2959  0.0143
 3512ntf    fn419731   3.597   5.387   5.758 -0.1398 -0.2353 -0.5793
 3512ntf    fn419732   3.579   5.176   5.739  0.1597 -0.3563 -0.5360
 3512ntf    fn419733   3.721   5.264   5.875 -0.0662  0.2819 -0.2606
 3512ntf    on519734   3.862   5.416   5.649 -0.0169 -0.2157  0.2093
 3512ntf    on519735   3.865   5.166   5.638  0.5563  0.2142 -0.1114
 3512ntf    on519736   3.530   5.216   5.345 -0.2264  0.2082  0.7213
 3512ntf    on519737   3.703   5.060   5.427  0.8717  0.2773 -0.6530
 3512ntf    fn419738   3.757   5.205   5.150  0.9514 -0.6240  0.3360
 3512ntf    fn419739   3.753   5.388   5.252 -0.4787  0.0549 -0.4413
 3512ntf    fn419740   3.905   5.250   5.304  0.4498 -0.4226 -0.0274
 3513ntf    cn119741   6.492   4.012   5.829 -0.2167  0.0708  0.0470
 3513ntf    sn219742   6.534   3.976   5.656 -0.0398 -0.1914  0.1421
 3513ntf    nn319743   6.404   4.022   5.581  0.1295 -0.2043 -0.1608
 3513ntf    sn219744   6.363   4.163   5.523 -0.1013 -0.2649 -0.1464
 3513ntf    cn119745   6.197   4.177   5.595 -0.1391 -0.2405 -0.2370
 3513ntf    fn419746   6.383   3.954   5.879 -0.4518  0.3537 -0.1336
 3513ntf    fn419747   6.587   3.973   5.912 -0.2035  0.3015  0.1407
 3513ntf    fn419748   6.472   4.138   5.862  0.5559  0.2057  0.0094
 3513ntf    on519749   6.650   4.057   5.631  0.0051 -0.4951 -0.6902
 3513ntf    on519750   6.546   3.833   5.649 -0.1854 -0.1857 -0.2596
 3513ntf    on519751   6.345   4.151   5.380  0.3222 -0.7536 -0.1616
 3513ntf    on519752   6.445   4.275   5.561  0.1081 -0.3115 -0.4548
 3513ntf    fn419753   6.170   4.302   5.630  0.8097 -0.1404  0.1762
 3513ntf    fn419754   6.099   4.139   5.515 -0.5534  0.1001  0.1035
 3513ntf    fn419755   6.190   4.112   5.710 -0.1051  0.5504  0.2207
 3514ntf    cn119756   3.672   5.782   6.756  0.4711  0.0354 -0.0688
 3514ntf    sn219757   3.770   5.926   6.809 -0.2305  0.4074  0.2346
 3514ntf    nn319758   3.794   5.896   6.961  0.1235  0.0990  0.1197
 3514ntf    sn219759   3.709   5.938   7.086 -0.0168  0.0043  0.0558
 3514ntf    cn119760   3.806   6.073   7.159 -0.0978  0.1028 -0.0180
 3514ntf    fn419761   3.732   5.674   6.801 -0.0238 -0.1128  0.2410
 3514ntf    fn419762   3.549   5.786   6.804  0.1447  0.3556 -0.9025
 3514ntf    fn419763   3.661   5.768   6.624  0.0404  0.1342 -0.0462
 3514ntf    on519764   3.897   5.903   6.746 -0.2493 -0.2823  0.4431
 3514ntf    on519765   3.704   6.051   6.782 -0.5663  0.3281  0.6761
 3514ntf    on519766   3.708   5.838   7.190  0.0875 -0.1397 -0.0823
 3514ntf    on519767   3.578   5.995   7.063  0.1225  0.4816  0.4245
 3514ntf    fn419768   3.899   6.031   7.243 -0.3452  0.2741  0.3492
 3514ntf    fn419769   3.870   6.159   7.082 -0.1696  0.1594 -0.0139
 3514ntf    fn419770   3.734   6.162   7.226  0.1084  0.3414 -0.1122
 3515ntf    cn119771   6.133   1.549   4.618  0.2129 -0.2581  0.1103
 3515ntf    sn219772   6.279   1.492   4.528  0.2980  0.0759  0.0364
 3515ntf    nn319773   6.247   1.531   4.380  0.1486 -0.1166  0.0175
 3515ntf    sn219774   6.209   1.446   4.254 -0.0544 -0.0298  0.0208
 3515ntf    cn119775   6.040   1.506   4.222  0.1446  0.3829 -0.2641
 3515ntf    fn419776   6.018   1.520   4.559 -0.0143  0.2073  0.3144
 3515ntf    fn419777   6.115   1.501   4.740  0.1658 -0.3387  0.0719
 3515ntf    fn419778   6.127   1.681   4.632 -0.5362 -0.2131 -0.5771
 3515ntf    on519779   6.382   1.570   4.593  0.3505  0.3634 -0.3852
 3515ntf    on519780   6.286   1.352   4.563  0.3203 -0.1065 -0.6824
 3515ntf    on519781   6.185   1.305   4.272  0.1283 -0.0691 -0.0435
 3515ntf    on519782   6.276   1.488   4.133  0.3789 -0.9265 -0.0585
 3515ntf    fn419783   5.978   1.447   4.122  0.1460  0.3248 -0.2313
 3515ntf    fn419784   5.965   1.492   4.330  0.3192  0.0578 -0.1832
 3515ntf    fn419785   6.043   1.637   4.203  0.0624  0.4630  0.2621
 3516ntf    cn119786   6.165   3.157   3.086 -0.5502 -0.0229 -0.0735
 3516ntf    sn219787   6.063   3.162   2.935 -0.2551  0.3548 -0.2628
 3516ntf    nn319788   6.053   3.319   2.927 -0.1467  0.3966  0.3287
 3516ntf    sn219789   6.051   3.414   2.802 -0.2481  0.0272  0.0461
 3516ntf    cn119790   6.227   3.461   2.799 -0.2375 -0.0162  0.0133
 3516ntf    fn419791   6.289   3.202   3.074 -0.5397 -0.0555 -0.0852
 3516ntf    fn419792   6.120   3.244   3.175 -0.2724 -0.1593  0.2033
 3516ntf    fn419793   6.169   3.040   3.146  0.2975  0.0537  0.0325
 3516ntf    on519794   6.145   3.088   2.843  0.1314 -0.5618  0.7922
 3516ntf    on519795   5.940   3.105   2.986  0.0156 -0.1476 -0.1640
 3516ntf    on519796   5.970   3.530   2.826 -0.8261 -0.3746  0.0552
 3516ntf    on519797   6.036   3.350   2.673 -0.1449  0.1787 -0.0413
 3516ntf    fn419798   6.269   3.473   2.923  0.2760 -0.1752 -0.1409
 3516ntf    fn419799   6.307   3.378   2.734 -0.0755 -0.1195  0.3464
 3516ntf    fn419800   6.249   3.580   2.745 -0.0868 -0.1607 -0.2511
 3517ntf    cn119801   4.185   4.671   3.170 -0.2522 -0.1288 -0.3548
 3517ntf    sn219802   4.327   4.655   3.058 -0.0790 -0.0040 -0.1550
 3517ntf    nn319803   4.275   4.535   2.970  0.6652  0.1306 -0.7843
 3517ntf    sn219804   4.340   4.394   2.945  0.0757 -0.3174  0.1663
 3517ntf    cn119805   4.288   4.369   2.773  0.1831 -0.3293  0.1352
 3517ntf    fn419806   4.186   4.774   3.253 -0.6587 -0.5303  0.1521
 3517ntf    fn419807   4.070   4.696   3.108 -0.4561 -0.1072  0.0262
 3517ntf    fn419808   4.163   4.560   3.239 -0.7474  0.2643  0.1324
 3517ntf    on519809   4.326   4.780   2.986  0.6111 -0.1592 -0.4438
 3517ntf    on519810   4.429   4.622   3.154 -0.3233 -0.5628 -0.0798
 3517ntf    on519811   4.282   4.286   3.020  0.2520 -0.5444 -0.0239
 3517ntf    on519812   4.484   4.405   2.940  0.0498  0.2067  0.4692
 3517ntf    fn419813   4.353   4.452   2.694  0.4805 -0.5411  0.1541
 3517ntf    fn419814   4.317   4.251   2.720 -0.4570 -0.4790  0.1110
 3517ntf    fn419815   4.159   4.393   2.755  0.2473 -0.1679 -0.1025
 3518ntf    cn119816   5.685   3.822   4.721  0.0001 -0.2020 -0.0558
 3518ntf    sn219817   5.582   3.933   4.620 -0.0204  0.1102  0.3061
 3518ntf    nn319818   5.669   4.063   4.615  0.1200 -0.0118 -0.5595
 3518ntf    sn219819   5.670   4.188   4.710 -0.2374 -0.2254 -0.2699
 3518ntf    cn119820   5.567   4.303   4.613  0.1361  0.1424 -0.2349
 3518ntf    fn419821   5.714   3.882   4.835  0.4818 -0.8192  0.1534
 3518ntf    fn419822   5.620   3.710   4.750  0.1619 -0.1953  0.3302
 3518ntf    fn419823   5.797   3.788   4.659 -0.3059 -0.1241 -0.6671
 3518ntf    on519824   5.577   3.870   4.490  0.6109  0.5700  0.0570
 3518ntf    on519825   5.452   3.950   4.681 -0.0614 -0.0810  0.2758
 3518ntf    on519826   5.798   4.256   4.704 -0.4520  0.1606 -0.4886
 3518ntf    on519827   5.596   4.181   4.833  0.1566  0.3092  0.0045
 3518ntf    fn419828   5.455   4.239   4.586  0.1069  0.0109  0.1791
 3518ntf    fn419829   5.543   4.420   4.669 -0.0935 -0.1766  0.3493
 3518ntf    fn419830   5.608   4.331   4.491 -0.1527  0.3280 -0.2891
 3519ntf    cn119831   5.929   0.305   0.932 -0.0029  0.0868  0.1310
 3519ntf    sn219832   5.798   0.291   0.806  0.0926  0.0575  0.0349
 3519ntf    nn319833   5.860   0.170   0.728  0.1131  0.0380  0.0817
 3519ntf    sn219834   5.903   0.164   0.577 -0.3769 -0.0860 -0.0556
 3519ntf    cn119835   6.084   0.171   0.601 -0.3901  0.3609 -0.0739
 3519ntf    fn419836   5.948   0.192   0.997  0.4952  0.1190  0.0427
 3519ntf    fn419837   6.047   0.342   0.887 -0.0321  0.2339  0.1738
 3519ntf    fn419838   5.898   0.391   1.027 -0.1349  0.3264 -0.1253
 3519ntf    on519839   5.689   0.250   0.890  0.1828  0.0935  0.1703
 3519ntf    on519840   5.803   0.425   0.753  0.7216 -0.0309 -0.1431
 3519ntf    on519841   5.874   0.284   0.503  0.3327  0.0609 -0.1080
 3519ntf    on519842   5.877   0.040   0.510 -0.1033 -0.2064  0.0569
 3519ntf    fn419843   6.117   0.261   0.692 -0.0099 -0.0473  0.1936
 3519ntf    fn419844   6.140   0.059   0.643 -0.4252  0.2724 -0.2590
 3519ntf    fn419845   6.140   0.210   0.488 -0.0584  0.5223  0.1462
 3520ntf    cn119846   5.621   2.360   7.034  0.1836 -0.1663  0.1471
 3520ntf    sn219847   5.469   2.328   7.127 -0.0399 -0.1237 -0.1993
 3520ntf    nn319848   5.526   2.217   7.223 -0.0046 -0.0984 -0.1903
 3520ntf    sn219849   5.583   2.232   7.368  0.1461 -0.1033 -0.2492
 3520ntf    cn119850   5.431   2.232   7.468  0.1495 -0.5219 -0.2451
 3520ntf    fn419851   5.599   2.394   6.908 -0.0568 -0.9678 -0.0355
 3520ntf    fn419852   5.699   2.454   7.083 -0.0369  0.3849 -0.5475
 3520ntf    fn419853   5.697   2.251   7.032 -0.0106 -0.3033  0.1772
 3520ntf    on519854   5.437   2.451   7.195  0.6428  0.0494 -0.1872
 3520ntf    on519855   5.383   2.279   7.023 -0.2096 -0.5172  0.1213
 3520ntf    on519856   5.645   2.357   7.404 -0.3858  0.0533  0.1391
 3520ntf    on519857   5.651   2.112   7.410 -0.6384 -0.7033 -0.6657
 3520ntf    fn419858   5.472   2.253   7.592  0.1552  0.1572 -0.3622
 3520ntf    fn419859   5.341   2.325   7.445  0.1359 -0.4723 -0.0019
 3520ntf    fn419860   5.357   2.123   7.470 -0.3109 -0.1989  0.7165
 3521ntf    cn119861   0.201   5.646   5.035  0.1928  0.2349 -0.0277
 3521ntf    sn219862   0.198   5.465   5.055 -0.1951  0.2428 -0.0020
 3521ntf    nn319863   0.218   5.415   4.908  0.4868 -0.4690  0.3201
 3521ntf    sn219864   0.158   5.295   4.827 -0.2803  0.1604 -0.0564
 3521ntf    cn119865   0.283   5.275   4.697 -0.2572  0.0497 -0.0171
 3521ntf    fn419866   0.134   5.689   4.930 -0.2105 -0.3268 -0.0040
 3521ntf    fn419867   0.147   5.706   5.140  0.2677 -0.0108  0.1512
 3521ntf    fn419868   0.321   5.697   5.015  0.2839  0.0495  0.0353
 3521ntf    on519869   0.313   5.450   5.142 -0.4700  0.3169  0.3741
 3521ntf    on519870   0.066   5.447   5.111 -0.1765 -0.0762 -0.0602
 3521ntf    on519871   0.036   5.325   4.755 -0.4203  0.5889  0.3473
 3521ntf    on519872   0.161   5.172   4.902  0.2475  0.2930  0.1418
 3521ntf    fn419873   0.404   5.245   4.741 -0.0858  0.3196 -0.2991
 3521ntf    fn419874   0.254   5.176   4.614 -0.1771  0.1009 -0.1066
 3521ntf    fn419875   0.296   5.386   4.626 -0.2812 -0.1357 -0.3139
 3522ntf    cn119876   2.950   6.404   4.013 -0.3684 -0.1222  0.3330
 3522ntf    sn219877   2.888   6.573   4.038  0.2029  0.1361  0.0324
 3522ntf    nn319878   2.736   6.551   4.006  0.3471 -0.4357 -0.2673
 3522ntf    sn219879   2.650   6.590   3.881  0.1874  0.0419 -0.0093
 3522ntf    cn119880   2.484   6.575   3.955  0.2880 -0.0961  0.1886
 3522ntf    fn419881   2.884   6.321   4.092 -0.2801 -0.0370  0.4981
 3522ntf    fn419882   2.930   6.368   3.887  0.5840  0.6724 -0.0596
 3522ntf    fn419883   3.079   6.381   4.031 -0.3145 -0.4052 -0.3884
 3522ntf    on519884   2.915   6.601   4.177 -0.0624 -0.0984  0.1331
 3522ntf    on519885   2.968   6.640   3.939  0.4684 -0.2029  0.0159
 3522ntf    on519886   2.649   6.495   3.772  0.5249  0.0417 -0.0125
 3522ntf    on519887   2.657   6.729   3.845 -0.4102  0.3328  0.9606
 3522ntf    fn419888   2.437   6.454   3.982 -0.3716 -0.0037 -0.5252
 3522ntf    fn419889   2.481   6.636   4.073 -0.1893  0.0933  0.0805
 3522ntf    fn419890   2.393   6.637   3.882  0.0569 -0.0839  0.4843
 3523ntf    cn119891   5.011   0.473   1.792  0.3826  0.4653 -0.3961
 3523ntf    sn219892   4.999   0.292   1.801 -0.0444  0.5132  0.0801
 3523ntf    nn319893   4.993   0.268   1.956  0.1625  0.1625  0.0368
 3523ntf    sn219894   5.116   0.238   2.048 -0.0529 -0.0336  0.2614
 3523ntf    cn119895   5.065   0.331   2.196 -0.0944 -0.2720  0.3975
 3523ntf    fn419896   5.112   0.518   1.865  0.1353  0.0119  0.2354
 3523ntf    fn419897   5.028   0.506   1.665  0.3165  0.1025 -0.4986
 3523ntf    fn419898   4.899   0.530   1.834  0.2685  0.0658 -0.1541
 3523ntf    on519899   4.873   0.256   1.741 -0.2543 -0.1359  0.9048
 3523ntf    on519900   5.118   0.242   1.736 -0.5270 -0.0721 -0.3659
 3523ntf    on519901   5.236   0.307   2.009  0.0496 -0.1879  0.3015
 3523ntf    on519902   5.115   0.100   2.090 -0.0614 -0.0072  0.3483
 3523ntf    fn419903   5.170   0.339   2.276  0.1876  0.3537 -0.0248
 3523ntf    fn419904   5.011   0.449   2.172 -0.1381 -0.3808 -0.0458
 3523ntf    fn419905   4.969   0.269   2.262 -0.4703 -0.5080 -0.3631
 3524ntf    cn119906   0.454   1.563   3.873 -0.4214  0.0542  0.0242
 3524ntf    sn219907   0.496   1.578   4.049 -0.2987 -0.0885  0.0074
 3524ntf    nn319908   0.492   1.426   4.090 -0.0890 -0.0892  0.0238
 3524ntf    sn219909   0.608   1.320   4.093  0.1022  0.1184  0.0017
 3524ntf    cn119910   0.519   1.182   4.015 -0.1515  0.4211 -0.2497
 3524ntf    fn419911   0.415   1.680   3.825 -0.0053  0.0598 -0.3076
 3524ntf    fn419912   0.548   1.515   3.793 -0.0903  0.1828  0.3339
 3524ntf    fn419913   0.353   1.478   3.862  0.0860 -0.4990 -0.4302
 3524ntf    on519914   0.622   1.646   4.036 -0.3059 -0.0264  0.2456
 3524ntf    on519915   0.388   1.654   4.109  0.0153  0.0528  0.3948
 3524ntf    on519916   0.638   1.271   4.225  0.4378  0.1519 -0.0625
 3524ntf    on519917   0.721   1.346   4.006  0.2746 -0.5498  0.0263
 3524ntf    fn419918   0.481   1.199   3.889 -0.0237  0.3180 -0.3038
 3524ntf    fn419919   0.591   1.071   4.012  0.0198  0.5434 -1.0268
 3524ntf    fn419920   0.410   1.159   4.086 -0.0229  0.0577 -0.1709
 3525ntf    cn119921   4.114   2.129   7.099 -0.3310  0.2627  0.2122
 3525ntf    sn219922   4.078   2.092   7.274 -0.2215 -0.0374  0.1726
 3525ntf    nn319923   4.158   1.958   7.290  0.1644  0.1959  0.2159
 3525ntf    sn219924   4.103   1.820   7.341 -0.0476  0.3333  0.3625
 3525ntf    cn119925   4.227   1.716   7.259 -0.5187  0.0085  0.0551
 3525ntf    fn419926   4.237   2.172   7.076 -0.1685 -0.4326 -0.2401
 3525ntf    fn419927   4.101   2.025   7.018 -0.2261  0.2083  0.2645
 3525ntf    fn419928   4.038   2.226   7.053 -0.3158  0.1629 -0.0228
 3525ntf    on519929   4.144   2.196   7.350 -0.0305  0.2754 -0.4120
 3525ntf    on519930   3.935   2.078   7.276 -0.1749 -0.5524  0.0056
 3525ntf    on519931   3.979   1.776   7.281  0.2075 -0.2016  0.2149
 3525ntf    on519932   4.119   1.796   7.482 -0.3690  0.0123  0.3465
 3525ntf    fn419933   4.205   1.586   7.269  0.4970 -0.1327  0.5752
 3525ntf    fn419934   4.238   1.736   7.128  0.3593  0.1817  0.1455
 3525ntf    fn419935   4.346   1.741   7.312 -0.2694  0.1778 -0.5743
 3526ntf    cn119936   2.703   3.548   6.353  0.0620 -0.2818 -0.1340
 3526ntf    sn219937   2.610   3.578   6.199 -0.0973 -0.1174 -0.0066
 3526ntf    nn319938   2.634   3.733   6.197  0.1407 -0.1410  0.6150
 3526ntf    sn219939   2.758   3.808   6.137 -0.3134  0.0888 -0.0531
 3526ntf    cn119940   2.781   3.927   6.273  0.0356 -0.1632  0.1112
 3526ntf    fn419941   2.656   3.602   6.465  0.6160 -0.1374  0.0296
 3526ntf    fn419942   2.708   3.418   6.376 -0.1802 -0.1988  0.4058
 3526ntf    fn419943   2.828   3.591   6.345  0.0755 -0.2922  0.0210
 3526ntf    on519944   2.684   3.503   6.100  0.2015 -0.4546  0.4630
 3526ntf    on519945   2.471   3.548   6.225 -0.1238 -0.0689 -0.0926
 3526ntf    on519946   2.720   3.897   6.030 -0.0165 -0.0498 -0.2753
 3526ntf    on519947   2.886   3.741   6.135 -0.2218  0.2633 -0.1198
 3526ntf    fn419948   2.774   3.865   6.390 -0.2329 -0.0487  0.1572
 3526ntf    fn419949   2.903   3.977   6.260 -0.1744  0.1900 -0.5772
 3526ntf    fn419950   2.697   4.029   6.274 -0.2966 -0.4138 -0.8172
 3527ntf    cn119951   6.471   4.910   2.987 -0.2881 -0.1587 -0.1573
 3527ntf    sn219952   6.405   4.886   2.819 -0.0892  0.1219 -0.2769
 3527ntf    nn319953   6.481   4.757   2.771 -0.9207 -0.1096 -0.9766
 3527ntf    sn219954   6.624   4.752   2.708 -0.3861  0.1326  0.1908
 3527ntf    cn119955   6.694   4.606   2.791 -0.2500  0.2000  0.1959
 3527ntf    fn419956   6.439   4.811   3.068 -0.3081  0.0466  0.0865
 3527ntf    fn419957   6.603   4.926   2.989 -0.2862 -0.1748 -0.1653
 3527ntf    fn419958   6.421   5.020   3.041 -0.5263 -0.0440 -0.6079
 3527ntf    on519959   6.271   4.856   2.863  0.0646 -0.4023 -0.1588
 3527ntf    on519960   6.435   5.010   2.752 -0.0270  0.3086  0.0906
 3527ntf    on519961   6.713   4.859   2.744 -0.1104  0.3907 -1.1762
 3527ntf    on519962   6.629   4.711   2.569 -0.0061  0.8997 -0.0247
 3527ntf    fn419963   6.708   4.612   2.922 -0.3612  0.6527  0.1864
 3527ntf    fn419964   6.616   4.504   2.760  0.2509  0.0080 -0.4577
 3527ntf    fn419965   6.816   4.583   2.745 -0.2110  0.7016  0.0365
 3528ntf    cn119966   4.615   5.508   1.196  0.2611  0.0952 -0.0212
 3528ntf    sn219967   4.594   5.487   1.376  0.1242 -0.1492 -0.0651
 3528ntf    nn319968   4.561   5.638   1.403  0.0974 -0.1831  0.0941
 3528ntf    sn219969   4.630   5.734   1.506  0.0279  0.2191 -0.2327
 3528ntf    cn119970   4.751   5.810   1.393  0.1179 -0.0047 -0.2868
 3528ntf    fn419971   4.667   5.396   1.147  0.1794 -0.0284  0.1712
 3528ntf    fn419972   4.496   5.523   1.141  0.1770 -0.3085  0.0423
 3528ntf    fn419973   4.690   5.614   1.173  0.1536  0.1352 -0.1851
 3528ntf    on519974   4.481   5.397   1.379  0.2445 -0.3047 -0.1414
 3528ntf    on519975   4.724   5.437   1.415  0.0900 -0.0420  0.1819
 3528ntf    on519976   4.706   5.674   1.613 -0.4758  0.2143  0.1249
 3528ntf    on519977   4.543   5.840   1.550  0.0108  0.1395 -0.0737
 3528ntf    fn419978   4.804   5.917   1.450 -0.1276  0.0067 -0.0775
 3528ntf    fn419979   4.846   5.725   1.357  0.0764 -0.1696 -0.0156
 3528ntf    fn419980   4.698   5.848   1.279 -0.3811 -0.0822 -0.0830
 3529ntf    cn119981   6.254   1.165   5.139 -0.0348 -0.4054 -0.0024
 3529ntf    sn219982   6.361   1.041   5.059  0.0602 -0.2907 -0.0537
 3529ntf    nn319983   6.424   1.126   4.944 -0.0086 -0.8402 -0.5020
 3529ntf    sn219984   6.569   1.121   4.883  0.1462 -0.0466 -0.2070
 3529ntf    cn119985   6.641   1.262   4.973  0.2778  0.0183 -0.4152
 3529ntf    fn419986   6.327   1.257   5.200  0.2940 -0.5838 -0.1238
 3529ntf    fn419987   6.188   1.230   5.045  0.4668  0.4960  0.2608
 3529ntf    fn419988   6.171   1.115   5.229 -0.4712  0.2426 -0.0401
 3529ntf    on519989   6.447   1.007   5.170 -0.1977 -0.5876  0.0579
 3529ntf    on519990   6.265   0.944   5.012 -0.9177  0.5331  0.1983
 3529ntf    on519991   6.574   1.160   4.744 -0.2430  0.0829 -0.1888
 3529ntf    on519992   6.646   1.012   4.936 -0.2660 -0.3345 -0.2017
 3529ntf    fn419993   6.772   1.272   4.952  0.2599  0.2782 -0.4040
 3529ntf    fn419994   6.595   1.383   4.946 -0.7272 -0.2101  0.2441
 3529ntf    fn419995   6.619   1.248   5.103  0.5104  0.1105 -0.3651
 3530ntf    cn119996   3.773   3.227   4.164 -0.5617 -0.0369 -0.0536
 3530ntf    sn219997   3.712   3.110   4.289  0.0255 -0.1345  0.1453
 3530ntf    nn319998   3.579   3.183   4.328  0.2192  0.1160  0.3354
 3530ntf    sn219999   3.455   3.135   4.411  0.1947 -0.3138  0.0514
 3530ntf    cn120000   3.346   3.119   4.266 -0.0050  0.0615  0.1580
 3530ntf    fn420001   3.905   3.228   4.160 -0.5601 -0.1757 -0.0462
 3530ntf    fn420002   3.733   3.193   4.042 -0.2355 -0.2032 -0.1145
 3530ntf    fn420003   3.739   3.354   4.182  0.1813  0.1950 -0.2808
 3530ntf    on520004   3.693   2.988   4.213  1.0986 -0.0922 -0.2098
 3530ntf    on520005   3.812   3.103   4.392 -0.3449 -0.0683  0.5105
 3530ntf    on520006   3.400   3.240   4.493  0.3241 -0.3255  0.1532
 3530ntf    on520007   3.468   3.002   4.465  0.0878 -0.5779 -0.5547
 3530ntf    fn420008   3.331   3.237   4.209  0.3932 -0.0679 -0.2166
 3530ntf    fn420009   3.385   3.033   4.173  0.2535  0.2012  0.1384
 3530ntf    fn420010   3.225   3.077   4.302  0.0010  0.0281  0.1403
 3531ntf    cn120011   3.167   6.983   2.376 -0.0805 -0.5954  0.2979
 3531ntf    sn220012   3.345   6.956   2.356  0.0024  0.1719  0.0021
 3531ntf    nn320013   3.395   6.932   2.503  0.0480  0.3723  0.0206
 3531ntf    sn220014   3.462   7.033   2.602  0.3572  0.3601 -0.1748
 3531ntf    cn120015   3.618   6.942   2.625 -0.0525 -0.2819  0.1068
 3531ntf    fn420016   3.116   7.014   2.258  0.8889  0.0140  0.0309
 3531ntf    fn420017   3.100   6.877   2.419 -0.2639 -0.3161  0.6994
 3531ntf    fn420018   3.143   7.086   2.456  0.2007 -0.5996  0.3885
 3531ntf    on520019   3.352   6.829   2.288 -0.4950 -0.3625  0.9303
 3531ntf    on520020   3.390   7.068   2.276 -0.0359  0.1653 -0.0291
 3531ntf    on520021   3.410   7.039   2.737 -0.0566 -0.1114 -0.3127
 3531ntf    on520022   3.499   7.158   2.541  0.4337 -0.0679 -1.0150
 3531ntf    fn420023   3.586   6.816   2.651  0.1807 -0.2863  0.3778
 3531ntf    fn420024   3.702   6.947   2.523 -0.2772  0.4845 -0.0524
 3531ntf    fn420025   3.684   6.997   2.726  1.0326 -0.3145 -0.5745
 3532ntf    cn120026   3.013   6.817   5.739 -0.4022 -0.1357  0.2529
 3532ntf    sn220027   3.065   6.839   5.912 -0.1577  0.3432  0.1209
 3532ntf    nn320028   3.042   6.694   5.968 -0.4885  0.4985  0.3881
 3532ntf    sn220029   2.947   6.650   6.085 -0.2873 -0.2162  0.2841
 3532ntf    cn120030   2.962   6.468   6.083 -0.0343 -0.1911 -0.2778
 3532ntf    fn420031   2.884   6.791   5.728 -0.4175 -0.0847  0.3107
 3532ntf    fn420032   3.045   6.920   5.663 -0.5112 -0.2905 -0.0015
 3532ntf    fn420033   3.076   6.713   5.687 -0.2721 -0.0842  0.3063
 3532ntf    on520034   3.206   6.866   5.898 -0.0366  0.1354  0.9016
 3532ntf    on520035   2.976   6.946   5.950 -0.1477  0.4662 -0.1988
 3532ntf    on520036   2.806   6.673   6.067 -0.1987  0.1863  0.1011
 3532ntf    on520037   3.003   6.677   6.215 -0.0864  0.2426  0.1013
 3532ntf    fn420038   3.085   6.426   6.059 -0.0226  0.0152 -0.5784
 3532ntf    fn420039   2.922   6.417   6.198  0.6969  0.1654  0.1443
 3532ntf    fn420040   2.891   6.417   5.984  0.1597 -0.2060 -0.4102
 3533ntf    cn120041   1.418   4.670   3.533 -0.2728 -0.2843 -0.2930
 3533ntf    sn220042   1.252   4.599   3.551 -0.3645  0.0321  0.1252
 3533ntf    nn320043   1.190   4.713   3.640 -0.0238 -0.0372  0.4555
 3533ntf    sn220044   1.107   4.838   3.593  0.1743 -0.0573  0.0425
 3533ntf    cn120045   0.952   4.744   3.581 -0.2804  0.6886  0.0135
 3533ntf    fn420046   1.425   4.780   3.459 -0.0191 -0.1002  0.0004
 3533ntf    fn420047   1.476   4.704   3.647 -0.0645 -0.0147 -0.4776
 3533ntf    fn420048   1.508   4.585   3.488  0.1776 -0.1678  0.3682
 3533ntf    on520049   1.199   4.585   3.418  0.3065 -0.5978 -0.0814
 3533ntf    on520050   1.281   4.476   3.620 -0.2890  0.2549  0.4983
 3533ntf    on520051   1.128   4.884   3.458  0.0061 -0.1564 -0.0174
 3533ntf    on520052   1.085   4.936   3.697 -0.4970  0.4158 -0.5328
 3533ntf    fn420053   0.943   4.653   3.676  0.0348  0.3465 -0.2842
 3533ntf    fn420054   0.849   4.822   3.610 -0.3626  0.5723  0.0340
 3533ntf    fn420055   0.935   4.683   3.465  0.3820  0.4685  0.0295
 3534ntf    cn120056   3.465   4.486   0.519 -0.3597  0.0204 -0.1750
 3534ntf    sn220057   3.426   4.359   0.643  0.2718 -0.0229 -0.0188
 3534ntf    nn320058   3.285   4.407   0.693  0.5939  0.6549  0.2557
 3534ntf    sn220059   3.211   4.375   0.827 -0.0207  0.0121 -0.2292
 3534ntf    cn120060   3.218   4.535   0.913  0.4065 -0.0987 -0.0547
 3534ntf    fn420061   3.453   4.611   0.564  0.0530  0.0162 -0.0493
 3534ntf    fn420062   3.585   4.477   0.464 -0.0749 -0.3643  0.4911
 3534ntf    fn420063   3.380   4.469   0.420 -0.5080 -0.4659  0.0334
 3534ntf    on520064   3.424   4.242   0.559 -0.3844  0.0250 -0.0742
 3534ntf    on520065   3.530   4.363   0.743 -0.0613  0.8555  0.3018
 3534ntf    on520066   3.285   4.296   0.922 -0.1618  0.6346  0.4018
 3534ntf    on520067   3.069   4.356   0.808 -0.0286 -0.9598  0.6711
 3534ntf    fn420068   3.340   4.585   0.916  0.3907 -0.0636  0.0098
 3534ntf    fn420069   3.147   4.629   0.853  0.1960 -0.2216 -0.0029
 3534ntf    fn420070   3.173   4.538   1.038 -0.0887  0.3878 -0.2419
 3535ntf    cn120071   1.891   6.378   2.648 -0.1780  0.1114  0.3470
 3535ntf    sn220072   1.826   6.225   2.721 -0.3625  0.0648  0.0845
 3535ntf    nn320073   1.951   6.136   2.751  0.0143  0.3045 -0.7536
 3535ntf    sn220074   1.985   5.997   2.685 -0.0226 -0.1040  0.0748
 3535ntf    cn120075   1.938   5.888   2.823 -0.0664  0.1022  0.2237
 3535ntf    fn420076   1.977   6.355   2.551 -0.0535 -0.3408  0.5634
 3535ntf    fn420077   1.801   6.457   2.592 -0.6373 -0.8841 -0.3440
 3535ntf    fn420078   1.951   6.450   2.742 -0.2702  0.1674  0.3626
 3535ntf    on520079   1.769   6.281   2.842  0.0239  0.7438 -0.0434
 3535ntf    on520080   1.730   6.174   2.626  0.2658 -1.0906  0.0524
 3535ntf    on520081   2.127   5.976   2.677 -0.0408  0.0264 -0.6364
 3535ntf    on520082   1.904   5.951   2.575  0.6490 -0.4382 -0.2861
 3535ntf    fn420083   1.813   5.903   2.861 -0.1263  0.0261  0.0603
 3535ntf    fn420084   1.958   5.761   2.792  0.2165  0.1845  0.0628
 3535ntf    fn420085   2.004   5.908   2.936 -0.1434 -0.2268  0.3293
 3536ntf    cn120086   2.375   5.272   0.671  0.1318 -0.3473  0.0235
 3536ntf    sn220087   2.444   5.401   0.779 -0.2452 -0.1000 -0.0294
 3536ntf    nn320088   2.345   5.522   0.763  0.3483  0.3659 -0.2201
 3536ntf    sn220089   2.218   5.561   0.847  0.2938 -0.1381 -0.0673
 3536ntf    cn120090   2.295   5.652   0.984  0.0005 -0.1972  0.1379
 3536ntf    fn420091   2.356   5.308   0.545 -0.3304 -0.3441  0.0902
 3536ntf    fn420092   2.453   5.166   0.677  0.4099 -0.1328  0.2051
 3536ntf    fn420093   2.262   5.227   0.725 -0.1100  0.1582 -0.0524
 3536ntf    on520094   2.453   5.335   0.907  0.3193  0.1393  0.0552
 3536ntf    on520095   2.565   5.429   0.707 -0.1812  0.2331  0.2037
 3536ntf    on520096   2.142   5.451   0.902  0.7706 -0.3146  0.2497
 3536ntf    on520097   2.139   5.664   0.786 -0.3048 -0.2062  0.5749
 3536ntf    fn420098   2.321   5.775   0.942  0.0953 -0.2410  0.0684
 3536ntf    fn420099   2.219   5.672   1.091  0.1160 -0.5582  0.2887
 3536ntf    fn420100   2.400   5.586   1.030 -0.0035  0.0221  0.4614
 3537ntf    cn120101   1.166   2.650   0.362  0.2659  0.1376  0.0631
 3537ntf    sn220102   1.135   2.791   0.252  0.3324  0.2498  0.1874
 3537ntf    nn320103   0.980   2.810   0.259  0.3194  0.2225 -0.0141
 3537ntf    sn220104   0.879   2.780   0.142  0.3514  0.2100 -0.0382
 3537ntf    cn120105   0.716   2.806   0.218  0.1623  0.4482 -0.5190
 3537ntf    fn420106   1.146   2.680   0.489  0.3809  0.1705  0.0735
 3537ntf    fn420107   1.085   2.553   0.324  0.4293 -0.3471  0.9160
 3537ntf    fn420108   1.291   2.612   0.339  0.3635  0.2880  0.3382
 3537ntf    on520109   1.197   2.905   0.316  0.8867  0.3214 -0.4581
 3537ntf    on520110   1.187   2.746   0.124  0.2379 -0.2565  0.3238
 3537ntf    on520111   0.885   2.640   0.106  0.0761  0.1812  0.0293
 3537ntf    on520112   0.882   2.879   0.038 -0.1708 -0.0856 -0.3373
 3537ntf    fn420113   0.614   2.775   0.141  0.1071  0.4697 -0.4545
 3537ntf    fn420114   0.702   2.738   0.331  0.0779  1.0145 -0.1852
 3537ntf    fn420115   0.705   2.930   0.261  0.3157 -0.0864  1.1526
 3538ntf    cn120116   4.576   5.111   3.595 -0.1278 -0.4516 -0.2798
 3538ntf    sn220117   4.625   5.147   3.424  0.2828 -0.0196 -0.0739
 3538ntf    nn320118   4.522   5.264   3.404  0.3391 -0.0769 -0.7225
 3538ntf    sn220119   4.542   5.412   3.353 -0.0615  0.1648 -0.1836
 3538ntf    cn120120   4.560   5.513   3.504  0.5910 -0.1632 -0.0365
 3538ntf    fn420121   4.564   5.219   3.671 -0.2497 -0.1663 -0.7032
 3538ntf    fn420122   4.456   5.054   3.599 -0.3894  0.1088 -0.0916
 3538ntf    fn420123   4.661   5.028   3.654  0.0143 -0.0911  0.0211
 3538ntf    on520124   4.763   5.185   3.434  0.1243  0.7849 -0.7493
 3538ntf    on520125   4.586   5.027   3.353 -0.0927 -0.5778  1.0547
 3538ntf    on520126   4.423   5.466   3.294  0.1391  0.7398 -0.0656
 3538ntf    on520127   4.664   5.430   3.279 -0.0746  0.3771 -0.1539
 3538ntf    fn420128   4.686   5.505   3.542  0.4724 -0.2017  0.3510
 3538ntf    fn420129   4.534   5.638   3.472 -0.1784 -0.3820 -0.3066
 3538ntf    fn420130   4.473   5.483   3.600  0.8063  0.4098  0.3365
 3539ntf    cn120131   2.689   5.495   0.297  0.2388 -0.3333 -0.1060
 3539ntf    sn220132   2.704   5.652   0.387  0.3241 -0.2301 -0.3002
 3539ntf    nn320133   2.724   5.751   0.267  0.5493 -0.1905 -0.2314
 3539ntf    sn220134   2.640   5.880   0.236  0.2881 -0.3009  0.0160
 3539ntf    cn120135   2.643   5.877   0.054 -0.1323 -0.5347  0.0101
 3539ntf    fn420136   2.765   5.496   0.189  0.2675  0.3511 -0.0873
 3539ntf    fn420137   2.718   5.385   0.364 -0.0039 -0.6584 -0.5318
 3539ntf    fn420138   2.563   5.487   0.257  0.3048  0.3106 -0.4594
 3539ntf    on520139   2.582   5.674   0.460  0.6652 -0.0811  0.2324
 3539ntf    on520140   2.821   5.634   0.469 -0.0318 -0.1079  0.2378
 3539ntf    on520141   2.708   6.002   0.268 -0.8314  0.2664  0.2829
 3539ntf    on520142   2.497   5.873   0.254  0.2734 -0.1282 -0.0394
 3539ntf    fn420143   2.767   5.868   0.008 -0.1120  0.1217 -0.0723
 3539ntf    fn420144   2.574   5.772   0.013  0.4821 -0.8562 -0.2165
 3539ntf    fn420145   2.589   5.982  -0.006  0.8936  0.2775  0.4719
 3540ntf    cn120146   2.389   1.210   1.158 -0.0056  0.4995 -0.0276
 3540ntf    sn220147   2.456   1.100   1.030  0.0574  0.2336  0.2318
 3540ntf    nn320148   2.530   0.988   1.111  0.2211  0.2220  0.0669
 3540ntf    sn220149   2.485   0.844   1.154  0.2855  0.1650 -0.0593
 3540ntf    cn120150   2.558   0.849   1.320  0.0472  0.1479  0.0450
 3540ntf    fn420151   2.339   1.317   1.098 -0.0210  0.5587  0.0885
 3540ntf    fn420152   2.293   1.148   1.225  0.1817  0.2630  0.0244
 3540ntf    fn420153   2.485   1.247   1.242 -0.0350  0.4413  0.0315
 3540ntf    on520154   2.338   1.049   0.964  0.0575  0.3785  0.1167
 3540ntf    on520155   2.549   1.182   0.956 -0.0866  0.1128 -0.0840
 3540ntf    on520156   2.552   0.731   1.093  0.1964  0.1322 -0.0968
 3540ntf    on520157   2.346   0.819   1.181  0.3792 -0.0029  0.2745
 3540ntf    fn420158   2.484   0.803   1.420 -0.0005 -0.3190 -0.2038
 3540ntf    fn420159   2.679   0.799   1.313  0.1219  0.3032  0.2071
 3540ntf    fn420160   2.580   0.974   1.360  0.4951  0.1663 -0.2592
 3541ntf    cn120161   6.124   0.479   4.710  0.1192  0.1498 -0.0481
 3541ntf    sn220162   5.994   0.551   4.816  0.0986  0.2574 -0.1471
 3541ntf    nn320163   6.074   0.592   4.944  0.1883 -0.0697 -0.0975
 3541ntf    sn220164   6.052   0.544   5.092  0.2039  0.2037 -0.0063
 3541ntf    cn120165   6.051   0.699   5.188  0.5111  0.0811  0.1984
 3541ntf    fn420166   6.206   0.572   4.666  0.0623  0.3530  0.2650
 3541ntf    fn420167   6.193   0.401   4.792  0.2898  0.1835 -0.1615
 3541ntf    fn420168   6.079   0.418   4.602 -0.0248  0.0202  0.0825
 3541ntf    on520169   5.931   0.666   4.757  0.1405  0.2278 -0.2503
 3541ntf    on520170   5.910   0.435   4.833  0.0964  0.2427 -0.2514
 3541ntf    on520171   6.172   0.476   5.135  0.3352  0.3349 -0.1638
 3541ntf    on520172   5.925   0.486   5.127  0.0230  0.3823 -0.3632
 3541ntf    fn420173   5.988   0.685   5.303  0.1090  0.0802 -0.0190
 3541ntf    fn420174   6.170   0.745   5.221  0.4395  0.3977  0.0218
 3541ntf    fn420175   5.994   0.796   5.118  0.5357 -0.2589 -0.3036
 3542ntf    cn120176   5.114   2.190   0.947  0.2830  0.1936 -0.2880
 3542ntf    sn220177   5.150   2.012   0.956 -0.1088  0.1297  0.0559
 3542ntf    nn320178   5.053   1.950   0.850 -0.1703  0.3736 -0.0323
 3542ntf    sn220179   5.081   1.915   0.699 -0.2265 -0.0837  0.0618
 3542ntf    cn120180   5.145   1.748   0.733  0.1428  0.0796  0.1835
 3542ntf    fn420181   5.207   2.261   1.009 -0.0140  0.5306 -0.2200
 3542ntf    fn420182   5.088   2.233   0.824  0.1206  0.4595 -0.1627
 3542ntf    fn420183   5.000   2.219   1.007  0.2656  0.3633 -0.4034
 3542ntf    on520184   5.291   2.003   0.923 -0.0331  0.8689  0.1604
 3542ntf    on520185   5.113   1.985   1.092  0.0942 -0.0027  0.0858
 3542ntf    on520186   5.191   1.982   0.633  0.0640  0.2237  0.8470
 3542ntf    on520187   4.959   1.888   0.627  0.0463 -1.5333  0.1191
 3542ntf    fn420188   5.062   1.673   0.804  0.0313  0.0807  0.0558
 3542ntf    fn420189   5.162   1.683   0.619 -0.5383 -0.0050  0.1242
 3542ntf    fn420190   5.262   1.754   0.794  0.2584  0.0868 -0.0393
 3543ntf    cn120191   1.234   2.344   1.097 -0.3060  0.2771  0.0860
 3543ntf    sn220192   1.217   2.164   1.119 -0.0448  0.2658  0.1917
 3543ntf    nn320193   1.279   2.134   1.260  0.5026  0.3700 -0.0237
 3543ntf    sn220194   1.424   2.087   1.298  0.2074  0.0616  0.7296
 3543ntf    cn120195   1.431   2.187   1.450  0.0211  0.4401  0.4893
 3543ntf    fn420196   1.189   2.384   0.979  0.1000  0.2287 -0.0855
 3543ntf    fn420197   1.174   2.420   1.187 -0.2400 -0.3200  0.6396
 3543ntf    fn420198   1.360   2.384   1.092 -0.0591 -0.5255 -0.4047
 3543ntf    on520199   1.075   2.139   1.126  0.0029  0.0467  0.3639
 3543ntf    on520200   1.276   2.096   1.007 -0.2390 -0.0660  0.2916
 3543ntf    on520201   1.531   2.136   1.216 -0.3838 -0.2991 -0.2853
 3543ntf    on520202   1.438   1.950   1.342  0.1842 -0.3426 -0.4842
 3543ntf    fn420203   1.345   2.133   1.534 -0.2865  0.0453 -0.0740
 3543ntf    fn420204   1.551   2.178   1.506  0.2270  0.0772  0.0061
 3543ntf    fn420205   1.400   2.315   1.434  0.1728  0.4613  0.3499
 3544ntf    cn120206   4.703   4.372   0.077  0.2577  0.4089  0.0603
 3544ntf    sn220207   4.572   4.366  -0.049  0.0816 -0.1502  0.2666
 3544ntf    nn320208   4.522   4.515  -0.049  0.5266  0.0030 -0.1244
 3544ntf    sn220209   4.540   4.636  -0.147  0.0767  0.0721 -0.1225
 3544ntf    cn120210   4.380   4.713  -0.108  0.0327 -0.1066  0.0485
 3544ntf    fn420211   4.676   4.448   0.181  0.0378 -0.2211  0.4692
 3544ntf    fn420212   4.719   4.250   0.126  0.8047  0.3943 -0.1403
 3544ntf    fn420213   4.815   4.411   0.017  0.4940 -0.6029 -0.1787
 3544ntf    on520214   4.648   4.320  -0.163  0.3081  0.3806  0.2026
 3544ntf    on520215   4.475   4.283   0.017  0.2507 -0.3083  0.3193
 3544ntf    on520216   4.536   4.605  -0.287 -0.3550 -0.2469 -0.0392
 3544ntf    on520217   4.636   4.729  -0.091 -0.3150  0.1890  0.3653
 3544ntf    fn420218   4.283   4.645  -0.169 -0.0834  0.0477  0.0616
 3544ntf    fn420219   4.355   4.709   0.022 -0.3364  0.0085 -0.0166
 3544ntf    fn420220   4.373   4.837  -0.152 -0.1904 -0.2637 -0.3725
 3545ntf    cn120221   2.408   1.683   0.226  0.1543  0.1246 -0.0096
 3545ntf    sn220222   2.267   1.784   0.281 -0.1824 -0.2330 -0.2159
 3545ntf    nn320223   2.329   1.804   0.423 -0.5333  0.2176 -0.1230
 3545ntf    sn220224   2.264   1.802   0.566 -0.4103 -0.0352 -0.0694
 3545ntf    cn120225   2.263   1.973   0.626  0.0577 -0.1229  0.1943
 3545ntf    fn420226   2.393   1.657   0.097  0.2958 -0.1827  0.0363
 3545ntf    fn420227   2.524   1.746   0.242  0.1902  0.1379 -0.3035
 3545ntf    fn420228   2.419   1.567   0.288  0.7009  0.0093 -0.3112
 3545ntf    on520229   2.279   1.904   0.201  0.0993 -0.1471 -0.0449
 3545ntf    on520230   2.152   1.702   0.255 -0.1300 -0.5178  0.4390
 3545ntf    on520231   2.353   1.736   0.659  0.0637 -0.1850 -0.6245
 3545ntf    on520232   2.125   1.763   0.567 -0.2536 -0.6046  0.0473
 3545ntf    fn420233   2.204   2.052   0.538  0.2600 -0.0761  0.1015
 3545ntf    fn420234   2.195   1.993   0.738  0.1547 -0.1543  0.2590
 3545ntf    fn420235   2.384   2.023   0.642 -0.1532  0.2522  0.6526
 3546ntf    cn120236   0.361   4.159   3.151 -0.5032 -0.2374 -0.3113
 3546ntf    sn220237   0.495   4.282   3.157 -0.4112 -0.3666  0.2844
 3546ntf    nn320238   0.619   4.187   3.157 -0.2495 -0.1637  1.2529
 3546ntf    sn220239   0.759   4.206   3.227  0.3702 -0.1078  0.0249
 3546ntf    cn120240   0.727   4.131   3.389  0.0327  0.0393  0.0286
 3546ntf    fn420241   0.247   4.221   3.179 -0.4755 -0.1318 -0.4279
 3546ntf    fn420242   0.354   4.103   3.031  0.1772 -0.1929 -0.3754
 3546ntf    fn420243   0.373   4.059   3.237 -0.1668  0.0855  0.0190
 3546ntf    on520244   0.475   4.342   3.027  0.3536  0.1211  0.3899
 3546ntf    on520245   0.477   4.355   3.280 -0.4626  0.0091  0.0565
 3546ntf    on520246   0.788   4.347   3.242 -0.3273  0.1338 -0.7742
 3546ntf    on520247   0.858   4.124   3.162 -0.2465 -0.2462 -0.7610
 3546ntf    fn420248   0.831   4.137   3.471 -0.1521  0.1910  0.2534
 3546ntf    fn420249   0.618   4.173   3.452 -0.1379  0.1445 -0.3361
 3546ntf    fn420250   0.704   4.002   3.373 -0.0096  0.0840 -0.2644
 3547ntf    cn120251   0.601   5.974   4.407  0.0268  0.3883  0.3435
 3547ntf    sn220252   0.592   6.147   4.460 -0.0666  0.5224 -0.1052
 3547ntf    nn320253   0.700   6.206   4.363  0.0527  0.5790  0.0631
 3547ntf    sn220254   0.681   6.280   4.226 -0.3031 -0.0860 -0.2458
 3547ntf    cn120255   0.753   6.438   4.278 -0.2461 -0.2479  0.1722
 3547ntf    fn420256   0.584   5.969   4.276  0.2007 -0.3332  0.3423
 3547ntf    fn420257   0.713   5.907   4.431 -0.0172  0.0951 -0.2360
 3547ntf    fn420258   0.502   5.901   4.456 -0.0264  0.2081 -0.0282
 3547ntf    on520259   0.452   6.178   4.445 -0.2765 -0.0301  0.6330
 3547ntf    on520260   0.650   6.137   4.592 -0.5080 -0.1790  0.0434
 3547ntf    on520261   0.548   6.321   4.188 -0.1029  0.5073 -0.3130
 3547ntf    on520262   0.776   6.248   4.122 -0.3682 -0.0821 -0.3073
 3547ntf    fn420263   0.799   6.504   4.173  0.2990  0.1983  0.6829
 3547ntf    fn420264   0.667   6.515   4.343  0.2407  0.3580  0.1130
 3547ntf    fn420265   0.855   6.424   4.361  0.1291 -0.0449 -0.2498
 3548ntf    cn120266   3.264   5.249   5.863  0.0801  0.0516 -0.1271
 3548ntf    sn220267   3.154   5.388   5.826 -0.1119 -0.0929 -0.0985
 3548ntf    nn320268   3.016   5.350   5.891 -0.0230 -0.1271  0.0703
 3548ntf    sn220269   2.962   5.374   6.037  0.2728 -0.0074  0.1606
 3548ntf    cn120270   2.904   5.204   6.065 -0.1140  0.0574 -0.2389
 3548ntf    fn420271   3.391   5.269   5.830  0.3315 -0.5122  0.4586
 3548ntf    fn420272   3.262   5.218   5.992 -0.1227  0.6007  0.0051
 3548ntf    fn420273   3.218   5.145   5.795  0.0990  0.0964 -0.2084
 3548ntf    on520274   3.225   5.501   5.881 -0.8838  0.5105 -0.3277
 3548ntf    on520275   3.146   5.379   5.683 -0.0743  0.1172 -0.1154
 3548ntf    on520276   2.844   5.457   6.036  0.4242  0.2142  0.4060
 3548ntf    on520277   3.066   5.395   6.135  0.3748 -0.2243  0.0991
 3548ntf    fn420278   2.861   5.189   6.189  0.4929 -0.5563 -0.0895
 3548ntf    fn420279   2.809   5.173   5.979 -0.4516 -0.0843  0.1835
 3548ntf    fn420280   3.006   5.120   6.050 -0.4029 -0.3050 -0.1641
 3549ntf    cn120281   5.934   2.430   5.734 -0.1086 -0.2651  0.2763
 3549ntf    sn220282   5.886   2.522   5.585  0.2645 -0.3705  0.0901
 3549ntf    nn320283   5.863   2.408   5.480 -0.1850 -0.1955 -0.0052
 3549ntf    sn220284   5.727   2.366   5.414 -0.3898  0.0288  0.2709
 3549ntf    cn120285   5.705   2.488   5.281  0.0363 -0.1547  0.0260
 3549ntf    fn420286   5.932   2.506   5.843  0.1623  0.6539 -0.3438
 3549ntf    fn420287   5.853   2.328   5.759 -0.3304 -0.2595 -0.4091
 3549ntf    fn420288   6.057   2.383   5.722  0.2173  0.4367  0.7320
 3549ntf    on520289   5.776   2.608   5.622  0.6351  0.1620 -0.0431
 3549ntf    on520290   6.007   2.596   5.558 -0.1848  0.4493  0.2893
 3549ntf    on520291   5.611   2.385   5.497 -0.3492 -0.0227  0.3401
 3549ntf    on520292   5.744   2.238   5.348  0.0305  0.2549 -0.0667
 3549ntf    fn420293   5.818   2.513   5.217  0.1784 -0.3416  0.2041
 3549ntf    fn420294   5.604   2.457   5.201 -0.0693  0.4005 -0.0603
 3549ntf    fn420295   5.676   2.610   5.326  0.3181 -0.0870  0.0273
 3550ntf    cn120296   1.124   4.444   0.394 -0.0546  0.1447  0.2763
 3550ntf    sn220297   1.169   4.620   0.381  0.1030  0.0735 -0.1662
 3550ntf    nn320298   1.050   4.667   0.473 -0.1110  0.0643 -0.4368
 3550ntf    sn220299   0.909   4.731   0.452 -0.1468 -0.0127 -0.4331
 3550ntf    cn120300   0.966   4.901   0.485  0.0535 -0.1341 -0.1524
 3550ntf    fn420301   1.008   4.404   0.344  0.4555 -0.6055 -0.3180
 3550ntf    fn420302   1.215   4.372   0.331 -0.2928  0.2172 -0.1528
 3550ntf    fn420303   1.123   4.402   0.519  0.2211  0.2894  0.3294
 3550ntf    on520304   1.301   4.632   0.437  0.0159  0.0296  0.0537
 3550ntf    on520305   1.158   4.657   0.242 -0.1841 -0.0535 -0.1791
 3550ntf    on520306   0.823   4.699   0.564  0.6719 -0.0319  0.1936
 3550ntf    on520307   0.848   4.741   0.321 -0.3303  0.4442 -0.3187
 3550ntf    fn420308   0.871   4.991   0.466 -0.4399 -0.5939  0.0979
 3550ntf    fn420309   0.997   4.915   0.613  0.0790  0.0024 -0.1740
 3550ntf    fn420310   1.072   4.930   0.412 -0.0362  0.5027 -0.0302
 3551ntf    cn120311   1.218   2.225   1.907  0.0038  0.2060  0.1584
 3551ntf    sn220312   1.227   2.399   1.853  0.1301  0.1082 -0.1376
 3551ntf    nn320313   1.366   2.437   1.914  0.1760 -0.6043  0.2113
 3551ntf    sn220314   1.405   2.516   2.044 -0.1305 -0.0342 -0.0388
 3551ntf    cn120315   1.563   2.585   1.986 -0.1753  0.2217  0.1411
 3551ntf    fn420316   1.310   2.145   1.856 -0.1313  0.0807  0.1112
 3551ntf    fn420317   1.229   2.215   2.039  0.3363  0.0146  0.1161
 3551ntf    fn420318   1.105   2.167   1.870 -0.1644  0.3248  0.4739
 3551ntf    on520319   1.227   2.390   1.709  0.2427  0.4676 -0.1598
 3551ntf    on520320   1.114   2.461   1.919 -0.2024 -0.0546 -0.5498
 3551ntf    on520321   1.438   2.423   2.149 -0.5255  0.3379  0.4166
 3551ntf    on520322   1.327   2.634   2.069  0.0906  0.1268 -0.1114
 3551ntf    fn420323   1.627   2.654   2.079 -0.5499 -0.1449  0.6793
 3551ntf    fn420324   1.656   2.498   1.949  0.1337  0.6017  0.0174
 3551ntf    fn420325   1.547   2.660   1.878 -0.0406  0.2913  0.1689
 3552ntf    cn120326   1.241   3.900   6.881 -0.0379 -0.3296  0.0036
 3552ntf    sn220327   1.168   3.737   6.913 -0.0377 -0.3299  0.0007
 3552ntf    nn320328   1.292   3.661   6.974  0.4742  0.4308 -0.0784
 3552ntf    sn220329   1.310   3.508   7.004  0.2560  0.3903 -0.1488
 3552ntf    cn120330   1.409   3.462   6.858 -0.1109  0.0197 -0.2797
 3552ntf    fn420331   1.155   3.993   6.843  0.1135 -0.2507 -0.1507
 3552ntf    fn420332   1.311   3.938   6.986 -0.1480 -0.2132  0.0355
 3552ntf    fn420333   1.333   3.900   6.785  0.3215  0.1949  0.3392
 3552ntf    on520334   1.062   3.770   7.004  0.4740  0.5830  0.2837
 3552ntf    on520335   1.130   3.692   6.781 -0.5486 -0.3629  0.1588
 3552ntf    on520336   1.198   3.419   7.000  0.7349 -0.2207 -0.1006
 3552ntf    on520337   1.412   3.487   7.104 -0.0592 -0.6474 -0.0334
 3552ntf    fn420338   1.458   3.339   6.851  0.3032  0.1465  0.2622
 3552ntf    fn420339   1.326   3.469   6.756 -0.3620 -0.5270 -0.1209
 3552ntf    fn420340   1.506   3.547   6.831  0.1226 -0.1404  0.0534
 3553ntf    cn120341   5.557   1.842   2.334  0.0205 -0.2396 -0.0732
 3553ntf    sn220342   5.454   1.937   2.218  0.2461 -0.0065 -0.0846
 3553ntf    nn320343   5.358   2.009   2.319  0.2803  0.2399 -0.2292
 3553ntf    sn220344   5.212   1.972   2.362  0.3200  0.0439 -0.2628
 3553ntf    cn120345   5.122   2.031   2.215 -0.0200  0.0744 -0.0443
 3553ntf    fn420346   5.638   1.753   2.280  0.0563 -0.1824 -0.1136
 3553ntf    fn420347   5.639   1.916   2.408 -0.3168 -0.1330  0.1934
 3553ntf    fn420348   5.480   1.769   2.413 -0.2515  0.1795  0.0516
 3553ntf    on520349   5.554   2.022   2.159  0.2616  0.0436  0.0134
 3553ntf    on520350   5.404   1.834   2.130 -0.2552  0.0189  0.1660
 3553ntf    on520351   5.158   2.059   2.463  0.6582  0.1730 -0.1947
 3553ntf    on520352   5.180   1.831   2.368 -0.2998  0.1394 -1.1253
 3553ntf    fn420353   5.160   1.972   2.103 -0.0009 -0.0746  0.0404
 3553ntf    fn420354   4.993   2.007   2.225  0.0048  0.0114  0.1388
 3553ntf    fn420355   5.144   2.159   2.190 -0.0897  0.0619 -0.1722
 3554ntf    cn120356   1.234   1.813   2.116 -0.1026  0.1696  0.2864
 3554ntf    sn220357   1.259   1.643   2.176  0.3746  0.1591  0.0614
 3554ntf    nn320358   1.298   1.676   2.324 -0.0094  0.1299  0.1708
 3554ntf    sn220359   1.234   1.614   2.453  0.0095  0.2399  0.2332
 3554ntf    cn120360   1.376   1.631   2.566  0.1441  0.0445  0.0944
 3554ntf    fn420361   1.324   1.894   2.171 -0.3782  0.4840  0.2796
 3554ntf    fn420362   1.244   1.823   1.985 -0.2794 -0.2314  0.2423
 3554ntf    fn420363   1.115   1.852   2.158 -0.3600 -0.4411  0.1213
 3554ntf    on520364   1.129   1.583   2.158  0.3050  0.2419  0.2828
 3554ntf    on520365   1.370   1.598   2.096  0.1109 -0.1331 -0.1388
 3554ntf    on520366   1.213   1.471   2.454  0.0662  0.2303 -0.0271
 3554ntf    on520367   1.134   1.693   2.521 -1.0509 -0.3524 -0.6181
 3554ntf    fn420368   1.476   1.549   2.538  0.4576  0.4370  0.0532
 3554ntf    fn420369   1.421   1.755   2.564  0.1732  0.0326  0.0154
 3554ntf    fn420370   1.336   1.609   2.690 -0.2777  0.2874  0.0043
 3555ntf    cn120371   0.360   2.532   6.983  0.4133  0.1721 -0.2517
 3555ntf    sn220372   0.344   2.663   6.858  0.0225  0.1610 -0.2148
 3555ntf    nn320373   0.314   2.779   6.960  0.3369 -0.1062  0.1855
 3555ntf    sn220374   0.178   2.839   7.010  0.2447 -0.0749 -0.1004
 3555ntf    cn120375   0.176   2.778   7.181  0.0451 -0.1270 -0.1200
 3555ntf    fn420376   0.424   2.423   6.944  0.0077  0.0235 -0.5083
 3555ntf    fn420377   0.421   2.578   7.090  0.0508 -0.5472  0.2729
 3555ntf    fn420378   0.238   2.494   7.015  0.4116  0.0736 -0.3753
 3555ntf    on520379   0.474   2.688   6.800  0.4333  0.0704  0.6399
 3555ntf    on520380   0.234   2.618   6.777 -0.1157 -0.2149  0.1771
 3555ntf    on520381   0.060   2.785   6.946  0.0320 -0.4689  0.6116
 3555ntf    on520382   0.177   2.983   7.013  0.0846 -0.0833  0.3060
 3555ntf    fn420383   0.281   2.832   7.242  0.1478 -0.3368 -0.1120
 3555ntf    fn420384   0.067   2.815   7.247  0.4852  0.3980  0.3298
 3555ntf    fn420385   0.177   2.646   7.183  0.1412 -0.1266 -0.1318
 3556ntf    cn120386   5.036   3.604   5.270 -0.2685 -0.0622  0.1314
 3556ntf    sn220387   5.064   3.513   5.114 -0.1914  0.1591  0.0156
 3556ntf    nn320388   5.193   3.586   5.065 -0.1722  0.1319  0.0252
 3556ntf    sn220389   5.246   3.630   4.923  0.1238 -0.0973  0.0647
 3556ntf    cn120390   5.406   3.544   4.921  0.3124  0.2520  0.2079
 3556ntf    fn420391   4.939   3.559   5.347 -0.0553 -0.2357  0.3010
 3556ntf    fn420392   5.146   3.597   5.344 -0.1778  0.6505  0.0664
 3556ntf    fn420393   5.001   3.726   5.235 -0.3703  0.0232  0.5294
 3556ntf    on520394   5.092   3.381   5.164 -0.2411  0.1738  0.0830
 3556ntf    on520395   4.943   3.536   5.039 -0.2019  0.3518  0.0895
 3556ntf    on520396   5.272   3.770   4.905  0.1435 -0.1215 -0.0912
 3556ntf    on520397   5.169   3.561   4.823  0.6838  0.3346 -0.6700
 3556ntf    fn420398   5.485   3.595   5.015 -0.0989  0.2030  0.5806
 3556ntf    fn420399   5.389   3.416   4.947 -0.2021  0.0854 -0.8911
 3556ntf    fn420400   5.465   3.538   4.803 -0.1847 -0.0702 -0.0266
 3557ntf    cn120401   4.151   2.772   3.225  0.4228  0.3774  0.1991
 3557ntf    sn220402   4.194   2.780   3.048  0.0314  0.3396  0.1013
 3557ntf    nn320403   4.102   2.671   2.983 -0.6145  0.3177  1.0305
 3557ntf    sn220404   3.967   2.692   2.907 -0.1018  0.2797  0.0940
 3557ntf    cn120405   4.037   2.698   2.739  0.0234 -0.1978  0.1287
 3557ntf    fn420406   4.022   2.763   3.254  0.3280  0.3199 -0.2285
 3557ntf    fn420407   4.202   2.660   3.274  0.6202  0.3506 -0.0617
 3557ntf    fn420408   4.200   2.874   3.293  0.5800  0.3976  0.0572
 3557ntf    on520409   4.169   2.918   3.012 -0.5046  0.0168 -0.7832
 3557ntf    on520410   4.331   2.739   3.034 -0.0913  0.0378 -0.2165
 3557ntf    on520411   3.897   2.819   2.912 -0.5397  0.0438  0.0450
 3557ntf    on520412   3.887   2.572   2.903 -0.2230  0.3634 -0.0327
 3557ntf    fn420413   3.931   2.702   2.660  0.1475 -0.0299 -0.0295
 3557ntf    fn420414   4.112   2.805   2.721  0.3342 -0.4079  0.1764
 3557ntf    fn420415   4.111   2.596   2.700  0.2002 -0.1633  0.3722
 3558ntf    cn120416   0.248   5.846   4.066  0.0696 -0.0303 -0.5163
 3558ntf    sn220417   0.112   5.777   3.968 -0.1231 -0.1081 -0.1961
 3558ntf    nn320418   0.120   5.852   3.830 -0.3649  0.2586 -0.0162
 3558ntf    sn220419   0.188   5.797   3.699 -0.2576  0.0897  0.1102
 3558ntf    cn120420   0.045   5.706   3.632 -0.1101  0.0235 -0.1143
 3558ntf    fn420421   0.291   5.773   4.168 -0.5935 -0.1674 -0.3290
 3558ntf    fn420422   0.354   5.875   3.993  0.3088 -0.2783 -0.2718
 3558ntf    fn420423   0.209   5.960   4.122 -0.4892 -0.3425 -0.2690
 3558ntf    on520424   0.144   5.637   3.958 -0.2397 -0.1336 -0.2208
 3558ntf    on520425   0.006   5.826   4.053  0.1126 -0.0894  0.0861
 3558ntf    on520426   0.294   5.703   3.727 -0.3580  0.0094  0.2267
 3558ntf    on520427   0.206   5.900   3.600  0.6549 -0.1254  0.0430
 3558ntf    fn420428   0.060   5.667   3.506  0.1150 -0.2863  0.0075
 3558ntf    fn420429   0.004   5.606   3.707  0.5011  0.2633  0.5526
 3558ntf    fn420430  -0.057   5.790   3.637  0.0076  0.1322  0.5038
 3559ntf    cn120431   0.063   3.747   6.307  0.1180 -0.0486  0.0002
 3559ntf    sn220432  -0.101   3.766   6.385  0.1101  0.0754 -0.0461
 3559ntf    nn320433  -0.053   3.785   6.533  0.0719  0.1918 -0.0479
 3559ntf    sn220434  -0.027   3.665   6.632 -0.1662  0.0659 -0.1364
 3559ntf    cn120435  -0.031   3.753   6.791  0.0421 -0.3632  0.1081
 3559ntf    fn420436   0.111   3.624   6.318 -0.3816 -0.3459 -1.0663
 3559ntf    fn420437   0.054   3.779   6.179 -0.8090 -0.5057 -0.0614
 3559ntf    fn420438   0.150   3.834   6.355 -0.3671  0.1121  0.5996
 3559ntf    on520439  -0.145   3.891   6.328 -0.0269  0.1031  0.1219
 3559ntf    on520440  -0.169   3.646   6.343 -0.0424  0.1844 -0.1126
 3559ntf    on520441   0.107   3.613   6.616 -0.1107  0.2542 -0.2938
 3559ntf    on520442  -0.128   3.563   6.644  0.2061 -0.3371 -0.3792
 3559ntf    fn420443   0.007   3.673   6.889  0.1793 -0.3994  0.0260
 3559ntf    fn420444   0.037   3.866   6.800 -0.1303 -0.2438 -0.0574
 3559ntf    fn420445  -0.153   3.793   6.823  0.1140 -0.1044  0.0597
 3560ntf    cn120446   4.622   5.014   5.549 -0.2952 -0.2224  0.2042
 3560ntf    sn220447   4.567   5.119   5.411 -0.1443 -0.1894  0.1690
 3560ntf    nn320448   4.489   5.021   5.316  0.2420 -0.0024 -0.3484
 3560ntf    sn220449   4.498   5.009   5.160 -0.0063  0.0574 -0.3683
 3560ntf    cn120450   4.341   5.086   5.111  0.1987  0.6039 -0.1762
 3560ntf    fn420451   4.672   5.081   5.652  0.2057  0.1254 -0.2565
 3560ntf    fn420452   4.521   4.942   5.595 -0.1366 -0.2298  0.5492
 3560ntf    fn420453   4.709   4.923   5.509  0.3215  0.4791 -0.0731
 3560ntf    on520454   4.478   5.209   5.480 -0.2334 -0.2406  0.1226
 3560ntf    on520455   4.688   5.182   5.364  0.1040 -0.5104  0.3736
 3560ntf    on520456   4.493   4.874   5.111 -0.7138 -0.1326  0.2162
 3560ntf    on520457   4.595   5.096   5.097  0.0661  0.2650  0.0267
 3560ntf    fn420458   4.235   5.042   5.176  0.1646  0.3426 -0.4053
 3560ntf    fn420459   4.349   5.218   5.119  0.3765  0.6094 -0.4273
 3560ntf    fn420460   4.314   5.059   4.984 -0.0397  0.6468 -0.1359
 3561ntf    cn120461   4.518   2.626   3.548 -0.4965  0.4180 -0.0542
 3561ntf    sn220462   4.458   2.517   3.681 -0.1018  0.2192 -0.0363
 3561ntf    nn320463   4.589   2.447   3.729  0.2789  0.3878 -0.8066
 3561ntf    sn220464   4.704   2.506   3.819 -0.0512 -0.0340 -0.0976
 3561ntf    cn120465   4.631   2.470   3.981 -0.0637 -0.0414 -0.1048
 3561ntf    fn420466   4.415   2.686   3.492 -0.2746  0.6301 -0.2363
 3561ntf    fn420467   4.603   2.720   3.587  0.0775 -0.2106  0.2319
 3561ntf    fn420468   4.572   2.556   3.450 -0.6465  0.2958 -0.0494
 3561ntf    on520469   4.396   2.606   3.776  0.0341 -0.1341  0.3858
 3561ntf    on520470   4.377   2.420   3.610 -0.4638  0.3143  0.2494
 3561ntf    on520471   4.736   2.646   3.819 -0.9252  0.1758 -0.5009
 3561ntf    on520472   4.817   2.417   3.812  0.1398  0.2185 -0.2282
 3561ntf    fn420473   4.534   2.556   4.010 -0.0122 -0.0530  0.1103
 3561ntf    fn420474   4.587   2.348   4.004 -0.3255 -0.0090 -0.4292
 3561ntf    fn420475   4.717   2.495   4.079 -0.5810  0.3562  0.2595
 3562ntf    cn120476   6.197   2.219   3.157 -0.1515 -0.3228 -0.0782
 3562ntf    sn220477   6.325   2.168   3.039 -0.0222  0.2370 -0.1851
 3562ntf    nn320478   6.245   2.055   2.965  0.4443 -0.0012 -0.3358
 3562ntf    sn220479   6.301   1.961   2.853 -0.2123 -0.1827 -0.5156
 3562ntf    cn120480   6.244   2.044   2.701 -0.4094  0.1348 -0.2683
 3562ntf    fn420481   6.076   2.240   3.107 -0.1973 -0.1174  0.1207
 3562ntf    fn420482   6.180   2.133   3.255 -0.4379 -0.1723  0.0053
 3562ntf    fn420483   6.227   2.332   3.219 -0.4248 -0.4555  0.2967
 3562ntf    on520484   6.351   2.285   2.959  0.3531  0.0725 -0.3089
 3562ntf    on520485   6.429   2.122   3.129  0.2320  0.2665 -0.4611
 3562ntf    on520486   6.238   1.832   2.854  0.0287 -0.2967  0.0562
 3562ntf    on520487   6.444   1.962   2.839 -0.1037  0.1029  0.5276
 3562ntf    fn420488   6.284   2.171   2.698 -0.1646  0.0797  0.4148
 3562ntf    fn420489   6.292   1.986   2.592 -0.2468 -0.4798  0.1265
 3562ntf    fn420490   6.112   2.050   2.694 -0.4225  0.7653  0.3683
 3563ntf    cn120491   0.112   4.585   4.957  0.2865 -0.1404  0.0340
 3563ntf    sn220492  -0.059   4.539   4.914  0.2001  0.1500  0.0680
 3563ntf    nn320493  -0.054   4.383   4.928  0.3304  0.1386 -0.1036
 3563ntf    sn220494  -0.023   4.278   4.816  0.0455  0.1969 -0.2390
 3563ntf    cn120495  -0.195   4.230   4.782  0.0109  0.1292  0.0336
 3563ntf    fn420496   0.204   4.530   4.879  0.4327  0.1723 -0.0130
 3563ntf    fn420497   0.130   4.715   4.941  1.1664 -0.2900 -0.2276
 3563ntf    fn420498   0.139   4.552   5.082 -0.9849  0.0579  0.3691
 3563ntf    on520499  -0.143   4.588   5.021  0.1265 -0.5599  0.3409
 3563ntf    on520500  -0.090   4.596   4.786  0.0678 -0.2133 -0.0605
 3563ntf    on520501   0.042   4.163   4.873 -0.2845  0.0230 -0.2123
 3563ntf    on520502   0.032   4.332   4.694  0.0375 -0.0978 -0.3755
 3563ntf    fn420503  -0.197   4.153   4.674 -0.1080  0.3106 -0.0925
 3563ntf    fn420504  -0.247   4.154   4.877 -0.4598 -0.0331 -0.3519
 3563ntf    fn420505  -0.285   4.325   4.761  0.0029  0.1370  0.1044
 3564ntf    cn120506   4.867   1.644   6.455  0.2178 -0.2345  0.2158
 3564ntf    sn220507   5.006   1.743   6.391 -0.0644  0.0360  0.0202
 3564ntf    nn320508   5.099   1.738   6.517 -0.2946  0.0418  0.1910
 3564ntf    sn220509   5.216   1.837   6.550 -0.1117 -0.1754  0.2009
 3564ntf    cn120510   5.357   1.723   6.551 -0.0431 -0.0905  0.6283
 3564ntf    fn420511   4.808   1.692   6.563  0.1355  0.4619 -0.1353
 3564ntf    fn420512   4.775   1.625   6.361  0.3157 -0.1920  0.1104
 3564ntf    fn420513   4.915   1.524   6.484  0.1770 -0.0997  0.8497
 3564ntf    on520514   5.062   1.659   6.288  0.1434  0.0582  0.1155
 3564ntf    on520515   4.937   1.868   6.369  0.5163  0.3868  0.1671
 3564ntf    on520516   5.206   1.887   6.685  0.2215  0.4037  0.0132
 3564ntf    on520517   5.266   1.930   6.451  0.1454 -0.6568 -0.1248
 3564ntf    fn420518   5.467   1.787   6.587  0.4906 -0.4235 -0.3501
 3564ntf    fn420519   5.342   1.614   6.625  0.0714 -0.5513 -0.0060
 3564ntf    fn420520   5.363   1.677   6.426  0.5404  0.6093  0.3972
 3565ntf    cn120521   7.078   2.707   5.689 -0.0330  0.2334  0.1403
 3565ntf    sn220522   6.950   2.581   5.721  0.2026 -0.0779 -0.1351
 3565ntf    nn320523   6.891   2.564   5.576  0.6471 -0.4896 -0.2669
 3565ntf    sn220524   6.750   2.505   5.539  0.2746  0.2718 -0.0599
 3565ntf    cn120525   6.766   2.452   5.366  0.1469 -0.4793  0.1593
 3565ntf    fn420526   7.149   2.727   5.799 -0.3425  0.3836  0.3140
 3565ntf    fn420527   7.162   2.676   5.592 -0.1406  0.2857  0.0299
 3565ntf    fn420528   7.029   2.826   5.658 -0.0985  0.2565  0.3344
 3565ntf    on520529   7.031   2.469   5.760 -0.0623 -0.1014  0.3494
 3565ntf    on520530   6.856   2.646   5.809 -0.1727 -0.3355 -0.3469
 3565ntf    on520531   6.660   2.617   5.527 -0.1101 -0.0422 -0.0876
 3565ntf    on520532   6.705   2.382   5.599  1.0184 -0.0411 -0.1303
 3565ntf    fn420533   6.890   2.465   5.324  0.0292  0.0849 -0.0193
 3565ntf    fn420534   6.750   2.322   5.346  0.1023 -0.4806  0.2037
 3565ntf    fn420535   6.689   2.515   5.279  0.4692 -0.6690 -0.2640
 3566ntf    cn120536   3.816   4.762   0.746  0.2657  0.4748 -0.1698
 3566ntf    sn220537   3.831   4.883   0.612 -0.0743  0.5275 -0.1633
 3566ntf    nn320538   3.988   4.876   0.601 -0.0613  0.7346 -0.1130
 3566ntf    sn220539   4.080   4.849   0.477 -0.0180  0.5393 -0.0384
 3566ntf    cn120540   4.219   4.959   0.518  0.0625  0.4813 -0.1560
 3566ntf    fn420541   3.868   4.644   0.717  0.3335  0.4481  0.0607
 3566ntf    fn420542   3.887   4.794   0.853  0.2222  0.3259 -0.0951
 3566ntf    fn420543   3.692   4.739   0.788  0.3916  0.2475  0.0759
 3566ntf    on520544   3.751   4.827   0.507 -0.1005 -0.3166  0.2992
 3566ntf    on520545   3.792   5.007   0.676 -0.0325  0.1533  0.5920
 3566ntf    on520546   4.030   4.902   0.353  0.1205  0.5636 -0.0843
 3566ntf    on520547   4.148   4.722   0.475  0.1234  0.6175 -0.1866
 3566ntf    fn420548   4.306   4.891   0.590 -0.2248 -0.1981 -0.4488
 3566ntf    fn420549   4.276   5.019   0.415  0.3018  0.5605  0.0224
 3566ntf    fn420550   4.174   5.055   0.598  0.3763  0.2778  0.2641
 3567ntf    cn120551   4.939   5.767   6.782 -0.1880 -0.2367 -0.0111
 3567ntf    sn220552   4.845   5.618   6.737 -0.3898 -0.0553 -0.1934
 3567ntf    nn320553   4.942   5.499   6.769  0.0947  0.3525 -0.1289
 3567ntf    sn220554   4.974   5.375   6.678  0.0667  0.3129 -0.0852
 3567ntf    cn120555   5.067   5.452   6.542 -0.3206  0.3167 -0.3505
 3567ntf    fn420556   4.889   5.884   6.745  0.4584  0.0685  0.0636
 3567ntf    fn420557   4.959   5.770   6.912  0.2646 -0.0517 -0.0831
 3567ntf    fn420558   5.060   5.756   6.729 -0.3160 -0.5819 -0.2387
 3567ntf    on520559   4.731   5.620   6.826  0.0275  0.2544  0.3398
 3567ntf    on520560   4.812   5.644   6.599 -0.0717  0.2496 -0.2108
 3567ntf    on520561   4.857   5.316   6.617 -0.0081  0.3071  0.0630
 3567ntf    on520562   5.065   5.277   6.731  0.0693  0.3464 -0.0264
 3567ntf    fn420563   5.099   5.366   6.447 -0.5488 -0.1866  0.0234
 3567ntf    fn420564   5.002   5.545   6.473 -0.5312  0.2099 -0.2981
 3567ntf    fn420565   5.182   5.507   6.577 -0.5388  0.6234 -0.1056
 3568ntf    cn120566   2.665   3.536   4.847 -0.0370 -0.0658 -0.2084
 3568ntf    sn220567   2.536   3.427   4.780 -0.0599 -0.1907  0.0353
 3568ntf    nn320568   2.498   3.506   4.649  0.0364  0.1396  0.2052
 3568ntf    sn220569   2.396   3.459   4.540  0.2007 -0.1174  0.1615
 3568ntf    cn120570   2.259   3.574   4.575  0.0240 -0.1853 -0.2917
 3568ntf    fn420571   2.696   3.514   4.974  0.2001  0.0331 -0.2497
 3568ntf    fn420572   2.779   3.526   4.781 -0.0334 -0.0075 -0.2109
 3568ntf    fn420573   2.626   3.663   4.846 -0.0286 -0.0554  0.4235
 3568ntf    on520574   2.609   3.304   4.762 -0.0252 -0.1858  0.1454
 3568ntf    on520575   2.427   3.431   4.874 -0.5593 -0.5070 -0.5193
 3568ntf    on520576   2.326   3.335   4.561  0.1609 -0.0574  0.3800
 3568ntf    on520577   2.431   3.489   4.403  0.2514 -0.2480  0.1458
 3568ntf    fn420578   2.239   3.580   4.705  0.3048  0.4120 -0.2709
 3568ntf    fn420579   2.285   3.699   4.541  0.0176 -0.1682 -0.2337
 3568ntf    fn420580   2.147   3.542   4.513 -0.0768  0.3835 -0.4127
 3569ntf    cn120581   1.646   4.815   5.601 -0.0307 -0.2579 -0.1028
 3569ntf    sn220582   1.574   4.904   5.460 -0.0296  0.0019  0.0607
 3569ntf    nn320583   1.705   4.960   5.394 -0.1308  0.1289 -0.0319
 3569ntf    sn220584   1.790   5.084   5.442  0.0496  0.0741 -0.2094
 3569ntf    cn120585   1.962   5.024   5.431  0.1310  0.2748 -0.0168
 3569ntf    fn420586   1.709   4.891   5.689 -0.0331 -0.5917  0.1961
 3569ntf    fn420587   1.549   4.755   5.669 -0.2382 -0.2090 -0.3530
 3569ntf    fn420588   1.721   4.712   5.565 -0.2282 -0.0065 -1.2760
 3569ntf    on520589   1.519   4.803   5.374  0.3307  0.1907 -0.3985
 3569ntf    on520590   1.489   5.004   5.519 -0.1114  0.0953 -0.2159
 3569ntf    on520591   1.782   5.122   5.580  0.1425 -1.0219  0.1076
 3569ntf    on520592   1.792   5.193   5.348 -0.1852  0.0099 -0.2901
 3569ntf    fn420593   1.987   4.985   5.308 -0.2210 -0.2063  0.0646
 3569ntf    fn420594   2.049   5.120   5.458 -0.0846  0.4417  0.0874
 3569ntf    fn420595   1.985   4.921   5.510 -0.5248  0.2574  0.1591
 3570ntf    cn120596   4.499   5.368   4.166 -0.1967  0.0673  0.3199
 3570ntf    sn220597   4.663   5.431   4.215 -0.0777  0.1772 -0.2140
 3570ntf    nn320598   4.747   5.420   4.083 -0.0273  0.1223 -0.1768
 3570ntf    sn220599   4.901   5.449   4.082 -0.0250  0.1186  0.0314
 3570ntf    cn120600   4.896   5.587   3.963  0.1312  0.3978  0.3459
 3570ntf    fn420601   4.404   5.405   4.249 -0.4854  0.3418 -0.1328
 3570ntf    fn420602   4.465   5.419   4.049  0.5686 -0.3502 -0.0932
 3570ntf    fn420603   4.500   5.236   4.158  0.0133  0.0775  0.1503
 3570ntf    on520604   4.634   5.568   4.249 -0.0385  0.0263  0.4280
 3570ntf    on520605   4.699   5.332   4.313 -0.5346  0.8560  0.6459
 3570ntf    on520606   4.986   5.354   4.014 -0.3961 -0.1647 -0.0384
 3570ntf    on520607   4.954   5.511   4.201  0.5641  0.7399 -0.5434
 3570ntf    fn420608   5.016   5.617   3.917 -0.0873  0.3541 -0.2598
 3570ntf    fn420609   4.815   5.557   3.863  0.0407 -0.0273  0.5435
 3570ntf    fn420610   4.851   5.696   4.024 -0.5456  0.2544  0.1123
 3571ntf    cn120611   1.535   4.942   4.440 -0.1469 -0.0473  0.1580
 3571ntf    sn220612   1.531   5.098   4.533  0.0323  0.0102  0.0685
 3571ntf    nn320613   1.623   5.066   4.656 -0.2154 -0.1142  0.2220
 3571ntf    sn220614   1.780   5.068   4.658 -0.2129  0.0086 -0.1335
 3571ntf    cn120615   1.801   4.953   4.796  0.3238  0.1809 -0.0703
 3571ntf    fn420616   1.481   4.841   4.506 -0.2577  0.0886  0.2758
 3571ntf    fn420617   1.464   4.964   4.330  0.2347 -0.2191 -0.1229
 3571ntf    fn420618   1.656   4.912   4.397 -0.3543 -0.4554 -0.1569
 3571ntf    on520619   1.581   5.195   4.439  0.0590 -0.3512 -0.2942
 3571ntf    on520620   1.390   5.104   4.562  0.0984 -0.2443  0.4537
 3571ntf    on520621   1.838   5.187   4.714 -0.1490 -0.6089  1.1415
 3571ntf    on520622   1.851   4.996   4.556  0.1959  0.4321 -0.1528
 3571ntf    fn420623   1.735   4.986   4.906 -0.2647 -0.1732 -0.3155
 3571ntf    fn420624   1.770   4.827   4.768  0.3462  0.1317  0.1252
 3571ntf    fn420625   1.928   4.936   4.828  0.4670  0.2962 -0.5747
 3572ntf    cn120626   5.088   4.069   2.483  0.2035 -0.1245  0.1211
 3572ntf    sn220627   5.011   4.225   2.537 -0.1446 -0.2609  0.0201
 3572ntf    nn320628   4.981   4.297   2.401  0.1179 -0.0477  0.0734
 3572ntf    sn220629   4.943   4.449   2.388 -0.0610 -0.1155 -0.2162
 3572ntf    cn120630   4.776   4.447   2.316 -0.0354  0.1506 -0.2867
 3572ntf    fn420631   5.016   4.002   2.395  0.3989  0.5721 -0.5833
 3572ntf    fn420632   5.197   4.100   2.413  0.1643  0.4627  0.3079
 3572ntf    fn420633   5.121   3.984   2.578 -0.0746 -0.6829 -0.2810
 3572ntf    on520634   4.889   4.187   2.602 -0.3281  0.6942  0.2469
 3572ntf    on520635   5.122   4.283   2.609  0.0470 -0.5092 -0.0753
 3572ntf    on520636   5.014   4.520   2.284  0.7725 -0.0471  0.3831
 3572ntf    on520637   4.919   4.530   2.505  0.1507 -0.0263 -0.2336
 3572ntf    fn420638   4.777   4.387   2.198  0.7855 -0.2734 -0.0732
 3572ntf    fn420639   4.698   4.377   2.396  0.1315  0.6007  0.2759
 3572ntf    fn420640   4.728   4.568   2.293 -0.3057  0.0958 -0.0068
 3573ntf    cn120641   1.138   5.466   6.459 -0.2574  0.1329 -0.0626
 3573ntf    sn220642   1.079   5.430   6.290  0.1185  0.0533 -0.1780
 3573ntf    nn320643   1.137   5.558   6.219  0.0660 -0.2757 -0.8202
 3573ntf    sn220644   1.065   5.682   6.156 -0.0261  0.2067  0.2188
 3573ntf    cn120645   1.060   5.620   5.986  0.2336 -0.1461  0.3385
 3573ntf    fn420646   1.254   5.529   6.444 -0.1059 -0.1685 -0.1684
 3573ntf    fn420647   1.056   5.539   6.532  0.6038  0.4862  0.5705
 3573ntf    fn420648   1.161   5.353   6.523 -0.3397  0.1305 -0.0369
 3573ntf    on520649   1.152   5.313   6.250 -0.1617 -0.1129 -0.2029
 3573ntf    on520650   0.936   5.418   6.295  0.0952  0.0641 -0.8240
 3573ntf    on520651   1.151   5.798   6.154 -0.0401  0.2321  0.7748
 3573ntf    on520652   0.922   5.693   6.177 -0.0340  0.5396 -0.0017
 3573ntf    fn420653   1.178   5.590   5.934 -0.0935 -0.5947 -0.1563
 3573ntf    fn420654   0.989   5.509   5.973  0.2304 -0.1239  0.1495
 3573ntf    fn420655   1.008   5.704   5.897 -0.2882 -0.7168  0.1000
 3574ntf    cn120656   6.915   5.779   0.645  0.2637  0.1591  0.2370
 3574ntf    sn220657   6.995   5.918   0.729  0.2577  0.3205 -0.0246
 3574ntf    nn320658   6.909   5.923   0.860  0.0404  0.4269 -0.1698
 3574ntf    sn220659   6.813   6.033   0.917 -0.2670 -0.0472  0.2292
 3574ntf    cn120660   6.823   6.009   1.097 -0.4421  0.1779  0.2689
 3574ntf    fn420661   6.979   5.738   0.537 -0.0963 -0.0488  0.1001
 3574ntf    fn420662   6.913   5.670   0.721  0.0501  0.1624  0.2376
 3574ntf    fn420663   6.788   5.799   0.612  0.3612  0.4523  0.0382
 3574ntf    on520664   7.121   5.853   0.753 -0.2332 -0.7226 -0.2459
 3574ntf    on520665   6.992   6.034   0.643  0.0501  0.4705  0.1864
 3574ntf    on520666   6.673   6.010   0.890 -0.3059 -0.0133  0.3973
 3574ntf    on520667   6.866   6.164   0.889  0.0328 -0.2406 -0.1157
 3574ntf    fn420668   6.740   6.085   1.168 -0.3188  0.5371  0.0310
 3574ntf    fn420669   6.805   5.883   1.132 -0.0726 -0.0249 -0.2655
 3574ntf    fn420670   6.941   6.046   1.146 -0.0786 -0.9210  0.2394
 3575ntf    cn120671   6.711   1.360   5.517 -0.2792 -0.0631  0.4720
 3575ntf    sn220672   6.607   1.213   5.546  0.1207 -0.5133 -0.3420
 3575ntf    nn320673   6.679   1.152   5.671  0.5536 -0.1114 -0.3912
 3575ntf    sn220674   6.704   1.001   5.709 -0.1807 -0.1146  0.1057
 3575ntf    cn120675   6.606   0.985   5.861 -0.1013  0.3952  0.2134
 3575ntf    fn420676   6.840   1.333   5.510 -0.2337  0.2505  0.0867
 3575ntf    fn420677   6.689   1.432   5.409  0.3747 -0.3736  0.1272
 3575ntf    fn420678   6.691   1.445   5.616  0.0645  0.2939  0.2367
 3575ntf    on520679   6.473   1.259   5.571  0.5306  0.5927 -0.0964
 3575ntf    on520680   6.633   1.137   5.426  0.4424 -0.0075 -0.5961
 3575ntf    on520681   6.839   0.973   5.751 -0.0812 -0.6128 -0.5338
 3575ntf    on520682   6.648   0.910   5.612  0.4030 -0.4137  0.0458
 3575ntf    fn420683   6.476   0.997   5.841 -0.2209 -0.6369  0.2890
 3575ntf    fn420684   6.627   0.867   5.918  0.2450  0.1406 -0.4305
 3575ntf    fn420685   6.648   1.075   5.948 -0.0731  0.0545  0.5561
 3576ntf    cn120686   1.479   2.956   1.257 -0.0121  0.3256  0.4353
 3576ntf    sn220687   1.533   3.088   1.145  0.0035  0.1259  0.2073
 3576ntf    nn320688   1.557   3.209   1.242 -0.5154 -0.0976  0.6173
 3576ntf    sn220689   1.682   3.234   1.334  0.0554  0.2489 -0.2361
 3576ntf    cn120690   1.807   3.293   1.216  0.1729 -0.4395 -0.4584
 3576ntf    fn420691   1.473   2.838   1.197  0.1257  0.3371  0.3979
 3576ntf    fn420692   1.553   2.940   1.366 -0.7320  0.5662  0.9659
 3576ntf    fn420693   1.362   2.991   1.308 -0.0780 -0.0128  0.5208
 3576ntf    on520694   1.646   3.026   1.080 -0.1588 -0.3002  0.3270
 3576ntf    on520695   1.419   3.114   1.061  0.2807  1.0109  0.0908
 3576ntf    on520696   1.732   3.109   1.386 -0.3292  0.0338 -0.3767
 3576ntf    on520697   1.674   3.342   1.430  0.2003 -0.2554  0.3493
 3576ntf    fn420698   1.911   3.345   1.280 -0.3558  0.4737 -0.3252
 3576ntf    fn420699   1.860   3.200   1.138 -0.1398 -0.1326 -1.0413
 3576ntf    fn420700   1.768   3.391   1.137  1.0427  0.1980 -0.1175
 3577ntf    cn120701   2.979   7.097   0.503 -0.1841  0.3808  0.1505
 3577ntf    sn220702   3.158   7.073   0.522 -0.1874  0.1050 -0.1534
 3577ntf    nn320703   3.204   7.194   0.612  0.2901 -0.3941  0.2829
 3577ntf    sn220704   3.252   7.334   0.560  0.0300 -0.4278 -0.0533
 3577ntf    cn120705   3.402   7.346   0.662  0.1682 -0.1726 -0.2831
 3577ntf    fn420706   2.919   7.090   0.620 -0.6434  0.2400 -0.0898
 3577ntf    fn420707   2.949   7.220   0.463 -0.3090  0.2228 -0.2451
 3577ntf    fn420708   2.925   7.017   0.413  0.0715  0.1644  0.1887
 3577ntf    on520709   3.170   6.952   0.599  0.4787 -0.1535 -0.6488
 3577ntf    on520710   3.211   7.075   0.388  0.1501 -0.2094 -0.0263
 3577ntf    on520711   3.187   7.455   0.603 -0.4131 -0.6929  0.0257
 3577ntf    on520712   3.306   7.330   0.426 -0.5378 -0.1933 -0.2944
 3577ntf    fn420713   3.373   7.364   0.790 -0.0201  0.1778 -0.3757
 3577ntf    fn420714   3.477   7.237   0.654  0.3507 -0.0810  0.1635
 3577ntf    fn420715   3.480   7.448   0.633 -0.0350  0.0923  0.0853
 3578ntf    cn120716   4.402   1.327   6.213 -0.0592 -0.4102  0.3780
 3578ntf    sn220717   4.229   1.328   6.270 -0.0361  0.2495  0.4433
 3578ntf    nn320718   4.160   1.289   6.135 -0.3192 -0.2266  0.7214
 3578ntf    sn220719   4.108   1.151   6.081 -0.0679 -0.0680  0.0634
 3578ntf    cn120720   4.223   1.114   5.944  0.1357 -0.1308  0.2515
 3578ntf    fn420721   4.493   1.353   6.306  0.2389 -0.3594  0.0739
 3578ntf    fn420722   4.424   1.211   6.153  0.3299 -0.0387 -0.2006
 3578ntf    fn420723   4.411   1.416   6.115  0.1627 -0.5107  0.3074
 3578ntf    on520724   4.230   1.220   6.366  0.3571 -0.3199 -0.1869
 3578ntf    on520725   4.206   1.463   6.314  0.5211  0.6227 -0.3989
 3578ntf    on520726   3.978   1.164   6.019  0.1833  0.0344 -0.4483
 3578ntf    on520727   4.118   1.042   6.174  0.1702 -0.4684 -0.4226
 3578ntf    fn420728   4.297   1.005   5.955  0.0969 -0.2043 -0.2315
 3578ntf    fn420729   4.164   1.107   5.826  0.6816 -0.2015 -0.0166
 3578ntf    fn420730   4.307   1.216   5.933  0.1790 -0.1715  0.2094
 3579ntf    cn120731   4.653   1.989   4.675  0.4278 -0.2793 -0.1896
 3579ntf    sn220732   4.506   1.903   4.610  0.1899  0.0427 -0.0774
 3579ntf    nn320733   4.408   1.918   4.731 -0.1788 -0.2659 -0.3380
 3579ntf    sn220734   4.406   1.845   4.870  0.3320 -0.0193 -0.1967
 3579ntf    cn120735   4.319   1.688   4.838  0.0609  0.0774  0.0546
 3579ntf    fn420736   4.738   2.027   4.580  0.2202  0.4395 -0.0881
 3579ntf    fn420737   4.629   2.103   4.737  0.2013 -0.4841  0.1011
 3579ntf    fn420738   4.726   1.910   4.753  0.4540 -0.4180 -0.3530
 3579ntf    on520739   4.467   1.977   4.493  0.0930  0.7291  0.3807
 3579ntf    on520740   4.550   1.767   4.592  0.0023 -0.0458  0.1305
 3579ntf    on520741   4.319   1.917   4.959  0.6021 -0.4498  0.4222
 3579ntf    on520742   4.532   1.807   4.928  0.1550 -0.2137  0.0672
 3579ntf    fn420743   4.401   1.593   4.796 -0.3226 -0.2873  0.1304
 3579ntf    fn420744   4.275   1.645   4.955 -0.1680  0.3574  0.0721
 3579ntf    fn420745   4.218   1.701   4.754 -0.4446  0.3304  0.6971
 3580ntf    cn120746   0.497   5.018   1.213  0.1649  0.1675 -0.5952
 3580ntf    sn220747   0.350   5.038   1.107 -0.2512  0.2685 -0.0024
 3580ntf    nn320748   0.395   5.002   0.961  0.1832  0.6599  0.0301
 3580ntf    sn220749   0.478   4.878   0.914 -0.2943  0.1011  0.6360
 3580ntf    cn120750   0.628   4.971   0.869 -0.1051 -0.3924  0.2293
 3580ntf    fn420751   0.603   5.079   1.162  0.3030  0.3658 -0.0744
 3580ntf    fn420752   0.487   5.079   1.330 -0.2205 -0.2333 -0.4161
 3580ntf    fn420753   0.529   4.892   1.234 -0.2155  0.1887  0.1346
 3580ntf    on520754   0.245   4.956   1.162 -0.6878  0.8882  0.0891
 3580ntf    on520755   0.324   5.180   1.110  0.2145  0.3621 -0.3288
 3580ntf    on520756   0.433   4.825   0.788  0.5315  0.8646  0.0076
 3580ntf    on520757   0.527   4.780   1.008 -0.0088 -0.2555  0.1230
 3580ntf    fn420758   0.616   5.059   0.772  0.0821 -0.0721  0.4940
 3580ntf    fn420759   0.683   5.040   0.968 -0.5838  0.4247 -0.0719
 3580ntf    fn420760   0.723   4.886   0.834 -0.3926 -0.5957 -0.0613
 3581ntf    cn120761   4.966   4.159   4.241 -0.1580 -0.3428 -0.0608
 3581ntf    sn220762   4.829   4.271   4.284  0.2102  0.2319 -0.3692
 3581ntf    nn320763   4.711   4.171   4.258  0.4252 -0.1699  0.1751
 3581ntf    sn220764   4.641   4.072   4.357  0.2105  0.0130  0.2074
 3581ntf    cn120765   4.521   4.176   4.445 -0.1803 -0.1069 -0.1740
 3581ntf    fn420766   4.970   4.131   4.112 -0.7008  0.1626 -0.1894
 3581ntf    fn420767   5.084   4.211   4.273 -0.5969  0.7454 -0.1492
 3581ntf    fn420768   4.955   4.043   4.303  0.4166 -0.2052  0.3146
 3581ntf    on520769   4.850   4.295   4.425 -0.5155 -0.0338 -0.2157
 3581ntf    on520770   4.832   4.379   4.188 -0.2307  0.5230 -0.0578
 3581ntf    on520771   4.725   4.022   4.462  0.4157 -0.0021  0.0370
 3581ntf    on520772   4.566   3.973   4.283  0.0308  0.2738  0.0371
 3581ntf    fn420773   4.420   4.222   4.373 -0.2572  0.3813  0.2364
 3581ntf    fn420774   4.468   4.116   4.550 -0.1709  0.0449 -0.0805
 3581ntf    fn420775   4.588   4.280   4.492 -0.2868 -0.0630 -0.1192
 3582ntf    cn120776   6.691   2.933   4.877  0.1540  0.2373  0.0150
 3582ntf    sn220777   6.648   2.959   4.703 -0.2587 -0.0814  0.0676
 3582ntf    nn320778   6.648   3.116   4.690  0.1276 -0.1039 -0.2452
 3582ntf    sn220779   6.764   3.214   4.650 -0.1958  0.1787 -0.4911
 3582ntf    cn120780   6.725   3.363   4.746  0.2882 -0.2497  0.3851
 3582ntf    fn420781   6.626   3.014   4.960  0.3299  0.5616 -0.1579
 3582ntf    fn420782   6.658   2.809   4.909  0.2941  0.1679 -0.1120
 3582ntf    fn420783   6.820   2.954   4.901  0.2052  0.1340 -0.1656
 3582ntf    on520784   6.746   2.884   4.628 -0.1750  0.1757 -0.0841
 3582ntf    on520785   6.516   2.903   4.693 -0.1176 -0.4159  0.0403
 3582ntf    on520786   6.754   3.263   4.515  0.2236  0.1739 -0.5263
 3582ntf    on520787   6.890   3.176   4.709 -0.3953  0.4802  0.1362
 3582ntf    fn420788   6.802   3.381   4.852  0.3235  0.1115  0.3017
 3582ntf    fn420789   6.743   3.469   4.668  0.5502 -0.0989  0.6481
 3582ntf    fn420790   6.600   3.360   4.788  0.1956  0.1485  0.1429
 3583ntf    cn120791   0.672   2.368   4.472 -0.0355  0.4955 -0.3390
 3583ntf    sn220792   0.790   2.465   4.571 -0.0303  0.2316 -0.0865
 3583ntf    nn320793   0.916   2.372   4.572  0.0272  0.3101  0.1634
 3583ntf    sn220794   1.046   2.375   4.484 -0.0814 -0.0243 -0.0112
 3583ntf    cn120795   1.093   2.200   4.490  0.0495  0.0049 -0.1775
 3583ntf    fn420796   0.612   2.280   4.550  0.3302  0.1731 -0.4198
 3583ntf    fn420797   0.582   2.449   4.419 -0.6496  0.4985  0.6678
 3583ntf    fn420798   0.723   2.298   4.373 -0.2575 -0.1912  0.0272
 3583ntf    on520799   0.798   2.592   4.504  0.1965  0.3777  0.2134
 3583ntf    on520800   0.722   2.461   4.699  0.0970  0.2626 -0.0178
 3583ntf    on520801   1.150   2.451   4.549 -0.1885 -0.2280  0.3994
 3583ntf    on520802   1.030   2.386   4.341 -0.3498 -0.5841 -0.0255
 3583ntf    fn420803   1.188   2.165   4.404 -0.0070 -0.2392 -0.1432
 3583ntf    fn420804   1.137   2.165   4.610 -0.4226  0.0293  0.0045
 3583ntf    fn420805   0.990   2.119   4.468 -0.1425  0.1909  0.0398
 3584ntf    cn120806   5.192   2.482   6.100 -0.2298  0.2830 -0.5273
 3584ntf    sn220807   5.190   2.316   6.026 -0.2703 -0.0756  0.2699
 3584ntf    nn320808   5.048   2.334   5.960 -0.2314 -0.0156  0.2041
 3584ntf    sn220809   5.006   2.376   5.815 -0.2772 -0.0796  0.1989
 3584ntf    cn120810   4.956   2.214   5.750  0.1487 -0.1737  0.1045
 3584ntf    fn420811   5.311   2.504   6.153 -0.4778  0.6611 -0.1284
 3584ntf    fn420812   5.165   2.580   6.015  0.2496  0.7070 -0.1909
 3584ntf    fn420813   5.110   2.492   6.203 -0.1193 -0.4949 -0.3561
 3584ntf    on520814   5.303   2.298   5.938 -0.3939  1.0528 -0.1257
 3584ntf    on520815   5.184   2.225   6.138 -0.3576 -0.4980 -0.0730
 3584ntf    on520816   5.111   2.420   5.728 -0.2202 -0.4638  0.0709
 3584ntf    on520817   4.881   2.449   5.812 -0.0799  0.2736  0.4503
 3584ntf    fn420818   4.859   2.163   5.825  0.1652 -0.8855 -0.3427
 3584ntf    fn420819   4.906   2.206   5.628  0.4242  0.0188 -0.0219
 3584ntf    fn420820   5.045   2.116   5.751  0.2656 -0.0663  0.1252
 3585ntf    cn120821   3.901   4.165   3.585 -0.1532  0.0436  0.0440
 3585ntf    sn220822   3.743   4.116   3.510 -0.0683 -0.0746 -0.0586
 3585ntf    nn320823   3.769   4.103   3.356  0.2446  0.3760 -0.0434
 3585ntf    sn220824   3.823   3.975   3.282 -0.0580  0.1861  0.0637
 3585ntf    cn120825   3.907   4.055   3.142 -0.4274  0.3831 -0.0465
 3585ntf    fn420826   4.009   4.100   3.544  0.0366  0.0466  0.5348
 3585ntf    fn420827   3.926   4.293   3.562 -0.2051  0.0784  0.1848
 3585ntf    fn420828   3.898   4.151   3.717 -0.4753  0.0420  0.0367
 3585ntf    on520829   3.716   3.994   3.582  0.1852 -0.2214 -0.2103
 3585ntf    on520830   3.664   4.232   3.541 -0.1645 -0.2467  0.3574
 3585ntf    on520831   3.719   3.903   3.213  0.0220  0.5443 -0.4390
 3585ntf    on520832   3.927   3.908   3.356  0.1876  0.3343 -0.1481
 3585ntf    fn420833   3.824   4.145   3.093 -0.8342 -0.2712 -0.5957
 3585ntf    fn420834   4.011   4.123   3.186 -0.2375 -0.0643  0.2100
 3585ntf    fn420835   3.952   3.982   3.041 -0.3221 -0.1008  0.3460
 3586ntf    cn120836   4.603   3.688   6.347 -0.1498 -0.1019  0.2629
 3586ntf    sn220837   4.529   3.794   6.219  0.3499  0.0814  0.1235
 3586ntf    nn320838   4.435   3.884   6.308 -0.2837 -0.2546 -0.1982
 3586ntf    sn220839   4.286   3.861   6.350 -0.3064  0.0470 -0.1162
 3586ntf    cn120840   4.204   4.017   6.303 -0.0825  0.1009 -0.3320
 3586ntf    fn420841   4.680   3.759   6.428  0.3502 -0.0409 -0.2606
 3586ntf    fn420842   4.511   3.633   6.425 -0.0536 -0.2305  0.2844
 3586ntf    fn420843   4.680   3.589   6.304 -0.0305 -0.2765  0.8726
 3586ntf    on520844   4.649   3.858   6.170  0.4507 -0.3371 -0.1811
 3586ntf    on520845   4.468   3.703   6.126  0.2516 -0.2393  0.4992
 3586ntf    on520846   4.282   3.858   6.494 -0.4313  0.3924 -0.1105
 3586ntf    on520847   4.214   3.759   6.278 -0.0455  0.1539 -0.5357
 3586ntf    fn420848   4.087   4.029   6.364 -0.2527 -0.1865 -0.6009
 3586ntf    fn420849   4.281   4.120   6.333  0.3187 -0.1755 -0.4022
 3586ntf    fn420850   4.177   4.017   6.173 -0.9551  0.6910 -0.1618
 3587ntf    cn120851   0.200   5.709   1.267 -0.3967 -0.3737 -0.2721
 3587ntf    sn220852   0.086   5.662   1.401 -0.0167 -0.3017  0.0829
 3587ntf    nn320853   0.163   5.543   1.468  0.1283 -0.3260 -0.1263
 3587ntf    sn220854   0.128   5.458   1.595  0.0746 -0.0713  0.0315
 3587ntf    cn120855   0.139   5.290   1.525  0.5746 -0.0823  0.1331
 3587ntf    fn420856   0.297   5.784   1.318 -0.6567 -0.1839 -0.0559
 3587ntf    fn420857   0.254   5.609   1.200  0.6956  0.1417 -0.1844
 3587ntf    fn420858   0.140   5.781   1.175  0.0252  0.3675  0.0250
 3587ntf    on520859   0.074   5.778   1.486 -0.2584 -0.0633 -0.2711
 3587ntf    on520860  -0.037   5.625   1.335  0.0979 -0.4697 -0.0378
 3587ntf    on520861  -0.005   5.467   1.650  0.0516 -0.4886  0.0465
 3587ntf    on520862   0.238   5.465   1.687  0.0119 -0.6506  0.1555
 3587ntf    fn420863   0.087   5.197   1.603 -0.4447 -0.0846 -0.5363
 3587ntf    fn420864   0.073   5.286   1.411 -0.2720  0.0985  0.6086
 3587ntf    fn420865   0.263   5.255   1.496  0.5302  0.2386 -0.4721
 3588ntf    cn120866   4.734   6.254   0.262 -0.1492 -0.0359 -0.0978
 3588ntf    sn220867   4.681   6.418   0.319  0.3327  0.2095 -0.3446
 3588ntf    nn320868   4.526   6.393   0.321  0.3408  0.1483 -0.4113
 3588ntf    sn220869   4.423   6.404   0.203 -0.1284  0.0103 -0.0228
 3588ntf    cn120870   4.366   6.575   0.228 -0.1559  0.0881 -0.6005
 3588ntf    fn420871   4.644   6.203   0.179 -0.4199  0.2404  0.0271
 3588ntf    fn420872   4.849   6.250   0.196  0.1333 -0.1178  0.3912
 3588ntf    fn420873   4.741   6.165   0.360  0.8651  0.2923  0.1360
 3588ntf    on520874   4.730   6.420   0.455 -0.1424  0.2494 -0.1713
 3588ntf    on520875   4.738   6.512   0.226 -0.5572  0.8909 -0.2116
 3588ntf    on520876   4.312   6.318   0.233  0.1086 -0.5363 -0.6653
 3588ntf    on520877   4.465   6.413   0.065 -0.3273 -0.4150 -0.1105
 3588ntf    fn420878   4.469   6.656   0.219 -0.0465  0.0359  0.1272
 3588ntf    fn420879   4.276   6.613   0.139 -0.4498 -0.2237 -0.4432
 3588ntf    fn420880   4.311   6.598   0.346  0.1491 -0.1291 -0.4150
 3589ntf    cn120881   1.177   0.683   5.533  0.1009 -0.0607  0.0584
 3589ntf    sn220882   1.223   0.678   5.357 -0.0541 -0.3076  0.0248
 3589ntf    nn320883   1.223   0.832   5.326  0.1746 -0.2031  0.5389
 3589ntf    sn220884   1.262   0.899   5.189 -0.5470 -0.2028  0.3333
 3589ntf    cn120885   1.103   0.910   5.101 -0.0880 -0.1743 -0.5084
 3589ntf    fn420886   1.178   0.560   5.581 -1.0018 -0.0012  0.2578
 3589ntf    fn420887   1.251   0.767   5.603  0.5255 -0.0855 -0.3580
 3589ntf    fn420888   1.054   0.727   5.551 -0.0373 -0.0320 -0.9015
 3589ntf    on520889   1.355   0.622   5.353  0.2198  0.3741 -0.8020
 3589ntf    on520890   1.121   0.611   5.280 -0.7290  0.1075  0.5475
 3589ntf    on520891   1.335   0.811   5.101 -0.2210  0.6391 -0.2518
 3589ntf    on520892   1.309   1.034   5.205 -0.3226 -0.3008  0.4974
 3589ntf    fn420893   1.064   0.788   5.068  0.0590 -0.3340 -0.1065
 3589ntf    fn420894   1.007   0.968   5.172  0.2392 -0.1695 -0.0679
 3589ntf    fn420895   1.113   0.974   4.986  0.2143  0.5718 -0.0706
 3590ntf    cn120896   6.191   5.165   1.263  0.4178  0.4120  0.1468
 3590ntf    sn220897   6.358   5.099   1.289  0.3799  0.1722 -0.2093
 3590ntf    nn320898   6.350   5.056   1.440 -0.1858  0.0287 -0.2816
 3590ntf    sn220899   6.370   5.148   1.565  0.1945 -0.1917 -0.1818
 3590ntf    cn120900   6.533   5.098   1.631  0.0663 -0.0571  0.2413
 3590ntf    fn420901   6.092   5.077   1.261  0.8054 -0.0108 -0.5959
 3590ntf    fn420902   6.153   5.251   1.356 -0.0319  0.8653 -0.4500
 3590ntf    fn420903   6.184   5.229   1.148  0.0594 -0.2180 -0.1893
 3590ntf    on520904   6.356   4.987   1.199 -0.0047  0.1526 -0.1765
 3590ntf    on520905   6.450   5.206   1.256  0.6929 -0.1253 -0.3119
 3590ntf    on520906   6.270   5.117   1.664 -0.1694  0.3277 -0.3855
 3590ntf    on520907   6.387   5.287   1.534  0.1665 -0.1168  0.1349
 3590ntf    fn420908   6.618   5.135   1.536  0.2433 -0.1402  0.3662
 3590ntf    fn420909   6.561   5.160   1.744  0.2110  0.6003 -0.1499
 3590ntf    fn420910   6.548   4.968   1.645  0.2756 -0.0313  0.2567
 3591ntf    cn120911   2.582   4.237   3.418  0.3486  0.1113 -0.0374
 3591ntf    sn220912   2.563   4.313   3.582 -0.0610  0.3748 -0.2050
 3591ntf    nn320913   2.709   4.344   3.631 -0.1897  0.0596  0.3812
 3591ntf    sn220914   2.785   4.274   3.749 -0.2378 -0.1264  0.3016
 3591ntf    cn120915   2.751   4.385   3.889  0.3988  0.4815 -0.0238
 3591ntf    fn420916   2.475   4.174   3.373  0.1304  0.1144  0.4797
 3591ntf    fn420917   2.618   4.326   3.326 -0.2865  0.7780  0.3439
 3591ntf    fn420918   2.676   4.144   3.416  0.4151  0.1794 -0.1168
 3591ntf    on520919   2.485   4.430   3.552 -0.6074 -0.0211 -0.3472
 3591ntf    on520920   2.491   4.213   3.656 -0.0413  0.1686 -0.4619
 3591ntf    on520921   2.926   4.285   3.720 -0.3272 -0.3101 -0.2030
 3591ntf    on520922   2.738   4.144   3.791  0.3932 -0.4702 -0.0454
 3591ntf    fn420923   2.625   4.383   3.929  0.4432  0.1354  0.1043
 3591ntf    fn420924   2.836   4.357   3.986 -0.1995  0.7233  0.5789
 3591ntf    fn420925   2.776   4.511   3.857 -0.1401  0.4206 -0.7086
 3592ntf    cn120926   7.089   3.413   1.405 -0.0326  0.0355  0.1009
 3592ntf    sn220927   7.216   3.351   1.290 -0.1724  0.1707 -0.1271
 3592ntf    nn320928   7.188   3.428   1.156 -0.3684 -0.1903 -0.2943
 3592ntf    sn220929   7.295   3.506   1.071 -0.1864 -0.2131 -0.0856
 3592ntf    cn120930   7.223   3.490   0.905 -0.1513  0.5789 -0.1804
 3592ntf    fn420931   7.103   3.379   1.532  0.1613  0.1847  0.1198
 3592ntf    fn420932   7.097   3.545   1.405 -1.1951  0.1178 -0.1247
 3592ntf    fn420933   6.965   3.379   1.374  0.1477 -0.0321 -0.5772
 3592ntf    on520934   7.337   3.392   1.357  0.3092 -0.3771 -0.6437
 3592ntf    on520935   7.190   3.209   1.294  0.0238  0.1369 -0.0363
 3592ntf    on520936   7.415   3.427   1.058  0.1187  0.2642 -0.1591
 3592ntf    on520937   7.315   3.648   1.086  0.1255 -0.2409 -0.2425
 3592ntf    fn420938   7.308   3.540   0.817  0.5707 -0.1773  0.0613
 3592ntf    fn420939   7.214   3.362   0.872 -0.0097  0.6654 -0.5566
 3592ntf    fn420940   7.103   3.542   0.892 -0.1139  0.7036 -0.0352
 3593ntf    cn120941   5.819   5.632   5.179 -0.3180 -0.0599  0.0373
 3593ntf    sn220942   5.938   5.582   5.307 -0.0759 -0.0269 -0.1740
 3593ntf    nn320943   6.076   5.637   5.258  0.2454 -0.4144  0.2836
 3593ntf    sn220944   6.218   5.571   5.248  0.3941 -0.0893  0.2403
 3593ntf    cn120945   6.265   5.634   5.084 -0.4943  0.1505  0.0723
 3593ntf    fn420946   5.810   5.763   5.168 -0.1030 -0.0079  0.4718
 3593ntf    fn420947   5.860   5.588   5.062 -0.0569 -0.4860  0.2855
 3593ntf    fn420948   5.697   5.583   5.197 -0.2450 -0.3172 -0.1641
 3593ntf    on520949   5.887   5.638   5.431 -0.3699  0.0369 -0.3226
 3593ntf    on520950   5.927   5.438   5.307 -0.5782  0.0088  0.1883
 3593ntf    on520951   6.205   5.428   5.230  0.1636 -0.0124 -0.2313
 3593ntf    on520952   6.316   5.621   5.341  0.3823  0.1634  0.1181
 3593ntf    fn420953   6.396   5.640   5.062 -0.4397 -0.2094  0.2858
 3593ntf    fn420954   6.212   5.565   4.984  0.2412 -0.5788  0.1729
 3593ntf    fn420955   6.222   5.758   5.064 -0.0735  0.2252 -0.3950
 3594ntf    cn120956   4.141   6.897   6.929 -0.2927  0.1611  0.0907
 3594ntf    sn220957   3.979   6.819   6.901 -0.1727 -0.1285  0.1977
 3594ntf    nn320958   4.007   6.711   6.791 -0.0525  0.5304 -0.4217
 3594ntf    sn220959   3.894   6.654   6.697  0.0249 -0.2634 -0.0339
 3594ntf    cn120960   3.968   6.704   6.539 -0.0265  0.3981  0.1494
 3594ntf    fn420961   4.126   7.010   6.995  0.6495  0.4587 -0.1951
 3594ntf    fn420962   4.218   6.816   7.000 -0.0609 -0.0585 -0.4033
 3594ntf    fn420963   4.197   6.942   6.818 -0.6520  0.3643 -0.0110
 3594ntf    on520964   3.963   6.743   7.023  0.5673 -0.8441 -0.1491
 3594ntf    on520965   3.894   6.933   6.876 -0.1379 -0.0845  0.2758
 3594ntf    on520966   3.765   6.717   6.700  0.3321  0.3704 -0.0516
 3594ntf    on520967   3.890   6.510   6.698 -0.6848 -0.2456 -0.1877
 3594ntf    fn420968   4.030   6.821   6.540  0.8020 -0.0288  0.2765
 3594ntf    fn420969   4.065   6.618   6.513  0.3517  0.5139  1.1234
 3594ntf    fn420970   3.883   6.698   6.438  0.3507  0.2191 -0.1610
 3595ntf    cn120971   4.255   7.016   0.577 -0.4243  0.6736  0.0239
 3595ntf    sn220972   4.150   6.916   0.687  0.1098 -0.1306 -0.1811
 3595ntf    nn320973   4.125   7.026   0.797  0.0763  0.4122 -0.7285
 3595ntf    sn220974   3.992   7.106   0.822  0.0668  0.1714 -0.0202
 3595ntf    cn120975   3.889   6.986   0.912  0.3484 -0.1174 -0.0792
 3595ntf    fn420976   4.322   6.928   0.504 -0.3567  0.1549  0.6965
 3595ntf    fn420977   4.195   7.102   0.496 -0.0748  0.2237 -0.7242
 3595ntf    fn420978   4.346   7.077   0.651  0.3346 -0.2051 -0.1477
 3595ntf    on520979   4.042   6.871   0.603  0.0651 -0.1605 -0.1075
 3595ntf    on520980   4.248   6.819   0.729  0.5181  0.4226  0.1768
 3595ntf    on520981   3.914   7.131   0.704 -0.4655 -0.3706  0.2079
 3595ntf    on520982   4.006   7.203   0.928 -0.0130  0.0709  0.0826
 3595ntf    fn420983   3.765   7.030   0.922  0.4712  0.2627 -0.2354
 3595ntf    fn420984   3.890   6.867   0.852 -0.3172 -0.2388  0.1380
 3595ntf    fn420985   3.935   6.965   1.034 -0.1594  0.2209  0.1725
 3596ntf    cn120986   5.318   1.076   0.592 -0.1756  0.3466 -0.2955
 3596ntf    sn220987   5.219   1.089   0.743 -0.0513 -0.0143 -0.1800
 3596ntf    nn320988   5.328   1.069   0.854 -0.0844  0.3238 -0.0834
 3596ntf    sn220989   5.375   0.929   0.908 -0.4995 -0.0325 -0.6244
 3596ntf    cn120990   5.266   0.916   1.053  0.0595 -0.3295 -0.2276
 3596ntf    fn420991   5.247   1.101   0.483  0.4113 -0.6651 -0.9322
 3596ntf    fn420992   5.427   1.150   0.600  0.3272 -0.3920 -0.1764
 3596ntf    fn420993   5.350   0.950   0.566 -0.1175  0.2257  0.3485
 3596ntf    on520994   5.168   1.224   0.740 -0.0246 -0.0005 -0.0370
 3596ntf    on520995   5.117   0.987   0.737 -0.5167  0.4257  0.1144
 3596ntf    on520996   5.504   0.932   0.973 -0.6345 -0.2233 -0.3471
 3596ntf    on520997   5.355   0.813   0.825  0.6462 -0.4885 -0.2827
 3596ntf    fn420998   5.140   0.896   1.020  0.0373  0.4924 -0.6662
 3596ntf    fn420999   5.302   0.816   1.133 -0.4788 -0.5187 -0.2172
 3596ntf    fn421000   5.263   1.021   1.133 -0.4637 -0.1054 -0.5366
 3597ntf    cn121001   6.012   4.840   6.394  0.2229  0.2051  0.0792
 3597ntf    sn221002   5.925   4.885   6.548  0.1324 -0.0201  0.0936
 3597ntf    nn321003   6.055   4.932   6.623  0.3079  0.1595 -0.3163
 3597ntf    sn221004   6.108   5.070   6.677  0.1071  0.0935  0.0536
 3597ntf    cn121005   6.285   5.029   6.681  0.0731 -0.1188 -0.4849
 3597ntf    fn421006   6.098   4.931   6.350  0.3130  0.2063  0.2573
 3597ntf    fn421007   6.082   4.729   6.407 -0.8140 -0.5452 -0.6501
 3597ntf    fn421008   5.934   4.824   6.289  0.0099 -0.3005  0.3126
 3597ntf    on521009   5.830   4.988   6.515  0.1055 -0.1423 -0.2197
 3597ntf    on521010   5.866   4.761   6.593 -0.0966  0.0154 -0.1066
 3597ntf    on521011   6.071   5.098   6.813 -0.1741  0.8894 -0.1830
 3597ntf    on521012   6.102   5.180   6.584  0.3490  0.2646  0.2410
 3597ntf    fn421013   6.352   5.139   6.653  0.0660  0.3435  1.1774
 3597ntf    fn421014   6.329   4.996   6.801 -0.0272  0.0613 -0.3984
 3597ntf    fn421015   6.321   4.936   6.594  0.0712 -0.2254 -0.3708
 3598ntf    cn121016   6.404   0.636   0.901 -0.2090  0.3510 -0.1237
 3598ntf    sn221017   6.473   0.637   0.732 -0.0763 -0.1543 -0.0741
 3598ntf    nn321018   6.356   0.610   0.631  0.4871  0.2454 -0.8402
 3598ntf    sn221019   6.225   0.695   0.613  0.1668 -0.0031  0.2384
 3598ntf    cn121020   6.135   0.609   0.480 -0.0657  0.5425  0.0420
 3598ntf    fn421021   6.315   0.732   0.913  0.0505  0.5943 -0.1252
 3598ntf    fn421022   6.351   0.518   0.927 -0.3681  0.4167 -0.1529
 3598ntf    fn421023   6.506   0.659   0.983 -0.0416  0.1219 -0.2641
 3598ntf    on521024   6.536   0.765   0.721  0.7092 -0.5164  0.1540
 3598ntf    on521025   6.567   0.528   0.744  0.2534  0.1326 -0.0688
 3598ntf    on521026   6.249   0.827   0.561 -0.5518  0.2074  0.4220
 3598ntf    on521027   6.136   0.674   0.724 -0.2936  0.3220 -0.0644
 3598ntf    fn421028   6.016   0.661   0.454 -0.3485 -0.0620  0.1215
 3598ntf    fn421029   6.201   0.621   0.367 -0.3899  0.0852 -0.1976
 3598ntf    fn421030   6.113   0.481   0.501  0.3462  0.4638 -0.0021
 3599ntf    cn121031   0.880   6.368   3.191  0.2509  0.1870 -0.0660
 3599ntf    sn221032   0.889   6.380   3.010 -0.0597  0.0140 -0.0932
 3599ntf    nn321033   0.964   6.516   2.985 -0.2376  0.0822 -0.2621
 3599ntf    sn221034   0.939   6.617   2.869  0.1782  0.0631 -0.3693
 3599ntf    cn121035   1.105   6.613   2.795  0.3780  0.1523  0.0716
 3599ntf    fn421036   0.834   6.251   3.232  0.0814  0.2311 -0.1270
 3599ntf    fn421037   1.006   6.374   3.230  0.2140 -0.2800  0.1283
 3599ntf    fn421038   0.825   6.473   3.250 -0.3395 -0.3452  0.3447
 3599ntf    on521039   0.974   6.269   2.976  0.0809 -0.0609  0.4876
 3599ntf    on521040   0.752   6.370   2.965  0.0371 -0.2266 -0.3341
 3599ntf    on521041   0.941   6.757   2.904  0.1904 -0.2116  0.7474
 3599ntf    on521042   0.850   6.576   2.763 -0.4525 -0.1784  0.2479
 3599ntf    fn421043   1.192   6.674   2.874 -0.0577  0.2582  0.4722
 3599ntf    fn421044   1.150   6.491   2.775  0.0697  0.1132 -0.4262
 3599ntf    fn421045   1.093   6.675   2.678 -0.1413 -0.2475 -0.0908
 3600ntf    cn121046   0.007   2.302   1.408 -0.0980 -0.1202 -0.2396
 3600ntf    sn221047  -0.173   2.296   1.433 -0.0525 -0.3173  0.0447
 3600ntf    nn321048  -0.220   2.215   1.307 -0.6774 -0.5424  0.4225
 3600ntf    sn221049  -0.300   2.271   1.184  0.2194  0.1342  0.1380
 3600ntf    cn121050  -0.173   2.360   1.089  0.3052  0.0167  0.1419
 3600ntf    fn421051   0.033   2.353   1.288 -0.0427  0.8165  0.1602
 3600ntf    fn421052   0.075   2.362   1.505  0.1573 -0.0217 -0.4756
 3600ntf    fn421053   0.050   2.177   1.405 -0.2179 -0.1882  0.6223
 3600ntf    on521054  -0.190   2.240   1.564 -0.2114 -0.0139  0.1559
 3600ntf    on521055  -0.199   2.438   1.423 -0.3060 -0.3921 -0.3653
 3600ntf    on521056  -0.412   2.362   1.192  0.5475  0.5384  0.1537
 3600ntf    on521057  -0.320   2.159   1.096  0.1625  0.5246 -0.3493
 3600ntf    fn421058  -0.065   2.291   1.056  0.1257 -0.0948 -0.2112
 3600ntf    fn421059  -0.218   2.421   0.981  0.2125 -0.1150  0.1066
 3600ntf    fn421060  -0.122   2.461   1.158 -0.0146  0.3654 -0.1260
 3601ntf    cn121061   3.765   0.674   7.040 -0.3711  0.1816  0.4783
 3601ntf    sn221062   3.910   0.574   6.996 -0.3358  0.3373  0.2370
 3601ntf    nn321063   3.839   0.436   6.971  0.4175 -0.0178  0.0197
 3601ntf    sn221064   3.731   0.401   6.863 -0.0535 -0.2428  0.5571
 3601ntf    cn121065   3.828   0.297   6.749 -0.0200  0.3407  0.0498
 3601ntf    fn421066   3.809   0.780   7.106 -0.0092 -0.1813  0.8228
 3601ntf    fn421067   3.693   0.726   6.941 -0.0488 -0.2568  0.0085
 3601ntf    fn421068   3.679   0.610   7.118 -0.1290 -0.3828  0.2881
 3601ntf    on521069   3.968   0.637   6.880  0.0404  0.0862  0.2839
 3601ntf    on521070   3.983   0.583   7.120 -0.0225 -0.7091  0.1343
 3601ntf    on521071   3.689   0.504   6.772  0.1242 -0.6657 -0.0140
 3601ntf    on521072   3.628   0.315   6.916 -0.0381 -0.2617  0.5563
 3601ntf    fn421073   3.950   0.338   6.718  0.0616  0.1843  0.1630
 3601ntf    fn421074   3.842   0.177   6.802  0.5186  0.2094 -0.3858
 3601ntf    fn421075   3.755   0.284   6.640  0.7572 -0.3330 -0.3972
 3602ntf    cn121076   2.439   5.684   5.052  0.0099  0.5719 -0.1508
 3602ntf    sn221077   2.296   5.783   5.000 -0.3737 -0.0016 -0.1991
 3602ntf    nn321078   2.276   5.882   5.121 -0.2000  0.4430 -0.5325
 3602ntf    sn221079   2.168   5.898   5.233  0.0615 -0.2544 -0.1762
 3602ntf    cn121080   2.268   5.835   5.371  0.3600 -0.0596 -0.3040
 3602ntf    fn421081   2.550   5.753   5.073  0.1507  0.3750 -0.2376
 3602ntf    fn421082   2.407   5.633   5.170  0.1135 -0.0470 -0.3855
 3602ntf    fn421083   2.477   5.585   4.973  0.3420  0.8262 -0.3120
 3602ntf    on521084   2.339   5.848   4.878  0.1871  0.1064  0.0515
 3602ntf    on521085   2.198   5.678   4.987 -0.1333 -0.1777 -0.6061
 3602ntf    on521086   2.064   5.798   5.238 -0.4958  0.3223 -0.1576
 3602ntf    on521087   2.141   6.035   5.267 -0.4300 -0.3553 -0.1511
 3602ntf    fn421088   2.288   5.705   5.357  0.5148 -0.0356 -0.3134
 3602ntf    fn421089   2.392   5.881   5.373  0.3044  0.0739  0.2038
 3602ntf    fn421090   2.217   5.865   5.489  0.6731  0.2031 -0.2331
 3603ntf    cn121091   3.569   1.032   0.764 -0.4750 -0.1853  0.3395
 3603ntf    sn221092   3.470   0.991   0.617 -0.2972 -0.3375  0.2621
 3603ntf    nn321093   3.564   0.882   0.553 -0.4597 -0.0792 -0.4306
 3603ntf    sn221094   3.671   0.910   0.442 -0.1955  0.0072 -0.1576
 3603ntf    cn121095   3.567   0.890   0.294  0.1950  0.2299 -0.4628
 3603ntf    fn421096   3.569   0.934   0.853 -0.3263 -0.4130  0.0892
 3603ntf    fn421097   3.693   1.070   0.742 -0.3471 -0.7188  0.1119
 3603ntf    fn421098   3.516   1.131   0.834  0.4778  0.1585  0.5866
 3603ntf    on521099   3.349   0.936   0.674 -0.6336  0.3344  0.2104
 3603ntf    on521100   3.450   1.114   0.544  0.1808  0.1360  0.9282
 3603ntf    on521101   3.764   0.801   0.425 -0.6469 -0.3579 -0.3332
 3603ntf    on521102   3.737   1.038   0.440 -0.1664 -0.0008  0.2265
 3603ntf    fn421103   3.461   0.966   0.311  0.0021 -0.1454  0.0232
 3603ntf    fn421104   3.627   0.931   0.183  0.3747 -0.2948 -0.5631
 3603ntf    fn421105   3.520   0.768   0.272  0.1254  0.1294  0.2325
 3604ntf    cn121106   1.599   3.606   4.541  0.0052  0.1736  0.0899
 3604ntf    sn221107   1.710   3.739   4.596  0.3112 -0.0696  0.0644
 3604ntf    nn321108   1.610   3.860   4.601  0.1524 -0.1937 -0.1068
 3604ntf    sn221109   1.623   4.007   4.547 -0.1435 -0.1886 -0.1693
 3604ntf    cn121110   1.483   4.002   4.431 -0.2995 -0.0036  0.0106
 3604ntf    fn421111   1.651   3.487   4.567  0.3082  0.2777 -0.0382
 3604ntf    fn421112   1.477   3.615   4.592  0.0730  0.7630  0.1545
 3604ntf    fn421113   1.577   3.611   4.411  0.0476 -0.4391  0.0561
 3604ntf    on521114   1.740   3.691   4.729  0.1300 -0.7431 -0.1344
 3604ntf    on521115   1.813   3.754   4.496  0.1472 -0.5391 -0.1786
 3604ntf    on521116   1.729   4.048   4.458 -0.4682  0.2210 -0.3718
 3604ntf    on521117   1.578   4.106   4.641  0.2172 -0.1054 -0.0821
 3604ntf    fn421118   1.370   3.989   4.498 -0.5193  0.3990 -0.2840
 3604ntf    fn421119   1.478   4.110   4.356  0.1009 -0.0474 -0.0820
 3604ntf    fn421120   1.485   3.898   4.349  0.1920 -0.0440  0.0704
 3605ntf    cn121121   2.990   2.055   0.453  0.2454  0.1816  0.6608
 3605ntf    sn221122   3.042   1.970   0.605 -0.0872 -0.3602  0.4750
 3605ntf    nn321123   3.034   1.822   0.554 -0.3020 -0.2558  0.2054
 3605ntf    sn221124   3.148   1.715   0.536 -0.3884 -0.2813 -0.2111
 3605ntf    cn121125   3.067   1.615   0.408 -0.4395  0.0970 -0.4759
 3605ntf    fn421126   2.863   2.030   0.428  0.6651 -1.1274 -0.2658
 3605ntf    fn421127   2.993   2.187   0.461  0.4895  0.2182 -0.0183
 3605ntf    fn421128   3.064   2.026   0.347 -0.3061 -0.3104  0.4015
 3605ntf    on521129   3.175   2.025   0.617 -0.2743  0.2490 -0.1550
 3605ntf    on521130   2.941   2.011   0.700 -0.6078 -0.4903 -0.0181
 3605ntf    on521131   3.169   1.631   0.652 -0.0886  0.0337 -0.0351
 3605ntf    on521132   3.268   1.757   0.469 -0.4282 -0.4290 -0.3736
 3605ntf    fn421133   2.977   1.527   0.448 -0.2666  0.0220 -0.2503
 3605ntf    fn421134   2.999   1.688   0.322 -0.4605  0.0870 -0.4681
 3605ntf    fn421135   3.149   1.538   0.339  0.1423  0.4062 -0.1348
 3606ntf    cn121136   6.782   1.067   4.406 -0.4930  0.0374  0.1318
 3606ntf    sn221137   6.803   0.988   4.244  0.0967  0.0734  0.1896
 3606ntf    nn321138   6.835   1.108   4.148  0.2035 -0.2738 -0.2137
 3606ntf    sn221139   6.776   1.145   4.007 -0.1301 -0.1437 -0.0427
 3606ntf    cn121140   6.814   0.998   3.907 -0.0188 -0.0796 -0.0942
 3606ntf    fn421141   6.870   1.162   4.433  0.1334 -0.2117 -0.9957
 3606ntf    fn421142   6.661   1.120   4.410 -0.6216 -0.2566  0.1762
 3606ntf    fn421143   6.795   0.984   4.508 -0.0406 -0.4785 -0.3407
 3606ntf    on521144   6.921   0.906   4.263  0.1369  0.0913  0.0192
 3606ntf    on521145   6.678   0.919   4.224  0.2619 -0.3273  0.5223
 3606ntf    on521146   6.854   1.249   3.944 -0.1870 -0.0540  0.0366
 3606ntf    on521147   6.633   1.145   3.995 -0.1355 -0.0734  0.0073
 3606ntf    fn421148   6.802   1.013   3.776 -0.8598  0.1346  0.0013
 3606ntf    fn421149   6.939   0.956   3.919  0.0113  0.0573  0.0881
 3606ntf    fn421150   6.732   0.899   3.938 -0.2495  0.2006  0.2038
 3607ntf    cn121151   1.333   4.601   4.135  0.4242 -0.0624 -0.5262
 3607ntf    sn221152   1.196   4.482   4.124 -0.0908  0.4705  0.0064
 3607ntf    nn321153   1.087   4.565   4.047 -0.1332 -0.1746 -0.6330
 3607ntf    sn221154   0.967   4.658   4.086  0.0525 -0.2028  0.0045
 3607ntf    cn121155   0.831   4.577   3.997 -0.1865 -0.1540  0.3245
 3607ntf    fn421156   1.398   4.613   4.021  0.4272 -0.3699 -0.5560
 3607ntf    fn421157   1.286   4.724   4.152  0.5667 -0.0779  0.0002
 3607ntf    fn421158   1.414   4.583   4.238 -0.3966 -0.4009  0.0690
 3607ntf    on521159   1.245   4.377   4.039 -0.2488  0.1695  0.2873
 3607ntf    on521160   1.166   4.438   4.258  0.8045 -0.6451 -0.1494
 3607ntf    on521161   0.969   4.789   4.025  0.0618 -0.2011  0.0078
 3607ntf    on521162   0.925   4.649   4.224  0.5499  0.3749  0.2013
 3607ntf    fn421163   0.864   4.560   3.871 -0.0651  0.2842  0.2948
 3607ntf    fn421164   0.810   4.453   4.037 -0.1589 -0.1331  0.4064
 3607ntf    fn421165   0.715   4.641   4.005 -0.4095 -0.4663 -0.3364
 3608ntf    cn121166   2.887   1.053   2.288 -0.2033  0.1783 -0.1415
 3608ntf    sn221167   2.769   0.976   2.403  0.2989  0.0644  0.2974
 3608ntf    nn321168   2.650   1.078   2.397  0.4120  0.1656 -0.2654
 3608ntf    sn221169   2.586   1.182   2.495  0.1331 -0.0419 -0.2270
 3608ntf    cn121170   2.648   1.335   2.418 -0.3642  0.2112 -0.1267
 3608ntf    fn421171   3.005   0.992   2.286 -0.2181  0.1510 -0.2048
 3608ntf    fn421172   2.845   1.046   2.163 -0.0431 -0.1747 -0.1762
 3608ntf    fn421173   2.916   1.179   2.312 -0.1462  0.2173 -0.4115
 3608ntf    on521174   2.732   0.850   2.343 -0.0896  0.2856  0.0747
 3608ntf    on521175   2.841   0.971   2.528  0.2306 -0.0429  0.3332
 3608ntf    on521176   2.642   1.181   2.628 -0.0524 -0.8023 -0.1522
 3608ntf    on521177   2.442   1.178   2.484  0.1365 -0.0644 -0.2609
 3608ntf    fn421178   2.626   1.440   2.496  0.1124 -0.0131  0.3143
 3608ntf    fn421179   2.779   1.333   2.407 -0.3513  0.3352  0.0120
 3608ntf    fn421180   2.600   1.360   2.297  0.1256 -0.0116 -0.3707
 3609ntf    cn121181   3.632   1.979   1.123 -0.0247 -0.1883  0.1230
 3609ntf    sn221182   3.673   2.065   0.967 -0.0969 -0.0160  0.1984
 3609ntf    nn321183   3.808   2.143   0.988 -0.0498 -0.0631  0.0712
 3609ntf    sn221184   3.853   2.235   1.107 -0.2687  0.2885 -0.1160
 3609ntf    cn121185   3.976   2.339   1.024  0.1052 -0.1612 -0.1261
 3609ntf    fn421186   3.622   2.059   1.228 -0.1501 -0.4513  0.3123
 3609ntf    fn421187   3.520   1.909   1.119 -0.0267 -0.1832  0.0939
 3609ntf    fn421188   3.734   1.902   1.156  0.0326 -0.1942 -0.0626
 3609ntf    on521189   3.700   1.958   0.875 -0.1920 -0.3606  0.5668
 3609ntf    on521190   3.554   2.141   0.938 -0.1577 -0.3715 -0.4987
 3609ntf    on521191   3.937   2.170   1.204 -0.1425  0.1832 -0.2974
 3609ntf    on521192   3.760   2.331   1.163 -0.2673  0.1382  0.1463
 3609ntf    fn421193   3.933   2.395   0.912  0.6364  0.3614 -0.0748
 3609ntf    fn421194   4.025   2.438   1.097  0.1202  0.1130 -0.5012
 3609ntf    fn421195   4.081   2.270   0.982  0.1585 -0.2384  0.1341
 3610ntf    cn121196   3.544   3.450   6.706 -0.3153 -0.2859  0.1484
 3610ntf    sn221197   3.651   3.312   6.658  0.0461 -0.0457  0.2644
 3610ntf    nn321198   3.667   3.348   6.506 -0.1018 -0.3375  0.1772
 3610ntf    sn221199   3.590   3.297   6.379 -0.1264  0.2661 -0.0544
 3610ntf    cn121200   3.518   3.458   6.331 -0.0842  0.3871  0.2849
 3610ntf    fn421201   3.434   3.455   6.632 -0.0353 -0.3410 -0.2690
 3610ntf    fn421202   3.502   3.430   6.830 -0.6337 -0.1312  0.0689
 3610ntf    fn421203   3.600   3.570   6.700 -0.2669 -0.3168 -0.0326
 3610ntf    on521204   3.776   3.331   6.727  0.0238  0.1241  0.2577
 3610ntf    on521205   3.580   3.191   6.692  0.0404 -0.1906 -0.2534
 3610ntf    on521206   3.480   3.206   6.398  0.0424  0.1860  0.5545
 3610ntf    on521207   3.678   3.259   6.272  0.2485 -0.0425  0.3583
 3610ntf    fn421208   3.425   3.498   6.416 -0.2533 -0.0432  0.3093
 3610ntf    fn421209   3.614   3.548   6.333  0.2876 -0.0032  0.2613
 3610ntf    fn421210   3.460   3.465   6.213 -0.0552  0.2024  0.2576
 3611ntf    cn121211   5.322   0.742   3.421 -0.2264  0.3196 -0.0975
 3611ntf    sn221212   5.302   0.588   3.327  0.2344  0.1870  0.0207
 3611ntf    nn321213   5.370   0.642   3.196  0.1133  0.2723 -0.0078
 3611ntf    sn221214   5.315   0.660   3.051 -0.0893 -0.0508  0.0285
 3611ntf    cn121215   5.373   0.828   3.016  0.1426 -0.2318 -0.4628
 3611ntf    fn421216   5.304   0.718   3.550 -0.1678 -0.0399 -0.1540
 3611ntf    fn421217   5.443   0.793   3.411 -0.2539  0.2810 -0.6893
 3611ntf    fn421218   5.238   0.833   3.375 -0.2366  0.4427  0.1623
 3611ntf    on521219   5.376   0.484   3.395 -0.2961 -0.4002 -0.2847
 3611ntf    on521220   5.159   0.568   3.316  0.2127  0.3411  0.0232
 3611ntf    on521221   5.171   0.667   3.050 -0.0955 -0.0998  0.4178
 3611ntf    on521222   5.381   0.580   2.951 -0.4267  0.0486 -0.2804
 3611ntf    fn421223   5.506   0.835   3.013  0.1460  0.0143  0.0493
 3611ntf    fn421224   5.332   0.876   2.899  0.1447 -0.0239 -0.3782
 3611ntf    fn421225   5.334   0.914   3.109  0.7372 -0.4974  0.0387
 3612ntf    cn121226   5.458   3.192   3.943 -0.2452 -0.2771 -0.1286
 3612ntf    sn221227   5.473   3.154   3.766  0.0659  0.2463 -0.2181
 3612ntf    nn321228   5.376   3.033   3.740  0.0299  0.2378 -0.0474
 3612ntf    sn221229   5.408   2.889   3.686  0.3252  0.2095  0.1986
 3612ntf    cn121230   5.326   2.783   3.808  0.0807 -0.0033 -0.1470
 3612ntf    fn421231   5.334   3.217   3.984  0.0300  0.0442  0.5202
 3612ntf    fn421232   5.507   3.090   4.011  0.4782  0.0077 -0.2186
 3612ntf    fn421233   5.520   3.299   3.990 -0.6231 -0.1189  0.0179
 3612ntf    on521234   5.418   3.270   3.701  0.3930  0.0094 -0.9252
 3612ntf    on521235   5.612   3.137   3.732  0.1147  0.4920 -0.1397
 3612ntf    on521236   5.547   2.853   3.692  0.2723  0.0367  0.4094
 3612ntf    on521237   5.333   2.867   3.564 -0.1031  0.1998  0.4621
 3612ntf    fn421238   5.392   2.779   3.923  0.7008 -0.2682 -0.5053
 3612ntf    fn421239   5.207   2.829   3.843  0.1249  0.1050 -0.1385
 3612ntf    fn421240   5.310   2.658   3.766  0.1105 -0.1201  0.1850
 3613ntf    cn121241   4.026   2.566   2.242  0.2376 -0.0065  0.0186
 3613ntf    sn221242   3.883   2.459   2.209  0.0733  0.2066  0.0303
 3613ntf    nn321243   3.943   2.321   2.255 -0.4004 -0.0717 -0.1751
 3613ntf    sn221244   3.982   2.205   2.157 -0.1177 -0.0077 -0.1395
 3613ntf    cn121245   4.144   2.146   2.215 -0.3084  0.0377  0.4388
 3613ntf    fn421246   4.014   2.692   2.200  0.1719  0.0869  0.3192
 3613ntf    fn421247   4.055   2.571   2.370  0.0770  0.3677  0.0442
 3613ntf    fn421248   4.134   2.516   2.183  0.4037  0.3441  0.0230
 3613ntf    on521249   3.782   2.514   2.296  0.0394  0.4192 -0.1451
 3613ntf    on521250   3.860   2.477   2.068  0.1135 -0.0943 -0.0152
 3613ntf    on521251   4.024   2.245   2.025  0.0941 -0.5939 -0.2523
 3613ntf    on521252   3.900   2.087   2.165 -0.2212  0.0965  0.3462
 3613ntf    fn421253   4.194   2.049   2.141 -0.1873 -0.0354  0.6142
 3613ntf    fn421254   4.235   2.242   2.214  0.2186 -0.4568  0.0791
 3613ntf    fn421255   4.138   2.091   2.336  0.5740 -0.1620  0.3980
 3614ntf    cn121256   5.480   7.115   0.643  0.3576  0.0376  0.2641
 3614ntf    sn221257   5.367   7.046   0.519  0.3397 -0.0956  0.3537
 3614ntf    nn321258   5.316   7.187   0.473  0.3794 -0.0411  0.4767
 3614ntf    sn221259   5.186   7.257   0.527  0.1931 -0.0108 -0.0056
 3614ntf    cn121260   5.055   7.189   0.421  0.2843 -0.1905 -0.0047
 3614ntf    fn421261   5.550   7.214   0.591 -0.0372  0.0567 -0.2296
 3614ntf    fn421262   5.416   7.164   0.748  0.3702 -0.0236  0.3012
 3614ntf    fn421263   5.568   7.024   0.683  0.2254 -0.2207 -0.0332
 3614ntf    on521264   5.457   6.988   0.422  0.0192  0.5105 -0.3179
 3614ntf    on521265   5.268   6.965   0.585  0.1231 -0.1460 -0.0288
 3614ntf    on521266   5.183   7.395   0.484 -0.0798 -0.0263 -0.0393
 3614ntf    on521267   5.146   7.232   0.663 -0.0167  0.2141 -0.0251
 3614ntf    fn421268   5.078   7.216   0.293 -0.0298 -0.4980 -0.1268
 3614ntf    fn421269   5.036   7.059   0.431 -0.0901 -0.1107  0.3604
 3614ntf    fn421270   4.940   7.243   0.459  0.3785 -0.0270  0.0503
 3615ntf    cn121271   2.937   2.211   4.909 -0.1863  0.3960 -0.1943
 3615ntf    sn221272   2.762   2.225   4.957 -0.2103 -0.4882 -0.0130
 3615ntf    nn321273   2.721   2.073   4.962 -0.1434 -0.5177 -0.3064
 3615ntf    sn221274   2.693   1.989   5.092 -0.2195  0.1196  0.0922
 3615ntf    cn121275   2.532   2.044   5.157 -0.2320 -0.0623  0.2163
 3615ntf    fn421276   2.963   2.169   4.786  0.0171  0.5106 -0.1909
 3615ntf    fn421277   3.005   2.323   4.926 -0.0945  0.2577  0.3826
 3615ntf    fn421278   2.989   2.123   4.992 -0.5694  0.3785  0.0306
 3615ntf    on521279   2.769   2.284   5.088 -0.4933 -0.1362 -0.1554
 3615ntf    on521280   2.698   2.297   4.849  0.0055 -0.0857  0.1274
 3615ntf    on521281   2.795   2.006   5.192 -0.1251 -0.4622  0.0945
 3615ntf    on521282   2.664   1.851   5.066  0.0728  0.0736  0.0089
 3615ntf    fn421283   2.546   2.140   5.247  0.9143  0.0996 -0.1116
 3615ntf    fn421284   2.454   2.103   5.067  0.1253  0.2613  0.1126
 3615ntf    fn421285   2.468   1.941   5.209  0.0023 -0.2559  0.1231
 3616ntf    cn121286   2.630   3.478   1.573 -0.3060 -0.1414 -0.0144
 3616ntf    sn221287   2.505   3.348   1.560 -0.1378 -0.2725 -0.3408
 3616ntf    nn321288   2.467   3.350   1.408  0.4059  0.0133 -0.4726
 3616ntf    sn221289   2.345   3.416   1.335 -0.0069 -0.2846 -0.0516
 3616ntf    cn121290   2.407   3.432   1.165  0.1524  0.1805  0.0509
 3616ntf    fn421291   2.747   3.443   1.522 -0.3232 -0.0226 -0.1383
 3616ntf    fn421292   2.589   3.588   1.512  0.1918 -0.0105 -0.1251
 3616ntf    fn421293   2.651   3.517   1.698 -0.0727 -0.1470 -0.0510
 3616ntf    on521294   2.586   3.235   1.599  0.1229 -0.1328 -0.4780
 3616ntf    on521295   2.405   3.399   1.651  0.0482 -0.3699 -0.0799
 3616ntf    on521296   2.314   3.547   1.385  0.5974 -0.1434 -0.0490
 3616ntf    on521297   2.232   3.327   1.326  0.1210 -0.4917  0.3551
 3616ntf    fn421298   2.529   3.482   1.154  0.1485  0.3134  0.5570
 3616ntf    fn421299   2.408   3.317   1.100 -0.2796  0.0008  0.3554
 3616ntf    fn421300   2.334   3.516   1.093  0.0664 -0.2487 -0.3665
 3617ntf    cn121301   4.425   3.224   4.788 -0.5912 -0.1315  0.0329
 3617ntf    sn221302   4.549   3.315   4.691 -0.0935 -0.4195  0.3987
 3617ntf    nn321303   4.666   3.213   4.666  0.5441  0.4376 -0.1575
 3617ntf    sn221304   4.789   3.189   4.760  0.4766  0.1455 -0.1417
 3617ntf    cn121305   4.911   3.299   4.681 -0.2066  0.6644 -0.4822
 3617ntf    fn421306   4.318   3.297   4.816 -0.4700  0.2218 -0.4092
 3617ntf    fn421307   4.379   3.110   4.738  0.0137 -0.1918 -0.4007
 3617ntf    fn421308   4.469   3.200   4.910 -0.3008  0.1386 -0.0200
 3617ntf    on521309   4.487   3.349   4.566  0.0763  0.1783  0.4734
 3617ntf    on521310   4.589   3.432   4.764 -0.1419  0.3363 -0.7646
 3617ntf    on521311   4.841   3.055   4.747  0.3286  0.0387  0.3298
 3617ntf    on521312   4.780   3.230   4.898 -0.2256  0.1210 -0.1796
 3617ntf    fn421313   5.023   3.307   4.751 -0.3429 -0.2238 -0.1550
 3617ntf    fn421314   4.948   3.246   4.566  0.4187  0.5874 -0.2504
 3617ntf    fn421315   4.854   3.416   4.661 -0.1480  0.7400 -0.2085
 3618ntf    cn121316   4.125   3.775   4.268 -0.0730 -0.0237 -0.0272
 3618ntf    sn221317   4.156   3.677   4.417  0.0394 -0.0278 -0.0529
 3618ntf    nn321318   4.013   3.686   4.481  0.2338  0.3436  0.3349
 3618ntf    sn221319   3.938   3.656   4.616  0.0579  0.1253  0.1878
 3618ntf    cn121320   3.865   3.490   4.599  0.0029  0.1427  0.2544
 3618ntf    fn421321   4.216   3.780   4.172 -0.1359  0.9453 -0.0530
 3618ntf    fn421322   4.008   3.747   4.212  0.0120  0.2535 -0.3510
 3618ntf    fn421323   4.116   3.899   4.313 -0.1974 -0.1886  0.4033
 3618ntf    on521324   4.188   3.543   4.374  0.5868  0.0682  0.0447
 3618ntf    on521325   4.259   3.750   4.487  0.1594 -0.6881  0.4686
 3618ntf    on521326   3.818   3.736   4.621 -0.0449  0.0529 -0.7888
 3618ntf    on521327   4.023   3.642   4.732  0.2673  0.3161  0.0587
 3618ntf    fn421328   3.962   3.401   4.582  0.1035  0.3656 -0.3607
 3618ntf    fn421329   3.789   3.454   4.701  0.2533  0.1179  0.4353
 3618ntf    fn421330   3.782   3.483   4.496  0.1073  0.7941  0.1186
 3619ntf    cn121331   4.264   4.349   5.742  0.0140 -0.0986  0.3202
 3619ntf    sn221332   4.249   4.168   5.746 -0.1420 -0.0941  0.0155
 3619ntf    nn321333   4.240   4.132   5.594  0.1712  0.3375 -0.1083
 3619ntf    sn221334   4.342   4.061   5.498 -0.0448 -0.3276  0.1516
 3619ntf    cn121335   4.284   3.894   5.540  0.0318 -0.3308  0.2442
 3619ntf    fn421336   4.388   4.395   5.739  0.0096 -0.0630  0.6575
 3619ntf    fn421337   4.210   4.393   5.630  0.0148  0.2029  0.4364
 3619ntf    fn421338   4.198   4.407   5.842 -0.3056  0.2315 -0.0795
 3619ntf    on521339   4.369   4.130   5.818 -0.2757  0.7987  0.7387
 3619ntf    on521340   4.126   4.145   5.818  0.0002  0.3747  0.4174
 3619ntf    on521341   4.479   4.081   5.536 -0.1850  0.6133  0.1799
 3619ntf    on521342   4.311   4.074   5.358  0.0107 -0.0138  0.1685
 3619ntf    fn421343   4.157   3.868   5.511  0.0024  0.1108 -0.0245
 3619ntf    fn421344   4.358   3.796   5.490  0.5548  0.2277 -0.0943
 3619ntf    fn421345   4.290   3.864   5.669  0.0009 -0.0220  0.3188
 3620ntf    cn121346   6.159   0.653   1.641  0.0847  0.5024 -0.3314
 3620ntf    sn221347   6.203   0.795   1.745 -0.2728  0.2554  0.1592
 3620ntf    nn321348   6.207   0.728   1.887  0.1110 -0.5986 -0.2499
 3620ntf    sn221349   6.079   0.715   1.976 -0.0534 -0.0800 -0.4064
 3620ntf    cn121350   6.166   0.644   2.119  0.0199  0.6427 -0.0906
 3620ntf    fn421351   6.130   0.679   1.515 -0.6820  0.1729 -0.2267
 3620ntf    fn421352   6.257   0.564   1.636 -0.0554  0.3612 -0.5915
 3620ntf    fn421353   6.054   0.583   1.681  0.4472  0.3345  0.3396
 3620ntf    on521354   6.339   0.814   1.703 -0.2967  0.2481  0.0785
 3620ntf    on521355   6.107   0.899   1.717  0.0199  0.6288  0.5349
 3620ntf    on521356   5.974   0.620   1.948  0.3090 -0.7082  0.3450
 3620ntf    on521357   6.028   0.840   2.026  0.4099 -0.0772  0.0675
 3620ntf    fn421358   6.086   0.647   2.224  0.1466  0.0845  0.0252
 3620ntf    fn421359   6.192   0.516   2.102 -0.6730  0.4397  0.3578
 3620ntf    fn421360   6.276   0.711   2.147  0.2300  0.2973 -0.0862
 3621ntf    cn121361   1.284   2.119   3.269  0.3336 -0.1055  0.0627
 3621ntf    sn221362   1.278   2.164   3.093 -0.3466 -0.2254  0.0499
 3621ntf    nn321363   1.430   2.177   3.055 -0.4153 -0.2037 -0.2194
 3621ntf    sn221364   1.522   2.304   3.073 -0.3619 -0.2454 -0.1971
 3621ntf    cn121365   1.665   2.239   3.164 -0.3470 -0.2320 -0.2107
 3621ntf    fn421366   1.320   2.226   3.337  0.0970 -0.0829  0.1533
 3621ntf    fn421367   1.174   2.073   3.327  0.4815  0.2833  0.6545
 3621ntf    fn421368   1.376   2.027   3.294  0.1619 -0.2915  0.0133
 3621ntf    on521369   1.223   2.042   3.038 -0.6911  0.0733 -0.2756
 3621ntf    on521370   1.203   2.286   3.075  0.7842  0.4450 -0.2480
 3621ntf    on521371   1.479   2.406   3.165  0.1719  0.2379 -0.4785
 3621ntf    on521372   1.584   2.347   2.950 -0.2024  0.5311  0.1532
 3621ntf    fn421373   1.739   2.160   3.088 -0.2071 -0.0755 -0.2359
 3621ntf    fn421374   1.749   2.329   3.212 -0.1928 -0.1909 -0.5570
 3621ntf    fn421375   1.614   2.181   3.272 -0.0722  0.0895  0.0971
 3622ntf    cn121376   4.704   0.675   1.491 -0.2216 -0.3633  0.0384
 3622ntf    sn221377   4.582   0.798   1.438  0.1458  0.0525  0.1431
 3622ntf    nn321378   4.476   0.700   1.375  0.1069  0.0480  0.2158
 3622ntf    sn221379   4.335   0.648   1.421  0.2513 -0.2690  0.3082
 3622ntf    cn121380   4.263   0.594   1.263  0.0568  0.0427  0.2893
 3622ntf    fn421381   4.658   0.593   1.584 -0.2598  0.1133  0.4418
 3622ntf    fn421382   4.746   0.602   1.389 -0.4522 -0.1369 -0.2201
 3622ntf    fn421383   4.805   0.741   1.545 -0.6169  0.6185 -0.4062
 3622ntf    on521384   4.540   0.861   1.560 -0.7475  0.3173 -0.2857
 3622ntf    on521385   4.646   0.875   1.334 -1.0779  0.4600 -0.3308
 3622ntf    on521386   4.242   0.753   1.456  0.3461 -0.4044  0.9711
 3622ntf    on521387   4.339   0.532   1.506  0.2743 -0.5006 -0.0080
 3622ntf    fn421388   4.238   0.693   1.178  0.7426 -0.0978 -0.0859
 3622ntf    fn421389   4.340   0.509   1.197 -0.8654 -0.1543 -0.5417
 3622ntf    fn421390   4.154   0.523   1.285  0.0469 -0.0276  0.0132
 3623ntf    cn121391   2.347   3.485   5.733  0.2896  0.1749  0.2264
 3623ntf    sn221392   2.408   3.627   5.638  0.1643  0.0509 -0.0409
 3623ntf    nn321393   2.288   3.726   5.657 -0.1056 -0.3837  0.5473
 3623ntf    sn221394   2.299   3.873   5.709 -0.0988 -0.0781 -0.2982
 3623ntf    cn121395   2.293   3.847   5.889 -0.0528  0.0186 -0.2820
 3623ntf    fn421396   2.442   3.398   5.762  0.3664  0.3256  0.4259
 3623ntf    fn421397   2.293   3.509   5.852 -0.2605  0.0609  0.0030
 3623ntf    fn421398   2.262   3.415   5.660  0.2588  0.5515 -0.0954
 3623ntf    on521399   2.538   3.650   5.697  0.2011  0.3375 -0.2333
 3623ntf    on521400   2.415   3.579   5.502  0.5991 -0.0678  0.0209
 3623ntf    on521401   2.179   3.948   5.680 -0.0328  0.0165 -0.3290
 3623ntf    on521402   2.422   3.943   5.683  0.3361 -0.6997  0.0572
 3623ntf    fn421403   2.177   3.800   5.932  0.2366 -0.3286  0.1402
 3623ntf    fn421404   2.382   3.762   5.939  0.0970  0.2758 -0.1134
 3623ntf    fn421405   2.312   3.961   5.953 -0.0077  0.0232 -0.3034
 3624ntf    cn121406   2.212   6.650   0.314  0.0469 -0.1741 -0.0672
 3624ntf    sn221407   2.320   6.794   0.290 -0.1064 -0.0220  0.1510
 3624ntf    nn321408   2.458   6.723   0.313 -0.3158 -0.4325  0.1559
 3624ntf    sn221409   2.539   6.653   0.199  0.1254  0.1063  0.1334
 3624ntf    cn121410   2.648   6.794   0.162  0.0825  0.1663  0.2350
 3624ntf    fn421411   2.260   6.546   0.248  0.2311 -0.3057  0.2692
 3624ntf    fn421412   2.204   6.627   0.444  0.1229 -0.0369 -0.0390
 3624ntf    fn421413   2.089   6.676   0.274 -0.1020  0.1422  0.5726
 3624ntf    on521414   2.296   6.838   0.155  0.4073 -0.0484  0.0515
 3624ntf    on521415   2.290   6.889   0.394 -0.3931  0.1712 -0.1051
 3624ntf    on521416   2.474   6.620   0.074 -0.6185  0.0223  0.5345
 3624ntf    on521417   2.623   6.551   0.258  0.1089  0.1911  0.3050
 3624ntf    fn421418   2.749   6.765   0.082 -0.1535 -0.3035  0.0993
 3624ntf    fn421419   2.581   6.890   0.102 -0.2754 -0.2476 -0.0381
 3624ntf    fn421420   2.702   6.852   0.268 -0.6200  1.0506  0.1161
 3625ntf    cn121421   5.943   5.093   3.668 -0.0696  0.3158  0.2233
 3625ntf    sn221422   5.985   5.258   3.602 -0.2415  0.1970 -0.1921
 3625ntf    nn321423   5.928   5.338   3.725 -0.0729 -0.3826  0.2719
 3625ntf    sn221424   6.001   5.360   3.862 -0.0291  0.1810  0.1593
 3625ntf    cn121425   5.934   5.522   3.910  0.2013  0.3866 -0.2021
 3625ntf    fn421426   6.018   5.057   3.770  0.1406  0.1555  0.0121
 3625ntf    fn421427   5.817   5.078   3.707 -0.1184  0.0531 -0.0304
 3625ntf    fn421428   5.965   4.995   3.582 -0.5330  0.3218  0.0951
 3625ntf    on521429   6.128   5.258   3.586 -0.1843  0.5464  0.2759
 3625ntf    on521430   5.898   5.263   3.487  0.1635 -0.0942 -0.5133
 3625ntf    on521431   6.142   5.392   3.854 -0.0535  0.2661  0.0581
 3625ntf    on521432   5.944   5.272   3.960 -0.5888  0.4335  0.0628
 3625ntf    fn421433   5.802   5.528   3.905  0.1958  0.2241 -0.2592
 3625ntf    fn421434   5.969   5.552   4.034  0.0191 -0.2663  0.0078
 3625ntf    fn421435   5.970   5.623   3.832  0.0271  0.2301 -0.4890
 3626ntf    cn121436   0.954   0.695   1.580  0.1065  0.2596  0.4551
 3626ntf    sn221437   0.793   0.617   1.544  0.4236 -0.2554  0.1296
 3626ntf    nn321438   0.809   0.483   1.624 -0.0039  0.0806  0.7898
 3626ntf    sn221439   0.733   0.353   1.582  0.2025  0.2070  0.0181
 3626ntf    cn121440   0.576   0.362   1.673  0.0498 -0.0027 -0.2204
 3626ntf    fn421441   0.974   0.803   1.507  0.4011 -0.2517 -0.2294
 3626ntf    fn421442   0.960   0.740   1.704 -0.1730 -0.0224  0.5715
 3626ntf    fn421443   1.058   0.614   1.568 -0.2733 -0.2566  0.5959
 3626ntf    on521444   0.689   0.703   1.595 -0.5414 -0.8916 -0.7368
 3626ntf    on521445   0.798   0.607   1.401 -0.2048 -0.4990  0.1210
 3626ntf    on521446   0.800   0.236   1.633  0.0387  0.0656 -0.0857
 3626ntf    on521447   0.687   0.344   1.445  0.8184  0.4189 -0.2019
 3626ntf    fn421448   0.605   0.356   1.802  0.3133 -0.0303 -0.2799
 3626ntf    fn421449   0.513   0.478   1.655 -0.2465 -0.1931 -0.4249
 3626ntf    fn421450   0.489   0.267   1.642 -0.0168  0.0206 -0.1042
 3627ntf    cn121451   4.543   0.136   5.376 -0.0447  0.1483  0.1758
 3627ntf    sn221452   4.625   0.195   5.528  0.0877 -0.2291  0.2523
 3627ntf    nn321453   4.709   0.313   5.467 -0.0615  0.1040  0.6901
 3627ntf    sn221454   4.667   0.464   5.455  0.1232  0.0947 -0.0844
 3627ntf    cn121455   4.705   0.501   5.281  0.4515 -0.4170 -0.1206
 3627ntf    fn421456   4.467   0.033   5.407  0.1912 -0.1498 -0.2277
 3627ntf    fn421457   4.457   0.226   5.332  0.2396  0.4636  0.2576
 3627ntf    fn421458   4.623   0.104   5.276 -0.1567 -0.1206  0.1725
 3627ntf    on521459   4.508   0.232   5.604  0.0751  0.2822 -0.0081
 3627ntf    on521460   4.705   0.085   5.574 -0.0693 -0.3295  0.2885
 3627ntf    on521461   4.759   0.554   5.518  0.0625  0.2422 -0.2046
 3627ntf    on521462   4.526   0.493   5.472  0.2181  0.3913  0.2056
 3627ntf    fn421463   4.672   0.624   5.247  0.2128 -0.3441  0.3653
 3627ntf    fn421464   4.834   0.480   5.259  0.5479 -0.5856  0.5908
 3627ntf    fn421465   4.641   0.416   5.202 -0.0116 -0.0950 -0.0956
 3628ntf    cn121466   3.563   0.269   6.185 -0.0894 -0.3996 -0.3797
 3628ntf    sn221467   3.485   0.151   6.299  0.0696  0.1066  0.2586
 3628ntf    nn321468   3.383   0.081   6.202 -0.1278 -0.5872  0.9577
 3628ntf    sn221469   3.239   0.125   6.157  0.3768 -0.0969 -0.2079
 3628ntf    cn121470   3.123   0.020   6.250 -0.1562  0.3381 -0.3755
 3628ntf    fn421471   3.476   0.317   6.096 -0.1428 -0.5370 -0.4015
 3628ntf    fn421472   3.612   0.367   6.259 -0.0556 -0.7206  0.0223
 3628ntf    fn421473   3.668   0.228   6.116  0.4344 -0.5740  0.5184
 3628ntf    on521474   3.592   0.067   6.346  0.3800  0.0810 -0.4761
 3628ntf    on521475   3.419   0.239   6.392  0.1466  0.3728  0.0611
 3628ntf    on521476   3.225   0.086   6.018  0.8209 -0.6831 -0.0915
 3628ntf    on521477   3.199   0.260   6.188  0.2485 -0.0942 -0.3794
 3628ntf    fn421478   3.131   0.063   6.375  0.6330 -0.4235 -0.1556
 3628ntf    fn421479   2.999   0.034   6.204 -0.5654 -0.5425  0.4282
 3628ntf    fn421480   3.142  -0.111   6.250 -0.8263  0.2379  0.0082
 3629ntf    cn121481   2.760   1.290   4.946  0.0529  0.2330  0.0191
 3629ntf    sn221482   2.683   1.126   4.928  0.1471  0.1772  0.1275
 3629ntf    nn321483   2.563   1.165   4.835  0.0160 -0.3460  0.0760
 3629ntf    sn221484   2.563   1.163   4.678  0.2700 -0.1675  0.0737
 3629ntf    cn121485   2.534   0.988   4.641 -0.1705 -0.1023  0.1016
 3629ntf    fn421486   2.796   1.343   4.830 -0.1414  0.4634  0.0641
 3629ntf    fn421487   2.673   1.377   4.995  0.2618  0.5049 -0.0907
 3629ntf    fn421488   2.866   1.300   5.024  0.0478  0.3503  0.0115
 3629ntf    on521489   2.789   1.037   4.886 -0.0865  0.1712 -0.4614
 3629ntf    on521490   2.637   1.101   5.062 -0.0649 -0.3179 -0.0351
 3629ntf    on521491   2.690   1.205   4.626  0.3981 -0.0837  0.4479
 3629ntf    on521492   2.442   1.218   4.621  0.5281  0.2077 -0.1165
 3629ntf    fn421493   2.418   0.936   4.678 -0.2999 -0.0667 -0.2457
 3629ntf    fn421494   2.543   0.960   4.512 -0.1696  0.1342  0.0514
 3629ntf    fn421495   2.632   0.910   4.684  0.3707  0.3098 -0.3636
 3630ntf    cn121496   1.468   3.340   2.382  0.4325 -0.1109  0.0562
 3630ntf    sn221497   1.524   3.513   2.376  0.0956  0.0054  0.1903
 3630ntf    nn321498   1.675   3.497   2.334  0.0659  0.3918 -0.0697
 3630ntf    sn221499   1.719   3.504   2.183  0.0326 -0.1986 -0.1120
 3630ntf    cn121500   1.751   3.680   2.148 -0.3590 -0.0871  0.0780
 3630ntf    fn421501   1.344   3.332   2.428  0.5451 -0.7041  0.2615
 3630ntf    fn421502   1.464   3.291   2.260 -0.5019  0.1558 -0.0293
 3630ntf    fn421503   1.550   3.261   2.448 -0.1574 -0.2875  0.5917
 3630ntf    on521504   1.439   3.588   2.288  0.2161  0.0418  0.1038
 3630ntf    on521505   1.505   3.556   2.512 -0.3875  0.0715  0.1002
 3630ntf    on521506   1.618   3.476   2.085  0.2636 -0.3378 -0.3124
 3630ntf    on521507   1.845   3.438   2.161  0.0208 -0.2070 -0.1540
 3630ntf    fn421508   1.647   3.758   2.172 -0.2321  0.0540  0.1716
 3630ntf    fn421509   1.853   3.733   2.214 -0.2789 -0.2696  0.1028
 3630ntf    fn421510   1.775   3.695   2.019  0.1304 -0.4060  0.1256
 3631ntf    cn121511   5.840   4.387   1.386  0.0878  0.2170 -0.1764
 3631ntf    sn221512   5.760   4.447   1.538  0.1102 -0.0472 -0.0603
 3631ntf    nn321513   5.871   4.425   1.647 -0.3788  0.4594  0.5463
 3631ntf    sn221514   5.999   4.512   1.674 -0.0167  0.0695  0.1142
 3631ntf    cn121515   5.946   4.583   1.833 -0.1407  0.2988 -0.0284
 3631ntf    fn421516   5.871   4.259   1.394 -0.4179  0.1292  0.3924
 3631ntf    fn421517   5.755   4.409   1.288 -0.1554 -0.1877 -0.0563
 3631ntf    fn421518   5.945   4.464   1.358  0.1732  0.0788 -0.2366
 3631ntf    on521519   5.734   4.587   1.517 -0.3357 -0.0570  0.4081
 3631ntf    on521520   5.655   4.349   1.551 -0.1718  0.2062 -0.4118
 3631ntf    on521521   6.033   4.624   1.589 -0.2828 -0.3371 -0.5392
 3631ntf    on521522   6.109   4.426   1.707  0.2284  0.2179 -0.3127
 3631ntf    fn421523   5.905   4.489   1.917  0.4425 -0.1419 -0.2330
 3631ntf    fn421524   6.031   4.656   1.903 -0.3946  0.7196 -0.1544
 3631ntf    fn421525   5.841   4.659   1.808 -0.2812  0.0128 -0.3237
 3632ntf    cn121526   3.988   1.570   1.085 -0.1730  0.2980  0.0143
 3632ntf    sn221527   4.036   1.576   1.260 -0.1914 -0.2031  0.0367
 3632ntf    nn321528   3.937   1.471   1.321 -0.5629  0.1323  0.0166
 3632ntf    sn221529   3.946   1.391   1.456  0.0426 -0.1145 -0.1665
 3632ntf    cn121530   3.863   1.500   1.575  0.3536  0.2685 -0.3003
 3632ntf    fn421531   3.964   1.449   1.039  0.3161  0.0261  0.4752
 3632ntf    fn421532   3.876   1.637   1.061 -0.2184  0.3782  0.4548
 3632ntf    fn421533   4.070   1.626   0.997 -0.6193  0.3645 -0.3651
 3632ntf    on521534   4.176   1.545   1.243 -0.2181 -0.2500 -0.1015
 3632ntf    on521535   4.004   1.707   1.310 -0.2119 -0.1533 -0.1069
 3632ntf    on521536   4.080   1.382   1.509  0.1505  0.3681 -0.3576
 3632ntf    on521537   3.861   1.274   1.451  0.1016 -0.1534 -0.2856
 3632ntf    fn421538   3.736   1.507   1.539  0.1105 -0.5739  0.3577
 3632ntf    fn421539   3.858   1.458   1.700 -0.5337 -0.0508 -0.4425
 3632ntf    fn421540   3.900   1.626   1.589  0.4346  0.2137 -0.0160
 3633ntf    cn121541   4.194   6.080   2.303  0.1787 -0.3818 -0.4505
 3633ntf    sn221542   4.349   6.115   2.390 -0.2109  0.0502  0.0811
 3633ntf    nn321543   4.317   6.093   2.542 -0.2115  0.3656  0.1269
 3633ntf    sn221544   4.421   6.036   2.644 -0.1223  0.0521 -0.1388
 3633ntf    cn121545   4.529   6.182   2.657 -0.0617  0.0150 -0.2274
 3633ntf    fn421546   4.101   6.054   2.394  0.1953  0.0656 -0.3041
 3633ntf    fn421547   4.152   6.181   2.229 -0.4052 -0.0686  0.2869
 3633ntf    fn421548   4.206   5.972   2.228  0.0011 -0.6770 -0.0589
 3633ntf    on521549   4.432   6.019   2.321 -0.0235  0.1727  0.1352
 3633ntf    on521550   4.365   6.255   2.360  0.3874  0.0714  0.4762
 3633ntf    on521551   4.513   5.928   2.616  0.6081  0.5717  0.2305
 3633ntf    on521552   4.364   6.039   2.776  0.1779 -0.1642 -0.0004
 3633ntf    fn421553   4.598   6.199   2.545  0.4118  0.4749  0.1333
 3633ntf    fn421554   4.461   6.294   2.674  0.3042  0.2191 -0.1040
 3633ntf    fn421555   4.615   6.172   2.757 -0.0391  0.1591 -0.2322
 3634ntf    cn121556   5.265   1.780   3.555 -0.3862  0.3003  0.1149
 3634ntf    sn221557   5.221   1.604   3.543 -0.1134  0.2359  0.0680
 3634ntf    nn321558   5.067   1.621   3.518 -0.1118 -0.0139 -0.1194
 3634ntf    sn221559   4.987   1.646   3.386  0.2768  0.6673 -0.2281
 3634ntf    cn121560   4.925   1.815   3.412  0.1596  0.6283 -0.2566
 3634ntf    fn421561   5.234   1.843   3.443 -0.1781 -0.2781 -0.2747
 3634ntf    fn421562   5.204   1.835   3.659  0.0463  0.0466  0.5043
 3634ntf    fn421563   5.394   1.802   3.569 -0.3365  0.1258 -0.0637
 3634ntf    on521564   5.310   1.555   3.440  0.1586  0.9469 -0.0430
 3634ntf    on521565   5.247   1.556   3.676 -0.0846 -0.3404 -0.1403
 3634ntf    on521566   4.868   1.565   3.376  0.2273  0.7694 -0.4967
 3634ntf    on521567   5.072   1.664   3.271  0.7696 -0.0300  0.0218
 3634ntf    fn421568   4.928   1.886   3.300  0.3914  0.0432 -0.6291
 3634ntf    fn421569   4.798   1.806   3.448  0.4378 -0.1383  0.5630
 3634ntf    fn421570   4.990   1.887   3.501 -0.6561  0.7305  0.2628
 3635ntf    cn121571   6.153   6.481   4.029 -0.2009  0.2162 -0.3153
 3635ntf    sn221572   6.200   6.656   4.024 -0.0854  0.1841 -0.3605
 3635ntf    nn321573   6.357   6.650   4.031 -0.0810  0.8870  0.3240
 3635ntf    sn221574   6.456   6.636   3.910 -0.4161  0.3837  0.1046
 3635ntf    cn121575   6.487   6.813   3.882  0.2572  0.2733  0.1446
 3635ntf    fn421576   6.029   6.454   3.994 -0.0520 -0.7107 -0.1648
 3635ntf    fn421577   6.218   6.400   3.948  0.2179  0.0403  0.1888
 3635ntf    fn421578   6.171   6.434   4.152  0.1156 -0.0726 -0.4721
 3635ntf    on521579   6.140   6.701   3.901  0.2633  0.1326 -0.5530
 3635ntf    on521580   6.153   6.718   4.145  0.3175  0.4093 -0.3170
 3635ntf    on521581   6.409   6.586   3.783 -0.3048 -0.4414  0.3864
 3635ntf    on521582   6.585   6.584   3.946 -0.1300  0.6633 -0.4964
 3635ntf    fn421583   6.511   6.882   3.992  0.3755  0.1420  0.2025
 3635ntf    fn421584   6.599   6.831   3.813  0.3022  0.2164  0.2025
 3635ntf    fn421585   6.392   6.878   3.817 -0.1420  0.0452  0.4949
 3636ntf    cn121586   4.331   0.021   3.986  0.1183 -0.2050 -0.1729
 3636ntf    sn221587   4.237   0.175   4.006  0.1902 -0.2150  0.2411
 3636ntf    nn321588   4.138   0.123   4.117  0.0367  0.1580  0.2800
 3636ntf    sn221589   3.987   0.086   4.095  0.0244  0.4067 -0.0681
 3636ntf    cn121590   3.911   0.250   4.078 -0.0783  0.3778  0.1061
 3636ntf    fn421591   4.378  -0.025   4.101 -0.1701  0.0407  0.0430
 3636ntf    fn421592   4.255  -0.068   3.924 -0.4048  0.4696 -0.5073
 3636ntf    fn421593   4.431   0.046   3.902  0.2937 -0.3259 -0.0021
 3636ntf    on521594   4.329   0.269   4.065 -0.1335  0.1979  0.0965
 3636ntf    on521595   4.188   0.199   3.873  0.4676 -0.1656  0.1477
 3636ntf    on521596   3.924   0.032   4.213 -0.6875  1.0797 -0.1356
 3636ntf    on521597   3.957   0.013   3.974 -0.4371 -0.0753  0.3311
 3636ntf    fn421598   3.971   0.344   4.151 -0.0593  0.3769  0.0917
 3636ntf    fn421599   3.919   0.284   3.951 -0.1071  0.1492  0.0429
 3636ntf    fn421600   3.787   0.243   4.123  0.0282 -0.0814  0.3376
 3637ntf    cn121601   0.678   3.272   2.193 -0.2962  0.4121  0.1011
 3637ntf    sn221602   0.610   3.249   2.359  0.1997 -0.0129  0.2472
 3637ntf    nn321603   0.611   3.094   2.385  0.0507 -0.0362  0.1207
 3637ntf    sn221604   0.725   3.015   2.460  0.1769 -0.0079 -0.0400
 3637ntf    cn121605   0.727   3.087   2.627 -0.0448 -0.1510  0.0251
 3637ntf    fn421606   0.808   3.252   2.182 -0.4228 -0.1430 -0.4462
 3637ntf    fn421607   0.621   3.192   2.104  0.4182 -0.1748  0.1621
 3637ntf    fn421608   0.668   3.394   2.141  0.0420  0.5659  0.3895
 3637ntf    on521609   0.695   3.330   2.442  0.2398  0.1989 -0.0027
 3637ntf    on521610   0.474   3.298   2.351  0.1792 -0.0832  0.1638
 3637ntf    on521611   0.858   3.042   2.412  0.3260 -0.2565  0.2245
 3637ntf    on521612   0.699   2.874   2.476 -0.2072  0.0835  0.1613
 3637ntf    fn421613   0.798   3.199   2.626 -0.3271  0.0256 -0.3550
 3637ntf    fn421614   0.610   3.136   2.664 -0.2802 -0.8070  0.1597
 3637ntf    fn421615   0.770   3.005   2.722  0.2466  0.0007  0.0252
 3638ntf    cn121616   5.825   0.358   1.455 -0.1335 -0.3749  0.2493
 3638ntf    sn221617   5.654   0.295   1.451 -0.2625 -0.0164  0.0761
 3638ntf    nn321618   5.570   0.419   1.404 -0.4398  0.1617  0.8461
 3638ntf    sn221619   5.423   0.423   1.348 -0.2108 -0.1519  0.2098
 3638ntf    cn121620   5.340   0.515   1.481  0.0314  0.0380  0.2311
 3638ntf    fn421621   5.847   0.426   1.344 -0.4353 -0.3967  0.1759
 3638ntf    fn421622   5.856   0.434   1.559  0.2929 -0.1516 -0.0381
 3638ntf    fn421623   5.914   0.261   1.455  0.4199  0.1294  0.0441
 3638ntf    on521624   5.667   0.190   1.353  0.0014  0.4100 -0.3537
 3638ntf    on521625   5.625   0.248   1.584  0.0579 -0.2926  0.0484
 3638ntf    on521626   5.362   0.293   1.353  0.1621 -0.3246  0.3298
 3638ntf    on521627   5.415   0.498   1.225  0.7231 -0.7832 -0.2484
 3638ntf    fn421628   5.358   0.457   1.598 -0.5805 -0.1964  0.2130
 3638ntf    fn421629   5.399   0.633   1.496  0.3415 -0.0226 -0.5007
 3638ntf    fn421630   5.211   0.541   1.469 -0.0227 -0.1329  0.4406
 3639ntf    cn121631   3.346   6.540   5.280 -0.1250  0.0225  0.1847
 3639ntf    sn221632   3.316   6.564   5.102 -0.5498 -0.0837  0.2419
 3639ntf    nn321633   3.359   6.715   5.097  0.0738 -0.2639  0.0974
 3639ntf    sn221634   3.304   6.834   5.010  0.4498  0.0312  0.2608
 3639ntf    cn121635   3.194   6.915   5.130  0.1156 -0.1536  0.0809
 3639ntf    fn421636   3.473   6.516   5.311 -0.1528  0.0614  0.3303
 3639ntf    fn421637   3.313   6.642   5.357 -0.2856 -0.3205  0.5781
 3639ntf    fn421638   3.270   6.443   5.328  0.0560 -0.5233 -0.6079
 3639ntf    on521639   3.404   6.479   5.026 -0.5973 -0.0899  0.1940
 3639ntf    on521640   3.173   6.544   5.092 -0.4940 -0.4168  0.1200
 3639ntf    on521641   3.209   6.801   4.906 -0.0409  0.2053  0.6474
 3639ntf    on521642   3.394   6.942   4.978 -0.4096  0.6515 -0.1038
 3639ntf    fn421643   3.089   6.836   5.151 -0.2796  0.3118 -0.1310
 3639ntf    fn421644   3.248   6.934   5.249  0.1711  0.6109 -0.0655
 3639ntf    fn421645   3.146   7.029   5.085  0.2857 -0.1704 -0.1421
 3640ntf    cn121646   4.430   6.833   1.931 -0.1757 -0.1271 -0.0745
 3640ntf    sn221647   4.474   6.778   2.099  0.2432  0.3537 -0.0248
 3640ntf    nn321648   4.333   6.723   2.142  0.3644  0.1097  0.0677
 3640ntf    sn221649   4.264   6.719   2.283 -0.1449  0.0032 -0.1854
 3640ntf    cn121650   4.175   6.877   2.276  0.1258  0.1613 -0.0334
 3640ntf    fn421651   4.537   6.868   1.863 -0.3215 -0.2397 -0.3657
 3640ntf    fn421652   4.364   6.746   1.856 -0.0851 -0.6170  0.4069
 3640ntf    fn421653   4.353   6.939   1.947  0.0932  0.0497  0.0572
 3640ntf    on521654   4.584   6.687   2.075 -0.1932 -0.1587 -0.1181
 3640ntf    on521655   4.506   6.904   2.161 -0.5392  0.7462 -0.3994
 3640ntf    on521656   4.354   6.733   2.394 -0.2027  0.0620 -0.1457
 3640ntf    on521657   4.164   6.615   2.294  0.2374 -0.3463  0.0315
 3640ntf    fn421658   4.104   6.868   2.164  0.0476  0.1487  0.0173
 3640ntf    fn421659   4.077   6.887   2.364 -0.1034  0.0065 -0.2729
 3640ntf    fn421660   4.245   6.989   2.261 -0.1768  0.2652 -0.7190
 3641ntf    cn121661   2.147   3.713   3.529 -0.2974 -0.0553 -0.2842
 3641ntf    sn221662   2.219   3.756   3.690 -0.2960 -0.1598 -0.2572
 3641ntf    nn321663   2.104   3.743   3.795 -0.1352 -0.1026 -0.0723
 3641ntf    sn221664   2.015   3.855   3.860  0.0776  0.2462 -0.3801
 3641ntf    cn121665   1.862   3.844   3.763 -0.3983  0.0597  0.3834
 3641ntf    fn421666   2.064   3.806   3.485 -0.0861 -0.0505 -0.6787
 3641ntf    fn421667   2.242   3.689   3.440 -0.1029  0.0946 -0.1175
 3641ntf    fn421668   2.069   3.607   3.545  0.1358 -0.2844  0.3190
 3641ntf    on521669   2.313   3.648   3.708 -0.1176  0.0042 -0.1932
 3641ntf    on521670   2.275   3.889   3.680 -0.1367 -0.2336 -0.3641
 3641ntf    on521671   2.056   3.993   3.844 -0.6187  0.4965 -0.0600
 3641ntf    on521672   1.979   3.816   3.994  0.6624 -0.1491 -0.3345
 3641ntf    fn421673   1.753   3.884   3.826 -0.1706  0.3506  0.5976
 3641ntf    fn421674   1.874   3.922   3.657  0.2889 -0.2705  0.2106
 3641ntf    fn421675   1.843   3.721   3.719  0.0645  0.1270 -0.0170
 3642ntf    cn121676   5.391   6.766   5.760  0.1049 -0.1062  0.2216
 3642ntf    sn221677   5.386   6.914   5.654 -0.1361 -0.1777  0.1332
 3642ntf    nn321678   5.345   6.852   5.516 -0.2068 -0.3847  0.2468
 3642ntf    sn221679   5.201   6.825   5.459 -0.1146  0.2996 -0.3288
 3642ntf    cn121680   5.171   6.975   5.361  0.1328  0.3569 -0.3194
 3642ntf    fn421681   5.464   6.784   5.869 -0.0862 -0.6253  0.4392
 3642ntf    fn421682   5.272   6.722   5.795 -0.2851  0.1697 -0.7223
 3642ntf    fn421683   5.446   6.669   5.689 -0.3307 -0.2170  0.0305
 3642ntf    on521684   5.302   7.015   5.715  0.4551  0.3760  0.0468
 3642ntf    on521685   5.527   6.944   5.651 -0.0901 -0.3334  0.6282
 3642ntf    on521686   5.093   6.833   5.553  0.3162  0.1066  0.1893
 3642ntf    on521687   5.199   6.716   5.364  1.1038 -0.0374  0.0112
 3642ntf    fn421688   5.180   7.088   5.428 -0.7542  0.3354 -0.1495
 3642ntf    fn421689   5.253   6.987   5.258  0.5951 -0.1933 -0.0242
 3642ntf    fn421690   5.053   6.979   5.300 -0.3889 -0.0596  0.6441
 3643ntf    cn121691   2.727   6.001   6.803 -0.0183 -0.2099  0.0172
 3643ntf    sn221692   2.811   5.866   6.714 -0.0960 -0.1230 -0.1873
 3643ntf    nn321693   2.962   5.889   6.753  0.2556 -0.9120 -1.0335
 3643ntf    sn221694   3.048   5.806   6.855  0.0858  0.0047 -0.1249
 3643ntf    cn121695   3.125   5.685   6.743  0.1369  0.0956 -0.1886
 3643ntf    fn421696   2.735   5.998   6.935 -0.4387  0.2212  0.0530
 3643ntf    fn421697   2.776   6.118   6.767  0.4170 -0.3368  0.1787
 3643ntf    fn421698   2.597   6.001   6.781 -0.1141 -0.6773  0.5487
 3643ntf    on521699   2.753   5.739   6.749 -0.1907  0.1949  0.8351
 3643ntf    on521700   2.786   5.915   6.580  0.0573 -0.4834 -0.3483
 3643ntf    on521701   2.974   5.726   6.950 -0.7084  0.5847 -0.2424
 3643ntf    on521702   3.167   5.872   6.902  0.2234 -0.3324 -0.0003
 3643ntf    fn421703   3.028   5.614   6.687 -0.2389 -0.2175  0.8342
 3643ntf    fn421704   3.191   5.742   6.644  0.0288  0.1735 -0.2163
 3643ntf    fn421705   3.207   5.597   6.799 -0.2141 -0.2526 -0.2157
 3644ntf    cn121706   3.292   2.020   3.864 -0.6923  0.0203  0.1733
 3644ntf    sn221707   3.328   1.976   4.036  0.1433 -0.1815 -0.0444
 3644ntf    nn321708   3.364   1.825   4.012 -0.5170 -0.4194  0.3921
 3644ntf    sn221709   3.505   1.773   3.966 -0.3327  0.1934  0.2449
 3644ntf    cn121710   3.581   1.709   4.119 -0.1147 -0.0460  0.0370
 3644ntf    fn421711   3.398   2.045   3.787 -0.8548  0.1059 -0.0230
 3644ntf    fn421712   3.212   1.932   3.806 -0.3856 -0.3030  0.2343
 3644ntf    fn421713   3.230   2.136   3.854  0.0232  0.3719 -0.3154
 3644ntf    on521714   3.437   2.062   4.074  0.4103 -0.4295 -0.2509
 3644ntf    on521715   3.201   1.986   4.104  0.0336 -0.2548 -0.2380
 3644ntf    on521716   3.592   1.873   3.910 -0.1068  0.0117  0.2691
 3644ntf    on521717   3.497   1.657   3.881 -0.3618  0.2241  0.2060
 3644ntf    fn421718   3.568   1.783   4.227 -0.0560 -0.5623  0.4012
 3644ntf    fn421719   3.532   1.594   4.165 -0.0629 -0.0698  0.0328
 3644ntf    fn421720   3.711   1.697   4.096 -0.1229  0.0552 -0.0618
 3645ntf    cn121721   6.786   1.689   5.279  0.4762 -0.2375  0.3446
 3645ntf    sn221722   6.731   1.861   5.296 -0.0220 -0.3919  0.2955
 3645ntf    nn321723   6.764   1.919   5.153 -0.2659 -0.0748  0.3654
 3645ntf    sn221724   6.662   1.947   5.038  0.1957 -0.2132 -0.0790
 3645ntf    cn121725   6.608   2.114   5.084 -0.4614 -0.3974 -0.1660
 3645ntf    fn421726   6.775   1.626   5.395 -0.0030  0.2094  0.5472
 3645ntf    fn421727   6.711   1.625   5.191  0.0601  0.2704  0.3229
 3645ntf    fn421728   6.910   1.677   5.234  0.4761  0.2171  0.2248
 3645ntf    on521729   6.594   1.851   5.340 -0.0013 -0.1407  0.4186
 3645ntf    on521730   6.822   1.912   5.395  0.1331 -0.5478  0.2331
 3645ntf    on521731   6.545   1.862   5.035  0.0934 -0.0621 -0.4747
 3645ntf    on521732   6.734   1.966   4.914 -0.2326 -0.1161 -0.3162
 3645ntf    fn421733   6.549   2.131   5.201  0.0644  0.1432  0.0260
 3645ntf    fn421734   6.708   2.201   5.086 -0.4294 -0.4203 -0.7010
 3645ntf    fn421735   6.515   2.161   5.003 -0.2048  0.7033  0.1517
 3646ntf    cn121736   3.180   3.148   1.588 -0.4184 -0.1184 -0.0104
 3646ntf    sn221737   3.303   3.254   1.671 -0.5509  0.2945 -0.3411
 3646ntf    nn321738   3.206   3.372   1.709 -0.1252  0.6517 -0.3612
 3646ntf    sn221739   3.228   3.476   1.825  0.0309  0.1944  0.0250
 3646ntf    cn121740   3.221   3.631   1.730  0.4168  0.1761 -0.0373
 3646ntf    fn421741   3.090   3.102   1.674 -0.3805  0.5196  0.3770
 3646ntf    fn421742   3.109   3.208   1.495 -0.2280  0.1294  0.0039
 3646ntf    fn421743   3.236   3.040   1.535  0.6540  0.2310  0.3681
 3646ntf    on521744   3.347   3.174   1.782  0.3165  0.5716 -0.4782
 3646ntf    on521745   3.403   3.291   1.574 -0.0652 -0.6948 -0.2229
 3646ntf    on521746   3.352   3.474   1.898  0.3806  0.0955 -0.5618
 3646ntf    on521747   3.104   3.480   1.898 -0.1411 -0.3854 -0.2294
 3646ntf    fn421748   3.101   3.653   1.677  0.0999 -0.7515  0.2813
 3646ntf    fn421749   3.257   3.739   1.797 -0.2218  0.0234  0.5681
 3646ntf    fn421750   3.302   3.628   1.625  0.1510 -0.3815 -0.2307
 3647ntf    cn121751   0.079   4.238   1.355 -0.2901 -0.4670 -0.0063
 3647ntf    sn221752   0.059   4.082   1.263  0.2102 -0.3068 -0.3890
 3647ntf    nn321753  -0.018   3.989   1.362  0.1515  0.4257  0.2608
 3647ntf    sn221754  -0.163   3.931   1.374  0.1485  0.4199  0.1944
 3647ntf    cn121755  -0.172   3.823   1.227 -0.4473  0.2433  0.3565
 3647ntf    fn421756   0.123   4.222   1.478  0.5138  0.2326 -0.1917
 3647ntf    fn421757   0.151   4.327   1.288  0.4579 -0.5319  0.7037
 3647ntf    fn421758  -0.043   4.290   1.359  0.0635  0.3492  0.2536
 3647ntf    on521759  -0.016   4.126   1.147  0.4481 -0.1213 -0.4742
 3647ntf    on521760   0.195   4.037   1.245  0.3164 -0.1516  0.0251
 3647ntf    on521761  -0.267   4.028   1.352  0.1552  0.3562 -0.1281
 3647ntf    on521762  -0.175   3.843   1.487  0.3613 -0.1463 -0.2160
 3647ntf    fn421763  -0.171   3.892   1.115 -0.0958 -0.2515  0.0489
 3647ntf    fn421764  -0.070   3.739   1.225 -0.6231  0.0306  0.2919
 3647ntf    fn421765  -0.281   3.748   1.221 -0.2656  0.0623 -0.8343
 3648ntf    cn121766   2.009   1.846   5.772  0.1337 -0.1974  0.3672
 3648ntf    sn221767   2.095   1.862   5.931  0.3441  0.3867  0.1949
 3648ntf    nn321768   2.109   1.707   5.952 -0.3224  0.3666  0.5098
 3648ntf    sn221769   2.031   1.595   6.031 -0.1645 -0.1859 -0.1068
 3648ntf    cn121770   2.159   1.521   6.136 -0.3592  0.0154  0.2731
 3648ntf    fn421771   2.092   1.808   5.677 -0.5146 -0.2660 -0.1796
 3648ntf    fn421772   1.917   1.751   5.775 -0.2553  0.1578 -0.1519
 3648ntf    fn421773   1.952   1.958   5.733  0.3173 -0.0995  0.3780
 3648ntf    on521774   2.213   1.931   5.886  0.5474  0.0519  0.2074
 3648ntf    on521775   1.999   1.931   6.014 -0.1673  0.5681 -0.5450
 3648ntf    on521776   1.996   1.477   5.956  0.1878 -0.2631 -0.1550
 3648ntf    on521777   1.938   1.637   6.132  0.1545  0.5863 -0.1196
 3648ntf    fn421778   2.133   1.413   6.208 -0.0663 -0.2281  0.0211
 3648ntf    fn421779   2.270   1.478   6.078 -0.1195  0.4805  0.3810
 3648ntf    fn421780   2.197   1.612   6.224  0.1714  0.2690 -0.2082
 3649ntf    cn121781   4.255   4.565   4.146  0.1243 -0.0952  0.1005
 3649ntf    sn221782   4.146   4.588   4.003  0.3200 -0.0366 -0.0388
 3649ntf    nn321783   4.227   4.701   3.930 -0.0298  0.2440  0.0066
 3649ntf    sn221784   4.178   4.849   3.910 -0.2052  0.1910  0.0435
 3649ntf    cn121785   4.209   4.880   3.733  0.1207 -0.4061 -0.0054
 3649ntf    fn421786   4.288   4.676   4.210  0.6614 -0.3354  0.2454
 3649ntf    fn421787   4.204   4.481   4.235  0.4589 -0.7113 -0.2819
 3649ntf    fn421788   4.371   4.513   4.109  0.0206  0.1773 -0.6157
 3649ntf    on521789   4.163   4.457   3.946  0.1516 -0.1825  0.2487
 3649ntf    on521790   4.015   4.619   4.054  0.4983  0.3066  0.2118
 3649ntf    on521791   4.272   4.941   3.970  0.0790 -0.1055  0.0539
 3649ntf    on521792   4.038   4.880   3.927 -0.3077 -0.1718 -0.1401
 3649ntf    fn421793   4.174   4.781   3.652  0.4551 -0.3940 -0.1636
 3649ntf    fn421794   4.155   4.990   3.684  0.7341  0.0059  0.2402
 3649ntf    fn421795   4.337   4.895   3.707 -0.1138  0.2146 -0.8317
 3650ntf    cn121796   6.746   3.609   5.137 -0.1602 -0.1709 -0.1435
 3650ntf    sn221797   6.895   3.522   5.194 -0.0138  0.2219  0.0775
 3650ntf    nn321798   6.942   3.615   5.311  0.6532 -0.3057  0.2349
 3650ntf    sn221799   7.040   3.737   5.295 -0.0273  0.2555  0.3168
 3650ntf    cn121800   7.201   3.666   5.338  0.1236  0.2465 -0.2663
 3650ntf    fn421801   6.772   3.735   5.106 -0.1869 -0.1015  0.1157
 3650ntf    fn421802   6.688   3.553   5.032 -0.4905  0.2528 -0.1915
 3650ntf    fn421803   6.651   3.606   5.229  0.2259 -0.0385  0.2652
 3650ntf    on521804   6.829   3.400   5.233  0.2554 -0.1199 -0.5187
 3650ntf    on521805   6.974   3.507   5.074 -0.4239  0.2417 -0.1996
 3650ntf    on521806   7.019   3.840   5.394 -0.8424  0.0729  0.3433
 3650ntf    on521807   7.055   3.790   5.162 -0.1710 -0.1536  0.1358
 3650ntf    fn421808   7.302   3.751   5.328  0.4304 -0.1069 -0.2160
 3650ntf    fn421809   7.198   3.616   5.460 -0.0198  0.0826 -0.3369
 3650ntf    fn421810   7.228   3.561   5.261 -0.1509  0.1236 -0.1946
 3651ntf    cn121811   1.337   4.183   0.094  0.3625 -0.1578  0.4421
 3651ntf    sn221812   1.505   4.129   0.052  0.2546 -0.3187  0.2169
 3651ntf    nn321813   1.483   4.115  -0.103  0.3355 -0.2916  0.2033
 3651ntf    sn221814   1.534   4.206  -0.221 -0.1868 -0.0452  0.1665
 3651ntf    cn121815   1.684   4.111  -0.259 -0.1410  0.0610  0.0825
 3651ntf    fn421816   1.313   4.304   0.046 -0.5323 -0.5048 -0.0190
 3651ntf    fn421817   1.253   4.098   0.038  0.1357  0.1919  0.2501
 3651ntf    fn421818   1.326   4.188   0.226  0.3364 -0.3814  0.4486
 3651ntf    on521819   1.597   4.228   0.101 -0.2604  0.3485 -0.1601
 3651ntf    on521820   1.513   3.992   0.096 -0.0206 -0.1776  0.7107
 3651ntf    on521821   1.577   4.340  -0.192  0.1653 -0.1299  0.0405
 3651ntf    on521822   1.457   4.187  -0.342 -0.2166 -0.9848  0.3263
 3651ntf    fn421823   1.659   3.987  -0.298 -0.5413  0.1723 -0.0179
 3651ntf    fn421824   1.751   4.171  -0.356 -0.3730  0.1143 -0.0448
 3651ntf    fn421825   1.758   4.103  -0.150 -0.0158 -0.1261 -0.0169
 3652ntf    cn121826   2.462   6.065   6.502 -0.3338 -0.1193  0.2137
 3652ntf    sn221827   2.287   6.083   6.454 -0.2540 -0.0745 -0.0586
 3652ntf    nn321828   2.216   6.088   6.594  0.6092 -0.2603  0.3954
 3652ntf    sn221829   2.157   5.971   6.682 -0.1270 -0.1641  0.0388
 3652ntf    cn121830   1.979   5.967   6.645 -0.0549 -0.0220 -0.3314
 3652ntf    fn421831   2.483   5.957   6.575  0.6528 -0.1123 -0.0437
 3652ntf    fn421832   2.539   6.046   6.397 -0.0019 -0.0839  0.4482
 3652ntf    fn421833   2.512   6.172   6.561  0.2671 -0.1559 -0.2263
 3652ntf    on521834   2.287   6.213   6.392 -0.1724  0.1239  0.3494
 3652ntf    on521835   2.256   5.973   6.366  0.6768 -0.1818 -0.2631
 3652ntf    on521836   2.165   6.009   6.821  0.3178 -0.0453 -0.0158
 3652ntf    on521837   2.204   5.840   6.645 -0.0130 -0.0736 -0.1425
 3652ntf    fn421838   1.913   6.078   6.670  0.1917  0.0270  0.1130
 3652ntf    fn421839   1.948   5.937   6.520 -0.1610  0.3739 -0.4021
 3652ntf    fn421840   1.914   5.873   6.712 -0.1926  0.2206 -0.1270
 3653ntf    cn121841   6.514   5.120   5.014 -0.0133 -0.0253  0.0164
 3653ntf    sn221842   6.511   5.174   5.188 -0.2000  0.0748 -0.0176
 3653ntf    nn321843   6.608   5.066   5.247 -0.0352  0.3142  0.1507
 3653ntf    sn221844   6.690   5.077   5.381  0.1161  0.3750  0.0533
 3653ntf    cn121845   6.665   4.908   5.444  0.5704  0.1173 -0.4429
 3653ntf    fn421846   6.635   5.089   4.970  0.0019 -0.2310  0.1972
 3653ntf    fn421847   6.441   5.014   4.988  0.0999 -0.0821 -0.0697
 3653ntf    fn421848   6.473   5.220   4.937  0.0871  0.1519  0.1895
 3653ntf    on521849   6.572   5.304   5.182 -0.1298  0.0561  0.2682
 3653ntf    on521850   6.374   5.158   5.230 -0.0760 -0.3707  0.2209
 3653ntf    on521851   6.640   5.170   5.478 -0.0460  0.0528  0.2801
 3653ntf    on521852   6.829   5.082   5.344  0.1815  0.0430  0.2540
 3653ntf    fn421853   6.537   4.876   5.455  0.5263  0.5934  0.5540
 3653ntf    fn421854   6.721   4.805   5.382 -0.2547 -0.2176 -0.6512
 3653ntf    fn421855   6.707   4.889   5.568 -0.1566  0.1863 -0.1764
 3654ntf    cn121856   4.152   4.004   0.606 -0.1946 -0.0124  0.1353
 3654ntf    sn221857   4.320   3.941   0.638 -0.2178 -0.0625  0.1617
 3654ntf    nn321858   4.403   4.072   0.611 -0.1568 -0.1625 -0.1389
 3654ntf    sn221859   4.459   4.132   0.477  0.0454 -0.0879 -0.0211
 3654ntf    cn121860   4.396   4.301   0.502  0.1116 -0.1181  0.3494
 3654ntf    fn421861   4.068   3.917   0.658 -0.0626 -0.2824 -0.0978
 3654ntf    fn421862   4.131   4.125   0.653 -0.1341  0.1580 -0.2686
 3654ntf    fn421863   4.140   4.018   0.475 -0.1428  0.6342  0.1965
 3654ntf    on521864   4.322   3.904   0.777 -0.0621 -0.1451  0.1369
 3654ntf    on521865   4.323   3.832   0.543 -0.2443  0.2144 -0.1610
 3654ntf    on521866   4.408   4.090   0.349  1.3038  0.3622 -0.6903
 3654ntf    on521867   4.601   4.159   0.484  0.0660 -0.2127  0.0484
 3654ntf    fn421868   4.448   4.369   0.604 -0.1124  0.2116  0.2456
 3654ntf    fn421869   4.427   4.376   0.398  0.3967 -0.5700  0.1048
 3654ntf    fn421870   4.266   4.302   0.523  0.0553 -0.1666  0.0042
 3655ntf    cn121871   0.916   1.712   5.421 -0.1101 -0.1158  0.3265
 3655ntf    sn221872   1.073   1.655   5.494 -0.0797 -0.3399  0.0882
 3655ntf    nn321873   1.167   1.758   5.422 -0.3913 -0.0183  0.1377
 3655ntf    sn221874   1.287   1.845   5.472 -0.1854 -0.1782 -0.0753
 3655ntf    cn121875   1.214   2.011   5.485  0.1354 -0.0353 -0.0792
 3655ntf    fn421876   0.816   1.654   5.485 -0.3585 -0.0626 -0.0121
 3655ntf    fn421877   0.891   1.840   5.441 -0.2489 -0.0994  0.0539
 3655ntf    fn421878   0.910   1.675   5.294 -0.0757  0.1904  0.2355
 3655ntf    on521879   1.058   1.679   5.635  0.1677  0.2186  0.0220
 3655ntf    on521880   1.094   1.518   5.455  0.3294 -0.2254 -0.0906
 3655ntf    on521881   1.389   1.856   5.371 -0.2699 -0.4444 -0.1905
 3655ntf    on521882   1.332   1.809   5.605 -0.1164  0.2380  0.0168
 3655ntf    fn421883   1.144   2.035   5.376 -0.5553  0.0714  0.3810
 3655ntf    fn421884   1.140   2.013   5.595  0.3468  0.2832  0.0601
 3655ntf    fn421885   1.314   2.097   5.494  0.2016 -0.1868  0.7491
 3656ntf    cn121886   5.951   0.236   0.061 -0.0710 -0.0609  0.2142
 3656ntf    sn221887   5.922   0.139  -0.090 -0.1933 -0.0209  0.2118
 3656ntf    nn321888   5.919   0.246  -0.205  0.1783 -0.0088  0.2106
 3656ntf    sn221889   5.803   0.310  -0.290  0.3609 -0.0196 -0.0466
 3656ntf    cn121890   5.824   0.241  -0.456  0.2610  0.4930 -0.2746
 3656ntf    fn421891   5.872   0.211   0.164 -0.3334 -0.1715 -0.0131
 3656ntf    fn421892   6.073   0.221   0.110  0.0829  0.0370 -0.1392
 3656ntf    fn421893   5.937   0.365   0.035 -0.1409 -0.0482  0.3142
 3656ntf    on521894   6.037   0.053  -0.104 -0.1895  0.1316 -0.7553
 3656ntf    on521895   5.794   0.077  -0.066 -0.2177 -0.0356  0.0475
 3656ntf    on521896   5.836   0.449  -0.308  0.0483  0.1505  0.6539
 3656ntf    on521897   5.668   0.271  -0.256  0.3764 -0.3189 -0.3236
 3656ntf    fn421898   5.948   0.255  -0.499  0.2308  0.0708 -0.5110
 3656ntf    fn421899   5.803   0.110  -0.465  0.1499  0.5063 -0.2129
 3656ntf    fn421900   5.745   0.303  -0.543 -0.4157 -0.1493 -0.1343
 3657ntf    cn121901   2.991   5.935   2.469 -0.2022  0.2960  0.2979
 3657ntf    sn221902   2.889   6.072   2.532 -0.3956  0.3193 -0.0624
 3657ntf    nn321903   2.948   6.090   2.677 -0.0480 -0.0058 -0.1606
 3657ntf    sn221904   2.899   6.177   2.798 -0.3212 -0.0626 -0.2289
 3657ntf    cn121905   3.025   6.308   2.787 -0.1858 -0.1618  0.1245
 3657ntf    fn421906   2.945   5.867   2.365 -0.5566 -0.1523  0.7399
 3657ntf    fn421907   3.111   5.978   2.431  0.2359 -0.6394  0.5979
 3657ntf    fn421908   3.010   5.848   2.567  0.2676  0.0474 -0.0089
 3657ntf    on521909   2.916   6.178   2.439  0.7175  0.2319  0.1365
 3657ntf    on521910   2.755   6.019   2.539 -0.4008  0.3198 -0.1618
 3657ntf    on521911   2.916   6.101   2.920  0.4943  0.0050 -0.2947
 3657ntf    on521912   2.779   6.256   2.786 -0.6097 -0.4168  0.2801
 3657ntf    fn421913   3.021   6.401   2.881 -0.1681  0.1243 -0.1558
 3657ntf    fn421914   3.148   6.261   2.780 -0.1549 -0.1123  0.3341
 3657ntf    fn421915   3.006   6.377   2.676  0.4569  0.1739  0.2210
 3658ntf    cn121916   2.111   2.314   1.905 -0.1929 -0.5797 -0.0248
 3658ntf    sn221917   2.060   2.200   1.772 -0.3814 -0.2828 -0.2075
 3658ntf    nn321918   2.039   2.307   1.659 -0.1620  0.1365  0.1410
 3658ntf    sn221919   1.904   2.378   1.622 -0.0564  0.2764  0.0255
 3658ntf    cn121920   1.906   2.339   1.444 -0.5294  0.0196  0.0746
 3658ntf    fn421921   2.046   2.429   1.911  0.2969 -0.2949 -0.1596
 3658ntf    fn421922   2.098   2.260   2.026 -0.6622  0.2859  0.3176
 3658ntf    fn421923   2.236   2.352   1.887 -0.4541  0.3213  0.0310
 3658ntf    on521924   2.177   2.121   1.743  0.3994  0.7409  0.0435
 3658ntf    on521925   1.949   2.128   1.829 -0.4462 -0.2978 -0.3530
 3658ntf    on521926   1.919   2.522   1.613 -0.2505  0.3245  0.4635
 3658ntf    on521927   1.784   2.322   1.679  0.0731 -0.1629 -0.1331
 3658ntf    fn421928   2.019   2.379   1.389 -0.2899 -0.6673  0.0628
 3658ntf    fn421929   1.896   2.210   1.416 -0.0794 -0.0211  0.0830
 3658ntf    fn421930   1.813   2.399   1.372 -0.4846  0.0342  0.0286
 3659ntf    cn121931   2.720   2.707   3.997 -0.0474  0.2365  0.4081
 3659ntf    sn221932   2.704   2.707   3.816  0.3746 -0.0347  0.3699
 3659ntf    nn321933   2.752   2.853   3.783  0.3462 -0.1180 -0.0434
 3659ntf    sn221934   2.682   2.986   3.828  0.2397 -0.2021  0.0413
 3659ntf    cn121935   2.819   3.063   3.919  0.1244  0.0431  0.0096
 3659ntf    fn421936   2.847   2.730   4.026  0.0936 -0.6530  0.5301
 3659ntf    fn421937   2.645   2.796   4.061 -0.2556  0.1057  0.3484
 3659ntf    fn421938   2.695   2.586   4.044  0.1163  0.2061  0.4166
 3659ntf    on521939   2.794   2.608   3.762 -0.1495 -0.3333  0.0376
 3659ntf    on521940   2.562   2.696   3.792  0.3245  0.2496  0.5315
 3659ntf    on521941   2.578   2.982   3.928 -0.0285 -0.1821 -0.2353
 3659ntf    on521942   2.657   3.076   3.718  0.0794 -0.6235 -0.2680
 3659ntf    fn421943   2.856   2.998   4.028  0.3086  0.5437  0.2485
 3659ntf    fn421944   2.928   3.066   3.843  0.3723 -0.0276  0.3556
 3659ntf    fn421945   2.789   3.187   3.955  0.0908 -0.0128  0.1738
 3660ntf    cn121946   3.964   5.536   6.047 -0.0612  0.0288  0.6036
 3660ntf    sn221947   4.073   5.547   6.192  0.5168 -0.0483  0.1754
 3660ntf    nn321948   4.084   5.704   6.186 -0.5049  0.0115 -0.4399
 3660ntf    sn221949   4.213   5.786   6.222 -0.3109 -0.3255 -0.3524
 3660ntf    cn121950   4.229   5.878   6.065 -0.2983  0.1797 -0.0573
 3660ntf    fn421951   3.906   5.418   6.028 -0.3823  0.2018  0.4936
 3660ntf    fn421952   3.861   5.618   6.061 -0.0166  0.0921  0.5602
 3660ntf    fn421953   4.022   5.579   5.936 -0.2024 -0.8226  0.1948
 3660ntf    on521954   3.994   5.519   6.309  0.2705  0.3692  0.1131
 3660ntf    on521955   4.187   5.466   6.154  0.0738 -0.6027  0.0178
 3660ntf    on521956   4.335   5.710   6.223 -0.1323 -0.0379  0.0830
 3660ntf    on521957   4.197   5.884   6.327 -0.3828 -0.4534 -0.2449
 3660ntf    fn421958   4.239   5.793   5.964  0.5904  0.6242 -0.3569
 3660ntf    fn421959   4.126   5.957   6.042 -0.1896  0.3520  0.0412
 3660ntf    fn421960   4.343   5.945   6.059 -0.1819  0.0223  0.3337
 3661ntf    cn121961   3.572   5.604   0.630 -0.1686  0.3182 -0.2904
 3661ntf    sn221962   3.400   5.615   0.572 -0.1573 -0.0344 -0.3936
 3661ntf    nn321963   3.372   5.470   0.520 -0.5330 -0.0871 -0.0558
 3661ntf    sn221964   3.291   5.352   0.583 -0.0102 -0.2833  0.2523
 3661ntf    cn121965   3.141   5.370   0.483 -0.0007 -0.2712  0.2401
 3661ntf    fn421966   3.656   5.582   0.530  0.1849 -0.5634  0.1896
 3661ntf    fn421967   3.617   5.712   0.693 -0.3900 -0.0077  0.4322
 3661ntf    fn421968   3.592   5.505   0.715 -0.2105  0.3804 -0.2084
 3661ntf    on521969   3.327   5.649   0.692  0.3463  0.1720 -0.1406
 3661ntf    on521970   3.401   5.712   0.465 -0.3873  0.2797 -0.1133
 3661ntf    on521971   3.247   5.362   0.720 -0.2022 -0.1926  0.1838
 3661ntf    on521972   3.333   5.221   0.538  0.2724 -0.0951 -0.0316
 3661ntf    fn421973   3.160   5.338   0.356  0.0151  0.5002  0.0438
 3661ntf    fn421974   3.047   5.286   0.524 -0.0891 -0.2668  0.0496
 3661ntf    fn421975   3.088   5.489   0.504  0.2726 -0.1762  0.3873
 3662ntf    cn121976   6.292   3.170   1.664  0.2006 -0.0840  0.2675
 3662ntf    sn221977   6.420   3.054   1.721  0.2564 -0.1132  0.0847
 3662ntf    nn321978   6.543   3.148   1.698 -0.0691  0.1767 -0.5149
 3662ntf    sn221979   6.684   3.125   1.632  0.0434  0.0237 -0.2247
 3662ntf    cn121980   6.783   3.255   1.711 -0.0650 -0.1419  0.1877
 3662ntf    fn421981   6.314   3.218   1.542  0.0234 -0.3122  0.1462
 3662ntf    fn421982   6.170   3.120   1.663  0.2154 -0.1151 -0.2447
 3662ntf    fn421983   6.278   3.272   1.747 -0.3161 -0.4207  0.5976
 3662ntf    on521984   6.393   3.032   1.861 -0.5285 -0.2602 -0.0794
 3662ntf    on521985   6.411   2.942   1.630  0.0685 -0.0558  0.0299
 3662ntf    on521986   6.695   3.157   1.492 -0.2258 -0.2482 -0.3111
 3662ntf    on521987   6.756   3.010   1.681  0.1007  0.3651  0.5085
 3662ntf    fn421988   6.765   3.374   1.656 -0.1355 -0.3761 -0.3015
 3662ntf    fn421989   6.755   3.273   1.839 -0.0450 -0.1005  0.1863
 3662ntf    fn421990   6.911   3.223   1.702  0.1060  0.4418  0.4838
 3663ntf    cn121991   2.776   6.719   1.549 -0.0283 -0.4458  0.3645
 3663ntf    sn221992   2.750   6.540   1.565 -0.2834 -0.4541 -0.1021
 3663ntf    nn321993   2.659   6.531   1.693  0.0791 -0.3508  0.1664
 3663ntf    sn221994   2.505   6.562   1.692  0.2403  0.4582 -0.3714
 3663ntf    cn121995   2.450   6.389   1.683 -0.2272  0.5903 -0.0859
 3663ntf    fn421996   2.666   6.787   1.520  0.0679 -0.1500  0.6939
 3663ntf    fn421997   2.810   6.775   1.664 -0.0047 -0.1683  0.2251
 3663ntf    fn421998   2.866   6.743   1.455 -0.1504  0.6898  0.5241
 3663ntf    on521999   2.685   6.503   1.442 -0.1615  0.4093 -0.4296
 3663ntf    on522000   2.883   6.495   1.599  0.2106  0.3179 -0.9800
 3663ntf    on522001   2.435   6.623   1.581 -0.0733  0.2933 -0.2636
 3663ntf    on522002   2.474   6.601   1.827  0.0416 -0.1254 -0.2479
 3663ntf    fn422003   2.494   6.320   1.579  0.0616  0.6460 -0.0028
 3663ntf    fn422004   2.502   6.318   1.782 -0.7724 -0.0939 -0.2856
 3663ntf    fn422005   2.318   6.383   1.686 -0.2115  0.0552 -0.4339
 3664ntf    cn122006   4.571   2.395   2.000  0.3083 -0.2065  0.1482
 3664ntf    sn222007   4.750   2.361   2.003  0.3156 -0.1803  0.0209
 3664ntf    nn322008   4.781   2.403   1.855  0.5367 -0.0259  0.1103
 3664ntf    sn222009   4.875   2.337   1.748  0.5541 -0.3616  0.3316
 3664ntf    cn122010   4.767   2.222   1.657  0.2780 -0.1223  0.3562
 3664ntf    fn422011   4.538   2.523   2.011 -0.3233 -0.3486 -0.0392
 3664ntf    fn422012   4.511   2.357   1.889 -0.0312 -0.1290  0.3028
 3664ntf    fn422013   4.501   2.341   2.099 -0.1248 -0.2914 -0.2034
 3664ntf    on522014   4.803   2.457   2.096  0.5652  0.0899 -0.3971
 3664ntf    on522015   4.761   2.220   2.032 -0.7918 -0.1903  0.4741
 3664ntf    on522016   4.984   2.255   1.795  0.7943 -0.1367  0.1689
 3664ntf    on522017   4.911   2.439   1.652 -0.1542 -0.2114  0.2200
 3664ntf    fn422018   4.827   2.187   1.544 -0.1763  0.4320 -0.0639
 3664ntf    fn422019   4.731   2.111   1.719 -0.1834  0.0526  0.4061
 3664ntf    fn422020   4.650   2.271   1.620  0.3784  0.3681  0.6873
 3665ntf    cn122021   1.948   4.585   0.861  0.3907 -0.0487 -0.0079
 3665ntf    sn222022   2.083   4.465   0.844  0.2589 -0.1587 -0.2780
 3665ntf    nn322023   2.065   4.385   0.978  0.2858 -0.3947 -0.4130
 3665ntf    sn222024   1.987   4.253   1.008  0.0343 -0.1636 -0.0387
 3665ntf    cn122025   2.116   4.132   0.968  0.2211  0.0736 -0.1496
 3665ntf    fn422026   1.961   4.672   0.762  0.2961 -0.1885 -0.1431
 3665ntf    fn422027   1.826   4.533   0.851  0.5711 -0.4608 -0.0910
 3665ntf    fn422028   1.961   4.648   0.976  0.6568 -0.6675  0.3077
 3665ntf    on522029   2.055   4.386   0.726  0.3329 -0.7916  0.1205
 3665ntf    on522030   2.208   4.537   0.840 -0.1140  0.5188  0.2046
 3665ntf    on522031   1.882   4.223   0.913 -0.0157 -0.3863  0.0859
 3665ntf    on522032   1.962   4.233   1.149  0.0652  0.3439  0.0400
 3665ntf    fn422033   2.093   4.007   1.005  0.8210 -0.0302 -0.1138
 3665ntf    fn422034   2.149   4.126   0.840  0.2392  0.2298 -0.1529
 3665ntf    fn422035   2.225   4.170   1.032 -0.1474 -0.2238  0.6627
 3666ntf    cn122036   4.414   2.500   1.045 -0.4276  0.4458 -0.2766
 3666ntf    sn222037   4.524   2.544   0.908  0.1470 -0.4975 -0.1285
 3666ntf    nn322038   4.648   2.597   0.989 -0.2756 -0.0494  0.2307
 3666ntf    sn222039   4.795   2.543   0.994 -0.2782 -0.1020 -0.2636
 3666ntf    cn122040   4.891   2.688   1.046  0.0713 -0.2260 -0.5529
 3666ntf    fn422041   4.381   2.606   1.117  0.0401  0.5958 -0.2836
 3666ntf    fn422042   4.297   2.452   1.005 -0.2013 -0.2694 -0.1014
 3666ntf    fn422043   4.472   2.415   1.128 -0.4900  0.4425 -0.2361
 3666ntf    on522044   4.529   2.424   0.828 -0.1363 -0.3505 -0.3669
 3666ntf    on522045   4.454   2.655   0.848  0.6270 -0.3424 -0.4073
 3666ntf    on522046   4.852   2.516   0.864  0.5129  0.6403 -0.0826
 3666ntf    on522047   4.827   2.446   1.096  0.1631  0.2557 -0.0600
 3666ntf    fn422048   4.876   2.786   0.958  0.3646  0.3303  0.0107
 3666ntf    fn422049   4.851   2.731   1.165 -0.7064 -0.5861 -0.6767
 3666ntf    fn422050   5.019   2.660   1.060  0.0228 -0.3078 -0.2571
 3667ntf    cn122051   1.722   5.208   2.525 -0.1524  0.0967  0.1831
 3667ntf    sn222052   1.550   5.234   2.472 -0.0692  0.0832 -0.0924
 3667ntf    nn322053   1.487   5.124   2.564  0.2591  0.0284  0.0684
 3667ntf    sn222054   1.468   4.972   2.528 -0.1923  0.1332 -0.1383
 3667ntf    cn122055   1.288   4.968   2.499 -0.2192  0.0953  0.0283
 3667ntf    fn422056   1.761   5.082   2.530 -0.2581  0.0503 -0.1856
 3667ntf    fn422057   1.809   5.268   2.445 -0.4723 -0.2274 -0.4120
 3667ntf    fn422058   1.754   5.254   2.646  0.3339 -0.6845  0.3553
 3667ntf    on522059   1.506   5.366   2.512 -0.1704  0.0785 -0.1906
 3667ntf    on522060   1.546   5.204   2.331  0.0625 -0.6087  0.0489
 3667ntf    on522061   1.489   4.887   2.642 -0.0007  0.4633  0.0754
 3667ntf    on522062   1.518   4.924   2.402 -0.3826 -0.4004 -0.0115
 3667ntf    fn422063   1.259   5.061   2.410  0.2978  0.1293 -0.1118
 3667ntf    fn422064   1.251   4.849   2.454  0.2354 -0.0758  0.0970
 3667ntf    fn422065   1.215   4.998   2.604 -0.1386 -0.1257  0.1487
 3668ntf    cn122066   5.761   6.744   4.496  0.1453  0.0069  0.4152
 3668ntf    sn222067   5.639   6.867   4.549 -0.2728 -0.3089  0.1864
 3668ntf    nn322068   5.593   6.802   4.685  0.2273 -0.5805  0.2245
 3668ntf    sn222069   5.666   6.795   4.824  0.1712  0.0395  0.2882
 3668ntf    cn122070   5.553   6.886   4.933 -0.3404 -0.2777  0.0299
 3668ntf    fn422071   5.834   6.699   4.597  0.3194 -0.2729  0.1654
 3668ntf    fn422072   5.708   6.633   4.448  0.0191  0.2986 -0.1194
 3668ntf    fn422073   5.848   6.786   4.405  0.1869  0.0837  0.4910
 3668ntf    on522074   5.721   6.985   4.561  0.0305 -0.5337  0.3460
 3668ntf    on522075   5.540   6.860   4.444 -0.2497 -0.1932  0.1566
 3668ntf    on522076   5.796   6.856   4.821 -0.0976  0.6153  0.2510
 3668ntf    on522077   5.647   6.662   4.877  0.3704  0.0604  0.4123
 3668ntf    fn422078   5.449   6.811   4.965 -0.2048 -0.3650  0.2632
 3668ntf    fn422079   5.620   6.924   5.041 -0.2898 -0.0216 -0.0900
 3668ntf    fn422080   5.498   6.985   4.864  0.0094 -0.0994  0.0040
 3669ntf    cn122081   2.196   7.073   5.328  0.4497 -0.4553 -0.5569
 3669ntf    sn222082   2.356   7.144   5.377  0.0691 -0.1542  0.2789
 3669ntf    nn322083   2.427   7.021   5.443  0.2378  0.0693  0.5167
 3669ntf    sn222084   2.516   6.921   5.361  0.0533  0.2264  0.1196
 3669ntf    cn122085   2.678   7.002   5.378  0.1801  0.0287 -0.1403
 3669ntf    fn422086   2.201   6.993   5.223 -0.0587 -0.6894 -0.4072
 3669ntf    fn422087   2.139   7.007   5.428  0.2479  0.3437 -0.1321
 3669ntf    fn422088   2.106   7.165   5.297  0.2614 -0.4790 -0.0923
 3669ntf    on522089   2.406   7.196   5.251 -0.3597  0.5810  0.4056
 3669ntf    on522090   2.337   7.250   5.472 -0.1896  0.2482 -0.2129
 3669ntf    on522091   2.492   6.900   5.221 -0.0697  0.3380  0.1239
 3669ntf    on522092   2.536   6.799   5.436 -0.4649  0.1946  0.2098
 3669ntf    fn422093   2.686   7.120   5.319  0.1368  0.3305  0.4516
 3669ntf    fn422094   2.713   7.026   5.503 -0.3681  0.3840 -0.0525
 3669ntf    fn422095   2.781   6.937   5.326  0.3504  0.1856 -0.0002
 3670ntf    cn122096   1.752   5.381   3.958 -0.0405  0.1735 -0.0390
 3670ntf    sn222097   1.870   5.300   3.846 -0.1610  0.1634 -0.1582
 3670ntf    nn322098   1.957   5.209   3.940 -0.1546  0.1227 -0.2026
 3670ntf    sn222099   2.102   5.160   3.907 -0.2403 -0.2038 -0.0945
 3670ntf    cn122100   2.206   5.293   3.974 -0.5315 -0.1076  0.1726
 3670ntf    fn422101   1.666   5.459   3.895  0.3227  0.5831 -0.0314
 3670ntf    fn422102   1.675   5.299   4.028  0.7019 -0.1063  0.4580
 3670ntf    fn422103   1.807   5.456   4.052 -0.1271 -0.0764  0.2134
 3670ntf    on522104   1.788   5.225   3.753 -0.1333 -0.5321  0.3733
 3670ntf    on522105   1.952   5.411   3.804 -0.2381  0.2877  0.0203
 3670ntf    on522106   2.129   5.153   3.765 -0.3244 -0.1120 -0.1150
 3670ntf    on522107   2.145   5.049   3.988 -0.1811 -0.0281  0.1171
 3670ntf    fn422108   2.166   5.410   3.927 -0.2694  0.2778  0.9051
 3670ntf    fn422109   2.207   5.300   4.106 -0.1875 -0.9288  0.2245
 3670ntf    fn422110   2.327   5.271   3.925 -0.7831 -0.5628 -0.2594
 3671ntf    cn122111   6.937   0.214   3.100  0.1100  0.2854  0.1384
 3671ntf    sn222112   6.856   0.236   3.262 -0.1218  0.4268  0.0039
 3671ntf    nn322113   6.778   0.366   3.223 -0.1514  0.4539  0.1559
 3671ntf    sn222114   6.625   0.378   3.187 -0.0757  0.5127 -0.1523
 3671ntf    cn122115   6.555   0.408   3.352  0.2092 -0.0569  0.0767
 3671ntf    fn422116   6.958   0.085   3.078  0.1307  0.3588 -0.2863
 3671ntf    fn422117   6.856   0.249   3.001 -0.0240 -0.4785 -0.0293
 3671ntf    fn422118   7.056   0.270   3.099  0.0601  0.3915  0.1408
 3671ntf    on522119   6.783   0.115   3.291 -0.1574  0.3078 -0.5688
 3671ntf    on522120   6.971   0.263   3.344  0.0059 -0.2604  0.0584
 3671ntf    on522121   6.558   0.259   3.140 -0.2846  0.2777  0.7178
 3671ntf    on522122   6.587   0.491   3.107  0.1534  0.0860 -0.8805
 3671ntf    fn422123   6.598   0.523   3.399 -0.1789  0.0084  0.2776
 3671ntf    fn422124   6.423   0.417   3.353  0.2391  0.3775  0.3041
 3671ntf    fn422125   6.589   0.316   3.441  0.4843  0.0094  0.0415
 3672ntf    cn122126   0.024   3.707   3.805 -0.2908  0.3731 -0.3677
 3672ntf    sn222127   0.084   3.603   3.669  0.0437 -0.2968  0.2809
 3672ntf    nn322128   0.178   3.505   3.747  0.0876 -0.2684  0.2639
 3672ntf    sn222129   0.146   3.369   3.819  0.3592 -0.3054  0.3169
 3672ntf    cn122130   0.195   3.252   3.688 -0.0641 -0.0449 -0.0768
 3672ntf    fn422131   0.020   3.837   3.784  0.0001  0.3827 -0.3731
 3672ntf    fn422132  -0.096   3.667   3.845  0.1274 -0.3160  0.2087
 3672ntf    fn422133   0.104   3.698   3.910 -0.0405  0.5247 -0.5457
 3672ntf    on522134  -0.031   3.548   3.602 -0.0694 -0.0666  0.2828
 3672ntf    on522135   0.157   3.703   3.593 -0.5103  0.0759  0.2314
 3672ntf    on522136   0.007   3.334   3.831  0.2626 -0.0352  0.0022
 3672ntf    on522137   0.235   3.342   3.929  0.4709 -0.2607  0.2388
 3672ntf    fn422138   0.188   3.127   3.731  0.0342  0.0748  0.2932
 3672ntf    fn422139   0.123   3.266   3.578 -0.0120  0.6792 -0.0279
 3672ntf    fn422140   0.320   3.263   3.648  0.1429 -0.5642  0.4139
 3673ntf    cn122141   1.429   2.145   6.086  0.2240  0.2387  0.0064
 3673ntf    sn222142   1.495   2.277   5.980  0.1542  0.1486 -0.1479
 3673ntf    nn322143   1.365   2.319   5.901 -0.2176 -0.3885  0.1700
 3673ntf    sn222144   1.340   2.359   5.752  0.0069 -0.4013  0.1282
 3673ntf    cn122145   1.284   2.531   5.773  0.0750 -0.3372 -0.2043
 3673ntf    fn422146   1.503   2.131   6.196  0.1948 -0.5254 -0.0660
 3673ntf    fn422147   1.306   2.164   6.129  0.1590 -0.0609 -0.0469
 3673ntf    fn422148   1.418   2.027   6.028 -0.6629  0.3188  0.0072
 3673ntf    on522149   1.532   2.377   6.077  0.1536 -0.4453  0.4723
 3673ntf    on522150   1.596   2.201   5.910 -0.0171  0.2017 -0.4541
 3673ntf    on522151   1.220   2.295   5.702 -0.2676  0.0599  0.1903
 3673ntf    on522152   1.458   2.362   5.669  0.5591  0.3512  0.9317
 3673ntf    fn422153   1.248   2.588   5.660  0.2425 -0.0531 -0.1149
 3673ntf    fn422154   1.176   2.537   5.850  0.2519  0.7097 -0.0288
 3673ntf    fn422155   1.380   2.609   5.819 -0.0768  0.0558 -0.5505
 3674ntf    cn122156   3.079   2.508   0.060  0.0355  0.0022 -0.2045
 3674ntf    sn222157   3.234   2.447  -0.013  0.3268  0.2435  0.2083
 3674ntf    nn322158   3.326   2.489   0.107 -0.1380 -0.1023  0.6946
 3674ntf    sn222159   3.475   2.444   0.131 -0.0224  0.0457  0.2740
 3674ntf    cn122160   3.461   2.434   0.312 -0.0823  0.3578  0.2876
 3674ntf    fn422161   3.055   2.453   0.178 -0.0156  0.6664  0.0988
 3674ntf    fn422162   3.087   2.638   0.080  0.3351 -0.0425 -0.0155
 3674ntf    fn422163   2.980   2.487  -0.025  0.1973 -0.0812 -0.3755
 3674ntf    on522164   3.214   2.304  -0.022 -0.3069  0.3409  0.0477
 3674ntf    on522165   3.244   2.517  -0.138 -1.2665  0.5040  0.2113
 3674ntf    on522166   3.559   2.561   0.118 -0.5594  0.3883 -0.1417
 3674ntf    on522167   3.520   2.313   0.091 -0.2549  0.1040 -0.1777
 3674ntf    fn422168   3.388   2.330   0.348  0.1947  0.0797  0.0438
 3674ntf    fn422169   3.576   2.420   0.376  0.0340  0.2270  0.0492
 3674ntf    fn422170   3.402   2.538   0.370 -0.5180  0.5729 -0.5299
 3675ntf    cn122171   0.658   1.585   6.914 -0.1255  0.2026  0.3689
 3675ntf    sn222172   0.755   1.697   7.019 -0.1114  0.1536  0.4082
 3675ntf    nn322173   0.792   1.594   7.131  0.2621 -0.2191 -0.0581
 3675ntf    sn222174   0.814   1.621   7.284  0.2607 -0.0074 -0.0946
 3675ntf    cn122175   0.642   1.619   7.343  0.1984 -0.0530 -0.2777
 3675ntf    fn422176   0.583   1.652   6.828  0.0277  0.4781  0.4486
 3675ntf    fn422177   0.737   1.513   6.836  0.0465  0.5042  0.2633
 3675ntf    fn422178   0.574   1.502   6.973  0.0075 -0.3019 -0.1441
 3675ntf    on522179   0.865   1.741   6.938 -0.3612  0.1902  0.0871
 3675ntf    on522180   0.660   1.799   7.059 -0.1472  0.1376  0.3647
 3675ntf    on522181   0.862   1.754   7.314 -0.5691  0.0956  0.8198
 3675ntf    on522182   0.880   1.510   7.349 -0.4072 -0.1793  0.2929
 3675ntf    fn422183   0.586   1.505   7.305 -0.2195  0.1215 -0.1869
 3675ntf    fn422184   0.631   1.616   7.475  0.3516  0.1680 -0.2591
 3675ntf    fn422185   0.575   1.726   7.304  0.2902 -0.0385 -0.3983
 3676ntf    cn122186   4.546   7.018   6.855  0.1168  0.2673 -0.2540
 3676ntf    sn222187   4.663   7.056   6.989 -0.3330  0.0583  0.2000
 3676ntf    nn322188   4.790   7.104   6.911 -0.2329 -0.7647 -0.1638
 3676ntf    sn222189   4.821   7.219   6.808 -0.0166 -0.2141  0.5064
 3676ntf    cn122190   4.910   7.126   6.680 -0.2437  0.7596 -0.3728
 3676ntf    fn422191   4.591   7.009   6.731 -0.0603 -0.0269 -0.2965
 3676ntf    fn422192   4.488   6.902   6.877 -0.1777  0.5104  0.2704
 3676ntf    fn422193   4.451   7.111   6.852  0.1860  0.3325 -0.4554
 3676ntf    on522194   4.599   7.159   7.067 -0.4351 -0.0460  0.2554
 3676ntf    on522195   4.679   6.928   7.054  0.0465  0.0394  0.0741
 3676ntf    on522196   4.920   7.308   6.863 -0.2132  0.6710 -0.5320
 3676ntf    on522197   4.709   7.281   6.742  0.0501 -0.5529  0.0737
 3676ntf    fn422198   4.882   6.997   6.688  0.2121  0.6706 -0.1493
 3676ntf    fn422199   4.885   7.166   6.557 -0.4174  0.0942 -0.5548
 3676ntf    fn422200   5.042   7.131   6.698 -0.2541 -0.0970 -0.0246
 3677ntf    cn122201   3.711   6.035   2.084  0.1956 -0.2243 -0.3245
 3677ntf    sn222202   3.651   6.112   2.237 -0.2355 -0.2765 -0.4650
 3677ntf    nn322203   3.586   5.994   2.317 -0.0740  0.0206  0.1077
 3677ntf    sn222204   3.435   5.962   2.348 -0.0985 -0.1044 -0.1393
 3677ntf    cn122205   3.430   6.045   2.509 -0.2980 -0.0583 -0.1697
 3677ntf    fn422206   3.777   6.124   2.012 -0.0815  0.3271  0.0968
 3677ntf    fn422207   3.792   5.934   2.110  0.3216 -0.2060 -0.6380
 3677ntf    fn422208   3.615   5.982   2.010 -0.2270  0.3307 -0.1815
 3677ntf    on522209   3.777   6.153   2.293 -0.3399  0.0409 -0.4629
 3677ntf    on522210   3.564   6.209   2.175 -0.0185 -0.0969 -0.4918
 3677ntf    on522211   3.418   5.821   2.377 -0.1218 -0.0192  0.2668
 3677ntf    on522212   3.334   6.026   2.268  0.1237  0.0987 -0.2574
 3677ntf    fn422213   3.523   5.998   2.591  0.0812 -0.4706 -0.8323
 3677ntf    fn422214   3.449   6.176   2.504 -0.2290 -0.0575  0.0760
 3677ntf    fn422215   3.313   6.025   2.566 -0.1887  0.0651  0.1032
 3678ntf    cn122216   6.177   0.045   6.375 -0.0283 -0.2394  0.3467
 3678ntf    sn222217   6.063   0.056   6.234 -0.1327 -0.1087  0.4416
 3678ntf    nn322218   5.928   0.045   6.313 -0.0526  0.4345  0.6582
 3678ntf    sn222219   5.779   0.052   6.265  0.2716  0.0330 -0.4369
 3678ntf    cn122220   5.717  -0.114   6.303 -0.0527  0.2749  0.0965
 3678ntf    fn422221   6.185  -0.083   6.408 -0.0315 -0.2503  0.3052
 3678ntf    fn422222   6.299   0.087   6.343 -0.3611  0.1620 -0.4195
 3678ntf    fn422223   6.138   0.121   6.476 -0.1774  0.3519 -0.1521
 3678ntf    on522224   6.077   0.191   6.187 -0.0093 -0.2270  0.1308
 3678ntf    on522225   6.105  -0.052   6.147  0.1718  0.1119  0.3125
 3678ntf    on522226   5.758   0.065   6.123 -0.2906  0.1809 -0.3430
 3678ntf    on522227   5.691   0.127   6.351  0.3075  0.2054 -0.5494
 3678ntf    fn422228   5.786  -0.209   6.242  0.1538  0.3582  0.1984
 3678ntf    fn422229   5.726  -0.137   6.433  0.1233  0.1692  0.0660
 3678ntf    fn422230   5.595  -0.139   6.258 -0.0443  0.3925  0.0092
 3679ntf    cn122231   1.812   6.593   3.578  0.2647 -0.0636 -0.0753
 3679ntf    sn222232   1.675   6.644   3.470  0.0640 -0.2875  0.0711
 3679ntf    nn322233   1.545   6.592   3.540 -0.4036  0.2328 -0.3966
 3679ntf    sn222234   1.416   6.656   3.602 -0.4370  0.0122 -0.2342
 3679ntf    cn122235   1.298   6.570   3.493 -0.4777 -0.0295 -0.1570
 3679ntf    fn422236   1.790   6.466   3.611  0.0642 -0.0689 -0.2291
 3679ntf    fn422237   1.923   6.589   3.505  0.3810  0.1136  0.0928
 3679ntf    fn422238   1.832   6.675   3.679  0.3972  0.1390 -0.2642
 3679ntf    on522239   1.698   6.787   3.471  0.2968 -0.3183 -0.5859
 3679ntf    on522240   1.699   6.577   3.345  0.2062  0.4279 -0.2944
 3679ntf    on522241   1.395   6.798   3.583 -0.7688 -0.0687 -0.4886
 3679ntf    on522242   1.386   6.601   3.732  0.4053  0.1538  0.0237
 3679ntf    fn422243   1.290   6.441   3.519 -0.4124 -0.0128 -0.0504
 3679ntf    fn422244   1.173   6.613   3.501 -0.7230 -0.8006  0.2912
 3679ntf    fn422245   1.330   6.587   3.366  0.0810 -0.0491 -0.0190
 3680ntf    cn122246   5.966   1.915   3.252 -0.1589  0.0502 -0.4061
 3680ntf    sn222247   5.879   1.768   3.314  0.6041 -0.1458  0.2253
 3680ntf    nn322248   5.995   1.664   3.327  0.3749 -0.4617 -0.2347
 3680ntf    sn222249   5.981   1.515   3.280 -0.2919 -0.3928 -0.2612
 3680ntf    cn122250   5.882   1.444   3.415 -0.1274  0.1683  0.1580
 3680ntf    fn422251   5.895   2.026   3.255 -0.0363  0.1192  0.1956
 3680ntf    fn422252   6.074   1.936   3.327 -0.6378 -0.0523  0.3252
 3680ntf    fn422253   6.016   1.898   3.131 -0.1191 -0.3852 -0.3277
 3680ntf    on522254   5.829   1.808   3.443 -0.6127  0.4247 -0.4042
 3680ntf    on522255   5.776   1.747   3.215  0.5457  0.2835  0.1902
 3680ntf    on522256   6.104   1.440   3.291 -0.2096 -0.0729  1.1827
 3680ntf    on522257   5.910   1.485   3.158 -0.3085  0.2535 -0.4122
 3680ntf    fn422258   5.872   1.313   3.397 -0.2738  0.1983  0.0203
 3680ntf    fn422259   5.942   1.459   3.532 -0.1420  0.0441  0.1822
 3680ntf    fn422260   5.760   1.494   3.423  0.0018  0.4752  0.2157
 3681ntf    cn122261   3.616   4.691   2.806  0.3561 -0.2766 -0.1588
 3681ntf    sn222262   3.435   4.708   2.819  0.3862 -0.2267  0.2033
 3681ntf    nn322263   3.396   4.657   2.676 -0.0503 -0.4480  0.4023
 3681ntf    sn222264   3.371   4.509   2.630 -0.0660 -0.1645 -0.5179
 3681ntf    cn122265   3.190   4.503   2.648 -0.0664  0.2342 -0.3807
 3681ntf    fn422266   3.658   4.568   2.783 -0.1421 -0.4388 -0.2194
 3681ntf    fn422267   3.675   4.775   2.722 -0.1166  0.3183  0.0918
 3681ntf    fn422268   3.669   4.718   2.924 -0.2754 -0.0166  0.0704
 3681ntf    on522269   3.400   4.630   2.935  0.0628  0.1369  0.3519
 3681ntf    on522270   3.419   4.851   2.834  0.0245 -0.3060  0.6025
 3681ntf    on522271   3.429   4.402   2.706 -0.4094 -0.4790 -0.6958
 3681ntf    on522272   3.393   4.499   2.488 -0.2076  0.0880 -0.5585
 3681ntf    fn422273   3.134   4.600   2.578  0.0980  0.6203  0.0165
 3681ntf    fn422274   3.137   4.386   2.616 -0.4252  0.1917  0.3410
 3681ntf    fn422275   3.161   4.522   2.776  0.2895 -0.0116 -0.2628
 3682ntf    cn122276   5.547   6.628   6.777  0.0830  0.3200 -0.0227
 3682ntf    sn222277   5.619   6.662   6.940  0.1867  0.4115 -0.0878
 3682ntf    nn322278   5.495   6.617   7.025  0.2542  0.1992 -0.1009
 3682ntf    sn222279   5.443   6.470   7.039  0.2593  0.1942 -0.1284
 3682ntf    cn122280   5.289   6.485   6.945 -0.0040  0.2253  0.3038
 3682ntf    fn422281   5.532   6.502   6.738 -0.0171  0.2812  0.1358
 3682ntf    fn422282   5.423   6.675   6.773 -0.1179 -0.1445  0.5553
 3682ntf    fn422283   5.622   6.687   6.686 -0.1919  0.8810  0.1126
 3682ntf    on522284   5.737   6.580   6.956 -0.5800 -0.7274 -0.1983
 3682ntf    on522285   5.644   6.804   6.937 -0.1356  0.4727  0.1609
 3682ntf    on522286   5.396   6.443   7.173  0.0765 -0.4468 -0.3196
 3682ntf    on522287   5.511   6.359   6.977  0.1994  0.0068  0.1365
 3682ntf    fn422288   5.308   6.470   6.815 -0.1851 -0.3579  0.3413
 3682ntf    fn422289   5.201   6.393   6.982  0.2000 -0.1772 -0.1953
 3682ntf    fn422290   5.230   6.601   6.968 -0.0632  0.3391 -0.3879
 3683ntf    cn122291   6.392   5.747   4.289 -0.2815 -0.0548  0.1105
 3683ntf    sn222292   6.415   5.908   4.371  0.1097 -0.1405  0.1746
 3683ntf    nn322293   6.459   5.995   4.248 -0.3900 -0.1707 -0.0304
 3683ntf    sn222294   6.439   6.149   4.229 -0.0547 -0.0954  0.2132
 3683ntf    cn122295   6.588   6.215   4.310  0.1819 -0.1931 -0.1377
 3683ntf    fn422296   6.331   5.656   4.362  0.1063 -0.0625  0.4307
 3683ntf    fn422297   6.330   5.770   4.175  0.2147 -0.0321 -0.1593
 3683ntf    fn422298   6.507   5.689   4.259  0.0038  0.4125  0.2774
 3683ntf    on522299   6.280   5.924   4.420  0.3062 -0.0238  0.6894
 3683ntf    on522300   6.518   5.883   4.469 -0.0108  0.3239  0.4203
 3683ntf    on522301   6.328   6.215   4.293  0.1197 -0.1724  0.5966
 3683ntf    on522302   6.462   6.186   4.091  0.0767  0.7360  0.4547
 3683ntf    fn422303   6.580   6.347   4.318  0.3135 -0.1845 -0.1628
 3683ntf    fn422304   6.604   6.170   4.433  0.7010 -0.0509 -0.1527
 3683ntf    fn422305   6.703   6.181   4.255  0.3257 -0.4469  0.3205
 3684ntf    cn122306   5.591   1.016   6.903 -0.3081 -0.1386 -0.0666
 3684ntf    sn222307   5.567   0.838   6.928 -0.2891 -0.1428 -0.0767
 3684ntf    nn322308   5.439   0.854   7.018 -0.1891 -0.1286  0.0626
 3684ntf    sn222309   5.378   0.769   7.135 -0.0784 -0.4432 -0.1056
 3684ntf    cn122310   5.450   0.860   7.275 -0.4476 -0.0877 -0.1452
 3684ntf    fn422311   5.472   1.072   6.886 -0.1601  0.2721  0.2270
 3684ntf    fn422312   5.649   1.083   7.002  0.1734 -0.0427 -0.4085
 3684ntf    fn422313   5.670   1.041   6.799  0.1543 -0.0964  0.2933
 3684ntf    on522314   5.524   0.793   6.798  0.2223 -0.1085 -0.2587
 3684ntf    on522315   5.683   0.784   6.993 -0.5116  0.0521  0.4900
 3684ntf    on522316   5.426   0.635   7.155 -0.0279 -0.3370  0.4952
 3684ntf    on522317   5.235   0.788   7.142 -0.0758 -0.0909 -0.8881
 3684ntf    fn422318   5.377   0.846   7.384 -0.5643 -0.3340 -0.2549
 3684ntf    fn422319   5.576   0.839   7.310 -0.2889 -0.0087 -0.6587
 3684ntf    fn422320   5.446   0.988   7.239  0.1924 -0.0269 -0.0029
 3685ntf    cn122321   6.433   3.703   6.816  0.3168 -0.2859 -0.3014
 3685ntf    sn222322   6.340   3.825   6.718 -0.0722 -0.1779  0.1990
 3685ntf    nn322323   6.314   3.923   6.838  0.1656  0.1586 -0.0222
 3685ntf    sn222324   6.184   3.936   6.926  0.0940  0.1156 -0.1209
 3685ntf    cn122325   6.102   4.076   6.845  0.0548  0.3759  0.3655
 3685ntf    fn422326   6.357   3.643   6.907  0.2607  0.1452 -0.0601
 3685ntf    fn422327   6.489   3.612   6.739 -0.0793 -0.3177 -0.5552
 3685ntf    fn422328   6.531   3.756   6.888  0.0610 -0.2387  0.0172
 3685ntf    on522329   6.440   3.870   6.626 -0.2079  0.1403  0.2071
 3685ntf    on522330   6.222   3.754   6.675 -0.0545  0.1314 -0.3572
 3685ntf    on522331   6.222   3.988   7.055  0.4786  0.2803 -0.2982
 3685ntf    on522332   6.093   3.825   6.926  0.1614  0.0586 -0.3220
 3685ntf    fn422333   6.168   4.191   6.849 -0.1549  0.5036  0.2006
 3685ntf    fn422334   6.080   4.045   6.718  0.0805  0.5686  0.3134
 3685ntf    fn422335   5.984   4.110   6.896  0.0196 -0.0636  0.5795
 3686ntf    cn122336   5.401   5.029   1.434 -0.2894  0.2562 -0.0964
 3686ntf    sn222337   5.361   5.181   1.526  0.2615  0.3295  0.0206
 3686ntf    nn322338   5.428   5.280   1.424 -0.4000  0.6757 -0.0840
 3686ntf    sn222339   5.566   5.354   1.436  0.1888 -0.3671 -0.3193
 3686ntf    cn122340   5.503   5.501   1.521  0.2480 -0.4907 -0.0596
 3686ntf    fn422341   5.528   4.996   1.443 -0.3272  0.1397  0.0064
 3686ntf    fn422342   5.332   4.926   1.481  0.0333  0.1034  0.0420
 3686ntf    fn422343   5.362   5.055   1.310  0.0776 -0.1183 -0.2912
 3686ntf    on522344   5.217   5.186   1.519  0.2228 -0.1485  0.3913
 3686ntf    on522345   5.419   5.163   1.657  0.0716  0.0012  0.0596
 3686ntf    on522346   5.622   5.415   1.318  0.0727  0.5160  0.0805
 3686ntf    on522347   5.655   5.303   1.538 -0.4123 -0.3819  0.1996
 3686ntf    fn422348   5.597   5.584   1.565 -0.0368 -0.2251  0.0533
 3686ntf    fn422349   5.416   5.571   1.450  1.1101  0.7197  0.0414
 3686ntf    fn422350   5.430   5.473   1.627 -0.0103  0.0080 -0.0984
 3687ntf    cn122351   0.809   3.881   0.576 -0.2584 -0.3664 -0.2209
 3687ntf    sn222352   0.688   3.964   0.683  0.1421 -0.1011  0.0285
 3687ntf    nn322353   0.731   4.114   0.681  0.0246 -0.0621  0.3060
 3687ntf    sn222354   0.676   4.245   0.613  0.0225 -0.1972  0.0451
 3687ntf    cn122355   0.809   4.290   0.498 -0.0222  0.0587  0.0929
 3687ntf    fn422356   0.874   3.960   0.492  0.0216  0.1303  0.4547
 3687ntf    fn422357   0.906   3.826   0.647  0.3300  0.3607 -0.4607
 3687ntf    fn422358   0.759   3.775   0.513 -0.1285 -0.2104 -0.5870
 3687ntf    on522359   0.565   3.939   0.612  0.3107  0.0288 -0.3132
 3687ntf    on522360   0.696   3.902   0.813  0.0684  0.3500  0.2486
 3687ntf    on522361   0.686   4.354   0.707  0.6411  0.0455 -0.3023
 3687ntf    on522362   0.562   4.233   0.525 -0.2641  0.0277  0.3801
 3687ntf    fn422363   0.800   4.227   0.382 -0.0014  0.1616  0.0351
 3687ntf    fn422364   0.800   4.422   0.488  0.5217  0.0776 -0.1439
 3687ntf    fn422365   0.926   4.254   0.548 -0.0133 -0.3438 -0.2121
 3688ntf    cn122366   6.615   2.804   6.200 -0.2295 -0.0941 -0.1351
 3688ntf    sn222367   6.761   2.709   6.253 -0.0787  0.0160 -0.3519
 3688ntf    nn322368   6.703   2.585   6.330 -0.3460  0.2622 -0.1529
 3688ntf    sn222369   6.653   2.450   6.268  0.2038  0.0681 -0.1750
 3688ntf    cn122370   6.485   2.438   6.335  0.1654  0.1964 -0.2497
 3688ntf    fn422371   6.539   2.863   6.291  0.2787  0.4064 -0.0243
 3688ntf    fn422372   6.636   2.898   6.109 -0.3568 -0.2435 -0.3180
 3688ntf    fn422373   6.525   2.724   6.146 -0.3195 -0.2403  0.2272
 3688ntf    on522374   6.836   2.679   6.134 -0.3059  0.6673 -0.6680
 3688ntf    on522375   6.821   2.798   6.350 -0.1773 -0.6118  0.2891
 3688ntf    on522376   6.726   2.341   6.328  0.2228  0.1540 -0.0422
 3688ntf    on522377   6.632   2.439   6.126 -0.2819 -0.0186 -0.0976
 3688ntf    fn422378   6.490   2.368   6.447  0.3127  0.0795 -0.3292
 3688ntf    fn422379   6.441   2.561   6.355 -0.4314 -0.0960  0.2658
 3688ntf    fn422380   6.393   2.383   6.257  0.2787  0.3570 -0.4973
 3689ntf    cn122381   0.319   3.606   0.049  0.2810 -0.1832  0.4947
 3689ntf    sn222382   0.479   3.610   0.135  0.1587  0.0215  0.7150
 3689ntf    nn322383   0.484   3.473   0.211  0.0127  0.0562  0.7875
 3689ntf    sn222384   0.591   3.358   0.218 -0.0777 -0.0684  0.1646
 3689ntf    cn122385   0.486   3.213   0.251  0.0076 -0.0641  0.4572
 3689ntf    fn422386   0.287   3.724  -0.000 -0.3150 -0.4313  0.2780
 3689ntf    fn422387   0.316   3.519  -0.051  0.0103 -0.2188  0.5334
 3689ntf    fn422388   0.222   3.579   0.136 -0.4685  0.2462 -0.1962
 3689ntf    on522389   0.584   3.644   0.042  0.1683 -0.6367  0.4821
 3689ntf    on522390   0.440   3.715   0.225  0.1015 -0.0197  0.7381
 3689ntf    on522391   0.681   3.362   0.331  0.1407  0.6697 -0.0320
 3689ntf    on522392   0.655   3.337   0.090  0.1017  0.4755  0.1644
 3689ntf    fn422393   0.549   3.097   0.263 -0.2781 -0.2766 -0.0500
 3689ntf    fn422394   0.421   3.227   0.365 -0.4594  0.2318  0.1540
 3689ntf    fn422395   0.399   3.189   0.154  0.5667  0.0422 -0.0791
 3690ntf    cn122396   5.628   6.034   1.642  0.1942 -0.1315 -0.4546
 3690ntf    sn222397   5.490   5.946   1.721  0.3569 -0.0139 -0.0405
 3690ntf    nn322398   5.567   5.861   1.829  0.3457 -0.2197 -0.1943
 3690ntf    sn222399   5.515   5.825   1.972  0.6967  0.0055 -0.0098
 3690ntf    cn122400   5.556   5.649   1.989 -0.1805 -0.2129 -0.0911
 3690ntf    fn422401   5.587   6.135   1.567  0.3386 -0.1210 -0.5201
 3690ntf    fn422402   5.707   6.088   1.732 -0.1075  0.1398 -0.3516
 3690ntf    fn422403   5.703   5.946   1.578 -0.2770 -0.4945 -0.5182
 3690ntf    on522404   5.403   6.048   1.773 -0.3963 -0.6489 -0.0304
 3690ntf    on522405   5.433   5.862   1.619  0.3581  0.5750 -0.5308
 3690ntf    on522406   5.373   5.832   1.995  0.6459  0.8905 -0.5346
 3690ntf    on522407   5.599   5.888   2.072  0.0073 -0.1434  0.6729
 3690ntf    fn422408   5.494   5.597   2.094 -0.2883 -0.0343 -0.0646
 3690ntf    fn422409   5.525   5.574   1.885  0.0740 -0.5497  0.0740
 3690ntf    fn422410   5.687   5.631   2.000 -0.1283  0.1022 -0.1753
 3691ntf    cn122411   1.006   3.962   2.093  0.2155 -0.0435 -0.4278
 3691ntf    sn222412   0.919   3.803   2.095  0.0088  0.0734  0.1996
 3691ntf    nn322413   0.837   3.833   1.965  0.3320  0.3179  0.0498
 3691ntf    sn222414   0.849   3.793   1.814 -0.0177  0.2644  0.0350
 3691ntf    cn122415   0.696   3.695   1.808  0.1342  0.0559 -0.5087
 3691ntf    fn422416   1.082   3.979   2.201 -0.2283  0.3982 -0.1832
 3691ntf    fn422417   1.084   3.965   1.986  0.2644  1.1139 -0.3715
 3691ntf    fn422418   0.928   4.068   2.093 -0.3089 -0.4236 -0.1087
 3691ntf    on522419   1.020   3.700   2.097 -0.1893 -0.1196  0.3521
 3691ntf    on522420   0.836   3.821   2.211 -0.2654  0.0245  0.0119
 3691ntf    on522421   0.954   3.702   1.775 -0.1817 -0.1038  0.4347
 3691ntf    on522422   0.818   3.906   1.730  0.1465  0.1474 -0.1870
 3691ntf    fn422423   0.706   3.577   1.868 -0.4623  0.0884 -0.3370
 3691ntf    fn422424   0.594   3.749   1.873  0.6249  0.2448  0.1136
 3691ntf    fn422425   0.654   3.678   1.683 -0.1050 -0.1010 -0.4084
 3692ntf    cn122426   5.905   0.738   4.409  0.3925 -0.3550 -0.4520
 3692ntf    sn222427   5.832   0.838   4.276 -0.0135 -0.2154 -0.1248
 3692ntf    nn322428   5.693   0.888   4.329  0.0221 -0.1457 -0.0964
 3692ntf    sn222429   5.595   0.810   4.424 -0.0017  0.0583  0.0472
 3692ntf    cn122430   5.444   0.900   4.381 -0.0504 -0.0393  0.0117
 3692ntf    fn422431   6.035   0.717   4.394  0.4219 -0.4309 -0.0873
 3692ntf    fn422432   5.894   0.807   4.521 -0.0117 -0.3173 -0.5132
 3692ntf    fn422433   5.840   0.625   4.425 -0.0906  0.0368  0.4202
 3692ntf    on522434   5.925   0.948   4.267  0.0554 -0.2228  0.4749
 3692ntf    on522435   5.824   0.750   4.162 -0.1249  0.1670 -0.4143
 3692ntf    on522436   5.611   0.838   4.565  0.4871 -0.5386  0.1174
 3692ntf    on522437   5.566   0.673   4.391 -0.1865 -0.0262  0.5511
 3692ntf    fn422438   5.442   1.029   4.412 -0.3945  0.0708 -0.4406
 3692ntf    fn422439   5.409   0.901   4.253  0.1244 -0.5743 -0.0422
 3692ntf    fn422440   5.339   0.850   4.445 -0.4099  0.6613 -0.0183
 3693ntf    cn122441   2.223   1.235   3.798  0.0719  0.1379  0.2771
 3693ntf    sn222442   2.317   1.213   3.952  0.4360 -0.0785  0.0247
 3693ntf    nn322443   2.215   1.126   4.034 -0.2036  0.4554 -0.1977
 3693ntf    sn222444   2.107   1.183   4.132  0.2302  0.3798  0.3298
 3693ntf    cn122445   2.193   1.153   4.289  0.3555 -0.4136  0.1136
 3693ntf    fn422446   2.262   1.145   3.709 -0.3591  0.3066 -0.0866
 3693ntf    fn422447   2.093   1.224   3.816  0.0004 -0.1406 -0.3660
 3693ntf    fn422448   2.252   1.350   3.739  0.0998 -0.0289 -0.0378
 3693ntf    on522449   2.425   1.132   3.901 -0.1845 -0.6538 -0.3967
 3693ntf    on522450   2.340   1.352   3.983 -0.4640  0.0129  0.3032
 3693ntf    on522451   1.994   1.094   4.130  0.7133 -0.2448  0.6112
 3693ntf    on522452   2.081   1.325   4.124 -0.4355  0.2417 -0.0501
 3693ntf    fn422453   2.213   1.024   4.311  0.4624 -0.3871  0.1731
 3693ntf    fn422454   2.308   1.219   4.292  0.2688 -0.2464 -0.1523
 3693ntf    fn422455   2.125   1.207   4.389 -0.1818 -0.0118 -0.4600
 3694ntf    cn122456   0.349   0.778   0.858  0.0047  0.3871 -0.1668
 3694ntf    sn222457   0.434   0.666   0.742  0.2342  0.3008  0.0826
 3694ntf    nn322458   0.318   0.565   0.708 -0.0388  0.7600 -0.3708
 3694ntf    sn222459   0.195   0.574   0.611 -0.2489  0.1990 -0.1635
 3694ntf    cn122460   0.256   0.489   0.462  0.0315 -0.4573  0.3199
 3694ntf    fn422461   0.231   0.815   0.810 -0.1957  0.0542  0.0664
 3694ntf    fn422462   0.318   0.720   0.973  0.3582  0.1042 -0.2130
 3694ntf    fn422463   0.425   0.883   0.884  0.1618  0.1630  0.2952
 3694ntf    on522464   0.470   0.750   0.631  0.1608  0.1726 -0.0383
 3694ntf    on522465   0.537   0.596   0.814  0.0455 -0.0759 -0.0106
 3694ntf    on522466   0.157   0.707   0.568  0.1687  0.4866  0.3476
 3694ntf    on522467   0.087   0.486   0.646  0.1242 -0.1691  0.0617
 3694ntf    fn422468   0.338   0.562   0.388 -0.2612 -0.2327  0.2108
 3694ntf    fn422469   0.314   0.377   0.499  0.2000 -0.5887 -0.3296
 3694ntf    fn422470   0.160   0.444   0.383  0.1732 -0.0667 -0.0837
 3695ntf    cn122471   1.462   6.806   2.332  0.5203 -0.7249  0.0084
 3695ntf    sn222472   1.288   6.751   2.330  0.2544  0.1038 -0.0262
 3695ntf    nn322473   1.226   6.859   2.426 -0.0259  0.0658 -0.1644
 3695ntf    sn222474   1.129   6.977   2.390 -0.1920  0.0278  0.1600
 3695ntf    cn122475   1.036   6.991   2.546 -0.2126  0.2387  0.1281
 3695ntf    fn422476   1.474   6.938   2.326 -0.5816 -0.6184 -0.1795
 3695ntf    fn422477   1.523   6.778   2.445  0.4624 -0.5321  0.0883
 3695ntf    fn422478   1.535   6.748   2.238  0.1030 -0.8264 -0.2545
 3695ntf    on522479   1.253   6.763   2.190  0.3641 -0.3273 -0.0921
 3695ntf    on522480   1.296   6.622   2.392 -0.4507  0.0051 -0.1340
 3695ntf    on522481   1.031   6.944   2.289 -0.3837  0.6266  0.1460
 3695ntf    on522482   1.181   7.111   2.379 -0.3685  0.1364  0.6296
 3695ntf    fn422483   0.973   6.880   2.581 -0.0514 -0.0352 -0.4410
 3695ntf    fn422484   1.116   7.032   2.642  0.2205 -0.7029  0.1707
 3695ntf    fn422485   0.948   7.089   2.531  0.3131  0.7520  0.3710
 3696ntf    cn122486   2.490   6.240   6.001 -0.1183 -0.3548  0.0750
 3696ntf    sn222487   2.511   6.123   5.863 -0.0169  0.0206 -0.2313
 3696ntf    nn322488   2.378   6.156   5.786 -0.0882 -0.4646 -0.3180
 3696ntf    sn222489   2.352   6.281   5.694  0.1517 -0.0055  0.2294
 3696ntf    cn122490   2.338   6.190   5.537  0.4523 -0.0790  0.2433
 3696ntf    fn422491   2.432   6.354   5.967  0.3870 -0.1687 -0.1870
 3696ntf    fn422492   2.432   6.182   6.105 -0.0602 -0.0915  0.2558
 3696ntf    fn422493   2.607   6.282   6.046 -0.2617  0.3073 -0.1467
 3696ntf    on522494   2.636   6.150   5.797  0.2632  0.1112  0.3266
 3696ntf    on522495   2.497   6.001   5.938 -0.2601  0.2559  0.1156
 3696ntf    on522496   2.456   6.379   5.676  0.2063 -0.0391  0.3611
 3696ntf    on522497   2.221   6.336   5.718  0.0258 -0.1132 -0.2120
 3696ntf    fn422498   2.323   6.266   5.430 -0.0680 -0.0747  0.3160
 3696ntf    fn422499   2.440   6.110   5.515  0.3212 -0.1297 -0.1774
 3696ntf    fn422500   2.228   6.117   5.531  0.4139 -0.0170  0.1970
 3697ntf    cn122501   4.989   5.745   5.051  0.1814  0.0073  0.0216
 3697ntf    sn222502   5.052   5.750   4.881 -0.3371 -0.2900 -0.1807
 3697ntf    nn322503   5.199   5.704   4.910 -0.2229 -0.2080 -0.6264
 3697ntf    sn222504   5.263   5.563   4.886  0.1571 -0.1050 -0.2236
 3697ntf    cn122505   5.435   5.597   4.936 -0.1505  0.0967  0.7156
 3697ntf    fn422506   5.070   5.810   5.133  0.1030 -0.2367  0.2984
 3697ntf    fn422507   4.874   5.809   5.069 -0.0710 -0.4260 -0.0242
 3697ntf    fn422508   4.972   5.623   5.100 -0.4424  0.3214  0.6141
 3697ntf    on522509   4.972   5.659   4.803  0.1393 -0.6990 -0.1954
 3697ntf    on522510   5.046   5.890   4.848  0.6911 -0.1789  0.0730
 3697ntf    on522511   5.291   5.535   4.747  0.1727  0.3489 -0.3115
 3697ntf    on522512   5.227   5.457   4.976 -0.6648  0.9403  0.7000
 3697ntf    fn422513   5.438   5.635   5.063 -0.3800  0.2550  0.6735
 3697ntf    fn422514   5.497   5.480   4.935  0.8400  0.6160 -0.1304
 3697ntf    fn422515   5.512   5.677   4.864 -0.3805 -0.1117  0.2316
 3698ntf    cn122516   0.151   4.945   6.311 -0.2821 -0.2157 -0.0504
 3698ntf    sn222517   0.326   4.901   6.336 -0.0915  0.3042 -0.4641
 3698ntf    nn322518   0.314   4.754   6.390  0.0430  0.4382 -0.0718
 3698ntf    sn222519   0.303   4.703   6.538  0.0127 -0.3807 -0.3508
 3698ntf    cn122520   0.181   4.573   6.506 -0.3750 -0.1165  0.0451
 3698ntf    fn422521   0.104   4.898   6.197  0.4026 -0.5325 -0.2114
 3698ntf    fn422522   0.070   4.908   6.409 -0.0753  0.1180  0.2493
 3698ntf    fn422523   0.137   5.076   6.318  0.8398 -0.0823 -0.0212
 3698ntf    on522524   0.385   4.904   6.204  0.4429  0.1099 -0.2326
 3698ntf    on522525   0.378   4.991   6.435  0.0737 -0.2145 -0.0776
 3698ntf    on522526   0.240   4.796   6.629  0.2224 -0.3795 -0.2059
 3698ntf    on522527   0.418   4.628   6.581  0.2762  0.5912  0.6925
 3698ntf    fn422528   0.231   4.468   6.443  0.1744  0.0754  0.1619
 3698ntf    fn422529   0.128   4.531   6.621 -0.5218 -0.1945 -0.0498
 3698ntf    fn422530   0.083   4.620   6.431 -0.3004 -0.6806 -0.4112
 3699ntf    cn122531   2.561   2.065   2.988 -0.0753  0.2760 -0.2264
 3699ntf    sn222532   2.723   2.063   2.906  0.0114  0.1233 -0.0508
 3699ntf    nn322533   2.801   2.120   3.030  0.1951  0.0277 -0.1206
 3699ntf    sn222534   2.943   2.076   3.079  0.0691 -0.1787  0.0644
 3699ntf    cn122535   2.996   2.234   3.151  0.0859 -0.1927  0.0833
 3699ntf    fn422536   2.564   1.985   3.094 -0.2704  0.1513 -0.3134
 3699ntf    fn422537   2.531   2.186   3.031 -0.1985  0.0902  0.2185
 3699ntf    fn422538   2.465   2.028   2.904  0.2166 -0.5205 -0.2205
 3699ntf    on522539   2.745   1.924   2.873  0.3508  0.0298  0.5422
 3699ntf    on522540   2.708   2.152   2.794 -0.1405  0.1999  0.0311
 3699ntf    on522541   3.042   2.048   2.978  0.0970 -0.8618  0.2773
 3699ntf    on522542   2.935   1.989   3.193 -0.3055  0.2158  0.3421
 3699ntf    fn422543   3.122   2.207   3.184  0.1395  0.2964  0.2816
 3699ntf    fn422544   3.010   2.332   3.063 -0.2340 -0.0484  0.1909
 3699ntf    fn422545   2.933   2.276   3.259  0.1847 -0.1721  0.1333
 3700ntf    cn122546   2.841   1.890   4.323 -0.3328 -0.4641  0.0321
 3700ntf    sn222547   2.890   1.748   4.220  0.1592 -0.2126 -0.0841
 3700ntf    nn322548   2.759   1.663   4.204 -0.3252  0.4845  0.1601
 3700ntf    sn222549   2.656   1.684   4.088 -0.0900  0.0609 -0.1257
 3700ntf    cn122550   2.708   1.548   3.979  0.0254  0.0735 -0.0858
 3700ntf    fn422551   2.939   1.968   4.364 -0.2707 -0.5185 -0.0115
 3700ntf    fn422552   2.753   1.977   4.278  0.2179 -0.2050 -0.5657
 3700ntf    fn422553   2.780   1.849   4.433 -0.4755 -0.1240  0.0781
 3700ntf    on522554   2.941   1.807   4.098  0.4877 -0.4802 -0.0767
 3700ntf    on522555   2.992   1.681   4.297 -0.2641 -0.2283  0.4672
 3700ntf    on522556   2.663   1.797   3.999 -0.2853  0.1746  0.0026
 3700ntf    on522557   2.528   1.641   4.139  0.3140 -0.9830  0.0345
 3700ntf    fn422558   2.749   1.444   4.050  0.4902  0.2032 -0.1654
 3700ntf    fn422559   2.605   1.511   3.904  0.1039 -0.5370  0.1072
 3700ntf    fn422560   2.810   1.585   3.904  0.3078 -0.2903  0.1210
 3701ntf    cn122561   6.601   0.110   4.511  0.3136 -0.0139 -0.1197
 3701ntf    sn222562   6.686   0.247   4.426  0.0628  0.1227 -0.1501
 3701ntf    nn322563   6.567   0.348   4.410 -0.0928 -0.0926 -0.3520
 3701ntf    sn222564   6.502   0.411   4.282 -0.3883  0.0194 -0.1489
 3701ntf    cn122565   6.358   0.300   4.267 -0.5132  0.1999 -0.2956
 3701ntf    fn422566   6.476   0.098   4.469  0.2519 -0.2064  0.1221
 3701ntf    fn422567   6.660  -0.008   4.496 -0.0714 -0.2172 -0.0372
 3701ntf    fn422568   6.586   0.130   4.641  0.1025 -0.3400 -0.0948
 3701ntf    on522569   6.779   0.299   4.523  0.2325  0.3433 -0.4295
 3701ntf    on522570   6.749   0.176   4.318  0.3725  0.1180  0.0339
 3701ntf    on522571   6.577   0.387   4.161 -0.0850  0.5647 -0.0712
 3701ntf    on522572   6.435   0.538   4.296 -0.6530 -0.0611 -0.6714
 3701ntf    fn422573   6.298   0.288   4.384  0.1723 -0.1365  0.0314
 3701ntf    fn422574   6.268   0.340   4.180 -0.5178  0.1188 -0.3282
 3701ntf    fn422575   6.388   0.175   4.234  0.0773  0.4772 -0.8365
 3702ntf    cn122576   4.588   5.632   0.635  0.1157  0.0284  0.5238
 3702ntf    sn222577   4.585   5.809   0.594 -0.0851 -0.0770  0.0791
 3702ntf    nn322578   4.557   5.876   0.733 -0.5355  0.6051 -0.3346
 3702ntf    sn222579   4.428   5.909   0.815 -0.3205  0.3180  0.1231
 3702ntf    cn122580   4.456   5.784   0.944  0.0979  0.1080 -0.1739
 3702ntf    fn422581   4.610   5.560   0.527  0.4262 -0.6222  1.0121
 3702ntf    fn422582   4.689   5.598   0.713  0.7225  0.0215 -0.2501
 3702ntf    fn422583   4.478   5.581   0.687 -0.1547 -0.0793 -0.1480
 3702ntf    on522584   4.716   5.838   0.541 -0.1843 -0.2122 -0.2447
 3702ntf    on522585   4.473   5.828   0.505 -0.2550  0.0342  0.3176
 3702ntf    on522586   4.300   5.880   0.755 -0.1729 -0.8686  0.3664
 3702ntf    on522587   4.438   6.040   0.875 -0.1214  0.3239  0.0758
 3702ntf    fn422588   4.360   5.789   1.034  0.6445 -0.1511  0.4354
 3702ntf    fn422589   4.451   5.661   0.894 -0.7442  0.0598  0.0264
 3702ntf    fn422590   4.571   5.806   1.005  0.0134 -0.1088  0.0608
 3703ntf    cn122591   0.428   4.450   4.136 -0.4149  0.2253  0.2520
 3703ntf    sn222592   0.301   4.368   4.036 -0.0821 -0.0037  0.0115
 3703ntf    nn322593   0.208   4.491   4.008 -0.1752 -0.0870 -0.0503
 3703ntf    sn222594   0.110   4.566   4.105  0.0567  0.1144  0.0288
 3703ntf    cn122595   0.176   4.735   4.102 -0.2530  0.2355 -0.0964
 3703ntf    fn422596   0.461   4.562   4.073 -0.4645  0.0106 -0.1621
 3703ntf    fn422597   0.389   4.490   4.255  0.1662  1.2865  0.0975
 3703ntf    fn422598   0.540   4.381   4.151 -0.5122  0.0555  0.1988
 3703ntf    on522599   0.360   4.329   3.910  0.8530  0.1919  0.3858
 3703ntf    on522600   0.261   4.260   4.122 -0.3766 -0.0014 -0.1201
 3703ntf    on522601   0.124   4.525   4.243 -0.1800 -0.1657 -0.0283
 3703ntf    on522602  -0.024   4.578   4.053 -0.2853  0.2306  0.9103
 3703ntf    fn422603   0.292   4.749   4.166 -0.1686  0.3010 -0.2640
 3703ntf    fn422604   0.196   4.777   3.978  0.3695 -0.6020 -0.2869
 3703ntf    fn422605   0.103   4.826   4.165 -0.1103  0.0627  0.3186
 3704ntf    cn122606   6.299   5.986   1.105 -0.1689 -0.2344 -0.1091
 3704ntf    sn222607   6.172   6.045   1.221  0.0962 -0.1125  0.1213
 3704ntf    nn322608   6.052   5.959   1.168  0.3550 -0.2629 -0.2227
 3704ntf    sn222609   6.004   5.826   1.237 -0.0649 -0.0675 -0.1397
 3704ntf    cn122610   5.900   5.915   1.357 -0.2203  0.0338 -0.3489
 3704ntf    fn422611   6.426   6.009   1.132 -0.1824 -0.4135  0.1081
 3704ntf    fn422612   6.303   5.854   1.094 -0.0538 -0.2810  0.4521
 3704ntf    fn422613   6.272   6.031   0.983  0.4140 -0.0184 -0.1585
 3704ntf    on522614   6.230   6.019   1.350  0.3812  0.3513  0.0910
 3704ntf    on522615   6.157   6.184   1.183 -0.1607 -0.3846 -0.8096
 3704ntf    on522616   6.101   5.753   1.314 -0.1927  0.3120  0.3928
 3704ntf    on522617   5.910   5.749   1.158 -0.0727 -0.4570  0.2463
 3704ntf    fn422618   5.855   5.827   1.445 -0.7002  0.2494 -0.3713
 3704ntf    fn422619   5.968   6.007   1.424  0.0569 -0.2152 -0.2871
 3704ntf    fn422620   5.800   5.982   1.302 -0.2832  0.0207 -0.2508
 3705ntf    cn122621   7.072   6.073   2.859 -0.2597  0.3686 -0.2079
 3705ntf    sn222622   7.150   6.119   2.701 -0.0057  0.0409 -0.1780
 3705ntf    nn322623   7.090   6.263   2.681 -0.2155 -0.0166  0.0281
 3705ntf    sn222624   7.160   6.401   2.705 -0.1274 -0.0652  0.0529
 3705ntf    cn122625   7.067   6.466   2.848 -0.4401 -0.1859 -0.0949
 3705ntf    fn422626   7.140   6.138   2.952  0.2241 -0.4985  0.0449
 3705ntf    fn422627   6.943   6.104   2.862 -0.3703 -0.0652 -0.5003
 3705ntf    fn422628   7.079   5.943   2.881 -0.7781  0.4082  0.2229
 3705ntf    on522629   7.291   6.117   2.730 -0.1377 -0.1992  0.4643
 3705ntf    on522630   7.094   6.022   2.610  0.0778  0.0347 -0.2215
 3705ntf    on522631   7.119   6.486   2.596  0.1298 -0.4150 -0.3150
 3705ntf    on522632   7.297   6.407   2.748 -0.2897 -0.6700  0.6723
 3705ntf    fn422633   7.043   6.385   2.950  0.2521  0.7697  0.8541
 3705ntf    fn422634   7.122   6.572   2.905 -0.2059 -0.2403 -0.2185
 3705ntf    fn422635   6.954   6.512   2.796 -0.1779  0.1307 -0.3866
 3706ntf    cn122636   6.571   0.794   0.266  0.1434 -0.1394  0.1376
 3706ntf    sn222637   6.732   0.711   0.282  0.1612 -0.0747  0.3021
 3706ntf    nn322638   6.762   0.658   0.137 -0.2986  0.1559  0.1215
 3706ntf    sn222639   6.771   0.509   0.089  0.2726  0.1651  0.1964
 3706ntf    cn122640   6.945   0.465   0.118  0.1804 -0.1934  0.2196
 3706ntf    fn422641   6.581   0.893   0.180  0.4601  0.2734  0.6448
 3706ntf    fn422642   6.474   0.713   0.225 -0.0415  0.0111  0.2747
 3706ntf    fn422643   6.534   0.845   0.382 -0.1394  0.4010 -0.1852
 3706ntf    on522644   6.817   0.826   0.305  0.3574 -0.1202 -0.1827
 3706ntf    on522645   6.716   0.617   0.389 -0.0141 -0.1942  0.1720
 3706ntf    on522646   6.761   0.488  -0.053 -0.3465 -0.4664  0.3220
 3706ntf    on522647   6.695   0.414   0.167 -0.3465  0.1534 -0.4194
 3706ntf    fn422648   6.963   0.335   0.130  0.2023 -0.1607  0.5692
 3706ntf    fn422649   7.026   0.506   0.022  0.0865 -0.0487  0.2018
 3706ntf    fn422650   6.992   0.517   0.231  0.3906  0.5500 -0.2033
 3707ntf    cn122651   3.771   0.115   3.638 -0.0414 -0.2559 -0.1077
 3707ntf    sn222652   3.767   0.232   3.498  0.0143  0.0183  0.1195
 3707ntf    nn322653   3.632   0.179   3.438  0.0617 -0.0490  0.0731
 3707ntf    sn222654   3.566   0.230   3.305 -0.1708  0.0794  0.2361
 3707ntf    cn122655   3.604   0.087   3.199 -0.2891 -0.0108  0.3141
 3707ntf    fn422656   3.884   0.117   3.706  0.3397 -0.0726 -0.7348
 3707ntf    fn422657   3.680   0.125   3.733 -0.1800  0.2632 -0.2922
 3707ntf    fn422658   3.760  -0.011   3.597 -0.2810 -0.2217 -0.1513
 3707ntf    on522659   3.766   0.364   3.556  0.3553 -0.0071  0.1855
 3707ntf    on522660   3.887   0.200   3.426  0.0883  0.8648 -0.1427
 3707ntf    on522661   3.631   0.342   3.241  0.2148 -0.3738 -0.1792
 3707ntf    on522662   3.422   0.225   3.311 -0.1909  0.3461 -0.0081
 3707ntf    fn422663   3.523  -0.014   3.223 -0.1156 -0.2083  0.0790
 3707ntf    fn422664   3.601   0.107   3.068 -0.1729 -0.3170  0.2625
 3707ntf    fn422665   3.726   0.043   3.223 -0.3859 -0.1139  0.6094
 3708ntf    cn122666   2.820   5.239   4.910  0.0027 -0.3140 -0.2046
 3708ntf    sn222667   2.681   5.313   4.819  0.0090 -0.1451 -0.0769
 3708ntf    nn322668   2.743   5.455   4.796  0.3040 -0.2331  0.1591
 3708ntf    sn222669   2.820   5.514   4.672  0.1730 -0.2427  0.0719
 3708ntf    cn122670   2.857   5.681   4.733 -0.3277 -0.1410  0.0959
 3708ntf    fn422671   2.808   5.108   4.920  0.2025 -0.3562 -0.4987
 3708ntf    fn422672   2.943   5.264   4.868 -0.1387  0.3018 -0.2641
 3708ntf    fn422673   2.819   5.281   5.035 -0.2456 -0.1357 -0.2648
 3708ntf    on522674   2.663   5.233   4.701  0.6431 -0.0569 -0.2363
 3708ntf    on522675   2.575   5.305   4.917  0.0638 -0.1299 -0.0168
 3708ntf    on522676   2.740   5.536   4.555  0.1278  0.0490  0.1579
 3708ntf    on522677   2.951   5.453   4.662  0.1021 -0.3651 -0.1159
 3708ntf    fn422678   2.927   5.672   4.845 -0.3564 -0.4844  0.0877
 3708ntf    fn422679   2.935   5.751   4.653 -0.6972  0.6693  0.4261
 3708ntf    fn422680   2.762   5.766   4.769  0.3972  0.6091  0.2699
 3709ntf    cn122681   6.956   0.690   2.085 -0.0236 -0.4498  0.0839
 3709ntf    sn222682   6.783   0.694   2.142 -0.0173  0.0074  0.0724
 3709ntf    nn322683   6.707   0.623   2.025 -0.1560 -0.2570  0.3222
 3709ntf    sn222684   6.681   0.468   2.016 -0.0721 -0.2534 -0.0222
 3709ntf    cn122685   6.516   0.464   2.092 -0.1481  0.2948 -0.1484
 3709ntf    fn422686   6.966   0.752   1.968 -0.1027 -0.5076  0.0462
 3709ntf    fn422687   7.038   0.746   2.171  0.2355  0.0833 -0.5009
 3709ntf    fn422688   6.996   0.568   2.053  0.5504 -0.4032  0.6182
 3709ntf    on522689   6.781   0.618   2.264 -0.0121  0.3692  0.3004
 3709ntf    on522690   6.758   0.836   2.152  0.4440  0.1508 -0.7074
 3709ntf    on522691   6.753   0.381   2.105 -0.0405 -0.7174 -0.5019
 3709ntf    on522692   6.658   0.430   1.880 -0.3262  0.8378 -0.2965
 3709ntf    fn422693   6.517   0.537   2.202  0.7364 -0.1469  0.1478
 3709ntf    fn422694   6.414   0.499   2.015 -0.3204  0.1485  0.0114
 3709ntf    fn422695   6.501   0.337   2.129  0.3232  0.3150  0.1293
 3710ntf    cn122696   4.793   6.649   5.173 -0.3163 -0.1494 -0.3066
 3710ntf    sn222697   4.848   6.567   5.020  0.2141  0.0550 -0.2279
 3710ntf    nn322698   4.774   6.430   5.041 -0.0307  0.1553 -0.4364
 3710ntf    sn222699   4.723   6.336   4.926 -0.1017 -0.0598 -0.2305
 3710ntf    cn122700   4.755   6.172   4.997  0.3986  0.1646  0.0725
 3710ntf    fn422701   4.839   6.773   5.181 -0.4024 -0.1285 -0.1310
 3710ntf    fn422702   4.661   6.656   5.176 -0.3168 -0.3360  0.1313
 3710ntf    fn422703   4.817   6.576   5.280 -0.5634 -0.0935 -0.2114
 3710ntf    on522704   4.802   6.652   4.914 -0.2973 -0.3072 -0.2999
 3710ntf    on522705   4.991   6.553   5.034  0.1615  0.0701  0.3414
 3710ntf    on522706   4.803   6.348   4.806  0.5982 -0.0860  0.2305
 3710ntf    on522707   4.583   6.342   4.895 -0.1531 -0.4140 -0.0744
 3710ntf    fn422708   4.682   6.074   4.945  0.4368  0.2910 -0.2203
 3710ntf    fn422709   4.880   6.130   4.988  0.5121  0.4350  0.3814
 3710ntf    fn422710   4.738   6.174   5.128 -0.5188 -0.4398 -0.0208
 3711ntf    cn122711   4.562   2.933   6.449  0.1393  0.1703 -0.0128
 3711ntf    sn222712   4.539   2.992   6.279 -0.0611  0.3007  0.0585
 3711ntf    nn322713   4.511   2.855   6.209  0.5901  0.1771  0.0333
 3711ntf    sn222714   4.484   2.834   6.055 -0.0276  0.0050  0.1593
 3711ntf    cn122715   4.307   2.794   6.051  0.0534 -0.3308 -0.0947
 3711ntf    fn422716   4.570   2.801   6.455  0.0926  0.1625 -0.1118
 3711ntf    fn422717   4.668   2.983   6.510  0.2177 -0.2853  0.2301
 3711ntf    fn422718   4.454   2.958   6.522  0.1596 -0.1585  0.1302
 3711ntf    on522719   4.424   3.079   6.287 -0.0741  0.2664  0.2391
 3711ntf    on522720   4.667   3.046   6.241 -0.2342  0.1884 -0.7130
 3711ntf    on522721   4.549   2.715   6.005  0.2378  0.0962  0.2821
 3711ntf    on522722   4.507   2.945   5.966 -0.3528 -0.4900 -0.5489
 3711ntf    fn422723   4.233   2.880   6.118  0.2825 -0.6237  0.5392
 3711ntf    fn422724   4.265   2.784   5.926  0.5299  0.3763 -0.3219
 3711ntf    fn422725   4.285   2.680   6.114 -0.4646 -0.3123 -0.2409
 3712ntf    cn122726   3.860   4.772   1.612  0.0025  0.1662 -0.3533
 3712ntf    sn222727   3.862   4.803   1.433 -0.2589  0.1799 -0.3544
 3712ntf    nn322728   3.945   4.936   1.417  0.2142 -0.0698 -0.0050
 3712ntf    sn222729   3.888   5.074   1.465  0.0246 -0.1637  0.0441
 3712ntf    cn122730   3.826   5.140   1.307  0.0170  0.0911  0.1531
 3712ntf    fn422731   3.842   4.642   1.627  0.0055  0.1838 -0.1940
 3712ntf    fn422732   3.970   4.799   1.679 -0.2187  0.4667 -0.1057
 3712ntf    fn422733   3.754   4.823   1.674 -0.0412  0.1448 -0.4109
 3712ntf    on522734   3.931   4.693   1.372 -0.0548  0.1428 -0.0566
 3712ntf    on522735   3.723   4.814   1.394 -0.3529  0.7648  0.1276
 3712ntf    on522736   3.988   5.169   1.507 -0.5738  0.5484 -0.1343
 3712ntf    on522737   3.769   5.073   1.547 -0.2492  0.3170 -0.3404
 3712ntf    fn422738   3.916   5.205   1.235 -0.2112 -0.0324 -0.2457
 3712ntf    fn422739   3.792   5.041   1.225  0.2786  0.3973 -0.3308
 3712ntf    fn422740   3.727   5.227   1.311  0.1776  0.2879 -0.0885
 3713ntf    cn122741   0.786   4.889   2.277  0.1348 -0.2074 -0.1467
 3713ntf    sn222742   0.636   4.826   2.359 -0.1535  0.3169 -0.2676
 3713ntf    nn322743   0.678   4.676   2.344  0.1790  0.3018  0.7373
 3713ntf    sn222744   0.640   4.552   2.433 -0.0892 -0.1253  0.0418
 3713ntf    cn122745   0.805   4.488   2.474 -0.2153 -0.1635  0.4925
 3713ntf    fn422746   0.802   4.848   2.152  0.8320  0.0276 -0.1399
 3713ntf    fn422747   0.796   5.021   2.277 -0.4368 -0.1616  0.0044
 3713ntf    fn422748   0.894   4.850   2.343 -0.1538 -0.2747  0.2903
 3713ntf    on522749   0.642   4.867   2.497 -0.3467  0.0557 -0.1822
 3713ntf    on522750   0.530   4.881   2.278 -0.4599 -0.1111 -0.1607
 3713ntf    on522751   0.588   4.442   2.356 -0.0360 -0.2467  0.1779
 3713ntf    on522752   0.571   4.579   2.556 -0.9024 -0.3649 -0.3575
 3713ntf    fn422753   0.894   4.583   2.494 -0.1550 -0.0973 -0.0706
 3713ntf    fn422754   0.815   4.417   2.586  0.4545  0.1807  0.6566
 3713ntf    fn422755   0.856   4.406   2.383 -0.3956  0.1264  0.1285
 3714ntf    cn122756   3.401   1.376   7.042 -0.2152 -0.0949 -0.1817
 3714ntf    sn222757   3.262   1.368   7.159  0.0128  0.0515  0.1031
 3714ntf    nn322758   3.205   1.514   7.150 -0.6288 -0.1940  0.1160
 3714ntf    sn222759   3.107   1.553   7.034 -0.0719 -0.0494 -0.3147
 3714ntf    cn122760   2.947   1.533   7.119  0.0248  0.0730 -0.1007
 3714ntf    fn422761   3.499   1.460   7.074 -0.1205 -0.2194 -0.1441
 3714ntf    fn422762   3.460   1.259   7.030  0.1063  0.0369  0.0874
 3714ntf    fn422763   3.364   1.412   6.920 -0.1456  0.0553 -0.1595
 3714ntf    on522764   3.175   1.268   7.103  0.0157  0.1828 -0.1384
 3714ntf    on522765   3.318   1.334   7.287 -0.1571 -0.2311  0.1047
 3714ntf    on522766   3.095   1.463   6.923 -0.1966 -0.1075 -0.2554
 3714ntf    on522767   3.112   1.695   7.006  0.0261 -0.0452 -0.2726
 3714ntf    fn422768   2.842   1.558   7.042 -0.0268  0.1208 -0.0150
 3714ntf    fn422769   2.934   1.417   7.182 -0.2112  0.3035  0.2763
 3714ntf    fn422770   2.935   1.632   7.206  0.0939  0.2529 -0.2951
 3715ntf    cn122771   3.736   3.520   2.456 -0.2084  0.2250 -0.5474
 3715ntf    sn222772   3.615   3.412   2.373 -0.3293  0.0180 -0.1036
 3715ntf    nn322773   3.703   3.283   2.353 -0.4857 -0.0715 -0.2161
 3715ntf    sn222774   3.751   3.216   2.220  0.4487  0.3567 -0.1060
 3715ntf    cn122775   3.833   3.078   2.304 -0.1722  0.2185  0.2797
 3715ntf    fn422776   3.791   3.606   2.372 -0.1218  0.6207 -0.0936
 3715ntf    fn422777   3.686   3.600   2.548  0.3062 -0.5143  0.3959
 3715ntf    fn422778   3.839   3.457   2.512 -0.4890  0.2875  0.0439
 3715ntf    on522779   3.515   3.397   2.475  0.3706 -0.2287  0.5600
 3715ntf    on522780   3.575   3.479   2.252  0.1552  0.1908 -0.1736
 3715ntf    on522781   3.863   3.268   2.145  0.2952  0.3499 -0.3402
 3715ntf    on522782   3.640   3.154   2.151  0.6725 -0.0424 -0.1103
 3715ntf    fn422783   3.931   3.119   2.383 -0.0509 -0.1974  0.3525
 3715ntf    fn422784   3.743   3.014   2.376 -0.0830  0.2416  0.4138
 3715ntf    fn422785   3.884   2.986   2.223 -0.3609 -0.1386  0.5625
 3716ntf    cn122786   3.213   4.682   1.865 -0.3109  0.0935 -0.0900
 3716ntf    sn222787   3.206   4.792   2.009  0.0122 -0.2018  0.1551
 3716ntf    nn322788   3.057   4.771   2.053  0.0589 -0.0378  0.3990
 3716ntf    sn222789   3.000   4.673   2.162  0.0445 -0.1473  0.2938
 3716ntf    cn122790   2.833   4.656   2.093  0.1587 -0.0470 -0.0117
 3716ntf    fn422791   3.138   4.736   1.771 -0.3262 -0.1996 -0.2482
 3716ntf    fn422792   3.338   4.669   1.822 -0.0639  0.2653  0.5549
 3716ntf    fn422793   3.161   4.562   1.888  0.4030 -0.2292 -0.1130
 3716ntf    on522794   3.303   4.747   2.106  0.2684 -0.1483 -0.0744
 3716ntf    on522795   3.234   4.921   1.949  0.4528 -0.4084 -0.0899
 3716ntf    on522796   2.985   4.746   2.285  0.5793 -0.1096  0.3400
 3716ntf    on522797   3.050   4.538   2.159  0.3832 -0.0244  0.2821
 3716ntf    fn422798   2.765   4.551   2.137 -0.1571  0.1514 -0.0171
 3716ntf    fn422799   2.758   4.758   2.132  0.4449  0.2812 -0.3193
 3716ntf    fn422800   2.836   4.647   1.961  0.1249  0.3341 -0.0399
 3717ntf    cn122801   5.434   1.202   6.574  0.5237 -0.2248  0.3301
 3717ntf    sn222802   5.587   1.201   6.477  0.3462  0.1152  0.0446
 3717ntf    nn322803   5.526   1.159   6.339  0.0782  0.4445  0.0613
 3717ntf    sn222804   5.602   1.142   6.203  0.0696  0.1417  0.0926
 3717ntf    cn122805   5.560   1.294   6.112 -0.2809 -0.1282 -0.2000
 3717ntf    fn422806   5.370   1.088   6.551  0.3910 -0.0386 -0.2358
 3717ntf    fn422807   5.442   1.220   6.705 -0.5437  0.2515  0.3412
 3717ntf    fn422808   5.349   1.288   6.520  0.1001 -0.6842  0.2557
 3717ntf    on522809   5.640   1.335   6.487 -0.0774  0.2871 -0.0287
 3717ntf    on522810   5.662   1.092   6.534 -0.0343  0.0310  0.3823
 3717ntf    on522811   5.539   1.041   6.122  0.1809  0.3876 -0.3059
 3717ntf    on522812   5.746   1.146   6.209  0.0795  0.4158 -0.2774
 3717ntf    fn422813   5.431   1.311   6.087 -0.3489 -0.1881  0.1057
 3717ntf    fn422814   5.584   1.396   6.194  0.0118 -0.5618  0.2591
 3717ntf    fn422815   5.623   1.305   5.996  0.2458 -0.6351  0.0322
 3718ntf    cn122816   1.646   2.531   3.713  0.3230 -0.0309 -0.0539
 3718ntf    sn222817   1.728   2.624   3.846 -0.2462  0.4328 -0.0277
 3718ntf    nn322818   1.601   2.675   3.924 -0.2440  0.1184  0.1815
 3718ntf    sn222819   1.505   2.799   3.912 -0.0070  0.3054  0.2031
 3718ntf    cn122820   1.588   2.915   4.024  0.0832  0.2863  0.1569
 3718ntf    fn422821   1.731   2.472   3.630  0.0562 -0.1381 -0.2517
 3718ntf    fn422822   1.574   2.430   3.760 -0.2299  0.0814 -0.6457
 3718ntf    fn422823   1.557   2.604   3.649  0.1619  0.2899  0.5253
 3718ntf    on522824   1.793   2.519   3.920 -0.1938  0.0593 -0.5971
 3718ntf    on522825   1.811   2.723   3.782 -0.1548  0.3329 -0.0625
 3718ntf    on522826   1.378   2.781   3.977 -0.3747  0.0178 -0.5847
 3718ntf    on522827   1.507   2.853   3.778  0.0368 -0.4040 -0.0893
 3718ntf    fn422828   1.593   2.875   4.150  0.2890  0.0646  0.0782
 3718ntf    fn422829   1.710   2.937   3.979  0.0235  0.1801 -0.0570
 3718ntf    fn422830   1.526   3.031   4.039  0.0471  0.2046  0.6683
 3719ntf    cn122831   6.400   2.913   6.574  0.2109  0.1598 -0.1138
 3719ntf    sn222832   6.299   2.950   6.721  0.1951 -0.1511 -0.0461
 3719ntf    nn322833   6.393   3.053   6.793  0.0409  0.0126 -0.0816
 3719ntf    sn222834   6.484   3.029   6.918 -0.2161  0.1770  0.1386
 3719ntf    cn122835   6.399   3.123   7.048 -0.2155  0.0255  0.2493
 3719ntf    fn422836   6.428   3.024   6.508  0.1457  0.0668 -0.2995
 3719ntf    fn422837   6.512   2.852   6.608  0.0465 -0.3625 -0.4972
 3719ntf    fn422838   6.330   2.837   6.492  0.3125 -0.4432  0.3528
 3719ntf    on522839   6.181   3.010   6.666  0.0496 -0.4803 -0.0962
 3719ntf    on522840   6.285   2.818   6.779 -0.1296 -0.2034 -0.2400
 3719ntf    on522841   6.609   3.098   6.894 -0.1463 -0.0596 -0.1814
 3719ntf    on522842   6.475   2.897   6.975  0.1294 -0.0420 -0.3068
 3719ntf    fn422843   6.458   3.124   7.166  0.4980 -0.1352 -0.1046
 3719ntf    fn422844   6.393   3.249   7.008 -0.3967  0.0657  0.3990
 3719ntf    fn422845   6.274   3.082   7.064 -0.1283 -0.3378  0.0146
 3720ntf    cn122846   3.274   1.311   0.846  0.1326  0.3786  0.0620
 3720ntf    sn222847   3.205   1.231   0.994 -0.0714  0.1032 -0.1810
 3720ntf    nn322848   3.290   1.289   1.113 -0.2910  0.1869 -0.0633
 3720ntf    sn222849   3.277   1.433   1.173 -0.4148 -0.0025  0.3695
 3720ntf    cn122850   3.455   1.458   1.199 -0.3658  0.3033 -0.2306
 3720ntf    fn422851   3.231   1.434   0.821 -0.4405  0.2056  0.1995
 3720ntf    fn422852   3.406   1.327   0.851  0.3402 -0.9781 -0.6923
 3720ntf    fn422853   3.260   1.242   0.734 -0.0461  0.4988  0.0096
 3720ntf    on522854   3.066   1.267   0.997 -0.0902  0.0550 -0.4428
 3720ntf    on522855   3.240   1.093   0.973  0.1747  0.0667  0.4659
 3720ntf    on522856   3.220   1.445   1.304 -0.1173 -0.1655  0.5140
 3720ntf    on522857   3.247   1.533   1.073 -0.4775 -0.5814 -0.2050
 3720ntf    fn422858   3.527   1.431   1.091  0.3145  0.0749  0.2705
 3720ntf    fn422859   3.481   1.585   1.227 -0.4535  0.1903  0.3694
 3720ntf    fn422860   3.511   1.387   1.296  0.4405  0.4578 -0.5751
 3721ntf    cn122861   2.190   6.891   3.664  0.0557  0.2576 -0.1889
 3721ntf    sn222862   2.325   6.892   3.542 -0.0362  0.2843 -0.2901
 3721ntf    nn322863   2.250   6.951   3.418 -0.0428 -0.0386 -0.4401
 3721ntf    sn222864   2.210   7.100   3.389 -0.0759 -0.0461 -0.4334
 3721ntf    cn122865   2.345   7.148   3.277 -0.0392  0.5796 -0.1246
 3721ntf    fn422866   2.077   6.839   3.617  0.2911 -0.4188 -0.0280
 3721ntf    fn422867   2.223   6.812   3.765 -0.0156  0.3833 -0.0671
 3721ntf    fn422868   2.158   7.009   3.714 -0.3649 -0.0939  0.3927
 3721ntf    on522869   2.420   6.983   3.601  0.0862 -0.1373  0.1692
 3721ntf    on522870   2.356   6.753   3.521 -0.5905  0.1759 -0.3993
 3721ntf    on522871   2.206   7.195   3.497 -0.0810 -0.2613 -0.2440
 3721ntf    on522872   2.090   7.100   3.308 -0.9252 -0.1217  0.7940
 3721ntf    fn422873   2.339   7.074   3.168  0.4100  0.2700  0.0605
 3721ntf    fn422874   2.329   7.275   3.242 -0.0187  0.4762 -0.5119
 3721ntf    fn422875   2.462   7.140   3.337 -0.1666 -0.3734  0.0052
 3722ntf    cn122876   3.996   3.873   5.176  0.0329 -0.2100  0.3065
 3722ntf    sn222877   3.889   3.738   5.234 -0.1232 -0.2191  0.0015
 3722ntf    nn322878   3.974   3.610   5.203  0.1348 -0.0815  0.1361
 3722ntf    sn222879   3.931   3.459   5.189  0.2034 -0.0707 -0.1899
 3722ntf    cn122880   3.958   3.458   5.009  0.0815 -0.3216 -0.2067
 3722ntf    fn422881   3.968   3.991   5.228 -0.0987 -0.2760  0.3852
 3722ntf    fn422882   4.124   3.859   5.205  0.2704  0.3327 -0.4445
 3722ntf    fn422883   3.993   3.875   5.043 -0.2331 -0.1840  0.3128
 3722ntf    on522884   3.883   3.776   5.373 -1.0017 -0.6316  0.0872
 3722ntf    on522885   3.768   3.761   5.160 -0.1734  0.2337  0.2190
 3722ntf    on522886   3.789   3.438   5.195  0.1832  0.1757  0.2138
 3722ntf    on522887   4.025   3.361   5.238 -0.3837 -0.4129  0.2611
 3722ntf    fn422888   3.938   3.333   4.971  0.0493 -0.4140  0.1143
 3722ntf    fn422889   3.876   3.537   4.942  0.4538  0.0759 -0.1993
 3722ntf    fn422890   4.080   3.494   4.974 -0.0889  0.0142 -0.4583
 3723ntf    cn122891   1.741   1.515   4.382  0.3599  0.2811 -0.3259
 3723ntf    sn222892   1.848   1.410   4.485  0.0883  0.2893 -0.0346
 3723ntf    nn322893   1.778   1.444   4.621 -0.0394  0.3969 -0.1268
 3723ntf    sn222894   1.831   1.403   4.763 -0.1753 -0.3476 -0.2920
 3723ntf    cn122895   1.863   1.570   4.826  0.0746 -0.4484 -0.1512
 3723ntf    fn422896   1.621   1.458   4.374  0.5047 -0.0580 -0.1056
 3723ntf    fn422897   1.726   1.639   4.425  0.4026  0.2367 -0.1847
 3723ntf    fn422898   1.784   1.523   4.257  0.0404  0.0788 -0.4499
 3723ntf    on522899   1.831   1.284   4.417 -0.0716  0.0912  0.3742
 3723ntf    on522900   1.978   1.473   4.480  0.1787  0.1666  0.6769
 3723ntf    on522901   1.960   1.341   4.777 -0.0709 -0.2416 -0.7552
 3723ntf    on522902   1.729   1.356   4.853  0.1163 -0.5266 -0.0536
 3723ntf    fn422903   1.749   1.630   4.856  0.4006 -0.0679  0.3410
 3723ntf    fn422904   1.932   1.557   4.938 -0.2835 -0.1948  0.0997
 3723ntf    fn422905   1.929   1.652   4.746 -1.0350  0.3390 -0.2821
 3724ntf    cn122906   4.308   2.875   4.546  0.3193  0.0495 -0.0018
 3724ntf    sn222907   4.309   2.693   4.547 -0.0351  0.0476  0.1559
 3724ntf    nn322908   4.262   2.659   4.402  0.1358  0.5365 -0.0172
 3724ntf    sn222909   4.116   2.655   4.345  0.2903  0.0194 -0.3877
 3724ntf    cn122910   4.142   2.546   4.201  0.1548 -0.2527 -0.2074
 3724ntf    fn422911   4.194   2.935   4.576  0.3713  0.1555 -0.0183
 3724ntf    fn422912   4.397   2.924   4.631  0.1939 -0.1351  0.2393
 3724ntf    fn422913   4.337   2.912   4.422  0.7156  0.2409  0.1474
 3724ntf    on522914   4.446   2.655   4.572 -0.0220  0.2125  0.3425
 3724ntf    on522915   4.219   2.647   4.650  0.3786 -0.4117  0.3182
 3724ntf    on522916   4.088   2.775   4.270 -0.1936 -0.1670 -0.5090
 3724ntf    on522917   4.011   2.593   4.422 -0.3503  1.0782 -0.3845
 3724ntf    fn422918   4.216   2.602   4.107  0.2864 -0.5799 -0.2990
 3724ntf    fn422919   4.212   2.437   4.230  0.1743 -0.0759  0.4401
 3724ntf    fn422920   4.032   2.506   4.141 -0.0748 -0.0080  0.0489
 3725ntf    cn122921   3.425   6.414   3.349 -0.0231  0.0842 -0.2645
 3725ntf    sn222922   3.248   6.390   3.382 -0.0240  0.3016 -0.1060
 3725ntf    nn322923   3.253   6.253   3.457 -0.0791  0.5747  0.3992
 3725ntf    sn222924   3.164   6.208   3.579 -0.0364 -0.0511  0.2015
 3725ntf    cn122925   3.288   6.235   3.710 -0.2361  0.2552  0.3272
 3725ntf    fn422926   3.441   6.523   3.276 -0.4649  0.6339  0.4494
 3725ntf    fn422927   3.495   6.439   3.459 -0.5081 -0.7564  0.2401
 3725ntf    fn422928   3.483   6.316   3.282 -0.1994 -0.3362  0.1901
 3725ntf    on522929   3.212   6.501   3.467 -0.1096  0.4950 -0.3925
 3725ntf    on522930   3.192   6.392   3.249  0.3495  0.5484 -0.2614
 3725ntf    on522931   3.149   6.064   3.582  0.0447 -0.0499  0.7073
 3725ntf    on522932   3.050   6.289   3.612  0.1313  0.3458 -0.1888
 3725ntf    fn422933   3.383   6.144   3.698  0.3164  0.8834 -0.0909
 3725ntf    fn422934   3.343   6.354   3.696 -0.6282  0.3959 -0.0717
 3725ntf    fn422935   3.236   6.226   3.831 -0.0895  0.0333  0.3739
 3726ntf    cn122936   2.729   1.738   1.984 -0.2806  0.1133  0.2578
 3726ntf    sn222937   2.904   1.758   1.939 -0.2476 -0.3232  0.1920
 3726ntf    nn322938   2.895   1.836   1.803 -0.1393 -0.1762  0.2684
 3726ntf    sn222939   2.863   1.793   1.656  0.5254  0.0387  0.0589
 3726ntf    cn122940   2.813   1.939   1.560  0.1949 -0.1160 -0.0055
 3726ntf    fn422941   2.714   1.690   2.106 -0.1204  0.0286  0.2440
 3726ntf    fn422942   2.673   1.858   1.987  0.3889  0.4456 -0.3212
 3726ntf    fn422943   2.660   1.664   1.898 -0.1096  0.4252 -0.1534
 3726ntf    on522944   2.960   1.843   2.042 -0.4555  0.3661 -0.2598
 3726ntf    on522945   2.954   1.623   1.935 -0.2539 -0.3022 -0.5853
 3726ntf    on522946   2.750   1.704   1.651  0.6903 -0.1900  0.3666
 3726ntf    on522947   2.980   1.753   1.581  0.6486  0.1805  0.1756
 3726ntf    fn422948   2.878   2.047   1.600  0.3097 -0.1329 -0.1481
 3726ntf    fn422949   2.828   1.922   1.430 -0.0099 -0.2597 -0.0108
 3726ntf    fn422950   2.683   1.957   1.577  0.0545 -1.0591 -0.0286
 3727ntf    cn122951   0.516   4.988   5.809 -0.2567  0.0457 -0.1382
 3727ntf    sn222952   0.663   4.898   5.753 -0.2282  0.0873 -0.1309
 3727ntf    nn322953   0.626   4.752   5.795 -0.2460  0.1275 -0.0085
 3727ntf    sn222954   0.686   4.669   5.915 -0.2403 -0.2988 -0.3039
 3727ntf    cn122955   0.643   4.498   5.869 -0.2224 -0.3745 -0.0430
 3727ntf    fn422956   0.480   4.974   5.935 -0.1683 -0.3841 -0.1602
 3727ntf    fn422957   0.526   5.117   5.783  0.4802  0.0208  0.0118
 3727ntf    fn422958   0.411   4.946   5.740 -0.4471  0.4747 -0.1127
 3727ntf    on522959   0.672   4.908   5.609 -0.0139 -0.3389 -0.1514
 3727ntf    on522960   0.772   4.955   5.828  0.2108 -0.0890 -0.6224
 3727ntf    on522961   0.608   4.693   6.034  0.0856  0.4350 -0.2327
 3727ntf    on522962   0.829   4.661   5.921 -0.2365  0.2502  0.4769
 3727ntf    fn422963   0.518   4.497   5.825 -0.4277 -0.4301  0.5360
 3727ntf    fn422964   0.719   4.456   5.768  0.3730 -0.2206  0.3376
 3727ntf    fn422965   0.650   4.414   5.970 -0.0773 -0.0242  0.2413
 3728ntf    cn122966   1.853   4.319   5.738  0.1805  0.3407 -0.2763
 3728ntf    sn222967   1.730   4.217   5.824  0.0730  0.3598 -0.4062
 3728ntf    nn322968   1.603   4.307   5.811 -0.0754  0.1750 -0.2553
 3728ntf    sn222969   1.539   4.394   5.925 -0.1713 -0.2119 -0.0133
 3728ntf    cn122970   1.439   4.271   6.014 -0.3307 -0.3631 -0.3983
 3728ntf    fn422971   1.873   4.429   5.808  0.2692  0.0225  0.1998
 3728ntf    fn422972   1.971   4.258   5.733  0.1780  0.3605 -0.5908
 3728ntf    fn422973   1.816   4.344   5.613 -0.2663 -0.3650 -0.2898
 3728ntf    on522974   1.734   4.089   5.756  0.4351 -0.6146  1.3804
 3728ntf    on522975   1.782   4.222   5.959 -0.4824  0.2616 -0.1867
 3728ntf    on522976   1.439   4.482   5.871  0.1927  0.2591  0.0734
 3728ntf    on522977   1.625   4.443   6.029 -0.1750  0.0890 -0.1488
 3728ntf    fn422978   1.478   4.145   6.011 -0.4570 -0.4089 -0.1356
 3728ntf    fn422979   1.434   4.297   6.143 -0.2472 -0.2239 -0.4216
 3728ntf    fn422980   1.318   4.263   5.962 -0.2403 -0.0058 -0.6671
 3729ntf    cn122981   6.603   1.562   7.069  0.0242 -0.0741 -0.0591
 3729ntf    sn222982   6.779   1.609   7.077 -0.0553  0.2799 -0.3539
 3729ntf    nn322983   6.805   1.640   6.926  0.6699  0.6859 -0.1493
 3729ntf    sn222984   6.911   1.587   6.823  0.4430  0.2147 -0.1443
 3729ntf    cn122985   7.000   1.742   6.789 -0.1540  0.6459  0.2415
 3729ntf    fn422986   6.519   1.663   7.063  0.2059  0.0520 -0.5848
 3729ntf    fn422987   6.581   1.477   6.969  0.1220 -0.0777 -0.0778
 3729ntf    fn422988   6.577   1.500   7.183  0.4137 -0.2673 -0.0706
 3729ntf    on522989   6.778   1.723   7.165  0.0223 -0.1942  0.2685
 3729ntf    on522990   6.839   1.488   7.128  0.1950  0.7111  0.3948
 3729ntf    on522991   6.848   1.544   6.701 -0.2689 -0.3822  0.4295
 3729ntf    on522992   7.018   1.508   6.879  0.1991  0.0299  0.0635
 3729ntf    fn422993   7.107   1.733   6.711 -0.3824 -0.2217  0.0205
 3729ntf    fn422994   6.922   1.821   6.717 -0.1723  0.1071 -0.3352
 3729ntf    fn422995   7.034   1.808   6.899  0.4195  0.4733  0.1738
 3730ntf    cn122996   2.034   1.027   0.525 -0.1797  0.2196 -0.2486
 3730ntf    sn222997   2.189   1.097   0.589 -0.0879  0.0805 -0.3155
 3730ntf    nn322998   2.137   1.164   0.721  0.0957  0.0582 -0.2314
 3730ntf    sn222999   2.054   1.297   0.723  0.0430  0.0196  0.1635
 3730ntf    cn123000   2.190   1.416   0.741  0.0411  0.0809 -0.2234
 3730ntf    fn423001   1.963   0.990   0.630  0.1364 -0.1663 -0.1676
 3730ntf    fn423002   1.960   1.116   0.462  0.0789  0.2181 -0.5611
 3730ntf    fn423003   2.051   0.923   0.444 -0.6285  0.0758 -0.1628
 3730ntf    on523004   2.259   0.977   0.626 -0.6123 -0.2772 -0.4706
 3730ntf    on523005   2.247   1.187   0.492  0.2365 -0.0180 -0.2118
 3730ntf    on523006   1.985   1.317   0.849  0.0887 -0.7101  0.3066
 3730ntf    on523007   1.984   1.347   0.607  0.1743  0.2779  0.1959
 3730ntf    fn423008   2.264   1.373   0.842 -0.1707 -0.4526 -0.2916
 3730ntf    fn423009   2.276   1.414   0.640 -0.1859 -0.1347 -0.4143
 3730ntf    fn423010   2.151   1.539   0.769 -0.3582 -0.1223  0.1154
 3731ntf    cn123011   7.028   4.628   0.206  0.1323 -0.0141  0.0967
 3731ntf    sn223012   7.090   4.693   0.047 -0.0341 -0.1795 -0.0360
 3731ntf    nn323013   7.099   4.558  -0.033 -0.4823 -0.3269  0.1545
 3731ntf    sn223014   6.981   4.486  -0.107 -0.5080 -0.3767  0.2441
 3731ntf    cn123015   7.008   4.560  -0.271  0.2690 -0.1796  0.4560
 3731ntf    fn423016   7.114   4.550   0.270  0.0862 -0.1987 -0.0649
 3731ntf    fn423017   6.991   4.722   0.292  0.3868  0.0691  0.1165
 3731ntf    fn423018   6.914   4.561   0.197  0.2040 -0.0984 -0.1899
 3731ntf    on523019   6.990   4.787   0.003  0.3799  0.1940 -0.1754
 3731ntf    on523020   7.215   4.753   0.086  0.1182  0.1827 -1.0481
 3731ntf    on523021   6.848   4.527  -0.071 -0.4230  0.2261 -0.1111
 3731ntf    on523022   7.003   4.344  -0.118 -0.4585 -0.3191 -0.4383
 3731ntf    fn423023   6.965   4.685  -0.273 -0.3146 -0.3799  0.4193
 3731ntf    fn423024   7.138   4.569  -0.295  0.1616 -0.0292 -0.0724
 3731ntf    fn423025   6.954   4.493  -0.371  0.1237  0.5267  0.0569
 3732ntf    cn123026   1.928   1.016   1.917  0.4001  0.3623  0.3599
 3732ntf    sn223027   2.008   1.079   1.766 -0.2693  0.0402 -0.1335
 3732ntf    nn323028   2.157   1.030   1.773 -0.1198  0.4991 -0.0649
 3732ntf    sn223029   2.252   0.995   1.653 -0.0436  0.1967  0.0837
 3732ntf    cn123030   2.413   1.061   1.704  0.1029 -0.2874  0.2565
 3732ntf    fn423031   1.927   0.884   1.920 -0.6557  0.3403 -0.2790
 3732ntf    fn423032   1.970   1.049   2.038  0.1545  0.0567  0.5308
 3732ntf    fn423033   1.798   1.040   1.923  0.2940 -0.3057  0.8028
 3732ntf    on523034   1.925   1.025   1.661  0.0938 -0.3547 -0.2192
 3732ntf    on523035   2.005   1.221   1.791  0.0274 -0.0501  0.4352
 3732ntf    on523036   2.232   1.062   1.527  0.1487  0.3884  0.1547
 3732ntf    on523037   2.278   0.854   1.641  0.2964  0.3202 -0.7228
 3732ntf    fn423038   2.405   1.185   1.748  0.0514 -0.2594  0.1698
 3732ntf    fn423039   2.458   0.986   1.803 -0.1905 -0.4197  0.2907
 3732ntf    fn423040   2.505   1.056   1.608 -0.4266  0.0878 -0.2821
 3733ntf    cn123041   5.649   4.900   5.283  0.3712  0.0665 -0.1054
 3733ntf    sn223042   5.750   4.785   5.382 -0.1339 -0.2010  0.1051
 3733ntf    nn323043   5.827   4.702   5.272 -0.1209  0.2892 -0.2616
 3733ntf    sn223044   5.977   4.722   5.232  0.0862 -0.1243  0.2961
 3733ntf    cn123045   6.067   4.632   5.362  0.2668 -0.2388  0.0923
 3733ntf    fn423046   5.721   4.996   5.227 -0.1555  0.6229  0.1538
 3733ntf    fn423047   5.586   4.828   5.192 -0.1469 -0.2331  0.4783
 3733ntf    fn423048   5.558   4.964   5.355 -0.0043 -0.3329 -0.2221
 3733ntf    on523049   5.840   4.874   5.451  0.1266 -0.2711 -0.1399
 3733ntf    on523050   5.650   4.712   5.456 -0.1607 -0.5133 -0.2348
 3733ntf    on523051   6.030   4.856   5.227 -0.1270 -0.0381  0.3280
 3733ntf    on523052   6.000   4.640   5.116 -0.1157  0.2267  0.0081
 3733ntf    fn423053   6.005   4.521   5.399 -0.2553 -0.0237 -0.1188
 3733ntf    fn423054   6.189   4.592   5.331  0.3609  0.3769 -0.3456
 3733ntf    fn423055   6.074   4.702   5.474 -0.0052  0.2244 -0.1787
 3734ntf    cn123056   0.807   5.978   1.084 -0.1933  0.3354  0.0019
 3734ntf    sn223057   0.809   5.797   1.107  0.0571  0.3668  0.2291
 3734ntf    nn323058   0.704   5.765   0.994 -0.1763  0.0306  0.5383
 3734ntf    sn223059   0.568   5.688   1.008 -0.1787 -0.1147 -0.2190
 3734ntf    cn123060   0.455   5.823   1.053 -0.0883 -0.0646 -0.1400
 3734ntf    fn423061   0.880   6.016   0.981 -0.1031 -0.4519 -0.2360
 3734ntf    fn423062   0.685   6.029   1.082 -0.1100  0.5451  0.2677
 3734ntf    fn423063   0.866   6.044   1.182  0.5718  0.2790 -0.4212
 3734ntf    on523064   0.944   5.757   1.075 -0.0978  0.7432 -0.9677
 3734ntf    on523065   0.764   5.795   1.244  0.3790 -0.4941  0.3269
 3734ntf    on523066   0.562   5.596   1.119 -0.5639  0.0286 -0.1206
 3734ntf    on523067   0.514   5.633   0.887  0.4039  0.0576 -0.5594
 3734ntf    fn423068   0.472   5.844   1.183  0.0184  0.3705 -0.2230
 3734ntf    fn423069   0.483   5.932   0.984  0.5452 -0.2576 -0.2012
 3734ntf    fn423070   0.326   5.801   1.036 -0.2506  0.7198  0.0581
 3735ntf    cn123071   2.866   4.724   3.663 -0.1320  0.3867 -0.4099
 3735ntf    sn223072   2.956   4.871   3.720 -0.2570  0.2545  0.1321
 3735ntf    nn323073   3.094   4.820   3.668 -0.0624  0.8755  0.0328
 3735ntf    sn223074   3.159   4.863   3.531  0.0691  0.1521 -0.1364
 3735ntf    cn123075   3.224   5.029   3.566 -0.4243  0.3587 -0.1918
 3735ntf    fn423076   2.890   4.702   3.535  0.1138 -0.1428 -0.2750
 3735ntf    fn423077   2.906   4.616   3.728 -0.1756  0.7143  0.1737
 3735ntf    fn423078   2.735   4.735   3.680 -0.1847 -0.2226 -0.4012
 3735ntf    on523079   2.898   4.983   3.651  0.2684  0.3611 -0.1371
 3735ntf    on523080   2.940   4.864   3.863 -1.3543  0.0524  0.0080
 3735ntf    on523081   3.068   4.876   3.420 -0.3277  0.0657  0.1767
 3735ntf    on523082   3.279   4.787   3.507  0.2341  0.3649  0.0140
 3735ntf    fn423083   3.333   5.017   3.640 -0.6995  0.6668  0.2710
 3735ntf    fn423084   3.243   5.096   3.454 -0.1844  0.0158 -0.3575
 3735ntf    fn423085   3.135   5.098   3.635 -0.1595  0.4357  0.0754
 3736ntf    cn123086   6.865   6.990   4.691  0.0986 -0.4018 -0.0234
 3736ntf    sn223087   6.873   6.821   4.758 -0.1554 -0.3165  0.2245
 3736ntf    nn323088   6.890   6.858   4.909  0.2166  0.4079  0.0134
 3736ntf    sn223089   7.019   6.859   4.999  0.1054 -0.1524  0.1848
 3736ntf    cn123090   7.001   6.692   5.068  0.1873 -0.2510 -0.0303
 3736ntf    fn423091   6.747   7.045   4.715  0.1869 -0.1979 -0.0487
 3736ntf    fn423092   6.964   7.065   4.736  0.2974 -0.4727 -0.3362
 3736ntf    fn423093   6.878   6.990   4.559 -0.0488 -0.0126 -0.0404
 3736ntf    on523094   6.745   6.758   4.739  0.0721 -0.7674  0.1834
 3736ntf    on523095   6.988   6.759   4.696  0.0954 -0.1767  0.5505
 3736ntf    on523096   7.012   6.939   5.118  0.5502  0.1054  0.0420
 3736ntf    on523097   7.144   6.862   4.926 -0.1194  0.4340 -0.1797
 3736ntf    fn423098   7.103   6.661   5.145  0.0232 -0.1571  0.2248
 3736ntf    fn423099   6.888   6.690   5.137  0.0810 -0.3127 -0.2037
 3736ntf    fn423100   6.995   6.601   4.972 -0.0590 -0.0832 -0.1770
 3737ntf    cn123101   2.335   2.288   3.417 -0.2780  0.2054 -0.1690
 3737ntf    sn223102   2.361   2.109   3.395 -0.2599  0.1212  0.5346
 3737ntf    nn323103   2.278   2.083   3.265 -0.1194  0.1945  0.4309
 3737ntf    sn223104   2.127   2.050   3.237 -0.1179  0.1288  0.5030
 3737ntf    cn123105   2.080   2.183   3.123 -0.1010 -0.2873  0.0033
 3737ntf    fn423106   2.370   2.357   3.309  0.3330 -0.1678 -0.2149
 3737ntf    fn423107   2.205   2.308   3.434 -0.2043  0.6539 -0.1057
 3737ntf    fn423108   2.400   2.332   3.523 -0.3836 -0.0902  0.0165
 3737ntf    on523109   2.504   2.098   3.385 -0.2678 -0.0667  0.6244
 3737ntf    on523110   2.301   2.054   3.514 -0.1821 -0.0257  0.5054
 3737ntf    on523111   2.050   2.078   3.355 -0.5144 -0.4930  0.4000
 3737ntf    on523112   2.095   1.928   3.167  0.1262  0.2383  0.2000
 3737ntf    fn423113   2.141   2.191   3.006  0.0301 -0.3966  0.0634
 3737ntf    fn423114   1.952   2.188   3.093 -0.0614  0.0053 -0.1261
 3737ntf    fn423115   2.106   2.296   3.187 -0.5277 -0.0831 -0.1803
 3738ntf    cn123116   0.951   4.984   4.650  0.0760 -0.1383  0.1374
 3738ntf    sn223117   0.802   5.079   4.611  0.0732 -0.2313 -0.0799
 3738ntf    nn323118   0.699   4.965   4.643  0.3694 -0.4711  0.0224
 3738ntf    sn223119   0.635   4.851   4.556 -0.4223 -0.0601  0.0542
 3738ntf    cn123120   0.469   4.858   4.630 -0.2728  0.4211  0.3481
 3738ntf    fn423121   1.058   5.055   4.682  0.4701 -0.6058 -0.1041
 3738ntf    fn423122   0.932   4.911   4.758 -0.4200 -0.3631 -0.0991
 3738ntf    fn423123   0.984   4.905   4.549  0.3212  0.3950 -0.2011
 3738ntf    on523124   0.803   5.179   4.715  0.9878 -0.4332  0.1068
 3738ntf    on523125   0.819   5.123   4.474  0.4445 -0.3425 -0.0697
 3738ntf    on523126   0.695   4.722   4.580 -0.1256  0.1606  0.5245
 3738ntf    on523127   0.602   4.884   4.419 -0.8877 -0.4126  0.0781
 3738ntf    fn423128   0.401   4.971   4.613  0.1705  0.6652  0.1769
 3738ntf    fn423129   0.398   4.761   4.574  0.5783  0.0138 -0.0557
 3738ntf    fn423130   0.468   4.835   4.760  0.3039 -0.1894  0.2479
 3739ntf    cn123131   5.485   0.288   2.613 -0.0710  0.3072  0.0153
 3739ntf    sn223132   5.484   0.361   2.447 -0.0905  0.0302 -0.1079
 3739ntf    nn323133   5.631   0.417   2.441 -0.0867  0.0691  0.3196
 3739ntf    sn223134   5.665   0.541   2.351  0.0510 -0.1254  0.1025
 3739ntf    cn123135   5.641   0.681   2.464 -0.1704 -0.1606  0.0997
 3739ntf    fn423136   5.479   0.374   2.713  0.1795  0.3876 -0.0390
 3739ntf    fn423137   5.386   0.201   2.618  0.2561 -0.1009 -0.4377
 3739ntf    fn423138   5.592   0.212   2.632 -0.8002 -0.7741 -0.0992
 3739ntf    on523139   5.458   0.243   2.368 -0.5442  0.1171 -0.0859
 3739ntf    on523140   5.382   0.462   2.462 -0.3042 -0.1473 -0.3696
 3739ntf    on523141   5.575   0.563   2.241  0.2119 -0.0746 -0.0208
 3739ntf    on523142   5.806   0.541   2.317 -0.0068 -0.0626 -0.1399
 3739ntf    fn423143   5.741   0.687   2.551 -0.0722  0.0866 -0.0281
 3739ntf    fn423144   5.625   0.797   2.404  0.3539  0.0710  0.4006
 3739ntf    fn423145   5.535   0.656   2.538 -0.0439 -0.4955  0.1706
 3740ntf    cn123146   6.419   0.199   6.011 -0.3273 -0.3485 -0.0408
 3740ntf    sn223147   6.351   0.163   5.846 -0.1947  0.0640 -0.1863
 3740ntf    nn323148   6.435   0.260   5.756  0.1827 -0.1805 -0.1035
 3740ntf    sn223149   6.399   0.409   5.721 -0.4073 -0.2709  0.1030
 3740ntf    cn123150   6.308   0.373   5.567 -0.1956 -0.3578 -0.0019
 3740ntf    fn423151   6.549   0.175   6.009 -0.1840  0.4108 -0.1349
 3740ntf    fn423152   6.416   0.326   6.046 -0.2082 -0.2847 -0.2590
 3740ntf    fn423153   6.368   0.131   6.113 -0.1343  0.0339  0.3157
 3740ntf    on523154   6.381   0.022   5.830 -0.8922 -0.0728 -0.3223
 3740ntf    on523155   6.211   0.195   5.853 -0.2295 -0.0863 -0.1613
 3740ntf    on523156   6.509   0.490   5.674 -0.7704  0.2597  0.1621
 3740ntf    on523157   6.305   0.473   5.809 -0.3826 -0.4205  0.2394
 3740ntf    fn423158   6.195   0.306   5.584 -0.2479 -0.3365 -0.2632
 3740ntf    fn423159   6.276   0.482   5.498  0.1575 -0.0341  0.3379
 3740ntf    fn423160   6.388   0.297   5.495 -0.1726 -0.3081 -0.0292
 3741ntf    cn123161   3.165   3.464   1.239  0.1661  0.2231 -0.0095
 3741ntf    sn223162   3.230   3.593   1.129  0.0379  0.3014  0.0071
 3741ntf    nn323163   3.113   3.600   1.024  0.1628  0.5968 -0.1134
 3741ntf    sn223164   3.115   3.654   0.877  0.1654  0.3062 -0.2194
 3741ntf    cn123165   3.114   3.493   0.791 -0.3467  0.0714  0.2224
 3741ntf    fn423166   3.072   3.513   1.320  0.3967  0.3595  0.1746
 3741ntf    fn423167   3.110   3.366   1.169 -0.2581 -0.0297  0.6662
 3741ntf    fn423168   3.260   3.416   1.317  0.2256 -0.0007 -0.2166
 3741ntf    on523169   3.240   3.712   1.211 -0.0675  0.6613 -0.4956
 3741ntf    on523170   3.352   3.533   1.082 -0.1535  0.3399 -0.5479
 3741ntf    on523171   3.233   3.726   0.835  0.1784  0.1621 -0.4317
 3741ntf    on523172   2.987   3.713   0.848  0.0549 -0.0461 -0.4602
 3741ntf    fn423173   3.225   3.425   0.814 -0.1690  0.2736 -0.0211
 3741ntf    fn423174   3.014   3.414   0.826  0.3612 -0.6561  0.6379
 3741ntf    fn423175   3.114   3.506   0.659 -0.1774  0.0219  0.2174
 3742ntf    cn123176   4.309   1.216   4.586 -0.0697  0.1216  0.1466
 3742ntf    sn223177   4.464   1.178   4.673 -0.3352 -0.1528  0.4991
 3742ntf    nn323178   4.521   1.073   4.572  0.0488  0.2561  0.2876
 3742ntf    sn223179   4.641   0.972   4.583 -0.0745  0.0568 -0.1542
 3742ntf    cn123180   4.547   0.819   4.610 -0.1066  0.0436 -0.3376
 3742ntf    fn423181   4.330   1.221   4.455 -0.1592  0.0311  0.1294
 3742ntf    fn423182   4.222   1.119   4.607  0.0829 -0.1382 -0.4015
 3742ntf    fn423183   4.265   1.335   4.624 -0.1168  0.1292  0.0703
 3742ntf    on523184   4.522   1.310   4.666 -0.2468 -0.2412 -0.4960
 3742ntf    on523185   4.433   1.127   4.805  0.1892 -0.3903  0.5332
 3742ntf    on523186   4.728   0.983   4.698  0.0063  0.2663 -0.2354
 3742ntf    on523187   4.719   0.946   4.465  0.1691  0.2836 -0.0455
 3742ntf    fn423188   4.481   0.780   4.502 -0.2424  0.2021 -0.3138
 3742ntf    fn423189   4.621   0.722   4.661 -0.4777 -0.0308  0.0642
 3742ntf    fn423190   4.448   0.842   4.695  0.1150 -0.0306 -0.0579
 3743ntf    cn123191   4.446   1.312   0.415 -0.4384 -0.0249  0.2975
 3743ntf    sn223192   4.455   1.397   0.576  0.3405 -0.2999  0.4018
 3743ntf    nn323193   4.596   1.352   0.628  0.5074  0.5066  0.6604
 3743ntf    sn223194   4.627   1.226   0.717  0.1383  0.0558  0.1575
 3743ntf    cn123195   4.730   1.139   0.594 -0.0098 -0.1661  0.1911
 3743ntf    fn423196   4.563   1.322   0.356 -0.6499  0.0999 -0.1038
 3743ntf    fn423197   4.410   1.185   0.423 -0.2553 -0.1169 -0.2935
 3743ntf    fn423198   4.362   1.375   0.334  0.1624 -0.4065 -0.6392
 3743ntf    on523199   4.439   1.534   0.536 -0.9727 -0.6614 -0.4064
 3743ntf    on523200   4.339   1.338   0.638  0.1161 -0.5518 -0.2463
 3743ntf    on523201   4.525   1.125   0.730 -0.2054  0.3977  0.1147
 3743ntf    on523202   4.722   1.237   0.825 -0.1845  0.6212  0.3829
 3743ntf    fn423203   4.661   1.097   0.489  0.0185  0.1507  0.0454
 3743ntf    fn423204   4.837   1.201   0.547  0.1986 -0.3665  0.3964
 3743ntf    fn423205   4.781   1.029   0.648  0.1044 -0.0260  0.3688
 3744ntf    cn123206   3.656   2.376   6.455 -0.2639 -0.3127  0.1354
 3744ntf    sn223207   3.578   2.368   6.619 -0.0354  0.3883  0.2789
 3744ntf    nn323208   3.696   2.297   6.695  0.1011 -0.2699 -0.5381
 3744ntf    sn223209   3.695   2.210   6.825 -0.0842  0.1697 -0.2424
 3744ntf    cn123210   3.747   2.329   6.953  0.0333  0.1783 -0.2975
 3744ntf    fn423211   3.776   2.431   6.455 -0.4339  0.0609 -0.0723
 3744ntf    fn423212   3.678   2.252   6.413  0.2190 -0.1031 -0.2342
 3744ntf    fn423213   3.584   2.434   6.361  0.2281  0.2621  0.1074
 3744ntf    on523214   3.552   2.504   6.661 -0.0790  0.4176  0.1565
 3744ntf    on523215   3.466   2.279   6.601  0.2305  0.2222 -0.5957
 3744ntf    on523216   3.801   2.114   6.841  0.0049  0.4263  0.7630
 3744ntf    on523217   3.565   2.169   6.872  0.3003 -0.9357 -0.1207
 3744ntf    fn423218   3.773   2.277   7.071 -0.2324 -0.0099 -0.3205
 3744ntf    fn423219   3.856   2.397   6.921  0.0236  0.1798 -0.3273
 3744ntf    fn423220   3.650   2.415   6.981  0.1438  0.2763 -0.2191
 3745ntf    cn123221   6.510   4.559   4.594  0.7061  0.2297 -0.1390
 3745ntf    sn223222   6.383   4.687   4.571  0.3535 -0.1419 -0.2724
 3745ntf    nn323223   6.285   4.610   4.475 -0.0594 -0.2366  0.2232
 3745ntf    sn223224   6.278   4.605   4.318  0.0328  0.0217  0.2092
 3745ntf    cn123225   6.118   4.681   4.278  0.0496  0.1022  0.2947
 3745ntf    fn423226   6.609   4.606   4.667  0.4275  0.6881 -0.0554
 3745ntf    fn423227   6.461   4.449   4.649  0.3288  0.4383 -0.0558
 3745ntf    fn423228   6.571   4.518   4.483 -0.0671 -0.1371 -0.4384
 3745ntf    on523229   6.319   4.707   4.698 -0.0710 -0.0677 -0.4946
 3745ntf    on523230   6.447   4.806   4.521 -0.2763  0.0951 -0.5344
 3745ntf    on523231   6.264   4.474   4.260 -0.2264 -0.0001  0.3197
 3745ntf    on523232   6.377   4.684   4.250  0.2533 -0.8336 -0.4814
 3745ntf    fn423233   6.015   4.612   4.322 -0.1372  0.4105  0.3448
 3745ntf    fn423234   6.102   4.807   4.316 -0.2180  0.1638 -0.0156
 3745ntf    fn423235   6.099   4.688   4.147  0.2267  0.2502  0.2756
 3746ntf    cn123236   0.766   5.113   3.441 -0.6186  0.0694  0.1837
 3746ntf    sn223237   0.781   5.240   3.570  0.2823 -0.0671  0.2233
 3746ntf    nn323238   0.709   5.363   3.505 -0.1826 -0.3799  0.1410
 3746ntf    sn223239   0.584   5.448   3.550 -0.0640 -0.1801  0.0931
 3746ntf    cn123240   0.667   5.592   3.624 -0.0718 -0.0990 -0.0557
 3746ntf    fn423241   0.843   5.007   3.463  0.1873  0.6753  0.2976
 3746ntf    fn423242   0.640   5.076   3.427 -0.8347  0.8635  0.0142
 3746ntf    fn423243   0.809   5.158   3.324 -0.2309 -0.2138  0.2108
 3746ntf    on523244   0.709   5.188   3.684 -0.7497  0.8470  0.0039
 3746ntf    on523245   0.923   5.264   3.573  0.2306  0.2826 -0.0137
 3746ntf    on523246   0.494   5.391   3.647  0.3629 -0.0803  0.5512
 3746ntf    on523247   0.521   5.510   3.436  0.6493 -0.3455 -0.4015
 3746ntf    fn423248   0.736   5.552   3.730  0.4845 -0.1589 -0.4377
 3746ntf    fn423249   0.747   5.652   3.538 -0.1694 -0.0841 -0.1365
 3746ntf    fn423250   0.580   5.677   3.676 -0.0611  0.1249 -0.4048
 3747ntf    cn123251   3.254   1.430   4.958 -0.1143  0.2021  0.1022
 3747ntf    sn223252   3.291   1.596   4.894 -0.3364  0.1301 -0.2128
 3747ntf    nn323253   3.153   1.651   4.843 -0.5652 -0.0604  0.1993
 3747ntf    sn223254   3.088   1.666   4.701 -0.0621  0.0722 -0.0202
 3747ntf    cn123255   3.007   1.828   4.716  0.0114  0.1107 -0.0316
 3747ntf    fn423256   3.367   1.370   4.994  0.0112  0.0683 -0.5030
 3747ntf    fn423257   3.174   1.432   5.064  0.1595 -0.4085  0.3289
 3747ntf    fn423258   3.198   1.355   4.865  0.6199 -0.8251  0.4724
 3747ntf    on523259   3.330   1.670   5.011 -0.3451 -0.4524  0.1612
 3747ntf    on523260   3.399   1.579   4.799  0.2027  0.5408  0.3149
 3747ntf    on523261   2.973   1.582   4.680 -0.2054  0.2185  0.1712
 3747ntf    on523262   3.179   1.674   4.590 -0.0881 -0.3285 -0.0707
 3747ntf    fn423263   3.087   1.925   4.677 -0.1236  0.4311  0.4765
 3747ntf    fn423264   2.896   1.832   4.643  0.1686  0.3177 -0.2585
 3747ntf    fn423265   2.972   1.867   4.838 -0.1855  0.2690 -0.1372
 3748ntf    cn123266   4.010   1.461   5.386  0.0405 -0.4839 -0.0633
 3748ntf    sn223267   3.969   1.468   5.564 -0.2073 -0.0266 -0.1353
 3748ntf    nn323268   4.108   1.516   5.618 -0.2779  0.0091  0.0123
 3748ntf    sn223269   4.154   1.662   5.654 -0.1160 -0.0351 -0.0149
 3748ntf    cn123270   4.326   1.650   5.595 -0.0981 -0.5532  0.1345
 3748ntf    fn423271   4.057   1.344   5.348 -0.3661 -0.8348  0.4935
 3748ntf    fn423272   3.897   1.473   5.318 -0.0792  0.1874  0.2452
 3748ntf    fn423273   4.093   1.557   5.347 -0.2324 -0.3074 -0.2139
 3748ntf    on523274   3.863   1.565   5.563  0.0825  0.3025  0.4426
 3748ntf    on523275   3.934   1.330   5.588  0.0643 -0.2209 -0.8022
 3748ntf    on523276   4.167   1.675   5.797  0.1548 -0.2391 -0.0179
 3748ntf    on523277   4.106   1.770   5.571 -0.1721  0.0623  0.1459
 3748ntf    fn423278   4.390   1.761   5.630 -0.6357 -0.1996  0.0118
 3748ntf    fn423279   4.388   1.543   5.642 -0.0525 -0.6572 -0.1567
 3748ntf    fn423280   4.345   1.641   5.464  0.5310 -0.2782  0.2050
 3749ntf    cn123281   1.268   3.515   3.495  0.2149 -0.0813 -0.0247
 3749ntf    sn223282   1.154   3.607   3.603  0.1192 -0.2016 -0.0243
 3749ntf    nn323283   1.050   3.632   3.487  0.0161 -0.1017  0.0902
 3749ntf    sn223284   0.900   3.586   3.480  0.0185 -0.1696  0.4509
 3749ntf    cn123285   0.844   3.748   3.419 -0.0695 -0.3857 -0.0476
 3749ntf    fn423286   1.329   3.594   3.408 -0.4390  0.5171  0.0529
 3749ntf    fn423287   1.365   3.465   3.571  0.5232  0.5446  0.0073
 3749ntf    fn423288   1.212   3.421   3.422 -0.2496 -0.0011  0.2278
 3749ntf    on523289   1.134   3.505   3.702  0.1053  0.5491  0.7557
 3749ntf    on523290   1.236   3.721   3.634 -0.0772 -0.0036 -0.2243
 3749ntf    on523291   0.828   3.573   3.604 -0.2930 -0.0808  0.2808
 3749ntf    on523292   0.877   3.486   3.379  0.1242  0.4949 -0.2361
 3749ntf    fn423293   0.715   3.765   3.397  0.0102  0.1725 -0.0973
 3749ntf    fn423294   0.861   3.839   3.513 -0.6332 -0.3642  0.0374
 3749ntf    fn423295   0.904   3.779   3.306  0.4965  0.2745  0.4253
 3750ntf    cn123296   1.924   5.258   1.837 -0.4634  0.3866 -0.1915
 3750ntf    sn223297   1.892   5.079   1.835  0.3149  0.2366  0.2871
 3750ntf    nn323298   1.759   5.080   1.751  0.3294  0.6111  0.2669
 3750ntf    sn223299   1.609   5.077   1.797  0.2653  0.1945  0.0326
 3750ntf    cn123300   1.537   5.130   1.639 -0.1120  0.2891  0.2356
 3750ntf    fn423301   2.010   5.297   1.745 -0.1933  0.1743 -0.0307
 3750ntf    fn423302   1.817   5.332   1.812 -0.6649  0.0647 -0.2824
 3750ntf    fn423303   1.978   5.303   1.949  0.0348  0.3553 -0.4154
 3750ntf    on523304   2.008   5.030   1.764  0.4857  0.1818  0.5996
 3750ntf    on523305   1.878   5.044   1.974 -0.1895  0.3717  0.2712
 3750ntf    on523306   1.571   5.182   1.888  0.2933 -0.0712  0.3553
 3750ntf    on523307   1.544   4.950   1.816  0.3358  0.1445 -0.0593
 3750ntf    fn423308   1.588   5.242   1.591 -0.0257 -0.0304 -0.4274
 3750ntf    fn423309   1.566   5.039   1.548  0.2370  0.3910  0.2433
 3750ntf    fn423310   1.405   5.141   1.636 -0.1111  0.2704  0.1049
 3751ntf    cn123311   6.514   6.111   6.699  0.1568 -0.3773 -0.2384
 3751ntf    sn223312   6.373   5.999   6.671 -0.0441 -0.2050  0.0728
 3751ntf    nn323313   6.257   6.100   6.699  0.0319 -0.0622 -0.1275
 3751ntf    sn223314   6.182   6.197   6.601  0.0228 -0.0320 -0.0900
 3751ntf    cn123315   6.032   6.098   6.572 -0.0218 -0.0433  0.1823
 3751ntf    fn423316   6.512   6.219   6.623  0.3056 -0.1506  0.0781
 3751ntf    fn423317   6.508   6.155   6.823  1.1402 -0.1699 -0.2581
 3751ntf    fn423318   6.625   6.040   6.688  0.6561  0.3126  0.2908
 3751ntf    on523319   6.392   5.957   6.534 -0.4371  0.5354 -0.2079
 3751ntf    on523320   6.385   5.898   6.773 -0.1437 -0.3971 -0.1046
 3751ntf    on523321   6.241   6.226   6.473 -0.0652 -0.0262 -0.1300
 3751ntf    on523322   6.131   6.310   6.675 -0.0029 -0.0213 -0.1238
 3751ntf    fn423323   5.982   6.053   6.686 -0.5680 -0.1064 -0.0771
 3751ntf    fn423324   5.940   6.166   6.505  0.2330  0.2055  0.0835
 3751ntf    fn423325   6.059   5.990   6.501  0.2497  0.1804 -0.0553
 3752ntf    cn123326   5.562   1.021   3.567  0.2845 -0.3324 -0.2108
 3752ntf    sn223327   5.546   1.187   3.639  0.0166 -0.3498 -0.2308
 3752ntf    nn323328   5.636   1.166   3.765  0.0712 -0.1046 -0.2281
 3752ntf    sn223329   5.622   1.202   3.917  0.2865  0.3608 -0.3171
 3752ntf    cn123330   5.587   1.038   3.987  0.1956  0.4056 -0.2568
 3752ntf    fn423331   5.687   0.977   3.564  0.3499 -0.1707  0.1126
 3752ntf    fn423332   5.502   0.937   3.650 -0.4061 -0.2204 -0.5917
 3752ntf    fn423333   5.517   1.006   3.444 -0.3261  0.3361 -0.0775
 3752ntf    on523334   5.608   1.276   3.544 -0.2895  0.0267 -0.0815
 3752ntf    on523335   5.404   1.190   3.662  0.0964 -0.3874  0.2772
 3752ntf    on523336   5.506   1.284   3.945  0.0828 -0.0426  0.0292
 3752ntf    on523337   5.745   1.230   3.987 -0.0985 -0.6240  0.8009
 3752ntf    fn423338   5.683   0.951   3.959  0.1335  0.2248  0.0816
 3752ntf    fn423339   5.577   1.032   4.119  0.1209  0.3223 -0.2657
 3752ntf    fn423340   5.475   0.992   3.934 -0.1454  0.0371  0.7623
 3753ntf    cn123341   1.436   6.865   4.773 -0.0212  0.0889 -0.5290
 3753ntf    sn223342   1.467   6.687   4.756  0.1177  0.0342  0.2544
 3753ntf    nn323343   1.316   6.645   4.754  0.0346  0.3432 -0.0159
 3753ntf    sn223344   1.232   6.594   4.632  0.1869  0.2150 -0.0669
 3753ntf    cn123345   1.119   6.481   4.719  0.3734  0.1312  0.0657
 3753ntf    fn423346   1.406   6.896   4.898  0.0723  0.1126 -0.5119
 3753ntf    fn423347   1.536   6.940   4.727 -0.1560  0.1614 -0.7050
 3753ntf    fn423348   1.328   6.901   4.707 -0.2631  0.4817  0.0716
 3753ntf    on523349   1.531   6.684   4.627 -0.2267  0.4407  0.0714
 3753ntf    on523350   1.547   6.646   4.869  0.2428  0.6130  0.3761
 3753ntf    on523351   1.301   6.501   4.546 -0.1649 -0.6694  0.5956
 3753ntf    on523352   1.148   6.695   4.573 -0.3866  0.0638  0.4838
 3753ntf    fn423353   1.015   6.448   4.644  0.0013  0.1253  0.5798
 3753ntf    fn423354   1.172   6.365   4.754 -0.0689 -0.1877 -0.3087
 3753ntf    fn423355   1.067   6.538   4.826 -0.0454 -0.0660 -0.0296
 3754ntf    cn123356   1.547   2.676   2.788  0.2257 -0.1810  0.0554
 3754ntf    sn223357   1.410   2.628   2.678  0.1066  0.2038  0.0314
 3754ntf    nn323358   1.411   2.760   2.593  0.0669  0.3442  0.2481
 3754ntf    sn223359   1.281   2.823   2.532 -0.0248  0.0073  0.0940
 3754ntf    cn123360   1.366   2.932   2.415  0.0355 -0.0438  0.0899
 3754ntf    fn423361   1.558   2.594   2.891  0.0601 -0.2637  0.0072
 3754ntf    fn423362   1.665   2.678   2.729 -0.0854 -0.1531 -0.5770
 3754ntf    fn423363   1.530   2.799   2.836 -0.5271 -0.3398  0.2099
 3754ntf    on523364   1.463   2.519   2.599  0.0089  0.0752  0.1426
 3754ntf    on523365   1.295   2.604   2.761  0.2948  1.2928  0.6187
 3754ntf    on523366   1.203   2.910   2.616 -0.6460 -0.6536  0.2171
 3754ntf    on523367   1.207   2.727   2.454  0.1821  0.0779 -0.1884
 3754ntf    fn423368   1.443   2.857   2.337 -0.1283 -0.1045 -0.0129
 3754ntf    fn423369   1.278   3.001   2.344 -0.0021 -0.1861 -0.0016
 3754ntf    fn423370   1.445   3.025   2.468 -0.5374  0.3274  0.2972
 3755ntf    cn123371   4.930   5.125   2.206  0.3064 -0.0514  0.1254
 3755ntf    sn223372   5.029   5.043   2.078 -0.0973  0.0069 -0.2272
 3755ntf    nn323373   4.944   4.914   2.049  0.4965 -0.4707  0.1335
 3755ntf    sn223374   4.926   4.842   1.911 -0.1775  0.0901 -0.0743
 3755ntf    cn123375   4.871   4.676   1.963  0.1558 -0.0016 -0.0119
 3755ntf    fn423376   4.997   5.223   2.263  0.5240 -0.1022 -0.0438
 3755ntf    fn423377   4.814   5.174   2.166  0.3244  0.0791  0.2313
 3755ntf    fn423378   4.905   5.027   2.292  0.0062  0.0345  0.1382
 3755ntf    on523379   5.033   5.136   1.968 -0.0809 -0.0710 -0.2929
 3755ntf    on523380   5.153   5.011   2.146 -0.2069 -0.1734 -0.1102
 3755ntf    on523381   5.049   4.806   1.843 -0.0233 -0.1708  0.3413
 3755ntf    on523382   4.812   4.889   1.836  0.1663  0.7956 -0.1638
 3755ntf    fn423383   4.871   4.580   1.872  0.0218 -0.1696  0.1675
 3755ntf    fn423384   4.948   4.632   2.061  0.3541 -0.3822 -0.3380
 3755ntf    fn423385   4.751   4.685   2.018  0.2398 -0.4149  0.2392
 3756ntf    cn123386   0.467   5.392   6.895 -0.1201 -0.1826  0.0610
 3756ntf    sn223387   0.494   5.217   6.853  0.1464 -0.0655 -0.2601
 3756ntf    nn323388   0.591   5.173   6.968 -0.0734  0.4186  0.1126
 3756ntf    sn223389   0.533   5.114   7.101 -0.2543 -0.0051 -0.1533
 3756ntf    cn123390   0.520   4.939   7.053  0.2727 -0.0790 -0.0395
 3756ntf    fn423391   0.415   5.412   7.015 -0.0138 -0.0555  0.0859
 3756ntf    fn423392   0.579   5.463   6.888 -0.2332 -0.0654 -0.6283
 3756ntf    fn423393   0.390   5.453   6.807 -0.2084 -0.2815  0.0690
 3756ntf    on523394   0.361   5.161   6.841  0.1985 -0.2023 -0.1959
 3756ntf    on523395   0.577   5.216   6.735  0.3129 -0.4783 -0.1391
 3756ntf    on523396   0.397   5.143   7.139 -0.2483  0.3142 -0.3713
 3756ntf    on523397   0.629   5.113   7.209  0.1032 -0.2444 -0.4692
 3756ntf    fn423398   0.637   4.878   7.061  0.1019 -0.3318  0.5917
 3756ntf    fn423399   0.435   4.878   7.134 -0.0286  0.3497 -0.0287
 3756ntf    fn423400   0.471   4.926   6.930 -0.1164  0.0685  0.0988
 3757ntf    cn123401   1.667   6.037   5.124 -0.3438 -0.1685  0.3041
 3757ntf    sn223402   1.659   5.901   5.244  0.4659 -0.2702  0.2460
 3757ntf    nn323403   1.506   5.872   5.258  0.3738 -0.0885 -0.3762
 3757ntf    sn223404   1.400   5.854   5.144  0.0810  0.0797 -0.1313
 3757ntf    cn123405   1.332   5.697   5.204  0.1050  0.0153 -0.2701
 3757ntf    fn423406   1.795   6.069   5.116 -0.2985 -0.3921  0.1279
 3757ntf    fn423407   1.628   5.999   5.004  0.5449 -0.0205 -0.0395
 3757ntf    fn423408   1.601   6.145   5.163  0.1371  0.3537 -0.3121
 3757ntf    on523409   1.720   5.785   5.183 -0.6913 -0.6811 -0.1404
 3757ntf    on523410   1.721   5.963   5.359  0.0761  0.5618  0.0099
 3757ntf    on523411   1.438   5.821   5.009  0.0701 -0.1089 -0.0883
 3757ntf    on523412   1.293   5.951   5.155 -0.3838 -0.4229 -0.2269
 3757ntf    fn423413   1.426   5.607   5.229 -0.0704 -0.0971 -0.0150
 3757ntf    fn423414   1.256   5.704   5.312  0.2515  0.3172 -0.1863
 3757ntf    fn423415   1.260   5.650   5.104 -0.4957  0.0949  0.1225
 3758ntf    cn123416   1.426   1.568   3.650 -0.0781 -0.1270  0.3810
 3758ntf    sn223417   1.338   1.526   3.496  0.0109 -0.1103  0.3253
 3758ntf    nn323418   1.378   1.377   3.465  0.3241  0.0916 -0.2590
 3758ntf    sn223419   1.300   1.242   3.483  0.0407  0.3193  0.2685
 3758ntf    cn123420   1.356   1.153   3.334 -0.5557 -0.4793  0.5107
 3758ntf    fn423421   1.555   1.541   3.636 -0.0762  0.0292  0.0807
 3758ntf    fn423422   1.407   1.693   3.687  0.2111  0.0031  0.0893
 3758ntf    fn423423   1.395   1.489   3.751  0.0409 -0.8765 -0.1536
 3758ntf    on523424   1.201   1.545   3.537 -0.3476 -0.4338 -0.6875
 3758ntf    on523425   1.389   1.614   3.395 -0.2528  0.1297  0.4027
 3758ntf    on523426   1.158   1.246   3.458  0.1079 -0.4565 -0.3048
 3758ntf    on523427   1.353   1.163   3.591  0.0836  0.1917  0.1547
 3758ntf    fn423428   1.309   1.218   3.229  0.7770 -0.0155  0.1750
 3758ntf    fn423429   1.487   1.166   3.324 -0.6575  0.6004  0.4261
 3758ntf    fn423430   1.314   1.029   3.322 -0.0797 -0.6243  0.2950
 3759ntf    cn123431   3.331   6.109   5.192 -0.2420  0.1464  0.2545
 3759ntf    sn223432   3.225   6.005   5.086  0.2512  0.0661 -0.1641
 3759ntf    nn323433   3.123   5.947   5.191  0.3762  0.3126  0.0963
 3759ntf    sn223434   2.989   6.015   5.236 -0.0049 -0.3178 -0.0790
 3759ntf    cn123435   2.874   5.929   5.124 -0.2023  0.1293 -0.2217
 3759ntf    fn423436   3.441   6.147   5.131 -0.1032 -0.2875  0.2299
 3759ntf    fn423437   3.269   6.218   5.234 -0.5169  0.0029  0.2313
 3759ntf    fn423438   3.372   6.042   5.299 -0.4458 -0.3681  0.0160
 3759ntf    on523439   3.180   6.099   4.987  0.4050  0.1315 -0.1728
 3759ntf    on523440   3.324   5.910   5.043 -0.3269 -0.4245 -0.4196
 3759ntf    on523441   2.981   6.155   5.205 -0.2554 -0.2498  0.2910
 3759ntf    on523442   2.945   5.973   5.366  0.0252 -0.5467 -0.1408
 3759ntf    fn423443   2.872   5.797   5.134 -0.1901  0.1109 -0.4649
 3759ntf    fn423444   2.749   5.968   5.146 -0.0269  0.4968  0.1406
 3759ntf    fn423445   2.899   5.957   4.997 -0.5433 -0.2300 -0.3701
 3760ntf    cn123446   6.071   1.958   6.379 -0.0193 -0.0510 -0.0800
 3760ntf    sn223447   5.929   2.063   6.335 -0.0454 -0.1147 -0.1464
 3760ntf    nn323448   5.851   2.065   6.472  0.0018  0.3970 -0.1261
 3760ntf    sn223449   5.775   2.173   6.557 -0.2672  0.0135  0.1223
 3760ntf    cn123450   5.632   2.063   6.576  0.0291 -0.3333  0.3663
 3760ntf    fn423451   6.158   1.952   6.280  0.1117  0.2477  0.0118
 3760ntf    fn423452   6.147   2.011   6.474  0.0596 -0.2317 -0.0413
 3760ntf    fn423453   6.041   1.839   6.427 -0.4291  0.0384 -0.1146
 3760ntf    on523454   5.987   2.189   6.295 -0.0332  0.0560  0.3975
 3760ntf    on523455   5.857   1.991   6.233  0.3763 -0.4966 -0.1800
 3760ntf    on523456   5.723   2.292   6.493  0.2927  0.2558  0.1133
 3760ntf    on523457   5.828   2.179   6.691  0.0735  0.5814 -0.0347
 3760ntf    fn423458   5.568   2.035   6.463  0.3813 -0.0326  0.0930
 3760ntf    fn423459   5.683   1.944   6.603  0.1520 -0.4574 -0.3863
 3760ntf    fn423460   5.544   2.097   6.668 -0.1557 -0.0801  0.0973
 3761ntf    cn123461   3.382   3.634   0.037 -0.0199  0.2795 -0.2593
 3761ntf    sn223462   3.228   3.577   0.114  0.1540 -0.0907 -0.1812
 3761ntf    nn323463   3.238   3.664   0.244 -0.2570 -0.3076 -0.0010
 3761ntf    sn223464   3.131   3.767   0.295 -0.0197 -0.0809  0.0475
 3761ntf    cn123465   3.230   3.917   0.274 -0.0083 -0.0954 -0.0018
 3761ntf    fn423466   3.376   3.622  -0.094 -0.1021  0.4646 -0.2726
 3761ntf    fn423467   3.410   3.760   0.065 -0.2679  0.3552 -0.3514
 3761ntf    fn423468   3.491   3.567   0.074  0.1189  0.4346 -0.3872
 3761ntf    on523469   3.133   3.614   0.012 -0.3117 -0.1669  0.2185
 3761ntf    on523470   3.247   3.435   0.130 -0.0501 -0.0331  0.6415
 3761ntf    on523471   3.116   3.761   0.439  0.0468  0.0263  0.0591
 3761ntf    on523472   3.014   3.790   0.214 -0.0300 -0.2137  0.0238
 3761ntf    fn423473   3.255   3.945   0.147  0.3173  0.2163  0.1286
 3761ntf    fn423474   3.178   4.027   0.325 -0.3068 -0.1086 -0.2788
 3761ntf    fn423475   3.348   3.914   0.334 -0.1400  0.6810  0.3092
 3762ntf    cn123476   5.816   3.002   2.380 -0.2779 -0.1835  0.3955
 3762ntf    sn223477   5.916   2.851   2.402  0.1531  0.0875  0.3120
 3762ntf    nn323478   5.952   2.815   2.253  0.1796 -0.0366  0.3492
 3762ntf    sn223479   5.915   2.693   2.162  0.2202  0.1953  0.0186
 3762ntf    cn123480   6.039   2.576   2.225  0.0612 -0.1426 -0.2903
 3762ntf    fn423481   5.869   3.101   2.311 -0.4213 -0.2040  0.2555
 3762ntf    fn423482   5.705   2.976   2.313 -0.1299 -0.1196  0.1274
 3762ntf    fn423483   5.773   3.050   2.496 -0.0524  0.4576  0.2189
 3762ntf    on523484   6.032   2.891   2.476  0.0470  0.8344  0.0874
 3762ntf    on523485   5.828   2.757   2.467 -0.1597  0.0174 -0.2033
 3762ntf    on523486   5.944   2.717   2.023  0.5534  0.1016  0.0704
 3762ntf    on523487   5.787   2.634   2.195  0.4252 -0.0082  0.4610
 3762ntf    fn423488   6.012   2.453   2.185 -0.6906 -0.0373 -0.1180
 3762ntf    fn423489   6.163   2.599   2.184  0.0683 -0.2256 -0.3171
 3762ntf    fn423490   6.025   2.570   2.357 -0.4479  0.2967 -0.3207
 3763ntf    cn123491   3.704   1.363   4.055 -0.0216  0.2113  0.3890
 3763ntf    sn223492   3.755   1.212   3.967 -0.1781  0.3195  0.1122
 3763ntf    nn323493   3.616   1.169   3.907 -0.2396  1.0071 -0.2566
 3763ntf    sn223494   3.574   1.156   3.756 -0.2711  0.1196 -0.1795
 3763ntf    cn123495   3.393   1.141   3.773 -0.2340 -0.1562 -0.0189
 3763ntf    fn423496   3.806   1.407   4.127  0.4372 -0.1430 -0.0385
 3763ntf    fn423497   3.657   1.463   3.982 -0.1060 -0.0274  0.1170
 3763ntf    fn423498   3.603   1.336   4.135  0.2390 -0.0419  0.6364
 3763ntf    on523499   3.856   1.260   3.876 -0.1005  0.5056  0.2947
 3763ntf    on523500   3.801   1.129   4.075  0.4733  0.3847 -0.1147
 3763ntf    on523501   3.613   1.029   3.702 -0.2423 -0.0287  0.1855
 3763ntf    on523502   3.592   1.273   3.674 -0.6265  0.0492 -0.3586
 3763ntf    fn423503   3.350   1.098   3.890  0.1107  0.0465  0.1863
 3763ntf    fn423504   3.346   1.264   3.766  0.3756  0.0327 -0.9687
 3763ntf    fn423505   3.334   1.075   3.675 -0.3722 -0.1655  0.0712
 3764ntf    cn123506   4.565   6.567   4.014  0.0885  0.1303 -0.4982
 3764ntf    sn223507   4.439   6.436   4.022  0.3516 -0.0958  0.0039
 3764ntf    nn323508   4.358   6.453   3.888 -0.1320  0.0357  0.3095
 3764ntf    sn223509   4.206   6.416   3.871 -0.1274  0.0831  0.1592
 3764ntf    cn123510   4.222   6.265   3.772  0.4501  0.1626  0.1237
 3764ntf    fn423511   4.657   6.562   4.109 -0.1285  0.0827 -0.2904
 3764ntf    fn423512   4.638   6.565   3.903 -0.1001 -0.1294 -0.6202
 3764ntf    fn423513   4.506   6.683   4.033 -0.2832 -0.0751 -0.3972
 3764ntf    on523514   4.493   6.303   4.023 -0.1697 -0.3102  0.2051
 3764ntf    on523515   4.370   6.480   4.140 -0.4928 -0.5943 -0.2946
 3764ntf    on523516   4.142   6.506   3.779 -0.2679 -0.7892 -0.6104
 3764ntf    on523517   4.137   6.357   3.983  0.3192 -0.6148  0.0732
 3764ntf    fn423518   4.103   6.214   3.746  0.2964  0.4246  0.3122
 3764ntf    fn423519   4.280   6.272   3.653  0.0018  0.1452 -0.0998
 3764ntf    fn423520   4.292   6.174   3.837  0.2089  0.0770  0.2655
 3765ntf    cn123521   1.838   1.761   2.506  0.0623  0.0194 -0.0581
 3765ntf    sn223522   1.984   1.779   2.400  0.1708 -0.2852  0.0367
 3765ntf    nn323523   2.101   1.749   2.500  0.0301 -0.5191  0.1319
 3765ntf    sn223524   2.163   1.610   2.538 -0.0010 -0.5335  0.1290
 3765ntf    cn123525   2.125   1.624   2.715 -0.0711  0.4506  0.0407
 3765ntf    fn423526   1.842   1.842   2.610  0.0842 -0.5207  0.3670
 3765ntf    fn423527   1.724   1.778   2.442  0.1789 -0.5447 -0.4250
 3765ntf    fn423528   1.836   1.640   2.560 -0.2630 -0.0171 -0.1525
 3765ntf    on523529   1.959   1.685   2.293  0.0625  0.2287 -0.3956
 3765ntf    on523530   1.977   1.919   2.365 -0.0474 -0.3254 -0.0776
 3765ntf    on523531   2.307   1.595   2.543  0.0380 -0.3375 -0.3429
 3765ntf    on523532   2.084   1.492   2.514 -0.2656 -0.2926 -0.1976
 3765ntf    fn423533   2.167   1.735   2.773  0.0347  0.2921  0.2661
 3765ntf    fn423534   1.994   1.627   2.733 -0.0666 -0.1143  0.1702
 3765ntf    fn423535   2.171   1.527   2.791 -0.3419 -0.1190 -0.5168
 3766ntf    cn123536   1.613   0.731   4.205  0.3066  0.3548  0.0184
 3766ntf    sn223537   1.618   0.550   4.215  0.0745  0.3425 -0.0848
 3766ntf    nn323538   1.773   0.523   4.210 -0.0156 -0.2336  0.1312
 3766ntf    sn223539   1.876   0.499   4.326  0.1500  0.0485  0.0422
 3766ntf    cn123540   1.913   0.321   4.319  0.2306  0.0683 -0.0441
 3766ntf    fn423541   1.668   0.785   4.313  0.1361  0.3915  0.0863
 3766ntf    fn423542   1.682   0.778   4.102  0.4823 -0.1568 -0.1011
 3766ntf    fn423543   1.489   0.773   4.190  0.2622  0.2458  0.0820
 3766ntf    on523544   1.556   0.509   4.338  0.7131 -0.1612  0.0732
 3766ntf    on523545   1.547   0.509   4.096 -0.1003 -0.0759  0.1647
 3766ntf    on523546   1.828   0.519   4.460  0.0890 -0.2474  0.0652
 3766ntf    on523547   2.008   0.549   4.294 -0.0478  0.9975  0.6630
 3766ntf    fn423548   1.963   0.289   4.201  0.3309  0.5956 -0.1468
 3766ntf    fn423549   2.001   0.279   4.409  0.1116  0.0844  0.0799
 3766ntf    fn423550   1.802   0.250   4.327  0.1845  0.1276 -0.1529
 3767ntf    cn123551   3.682   6.083   5.429 -0.3500  0.2409  0.1494
 3767ntf    sn223552   3.763   6.108   5.590 -0.1781 -0.0658  0.1114
 3767ntf    nn323553   3.779   6.263   5.581  0.5978 -0.0921  0.8932
 3767ntf    sn223554   3.676   6.372   5.629  0.3188 -0.1027  0.3335
 3767ntf    cn123555   3.672   6.462   5.472 -0.1039 -0.2799  0.2422
 3767ntf    fn423556   3.648   5.956   5.419 -0.5774  0.3095  0.0543
 3767ntf    fn423557   3.570   6.153   5.421 -0.5104 -0.0240  0.0689
 3767ntf    fn423558   3.755   6.114   5.322 -0.3394 -0.0188  0.0797
 3767ntf    on523559   3.668   6.064   5.689 -0.6877 -0.0546 -0.3680
 3767ntf    on523560   3.886   6.034   5.578 -0.1821  0.0337 -0.5799
 3767ntf    on523561   3.733   6.465   5.725  0.0335  0.2182  0.1924
 3767ntf    on523562   3.536   6.340   5.644  0.3381 -0.0860  0.5628
 3767ntf    fn423563   3.593   6.567   5.490  0.1043 -0.1120  0.1845
 3767ntf    fn423564   3.787   6.519   5.440 -0.3916 -0.0967 -0.5084
 3767ntf    fn423565   3.642   6.388   5.367 -0.0937  0.1662 -0.0812
 3768ntf    cn123566   6.884   4.965   6.154 -0.3414  0.0933  0.0662
 3768ntf    sn223567   6.906   4.909   5.982 -0.0570  0.0352  0.1221
 3768ntf    nn323568   7.002   5.020   5.926 -0.1230  0.0776  0.0913
 3768ntf    sn223569   6.955   5.166   5.893  0.0706  0.1403  0.0917
 3768ntf    cn123570   7.094   5.260   5.964  0.0281  0.0402  0.3089
 3768ntf    fn423571   6.996   5.023   6.193 -0.0418 -0.5235  0.1383
 3768ntf    fn423572   6.779   5.043   6.175 -0.2000  0.2658  0.1268
 3768ntf    fn423573   6.871   4.863   6.237  0.4119  0.1675  0.2786
 3768ntf    on523574   6.972   4.780   5.987  0.4827  0.2415 -1.1700
 3768ntf    on523575   6.770   4.911   5.936 -0.1797 -0.4012  0.4560
 3768ntf    on523576   6.843   5.214   5.970 -0.0853  0.0407 -0.0732
 3768ntf    on523577   6.959   5.203   5.754  0.5562  0.1379  0.1015
 3768ntf    fn423578   7.066   5.388   5.985 -0.1500  0.0746 -0.1279
 3768ntf    fn423579   7.125   5.217   6.085 -0.3333 -0.0752  0.3629
 3768ntf    fn423580   7.206   5.253   5.894 -0.1035 -0.1246  0.1149
 3769ntf    cn123581   4.835   1.669   5.598 -0.0642  0.1425 -0.1355
 3769ntf    sn223582   4.883   1.841   5.630 -0.1214  0.1308  0.0156
 3769ntf    nn323583   4.812   1.864   5.768  0.0094 -0.1133  0.1236
 3769ntf    sn223584   4.822   1.796   5.909 -0.0951 -0.1976  0.0900
 3769ntf    cn123585   4.922   1.928   5.983  0.0723 -0.3109  0.0689
 3769ntf    fn423586   4.910   1.579   5.660 -0.1718  0.3385  0.2819
 3769ntf    fn423587   4.706   1.652   5.622  0.0828 -0.1026  0.5139
 3769ntf    fn423588   4.850   1.636   5.471 -0.1934  0.3068 -0.1934
 3769ntf    on523589   5.027   1.846   5.632 -0.1181  0.1771 -0.2772
 3769ntf    on523590   4.815   1.911   5.524 -0.2724  0.1651  0.1357
 3769ntf    on523591   4.895   1.672   5.923 -0.2819 -0.2820  0.3214
 3769ntf    on523592   4.690   1.806   5.965 -0.3914 -0.2774 -0.5871
 3769ntf    fn423593   5.009   1.972   5.893  0.0680 -0.1378  0.1492
 3769ntf    fn423594   4.865   2.041   6.022  0.7744 -0.1861  0.7631
 3769ntf    fn423595   4.991   1.879   6.085 -0.2427 -0.4458  0.2158
 3770ntf    cn123596   5.119   6.633   6.266 -0.1669 -0.1407 -0.0682
 3770ntf    sn223597   4.978   6.734   6.214 -0.2022  0.0121  0.3170
 3770ntf    nn323598   4.884   6.725   6.339 -0.2622  0.2763  0.2913
 3770ntf    sn223599   4.732   6.685   6.350 -0.1497 -0.1216  0.4141
 3770ntf    cn123600   4.701   6.714   6.527  0.2723  0.3099  0.4223
 3770ntf    fn423601   5.154   6.538   6.181 -0.1238 -0.0072 -0.1980
 3770ntf    fn423602   5.227   6.707   6.288 -0.0895 -0.2728 -0.0008
 3770ntf    fn423603   5.100   6.573   6.383  0.3558 -0.4043 -0.1131
 3770ntf    on523604   5.024   6.870   6.200 -0.2106 -0.0070  0.1021
 3770ntf    on523605   4.933   6.667   6.094 -0.0040 -0.2615  0.3965
 3770ntf    on523606   4.702   6.545   6.339 -0.2861 -0.0405 -0.2584
 3770ntf    on523607   4.646   6.774   6.276  0.5357  0.1951 -0.0219
 3770ntf    fn423608   4.575   6.694   6.563  0.1127  0.5043 -0.0187
 3770ntf    fn423609   4.781   6.638   6.600  0.7848  0.3663 -0.0806
 3770ntf    fn423610   4.730   6.840   6.555 -0.1311  0.5678 -0.2948
 3771ntf    cn123611   5.079   6.653   3.294 -0.0780  0.0674 -0.0571
 3771ntf    sn223612   5.259   6.660   3.321 -0.0654 -0.1135 -0.0914
 3771ntf    nn323613   5.312   6.637   3.175  0.5178 -0.3314  0.1544
 3771ntf    sn223614   5.380   6.743   3.081 -0.3145 -0.1842 -0.2921
 3771ntf    cn123615   5.539   6.773   3.165 -0.4458  0.2186 -0.1859
 3771ntf    fn423616   5.015   6.646   3.410  0.2737 -0.4892  0.1117
 3771ntf    fn423617   5.034   6.755   3.224 -0.4232  0.1496  0.2825
 3771ntf    fn423618   5.051   6.540   3.231  0.0221  0.3948 -0.6944
 3771ntf    on523619   5.274   6.798   3.360 -0.5144  0.0029 -0.3194
 3771ntf    on523620   5.296   6.555   3.411  0.4473 -0.0033 -0.1703
 3771ntf    on523621   5.315   6.871   3.068 -1.1609 -0.6129 -0.3594
 3771ntf    on523622   5.433   6.680   2.963  0.5449  0.0475 -0.0380
 3771ntf    fn423623   5.592   6.887   3.125  0.0407  0.1203  0.1778
 3771ntf    fn423624   5.534   6.777   3.297  0.2733 -0.1788 -0.1452
 3771ntf    fn423625   5.628   6.677   3.144 -0.5182  0.1368 -0.1205
 3772ntf    cn123626   5.239   5.029   0.373 -0.1746 -0.4318 -0.0726
 3772ntf    sn223627   5.113   4.948   0.476 -0.1205 -0.2026  0.1759
 3772ntf    nn323628   5.010   5.066   0.488  0.1952  0.1744 -0.7199
 3772ntf    sn223629   4.857   5.044   0.459  0.0516  0.0296  0.1169
 3772ntf    cn123630   4.833   4.948   0.611  0.4679  0.2625  0.3321
 3772ntf    fn423631   5.313   5.119   0.435 -0.0262 -0.3870 -0.3135
 3772ntf    fn423632   5.319   4.945   0.311 -0.0554 -0.2952 -0.1054
 3772ntf    fn423633   5.179   5.110   0.287 -0.2648 -0.3047  0.1085
 3772ntf    on523634   5.080   4.841   0.385  0.3307 -0.3715  0.2082
 3772ntf    on523635   5.192   4.922   0.594  0.2955  0.5931  0.0744
 3772ntf    on523636   4.819   4.958   0.350  0.2105 -0.0672  0.1378
 3772ntf    on523637   4.783   5.167   0.475  0.0561  0.0931 -0.3519
 3772ntf    fn423638   4.908   4.841   0.631  0.3825  0.1578  0.0863
 3772ntf    fn423639   4.852   5.027   0.716 -0.2473  0.0319  0.6439
 3772ntf    fn423640   4.706   4.912   0.616  0.4234  0.2394 -0.7686
 3773ntf    cn123641   6.084   1.520   1.545  0.1004  0.0853  0.2122
 3773ntf    sn223642   6.044   1.345   1.571  0.3152 -0.0480 -0.3465
 3773ntf    nn323643   5.887   1.344   1.578  0.2997 -0.3009 -0.6801
 3773ntf    sn223644   5.781   1.371   1.466 -0.1628 -0.0927 -0.1937
 3773ntf    cn123645   5.692   1.213   1.452  0.1360 -0.2559 -0.2484
 3773ntf    fn423646   6.013   1.605   1.618 -0.6521 -0.0266 -0.3767
 3773ntf    fn423647   6.208   1.549   1.580  0.1486  0.1568 -0.0151
 3773ntf    fn423648   6.073   1.554   1.418 -0.1541  0.0378  0.2198
 3773ntf    on523649   6.102   1.277   1.458 -0.0563  0.1432 -0.6540
 3773ntf    on523650   6.081   1.314   1.707 -0.3441  0.6180 -0.0080
 3773ntf    on523651   5.834   1.397   1.335 -0.3702  0.6128 -0.1445
 3773ntf    on523652   5.679   1.460   1.518 -0.0320  0.0226 -0.1338
 3773ntf    fn423653   5.622   1.179   1.559  0.1931 -0.2270 -0.2011
 3773ntf    fn423654   5.609   1.216   1.349  0.3163  0.1599 -0.3871
 3773ntf    fn423655   5.776   1.113   1.428 -0.4593 -0.9291  0.4097
 3774ntf    cn123656   5.798   6.350   4.172 -0.1897 -0.0416 -0.0055
 3774ntf    sn223657   5.661   6.236   4.211 -0.2493 -0.0482 -0.2357
 3774ntf    nn323658   5.556   6.345   4.250  0.0780  0.0190  0.4768
 3774ntf    sn223659   5.441   6.401   4.158  0.1443 -0.0253  0.3674
 3774ntf    cn123660   5.302   6.293   4.203 -0.1870  0.1461 -0.2294
 3774ntf    fn423661   5.769   6.436   4.077  0.4660 -0.3620 -0.5071
 3774ntf    fn423662   5.833   6.412   4.284  0.1129  0.1043 -0.1787
 3774ntf    fn423663   5.900   6.273   4.136  0.2093  0.4458  0.0669
 3774ntf    on523664   5.645   6.159   4.090  0.2917 -0.4669 -0.0439
 3774ntf    on523665   5.702   6.155   4.322 -0.1395  0.4363  0.0814
 3774ntf    on523666   5.448   6.389   4.015 -0.1167  0.4738  0.3085
 3774ntf    on523667   5.403   6.534   4.198  0.4233  0.2080 -0.1328
 3774ntf    fn423668   5.315   6.174   4.145 -0.2911 -0.0878  0.2239
 3774ntf    fn423669   5.299   6.280   4.335 -0.0687 -0.2129 -0.2602
 3774ntf    fn423670   5.188   6.347   4.164 -0.0645  0.3600 -0.2928
 3775ntf    cn123671   2.688   0.351   0.442  0.2840 -0.1732 -0.3158
 3775ntf    sn223672   2.613   0.495   0.361 -0.1742 -0.2941 -0.1120
 3775ntf    nn323673   2.559   0.443   0.223 -0.3005  0.3811 -0.3215
 3775ntf    sn223674   2.415   0.390   0.192 -0.1331 -0.3022  0.0414
 3775ntf    cn123675   2.426   0.219   0.252  0.0821 -0.4712 -0.4757
 3775ntf    fn423676   2.771   0.383   0.540  0.2763 -0.5238 -0.1918
 3775ntf    fn423677   2.593   0.281   0.502  0.1213  0.2989 -0.0141
 3775ntf    fn423678   2.758   0.275   0.359  0.3577 -0.0248 -0.3903
 3775ntf    on523679   2.516   0.543   0.456  0.1000  0.0168  0.0162
 3775ntf    on523680   2.735   0.572   0.354 -0.1523 -0.3115  0.0736
 3775ntf    on523681   2.386   0.376   0.051  0.1308 -0.6529  0.0225
 3775ntf    on523682   2.303   0.450   0.261 -0.3127  0.3649 -0.8056
 3775ntf    fn423683   2.338   0.191   0.346  0.1807  0.1087 -0.2082
 3775ntf    fn423684   2.412   0.128   0.157  0.0613 -0.6519 -0.3007
 3775ntf    fn423685   2.541   0.205   0.315 -0.2725 -0.2219  0.2369
 3776ntf    cn123686   0.504   3.282   5.321  0.1368  0.2345  0.0420
 3776ntf    sn223687   0.663   3.348   5.261  0.1208  0.4532  0.2368
 3776ntf    nn323688   0.666   3.480   5.345  0.2072  0.2135  0.6115
 3776ntf    sn223689   0.665   3.628   5.292  0.0791  0.0967  0.2840
 3776ntf    cn123690   0.785   3.698   5.409  0.4446  0.2244 -0.1636
 3776ntf    fn423691   0.411   3.371   5.294  0.0868  0.0211 -0.5011
 3776ntf    fn423692   0.461   3.170   5.265 -0.0198  0.2939  0.0459
 3776ntf    fn423693   0.507   3.265   5.452  0.2672  0.0963  0.0213
 3776ntf    on523694   0.762   3.255   5.309 -0.6185 -0.1098  0.6977
 3776ntf    on523695   0.640   3.350   5.118 -0.1831 -0.2072  0.2710
 3776ntf    on523696   0.542   3.701   5.311 -0.1087 -0.3682  0.8972
 3776ntf    on523697   0.732   3.642   5.166  0.1800 -0.4854  0.2712
 3776ntf    fn423698   0.906   3.647   5.392  0.4566 -0.0854  0.7602
 3776ntf    fn423699   0.795   3.830   5.396 -0.1245  0.3040  0.1399
 3776ntf    fn423700   0.758   3.669   5.536  0.0863  0.0210 -0.2866
 3777ntf    cn123701   0.608   0.695   5.819 -0.2746  0.0186 -0.5112
 3777ntf    sn223702   0.765   0.694   5.727  0.1995 -0.2343  0.2959
 3777ntf    nn323703   0.722   0.788   5.609 -0.1943 -0.2200  0.4480
 3777ntf    sn223704   0.643   0.758   5.477  0.1453  0.1247  0.1625
 3777ntf    cn123705   0.779   0.760   5.357  0.3176 -0.3347  0.3488
 3777ntf    fn423706   0.561   0.816   5.843 -0.4579 -0.0458 -0.5363
 3777ntf    fn423707   0.517   0.634   5.744 -0.5081  0.1323 -0.3186
 3777ntf    fn423708   0.623   0.650   5.942  0.4699  0.0175 -0.6000
 3777ntf    on523709   0.857   0.757   5.818  0.2472 -0.1262  0.1720
 3777ntf    on523710   0.792   0.556   5.693 -0.1084 -0.2873  0.2594
 3777ntf    on523711   0.560   0.873   5.449 -0.0112  0.1217  0.6061
 3777ntf    on523712   0.582   0.627   5.478 -0.2958  0.3280  0.0555
 3777ntf    fn423713   0.734   0.762   5.233 -0.0982  0.2506  0.5013
 3777ntf    fn423714   0.847   0.873   5.362 -0.2679  0.0463 -0.1646
 3777ntf    fn423715   0.856   0.652   5.360  0.2640 -0.3789  0.1641
 3778ntf    cn123716   1.066   6.339   0.675  0.6363 -0.0354  0.1167
 3778ntf    sn223717   0.893   6.371   0.629  0.5388 -0.4814  0.1687
 3778ntf    nn323718   0.815   6.331   0.759 -0.0686  0.3819  0.0762
 3778ntf    sn223719   0.840   6.400   0.897 -0.1281  0.4198  0.0684
 3778ntf    cn123720   0.667   6.401   0.951 -0.1910 -0.5968 -0.0968
 3778ntf    fn423721   1.068   6.208   0.691  0.3115 -0.0913 -0.2910
 3778ntf    fn423722   1.149   6.375   0.578  0.0147  0.0915 -0.3760
 3778ntf    fn423723   1.105   6.407   0.781 -0.5531  0.3356  0.3271
 3778ntf    on523724   0.888   6.511   0.597 -0.0893 -0.3524  0.8179
 3778ntf    on523725   0.869   6.276   0.523 -0.4002 -0.0279 -0.0298
 3778ntf    on523726   0.882   6.538   0.900 -0.4041  0.5219 -0.5818
 3778ntf    on523727   0.909   6.317   0.994  0.0522  0.4163 -0.0620
 3778ntf    fn423728   0.652   6.456   1.071 -0.6800 -0.0022 -0.4307
 3778ntf    fn423729   0.598   6.471   0.863  0.2595 -0.5902 -0.4470
 3778ntf    fn423730   0.616   6.278   0.949  0.0601 -0.7028  0.0300
 3779ntf    cn123731   1.081   5.726   0.206 -0.0246  0.3287 -0.0522
 3779ntf    sn223732   1.076   5.788   0.377 -0.1582 -0.1871  0.1335
 3779ntf    nn323733   1.119   5.664   0.463  0.0689 -0.1163  0.1219
 3779ntf    sn223734   1.037   5.593   0.576  0.1093 -0.0793  0.1741
 3779ntf    cn123735   0.941   5.479   0.472 -0.3239  0.4115  0.0276
 3779ntf    fn423736   0.996   5.627   0.184 -0.0689  0.4469 -0.4201
 3779ntf    fn423737   1.047   5.824   0.124 -0.3170  0.2304 -0.0501
 3779ntf    fn423738   1.200   5.683   0.169  0.1606 -0.0873  0.9816
 3779ntf    on523739   1.173   5.894   0.390 -0.2652 -0.0690 -0.0181
 3779ntf    on523740   0.937   5.827   0.384 -0.1462 -0.1990  0.4403
 3779ntf    on523741   0.937   5.679   0.635  0.2956  0.1328  0.1812
 3779ntf    on523742   1.118   5.508   0.659  0.5558 -0.0069 -0.1880
 3779ntf    fn423743   0.880   5.537   0.370 -0.4819 -0.2824 -0.2769
 3779ntf    fn423744   1.019   5.383   0.425 -0.2586  0.5367 -0.1173
 3779ntf    fn423745   0.847   5.408   0.534  0.0893 -0.2492 -0.0926
 3780ntf    cn123746   2.407   1.307   6.483 -0.2685  0.1165  0.1362
 3780ntf    sn223747   2.337   1.270   6.647  0.2958 -0.2139  0.3036
 3780ntf    nn323748   2.471   1.277   6.729  0.2697  0.3685  0.2984
 3780ntf    sn223749   2.516   1.198   6.857 -0.1571  0.2550  0.3788
 3780ntf    cn123750   2.601   1.060   6.775 -0.2725  0.1831  0.3789
 3780ntf    fn423751   2.509   1.230   6.449 -0.2895  0.1029  0.1047
 3780ntf    fn423752   2.330   1.274   6.380  0.0114  0.3001 -0.1337
 3780ntf    fn423753   2.446   1.433   6.473  0.4357 -0.1342 -0.3436
 3780ntf    on523754   2.252   1.385   6.664  0.1588 -0.1381 -0.8081
 3780ntf    on523755   2.277   1.140   6.631  0.0676 -0.0968  0.2146
 3780ntf    on523756   2.411   1.131   6.929 -0.3322  0.0104 -0.0936
 3780ntf    on523757   2.618   1.264   6.935  0.4498 -0.0232 -0.1638
 3780ntf    fn423758   2.600   0.952   6.851  0.0188 -0.1344 -0.0586
 3780ntf    fn423759   2.555   1.017   6.659  0.1774  0.0739  0.2373
 3780ntf    fn423760   2.727   1.098   6.757 -0.1584 -0.0305  0.7128
   7.11748   7.11748   7.11748
