Converted from moscito
17280
    1SOL     ow    1   0.025   4.872   1.163  0.0545 -0.4851  0.1747
    1SOL     hw    2   0.068   4.858   1.247  0.8084  0.9382  0.0608
    1SOL     hw    3   0.097   4.889   1.102 -0.5880  0.7876 -0.2651
    1SOL     vw    4   0.040   4.873   1.166  0.0696 -0.1295  0.1017
    2SOL     ow    5   3.288   5.743   3.156  0.1398  0.1568 -0.1150
    2SOL     hw    6   3.250   5.812   3.102  0.4350 -0.5942 -1.3253
    2SOL     hw    7   3.378   5.771   3.172 -0.2627  0.9066  0.9437
    2SOL     vw    8   3.295   5.756   3.151  0.1255  0.1566 -0.1351
    3SOL     ow    9   3.637   3.633   6.640  0.1688  0.6166 -0.2258
    3SOL     hw   10   3.593   3.672   6.565  2.3684  0.3842 -1.7285
    3SOL     hw   11   3.645   3.541   6.618  0.3550  0.4330  0.5645
    3SOL     vw   12   3.632   3.626   6.627  0.4835  0.5616 -0.3200
    4SOL     ow   13   0.547   3.858   1.252 -0.6293 -0.4651  0.0421
    4SOL     hw   14   0.551   3.772   1.208 -0.9482  0.2742 -1.5046
    4SOL     hw   15   0.613   3.852   1.321 -0.9071 -2.0822  0.2309
    4SOL     vw   16   0.556   3.846   1.255 -0.7080 -0.5809 -0.1372
    5SOL     ow   17   3.585   3.709   5.248  0.0979 -0.5345 -0.0538
    5SOL     hw   18   3.548   3.776   5.191  1.1119  0.1982  0.1100
    5SOL     hw   19   3.586   3.750   5.335  0.1973 -0.9668  0.1481
    5SOL     vw   20   3.580   3.724   5.252  0.2447 -0.4948 -0.0052
    6SOL     ow   21   4.541   3.323   4.909  0.3662 -0.5376  0.1338
    6SOL     hw   22   4.459   3.353   4.870  0.8189  1.1842  0.4224
    6SOL     hw   23   4.596   3.299   4.835 -0.2309 -1.2626 -0.0809
    6SOL     vw   24   4.538   3.324   4.894  0.3471 -0.4060  0.1435
    7SOL     ow   25   1.223   6.607   2.354  0.7410 -0.2496  0.6120
    7SOL     hw   26   1.172   6.674   2.399 -0.5073 -0.5558 -0.2802
    7SOL     hw   27   1.171   6.527   2.362 -0.1068 -0.1014 -2.1871
    7SOL     vw   28   1.209   6.605   2.361  0.4644 -0.2706  0.1251
    8SOL     ow   29   6.070   0.401   1.620 -0.1893 -0.6638  0.5829
    8SOL     hw   30   6.147   0.454   1.600 -0.5716  0.5310  2.0995
    8SOL     hw   31   6.004   0.465   1.648 -1.4541 -1.7414  0.1180
    8SOL     vw   32   6.071   0.417   1.621 -0.4065 -0.6483  0.7216
    9SOL     ow   33   3.677   1.273   6.277 -0.3582  0.3131 -0.3865
    9SOL     hw   34   3.624   1.307   6.349  0.5633  0.3756  0.2927
    9SOL     hw   35   3.764   1.309   6.293  0.1138 -0.5525 -0.9180
    9SOL     vw   36   3.682   1.282   6.289 -0.1744  0.2072 -0.3672
   10SOL     ow   37   1.653   2.386   1.907  0.1484 -0.0140  0.6960
   10SOL     hw   38   1.744   2.410   1.890  0.1748  0.0262  0.8873
   10SOL     hw   39   1.606   2.470   1.902  0.2560  0.0966  1.4651
   10SOL     vw   40   1.659   2.401   1.904  0.1661  0.0060  0.8227
   11SOL     ow   41   6.100   4.826   5.483  0.3919  0.6276 -0.2437
   11SOL     hw   42   6.091   4.921   5.472 -0.9539  0.5877  0.4242
   11SOL     hw   43   6.019   4.798   5.524  1.7384 -0.4877  1.8289
   11SOL     vw   44   6.088   4.835   5.487  0.3922  0.4752  0.1178
   12SOL     ow   45   5.676   0.193   0.757 -0.1169  0.8860  0.0777
   12SOL     hw   46   5.733   0.254   0.805 -0.8940  0.6539  1.3585
   12SOL     hw   47   5.723   0.110   0.758 -0.8867  0.3989  2.1221
   12SOL     vw   48   5.690   0.190   0.763 -0.3209  0.7911  0.5164
   13SOL     ow   49   1.811   3.518   1.302 -0.0564 -0.7316  0.2957
   13SOL     hw   50   1.761   3.509   1.221  1.7745  0.6100 -1.0569
   13SOL     hw   51   1.768   3.589   1.349 -0.7151 -1.0490  0.1762
   13SOL     vw   52   1.799   3.526   1.298  0.0983 -0.5965  0.1016
   14SOL     ow   53   5.921   1.207   1.115 -0.0477 -0.3041  0.2363
   14SOL     hw   54   5.971   1.144   1.063 -0.5752 -0.1190 -0.5021
   14SOL     hw   55   5.988   1.254   1.165  0.4783 -0.4384 -0.3231
   14SOL     vw   56   5.936   1.205   1.115 -0.0479 -0.2974  0.0651
   15SOL     ow   57   1.277   1.867   6.702 -0.0002  0.2615  0.4522
   15SOL     hw   58   1.188   1.895   6.723  0.0262  0.0174  0.9054
   15SOL     hw   59   1.267   1.776   6.673 -0.0481  0.6294 -0.7100
   15SOL     vw   60   1.264   1.858   6.701 -0.0030  0.2779  0.3588
   16SOL     ow   61   0.520   0.250   1.121  0.5651  0.2572 -0.3244
   16SOL     hw   62   0.483   0.329   1.159 -1.8693 -0.8571 -0.2281
   16SOL     hw   63   0.527   0.270   1.027 -1.2086  0.2163 -0.4991
   16SOL     vw   64   0.516   0.263   1.114  0.0099  0.1048 -0.3348
   17SOL     ow   65   4.654   3.585   0.823  0.4757 -0.1112  0.0466
   17SOL     hw   66   4.656   3.507   0.878 -1.3209  0.9049  1.6590
   17SOL     hw   67   4.612   3.557   0.742  0.7402 -1.0122  0.2122
   17SOL     vw   68   4.649   3.571   0.819  0.2735 -0.0960  0.2812
   18SOL     ow   69   2.159   0.740   4.470 -0.2587 -0.0713  0.3628
   18SOL     hw   70   2.174   0.687   4.548 -0.0563  1.0836  1.1360
   18SOL     hw   71   2.232   0.720   4.412  1.7250  1.8591  2.0527
   18SOL     vw   72   2.170   0.730   4.473  0.0298  0.3358  0.6878
   19SOL     ow   73   0.148   3.860   4.254 -0.4865  0.7191  0.2503
   19SOL     hw   74   0.150   3.766   4.237  0.0591  0.7632  0.0479
   19SOL     hw   75   0.153   3.867   4.350  0.7702  0.5600  0.2154
   19SOL     vw   76   0.149   3.848   4.265 -0.2487  0.7039  0.2189
   20SOL     ow   77   6.674   4.068   5.883  0.1665  0.0240  0.2531
   20SOL     hw   78   6.584   4.098   5.871  0.5158  0.6197 -1.0917
   20SOL     hw   79   6.672   3.976   5.857  0.1680  0.3582 -1.0177
   20SOL     vw   80   6.662   4.060   5.878  0.2127  0.1466 -0.0918
   21SOL     ow   81   2.149   1.342   5.037 -0.5340 -0.2238 -0.6489
   21SOL     hw   82   2.210   1.412   5.012 -0.8639  1.5235  2.8485
   21SOL     hw   83   2.062   1.381   5.026 -0.7698 -0.4784  0.2992
   21SOL     vw   84   2.145   1.356   5.032 -0.6086 -0.0268 -0.0622
   22SOL     ow   85   3.457   2.782   3.985  0.3195  0.3516 -0.4283
   22SOL     hw   86   3.473   2.689   4.004  0.3055  0.3207 -0.5698
   22SOL     hw   87   3.450   2.786   3.890 -1.9686  0.1143 -0.3229
   22SOL     vw   88   3.458   2.770   3.975  0.0156  0.3160 -0.4331
   23SOL     ow   89   0.161   6.381   5.661  0.3147  0.0246  0.1349
   23SOL     hw   90   0.199   6.409   5.578  0.2910 -1.1675 -0.2985
   23SOL     hw   91   0.077   6.343   5.638  0.4907 -0.7158  0.6327
   23SOL     vw   92   0.155   6.379   5.647  0.3348 -0.2306  0.1433
   24SOL     ow   93   2.097   2.088   0.460  0.0653  0.0429 -0.7489
   24SOL     hw   94   2.167   2.089   0.395 -0.0151 -1.1399 -0.8697
   24SOL     hw   95   2.097   1.999   0.495 -0.3375  0.4662  0.3981
   24SOL     vw   96   2.106   2.076   0.456  0.0014 -0.0572 -0.6135
   25SOL     ow   97   5.483   3.522   3.192 -0.7092  0.0930  0.5151
   25SOL     hw   98   5.453   3.584   3.258 -0.7695  0.1419  0.4411
   25SOL     hw   99   5.444   3.552   3.110 -0.9291 -0.1745  0.5201
   25SOL     vw  100   5.474   3.534   3.190 -0.7463  0.0641  0.5060
   26SOL     ow  101   4.883   0.848   1.897  0.7335 -0.1645 -0.0226
   26SOL     hw  102   4.919   0.793   1.966  0.9131  1.6157  1.3788
   26SOL     hw  103   4.811   0.797   1.861  1.0147 -1.3871  1.0733
   26SOL     vw  104   4.878   0.834   1.902  0.7944 -0.0909  0.3068
   27SOL     ow  105   3.292   0.865   0.931  0.4898 -0.3690 -0.0183
   27SOL     hw  106   3.284   0.959   0.913  2.2524 -0.3199 -0.7423
   27SOL     hw  107   3.289   0.824   0.845 -1.0108 -1.0764  0.3393
   27SOL     vw  108   3.290   0.872   0.917  0.5243 -0.4559 -0.0666
   28SOL     ow  109   3.678   0.603   3.555 -0.1145 -0.7130  0.3852
   28SOL     hw  110   3.628   0.532   3.516  2.0953 -1.7838 -0.6726
   28SOL     hw  111   3.744   0.560   3.610  1.3167  0.4441 -0.3239
   28SOL     vw  112   3.680   0.588   3.557  0.3659 -0.7016  0.1520
   29SOL     ow  113   3.300   5.866   3.867 -0.8926  0.0656 -0.3449
   29SOL     hw  114   3.336   5.850   3.779 -1.3026 -1.8831 -0.1902
   29SOL     hw  115   3.206   5.874   3.853 -0.9156  0.1730 -0.1321
   29SOL     vw  116   3.293   5.865   3.853 -0.9499 -0.1774 -0.2964
   30SOL     ow  117   6.685   0.040   6.387 -0.3004  0.1912  0.4513
   30SOL     hw  118   6.627   0.035   6.464 -0.1305 -0.6277  0.5284
   30SOL     hw  119   6.629   0.076   6.318 -1.1701 -1.3415  0.3015
   30SOL     vw  120   6.670   0.044   6.388 -0.3929 -0.1190  0.4416
   31SOL     ow  121   6.663   3.048   4.783  0.0823  0.1961  0.8978
   31SOL     hw  122   6.757   3.030   4.774  0.1230  1.0288 -0.7187
   31SOL     hw  123   6.621   2.963   4.772  0.5819  0.0596 -0.0582
   31SOL     vw  124   6.670   3.034   4.780  0.1533  0.2880  0.5584
   32SOL     ow  125   4.201   4.218   1.869  0.0654  0.2808 -0.4093
   32SOL     hw  126   4.261   4.149   1.840  0.6285  0.6571 -0.1467
   32SOL     hw  127   4.251   4.299   1.859 -1.1802  0.8648 -2.4287
   32SOL     vw  128   4.216   4.219   1.864 -0.0246  0.4075 -0.6411
   33SOL     ow  129   1.357   1.169   3.395 -0.4870 -0.2696 -0.0859
   33SOL     hw  130   1.341   1.253   3.440  0.9101 -0.3438  0.5938
   33SOL     hw  131   1.278   1.155   3.342 -0.5781  1.6919 -0.5499
   33SOL     vw  132   1.345   1.179   3.394 -0.3147 -0.0206 -0.0573
   34SOL     ow  133   6.755   6.420   2.859  0.0613 -0.3539  0.2111
   34SOL     hw  134   6.805   6.443   2.781 -0.0302 -0.4228  0.1329
   34SOL     hw  135   6.703   6.344   2.833  1.5507 -1.6829  0.9214
   34SOL     vw  136   6.755   6.413   2.845  0.2456 -0.5386  0.2946
   35SOL     ow  137   0.555   2.315   3.231 -0.2236  0.1636 -0.3207
   35SOL     hw  138   0.584   2.247   3.291  0.8897 -0.5327 -1.6101
   35SOL     hw  139   0.488   2.364   3.280 -1.3066 -2.0458  0.5240
   35SOL     vw  140   0.550   2.313   3.245 -0.2196 -0.2198 -0.3794
   36SOL     ow  141   0.974   4.367   3.542 -0.0511  0.1940  0.1500
   36SOL     hw  142   1.058   4.324   3.555 -0.1719 -0.0921 -0.0295
   36SOL     hw  143   0.965   4.425   3.618 -0.1303 -0.4839  0.6640
   36SOL     vw  144   0.984   4.369   3.554 -0.0775  0.0665  0.1941
   37SOL     ow  145   4.092   1.501   4.030  0.5803 -0.3588 -0.2234
   37SOL     hw  146   4.050   1.441   4.092  0.5064  0.5161  0.5884
   37SOL     hw  147   4.129   1.570   4.085 -1.0269  1.4211 -1.2553
   37SOL     vw  148   4.092   1.502   4.045  0.3586 -0.0085 -0.2525
   38SOL     ow  149   6.106   4.352   2.663 -0.3647 -0.0689  0.1064
   38SOL     hw  150   6.102   4.441   2.628 -0.0111  0.0298  0.3069
   38SOL     hw  151   6.024   4.312   2.636  0.7760 -0.7302 -2.7911
   38SOL     vw  152   6.095   4.359   2.655 -0.1676 -0.1431 -0.2495
   39SOL     ow  153   0.791   1.953   1.109 -0.0262  0.1015 -0.6320
   39SOL     hw  154   0.862   2.000   1.065 -0.6881  2.3024  0.4859
   39SOL     hw  155   0.779   1.874   1.057  3.1525 -0.3379 -0.9318
   39SOL     vw  156   0.799   1.949   1.096  0.3059  0.3339 -0.5241
   40SOL     ow  157   6.539   0.911   2.526  0.9072 -0.3891  0.4696
   40SOL     hw  158   6.490   0.829   2.528  0.9884 -0.4534 -0.1211
   40SOL     hw  159   6.594   0.904   2.449  0.9211  0.2209  0.4242
   40SOL     vw  160   6.540   0.899   2.516  0.9196 -0.3171  0.3856
   41SOL     ow  161   0.890   1.688   2.070 -0.7370  0.0041  0.2161
   41SOL     hw  162   0.862   1.771   2.110 -0.0999  0.2012  0.2523
   41SOL     hw  163   0.811   1.656   2.026 -1.2340  0.1829  0.9509
   41SOL     vw  164   0.876   1.695   2.069 -0.7185  0.0536  0.3178
   42SOL     ow  165   4.306   1.884   2.179 -0.1850 -0.6080 -0.0157
   42SOL     hw  166   4.347   1.911   2.261 -1.1553 -0.0327  0.2888
   42SOL     hw  167   4.300   1.789   2.186  0.2975 -0.6202  0.3049
   42SOL     vw  168   4.311   1.875   2.191 -0.2491 -0.5338  0.0668
   43SOL     ow  169   1.064   2.169   3.895 -0.1248 -0.6941 -0.6610
   43SOL     hw  170   1.069   2.163   3.991 -1.0165  0.6324 -0.4958
   43SOL     hw  171   1.009   2.095   3.870 -3.4574  1.1963  0.3449
   43SOL     vw  172   1.057   2.159   3.905 -0.6821 -0.2697 -0.5064
   44SOL     ow  173   6.243   0.111   1.027 -0.0102 -0.4573 -0.0908
   44SOL     hw  174   6.316   0.165   0.998 -1.5574  1.3524 -0.8778
   44SOL     hw  175   6.179   0.174   1.061 -2.4971 -1.5707 -2.3344
   44SOL     vw  176   6.244   0.127   1.027 -0.5426 -0.3654 -0.4907
   45SOL     ow  177   6.704   4.642   0.961  0.0532 -0.1658  0.1558
   45SOL     hw  178   6.630   4.589   0.933  0.1773 -2.0699  3.0674
   45SOL     hw  179   6.781   4.594   0.930  0.1351 -0.7728  1.2773
   45SOL     vw  180   6.705   4.629   0.953  0.0806 -0.4969  0.6880
   46SOL     ow  181   3.788   4.176   4.910  0.1354  0.0329 -0.1656
   46SOL     hw  182   3.703   4.135   4.895  0.6892 -0.8502 -1.0081
   46SOL     hw  183   3.851   4.105   4.896  1.0718  0.9654 -0.7629
   46SOL     vw  184   3.785   4.161   4.906  0.3319  0.0393 -0.3555
   47SOL     ow  185   0.408   4.027   4.123 -0.3692 -0.5281 -0.3354
   47SOL     hw  186   0.471   3.964   4.088 -1.3248 -2.5160  1.3056
   47SOL     hw  187   0.421   4.024   4.218 -0.6856  1.5318 -0.1952
   47SOL     vw  188   0.418   4.018   4.131 -0.5370 -0.5186 -0.1001
   48SOL     ow  189   1.037   5.597   0.551 -0.2371 -0.5305 -0.0129
   48SOL     hw  190   0.962   5.654   0.564  0.3305  0.3035 -0.2655
   48SOL     hw  191   1.100   5.626   0.617 -0.1597 -1.2653  0.2439
   48SOL     vw  192   1.036   5.608   0.561 -0.1521 -0.5171 -0.0123
   49SOL     ow  193   0.243   1.198   4.835 -0.2893  0.4653 -0.0014
   49SOL     hw  194   0.207   1.112   4.856 -0.6246  0.8198  0.9151
   49SOL     hw  195   0.337   1.183   4.824 -0.2410  0.0981  0.8497
   49SOL     vw  196   0.250   1.185   4.836 -0.3272  0.4636  0.2317
   50SOL     ow  197   6.770   5.591   1.307 -0.1190 -0.4546 -0.2669
   50SOL     hw  198   6.696   5.594   1.369 -0.4328  2.0346 -0.6484
   50SOL     hw  199   6.766   5.675   1.262  2.0449 -0.9112 -1.4195
   50SOL     vw  200   6.759   5.602   1.309  0.1252 -0.1862 -0.4693
   51SOL     ow  201   0.026   6.163   4.931 -0.0390 -0.0761 -0.4753
   51SOL     hw  202  -0.064   6.131   4.923 -0.1922 -0.0803  0.9895
   51SOL     hw  203   0.065   6.106   4.997  0.8368  0.3688 -0.6029
   51SOL     vw  204   0.019   6.151   4.939  0.0560 -0.0181 -0.2985
   52SOL     ow  205   4.544   1.874   5.160  0.2510  0.0430  0.5268
   52SOL     hw  206   4.583   1.824   5.088 -0.8251 -0.9695  0.6310
   52SOL     hw  207   4.598   1.852   5.236  0.9698  0.5801  0.1837
   52SOL     vw  208   4.557   1.865   5.160  0.2038 -0.0197  0.4952
   53SOL     ow  209   0.885   5.496   5.861  0.8424  0.0721  0.1078
   53SOL     hw  210   0.941   5.550   5.805 -0.8767  0.8546 -0.9398
   53SOL     hw  211   0.859   5.555   5.932 -0.3058  0.3870 -0.5469
   53SOL     vw  212   0.889   5.511   5.863  0.4641  0.2167 -0.1168
   54SOL     ow  213   5.917   2.811   6.583 -0.0391 -0.6729 -0.3381
   54SOL     hw  214   5.946   2.719   6.578  0.7940 -0.3722 -1.3820
   54SOL     hw  215   5.957   2.853   6.507  0.2569  0.7535  0.5703
   54SOL     vw  216   5.926   2.804   6.572  0.1099 -0.4450 -0.3557
   55SOL     ow  217   2.704   5.717   6.094  0.0228 -0.1689 -0.7932
   55SOL     hw  218   2.678   5.643   6.149  1.1824 -0.0063  0.0130
   55SOL     hw  219   2.790   5.692   6.058 -0.1112  0.2930 -1.4690
   55SOL     vw  220   2.712   5.704   6.096  0.1581 -0.0865 -0.7761
   56SOL     ow  221   4.955   1.814   2.109 -0.3184  0.4726 -0.2560
   56SOL     hw  222   4.859   1.822   2.110 -0.5018 -0.9042 -1.8907
   56SOL     hw  223   4.973   1.736   2.160 -0.4387 -1.3763 -2.8184
   56SOL     vw  224   4.945   1.805   2.116 -0.3581  0.0470 -0.8098
   57SOL     ow  225   2.463   3.933   2.085  0.1360 -0.4655  0.1839
   57SOL     hw  226   2.396   3.941   2.153 -0.6875  0.1038 -0.6665
   57SOL     hw  227   2.510   4.016   2.088  0.4922 -0.6741  0.4517
   57SOL     vw  228   2.461   3.945   2.094  0.0744 -0.4178  0.1069
   58SOL     ow  229   4.084   4.012   0.614 -0.3599 -0.0794 -0.4424
   58SOL     hw  230   4.124   4.080   0.667  0.6887 -0.8064 -0.2797
   58SOL     hw  231   4.157   3.958   0.583 -1.2450 -1.9503  0.5515
   58SOL     vw  232   4.099   4.014   0.617 -0.3383 -0.4225 -0.2898
   59SOL     ow  233   2.967   3.033   3.486  0.0906  0.1153  0.1350
   59SOL     hw  234   3.048   3.071   3.521 -0.5612  1.6235  0.0801
   59SOL     hw  235   2.919   3.108   3.449 -1.5004 -0.6882  0.4836
   59SOL     vw  236   2.971   3.048   3.486 -0.2053  0.2081  0.1738
   60SOL     ow  237   2.067   4.947   0.206  0.0422 -0.4805  0.0846
   60SOL     hw  238   2.083   4.914   0.118 -1.2568 -2.3327  0.4738
   60SOL     hw  239   2.148   4.930   0.253 -0.0993 -1.9304 -0.1206
   60SOL     vw  240   2.080   4.940   0.201 -0.1478 -0.9165  0.1089
   61SOL     ow  241   3.222   0.254   0.361 -0.0844 -0.0977  0.1403
   61SOL     hw  242   3.227   0.273   0.267  1.5687  1.1193  0.4355
   61SOL     hw  243   3.129   0.241   0.378 -0.4406 -0.0860 -1.6053
   61SOL     vw  244   3.211   0.254   0.351  0.0868  0.0644 -0.0510
   62SOL     ow  245   5.342   0.207   0.735  0.4741 -0.0461  0.4461
   62SOL     hw  246   5.351   0.255   0.818 -0.1343 -0.8548  1.0030
   62SOL     hw  247   5.297   0.126   0.760  0.1076 -0.2110 -0.7166
   62SOL     vw  248   5.337   0.202   0.749  0.3455 -0.1745  0.3662
   63SOL     ow  249   0.710   2.547   3.199  0.0291 -0.3773  0.2729
   63SOL     hw  250   0.658   2.627   3.212  0.6511  0.6867 -2.8332
   63SOL     hw  251   0.768   2.544   3.275  0.0828  2.2787  0.4495
   63SOL     vw  252   0.711   2.557   3.210  0.1182  0.1135 -0.1137
   64SOL     ow  253   2.845   3.092   5.710  1.0361 -0.7063 -0.6420
   64SOL     hw  254   2.767   3.142   5.683  1.5690 -0.2036 -1.2953
   64SOL     hw  255   2.912   3.117   5.646  2.9603  2.0681  2.1516
   64SOL     vw  256   2.843   3.102   5.698  1.3603 -0.2739 -0.3595
   65SOL     ow  257   5.606   1.676   0.697 -0.5436  0.5794  0.4856
   65SOL     hw  258   5.514   1.674   0.723 -0.6309 -0.4146  0.1266
   65SOL     hw  259   5.606   1.719   0.612 -0.5067  1.8288  1.0948
   65SOL     vw  260   5.594   1.682   0.689 -0.5505  0.6130  0.5186
   66SOL     ow  261   2.941   2.940   0.392  0.5788 -0.0516 -0.2459
   66SOL     hw  262   2.909   2.925   0.303 -0.9849  2.7411 -0.2694
   66SOL     hw  263   2.873   2.901   0.448  0.7675 -0.4274 -0.2782
   66SOL     vw  264   2.928   2.933   0.388  0.3973  0.2674 -0.2533
   67SOL     ow  265   2.444   0.141   0.681 -0.2046 -0.4075  0.2722
   67SOL     hw  266   2.409   0.221   0.719 -2.1452 -0.4153 -1.3161
   67SOL     hw  267   2.471   0.166   0.592 -1.2414 -1.5581 -0.4040
   67SOL     vw  268   2.443   0.155   0.674 -0.5974 -0.5603 -0.0266
   68SOL     ow  269   0.132   1.647   0.167 -0.1888 -0.0594  0.1407
   68SOL     hw  270   0.199   1.714   0.179 -1.5339  0.9580  2.9331
   68SOL     hw  271   0.052   1.697   0.147 -1.1396 -0.7649  1.8968
   68SOL     vw  272   0.130   1.663   0.166 -0.4917 -0.0182  0.7408
   69SOL     ow  273   0.913   4.503   0.351 -0.5015  0.6404 -0.9662
   69SOL     hw  274   1.005   4.479   0.356 -0.3929  1.3097  0.5565
   69SOL     hw  275   0.867   4.429   0.391 -0.8586 -0.6495 -3.5137
   69SOL     vw  276   0.919   4.490   0.357 -0.5343  0.5586 -1.1014
   70SOL     ow  277   3.984   2.276   4.090  0.3943  0.3694  0.2735
   70SOL     hw  278   4.055   2.216   4.114 -1.1387 -1.4297  0.5655
   70SOL     hw  279   4.027   2.347   4.043  2.3236 -0.9541 -0.0724
   70SOL     vw  280   3.999   2.277   4.087  0.4466 -0.0426  0.2658
   71SOL     ow  281   3.049   6.281   2.143  0.1347 -0.0792 -0.1171
   71SOL     hw  282   3.083   6.285   2.232 -2.8594 -0.3015  1.1177
   71SOL     hw  283   3.108   6.338   2.093  2.2129 -0.3808  1.8400
   71SOL     vw  284   3.062   6.289   2.148  0.0137 -0.1483  0.3040
   72SOL     ow  285   3.983   4.637   3.676  0.3583 -0.1942  0.1537
   72SOL     hw  286   4.012   4.550   3.649 -0.6047 -0.6154  0.4214
   72SOL     hw  287   3.943   4.623   3.762 -0.1277  0.4534  0.0405
   72SOL     vw  288   3.982   4.624   3.684  0.1671 -0.1645  0.1742
   73SOL     ow  289   1.724   1.822   4.435 -0.0521  0.5683  0.2609
   73SOL     hw  290   1.698   1.736   4.469  0.9824  0.8671  1.9631
   73SOL     hw  291   1.642   1.868   4.420 -0.6722 -1.0609 -1.7742
   73SOL     vw  292   1.710   1.817   4.438  0.0026  0.3928  0.2170
   74SOL     ow  293   0.826   5.724   4.615  0.0819  0.8293 -0.2455
   74SOL     hw  294   0.897   5.786   4.634  2.0053 -1.6591  1.2258
   74SOL     hw  295   0.863   5.664   4.551 -1.7861  1.1983 -1.7396
   74SOL     vw  296   0.840   5.725   4.609  0.0892  0.5498 -0.2487
   75SOL     ow  297   2.088   4.634   5.732  0.3878 -0.1826 -0.3548
   75SOL     hw  298   2.042   4.715   5.709  3.4420  1.6591 -0.6681
   75SOL     hw  299   2.100   4.589   5.648  0.3454  0.0140 -0.4682
   75SOL     vw  300   2.084   4.639   5.718  0.7851  0.0863 -0.4110
   76SOL     ow  301   3.797   4.525   5.669 -0.1994  0.4589  0.1759
   76SOL     hw  302   3.704   4.543   5.655 -0.1697 -0.1330 -0.8934
   76SOL     hw  303   3.842   4.593   5.618 -0.0793 -0.5624 -1.1445
   76SOL     vw  304   3.791   4.536   5.660 -0.1796  0.2460 -0.1392
   77SOL     ow  305   4.017   0.769   4.252  0.4868  0.1056  0.2069
   77SOL     hw  306   4.021   0.848   4.307  0.9342 -0.1800  0.5977
   77SOL     hw  307   4.023   0.697   4.315  1.9256 -0.2219 -0.2775
   77SOL     vw  308   4.019   0.770   4.268  0.7355  0.0247  0.1945
   78SOL     ow  309   1.176   5.197   4.840  0.2681  0.2816  0.2434
   78SOL     hw  310   1.249   5.257   4.826  0.7863 -0.2302  0.7119
   78SOL     hw  311   1.173   5.186   4.935 -0.8947  0.8851  0.2962
   78SOL     vw  312   1.185   5.204   4.851  0.1831  0.2937  0.3121
   79SOL     ow  313   3.718   1.207   2.250  0.6606 -0.2626  0.2193
   79SOL     hw  314   3.645   1.268   2.261  1.2860  0.0111  4.8809
   79SOL     hw  315   3.794   1.255   2.281  2.2762 -1.6196 -1.4442
   79SOL     vw  316   3.718   1.221   2.255  0.9562 -0.4055  0.6149
   80SOL     ow  317   2.565   2.921   1.250  0.0933 -0.3148 -0.5265
   80SOL     hw  318   2.582   2.841   1.199 -1.4193  0.1250 -1.8090
   80SOL     hw  319   2.499   2.968   1.200  0.9452  1.7859  0.1959
   80SOL     vw  320   2.558   2.916   1.237  0.0061  0.0205 -0.6005
   81SOL     ow  321   0.227   3.001   4.001 -0.2065  0.2382  0.0502
   81SOL     hw  322   0.217   2.987   4.095 -0.0702  2.4829  0.4467
   81SOL     hw  323   0.309   2.957   3.979  1.3059  2.0710  1.6085
   81SOL     vw  324   0.236   2.993   4.010  0.0110  0.7761  0.3085
   82SOL     ow  325   2.125   2.098   5.394  0.0979 -0.4909 -0.4498
   82SOL     hw  326   2.047   2.150   5.374 -1.1120 -1.3467  1.6924
   82SOL     hw  327   2.194   2.162   5.409 -0.5517  0.3527 -0.9963
   82SOL     vw  328   2.124   2.113   5.394 -0.1473 -0.4925 -0.2391
   83SOL     ow  329   1.263   6.423   3.623 -0.4328  0.8732  0.8134
   83SOL     hw  330   1.183   6.385   3.659 -0.2484 -0.0506  0.2785
   83SOL     hw  331   1.244   6.439   3.531  0.2899 -0.2739  0.4392
   83SOL     vw  332   1.250   6.420   3.616 -0.3130  0.6001  0.6934
   84SOL     ow  333   6.814   3.625   2.072 -0.0218  0.1982  0.2978
   84SOL     hw  334   6.887   3.677   2.038  0.8584 -0.8298  0.5644
   84SOL     hw  335   6.781   3.577   1.997 -0.3699  0.5709  0.2029
   84SOL     vw  336   6.819   3.626   2.058  0.0482  0.1118  0.3204
   85SOL     ow  337   3.082   1.672   3.583  0.4662  0.2755 -0.0534
   85SOL     hw  338   3.042   1.748   3.541 -0.4338 -0.1552  0.0083
   85SOL     hw  339   3.030   1.658   3.662 -0.0454 -1.0324 -0.5971
   85SOL     vw  340   3.070   1.681   3.587  0.2800  0.0461 -0.1169
   86SOL     ow  341   5.997   5.600   1.129  0.1189  0.1072 -0.4654
   86SOL     hw  342   5.928   5.627   1.068  0.5169 -0.2565 -1.0856
   86SOL     hw  343   6.051   5.539   1.079  0.3386 -0.3539  0.3194
   86SOL     vw  344   5.995   5.596   1.114  0.2000 -0.0017 -0.4436
   87SOL     ow  345   0.782   5.481   1.945 -0.4523  0.1336 -0.1202
   87SOL     hw  346   0.752   5.563   1.984  0.6531  0.0413  0.9701
   87SOL     hw  347   0.876   5.493   1.934 -0.6477  0.0092 -2.4655
   87SOL     vw  348   0.790   5.494   1.948 -0.3322  0.1051 -0.2858
   88SOL     ow  349   5.170   3.982   4.431 -0.1343 -0.0824  0.1588
   88SOL     hw  350   5.261   3.953   4.430  0.2025  0.9456 -0.1893
   88SOL     hw  351   5.160   4.026   4.516  0.0040  0.7320 -0.2410
   88SOL     vw  352   5.181   3.984   4.442 -0.0720  0.1606  0.0603
   89SOL     ow  353   2.162   5.875   1.009  0.2217 -0.0864  0.1535
   89SOL     hw  354   2.103   5.941   1.044 -1.2092 -1.4316  0.3892
   89SOL     hw  355   2.191   5.825   1.085  1.0653  0.0797 -0.0495
   89SOL     vw  356   2.158   5.877   1.024  0.1440 -0.2420  0.1578
   90SOL     ow  357   0.756   3.380   4.289 -0.0454 -0.2794  0.3847
   90SOL     hw  358   0.775   3.342   4.374 -1.1812 -0.6708  0.4772
   90SOL     hw  359   0.693   3.320   4.249  1.3082 -0.6990 -1.2022
   90SOL     vw  360   0.750   3.367   4.295 -0.0167 -0.3865  0.1874
   91SOL     ow  361   0.337   2.677   4.493  0.1117  0.0693  0.7926
   91SOL     hw  362   0.316   2.735   4.567  1.6199 -0.5445  1.7585
   91SOL     hw  363   0.268   2.611   4.494  0.3366 -0.1661  1.9297
   91SOL     vw  364   0.325   2.676   4.503  0.3404 -0.0428  1.0700
   92SOL     ow  365   5.713   1.196   1.378  0.1118  0.2228 -0.5441
   92SOL     hw  366   5.644   1.180   1.443  1.2662  0.5830  0.8397
   92SOL     hw  367   5.745   1.284   1.399  0.1214  0.5881 -2.0051
   92SOL     vw  368   5.708   1.205   1.390  0.2654  0.3186 -0.5542
   93SOL     ow  369   5.313   2.530   1.644  0.5809 -0.0024  1.1152
   93SOL     hw  370   5.378   2.594   1.616 -1.0740  1.1041 -0.4362
   93SOL     hw  371   5.337   2.449   1.600  0.6069  0.5478  0.0945
   93SOL     vw  372   5.324   2.528   1.635  0.3660  0.2161  0.7758
   94SOL     ow  373   0.049   6.534   3.139 -0.5786 -0.0347 -0.4811
   94SOL     hw  374   0.083   6.599   3.200 -1.6621 -0.2646  0.3993
   94SOL     hw  375   0.056   6.451   3.185 -1.1014 -0.2512 -0.7777
   94SOL     vw  376   0.054   6.532   3.153 -0.7905 -0.0937 -0.4040
   95SOL     ow  377   5.081   5.481   6.630  0.1613 -0.0924 -0.6779
   95SOL     hw  378   5.054   5.572   6.638  2.9717  0.7899 -0.2135
   95SOL     hw  379   5.177   5.484   6.628  0.3346 -2.9855 -1.4356
   95SOL     vw  380   5.090   5.493   6.631  0.5548 -0.3579 -0.7164
   96SOL     ow  381   2.732   2.392   0.466 -0.0571  0.3390 -0.2011
   96SOL     hw  382   2.701   2.444   0.540  1.0758 -0.7654  1.1182
   96SOL     hw  383   2.686   2.427   0.391 -2.3484  0.5911  1.2214
   96SOL     vw  384   2.722   2.404   0.466 -0.2099  0.2266  0.1606
   97SOL     ow  385   1.356   4.527   2.832  0.5038  0.1909 -0.7381
   97SOL     hw  386   1.300   4.603   2.845 -0.6276 -0.4906 -1.5052
   97SOL     hw  387   1.335   4.468   2.905 -0.9456 -0.7292 -1.8514
   97SOL     vw  388   1.346   4.529   2.843  0.1633 -0.0205 -0.9861
   98SOL     ow  389   3.615   4.253   3.451  0.0392 -0.1122 -0.1486
   98SOL     hw  390   3.592   4.294   3.368  0.8376 -0.9251 -0.8054
   98SOL     hw  391   3.709   4.234   3.442  0.0685 -0.4682  0.8279
   98SOL     vw  392   3.625   4.256   3.439  0.1484 -0.2663 -0.1063
   99SOL     ow  393   2.380   1.171   2.539  0.6859  0.4750 -0.4205
   99SOL     hw  394   2.342   1.091   2.574 -2.0494  1.7381 -0.1671
   99SOL     hw  395   2.465   1.179   2.581  1.2129 -2.4479 -0.7699
   99SOL     vw  396   2.386   1.162   2.549  0.3945  0.2560 -0.4333
  100SOL     ow  397   5.511   2.179   5.610 -0.4155  0.9011 -0.4321
  100SOL     hw  398   5.538   2.148   5.523 -1.9332  0.4755 -0.7716
  100SOL     hw  399   5.497   2.098   5.660 -0.6129  1.1273 -0.1213
  100SOL     vw  400   5.513   2.164   5.605 -0.6421  0.8748 -0.4361
  101SOL     ow  401   5.758   5.953   4.713 -0.7567  0.2789 -0.3780
  101SOL     hw  402   5.831   5.896   4.737 -1.0010 -0.2830 -0.9546
  101SOL     hw  403   5.796   6.018   4.655 -0.6216  0.2707 -0.2979
  101SOL     vw  404   5.773   5.954   4.708 -0.7710  0.2036 -0.4435
  102SOL     ow  405   4.854   1.198   1.122  0.4294 -0.2733 -0.2703
  102SOL     hw  406   4.912   1.275   1.125 -0.5733  0.5316 -0.7406
  102SOL     hw  407   4.772   1.229   1.160  0.5604 -1.6519  1.1888
  102SOL     vw  408   4.851   1.212   1.127  0.3145 -0.3489 -0.1398
  103SOL     ow  409   6.787   1.816   6.158 -0.5942 -0.7145 -0.5922
  103SOL     hw  410   6.741   1.899   6.171 -0.8073 -0.8032 -0.7785
  103SOL     hw  411   6.875   1.841   6.131 -0.4490 -0.5397  0.0212
  103SOL     vw  412   6.793   1.830   6.156 -0.6030 -0.7031 -0.5360
  104SOL     ow  413   5.834   1.086   3.346 -0.1222 -0.7131  0.0239
  104SOL     hw  414   5.906   1.063   3.287  0.9333  0.0376  0.9707
  104SOL     hw  415   5.875   1.089   3.433 -0.9383  1.2390  0.3865
  104SOL     vw  416   5.849   1.083   3.350 -0.0906 -0.3565  0.1967
  105SOL     ow  417   4.469   3.283   2.024 -0.2039 -0.0081  0.1413
  105SOL     hw  418   4.418   3.323   1.953  0.7050  1.5147  0.3050
  105SOL     hw  419   4.499   3.357   2.077  2.7340 -0.7222 -0.3312
  105SOL     vw  420   4.466   3.298   2.021  0.3037  0.0986  0.1006
  106SOL     ow  421   5.110   0.462   3.352 -0.3540  0.1410  0.1727
  106SOL     hw  422   5.169   0.395   3.319  0.9418  1.9029 -1.3275
  106SOL     hw  423   5.095   0.520   3.277 -3.5412  0.1276  0.6637
  106SOL     vw  424   5.116   0.461   3.338 -0.6037  0.3717  0.0393
  107SOL     ow  425   3.622   1.927   1.838 -0.7820  0.1274 -0.0934
  107SOL     hw  426   3.594   1.976   1.916  0.5656  1.9277 -0.6670
  107SOL     hw  427   3.549   1.869   1.819 -2.1238  1.3105  1.1658
  107SOL     vw  428   3.609   1.926   1.846 -0.7812  0.5210 -0.0030
  108SOL     ow  429   2.579   2.147   0.483 -0.1180  0.2022  0.3871
  108SOL     hw  430   2.572   2.162   0.577  2.2058  0.2802  0.6093
  108SOL     hw  431   2.548   2.058   0.470  0.4237 -0.1468  1.3832
  108SOL     vw  432   2.574   2.137   0.494  0.2600  0.1667  0.5478
  109SOL     ow  433   1.063   3.305   0.114 -0.0667  0.2098  0.2148
  109SOL     hw  434   1.093   3.252   0.188 -0.1914 -1.3174 -0.7744
  109SOL     hw  435   1.143   3.330   0.068  0.0894  2.0337  1.3759
  109SOL     vw  436   1.077   3.301   0.118 -0.0625  0.2490  0.2374
  110SOL     ow  437   0.459   4.507   5.137  0.1969  0.2527 -0.4166
  110SOL     hw  438   0.521   4.443   5.104  0.9385  1.4961 -1.5480
  110SOL     hw  439   0.511   4.568   5.188 -0.4530  0.1548  0.3970
  110SOL     vw  440   0.474   4.507   5.139  0.2090  0.4036 -0.4585
  111SOL     ow  441   2.150   2.683   6.356 -0.2513  0.3557  0.0762
  111SOL     hw  442   2.245   2.692   6.370 -0.6790  1.5021  2.9355
  111SOL     hw  443   2.120   2.774   6.345 -1.2568  0.1838  1.2865
  111SOL     vw  444   2.159   2.696   6.356 -0.4404  0.4843  0.6130
  112SOL     ow  445   1.466   4.568   5.411  0.4956 -0.2568 -1.3793
  112SOL     hw  446   1.375   4.568   5.439  0.5392 -2.3695 -1.0974
  112SOL     hw  447   1.515   4.599   5.487  0.1301 -0.4908 -1.0488
  112SOL     vw  448   1.461   4.573   5.424  0.4531 -0.5667 -1.2984
  113SOL     ow  449   6.031   0.158   0.071  0.5521  0.2535 -0.6930
  113SOL     hw  450   6.009   0.162   0.165  1.2509  0.1021 -0.5225
  113SOL     hw  451   6.126   0.159   0.068  0.6189 -2.2181 -1.2816
  113SOL     vw  452   6.040   0.159   0.083  0.6533 -0.0926 -0.7482
  114SOL     ow  453   1.350   2.073   0.022 -0.1991 -0.1150  0.5997
  114SOL     hw  454   1.340   2.089   0.116 -0.2581  1.8769  0.2978
  114SOL     hw  455   1.280   2.124  -0.019  1.4584  1.2665 -0.6442
  114SOL     vw  456   1.340   2.082   0.029  0.0117  0.3300  0.3957
  115SOL     ow  457   3.426   5.927   4.645 -0.1197  0.7043 -0.0717
  115SOL     hw  458   3.441   5.836   4.617 -0.0461  1.3639 -2.4064
  115SOL     hw  459   3.331   5.938   4.640 -0.0470  1.0607 -0.9975
  115SOL     vw  460   3.415   5.916   4.641 -0.1004  0.8383 -0.5019
  116SOL     ow  461   4.696   1.337   2.594 -0.3053 -0.4683  0.6609
  116SOL     hw  462   4.723   1.380   2.513 -1.6175 -0.1398  0.3754
  116SOL     hw  463   4.643   1.263   2.566 -2.3311  0.7053  1.2004
  116SOL     vw  464   4.693   1.333   2.580 -0.7455 -0.2702  0.6944
  117SOL     ow  465   5.958   2.228   1.020 -0.0273  0.0355 -0.5698
  117SOL     hw  466   6.000   2.244   1.105  1.4491 -2.1836 -0.8062
  117SOL     hw  467   5.917   2.312   0.998 -1.0975  0.4814  2.6270
  117SOL     vw  468   5.958   2.241   1.028  0.0262 -0.1986 -0.1792
  118SOL     ow  469   0.306   4.661   2.663  0.3813 -0.7594 -0.0277
  118SOL     hw  470   0.211   4.662   2.674  0.3576  1.0756 -0.1297
  118SOL     hw  471   0.340   4.691   2.747  0.7093  1.4179 -0.8792
  118SOL     vw  472   0.298   4.665   2.676  0.4214 -0.2301 -0.1535
  119SOL     ow  473   3.038   3.394   6.054 -0.9086  0.1302 -0.4870
  119SOL     hw  474   2.993   3.386   5.970 -1.5431 -1.4241 -0.0470
  119SOL     hw  475   3.018   3.312   6.099 -0.0636  0.6691  0.9320
  119SOL     vw  476   3.029   3.382   6.049 -0.8808 -0.0038 -0.2420
  120SOL     ow  477   1.974   3.967   4.644  0.1869 -0.3129  0.5282
  120SOL     hw  478   2.061   3.954   4.607  0.1554  0.2015  0.2645
  120SOL     hw  479   1.987   3.963   4.739  1.0004  2.5858  0.6330
  120SOL     vw  480   1.987   3.964   4.652  0.2901  0.1374  0.5074
  121SOL     ow  481   4.645   1.757   0.482  0.0769  0.1804 -0.0362
  121SOL     hw  482   4.607   1.696   0.419  2.0964 -2.9490  1.5372
  121SOL     hw  483   4.729   1.782   0.443  1.1366 -1.4289  1.0940
  121SOL     vw  484   4.651   1.752   0.468  0.4833 -0.4448  0.3206
  122SOL     ow  485   2.174   1.045   5.170 -0.1476  0.6790  0.7029
  122SOL     hw  486   2.121   1.019   5.095  0.8213  0.9527 -0.0996
  122SOL     hw  487   2.134   1.000   5.245  0.1110 -1.2649 -0.2827
  122SOL     vw  488   2.162   1.036   5.170  0.0144  0.4587  0.4668
  123SOL     ow  489   4.712   4.387   0.494  0.2365 -0.3891 -0.3290
  123SOL     hw  490   4.620   4.366   0.510  0.0380  0.4147 -0.3750
  123SOL     hw  491   4.753   4.377   0.580  0.0563 -0.4733 -0.2499
  123SOL     vw  492   4.705   4.383   0.508  0.1864 -0.2942 -0.3246
  124SOL     ow  493   1.674   6.369   4.185  0.5693  0.0463 -0.3760
  124SOL     hw  494   1.754   6.356   4.135  1.2984  0.1663  0.7331
  124SOL     hw  495   1.611   6.310   4.145  0.8085  0.9170 -2.1120
  124SOL     vw  496   1.676   6.359   4.174  0.6970  0.1771 -0.4587
  125SOL     ow  497   0.727   3.939   4.809 -0.5564 -0.6761 -0.1955
  125SOL     hw  498   0.776   4.021   4.796 -1.1664 -0.0684  1.1151
  125SOL     hw  499   0.668   3.934   4.734 -0.6968  0.2406 -0.1638
  125SOL     vw  500   0.726   3.949   4.798 -0.6554 -0.4750 -0.0184
  126SOL     ow  501   0.221   0.832   0.633 -0.1981  0.1158  0.1966
  126SOL     hw  502   0.183   0.750   0.604  0.6480 -0.1728 -0.1292
  126SOL     hw  503   0.250   0.876   0.553 -1.6332  1.2563  0.2609
  126SOL     vw  504   0.220   0.827   0.619 -0.2758  0.2282  0.1622
  127SOL     ow  505   6.245   1.057   2.635  0.5294  0.0842  0.1788
  127SOL     hw  506   6.266   1.133   2.689  1.2157  0.7002 -0.9132
  127SOL     hw  507   6.171   1.016   2.679 -0.3323  1.8021  0.4130
  127SOL     vw  508   6.238   1.062   2.648  0.5064  0.3922  0.0654
  128SOL     ow  509   0.706   6.182   2.122 -0.0082 -0.6378  0.5341
  128SOL     hw  510   0.753   6.120   2.067  0.1073  2.3261 -3.0638
  128SOL     hw  511   0.764   6.197   2.196  0.9448 -2.9878  0.3642
  128SOL     vw  512   0.720   6.176   2.125  0.1328 -0.5567  0.0368
  129SOL     ow  513   2.984   2.269   4.516 -0.1010 -0.2248 -0.3383
  129SOL     hw  514   2.993   2.299   4.426  0.0242 -0.5982 -0.4503
  129SOL     hw  515   3.051   2.319   4.565  1.7468 -1.9994 -0.9296
  129SOL     vw  516   2.994   2.280   4.511  0.1593 -0.5083 -0.4311
  130SOL     ow  517   4.318   6.311   5.128  0.0400  0.1474  0.1258
  130SOL     hw  518   4.245   6.339   5.074  0.2587  1.5913  0.5462
  130SOL     hw  519   4.286   6.233   5.174 -0.0971 -1.2201 -2.1472
  130SOL     vw  520   4.304   6.304   5.127  0.0508  0.1574 -0.1185
  131SOL     ow  521   4.223   6.363   3.159  0.8957  0.1876 -0.3116
  131SOL     hw  522   4.223   6.437   3.220 -1.1639  0.1343 -0.1910
  131SOL     hw  523   4.252   6.289   3.211 -0.9154  0.1288  0.6566
  131SOL     vw  524   4.227   6.363   3.174  0.3850  0.1726 -0.1678
  132SOL     ow  525   0.319   5.873   2.770 -0.2726 -0.2017  0.1261
  132SOL     hw  526   0.379   5.908   2.836  1.0559  0.3952 -1.3494
  132SOL     hw  527   0.352   5.785   2.752 -0.2433 -0.1243 -0.2051
  132SOL     vw  528   0.331   5.866   2.777 -0.0935 -0.1125 -0.1123
  133SOL     ow  529   6.368   2.944   1.531  0.8944 -0.4896 -0.0706
  133SOL     hw  530   6.301   2.885   1.564  1.4646  0.3643  2.9399
  133SOL     hw  531   6.319   3.017   1.493  0.1644 -1.2393 -0.5904
  133SOL     vw  532   6.353   2.946   1.530  0.8733 -0.4758  0.2580
  134SOL     ow  533   0.997   5.936   1.490 -0.1673  0.5799  0.3058
  134SOL     hw  534   0.942   5.973   1.421 -1.3067  1.1155  1.4373
  134SOL     hw  535   1.032   6.012   1.536 -1.5820  0.3232  1.9302
  134SOL     vw  536   0.994   5.951   1.487 -0.5043  0.6168  0.6694
  135SOL     ow  537   2.407   2.796   4.304 -0.1876 -0.1509  0.1289
  135SOL     hw  538   2.412   2.820   4.212 -1.0553 -1.4457 -0.2837
  135SOL     hw  539   2.498   2.790   4.333  0.0795  1.1951 -0.3650
  135SOL     vw  540   2.419   2.798   4.296 -0.2668 -0.1441  0.0095
  136SOL     ow  541   5.241   1.267   6.177  0.7711  0.8289 -0.0523
  136SOL     hw  542   5.195   1.248   6.259  0.1174  0.7110 -0.4361
  136SOL     hw  543   5.315   1.207   6.176  0.6362  0.6528  0.3329
  136SOL     vw  544   5.245   1.257   6.188  0.6671  0.7901 -0.0522
  137SOL     ow  545   4.875   5.817   5.098 -0.1521  0.8334 -0.4158
  137SOL     hw  546   4.946   5.757   5.075 -0.7612 -0.5653  1.1462
  137SOL     hw  547   4.918   5.887   5.148  0.2713  0.5455 -0.3725
  137SOL     vw  548   4.890   5.818   5.102 -0.1762  0.6108 -0.2041
  138SOL     ow  549   3.426   2.520   1.174  0.7751 -0.1677  0.0252
  138SOL     hw  550   3.449   2.541   1.264  1.1235 -2.5998  0.5782
  138SOL     hw  551   3.501   2.548   1.123  0.6906  0.9832  0.5199
  138SOL     vw  552   3.439   2.526   1.179  0.8099 -0.3365  0.1634
  139SOL     ow  553   1.796   5.245   4.419 -0.3378  0.5139  0.0672
  139SOL     hw  554   1.762   5.258   4.508  0.4677  1.6567  0.2326
  139SOL     hw  555   1.810   5.151   4.412  3.1602  0.6483  2.5626
  139SOL     vw  556   1.793   5.234   4.430  0.2300  0.6821  0.4182
  140SOL     ow  557   0.588   0.564   3.509  0.2223  0.0233 -0.2482
  140SOL     hw  558   0.614   0.556   3.417  1.1196  0.5151 -0.0494
  140SOL     hw  559   0.648   0.629   3.545 -0.4323  0.1829  0.5729
  140SOL     vw  560   0.600   0.571   3.502  0.2544  0.1092 -0.1136
  141SOL     ow  561   5.050   1.087   0.900  0.7820 -0.3846  0.4867
  141SOL     hw  562   5.050   1.000   0.862 -2.9378  0.1411 -1.2120
  141SOL     hw  563   5.117   1.135   0.851  0.4641 -1.4005 -1.0106
  141SOL     vw  564   5.059   1.082   0.889  0.2491 -0.4492  0.0650
  142SOL     ow  565   2.643   1.536   1.203 -0.3082  0.5952  0.5456
  142SOL     hw  566   2.635   1.441   1.206  1.8693  0.3488  0.0797
  142SOL     hw  567   2.737   1.553   1.200 -0.5623  2.5997 -3.5283
  142SOL     vw  568   2.654   1.526   1.203 -0.0545  0.8271 -0.0534
  143SOL     ow  569   3.780   0.149   2.195  0.1577 -0.0477  0.3063
  143SOL     hw  570   3.703   0.173   2.246  0.0715 -1.3819  0.8366
  143SOL     hw  571   3.803   0.061   2.226  1.6585  0.1709 -0.1154
  143SOL     vw  572   3.773   0.140   2.206  0.3443 -0.1949  0.3208
  144SOL     ow  573   2.361   5.609   2.557  0.4233  0.6548  0.1231
  144SOL     hw  574   2.420   5.648   2.493 -0.2280  0.5505 -0.5573
  144SOL     hw  575   2.276   5.606   2.513  0.7952 -3.4249 -0.6606
  144SOL     vw  576   2.357   5.614   2.543  0.3864  0.1028 -0.0700
  145SOL     ow  577   1.666   0.494   5.541 -0.4787 -0.1246  0.3569
  145SOL     hw  578   1.618   0.466   5.619 -0.0825  0.5691  0.8615
  145SOL     hw  579   1.747   0.532   5.575  0.0930 -0.5976 -0.4475
  145SOL     vw  580   1.670   0.496   5.556 -0.3511 -0.0955  0.3173
  146SOL     ow  581   0.316   5.612   0.679  0.4941  0.0774 -0.7314
  146SOL     hw  582   0.384   5.668   0.643  2.7048 -0.6965  1.8606
  146SOL     hw  583   0.365   5.539   0.720 -1.9577 -1.0978  0.2929
  146SOL     vw  584   0.332   5.609   0.680  0.4623 -0.1800 -0.2542
  147SOL     ow  585   5.958   2.185   2.568 -0.0730 -0.2509 -0.2600
  147SOL     hw  586   5.876   2.230   2.551 -1.4320 -1.6572  2.0336
  147SOL     hw  587   5.948   2.100   2.524  0.2283 -0.3380 -0.1625
  147SOL     vw  588   5.946   2.179   2.560 -0.2127 -0.4481  0.0557
  148SOL     ow  589   4.825   2.748   0.632 -0.4050  0.1086 -0.4195
  148SOL     hw  590   4.742   2.733   0.587 -1.5326  0.2890  1.5046
  148SOL     hw  591   4.825   2.686   0.704  1.2810 -0.0583 -0.5107
  148SOL     vw  592   4.814   2.738   0.635 -0.3312  0.1103 -0.1777
  149SOL     ow  593   5.328   1.914   4.847 -0.2825  0.6696 -0.6254
  149SOL     hw  594   5.374   1.849   4.795  0.7194  0.1876  0.8194
  149SOL     hw  595   5.252   1.938   4.793  1.1702  0.8678 -2.6952
  149SOL     vw  596   5.324   1.909   4.833  0.0415  0.6321 -0.7079
  150SOL     ow  597   1.840   5.315   1.713  0.1837  0.0559  0.4206
  150SOL     hw  598   1.759   5.266   1.697  0.4096 -0.7966  1.6840
  150SOL     hw  599   1.873   5.279   1.796  1.3363  1.0832  0.4307
  150SOL     vw  600   1.834   5.303   1.722  0.3656  0.0792  0.5886
  151SOL     ow  601   5.216   6.095   3.912  0.1655  0.3473 -0.2512
  151SOL     hw  602   5.284   6.033   3.888  0.5569  0.1097  1.3928
  151SOL     hw  603   5.135   6.044   3.913  0.1774  0.3118 -0.7993
  151SOL     vw  604   5.214   6.080   3.909  0.2184  0.3114 -0.1065
  152SOL     ow  605   2.330   3.526   3.096 -0.0077 -0.9060 -0.0533
  152SOL     hw  606   2.372   3.610   3.077 -2.2171  0.6824  1.6060
  152SOL     hw  607   2.236   3.543   3.082 -0.5009 -3.1514  0.2038
  152SOL     vw  608   2.323   3.539   3.091 -0.3643 -0.9927  0.1994
  153SOL     ow  609   5.672   0.715   5.544 -0.3295  0.0665  0.5441
  153SOL     hw  610   5.612   0.770   5.595  0.8338  0.2573  1.7707
  153SOL     hw  611   5.749   0.771   5.531 -0.7441  0.1698 -1.8304
  153SOL     vw  612   5.674   0.730   5.549 -0.2308  0.1053  0.3929
  154SOL     ow  613   1.560   3.906   6.343  0.5726 -0.2077 -0.3063
  154SOL     hw  614   1.534   3.983   6.291 -0.9026 -0.1978  0.3912
  154SOL     hw  615   1.494   3.840   6.321 -0.1272 -0.1775  1.5721
  154SOL     vw  616   1.547   3.908   6.333  0.2857 -0.2024  0.0334
  155SOL     ow  617   5.424   1.358   5.359  0.2811  0.0872 -0.0081
  155SOL     hw  618   5.514   1.327   5.371  0.3077  0.1553 -0.0339
  155SOL     hw  619   5.415   1.430   5.422  1.3908  2.4960 -2.4175
  155SOL     vw  620   5.434   1.364   5.369  0.4311  0.4140 -0.3293
  156SOL     ow  621   2.739   3.281   5.020  0.2574 -0.2301  0.1425
  156SOL     hw  622   2.748   3.200   4.971 -0.3165 -0.1997 -0.0166
  156SOL     hw  623   2.654   3.274   5.063 -0.1870  0.6465 -0.5540
  156SOL     vw  624   2.729   3.270   5.019  0.1231 -0.1106  0.0293
  157SOL     ow  625   0.363   4.571   1.863 -0.8202  0.1886 -0.1030
  157SOL     hw  626   0.423   4.500   1.885  0.6134  0.3702 -2.8622
  157SOL     hw  627   0.396   4.646   1.911  0.5890  0.0352 -0.7791
  157SOL     vw  628   0.375   4.571   1.872 -0.4452  0.1924 -0.5562
  158SOL     ow  629   4.386   6.557   1.037  0.1663 -0.4043  0.1109
  158SOL     hw  630   4.443   6.628   1.008 -0.7141 -0.0862 -0.9228
  158SOL     hw  631   4.419   6.479   0.994  0.9890 -0.5992  1.0590
  158SOL     vw  632   4.398   6.556   1.028  0.1588 -0.3881  0.0996
  159SOL     ow  633   6.782   4.884   6.010 -0.9074  0.2032  0.1977
  159SOL     hw  634   6.839   4.907   6.083 -2.4575  1.0437  1.2187
  159SOL     hw  635   6.753   4.795   6.029 -0.8137  0.1916  0.2829
  159SOL     vw  636   6.785   4.875   6.022 -1.0995  0.3126  0.3436
  160SOL     ow  637   1.358   3.106   4.756 -0.0087 -0.1162 -0.7016
  160SOL     hw  638   1.290   3.069   4.701  0.3142 -2.5670  0.4198
  160SOL     hw  639   1.439   3.061   4.730  0.8998  1.5197 -0.8671
  160SOL     vw  640   1.360   3.095   4.746  0.1537 -0.2236 -0.5755
  161SOL     ow  641   4.967   4.128   2.033  0.2351  0.1017  0.0541
  161SOL     hw  642   4.928   4.088   1.956 -0.3144 -0.5490  0.6580
  161SOL     hw  643   5.021   4.199   1.999  1.2533 -1.1577 -1.0584
  161SOL     vw  644   4.969   4.132   2.019  0.2971 -0.1504 -0.0129
  162SOL     ow  645   4.031   4.316   5.020 -0.4072 -0.1121  0.1159
  162SOL     hw  646   4.028   4.396   4.967 -0.5997  1.1399  1.9445
  162SOL     hw  647   4.100   4.332   5.084  0.2859 -1.8695 -0.1332
  162SOL     vw  648   4.040   4.329   5.021 -0.3409 -0.1788  0.3245
  163SOL     ow  649   2.787   1.844   1.804  0.0512 -0.4989 -0.7049
  163SOL     hw  650   2.720   1.896   1.848 -1.3900 -1.3991 -1.7442
  163SOL     hw  651   2.753   1.754   1.806  1.5154 -1.0918 -0.7438
  163SOL     vw  652   2.774   1.839   1.810  0.0541 -0.6959 -0.8472
  164SOL     ow  653   4.363   1.878   6.421 -0.0334 -0.1842 -0.3795
  164SOL     hw  654   4.305   1.805   6.442  1.2037 -0.8553  0.7853
  164SOL     hw  655   4.399   1.906   6.505  0.8737  0.6102 -1.0108
  164SOL     vw  656   4.360   1.872   6.435  0.2496 -0.1679 -0.3092
  165SOL     ow  657   1.417   1.057   4.477 -0.3443 -0.2123  0.1628
  165SOL     hw  658   1.391   0.995   4.408 -2.3850  0.4596  0.2532
  165SOL     hw  659   1.435   1.002   4.553 -1.0590 -0.7707 -0.0633
  165SOL     vw  660   1.416   1.041   4.478 -0.7078 -0.1974  0.1447
  166SOL     ow  661   3.060   1.730   1.681  0.1508  0.4396  0.6050
  166SOL     hw  662   3.063   1.640   1.713  1.5941  0.5961  0.9729
  166SOL     hw  663   3.075   1.722   1.587 -1.3511  0.1955  0.3570
  166SOL     vw  664   3.063   1.717   1.673  0.1432  0.4280  0.6208
  167SOL     ow  665   4.765   1.040   3.566 -0.1691  0.4180 -0.2577
  167SOL     hw  666   4.776   1.035   3.661  0.2512  0.0296 -0.3237
  167SOL     hw  667   4.670   1.042   3.554 -0.2957  4.2670  0.3351
  167SOL     vw  668   4.754   1.039   3.577 -0.1304  0.8745 -0.1881
  168SOL     ow  669   4.039   6.776   6.623  0.2634  0.1007  0.5420
  168SOL     hw  670   3.962   6.833   6.611  0.2413  0.0441  0.4127
  168SOL     hw  671   4.105   6.814   6.566  0.4241  0.3172  0.8692
  168SOL     vw  672   4.037   6.789   6.614  0.2816  0.1218  0.5679
  169SOL     ow  673   1.577   3.859   1.801  0.1511  0.3610  0.0212
  169SOL     hw  674   1.642   3.929   1.796  1.0027 -0.4148 -0.0222
  169SOL     hw  675   1.623   3.786   1.842 -0.1462 -0.8100 -1.6162
  169SOL     vw  676   1.591   3.859   1.806  0.2242  0.1041 -0.2006
  170SOL     ow  677   1.202   3.212   5.886 -0.0351 -0.2176  0.0064
  170SOL     hw  678   1.169   3.213   5.976  0.5195 -0.3870  0.2156
  170SOL     hw  679   1.274   3.149   5.888  0.6596  0.5515 -0.3103
  170SOL     vw  680   1.208   3.204   5.898  0.1297 -0.1384 -0.0076
  171SOL     ow  681   4.764   2.464   6.706  0.2282 -0.0923 -0.1444
  171SOL     hw  682   4.696   2.505   6.653 -1.1074 -1.0880  0.7292
  171SOL     hw  683   4.794   2.390   6.654 -0.4779 -0.5694  0.1182
  171SOL     vw  684   4.759   2.460   6.692 -0.0415 -0.2866  0.0055
  172SOL     ow  685   1.915   6.637   0.291  0.3670  0.5925 -0.4181
  172SOL     hw  686   1.864   6.607   0.216 -0.2597  0.1386  0.1786
  172SOL     hw  687   1.989   6.684   0.252  0.7900 -0.7871 -1.3443
  172SOL     vw  688   1.918   6.639   0.276  0.3401  0.3510 -0.4616
  173SOL     ow  689   4.959   3.962   0.034  0.0344 -0.6589  0.4701
  173SOL     hw  690   5.034   4.017   0.059 -0.2805 -0.3863  0.8251
  173SOL     hw  691   4.985   3.923  -0.050 -0.0851  0.7228 -0.2440
  173SOL     vw  692   4.972   3.965   0.026 -0.0229 -0.4407  0.4228
  174SOL     ow  693   0.913   6.559   2.824  0.1496  0.4245 -0.1717
  174SOL     hw  694   0.961   6.480   2.801 -1.5514 -0.8350  0.3925
  174SOL     hw  695   0.845   6.567   2.757  1.2485  2.3426 -1.1353
  174SOL     vw  696   0.910   6.550   2.812  0.0702  0.5114 -0.2244
  175SOL     ow  697   5.840   1.439   1.895 -0.0656  0.2540  0.1311
  175SOL     hw  698   5.793   1.474   1.970  0.2524  0.9465  0.0136
  175SOL     hw  699   5.785   1.461   1.820 -0.7391 -1.0666  0.2110
  175SOL     vw  700   5.827   1.446   1.895 -0.1125  0.1712  0.1262
  176SOL     ow  701   6.122   1.630   5.672 -0.0824 -0.3447 -0.3492
  176SOL     hw  702   6.063   1.654   5.743  0.4831 -0.8979  0.3161
  176SOL     hw  703   6.195   1.691   5.679  1.4848 -2.3012  1.5064
  176SOL     vw  704   6.124   1.641   5.682  0.1988 -0.6759 -0.0165
  177SOL     ow  705   5.017   2.797   2.062  0.2446 -0.2088  0.7266
  177SOL     hw  706   5.104   2.757   2.059  0.4868  0.2836  1.0163
  177SOL     hw  707   4.957   2.723   2.074  0.2359 -1.0172 -2.9770
  177SOL     vw  708   5.020   2.782   2.063  0.2754 -0.2505  0.2762
  178SOL     ow  709   1.466   0.466   5.283 -0.1638  0.1497 -0.1163
  178SOL     hw  710   1.481   0.486   5.190  1.2972  1.6725  0.3960
  178SOL     hw  711   1.465   0.370   5.287 -0.4763  0.0555 -1.7238
  178SOL     vw  712   1.468   0.456   5.271 -0.0123  0.3382 -0.2608
  179SOL     ow  713   3.827   1.047   1.564  0.0979  0.3012 -0.2269
  179SOL     hw  714   3.816   0.975   1.627 -2.6628  1.8523  1.2425
  179SOL     hw  715   3.772   1.022   1.490 -0.3991  0.5958  0.0355
  179SOL     vw  716   3.819   1.034   1.563 -0.3319  0.5447  0.0017
  180SOL     ow  717   0.603   3.719   6.711 -0.2654 -0.5809  0.3920
  180SOL     hw  718   0.542   3.660   6.755 -1.0839 -0.5129 -0.6076
  180SOL     hw  719   0.587   3.705   6.618  2.0128 -1.3364  0.0663
  180SOL     vw  720   0.593   3.710   6.704 -0.0728 -0.6716  0.2170
  181SOL     ow  721   6.649   3.932   2.136 -0.0410 -0.6788  0.0651
  181SOL     hw  722   6.702   4.011   2.144  1.4723 -1.5704 -0.6513
  181SOL     hw  723   6.604   3.941   2.053 -1.1375  0.1309  0.7234
  181SOL     vw  724   6.650   3.943   2.126  0.0138 -0.6897  0.0573
  182SOL     ow  725   3.225   2.746   0.446  0.1066 -0.1696 -0.1733
  182SOL     hw  726   3.302   2.705   0.406  0.0372  0.0076 -0.4919
  182SOL     hw  727   3.204   2.690   0.520  0.0793 -0.6469 -0.5386
  182SOL     vw  728   3.233   2.733   0.450  0.0938 -0.2091 -0.2635
  183SOL     ow  729   4.255   2.969   4.169  0.1364  0.2316  0.2896
  183SOL     hw  730   4.172   2.996   4.208 -0.0472 -0.1138  0.1310
  183SOL     hw  731   4.237   2.885   4.128  0.5549  0.1742  0.2206
  183SOL     vw  732   4.242   2.962   4.169  0.1674  0.1783  0.2594
  184SOL     ow  733   4.189   0.912   5.170 -0.2763 -0.4652  0.6321
  184SOL     hw  734   4.241   0.843   5.210  2.6732  0.8001 -0.6390
  184SOL     hw  735   4.182   0.980   5.238  1.9316  0.3296  0.1730
  184SOL     vw  736   4.195   0.912   5.184  0.4039 -0.1934  0.4036
  185SOL     ow  737   1.760   6.408   1.621 -0.2672 -0.2593  0.5339
  185SOL     hw  738   1.767   6.353   1.699 -1.2945 -0.9316  0.1802
  185SOL     hw  739   1.686   6.466   1.640 -2.8733 -2.7091 -1.1952
  185SOL     vw  740   1.751   6.408   1.634 -0.7466 -0.6711  0.2591
  186SOL     ow  741   2.095   5.255   0.299 -0.1375 -0.2330 -0.8370
  186SOL     hw  742   2.126   5.295   0.380  0.9396  0.4226 -1.5612
  186SOL     hw  743   2.173   5.246   0.245 -0.8541 -0.6304 -1.8326
  186SOL     vw  744   2.109   5.259   0.303 -0.0900 -0.1991 -1.0639
  187SOL     ow  745   1.793   6.573   4.349  0.1910 -0.7893 -0.0030
  187SOL     hw  746   1.751   6.639   4.294  0.6776 -0.0250  0.5201
  187SOL     hw  747   1.798   6.613   4.436  1.9789 -0.8368 -0.0426
  187SOL     vw  748   1.788   6.587   4.353  0.4911 -0.6948  0.0606
  188SOL     ow  749   3.865   0.690   3.278 -0.3592 -0.4177 -0.2390
  188SOL     hw  750   3.821   0.679   3.194 -1.0108  0.5559 -0.0560
  188SOL     hw  751   3.956   0.708   3.256 -1.1477  3.7197 -1.0653
  188SOL     vw  752   3.871   0.691   3.264 -0.5492  0.2566 -0.3239
  189SOL     ow  753   4.301   0.919   6.532 -0.4491 -0.4217  0.3219
  189SOL     hw  754   4.219   0.873   6.515 -0.1266  0.0612 -3.2294
  189SOL     hw  755   4.366   0.873   6.480  1.2900  0.0669  1.9510
  189SOL     vw  756   4.299   0.907   6.523 -0.1774 -0.2935  0.0682
  190SOL     ow  757   1.154   3.281   4.935 -0.1903  0.1679 -0.3909
  190SOL     hw  758   1.131   3.333   5.012  0.2767  1.9313 -1.3699
  190SOL     hw  759   1.070   3.260   4.894 -0.5321 -1.8589  1.1933
  190SOL     vw  760   1.140   3.285   4.940 -0.1738  0.1332 -0.3109
  191SOL     ow  761   1.712   1.887   1.246  0.1118 -0.1911  0.2179
  191SOL     hw  762   1.753   1.885   1.159  1.2626  1.3658  0.6591
  191SOL     hw  763   1.786   1.878   1.306 -0.2997  1.4425  1.0301
  191SOL     vw  764   1.727   1.886   1.242  0.2093  0.2299  0.3833
  192SOL     ow  765   6.032   1.592   6.565  0.3034 -0.5704  0.0093
  192SOL     hw  766   6.100   1.606   6.631 -0.4576  0.9420  0.5139
  192SOL     hw  767   6.042   1.500   6.540  1.4929 -0.8073  1.2242
  192SOL     vw  768   6.042   1.582   6.570  0.3598 -0.4021  0.2363
  193SOL     ow  769   2.697   2.398   4.564  0.1649 -0.2708  0.2682
  193SOL     hw  770   2.721   2.482   4.604  0.1339  0.2659 -0.8032
  193SOL     hw  771   2.698   2.415   4.470  2.3144 -2.0331 -0.1235
  193SOL     vw  772   2.700   2.411   4.557  0.4443 -0.4325  0.0753
  194SOL     ow  773   3.771   5.972   2.251 -0.0436  0.2694  0.0323
  194SOL     hw  774   3.732   5.909   2.191 -0.3395  1.2821 -0.8783
  194SOL     hw  775   3.801   6.044   2.194 -1.1591  1.6855  1.1565
  194SOL     vw  776   3.770   5.973   2.235 -0.2297  0.5901  0.0603
  195SOL     ow  777   3.728   3.945   1.283 -0.2205 -0.3438 -0.3810
  195SOL     hw  778   3.642   3.906   1.266 -0.2942  0.3949 -1.7865
  195SOL     hw  779   3.716   4.038   1.270  1.3464 -0.4342 -3.2479
  195SOL     vw  780   3.715   3.952   1.279 -0.0234 -0.2582 -0.9447
  196SOL     ow  781   1.630   0.407   1.372 -0.6963 -0.1110 -0.2224
  196SOL     hw  782   1.561   0.343   1.389 -1.3183  0.0808 -1.8523
  196SOL     hw  783   1.589   0.472   1.315  0.8653 -0.1134 -1.4285
  196SOL     vw  784   1.615   0.407   1.367 -0.5724 -0.0860 -0.5966
  197SOL     ow  785   2.865   0.130   5.734 -0.2292 -0.5827 -0.4320
  197SOL     hw  786   2.950   0.119   5.691  0.0016 -1.4941  0.2378
  197SOL     hw  787   2.882   0.188   5.808  0.0792 -1.7258  0.4214
  197SOL     vw  788   2.878   0.136   5.738 -0.1581 -0.8538 -0.2310
  198SOL     ow  789   3.140   2.615   1.071 -0.1913 -0.1560  0.2992
  198SOL     hw  790   3.045   2.616   1.088  0.2993 -0.5410  3.6082
  198SOL     hw  791   3.169   2.703   1.095  0.1579  0.5359 -2.3303
  198SOL     vw  792   3.131   2.627   1.076 -0.0806 -0.1154  0.3887
  199SOL     ow  793   4.524   0.924   6.172 -0.4897 -0.0547  0.3660
  199SOL     hw  794   4.520   0.871   6.251  0.1456 -1.3562 -0.4422
  199SOL     hw  795   4.446   0.900   6.123 -1.0935  1.0486  0.7574
  199SOL     vw  796   4.513   0.914   6.176 -0.4854 -0.0808  0.3109
  200SOL     ow  797   3.947   5.213   6.052  0.0539 -0.8061 -0.2443
  200SOL     hw  798   3.986   5.231   5.967 -0.5401 -0.2767 -0.4172
  200SOL     hw  799   3.890   5.288   6.069  0.7946 -0.4912  1.0129
  200SOL     vw  800   3.944   5.225   6.043  0.0733 -0.6950 -0.1013
  201SOL     ow  801   2.125   1.173   3.303 -0.3316 -0.0835  0.7320
  201SOL     hw  802   2.089   1.256   3.333 -2.0834 -0.2952 -0.6448
  201SOL     hw  803   2.111   1.112   3.375  0.9347  0.7519  1.7386
  201SOL     vw  804   2.119   1.176   3.317 -0.3957 -0.0013  0.6832
  202SOL     ow  805   3.813   0.147   2.991  0.1983 -0.9759  0.4661
  202SOL     hw  806   3.729   0.192   2.995  0.3884 -0.5029 -0.5111
  202SOL     hw  807   3.860   0.176   3.069 -0.5118 -1.2037  0.9910
  202SOL     vw  808   3.808   0.157   3.002  0.1297 -0.9436  0.4066
  203SOL     ow  809   1.648   1.714   6.077  0.3974 -0.4358 -0.1102
  203SOL     hw  810   1.675   1.649   6.012 -0.9753 -1.1571  0.0138
  203SOL     hw  811   1.725   1.771   6.087  0.8018 -0.5903 -2.0028
  203SOL     vw  812   1.662   1.713   6.070  0.2696 -0.5513 -0.3438
  204SOL     ow  813   6.106   2.955   0.008  0.4543  0.3191 -0.3244
  204SOL     hw  814   6.137   3.018   0.073  0.1284  0.6085 -0.4461
  204SOL     hw  815   6.184   2.906  -0.017  0.2095 -1.4589  2.0701
  204SOL     vw  816   6.121   2.957   0.013  0.3791  0.1225 -0.0245
  205SOL     ow  817   3.158   4.759   1.679 -0.0259  0.5667  0.2749
  205SOL     hw  818   3.244   4.791   1.707 -0.7799  1.5119  1.6262
  205SOL     hw  819   3.126   4.706   1.752 -0.0415 -0.9358 -0.7722
  205SOL     vw  820   3.165   4.756   1.692 -0.1276  0.4930  0.3150
  206SOL     ow  821   0.011   2.592   3.794  0.2590  0.2361 -0.0222
  206SOL     hw  822   0.012   2.628   3.883 -0.5465  1.5643 -0.5117
  206SOL     hw  823  -0.042   2.654   3.744  0.0643 -0.8913 -1.2685
  206SOL     vw  824   0.004   2.605   3.799  0.1270  0.2626 -0.2511
  207SOL     ow  825   2.590   0.032   4.464 -0.3062 -0.2311  0.0678
  207SOL     hw  826   2.574  -0.061   4.446 -0.7395 -0.2632  0.5960
  207SOL     hw  827   2.661   0.056   4.405 -0.8283 -0.6606 -0.7450
  207SOL     vw  828   2.597   0.023   4.454 -0.4323 -0.2920  0.0303
  208SOL     ow  829   0.538   0.937   5.670 -0.1093  0.2041  0.2707
  208SOL     hw  830   0.512   0.845   5.671  3.2754 -0.8995 -0.5239
  208SOL     hw  831   0.560   0.957   5.761 -0.0910 -0.0444  0.3216
  208SOL     vw  832   0.538   0.928   5.682  0.3397  0.0257  0.1726
  209SOL     ow  833   1.079   6.648   1.769  0.5690  0.5783 -0.4352
  209SOL     hw  834   1.154   6.633   1.712  0.6959  0.6716 -0.2941
  209SOL     hw  835   1.090   6.585   1.841 -0.2912 -0.4611 -1.1852
  209SOL     vw  836   1.090   6.637   1.771  0.4722  0.4535 -0.5155
  210SOL     ow  837   4.799   0.174   0.785  0.0140 -0.1122  0.1242
  210SOL     hw  838   4.867   0.116   0.820  0.2410  1.1705  1.8804
  210SOL     hw  839   4.757   0.212   0.862 -0.7452  1.3571 -0.9678
  210SOL     vw  840   4.803   0.171   0.799 -0.0563  0.2509  0.2118
  211SOL     ow  841   1.943   4.632   4.726  0.0137  0.6774  0.5785
  211SOL     hw  842   1.909   4.543   4.728 -0.0957  0.7262  1.1923
  211SOL     hw  843   1.894   4.675   4.656 -1.0882  0.7000  1.3254
  211SOL     vw  844   1.932   4.626   4.717 -0.1461  0.6866  0.7579
  212SOL     ow  845   2.547   2.845   1.565 -0.1491  0.0773  0.0118
  212SOL     hw  846   2.492   2.837   1.642 -1.4756 -1.1856 -1.0128
  212SOL     hw  847   2.615   2.779   1.577 -1.9012 -2.0515 -1.0628
  212SOL     vw  848   2.549   2.835   1.576 -0.5553 -0.3701 -0.2652
  213SOL     ow  849   4.888   4.735   3.093  0.0900 -0.3267 -0.0237
  213SOL     hw  850   4.913   4.822   3.061 -3.2125  0.8560  0.2271
  213SOL     hw  851   4.933   4.727   3.177  0.9332  0.8892 -0.3261
  213SOL     vw  852   4.897   4.746   3.100 -0.2346 -0.0100 -0.0304
  214SOL     ow  853   4.380   5.447   1.083  0.1284  0.5097  0.1685
  214SOL     hw  854   4.337   5.461   0.999  3.3044  0.6105 -1.5967
  214SOL     hw  855   4.405   5.355   1.083  0.5975  0.6245  0.7752
  214SOL     vw  856   4.378   5.437   1.072  0.6092  0.5379  0.0157
  215SOL     ow  857   4.831   1.693   1.648  0.0294 -0.3263  0.0962
  215SOL     hw  858   4.784   1.771   1.618 -0.2578 -1.8757 -4.2264
  215SOL     hw  859   4.776   1.619   1.621  0.4078 -2.2172  3.7866
  215SOL     vw  860   4.818   1.694   1.640  0.0415 -0.7802  0.0128
  216SOL     ow  861   6.375   0.685   5.802 -0.1726  0.2491  0.0312
  216SOL     hw  862   6.460   0.659   5.766  0.5379  1.4511  0.7691
  216SOL     hw  863   6.383   0.780   5.818 -1.7005  0.4154 -0.0187
  216SOL     vw  864   6.388   0.694   5.800 -0.2804  0.4296  0.1221
  217SOL     ow  865   0.391   6.064   2.139  0.1376 -0.5073 -0.0959
  217SOL     hw  866   0.344   5.988   2.103  1.3956 -2.7211  2.5136
  217SOL     hw  867   0.324   6.113   2.187 -0.3697 -1.0696 -0.2121
  217SOL     vw  868   0.376   6.060   2.141  0.2366 -0.8738  0.2331
  218SOL     ow  869   0.532   4.766   2.526 -0.0393 -0.9978 -0.2123
  218SOL     hw  870   0.553   4.810   2.443  0.5103 -1.8098 -0.5206
  218SOL     hw  871   0.616   4.756   2.570 -0.2734 -0.9701  0.2429
  218SOL     vw  872   0.546   4.771   2.521  0.0023 -1.1015 -0.1930
  219SOL     ow  873   4.806   6.401   1.789 -0.1136  0.1329  0.1899
  219SOL     hw  874   4.711   6.403   1.796 -0.0979  0.5400  0.3157
  219SOL     hw  875   4.833   6.327   1.843 -0.2554  0.9318  1.3828
  219SOL     vw  876   4.797   6.392   1.797 -0.1304  0.2921  0.3639
  220SOL     ow  877   3.017   5.291   4.138  0.2657  0.0273  0.1497
  220SOL     hw  878   3.025   5.366   4.198  0.9299 -1.0995  1.5266
  220SOL     hw  879   2.928   5.260   4.152  0.6324 -0.6519  1.1174
  220SOL     vw  880   3.007   5.297   4.148  0.4016 -0.2108  0.4592
  221SOL     ow  881   2.931   4.581   1.502 -0.0770  0.4289 -0.4490
  221SOL     hw  882   2.841   4.603   1.477 -0.6015 -1.1848 -0.0746
  221SOL     hw  883   2.922   4.521   1.576  1.3031  0.1766 -0.4602
  221SOL     vw  884   2.917   4.576   1.508  0.0359  0.1829 -0.4012
  222SOL     ow  885   2.311   0.555   2.218  0.4618 -0.6506  0.4795
  222SOL     hw  886   2.325   0.607   2.297  3.2032  0.1253 -0.4183
  222SOL     hw  887   2.304   0.619   2.148 -2.7811 -1.2781  0.0493
  222SOL     vw  888   2.312   0.570   2.219  0.3957 -0.6310  0.3045
  223SOL     ow  889   1.484   4.586   5.044  0.1258  0.1395 -0.3571
  223SOL     hw  890   1.419   4.637   4.995 -0.1294  0.4316  0.2708
  223SOL     hw  891   1.447   4.497   5.047  0.5872 -0.1119 -1.4792
  223SOL     vw  892   1.470   4.581   5.038  0.1531  0.1450 -0.4220
  224SOL     ow  893   3.459   3.682   1.766 -0.3660  1.1027  0.3456
  224SOL     hw  894   3.389   3.660   1.704 -0.2535  0.7787  0.3286
  224SOL     hw  895   3.444   3.774   1.788 -0.4677  1.1900 -0.0813
  224SOL     vw  896   3.448   3.691   1.761 -0.3647  1.0713  0.2870
  225SOL     ow  897   6.528   4.513   6.512 -0.0935  0.1069  0.0576
  225SOL     hw  898   6.591   4.470   6.570 -1.0944 -0.0124  1.0863
  225SOL     hw  899   6.576   4.524   6.429  1.8364  1.5665  1.2930
  225SOL     vw  900   6.543   4.509   6.509  0.0288  0.2837  0.3564
  226SOL     ow  901   6.568   4.130   3.183  0.5050  0.4510  0.5006
  226SOL     hw  902   6.518   4.156   3.260 -1.2278 -0.0269 -0.4144
  226SOL     hw  903   6.503   4.092   3.124  1.7254  1.1285 -1.3530
  226SOL     vw  904   6.553   4.128   3.185  0.4373  0.4776  0.1354
  227SOL     ow  905   0.632   3.341   5.942 -0.4785 -0.0096 -0.1824
  227SOL     hw  906   0.638   3.246   5.951  1.0879  0.1401  0.7875
  227SOL     hw  907   0.554   3.356   5.888  0.3762 -1.9268 -2.0707
  227SOL     vw  908   0.622   3.331   5.936 -0.1591 -0.2428 -0.3035
  228SOL     ow  909   0.991   0.347   4.151 -0.4033 -0.0521  0.1751
  228SOL     hw  910   0.904   0.387   4.153 -0.9909 -1.2944  0.7647
  228SOL     hw  911   0.978   0.260   4.190  0.8920 -0.6622 -0.6858
  228SOL     vw  912   0.978   0.340   4.156 -0.3099 -0.2965  0.1392
  229SOL     ow  913   6.761   0.822   6.640  0.3886  0.3422  0.1129
  229SOL     hw  914   6.709   0.794   6.715  0.1475  1.6252  0.4515
  229SOL     hw  915   6.852   0.802   6.664  0.0935 -1.9688 -0.5049
  229SOL     vw  916   6.766   0.816   6.653  0.3178  0.2066  0.0763
  230SOL     ow  917   3.083   4.647   6.421 -0.8509 -0.2304 -0.2295
  230SOL     hw  918   3.102   4.735   6.453 -1.5541 -0.2364  0.2377
  230SOL     hw  919   3.092   4.591   6.499 -1.0509 -0.4740 -0.3804
  230SOL     vw  920   3.086   4.651   6.436 -0.9700 -0.2632 -0.1876
  231SOL     ow  921   4.847   4.150   5.613  0.1828 -0.0899 -0.4520
  231SOL     hw  922   4.895   4.109   5.541  1.1661  0.8320 -0.3577
  231SOL     hw  923   4.916   4.185   5.670 -0.5278  2.7623 -1.1872
  231SOL     vw  924   4.863   4.150   5.611  0.2186  0.4084 -0.5364
  232SOL     ow  925   0.399   2.432   1.494  0.0608  0.3109  0.4989
  232SOL     hw  926   0.485   2.393   1.511  0.2529  0.9117  0.9556
  232SOL     hw  927   0.416   2.496   1.425 -0.5391 -1.4476 -1.3738
  232SOL     vw  928   0.413   2.436   1.487  0.0070  0.1583  0.3120
  233SOL     ow  929   4.451   5.527   1.398 -0.0881  0.0312 -0.4986
  233SOL     hw  930   4.397   5.587   1.449  1.2206 -0.4969  1.6539
  233SOL     hw  931   4.463   5.451   1.455  1.7119 -0.4758 -1.4615
  233SOL     vw  932   4.445   5.525   1.412  0.3221 -0.1054 -0.3417
  234SOL     ow  933   2.000   1.371   0.685 -0.2428  0.5789 -0.5341
  234SOL     hw  934   2.006   1.277   0.701  0.0260  0.2290 -2.3868
  234SOL     hw  935   1.929   1.380   0.621  1.1562  1.3455 -2.0775
  234SOL     vw  936   1.992   1.360   0.679 -0.0228  0.6339 -0.9822
  235SOL     ow  937   6.515   3.549   5.963 -1.0524 -0.1639 -0.4404
  235SOL     hw  938   6.492   3.625   5.910  0.4714  0.2334 -0.5759
  235SOL     hw  939   6.555   3.488   5.901 -2.1555 -1.0452 -0.3091
  235SOL     vw  940   6.517   3.551   5.948 -0.9968 -0.2277 -0.4411
  236SOL     ow  941   2.386   0.238   2.144 -0.2372 -0.0054 -0.5649
  236SOL     hw  942   2.473   0.265   2.175 -0.4143 -2.0385  2.0409
  236SOL     hw  943   2.403   0.159   2.093 -0.5171 -0.1474 -0.4363
  236SOL     vw  944   2.400   0.231   2.141 -0.2974 -0.2923 -0.2041
  237SOL     ow  945   1.724   3.295   0.452  0.0028 -0.2104  0.0980
  237SOL     hw  946   1.817   3.292   0.472  0.2171 -1.7313 -0.9422
  237SOL     hw  947   1.712   3.377   0.404  0.4871  0.7555  1.5669
  237SOL     vw  948   1.734   3.305   0.448  0.0950 -0.2836  0.1546
  238SOL     ow  949   6.451   4.226   1.528 -0.2666  0.3316  0.6549
  238SOL     hw  950   6.524   4.173   1.495  0.0899  0.9624  0.4302
  238SOL     hw  951   6.413   4.172   1.598  1.8380  0.9099  2.3713
  238SOL     vw  952   6.456   4.212   1.533  0.0582  0.4911  0.8517
  239SOL     ow  953   1.516   6.059   4.738 -0.7602  0.1010  0.6597
  239SOL     hw  954   1.602   6.042   4.698 -0.3039  1.0320  1.1947
  239SOL     hw  955   1.537   6.104   4.820 -1.7810  0.7776  0.5597
  239SOL     vw  956   1.530   6.063   4.743 -0.8346  0.3135  0.7174
  240SOL     ow  957   6.740   5.424   4.920 -0.2005  0.4082 -0.7190
  240SOL     hw  958   6.649   5.433   4.893 -0.5703  1.6800  0.7663
  240SOL     hw  959   6.778   5.510   4.903  0.8852 -0.2665 -1.8213
  240SOL     vw  960   6.733   5.437   4.914 -0.1056  0.4869 -0.6683
  241SOL     ow  961   5.377   1.142   5.124  0.0461  0.4351  0.3489
  241SOL     hw  962   5.453   1.174   5.076 -0.2315 -0.2495 -0.5687
  241SOL     hw  963   5.400   1.053   5.150 -0.6423  0.0047 -0.4482
  241SOL     vw  964   5.390   1.135   5.121 -0.0815  0.2880  0.1225
  242SOL     ow  965   2.665   1.807   3.479  0.0342  0.3195 -0.2974
  242SOL     hw  966   2.650   1.760   3.396  0.1200 -2.0816  0.9705
  242SOL     hw  967   2.734   1.870   3.459  0.0602 -0.2152 -2.0485
  242SOL     vw  968   2.672   1.809   3.465  0.0490 -0.0678 -0.3612
  243SOL     ow  969   1.491   5.351   6.239 -0.6173 -0.3030 -0.3097
  243SOL     hw  970   1.487   5.334   6.145 -0.1521 -0.0285 -0.3836
  243SOL     hw  971   1.430   5.423   6.253 -0.8430 -0.4830 -0.3662
  243SOL     vw  972   1.482   5.358   6.229 -0.5856 -0.2904 -0.3271
  244SOL     ow  973   6.512   1.986   1.786  0.5086  0.0810 -0.0330
  244SOL     hw  974   6.589   2.031   1.818  1.3717 -1.0605 -0.4195
  244SOL     hw  975   6.546   1.908   1.742 -0.7619  0.2605 -1.4587
  244SOL     vw  976   6.526   1.981   1.784  0.4549 -0.0459 -0.2722
  245SOL     ow  977   6.572   5.789   5.655  0.0467 -0.4072  0.1056
  245SOL     hw  978   6.586   5.753   5.743 -1.0144 -0.1912  0.3829
  245SOL     hw  979   6.648   5.844   5.638 -0.0758  0.1247  1.1974
  245SOL     vw  980   6.584   5.791   5.664 -0.1094 -0.3085  0.2861
  246SOL     ow  981   3.196   2.180   6.377  0.5987 -0.3156  0.1473
  246SOL     hw  982   3.254   2.152   6.306 -1.8695 -0.3579 -1.9899
  246SOL     hw  983   3.150   2.101   6.403 -0.9997  0.2940 -0.6880
  246SOL     vw  984   3.197   2.166   6.371  0.0621 -0.2407 -0.2451
  247SOL     ow  985   4.816   1.461   6.667 -0.0861 -0.5183  0.1757
  247SOL     hw  986   4.800   1.529   6.601  1.8946  1.6203  1.7379
  247SOL     hw  987   4.846   1.386   6.617  0.6746  0.7973 -1.4544
  247SOL     vw  988   4.817   1.460   6.652  0.2756 -0.0625  0.1667
  248SOL     ow  989   0.669   5.857   3.991  0.2957  0.0760  0.2486
  248SOL     hw  990   0.711   5.864   3.906  3.4624  0.2268  1.6699
  248SOL     hw  991   0.719   5.790   4.037  0.3065  1.6749  2.7792
  248SOL     vw  992   0.681   5.849   3.986  0.7149  0.3064  0.7700
  249SOL     ow  993   2.730   4.098   4.378  0.6560  0.1870 -0.0782
  249SOL     hw  994   2.761   4.188   4.385 -1.4526  0.8663  1.6634
  249SOL     hw  995   2.636   4.106   4.367  0.1946 -1.7883  1.8198
  249SOL     vw  996   2.722   4.111   4.378  0.3169  0.0162  0.4020
  250SOL     ow  997   4.702   1.015   5.297 -0.3263  0.1770  0.2669
  250SOL     hw  998   4.713   1.103   5.334  1.3753  0.7738 -1.4654
  250SOL     hw  999   4.730   0.956   5.368  1.2119  1.1937  0.5698
  250SOL     vw 1000   4.707   1.019   5.311  0.1013  0.3899  0.0782
  251SOL     ow 1001   3.469   5.318   5.197 -0.0147  0.0344 -0.8025
  251SOL     hw 1002   3.386   5.334   5.152  0.6089  1.7652 -1.4100
  251SOL     hw 1003   3.533   5.314   5.126  0.6464  0.3733 -0.2341
  251SOL     vw 1004   3.466   5.319   5.181  0.1547  0.3078 -0.8078
  252SOL     ow 1005   3.979   4.559   5.947  0.0100  0.2625 -0.2600
  252SOL     hw 1006   3.954   4.570   6.038  0.5921 -1.5539  0.1728
  252SOL     hw 1007   4.074   4.562   5.947  0.0640 -0.9289 -0.5997
  252SOL     vw 1008   3.988   4.561   5.959  0.0941 -0.1345 -0.2477
  253SOL     ow 1009   2.848   0.731   2.022 -0.0964 -0.5435  0.4373
  253SOL     hw 1010   2.905   0.690   2.086  0.1572  0.6648  1.0096
  253SOL     hw 1011   2.876   0.694   1.938  0.4263 -1.1780  0.8793
  253SOL     vw 1012   2.859   0.721   2.019  0.0061 -0.4678  0.5713
  254SOL     ow 1013   6.254   6.407   6.078 -0.2084  0.1991 -0.4259
  254SOL     hw 1014   6.333   6.358   6.055 -0.1602  0.8545 -1.7649
  254SOL     hw 1015   6.249   6.401   6.173  2.2558  1.3601 -0.1413
  254SOL     vw 1016   6.264   6.400   6.087  0.1228  0.4387 -0.5648
  255SOL     ow 1017   1.483   0.945   0.313 -0.0705 -0.4685 -0.3491
  255SOL     hw 1018   1.501   1.039   0.322  0.9997 -0.7108  0.1749
  255SOL     hw 1019   1.468   0.933   0.219 -2.0189  0.5054 -0.2280
  255SOL     vw 1020   1.483   0.956   0.302 -0.1863 -0.3719 -0.2640
  256SOL     ow 1021   1.293   3.349   6.768 -0.0636 -0.0130 -0.0582
  256SOL     hw 1022   1.318   3.264   6.731  3.0856  0.5457  0.5474
  256SOL     hw 1023   1.319   3.413   6.702 -0.8844  0.6078  0.2009
  256SOL     vw 1024   1.300   3.346   6.754  0.2435  0.1426  0.0560
  257SOL     ow 1025   0.208   6.335   6.000 -0.1111  0.4383 -0.3842
  257SOL     hw 1026   0.218   6.370   6.088 -1.4752  3.8913 -1.4381
  257SOL     hw 1027   0.177   6.246   6.013  0.5118  0.5594  2.5779
  257SOL     vw 1028   0.205   6.328   6.013 -0.2089  0.9100 -0.1326
  258SOL     ow 1029   3.842   0.975   2.135  0.3852 -0.2890 -0.2939
  258SOL     hw 1030   3.827   0.906   2.070  0.9579 -0.2677 -0.4477
  258SOL     hw 1031   3.929   0.957   2.171 -0.0413 -0.4817  0.6924
  258SOL     vw 1032   3.851   0.963   2.131  0.4045 -0.3116 -0.1842
  259SOL     ow 1033   6.053   5.877   2.953 -0.1761  0.6664 -0.6300
  259SOL     hw 1034   6.038   5.786   2.980  2.5012 -0.4452 -2.4039
  259SOL     hw 1035   6.105   5.914   3.023 -1.5458  1.0019  0.2544
  259SOL     vw 1036   6.058   5.870   2.966 -0.0038  0.5639 -0.7473
  260SOL     ow 1037   3.519   6.784   6.191 -0.1735 -0.2149 -0.0369
  260SOL     hw 1038   3.449   6.842   6.222  0.8117  0.6016  0.7192
  260SOL     hw 1039   3.485   6.748   6.109 -1.7303 -0.3272  0.6213
  260SOL     vw 1040   3.505   6.787   6.184 -0.2490 -0.1218  0.1497
  261SOL     ow 1041   3.054   5.348   6.320 -0.0604  0.0051 -0.0526
  261SOL     hw 1042   3.041   5.443   6.324 -0.9352 -0.0869 -0.3376
  261SOL     hw 1043   3.012   5.315   6.399  2.5784  0.0355  1.4852
  261SOL     vw 1044   3.047   5.356   6.331  0.1724 -0.0029  0.1130
  262SOL     ow 1045   0.450   3.642   2.346  0.2490  0.6113  0.4141
  262SOL     hw 1046   0.525   3.616   2.294  1.4448  3.6328  0.4364
  262SOL     hw 1047   0.387   3.572   2.334  2.1538 -0.8947 -1.5220
  262SOL     vw 1048   0.451   3.630   2.338  0.6581  0.8112  0.1618
  263SOL     ow 1049   0.252   4.395   0.208 -0.2425 -0.3485 -0.3788
  263SOL     hw 1050   0.300   4.465   0.252  1.0548 -1.6452  0.3553
  263SOL     hw 1051   0.306   4.373   0.132 -0.4487 -0.7816 -0.4035
  263SOL     vw 1052   0.266   4.401   0.204 -0.0986 -0.5763 -0.2852
  264SOL     ow 1053   2.586   4.477   2.651 -0.6298 -0.0310 -0.0518
  264SOL     hw 1054   2.657   4.527   2.611  0.6620 -2.6501 -1.3066
  264SOL     hw 1055   2.572   4.519   2.736  0.7333  2.0308 -0.7739
  264SOL     vw 1056   2.594   4.489   2.657 -0.2794 -0.1042 -0.3126
  265SOL     ow 1057   5.351   4.002   5.738  0.2391  1.0759 -0.4842
  265SOL     hw 1058   5.274   4.039   5.782  0.1999 -0.2761  0.6397
  265SOL     hw 1059   5.349   3.909   5.761  0.0754  0.1994 -3.5598
  265SOL     vw 1060   5.340   3.995   5.746  0.2122  0.7820 -0.7417
  266SOL     ow 1061   2.472   0.194   4.714  0.5525 -0.1153 -0.2123
  266SOL     hw 1062   2.537   0.155   4.773 -0.5444 -0.4603  0.8320
  266SOL     hw 1063   2.402   0.224   4.773 -1.0574 -1.3550 -1.3869
  266SOL     vw 1064   2.471   0.192   4.730  0.1955 -0.3244 -0.2294
  267SOL     ow 1065   3.895   0.026   5.121  0.8423 -0.3087  0.1628
  267SOL     hw 1066   3.917   0.032   5.028 -2.7685  0.5044 -0.7748
  267SOL     hw 1067   3.827  -0.041   5.126  0.0035  0.5971  1.9962
  267SOL     vw 1068   3.889   0.018   5.110  0.2552 -0.0819  0.2811
  268SOL     ow 1069   6.250   1.849   1.826 -0.4984 -0.5219 -0.1475
  268SOL     hw 1070   6.279   1.771   1.780  1.8301  0.2321 -0.0934
  268SOL     hw 1071   6.198   1.897   1.762 -0.6809 -1.4011 -0.6646
  268SOL     vw 1072   6.247   1.845   1.812 -0.2148 -0.5384 -0.2086
  269SOL     ow 1073   2.135   3.376   1.309  0.1895 -0.0899  0.9218
  269SOL     hw 1074   2.209   3.426   1.346  0.8644 -1.0207  0.8533
  269SOL     hw 1075   2.161   3.356   1.220 -0.8991  1.0439  0.3143
  269SOL     vw 1076   2.148   3.380   1.302  0.1349 -0.0631  0.8326
  270SOL     ow 1077   6.274   1.533   4.412  0.1334  0.3879 -0.3251
  270SOL     hw 1078   6.340   1.564   4.474 -0.2077 -2.7821  1.8446
  270SOL     hw 1079   6.293   1.440   4.401 -1.3091  0.3341 -3.2165
  270SOL     vw 1080   6.285   1.525   4.419 -0.1018 -0.0374 -0.4203
  271SOL     ow 1081   5.870   6.227   0.233  0.3057 -0.6840  0.3170
  271SOL     hw 1082   5.870   6.138   0.199  0.3883 -0.5718  0.0210
  271SOL     hw 1083   5.795   6.230   0.293  0.6341 -1.1127  0.7528
  271SOL     vw 1084   5.860   6.216   0.237  0.3598 -0.7257  0.3355
  272SOL     ow 1085   5.063   2.670   2.921  0.0185  0.0049  0.4495
  272SOL     hw 1086   5.028   2.681   3.010 -0.7905  0.1483  0.1242
  272SOL     hw 1087   4.996   2.708   2.865  0.5463 -0.0494 -0.2267
  272SOL     vw 1088   5.050   2.677   2.925 -0.0186  0.0167  0.3173
  273SOL     ow 1089   4.861   5.056   4.332 -0.0299 -0.9447  0.0278
  273SOL     hw 1090   4.858   4.986   4.398 -1.5308  0.5564  1.6929
  273SOL     hw 1091   4.770   5.068   4.305  0.4454 -0.8708 -1.6406
  273SOL     vw 1092   4.849   5.049   4.337 -0.1652 -0.7370  0.0274
  274SOL     ow 1093   5.471   4.907   6.775 -0.1685  0.1194  0.3889
  274SOL     hw 1094   5.490   4.841   6.709 -0.1245  0.2639  0.2574
  274SOL     hw 1095   5.526   4.981   6.751  1.5587 -0.6061  1.8529
  274SOL     vw 1096   5.481   4.908   6.763  0.0651  0.0424  0.5648
  275SOL     ow 1097   4.805   0.133   2.193 -0.0548 -0.1901  0.2368
  275SOL     hw 1098   4.898   0.145   2.210 -0.3795 -0.5758  2.5056
  275SOL     hw 1099   4.799   0.131   2.097  2.4116 -1.4571  0.0297
  275SOL     vw 1100   4.816   0.135   2.182  0.2279 -0.4082  0.5088
  276SOL     ow 1101   2.766   5.214   1.104 -0.1021 -0.2103  0.1612
  276SOL     hw 1102   2.762   5.133   1.054  0.1673  1.1672 -2.2593
  276SOL     hw 1103   2.860   5.232   1.112 -0.1511  0.9858 -1.4022
  276SOL     vw 1104   2.778   5.206   1.098 -0.0730  0.1292 -0.3645
  277SOL     ow 1105   2.081   5.637   3.879 -0.1852  0.3256  0.1253
  277SOL     hw 1106   2.008   5.695   3.903 -2.0859 -2.4010  1.5993
  277SOL     hw 1107   2.058   5.605   3.792  1.0857  2.0184 -0.8738
  277SOL     vw 1108   2.068   5.640   3.871 -0.2682  0.1891  0.1879
  278SOL     ow 1109   5.503   6.061   4.656  0.2414 -0.1480 -0.0412
  278SOL     hw 1110   5.515   6.027   4.567  2.0200  1.6913 -0.5731
  278SOL     hw 1111   5.472   6.150   4.643 -0.7484 -0.2936  1.2325
  278SOL     vw 1112   5.501   6.068   4.642  0.3455  0.0756  0.0567
  279SOL     ow 1113   2.328   3.393   6.271 -0.3356  0.2699 -0.0459
  279SOL     hw 1114   2.292   3.309   6.243 -1.3548  0.5767  0.3085
  279SOL     hw 1115   2.330   3.446   6.191 -2.1034  0.7448  0.1974
  279SOL     vw 1116   2.324   3.389   6.257 -0.7033  0.3729  0.0329
  280SOL     ow 1117   1.567   3.342   4.452 -0.2708  0.1980  0.1884
  280SOL     hw 1118   1.516   3.420   4.434  0.1682  0.7705  1.2867
  280SOL     hw 1119   1.581   3.301   4.367 -0.9379  1.0459 -0.3365
  280SOL     vw 1120   1.562   3.346   4.439 -0.3009  0.3854  0.2642
  281SOL     ow 1121   3.414   4.989   5.229  0.5758  0.0129 -0.6433
  281SOL     hw 1122   3.459   4.927   5.285 -1.6530 -1.1021  0.0179
  281SOL     hw 1123   3.364   4.935   5.167 -0.5410  1.1220 -0.7724
  281SOL     vw 1124   3.413   4.974   5.228  0.1343  0.0122 -0.5732
  282SOL     ow 1125   5.996   6.693   3.925  0.2272  0.5160  0.3861
  282SOL     hw 1126   6.020   6.740   3.845 -1.8800  2.2432  0.6560
  282SOL     hw 1127   5.967   6.762   3.985  0.1265 -0.8935  2.0341
  282SOL     vw 1128   5.995   6.708   3.922 -0.0644  0.5579  0.6391
  283SOL     ow 1129   6.229   1.929   0.007  0.2981 -0.6642  0.2885
  283SOL     hw 1130   6.139   1.899   0.018 -0.1745  0.2425 -0.8682
  283SOL     hw 1131   6.283   1.853   0.027 -0.6806 -1.0136  1.7536
  283SOL     vw 1132   6.224   1.915   0.011  0.1068 -0.5907  0.3292
  284SOL     ow 1133   6.187   1.312   5.580  0.4867  0.3606  0.4905
  284SOL     hw 1134   6.202   1.272   5.666 -0.2086  1.4524  1.1452
  284SOL     hw 1135   6.273   1.342   5.552  0.3724  2.2441  1.9908
  284SOL     vw 1136   6.200   1.310   5.588  0.3800  0.7532  0.7749
  285SOL     ow 1137   0.107   2.364   1.468  0.0002 -0.0081 -0.4731
  285SOL     hw 1138   0.064   2.279   1.476  1.9724 -1.1339 -1.2345
  285SOL     hw 1139   0.126   2.373   1.375  0.4654  0.9425 -0.3050
  285SOL     vw 1140   0.104   2.354   1.457  0.3218 -0.0311 -0.5513
  286SOL     ow 1141   2.038   3.723   2.724 -0.7859 -0.1583  0.2174
  286SOL     hw 1142   2.069   3.806   2.760  0.4047 -1.2224  1.7751
  286SOL     hw 1143   2.079   3.717   2.638  0.8632 -0.0883  0.9676
  286SOL     vw 1144   2.047   3.734   2.718 -0.4114 -0.2893  0.5219
  287SOL     ow 1145   2.998   4.407   6.230 -0.4967  0.6085 -0.4678
  287SOL     hw 1146   2.904   4.400   6.214 -0.4695 -0.9846 -0.1323
  287SOL     hw 1147   3.036   4.336   6.179  0.6209  1.6551 -1.1440
  287SOL     vw 1148   2.991   4.397   6.221 -0.3457  0.5362 -0.5131
  288SOL     ow 1149   2.648   3.565   4.871  0.2884  0.5042  0.6065
  288SOL     hw 1150   2.578   3.533   4.813  0.9352 -0.2948  0.2461
  288SOL     hw 1151   2.627   3.657   4.886 -2.9796 -0.4757  3.5464
  288SOL     vw 1152   2.636   3.573   4.865 -0.0573  0.2694  0.9468
  289SOL     ow 1153   5.681   6.714   3.228 -0.1422 -0.3757 -0.1957
  289SOL     hw 1154   5.726   6.739   3.309 -1.2164 -1.9451  0.9671
  289SOL     hw 1155   5.588   6.717   3.251 -0.4276 -1.8147 -1.0577
  289SOL     vw 1156   5.675   6.718   3.242 -0.3216 -0.7727 -0.1560
  290SOL     ow 1157   3.669   5.157   0.379  0.1633  0.2344 -0.1961
  290SOL     hw 1158   3.653   5.149   0.285  0.8117 -0.5685 -0.2536
  290SOL     hw 1159   3.710   5.074   0.403  2.0273  1.2739  0.3909
  290SOL     vw 1160   3.672   5.145   0.370  0.4947  0.2656 -0.1263
  291SOL     ow 1161   2.926   5.985   2.100  0.2308  0.3030  0.5858
  291SOL     hw 1162   3.016   5.952   2.088  0.5967  0.2104  3.0061
  291SOL     hw 1163   2.873   5.906   2.107 -0.1176  0.3586 -1.0569
  291SOL     vw 1164   2.931   5.970   2.100  0.2332  0.2983  0.6884
  292SOL     ow 1165   4.753   4.591   2.012  0.1938  0.4359 -0.3358
  292SOL     hw 1166   4.660   4.606   1.993  0.0951 -1.7804 -1.9250
  292SOL     hw 1167   4.753   4.557   2.102 -1.1492 -3.6037 -1.6305
  292SOL     vw 1168   4.741   4.589   2.022  0.0033 -0.3893 -0.7163
  293SOL     ow 1169   0.176   5.918   6.610  0.3706  0.4922  0.4929
  293SOL     hw 1170   0.085   5.898   6.586  0.6013  0.5432 -0.4566
  293SOL     hw 1171   0.227   5.895   6.532  1.0114  1.7752  0.5108
  293SOL     vw 1172   0.171   5.913   6.596  0.4856  0.6683  0.3703
  294SOL     ow 1173   5.532   5.692   3.192 -0.7188 -0.2067  0.2847
  294SOL     hw 1174   5.596   5.666   3.126 -0.4516 -0.5738  0.6823
  294SOL     hw 1175   5.459   5.632   3.181 -1.5096  0.9383 -0.9306
  294SOL     vw 1176   5.531   5.681   3.182 -0.7880 -0.1042  0.1768
  295SOL     ow 1177   0.385   3.026   2.316  0.6039  0.0614 -0.0029
  295SOL     hw 1178   0.430   3.053   2.396 -0.5110  0.1021  0.6345
  295SOL     hw 1179   0.355   2.937   2.334  0.7632 -0.1056 -0.5609
  295SOL     vw 1180   0.387   3.018   2.329  0.4778  0.0447  0.0074
  296SOL     ow 1181   2.607   6.321   6.583  0.5832  0.0897 -0.4691
  296SOL     hw 1182   2.641   6.401   6.624 -0.8126  0.3310  0.2935
  296SOL     hw 1183   2.523   6.347   6.546 -0.5312 -1.2973  0.9449
  296SOL     vw 1184   2.600   6.335   6.584  0.2520 -0.0615 -0.1822
  297SOL     ow 1185   0.842   1.411   0.639  0.0641  0.1285 -0.1451
  297SOL     hw 1186   0.777   1.405   0.568  0.3946 -2.4058 -0.3329
  297SOL     hw 1187   0.794   1.450   0.712 -1.6522 -1.3537 -0.3862
  297SOL     vw 1188   0.827   1.415   0.639 -0.1187 -0.4015 -0.2017
  298SOL     ow 1189   6.027   1.365   4.319 -0.7759 -0.5602 -0.1198
  298SOL     hw 1190   5.938   1.358   4.283 -1.0631 -0.0395  0.4701
  298SOL     hw 1191   6.028   1.301   4.390 -0.9708  0.0504  0.4410
  298SOL     vw 1192   6.015   1.355   4.324 -0.8395 -0.4110  0.0319
  299SOL     ow 1193   4.009   4.963   5.942  0.1484  0.4915 -0.1032
  299SOL     hw 1194   4.076   4.925   5.886  0.0520  1.4765 -0.9163
  299SOL     hw 1195   3.926   4.936   5.902  0.0779  0.7586 -0.1414
  299SOL     vw 1196   4.007   4.955   5.929  0.1264  0.6568 -0.2155
  300SOL     ow 1197   5.365   2.245   0.616 -0.0822 -0.0396  0.2781
  300SOL     hw 1198   5.323   2.170   0.659 -0.3659  0.2024  0.4223
  300SOL     hw 1199   5.433   2.205   0.561  1.4737 -0.2633  2.2729
  300SOL     vw 1200   5.368   2.230   0.614  0.0856 -0.0371  0.5603
  301SOL     ow 1201   5.990   4.573   3.204 -0.2234 -0.1808 -0.5875
  301SOL     hw 1202   6.016   4.629   3.131  1.1282 -0.1546 -0.1176
  301SOL     hw 1203   5.905   4.537   3.178 -0.7142  1.3923 -1.2753
  301SOL     vw 1204   5.982   4.576   3.191 -0.1094  0.0298 -0.6161
  302SOL     ow 1205   2.275   2.337   3.354 -0.2023 -0.0148 -0.1549
  302SOL     hw 1206   2.213   2.266   3.369  0.3474 -0.4195  0.2687
  302SOL     hw 1207   2.297   2.369   3.441  1.8006 -1.3066 -0.1189
  302SOL     vw 1208   2.270   2.332   3.367  0.1345 -0.2385 -0.0943
  303SOL     ow 1209   3.197   0.017   4.992  0.5598  0.6163 -0.3395
  303SOL     hw 1210   3.182   0.105   4.958  1.8363  0.3416 -1.7138
  303SOL     hw 1211   3.292   0.012   5.005  0.2348  0.5504  3.0125
  303SOL     vw 1212   3.207   0.028   4.990  0.6853  0.5713 -0.0784
  304SOL     ow 1213   3.041   2.742   3.432  0.2281 -0.3191 -0.4599
  304SOL     hw 1214   3.019   2.719   3.522 -2.2714  0.7447 -0.7169
  304SOL     hw 1215   3.073   2.660   3.394  2.5913 -0.5060  1.6466
  304SOL     vw 1216   3.043   2.728   3.439  0.2099 -0.2034 -0.2158
  305SOL     ow 1217   0.094   0.861   0.894  0.1106 -0.2066  0.0132
  305SOL     hw 1218   0.015   0.870   0.841  0.4329 -2.6105 -1.0499
  305SOL     hw 1219   0.079   0.783   0.947  1.3617 -0.1292  0.5252
  305SOL     vw 1220   0.082   0.852   0.894  0.3182 -0.5136 -0.0595
  306SOL     ow 1221   1.826   3.869   4.387 -0.3592  0.0902  0.1867
  306SOL     hw 1222   1.733   3.854   4.368 -0.4542 -0.9753  1.3905
  306SOL     hw 1223   1.870   3.856   4.303 -1.1182 -1.1776 -0.0384
  306SOL     vw 1224   1.819   3.865   4.373 -0.4718 -0.2177  0.3159
  307SOL     ow 1225   6.361   2.280   4.505 -0.2081  0.1527 -0.7757
  307SOL     hw 1226   6.395   2.236   4.427 -0.3017 -0.3423 -0.5458
  307SOL     hw 1227   6.335   2.367   4.475 -1.4213 -0.4615 -1.5948
  307SOL     vw 1228   6.362   2.285   4.491 -0.3808  0.0066 -0.8533
  308SOL     ow 1229   2.831   0.107   2.190  0.0235  0.2943  0.1667
  308SOL     hw 1230   2.781   0.168   2.135 -0.9376  0.5322  1.2690
  308SOL     hw 1231   2.846   0.154   2.271  1.7114  0.0616  0.0190
  308SOL     vw 1232   2.826   0.121   2.194  0.1196  0.2950  0.2925
  309SOL     ow 1233   5.618   0.502   3.119  0.8219  0.0481 -0.0603
  309SOL     hw 1234   5.639   0.553   3.196  0.7173  2.6253 -1.6086
  309SOL     hw 1235   5.534   0.537   3.089 -0.2071 -2.3442 -0.2213
  309SOL     vw 1236   5.610   0.513   3.125  0.6721  0.0725 -0.2857
  310SOL     ow 1237   2.946   1.363   5.939 -0.2670  0.0871 -0.7675
  310SOL     hw 1238   2.911   1.368   6.028 -0.7413  1.0304 -0.9945
  310SOL     hw 1239   2.929   1.274   5.911  1.7867 -0.9066  0.8361
  310SOL     vw 1240   2.939   1.352   5.947 -0.0587  0.0805 -0.5860
  311SOL     ow 1241   6.638   3.817   5.368 -0.7148  0.2984 -0.1276
  311SOL     hw 1242   6.707   3.750   5.376 -2.9567 -2.0854  0.5715
  311SOL     hw 1243   6.585   3.788   5.295 -1.0472  2.0731 -0.6291
  311SOL     vw 1244   6.640   3.804   5.360 -1.0545  0.2180 -0.1013
  312SOL     ow 1245   5.747   0.239   3.177  0.0565  0.1164 -0.3535
  312SOL     hw 1246   5.794   0.223   3.259  0.0092 -4.6803 -0.9505
  312SOL     hw 1247   5.660   0.204   3.192  0.5088 -2.3481 -2.7591
  312SOL     vw 1248   5.742   0.232   3.190  0.1097 -0.8416 -0.7497
  313SOL     ow 1249   1.199   4.870   4.873 -0.4261  0.5744  0.1811
  313SOL     hw 1250   1.207   4.844   4.965  0.5473 -0.8636 -0.2651
  313SOL     hw 1251   1.148   4.799   4.833  0.0033  0.6802 -0.5698
  313SOL     vw 1252   1.193   4.857   4.880 -0.2410  0.3989  0.0236
  314SOL     ow 1253   4.479   2.854   2.708 -0.6562  0.3119 -0.0066
  314SOL     hw 1254   4.535   2.831   2.635 -0.1242 -0.2193  0.5529
  314SOL     hw 1255   4.515   2.937   2.741 -1.5253  1.0937 -0.9644
  314SOL     vw 1256   4.491   2.862   2.703 -0.7005  0.3450 -0.0591
  315SOL     ow 1257   5.351   0.748   6.418  0.3288  0.2611  0.1922
  315SOL     hw 1258   5.289   0.799   6.470  1.5396  1.8257  0.1906
  315SOL     hw 1259   5.376   0.807   6.346 -1.1702 -1.7605 -2.1689
  315SOL     vw 1260   5.346   0.762   6.415  0.2909  0.2008 -0.1197
  316SOL     ow 1261   2.432   0.380   1.232 -0.1985 -0.6586  0.1121
  316SOL     hw 1262   2.411   0.316   1.164  1.5671 -1.4387  0.2476
  316SOL     hw 1263   2.393   0.462   1.201  0.4982 -1.0050 -1.8144
  316SOL     vw 1264   2.424   0.382   1.219  0.1265 -0.8072 -0.1243
  317SOL     ow 1265   0.946   2.092   5.237 -0.2184  0.4166  0.2294
  317SOL     hw 1266   1.015   2.111   5.173 -0.1858  0.0824  0.1632
  317SOL     hw 1267   0.886   2.034   5.191 -0.7098  0.9598  0.1876
  317SOL     vw 1268   0.947   2.087   5.223 -0.2789  0.4442  0.2151
  318SOL     ow 1269   1.915   4.752   1.399  0.2776  0.4802 -0.0863
  318SOL     hw 1270   1.859   4.722   1.328 -0.7459  0.5130  0.6979
  318SOL     hw 1271   1.886   4.703   1.476 -0.4043  2.2962  0.8931
  318SOL     vw 1272   1.904   4.742   1.400  0.0526  0.7241  0.1463
  319SOL     ow 1273   2.123   1.703   6.513 -0.1699  0.3999  0.0687
  319SOL     hw 1274   2.117   1.797   6.531  0.5636  0.4289  0.2160
  319SOL     hw 1275   2.177   1.697   6.434  0.2492  0.0839  0.3731
  319SOL     vw 1276   2.130   1.715   6.505 -0.0178  0.3620  0.1283
  320SOL     ow 1277   4.400   4.963   2.239  0.3042  0.1960  0.2850
  320SOL     hw 1278   4.332   4.906   2.205  0.5969  0.8055 -1.3964
  320SOL     hw 1279   4.456   4.906   2.290 -0.5453 -0.6171  0.3343
  320SOL     vw 1280   4.398   4.948   2.241  0.2310  0.1690  0.0696
  321SOL     ow 1281   1.385   6.604   0.658  0.3675 -0.5181  0.2999
  321SOL     hw 1282   1.433   6.524   0.680 -1.6885 -1.3991  1.9221
  321SOL     hw 1283   1.333   6.580   0.582  1.3779 -0.0002 -0.5784
  321SOL     vw 1284   1.385   6.590   0.651  0.2297 -0.5662  0.3980
  322SOL     ow 1285   3.563   3.254   2.845 -0.4504 -0.3734 -0.2184
  322SOL     hw 1286   3.497   3.305   2.891  0.3713 -0.1374  0.7378
  322SOL     hw 1287   3.647   3.292   2.873  0.1060 -0.8181 -1.2089
  322SOL     vw 1288   3.566   3.266   2.855 -0.2687 -0.4010 -0.2229
  323SOL     ow 1289   6.573   3.729   0.717  0.5250  0.3287 -0.5093
  323SOL     hw 1290   6.652   3.689   0.681  0.7510  1.4190 -1.2728
  323SOL     hw 1291   6.593   3.742   0.810 -0.6680 -4.0548  0.6209
  323SOL     vw 1292   6.586   3.725   0.725  0.3977 -0.1057 -0.4610
  324SOL     ow 1293   1.270   4.527   1.825  0.1288 -0.4089  0.1489
  324SOL     hw 1294   1.199   4.554   1.766  0.1575 -1.8522 -0.5768
  324SOL     hw 1295   1.232   4.457   1.878  0.3895  0.2448  1.2384
  324SOL     vw 1296   1.255   4.522   1.824  0.1670 -0.5128  0.1969
  325SOL     ow 1297   1.788   0.016   0.483  0.0338 -0.5157  0.2938
  325SOL     hw 1298   1.809   0.107   0.507  1.9125 -0.7324 -0.3574
  325SOL     hw 1299   1.734   0.025   0.404  0.7189  0.0480 -0.1309
  325SOL     vw 1300   1.784   0.029   0.475  0.3721 -0.4700  0.1519
  326SOL     ow 1301   0.966   6.611   6.722  0.2922  0.2139  0.2595
  326SOL     hw 1302   0.871   6.601   6.709  0.1759  0.0107  1.2040
  326SOL     hw 1303   0.982   6.576   6.810  1.4623 -1.0334 -0.4163
  326SOL     vw 1304   0.955   6.605   6.732  0.4313  0.0226  0.2949
  327SOL     ow 1305   1.900   0.752   0.366 -0.4048  0.2394  0.0606
  327SOL     hw 1306   1.925   0.795   0.448  1.8525 -1.2766  0.2661
  327SOL     hw 1307   1.849   0.675   0.394 -1.0440  0.6109 -0.0701
  327SOL     vw 1308   1.897   0.747   0.381 -0.1913  0.0884  0.0705
  328SOL     ow 1309   0.291   5.171   6.674 -0.6469  0.1005  0.0489
  328SOL     hw 1310   0.261   5.135   6.758 -0.1768 -0.1685  0.1054
  328SOL     hw 1311   0.275   5.101   6.611 -1.3572  0.4428 -0.1627
  328SOL     vw 1312   0.285   5.157   6.677 -0.6786  0.1104  0.0286
  329SOL     ow 1313   4.680   6.273   0.411  0.3926  0.2779  0.6547
  329SOL     hw 1314   4.679   6.270   0.507  1.4976 -0.4959  0.6705
  329SOL     hw 1315   4.589   6.263   0.385  0.0036  1.1511  1.6344
  329SOL     vw 1316   4.668   6.271   0.420  0.4871  0.2909  0.7860
  330SOL     ow 1317   5.087   2.769   4.388 -0.5406  0.0181 -0.3480
  330SOL     hw 1318   5.154   2.815   4.438 -1.6571  0.4458  0.8230
  330SOL     hw 1319   5.017   2.833   4.376 -0.3370 -0.0651 -2.5119
  330SOL     vw 1320   5.087   2.783   4.393 -0.6609  0.0635 -0.4792
  331SOL     ow 1321   5.796   3.525   2.564 -0.4010  0.0164  0.1062
  331SOL     hw 1322   5.735   3.569   2.623  1.3206  1.2189  1.0811
  331SOL     hw 1323   5.760   3.437   2.552 -2.6677  0.9076  0.0593
  331SOL     vw 1324   5.783   3.519   2.570 -0.4730  0.2925  0.2285
  332SOL     ow 1325   6.275   3.630   4.522  0.2890  0.4395 -0.6522
  332SOL     hw 1326   6.281   3.630   4.617 -0.9573  1.8260 -0.5417
  332SOL     hw 1327   6.187   3.597   4.503  0.3655  0.6035 -1.3054
  332SOL     vw 1328   6.264   3.625   4.532  0.1345  0.6440 -0.7236
  333SOL     ow 1329   2.020   1.800   4.562 -0.1604  0.1336 -0.4201
  333SOL     hw 1330   2.111   1.825   4.550 -0.3042  0.5747 -0.5966
  333SOL     hw 1331   2.012   1.783   4.656 -0.4778  2.4874  0.0441
  333SOL     vw 1332   2.031   1.801   4.573 -0.2213  0.5023 -0.3822
  334SOL     ow 1333   5.507   6.341   1.270  0.6087  0.2668  0.7692
  334SOL     hw 1334   5.417   6.323   1.241 -0.0371  1.5934  1.8277
  334SOL     hw 1335   5.496   6.395   1.348  2.3332 -0.5170  1.5831
  334SOL     vw 1336   5.493   6.346   1.276  0.7510  0.3383  1.0163
  335SOL     ow 1337   1.924   0.261   1.363  0.1589  0.6201  0.2006
  335SOL     hw 1338   1.992   0.225   1.307  0.7921 -0.0261  1.3501
  335SOL     hw 1339   1.954   0.244   1.452 -2.3457 -1.3368  0.7914
  335SOL     vw 1340   1.937   0.254   1.368 -0.0880  0.2766  0.4302
  336SOL     ow 1341   2.884   2.815   2.235  0.5149 -0.5841 -0.3373
  336SOL     hw 1342   2.874   2.815   2.140  0.0671 -1.3485 -0.3025
  336SOL     hw 1343   2.957   2.874   2.252  2.4200 -2.5204 -1.3532
  336SOL     vw 1344   2.892   2.823   2.225  0.7070 -0.9406 -0.4669
  337SOL     ow 1345   6.094   2.645   2.682  0.2171  0.8921  0.0543
  337SOL     hw 1346   6.109   2.614   2.592  0.9453  4.1461 -1.0841
  337SOL     hw 1347   6.174   2.693   2.704 -0.4964  1.2955  1.9523
  337SOL     vw 1348   6.107   2.647   2.673  0.2191  1.3745  0.1546
  338SOL     ow 1349   6.004   1.989   3.321 -0.4652 -0.6822  0.0664
  338SOL     hw 1350   5.961   1.913   3.282  0.1929  0.6401 -3.5729
  338SOL     hw 1351   5.936   2.056   3.325 -0.3918 -0.6417  0.7619
  338SOL     vw 1352   5.989   1.988   3.317 -0.3688 -0.5023 -0.3219
  339SOL     ow 1353   0.784   0.340   0.246  0.7012 -0.3101  0.3780
  339SOL     hw 1354   0.855   0.275   0.242 -1.2371 -2.5355  0.0204
  339SOL     hw 1355   0.785   0.382   0.160  2.5113  0.8341  0.8924
  339SOL     vw 1356   0.793   0.337   0.234  0.6843 -0.4528  0.3987
  340SOL     ow 1357   2.280   6.669   5.391 -0.2972  0.6929  0.4114
  340SOL     hw 1358   2.367   6.681   5.355 -0.4482  0.0408 -0.1999
  340SOL     hw 1359   2.295   6.645   5.483  0.5303 -4.4470 -0.7647
  340SOL     vw 1360   2.293   6.667   5.398 -0.2079 -0.0713  0.1755
  341SOL     ow 1361   6.303   3.436   1.761  0.3074  0.7049  0.3398
  341SOL     hw 1362   6.257   3.391   1.832 -0.1874  0.7031  0.0217
  341SOL     hw 1363   6.395   3.412   1.773  0.2567  0.8539  1.0915
  341SOL     vw 1364   6.309   3.427   1.772  0.2356  0.7244  0.3970
  342SOL     ow 1365   6.596   6.753   3.529  0.3471  0.3676 -0.3470
  342SOL     hw 1366   6.690   6.764   3.516  0.4905  0.4343  0.6743
  342SOL     hw 1367   6.588   6.665   3.567 -0.0511  0.1843 -0.8412
  342SOL     vw 1368   6.608   6.743   3.533  0.3138  0.3526 -0.2775
  343SOL     ow 1369   2.485   4.124   0.082 -0.2473 -0.1921  0.9134
  343SOL     hw 1370   2.399   4.141   0.043 -0.4503  0.6006  1.6831
  343SOL     hw 1371   2.465   4.089   0.169  0.2148  0.1468  1.1587
  343SOL     vw 1372   2.471   4.122   0.088 -0.2131 -0.0427  1.0473
  344SOL     ow 1373   0.684   2.861   0.992  0.1279  0.4355 -0.2677
  344SOL     hw 1374   0.621   2.789   1.005  0.0111 -0.0059 -2.7256
  344SOL     hw 1375   0.734   2.864   1.074 -3.7359  1.5474  2.3228
  344SOL     vw 1376   0.682   2.852   1.005 -0.3973  0.5238 -0.2502
  345SOL     ow 1377   1.742   2.637   5.888 -0.1940 -0.2635  0.0512
  345SOL     hw 1378   1.688   2.711   5.859 -0.2993 -0.4036 -0.1148
  345SOL     hw 1379   1.680   2.566   5.901  0.1271 -0.9028 -1.7173
  345SOL     vw 1380   1.727   2.637   5.886 -0.1656 -0.3664 -0.2041
  346SOL     ow 1381   5.175   6.133   2.958  0.1347 -0.2082 -0.1550
  346SOL     hw 1382   5.132   6.115   3.042  1.1638  1.8494  0.8674
  346SOL     hw 1383   5.155   6.225   2.940  0.7678 -0.3454 -1.6766
  346SOL     vw 1384   5.167   6.143   2.966  0.3536  0.0453 -0.2208
  347SOL     ow 1385   0.941   2.424   2.596 -0.2118  0.1457  0.2255
  347SOL     hw 1386   0.907   2.419   2.506 -0.6149  0.0817  0.3779
  347SOL     hw 1387   0.950   2.332   2.623  1.7218  0.1110 -0.4095
  347SOL     vw 1388   0.938   2.411   2.588 -0.0099  0.1328  0.1618
  348SOL     ow 1389   3.469   3.307   5.729  0.2003  0.0760 -0.7356
  348SOL     hw 1390   3.545   3.347   5.687  0.4114 -2.1497 -2.6973
  348SOL     hw 1391   3.394   3.349   5.687  0.4118 -0.6133 -1.8635
  348SOL     vw 1392   3.469   3.317   5.718  0.2559 -0.3086 -1.1432
  349SOL     ow 1393   0.715   1.153   2.540 -0.0775  0.1873 -0.2604
  349SOL     hw 1394   0.803   1.170   2.508  0.7754  0.0945  1.8571
  349SOL     hw 1395   0.714   1.060   2.561  0.1726  0.6217  1.9518
  349SOL     vw 1396   0.727   1.143   2.539  0.0680  0.2325  0.3109
  350SOL     ow 1397   3.658   1.204   0.234  0.4060  0.1733  0.0642
  350SOL     hw 1398   3.662   1.266   0.307  0.4805 -0.1011  0.2963
  350SOL     hw 1399   3.646   1.259   0.157  0.1722  0.4581  0.2993
  350SOL     vw 1400   3.657   1.220   0.234  0.3849  0.1748  0.1259
  351SOL     ow 1401   3.744   0.182   4.062  0.4630 -0.5485  0.4632
  351SOL     hw 1402   3.725   0.171   3.969  0.2157  0.6464  0.3479
  351SOL     hw 1403   3.667   0.149   4.107  0.2695 -0.4547  0.2038
  351SOL     vw 1404   3.731   0.176   4.056  0.4050 -0.3785  0.4141
  352SOL     ow 1405   3.942   0.877   3.969  0.3192  0.1035  0.2160
  352SOL     hw 1406   3.879   0.932   3.923  0.6461 -0.9648 -1.6163
  352SOL     hw 1407   4.019   0.933   3.981 -0.1791  0.7390  0.4797
  352SOL     vw 1408   3.944   0.892   3.964  0.2967  0.0464  0.0089
  353SOL     ow 1409   2.977   5.804   1.670 -0.2117  0.0258 -0.7502
  353SOL     hw 1410   2.943   5.868   1.607  2.9387  1.7934 -0.8729
  353SOL     hw 1411   3.061   5.776   1.633  0.7826 -0.4245  1.6510
  353SOL     vw 1412   2.984   5.809   1.657  0.3350  0.1996 -0.4497
  354SOL     ow 1413   4.242   1.167   6.686 -0.7711  0.1757 -0.4155
  354SOL     hw 1414   4.175   1.159   6.618  0.0273  1.3801 -1.3910
  354SOL     hw 1415   4.292   1.244   6.661  0.0841  0.1490  1.0960
  354SOL     vw 1416   4.239   1.176   6.674 -0.5529  0.3311 -0.3445
  355SOL     ow 1417   5.520   6.616   6.109  0.0233 -0.0955  0.0758
  355SOL     hw 1418   5.608   6.653   6.094 -0.4554  1.4582  0.8991
  355SOL     hw 1419   5.466   6.692   6.130 -1.6298 -0.9780 -0.8115
  355SOL     vw 1420   5.525   6.631   6.110 -0.2580 -0.0074  0.0675
  356SOL     ow 1421   1.974   6.391   2.546  0.7741 -0.0357  0.5161
  356SOL     hw 1422   1.956   6.303   2.512  0.5459  0.1024  0.2714
  356SOL     hw 1423   1.941   6.389   2.636  1.4723 -0.4368  0.7746
  356SOL     vw 1424   1.967   6.379   2.553  0.8361 -0.0703  0.5180
  357SOL     ow 1425   4.441   3.740   0.996 -0.2474  0.4987 -0.1911
  357SOL     hw 1426   4.402   3.655   1.015  1.5895 -0.0596  1.4047
  357SOL     hw 1427   4.402   3.799   1.061 -0.6140  0.6192 -0.5150
  357SOL     vw 1428   4.431   3.736   1.007 -0.0534  0.4410 -0.0232
  358SOL     ow 1429   3.440   2.761   5.238  0.3805  0.0022 -0.5477
  358SOL     hw 1430   3.403   2.722   5.317 -1.1316  1.5843 -0.4228
  358SOL     hw 1431   3.399   2.847   5.232  1.7841  0.6235 -2.1170
  358SOL     vw 1432   3.430   2.767   5.248  0.3660  0.2930 -0.7384
  359SOL     ow 1433   2.883   1.682   5.965  0.9460 -0.1623 -0.2607
  359SOL     hw 1434   2.904   1.675   6.059 -0.0833 -1.5338 -0.0954
  359SOL     hw 1435   2.801   1.732   5.963  1.0836  0.0556 -0.4480
  359SOL     vw 1436   2.875   1.688   5.977  0.8285 -0.3146 -0.2635
  360SOL     ow 1437   0.082   0.881   3.989  0.2235  0.5676 -0.4317
  360SOL     hw 1438   0.168   0.860   4.024  0.4535  1.1922 -0.6047
  360SOL     hw 1439   0.066   0.971   4.016 -0.5230  0.3499 -0.1179
  360SOL     vw 1440   0.091   0.890   3.997  0.1553  0.6213 -0.4132
  361SOL     ow 1441   1.678   0.961   6.219  0.8742 -0.1849  0.5420
  361SOL     hw 1442   1.731   1.012   6.281 -2.8215  1.4328  2.7078
  361SOL     hw 1443   1.635   0.895   6.273 -2.5225  1.3036 -0.0760
  361SOL     vw 1444   1.679   0.959   6.234 -0.0615  0.2249  0.7463
  362SOL     ow 1445   0.491   1.349   2.650 -0.1946  0.2388 -0.1404
  362SOL     hw 1446   0.416   1.310   2.606 -0.9520 -0.3564  1.5751
  362SOL     hw 1447   0.470   1.442   2.655  0.4593  0.5387 -2.0148
  362SOL     vw 1448   0.479   1.356   2.645 -0.2082  0.1998 -0.1615
  363SOL     ow 1449   6.143   5.328   1.788 -0.4676 -0.1707  0.1078
  363SOL     hw 1450   6.082   5.396   1.759  3.3678  2.9181 -1.6255
  363SOL     hw 1451   6.179   5.362   1.871  0.1196 -1.0779  0.2409
  363SOL     vw 1452   6.140   5.341   1.795  0.1159  0.1171 -0.1033
  364SOL     ow 1453   5.550   4.817   1.084  0.6608 -0.0066  0.1262
  364SOL     hw 1454   5.623   4.762   1.112 -1.2659 -2.9311 -0.1667
  364SOL     hw 1455   5.495   4.759   1.031 -1.6522  2.1811 -0.0706
  364SOL     vw 1456   5.552   4.802   1.080  0.1011 -0.1037  0.0616
  365SOL     ow 1457   0.985   4.900   0.975  0.3772  0.0178  0.2641
  365SOL     hw 1458   1.029   4.925   0.894 -1.4260  2.0753 -0.1438
  365SOL     hw 1459   0.913   4.843   0.948 -0.4947  1.0590  0.3389
  365SOL     vw 1460   0.982   4.896   0.961  0.0243  0.4268  0.2201
  366SOL     ow 1461   1.894   2.518   2.881  0.0629  0.2263  0.1019
  366SOL     hw 1462   1.852   2.442   2.840 -0.0534  1.4011 -2.1133
  366SOL     hw 1463   1.956   2.550   2.815  0.5912  1.6516  1.2380
  366SOL     vw 1464   1.896   2.512   2.867  0.1173  0.5693 -0.0404
  367SOL     ow 1465   5.785   4.256   4.766  0.3687  0.0247 -0.4943
  367SOL     hw 1466   5.706   4.302   4.737  0.8119  0.4830 -0.9720
  367SOL     hw 1467   5.857   4.315   4.745  0.8862 -0.5893 -0.4753
  367SOL     vw 1468   5.784   4.270   4.760  0.4954  0.0043 -0.5553
  368SOL     ow 1469   6.132   5.994   2.009 -0.3497  0.7036  0.6455
  368SOL     hw 1470   6.126   5.975   2.103 -0.3304  1.0468  0.7160
  368SOL     hw 1471   6.053   5.956   1.972  0.3212 -0.6974  0.5876
  368SOL     vw 1472   6.121   5.987   2.017 -0.2582  0.5643  0.6471
  369SOL     ow 1473   0.797   1.517   4.088  0.3374  0.2960 -0.2865
  369SOL     hw 1474   0.863   1.538   4.021 -0.0191  0.7672 -0.4952
  369SOL     hw 1475   0.807   1.586   4.154  2.0072 -1.2185  1.1631
  369SOL     vw 1476   0.807   1.529   4.088  0.5107  0.1583 -0.1230
  370SOL     ow 1477   2.628   0.583   5.309  0.2171 -0.4360 -0.4547
  370SOL     hw 1478   2.608   0.533   5.230 -1.0356  0.1887 -0.5656
  370SOL     hw 1479   2.604   0.673   5.286  1.6334  0.0847  0.0144
  370SOL     vw 1480   2.622   0.588   5.296  0.2384 -0.2849 -0.4072
  371SOL     ow 1481   6.177   0.778   5.137 -0.2260  0.0824  0.0165
  371SOL     hw 1482   6.162   0.690   5.171  1.0468 -2.1373 -4.3855
  371SOL     hw 1483   6.107   0.792   5.074 -0.3073  2.2342  0.5012
  371SOL     vw 1484   6.166   0.768   5.133 -0.0689  0.0734 -0.5004
  372SOL     ow 1485   6.146   6.657   5.974 -0.0404 -0.0168  0.0564
  372SOL     hw 1486   6.225   6.693   6.014 -0.0125  0.3981 -0.3626
  372SOL     hw 1487   6.077   6.720   5.995  0.0335  0.3609 -0.7880
  372SOL     vw 1488   6.147   6.670   5.982 -0.0272  0.0875 -0.1104
  373SOL     ow 1489   2.326   5.445   4.353 -0.0857  0.4282 -0.2418
  373SOL     hw 1490   2.242   5.413   4.385 -1.4612  2.6885 -1.3804
  373SOL     hw 1491   2.365   5.371   4.307 -1.2498 -0.7587  0.6351
  373SOL     vw 1492   2.320   5.431   4.351 -0.4207  0.5696 -0.2763
  374SOL     ow 1493   5.992   3.591   5.647  0.5693  0.0340  0.2328
  374SOL     hw 1494   6.037   3.664   5.689 -1.7077  1.1121  0.9945
  374SOL     hw 1495   5.936   3.554   5.715 -1.5298  0.3836 -1.1865
  374SOL     vw 1496   5.990   3.596   5.661 -0.0076  0.2223  0.1462
  375SOL     ow 1497   0.220   1.535   0.457  0.1253  0.5657 -0.0133
  375SOL     hw 1498   0.244   1.565   0.544 -1.1725  0.5377  0.3850
  375SOL     hw 1499   0.288   1.472   0.432 -0.6690 -1.1899  1.9615
  375SOL     vw 1500   0.232   1.531   0.465 -0.1507  0.3304  0.2998
  376SOL     ow 1501   3.944   0.332   1.125  0.2971  0.1590  0.6102
  376SOL     hw 1502   3.864   0.296   1.089  0.3129  0.2484  0.4841
  376SOL     hw 1503   4.000   0.349   1.049  1.6622 -2.7525  0.8451
  376SOL     vw 1504   3.941   0.330   1.110  0.4795 -0.2134  0.6246
  377SOL     ow 1505   4.344   2.448   4.662 -0.3568 -0.0825  0.4663
  377SOL     hw 1506   4.259   2.405   4.663 -0.9751  1.0996  0.4673
  377SOL     hw 1507   4.387   2.413   4.584 -1.4670  0.4528 -0.4197
  377SOL     vw 1508   4.338   2.438   4.651 -0.5848  0.1441  0.3493
  378SOL     ow 1509   4.164   2.144   2.028  0.5349  0.0459  0.0084
  378SOL     hw 1510   4.194   2.205   1.960 -1.1881  1.3072  0.3173
  378SOL     hw 1511   4.134   2.201   2.099 -0.1121 -1.1929  0.7500
  378SOL     vw 1512   4.164   2.160   2.028  0.2222  0.0490  0.1470
  379SOL     ow 1513   1.043   4.741   0.210  0.1585 -0.6162 -0.0027
  379SOL     hw 1514   1.063   4.757   0.302  0.9786 -2.8642  0.2724
  379SOL     hw 1515   1.101   4.800   0.162  0.4236 -0.1139  0.9155
  379SOL     vw 1516   1.053   4.751   0.216  0.3017 -0.8466  0.1547
  380SOL     ow 1517   5.721   3.473   0.033  0.0253  0.4172  0.1921
  380SOL     hw 1518   5.676   3.425   0.102  0.6376  1.0642  1.0677
  380SOL     hw 1519   5.809   3.487   0.067  0.4012  0.5645 -0.8186
  380SOL     vw 1520   5.727   3.469   0.047  0.1557  0.5220  0.1743
  381SOL     ow 1521   6.510   5.213   4.513 -0.3586 -0.0201  0.3208
  381SOL     hw 1522   6.461   5.210   4.596 -1.0967  0.9603 -0.0586
  381SOL     hw 1523   6.555   5.129   4.509  0.4256  0.2589  2.1560
  381SOL     vw 1524   6.509   5.201   4.524 -0.3524  0.1462  0.5131
  382SOL     ow 1525   3.796   2.856   6.133 -0.7060  0.5746  0.3712
  382SOL     hw 1526   3.743   2.840   6.055  0.0920  0.1706 -0.1102
  382SOL     hw 1527   3.851   2.930   6.110 -1.5225  1.4268  1.1146
  382SOL     vw 1528   3.796   2.863   6.119 -0.7083  0.6338  0.4058
  383SOL     ow 1529   4.868   3.951   3.759 -0.0149 -0.1581 -0.4224
  383SOL     hw 1530   4.777   3.981   3.754 -0.9802 -2.7412  0.0679
  383SOL     hw 1531   4.868   3.868   3.711  1.6344 -1.1566  1.1853
  383SOL     vw 1532   4.856   3.944   3.752  0.0753 -0.6307 -0.1456
  384SOL     ow 1533   4.147   2.884   1.488 -0.4696 -0.3207  0.3046
  384SOL     hw 1534   4.145   2.817   1.556  0.4544  1.1463  1.8450
  384SOL     hw 1535   4.239   2.894   1.467 -0.5488  0.7250  0.3893
  384SOL     vw 1536   4.159   2.876   1.494 -0.3581  0.0108  0.5191
  385SOL     ow 1537   2.389   2.688   5.227  0.4146  0.0215 -0.4094
  385SOL     hw 1538   2.296   2.710   5.219 -0.3770 -1.4564  2.9737
  385SOL     hw 1539   2.405   2.626   5.156 -0.5083  1.9521 -2.4226
  385SOL     vw 1540   2.379   2.683   5.216  0.1885  0.0812 -0.2286
  386SOL     ow 1541   2.105   6.610   3.748  0.0787  0.3151  0.1693
  386SOL     hw 1542   2.052   6.585   3.671  0.0495 -1.2279  0.6485
  386SOL     hw 1543   2.172   6.542   3.754  1.6859  1.8138  0.0378
  386SOL     vw 1544   2.107   6.598   3.738  0.2868  0.3092  0.2152
  387SOL     ow 1545   4.981   5.604   4.643 -0.0869 -0.2242  0.4613
  387SOL     hw 1546   4.993   5.688   4.688 -0.1294  0.3015 -0.4826
  387SOL     hw 1547   4.970   5.628   4.551  0.7050 -1.3238  0.0662
  387SOL     vw 1548   4.981   5.618   4.637  0.0122 -0.2999  0.2844
  388SOL     ow 1549   0.807   3.428   0.211  0.6074 -0.7711 -0.3281
  388SOL     hw 1550   0.815   3.500   0.274  0.3834 -0.5951 -0.4994
  388SOL     hw 1551   0.742   3.369   0.250 -0.9837  0.2863 -1.2759
  388SOL     vw 1552   0.799   3.430   0.225  0.3679 -0.6083 -0.4757
  389SOL     ow 1553   3.140   2.892   1.765 -0.3987  0.2360 -0.0567
  389SOL     hw 1554   3.150   2.813   1.711  1.3598  0.4116 -0.0245
  389SOL     hw 1555   3.138   2.964   1.702 -1.7579  0.2227 -0.0681
  389SOL     vw 1556   3.141   2.891   1.750 -0.3461  0.2574 -0.0539
  390SOL     ow 1557   5.093   3.802   4.198  1.0918  0.0087 -0.3602
  390SOL     hw 1558   5.046   3.791   4.116  0.9156 -0.7418 -0.1695
  390SOL     hw 1559   5.185   3.795   4.175  1.0920  0.8976 -0.6498
  390SOL     vw 1560   5.099   3.800   4.184  1.0684  0.0269 -0.3736
  391SOL     ow 1561   6.289   4.528   1.443  0.0411 -0.2976  0.3565
  391SOL     hw 1562   6.207   4.576   1.436 -0.1275 -0.7301 -0.9436
  391SOL     hw 1563   6.322   4.550   1.530 -1.0471  0.5142  0.5930
  391SOL     vw 1564   6.282   4.537   1.453 -0.1247 -0.2475  0.2162
  392SOL     ow 1565   0.132   1.087   1.002  0.2787  0.0480 -0.2452
  392SOL     hw 1566   0.100   1.004   0.965  0.8498  0.3848 -1.5642
  392SOL     hw 1567   0.084   1.154   0.953 -0.8189  0.5274  1.4080
  392SOL     vw 1568   0.121   1.085   0.991  0.2092  0.1557 -0.2011
  393SOL     ow 1569   1.928   2.792   5.715 -0.0946  0.1587  0.5320
  393SOL     hw 1570   1.963   2.848   5.784 -0.1481 -0.3650  0.9877
  393SOL     hw 1571   1.885   2.853   5.654  1.6087  0.8209 -0.0587
  393SOL     vw 1572   1.927   2.807   5.716  0.1231  0.1770  0.5140
  394SOL     ow 1573   5.642   4.293   4.001 -0.2843 -0.4609  0.3198
  394SOL     hw 1574   5.615   4.207   4.032  1.4964 -1.5247 -0.9079
  394SOL     hw 1575   5.625   4.291   3.907 -1.7538  1.1831  0.4928
  394SOL     vw 1576   5.636   4.282   3.993 -0.2432 -0.3843  0.1807
  395SOL     ow 1577   2.563   3.547   4.125  0.2478  0.1722  0.1080
  395SOL     hw 1578   2.518   3.612   4.071  0.4993 -0.5131 -0.9422
  395SOL     hw 1579   2.642   3.592   4.156  0.1439  0.5481 -0.1672
  395SOL     vw 1580   2.568   3.561   4.122  0.2673  0.1312 -0.0668
  396SOL     ow 1581   5.133   3.650   0.969  0.0201 -0.3473  0.2345
  396SOL     hw 1582   5.132   3.745   0.972  1.1648 -0.3172  0.3929
  396SOL     hw 1583   5.085   3.627   0.890  1.3149  0.4591 -0.8321
  396SOL     vw 1584   5.127   3.659   0.959  0.3421 -0.2369  0.1146
  397SOL     ow 1585   4.371   5.532   0.263  0.1451 -0.3649 -0.3808
  397SOL     hw 1586   4.317   5.602   0.228  0.9192  1.3794  1.6592
  397SOL     hw 1587   4.395   5.479   0.187 -0.4142  1.6250 -2.0374
  397SOL     vw 1588   4.367   5.534   0.249  0.1731  0.1278 -0.3302
  398SOL     ow 1589   6.498   5.813   3.957  0.3830  0.7766  0.1879
  398SOL     hw 1590   6.566   5.752   3.928 -1.6275 -2.3059  1.3711
  398SOL     hw 1591   6.516   5.827   4.050 -0.7526 -0.4310  0.6237
  398SOL     vw 1592   6.509   5.806   3.966 -0.0322  0.2105  0.4015
  399SOL     ow 1593   4.555   3.439   3.687  0.0518  0.5680 -0.5621
  399SOL     hw 1594   4.567   3.379   3.612 -1.4256 -1.7907  0.9368
  399SOL     hw 1595   4.643   3.448   3.724  0.1682 -1.9988  0.0246
  399SOL     vw 1596   4.568   3.432   3.682 -0.1280 -0.0819 -0.2871
  400SOL     ow 1597   2.812   0.842   0.904  0.2088 -0.0561 -0.5248
  400SOL     hw 1598   2.884   0.855   0.842  1.5159 -0.8078  0.7629
  400SOL     hw 1599   2.837   0.764   0.954 -0.6805  0.6368  1.0808
  400SOL     vw 1600   2.825   0.833   0.902  0.2640 -0.0639 -0.1431
  401SOL     ow 1601   5.224   1.503   2.795 -0.3687 -0.4380 -0.0447
  401SOL     hw 1602   5.172   1.425   2.815 -2.1347  0.2093 -1.7717
  401SOL     hw 1603   5.227   1.552   2.878 -0.3626 -1.6892  0.7172
  401SOL     vw 1604   5.218   1.499   2.809 -0.6008 -0.5177 -0.1721
  402SOL     ow 1605   1.358   2.146   4.662  0.0173 -0.1910 -0.0281
  402SOL     hw 1606   1.383   2.090   4.588  1.7693  1.1747 -0.5452
  402SOL     hw 1607   1.334   2.085   4.731 -1.7106 -1.5364 -1.6860
  402SOL     vw 1608   1.358   2.131   4.661  0.0205 -0.1884 -0.3152
  403SOL     ow 1609   0.820   0.012   2.915  0.6160  0.2827  0.0906
  403SOL     hw 1610   0.836   0.009   2.821  1.6783 -1.1206  0.2853
  403SOL     hw 1611   0.735   0.056   2.924  0.2659 -0.0100 -1.5428
  403SOL     vw 1612   0.811   0.017   2.904  0.7100  0.0589 -0.0991
  404SOL     ow 1613   4.674   0.811   5.087  0.1823 -0.1206 -0.2170
  404SOL     hw 1614   4.615   0.742   5.115  0.4984  0.3478  1.7887
  404SOL     hw 1615   4.729   0.771   5.020  0.1691 -1.7474  0.6855
  404SOL     vw 1616   4.674   0.797   5.082  0.2224 -0.2734  0.1667
  405SOL     ow 1617   5.477   2.768   6.107  0.5802 -0.6198 -0.2455
  405SOL     hw 1618   5.392   2.725   6.095  0.0450  0.7263 -1.7119
  405SOL     hw 1619   5.502   2.795   6.019  2.4600 -0.8108  0.1984
  405SOL     vw 1620   5.469   2.766   6.094  0.7575 -0.4673 -0.3805
  406SOL     ow 1621   4.711   3.394   3.023 -0.4586 -0.6282  0.6467
  406SOL     hw 1622   4.615   3.399   3.028 -0.5319 -2.2291  2.0192
  406SOL     hw 1623   4.739   3.383   3.114  0.9340 -1.2383  0.1772
  406SOL     vw 1624   4.702   3.393   3.036 -0.2849 -0.9199  0.7659
  407SOL     ow 1625   5.521   1.906   1.848  0.0318  0.2521  0.2004
  407SOL     hw 1626   5.564   1.836   1.799  0.6308 -0.9183  2.2581
  407SOL     hw 1627   5.440   1.923   1.800  0.7967 -0.4426 -1.4249
  407SOL     vw 1628   5.516   1.899   1.835  0.2117  0.0060  0.2574
  408SOL     ow 1629   1.065   4.004   5.348 -0.0302  0.1741 -0.3484
  408SOL     hw 1630   0.971   3.986   5.353 -0.2410  0.8536 -1.4570
  408SOL     hw 1631   1.087   3.989   5.256  0.4244  2.4725 -0.6604
  408SOL     vw 1632   1.056   3.999   5.336  0.0020  0.5670 -0.5357
  409SOL     ow 1633   3.639   5.828   4.897  0.3130  0.1944 -0.2131
  409SOL     hw 1634   3.685   5.875   4.966  0.5299 -0.8057  0.3397
  409SOL     hw 1635   3.680   5.742   4.894  0.4573  0.2760 -1.7481
  409SOL     vw 1636   3.650   5.823   4.905  0.3607  0.0730 -0.3428
  410SOL     ow 1637   2.303   4.266   2.698 -0.2021 -0.0749  0.2014
  410SOL     hw 1638   2.272   4.203   2.633  0.2723 -0.3509  0.2427
  410SOL     hw 1639   2.225   4.317   2.721 -0.4580 -0.2482 -0.2773
  410SOL     vw 1640   2.289   4.265   2.693 -0.1732 -0.1345  0.1438
  411SOL     ow 1641   0.604   6.560   5.026 -0.0512 -0.1513 -0.0787
  411SOL     hw 1642   0.658   6.496   5.073 -0.1004 -0.4986 -0.4834
  411SOL     hw 1643   0.515   6.527   5.034  0.0192 -0.6160 -1.0235
  411SOL     vw 1644   0.599   6.547   5.033 -0.0484 -0.2582 -0.2568
  412SOL     ow 1645   3.525   6.158   2.393  0.0436 -0.1411 -0.0878
  412SOL     hw 1646   3.482   6.199   2.318  1.1113  0.7554 -0.2406
  412SOL     hw 1647   3.487   6.202   2.469 -1.5241 -1.5116 -0.0277
  412SOL     vw 1648   3.515   6.170   2.393 -0.0224 -0.2038 -0.1000
  413SOL     ow 1649   0.721   2.089   5.467  0.1222 -0.1703  0.9707
  413SOL     hw 1650   0.629   2.102   5.443  0.7276  2.4508 -0.2894
  413SOL     hw 1651   0.720   2.011   5.522 -2.8392 -0.2798  0.9499
  413SOL     vw 1652   0.708   2.081   5.471 -0.1887  0.1612  0.8018
  414SOL     ow 1653   5.998   2.380   2.806 -0.5766 -0.0962  0.4311
  414SOL     hw 1654   6.020   2.466   2.770 -0.4481 -0.0606  0.5928
  414SOL     hw 1655   6.016   2.389   2.900 -2.0610  0.1902  0.7089
  414SOL     vw 1656   6.004   2.393   2.814 -0.7555 -0.0538  0.4889
  415SOL     ow 1657   5.233   5.869   6.530  0.1739  0.3421 -0.5028
  415SOL     hw 1658   5.241   5.790   6.477  0.5808  0.2565 -0.3173
  415SOL     hw 1659   5.149   5.859   6.575  1.1181 -1.0074  1.1280
  415SOL     vw 1660   5.223   5.857   6.529  0.3521  0.1528 -0.2635
  416SOL     ow 1661   3.603   3.455   3.751 -0.0964  0.3835  0.0673
  416SOL     hw 1662   3.674   3.429   3.809  0.8623  0.1394 -1.1887
  416SOL     hw 1663   3.561   3.372   3.726  0.4598  0.3577 -0.7944
  416SOL     vw 1664   3.607   3.441   3.756  0.1037  0.3479 -0.2121
  417SOL     ow 1665   2.318   0.743   6.068  0.3531  0.2561  0.2175
  417SOL     hw 1666   2.336   0.754   6.162  0.3979 -0.1780  0.2602
  417SOL     hw 1667   2.401   0.765   6.026 -0.4417  3.4037  0.0612
  417SOL     vw 1668   2.332   0.747   6.075  0.2542  0.6141  0.2024
  418SOL     ow 1669   1.276   6.705   3.851  0.3469  0.5301  0.2697
  418SOL     hw 1670   1.340   6.695   3.921  1.6531 -0.3757 -1.0105
  418SOL     hw 1671   1.191   6.699   3.895  1.0926 -2.5784  1.4881
  418SOL     vw 1672   1.273   6.703   3.866  0.6177  0.0007  0.2614
  419SOL     ow 1673   6.447   6.061   0.610  0.2195  0.8265  0.5506
  419SOL     hw 1674   6.384   6.099   0.549  0.8592 -0.6271 -1.1183
  419SOL     hw 1675   6.532   6.089   0.576  0.5654  0.6011  1.2164
  419SOL     vw 1676   6.450   6.070   0.597  0.3495  0.6046  0.4183
  420SOL     ow 1677   4.699   3.378   5.208 -0.1126 -0.0985 -0.0883
  420SOL     hw 1678   4.697   3.470   5.181 -1.0273  0.2455  1.0725
  420SOL     hw 1679   4.720   3.382   5.302  2.5837 -1.2179 -0.5443
  420SOL     vw 1680   4.702   3.391   5.217  0.1223 -0.2010  0.0050
  421SOL     ow 1681   5.883   4.836   0.452 -0.3243  0.0456  0.3500
  421SOL     hw 1682   5.945   4.763   0.445 -2.4002 -1.6753 -3.5135
  421SOL     hw 1683   5.798   4.794   0.467 -1.2771  1.8986  0.4851
  421SOL     vw 1684   5.880   4.821   0.453 -0.7238  0.0632 -0.1419
  422SOL     ow 1685   1.321   2.745   0.593  0.1717  0.4241  0.0287
  422SOL     hw 1686   1.365   2.791   0.665  0.7374  0.5715 -0.4053
  422SOL     hw 1687   1.336   2.801   0.517 -1.6182  0.9871  0.0553
  422SOL     vw 1688   1.329   2.759   0.593  0.0102  0.5177 -0.0250
  423SOL     ow 1689   0.040   0.057   1.774 -0.5189 -0.2411  0.4132
  423SOL     hw 1690   0.031   0.089   1.684  0.5091 -1.4994 -0.1621
  423SOL     hw 1691   0.134   0.063   1.793 -0.4167 -1.9701  0.6131
  423SOL     vw 1692   0.051   0.062   1.765 -0.3698 -0.6353  0.3637
  424SOL     ow 1693   4.360   0.299   3.978 -0.2995  0.3747 -0.1501
  424SOL     hw 1694   4.428   0.232   3.976  0.4478  1.0349  1.2853
  424SOL     hw 1695   4.367   0.344   3.894  2.1171  1.4353  0.5346
  424SOL     vw 1696   4.370   0.296   3.967  0.1180  0.6017  0.1297
  425SOL     ow 1697   5.028   5.681   0.604  0.2460  0.4046  0.0033
  425SOL     hw 1698   4.990   5.597   0.576 -1.6878  1.6664 -1.4224
  425SOL     hw 1699   5.068   5.662   0.688 -0.8748 -1.7739  0.1255
  425SOL     vw 1700   5.028   5.667   0.611 -0.1571  0.2837 -0.1687
  426SOL     ow 1701   0.835   4.342   3.215  0.0348  0.1246  0.0382
  426SOL     hw 1702   0.806   4.270   3.159  0.2441 -1.3065  1.7003
  426SOL     hw 1703   0.875   4.405   3.154  1.0528 -1.7598 -1.3430
  426SOL     vw 1704   0.836   4.341   3.200  0.1967 -0.3128  0.0752
  427SOL     ow 1705   0.276   1.488   4.764  0.1852 -0.3375  0.3713
  427SOL     hw 1706   0.326   1.450   4.692  0.8001 -1.7621  1.5004
  427SOL     hw 1707   0.298   1.581   4.762 -1.3615  0.0990 -2.4823
  427SOL     vw 1708   0.286   1.495   4.754  0.0623 -0.4679  0.1438
  428SOL     ow 1709   2.444   4.714   3.830 -0.5314 -0.1385 -0.5879
  428SOL     hw 1710   2.392   4.789   3.800 -0.1858  0.8255  1.1133
  428SOL     hw 1711   2.472   4.738   3.919  2.0970 -0.9722 -1.0918
  428SOL     vw 1712   2.441   4.727   3.838 -0.1391 -0.1214 -0.4299
  429SOL     ow 1713   2.699   4.341   6.806 -0.2101  0.1029  0.3533
  429SOL     hw 1714   2.646   4.409   6.763  0.3202  0.6944  0.6038
  429SOL     hw 1715   2.705   4.370   6.897 -2.3641 -1.7866  1.1788
  429SOL     vw 1716   2.693   4.354   6.812 -0.4243 -0.0684  0.4952
  430SOL     ow 1717   1.575   1.174   2.591 -0.1551  0.2755 -0.4527
  430SOL     hw 1718   1.590   1.118   2.514 -0.1057 -0.8667  0.3687
  430SOL     hw 1719   1.654   1.228   2.596 -0.7192  1.3125 -1.9626
  430SOL     vw 1720   1.588   1.173   2.581 -0.2230  0.2617 -0.5437
  431SOL     ow 1721   0.608   3.381   3.047 -0.4595  0.3274 -0.2249
  431SOL     hw 1722   0.669   3.454   3.056 -1.5528  1.2145  0.2407
  431SOL     hw 1723   0.655   3.316   2.995  1.0217  0.8136  0.4681
  431SOL     vw 1724   0.622   3.382   3.041 -0.4083  0.5084 -0.0721
  432SOL     ow 1725   4.258   3.416   3.749  0.1004  0.1486 -0.7833
  432SOL     hw 1726   4.210   3.432   3.830 -0.6880 -0.5900 -1.0826
  432SOL     hw 1727   4.195   3.371   3.693  1.8088 -3.0739 -0.3552
  432SOL     vw 1728   4.243   3.412   3.752  0.2217 -0.3740 -0.7664
  433SOL     ow 1729   3.778   2.278   4.314  0.6791  0.2374  0.2099
  433SOL     hw 1730   3.741   2.366   4.328  1.6272  0.3895  2.0611
  433SOL     hw 1731   3.813   2.253   4.399  1.3788 -1.5170 -0.5464
  433SOL     vw 1732   3.778   2.287   4.327  0.8965  0.0261  0.3541
  434SOL     ow 1733   5.812   6.378   1.267  0.0481 -0.1290  0.1805
  434SOL     hw 1734   5.810   6.326   1.347  1.6534 -0.0260  0.3134
  434SOL     hw 1735   5.899   6.363   1.230  0.3051  1.8837 -0.1477
  434SOL     vw 1736   5.823   6.369   1.273  0.2940  0.1500  0.1547
  435SOL     ow 1737   4.481   1.961   6.121 -0.2695 -0.2760 -0.3128
  435SOL     hw 1738   4.544   1.973   6.050 -2.0334  1.3626 -1.6882
  435SOL     hw 1739   4.440   1.876   6.102 -0.5943  0.0625 -1.2007
  435SOL     vw 1740   4.484   1.951   6.109 -0.5453 -0.0151 -0.6113
  436SOL     ow 1741   0.297   4.039   1.366  0.3383 -0.8081  0.3455
  436SOL     hw 1742   0.249   3.999   1.438  1.5977 -0.3018  1.5012
  436SOL     hw 1743   0.228   4.074   1.309 -0.7211  0.9582  2.5433
  436SOL     vw 1744   0.281   4.038   1.368  0.3647 -0.5083  0.7880
  437SOL     ow 1745   3.978   0.282   5.284  0.0168 -0.0620  0.9718
  437SOL     hw 1746   3.968   0.303   5.377  0.3085  1.0030  0.7804
  437SOL     hw 1747   4.073   0.275   5.272 -0.0721 -1.7410  1.0592
  437SOL     vw 1748   3.989   0.284   5.295  0.0436 -0.1430  0.9580
  438SOL     ow 1749   3.657   5.475   0.370 -0.8122 -0.4814 -0.1350
  438SOL     hw 1750   3.646   5.516   0.285  1.5005 -0.3998 -0.4647
  438SOL     hw 1751   3.670   5.548   0.431  2.7988 -0.5467 -0.6420
  438SOL     vw 1752   3.657   5.490   0.367 -0.0306 -0.4792 -0.2454
  439SOL     ow 1753   4.948   6.010   2.728  0.3309 -0.6019  0.7589
  439SOL     hw 1754   4.868   5.958   2.732  0.9629 -1.7332 -0.3129
  439SOL     hw 1755   4.918   6.099   2.712 -0.7352 -0.9238  0.8796
  439SOL     vw 1756   4.933   6.015   2.726  0.2735 -0.7937  0.6335
  440SOL     ow 1757   2.626   2.984   2.235 -0.1900 -0.5192 -0.0769
  440SOL     hw 1758   2.576   2.996   2.154  0.8929 -1.4694 -0.9148
  440SOL     hw 1759   2.669   3.069   2.249  1.1133 -0.8864 -1.5700
  440SOL     vw 1760   2.625   2.997   2.226  0.1247 -0.6927 -0.3843
  441SOL     ow 1761   5.520   3.701   6.790  0.9859 -0.7752 -0.2159
  441SOL     hw 1762   5.508   3.762   6.863 -2.5486 -1.7597  0.1783
  441SOL     hw 1763   5.484   3.747   6.714 -1.9837 -2.2980  0.1388
  441SOL     vw 1764   5.514   3.715   6.790  0.1278 -1.1060 -0.1173
  442SOL     ow 1765   3.020   1.168   2.832  0.0138  0.9458 -0.2229
  442SOL     hw 1766   3.042   1.258   2.855 -0.2494  0.8407  0.4906
  442SOL     hw 1767   2.951   1.144   2.894  1.0690 -0.2111  0.5533
  442SOL     vw 1768   3.014   1.177   2.843  0.1183  0.7793 -0.0265
  443SOL     ow 1769   6.368   5.094   2.388 -0.2243 -0.4380  0.0486
  443SOL     hw 1770   6.299   5.038   2.353 -1.8198  1.3008  0.2208
  443SOL     hw 1771   6.437   5.093   2.322 -0.1226 -2.6733  0.1277
  443SOL     vw 1772   6.368   5.087   2.375 -0.4215 -0.5035  0.0817
  444SOL     ow 1773   5.027   5.951   0.394  0.4167  0.2838 -0.2074
  444SOL     hw 1774   4.991   5.892   0.327  0.1176  1.1777 -0.8579
  444SOL     hw 1775   5.099   5.996   0.349  1.8348 -0.8512  0.8174
  444SOL     vw 1776   5.032   5.949   0.379  0.5646  0.2518 -0.1580
  445SOL     ow 1777   4.524   6.363   3.081  0.2212  0.2254  0.4484
  445SOL     hw 1778   4.541   6.454   3.106  1.7203 -0.0007  0.3618
  445SOL     hw 1779   4.547   6.312   3.159  1.9516 -0.2500 -0.3205
  445SOL     vw 1780   4.529   6.369   3.095  0.6473  0.1330  0.3355
  446SOL     ow 1781   5.707   5.460   0.221  0.1949 -0.1645  0.2901
  446SOL     hw 1782   5.680   5.459   0.129 -0.0242  0.5979  0.3353
  446SOL     hw 1783   5.795   5.497   0.220  0.5026 -0.8886  0.3181
  446SOL     vw 1784   5.715   5.465   0.209  0.2067 -0.1593  0.2998
  447SOL     ow 1785   2.313   6.269   5.141 -0.0744  0.0123  0.0420
  447SOL     hw 1786   2.252   6.255   5.069 -1.3735  0.7937  0.9343
  447SOL     hw 1787   2.400   6.258   5.103 -0.7482 -0.2396 -1.4699
  447SOL     vw 1788   2.316   6.265   5.127 -0.3347  0.0823 -0.0401
  448SOL     ow 1789   0.739   5.174   2.590 -0.1506 -0.0576 -0.0423
  448SOL     hw 1790   0.677   5.175   2.517 -0.6634 -1.2761  0.3393
  448SOL     hw 1791   0.684   5.176   2.669  0.2939 -0.8327  0.3002
  448SOL     vw 1792   0.723   5.174   2.591 -0.1597 -0.3207  0.0532
  449SOL     ow 1793   3.506   2.577   4.947  1.0291 -0.0252  0.0640
  449SOL     hw 1794   3.549   2.579   4.861  0.6502 -0.6635 -0.1503
  449SOL     hw 1795   3.497   2.484   4.966  1.5313  0.1112  1.0179
  449SOL     vw 1796   3.511   2.565   4.938  1.0455 -0.0913  0.1616
  450SOL     ow 1797   3.071   4.773   3.063 -0.4789 -0.4235  0.3636
  450SOL     hw 1798   3.092   4.771   3.157 -0.7159  0.0554  0.4277
  450SOL     hw 1799   3.069   4.680   3.038  1.4085 -0.5091  0.4022
  450SOL     vw 1800   3.073   4.760   3.072 -0.2612 -0.3717  0.3772
  451SOL     ow 1801   6.364   4.288   4.222  0.2702  0.4835 -0.8145
  451SOL     hw 1802   6.441   4.313   4.171  1.5416 -0.0105  0.7930
  451SOL     hw 1803   6.390   4.301   4.313 -1.5304  0.2233 -0.2262
  451SOL     vw 1804   6.378   4.293   4.227  0.2000  0.3839 -0.5248
  452SOL     ow 1805   6.095   4.447   2.357  0.4403 -0.4097  0.9138
  452SOL     hw 1806   6.182   4.462   2.394  0.2900  0.2686  1.0062
  452SOL     hw 1807   6.093   4.354   2.337  1.0848 -0.4844  1.1803
  452SOL     vw 1808   6.106   4.437   2.359  0.5054 -0.3300  0.9612
  453SOL     ow 1809   1.429   2.879   6.528 -0.1738 -0.3286 -0.1717
  453SOL     hw 1810   1.375   2.897   6.604  1.5844 -1.6242  1.4749
  453SOL     hw 1811   1.503   2.938   6.536 -1.4203  1.7756 -2.6619
  453SOL     vw 1812   1.431   2.889   6.539 -0.1063 -0.2220 -0.2832
  454SOL     ow 1813   2.486   4.012   1.781 -0.4393 -0.4513  0.1641
  454SOL     hw 1814   2.562   4.068   1.766 -0.5004  0.2084  1.9883
  454SOL     hw 1815   2.411   4.072   1.778 -0.9079 -1.0763 -1.5206
  454SOL     vw 1816   2.486   4.027   1.779 -0.5094 -0.4466  0.1825
  455SOL     ow 1817   2.901   4.008   0.988  0.1328 -0.0998  0.1934
  455SOL     hw 1818   2.930   3.921   1.015 -1.3847 -0.3405  1.1593
  455SOL     hw 1819   2.889   4.000   0.893  0.3387 -0.8359  0.2199
  455SOL     vw 1820   2.904   3.995   0.979 -0.0402 -0.2288  0.3243
  456SOL     ow 1821   5.249   1.084   4.295  0.0971 -0.0652  0.0578
  456SOL     hw 1822   5.317   1.152   4.299  2.9189 -2.5661 -0.9809
  456SOL     hw 1823   5.280   1.024   4.226 -2.0652 -2.5120  1.0559
  456SOL     vw 1824   5.262   1.085   4.286  0.1838 -0.7179  0.0527
  457SOL     ow 1825   3.117   0.906   3.706  0.2724 -0.1455 -0.1736
  457SOL     hw 1826   3.145   0.815   3.701 -3.2577 -1.7391  3.3695
  457SOL     hw 1827   3.052   0.915   3.636 -0.2872 -0.7873  0.2517
  457SOL     vw 1828   3.112   0.895   3.696 -0.2673 -0.4404  0.3499
  458SOL     ow 1829   4.812   1.699   4.192  0.3705  0.0516  0.4542
  458SOL     hw 1830   4.834   1.723   4.102  0.3328  0.8039  0.6352
  458SOL     hw 1831   4.891   1.658   4.226  0.1541 -0.8807 -0.1336
  458SOL     vw 1832   4.825   1.697   4.184  0.3369  0.0278  0.4008
  459SOL     ow 1833   5.460   1.923   3.837  0.1319  0.0465 -0.3216
  459SOL     hw 1834   5.467   1.959   3.749  1.8750 -1.4830 -0.8840
  459SOL     hw 1835   5.534   1.962   3.884  0.5885 -0.8915 -0.2415
  459SOL     vw 1836   5.471   1.933   3.832  0.4222 -0.2791 -0.3853
  460SOL     ow 1837   6.396   0.253   2.189  0.5962 -0.1022  0.2005
  460SOL     hw 1838   6.449   0.325   2.224 -1.1293  2.0253 -1.3087
  460SOL     hw 1839   6.437   0.174   2.225  3.2836  1.5189  1.0323
  460SOL     vw 1840   6.409   0.252   2.198  0.7231  0.3924  0.1111
  461SOL     ow 1841   1.245   0.751   0.452  0.3929 -0.8893  0.1411
  461SOL     hw 1842   1.222   0.751   0.544 -1.2020  2.1318 -0.1403
  461SOL     hw 1843   1.177   0.700   0.410 -0.9924  0.7399  0.3054
  461SOL     vw 1844   1.233   0.745   0.458 -0.0003 -0.2758  0.1256
  462SOL     ow 1845   6.354   3.661   6.163  0.8252  0.0463  0.2454
  462SOL     hw 1846   6.262   3.680   6.142  0.8737 -0.0005 -0.0179
  462SOL     hw 1847   6.363   3.685   6.255  0.7601  0.8171  0.0579
  462SOL     vw 1848   6.343   3.666   6.172  0.8230  0.1417  0.1860
  463SOL     ow 1849   4.743   6.730   6.306 -0.2966  0.1771 -0.4274
  463SOL     hw 1850   4.807   6.712   6.237 -0.8833 -0.2464 -0.8708
  463SOL     hw 1851   4.705   6.645   6.326 -0.0524  0.2813  0.5098
  463SOL     vw 1852   4.746   6.716   6.299 -0.3417  0.1347 -0.3622
  464SOL     ow 1853   0.502   2.577   0.347 -0.5869 -0.4989  0.0509
  464SOL     hw 1854   0.445   2.645   0.381 -0.4931 -0.7014  0.6217
  464SOL     hw 1855   0.553   2.620   0.278  0.6040  0.4391  1.4733
  464SOL     vw 1856   0.501   2.591   0.342 -0.4174 -0.4017  0.3139
  465SOL     ow 1857   1.769   2.829   3.810  0.2175  0.0980 -0.2657
  465SOL     hw 1858   1.735   2.761   3.751  0.0482 -0.1853  0.1530
  465SOL     hw 1859   1.798   2.899   3.752  2.0223 -1.0389 -0.8107
  465SOL     vw 1860   1.768   2.830   3.795  0.4333 -0.0894 -0.2824
  466SOL     ow 1861   0.801   2.090   6.475  0.4568 -0.0762 -0.1605
  466SOL     hw 1862   0.713   2.125   6.494  0.9935  0.5163  1.4142
  466SOL     hw 1863   0.816   2.025   6.544  1.5781  0.4541  0.1206
  466SOL     vw 1864   0.791   2.086   6.487  0.6756  0.0720  0.0839
  467SOL     ow 1865   5.918   1.233   2.091 -0.7764 -0.1348 -0.4668
  467SOL     hw 1866   5.951   1.144   2.103 -0.6578 -0.0820 -0.3844
  467SOL     hw 1867   5.947   1.279   2.170  2.5998  0.9977 -2.1747
  467SOL     vw 1868   5.926   1.227   2.103 -0.3152  0.0215 -0.6812
  468SOL     ow 1869   5.444   2.792   4.852 -0.4402  0.2678  0.4077
  468SOL     hw 1870   5.532   2.760   4.832 -0.6811 -0.0185 -0.2311
  468SOL     hw 1871   5.386   2.740   4.796 -0.8639  1.6104 -0.4399
  468SOL     vw 1872   5.448   2.781   4.842 -0.5281  0.4072  0.2115
  469SOL     ow 1873   5.928   3.654   2.268 -0.0089 -0.1670  0.1787
  469SOL     hw 1874   5.952   3.741   2.236 -0.2430 -0.5122 -0.9765
  469SOL     hw 1875   5.865   3.622   2.204  0.2177 -1.2660  0.4879
  469SOL     vw 1876   5.923   3.662   2.256 -0.0100 -0.3576  0.0671
  470SOL     ow 1877   5.320   0.045   4.696  0.1596  0.1648  0.3847
  470SOL     hw 1878   5.358  -0.042   4.700  1.2966  0.6894  2.2873
  470SOL     hw 1879   5.387   0.102   4.732 -0.8353  1.7446 -0.1479
  470SOL     vw 1880   5.334   0.041   4.701  0.1783  0.4424  0.5658
  471SOL     ow 1881   5.012   1.979   2.338 -0.2990 -0.4259  0.6016
  471SOL     hw 1882   4.922   1.981   2.370 -0.2681  1.1346  0.6636
  471SOL     hw 1883   5.060   1.926   2.402 -1.0943 -0.9557  0.7628
  471SOL     vw 1884   5.007   1.972   2.351 -0.4001 -0.2899  0.6309
  472SOL     ow 1885   3.010   1.461   4.867  0.6957  0.2926  0.5386
  472SOL     hw 1886   2.918   1.472   4.892  0.1290 -1.3709 -0.6515
  472SOL     hw 1887   3.054   1.442   4.950 -0.6637 -2.3721  0.7624
  472SOL     vw 1888   3.003   1.460   4.881  0.4418 -0.2784  0.4113
  473SOL     ow 1889   0.699   5.863   3.163 -0.2799 -0.1611 -0.0881
  473SOL     hw 1890   0.643   5.787   3.175  0.3328 -0.4243  1.4585
  473SOL     hw 1891   0.646   5.937   3.191 -0.2004 -0.2848  0.3988
  473SOL     vw 1892   0.685   5.863   3.168 -0.1886 -0.2122  0.1801
  474SOL     ow 1893   4.643   3.886   0.102 -0.2220  0.2534  0.1156
  474SOL     hw 1894   4.585   3.848   0.168 -0.2110  0.2044  0.0980
  474SOL     hw 1895   4.612   3.975   0.090  0.4134  0.5952  0.9348
  474SOL     vw 1896   4.631   3.892   0.109 -0.1371  0.2919  0.2214
  475SOL     ow 1897   3.381   1.708   3.467  0.8477 -0.3159  0.8375
  475SOL     hw 1898   3.377   1.802   3.483  2.0272  0.0227 -0.5935
  475SOL     hw 1899   3.474   1.691   3.450  0.3461 -1.2946 -1.2658
  475SOL     vw 1900   3.393   1.718   3.467  0.9372 -0.4004  0.3712
  476SOL     ow 1901   0.293   1.395   5.045 -0.3996  0.2904  0.5839
  476SOL     hw 1902   0.231   1.417   5.114  0.8554 -0.4752  1.9984
  476SOL     hw 1903   0.355   1.468   5.044  0.1312 -0.1478  0.9414
  476SOL     vw 1904   0.293   1.408   5.054 -0.1640  0.1315  0.8175
  477SOL     ow 1905   4.475   2.714   5.799 -0.3382 -0.1946 -0.2017
  477SOL     hw 1906   4.398   2.770   5.799  1.8212  3.0796 -1.2519
  477SOL     hw 1907   4.489   2.691   5.891 -1.3995  0.8879  0.2522
  477SOL     vw 1908   4.467   2.718   5.811 -0.1934  0.3802 -0.2804
  478SOL     ow 1909   1.327   1.784   3.461  0.0846  0.0264 -0.0001
  478SOL     hw 1910   1.403   1.731   3.437  0.1666  0.4128 -0.6105
  478SOL     hw 1911   1.349   1.873   3.433 -0.0974  0.3740  0.9225
  478SOL     vw 1912   1.340   1.789   3.454  0.0713  0.1232  0.0411
  479SOL     ow 1913   2.966   2.861   5.599 -0.7244 -0.1053 -0.2478
  479SOL     hw 1914   3.019   2.781   5.591  2.2543  1.7269 -0.1607
  479SOL     hw 1915   2.999   2.919   5.531 -0.3006  2.3269  1.9056
  479SOL     vw 1916   2.977   2.858   5.589 -0.2755  0.4574  0.0477
  480SOL     ow 1917   0.083   5.150   2.777  0.1851  0.3434 -0.4607
  480SOL     hw 1918   0.117   5.147   2.688  0.2153 -0.8809 -0.4297
  480SOL     hw 1919   0.045   5.063   2.791 -0.2990  0.6975  0.5340
  480SOL     vw 1920   0.082   5.138   2.767  0.1252  0.2286 -0.3253
  481SOL     ow 1921   1.446   0.885   3.434 -0.3748 -0.1580 -0.6463
  481SOL     hw 1922   1.516   0.913   3.376  1.6106  0.3094  1.8079
  481SOL     hw 1923   1.474   0.800   3.466 -1.0214 -0.0567  0.2197
  481SOL     vw 1924   1.459   0.878   3.431 -0.1981 -0.0829 -0.2083
  482SOL     ow 1925   5.431   0.129   4.419  0.0411  0.0171 -0.2905
  482SOL     hw 1926   5.495   0.095   4.357  1.0820  0.6187  0.4320
  482SOL     hw 1927   5.425   0.222   4.399  0.3819  0.2140  0.4980
  482SOL     vw 1928   5.439   0.137   4.408  0.2234  0.1225 -0.0913
  483SOL     ow 1929   4.998   6.737   6.471  0.3998 -0.5734  0.7536
  483SOL     hw 1930   5.019   6.675   6.401  2.3757 -0.3295  1.0734
  483SOL     hw 1931   5.083   6.762   6.507 -0.5142  0.1820  2.4984
  483SOL     vw 1932   5.012   6.732   6.466  0.5398 -0.4418  1.0262
  484SOL     ow 1933   4.022   4.830   2.780 -0.0208 -0.2497 -0.2232
  484SOL     hw 1934   3.955   4.895   2.760 -1.2164 -1.1512  0.6559
  484SOL     hw 1935   4.087   4.877   2.831 -1.2353  0.1074  1.0385
  484SOL     vw 1936   4.022   4.844   2.784 -0.3388 -0.3214  0.0592
  485SOL     ow 1937   2.313   1.772   2.301  0.2642  0.1282  0.5650
  485SOL     hw 1938   2.353   1.721   2.232 -0.2419 -0.0328  0.3888
  485SOL     hw 1939   2.219   1.751   2.297  0.3625 -0.7981  2.0515
  485SOL     vw 1940   2.306   1.763   2.292  0.2104 -0.0153  0.7380
  486SOL     ow 1941   4.453   2.459   5.626  0.5809 -0.4008 -0.3340
  486SOL     hw 1942   4.467   2.388   5.688  2.9758  0.8382  0.6966
  486SOL     hw 1943   4.414   2.417   5.549  0.8428 -2.5914  0.6595
  486SOL     vw 1944   4.450   2.444   5.624  0.9315 -0.5263 -0.0670
  487SOL     ow 1945   1.576   4.568   1.897  0.0207  0.0028 -0.0690
  487SOL     hw 1946   1.642   4.603   1.957  0.1786 -0.7060  0.1844
  487SOL     hw 1947   1.587   4.473   1.902 -0.2761 -0.0833 -0.8753
  487SOL     vw 1948   1.586   4.560   1.906  0.0024 -0.1023 -0.1420
  488SOL     ow 1949   2.069   2.730   4.372  0.1530  0.2345 -0.0923
  488SOL     hw 1950   1.990   2.780   4.391 -1.0654 -1.7648  0.3014
  488SOL     hw 1951   2.074   2.730   4.276 -0.7174 -0.1575 -0.1521
  488SOL     vw 1952   2.059   2.737   4.362 -0.1225 -0.0809 -0.0484
  489SOL     ow 1953   4.208   3.925   2.720  0.1702  0.1228 -0.5776
  489SOL     hw 1954   4.200   3.882   2.635 -0.8309  0.1327 -0.4956
  489SOL     hw 1955   4.276   3.991   2.707 -1.6144  1.7879 -2.0899
  489SOL     vw 1956   4.216   3.928   2.707 -0.1972  0.3438 -0.7664
  490SOL     ow 1957   3.163   5.664   5.458  0.1048 -0.2946  0.3937
  490SOL     hw 1958   3.135   5.596   5.519  0.4505  0.3321  1.2670
  490SOL     hw 1959   3.082   5.698   5.421 -0.1551 -0.1186  1.1197
  490SOL     vw 1960   3.149   5.659   5.461  0.1161 -0.1888  0.6049
  491SOL     ow 1961   4.717   2.321   3.185  0.0547 -0.0441  0.3606
  491SOL     hw 1962   4.756   2.402   3.153  0.6139  0.0138  1.1517
  491SOL     hw 1963   4.702   2.269   3.106 -0.3281  0.8253 -0.1543
  491SOL     vw 1964   4.720   2.325   3.170  0.0780  0.0782  0.3970
  492SOL     ow 1965   1.105   2.960   1.550  0.0412  0.0183 -0.0244
  492SOL     hw 1966   1.041   2.974   1.620 -0.6981  1.9761 -1.0089
  492SOL     hw 1967   1.123   3.048   1.517  1.5568 -0.7217 -1.2743
  492SOL     vw 1968   1.099   2.974   1.555  0.1436  0.1789 -0.3191
  493SOL     ow 1969   4.460   4.173   4.473  0.0095  0.4181  0.0910
  493SOL     hw 1970   4.407   4.096   4.454 -0.0963  0.5398 -0.1123
  493SOL     hw 1971   4.522   4.178   4.401  1.5225 -0.7819  1.2477
  493SOL     vw 1972   4.461   4.163   4.461  0.1953  0.2759  0.2170
  494SOL     ow 1973   3.824   6.208   6.499  0.4132 -0.1505  0.0983
  494SOL     hw 1974   3.901   6.257   6.471 -0.0862  0.4725 -0.2169
  494SOL     hw 1975   3.750   6.266   6.477  0.0107  1.4229  4.5916
  494SOL     vw 1976   3.824   6.222   6.492  0.2942  0.1392  0.6497
  495SOL     ow 1977   0.140   5.531   1.564 -0.1445  0.4387  0.3195
  495SOL     hw 1978   0.221   5.581   1.564  0.5314 -0.6408  0.4666
  495SOL     hw 1979   0.108   5.535   1.654 -0.5054  1.2419  0.1641
  495SOL     vw 1980   0.146   5.538   1.576 -0.1030  0.4022  0.3184
  496SOL     ow 1981   5.259   5.983   6.223  0.4280  0.2265 -0.6475
  496SOL     hw 1982   5.302   5.899   6.208  0.9203  0.3512  0.0450
  496SOL     hw 1983   5.174   5.974   6.179  0.1249 -0.9354  0.1384
  496SOL     vw 1984   5.254   5.971   6.215  0.4530  0.0896 -0.4523
  497SOL     ow 1985   5.568   4.710   4.384 -0.1089  0.4874 -0.0902
  497SOL     hw 1986   5.632   4.731   4.453 -0.1452 -0.0847  0.1218
  497SOL     hw 1987   5.495   4.770   4.401  1.4463  3.1861 -2.0168
  497SOL     vw 1988   5.567   4.721   4.396  0.0916  0.7677 -0.3166
  498SOL     ow 1989   1.564   0.901   1.919 -0.3749  0.3380 -0.1294
  498SOL     hw 1990   1.656   0.881   1.903 -0.2268  0.8792  0.0020
  498SOL     hw 1991   1.557   0.995   1.902 -0.5042  0.6841  1.6224
  498SOL     vw 1992   1.575   0.911   1.915 -0.3724  0.4550  0.1191
  499SOL     ow 1993   4.705   6.543   0.254  0.4776 -0.0263 -0.2996
  499SOL     hw 1994   4.629   6.552   0.195  1.1172 -0.0746 -1.1546
  499SOL     hw 1995   4.674   6.577   0.338 -0.0425  1.3404 -1.0187
  499SOL     vw 1996   4.691   6.548   0.257  0.4933  0.1476 -0.5073
  500SOL     ow 1997   2.729   5.660   0.038 -0.6368  0.6679 -0.8732
  500SOL     hw 1998   2.720   5.580  -0.014 -0.6207 -1.3801  2.0215
  500SOL     hw 1999   2.643   5.673   0.077 -0.3794  1.5255 -0.5778
  500SOL     vw 2000   2.716   5.651   0.037 -0.6008  0.5109 -0.4523
  501SOL     ow 2001   1.196   2.472   0.692 -0.1821 -0.6290  0.2247
  501SOL     hw 2002   1.197   2.377   0.700  1.6429 -0.6704 -0.1328
  501SOL     hw 2003   1.105   2.497   0.708 -0.4229 -2.3038  1.7327
  501SOL     vw 2004   1.184   2.463   0.695  0.0269 -0.8556  0.3765
  502SOL     ow 2005   3.924   1.361   1.563 -0.7892  0.5465  0.1493
  502SOL     hw 2006   3.931   1.335   1.655 -0.3686 -0.5791 -0.1781
  502SOL     hw 2007   3.954   1.452   1.562 -1.5090  0.8164  1.2319
  502SOL     vw 2008   3.929   1.369   1.575 -0.8286  0.4336  0.2490
  503SOL     ow 2009   1.233   1.682   2.064 -0.0048  0.4959 -0.2626
  503SOL     hw 2010   1.247   1.697   2.157  1.3369 -0.6273 -0.2562
  503SOL     hw 2011   1.321   1.683   2.026 -0.5276  0.8724 -1.5125
  503SOL     vw 2012   1.246   1.684   2.071  0.1033  0.3974 -0.4265
  504SOL     ow 2013   0.171   6.153   4.607 -0.0618  0.1219 -0.0368
  504SOL     hw 2014   0.178   6.225   4.545  0.3219  0.6633  0.6149
  504SOL     hw 2015   0.142   6.078   4.555 -0.7021  0.8036 -0.6807
  504SOL     vw 2016   0.168   6.152   4.592 -0.0957  0.2835 -0.0358
  505SOL     ow 2017   1.546   4.665   3.320  0.0707 -0.5994  0.4005
  505SOL     hw 2018   1.462   4.709   3.310 -0.2639 -0.8146  1.9778
  505SOL     hw 2019   1.523   4.576   3.346  0.7545 -1.5418 -1.9925
  505SOL     vw 2020   1.532   4.659   3.322  0.1168 -0.7520  0.2928
  506SOL     ow 2021   1.251   5.389   0.521 -0.2019 -0.2973  0.0403
  506SOL     hw 2022   1.277   5.309   0.474 -2.9201 -0.3290 -1.5879
  506SOL     hw 2023   1.297   5.459   0.475 -0.7532 -0.5992 -1.0176
  506SOL     vw 2024   1.261   5.388   0.509 -0.6334 -0.3412 -0.3141
  507SOL     ow 2025   3.682   3.878   1.622 -0.1704  0.3022  0.6146
  507SOL     hw 2026   3.603   3.838   1.660  0.0286  0.3036  1.0363
  507SOL     hw 2027   3.739   3.893   1.697  0.8567 -1.0554  0.1377
  507SOL     vw 2028   3.679   3.875   1.637 -0.0086  0.1234  0.6073
  508SOL     ow 2029   5.887   2.942   0.994 -0.5647  0.2343  0.3192
  508SOL     hw 2030   5.833   2.869   1.024 -1.5999  1.0121  0.4159
  508SOL     hw 2031   5.831   2.990   0.933 -0.4360  1.7256  1.3081
  508SOL     vw 2032   5.872   2.939   0.990 -0.6845  0.5337  0.4625
  509SOL     ow 2033   2.604   5.628   5.810 -1.0025 -0.3099  0.0193
  509SOL     hw 2034   2.529   5.628   5.750 -1.0873 -2.2402  0.0835
  509SOL     hw 2035   2.665   5.565   5.773  0.7617  1.3874 -0.1565
  509SOL     vw 2036   2.602   5.620   5.797 -0.7808 -0.3405  0.0045
  510SOL     ow 2037   0.637   5.718   4.903  0.2623  0.3500 -0.1407
  510SOL     hw 2038   0.554   5.766   4.896  0.3573  0.6157  0.5073
  510SOL     hw 2039   0.619   5.648   4.966  0.3657  0.0457 -0.4459
  510SOL     vw 2040   0.624   5.715   4.910  0.2885  0.3448 -0.0956
  511SOL     ow 2041   2.001   5.510   1.571  0.2325 -1.1009  0.1584
  511SOL     hw 2042   2.092   5.487   1.590  0.6539 -0.1447 -0.5875
  511SOL     hw 2043   2.004   5.550   1.484 -0.8981 -0.9986  0.1501
  511SOL     vw 2044   2.014   5.512   1.562  0.1389 -0.9613  0.0589
  512SOL     ow 2045   5.854   6.435   4.065  0.2618  0.4179 -0.6736
  512SOL     hw 2046   5.904   6.420   4.145  0.7062  0.3099 -0.9709
  512SOL     hw 2047   5.822   6.348   4.041 -0.8766  0.6171  0.0344
  512SOL     vw 2048   5.856   6.422   4.073  0.1702  0.4299 -0.6194
  513SOL     ow 2049   0.340   5.337   2.918  0.1653 -0.0222  0.1042
  513SOL     hw 2050   0.403   5.345   2.846  1.3273 -2.5490  0.7202
  513SOL     hw 2051   0.387   5.289   2.986 -2.1066 -1.1158  1.0231
  513SOL     vw 2052   0.355   5.332   2.917  0.0189 -0.4997  0.3067
  514SOL     ow 2053   1.079   0.591   6.692 -0.5803  0.0616 -0.1461
  514SOL     hw 2054   1.116   0.517   6.741  2.2292  0.5943 -1.2353
  514SOL     hw 2055   1.125   0.667   6.725 -2.6865  1.2390  0.2185
  514SOL     vw 2056   1.090   0.591   6.703 -0.4874  0.2873 -0.2415
  515SOL     ow 2057   3.904   1.537   5.146  0.6453 -0.4974  0.4504
  515SOL     hw 2058   3.827   1.514   5.198  1.1167  0.3954  1.6134
  515SOL     hw 2059   3.925   1.458   5.097 -0.6953 -0.9162  0.5051
  515SOL     vw 2060   3.896   1.524   5.147  0.5307 -0.4349  0.6111
  516SOL     ow 2061   0.289   2.987   2.020  0.0055 -0.0076 -0.2877
  516SOL     hw 2062   0.212   2.958   1.971 -0.9998  1.0094  0.6213
  516SOL     hw 2063   0.360   2.930   1.991 -0.2760  1.1889 -3.6802
  516SOL     vw 2064   0.288   2.976   2.010 -0.1643  0.2844 -0.6154
  517SOL     ow 2065   2.788   6.691   1.988  0.0223 -0.2187 -0.2276
  517SOL     hw 2066   2.706   6.689   1.939  0.5704 -0.4631 -1.1477
  517SOL     hw 2067   2.855   6.708   1.923  0.5349  1.8995  0.7631
  517SOL     vw 2068   2.786   6.693   1.973  0.1621  0.0284 -0.2183
  518SOL     ow 2069   2.363   5.735   3.726 -0.6817 -0.0669 -0.3333
  518SOL     hw 2070   2.338   5.828   3.719  0.7924  0.4987  1.1803
  518SOL     hw 2071   2.458   5.736   3.725 -0.6532 -1.6769 -1.1934
  518SOL     vw 2072   2.372   5.748   3.725 -0.4835 -0.2046 -0.2470
  519SOL     ow 2073   0.887   5.455   3.707  0.0997 -0.1364 -0.2868
  519SOL     hw 2074   0.967   5.409   3.680  0.3258 -0.4801  0.8747
  519SOL     hw 2075   0.907   5.488   3.795 -1.3102 -0.9831  0.4028
  519SOL     vw 2076   0.900   5.453   3.715 -0.0565 -0.2933 -0.0426
  520SOL     ow 2077   6.121   5.073   3.421  0.6674 -0.3216 -0.3008
  520SOL     hw 2078   6.111   5.030   3.336 -0.8292  4.6771 -3.0760
  520SOL     hw 2079   6.033   5.075   3.458  0.8741 -0.4694  0.1949
  520SOL     vw 2080   6.108   5.068   3.414  0.4971  0.3183 -0.6015
  521SOL     ow 2081   4.452   1.511   2.644  0.2342 -0.0973  0.0856
  521SOL     hw 2082   4.446   1.493   2.550  1.9221 -0.5942  0.0366
  521SOL     hw 2083   4.424   1.602   2.653  0.3837  0.0612 -0.9483
  521SOL     vw 2084   4.447   1.521   2.633  0.4768 -0.1419 -0.0572
  522SOL     ow 2085   4.729   5.866   5.338 -0.0364 -0.1055 -0.0514
  522SOL     hw 2086   4.791   5.907   5.398  0.3617  0.7596 -1.0210
  522SOL     hw 2087   4.643   5.899   5.364 -0.1616 -1.4574  1.4215
  522SOL     vw 2088   4.726   5.875   5.349 -0.0005 -0.1698  0.0148
  523SOL     ow 2089   0.498   4.860   3.670  0.2426  0.2046  0.5058
  523SOL     hw 2090   0.525   4.913   3.595  0.8116 -0.8441 -0.0532
  523SOL     hw 2091   0.579   4.838   3.714 -0.0163  0.0752  0.9207
  523SOL     vw 2092   0.512   4.864   3.666  0.2836  0.0494  0.4867
  524SOL     ow 2093   3.761   2.261   0.107  0.6834 -0.2347 -0.0526
  524SOL     hw 2094   3.700   2.189   0.123  1.6452 -1.3122 -1.0543
  524SOL     hw 2095   3.709   2.340   0.121 -0.7968 -1.1205 -0.3342
  524SOL     vw 2096   3.746   2.262   0.111  0.6151 -0.4939 -0.2219
  525SOL     ow 2097   4.885   3.563   2.864 -0.2754 -0.7805  0.4039
  525SOL     hw 2098   4.865   3.617   2.940  0.8178  2.9889 -1.7554
  525SOL     hw 2099   4.979   3.576   2.849 -0.6246 -0.6941 -2.0591
  525SOL     vw 2100   4.895   3.572   2.872 -0.1774 -0.2719 -0.2060
  526SOL     ow 2101   0.846   0.683   5.828  0.6058 -0.6653 -0.5086
  526SOL     hw 2102   0.865   0.720   5.742  3.6089 -1.6563 -0.3955
  526SOL     hw 2103   0.842   0.758   5.887  1.5591 -0.1669 -1.0611
  526SOL     vw 2104   0.848   0.698   5.824  1.1278 -0.7303 -0.5670
  527SOL     ow 2105   2.002   4.262   0.611 -0.3235 -0.1035  0.2253
  527SOL     hw 2106   1.930   4.212   0.572  0.2301 -0.2692 -0.6125
  527SOL     hw 2107   1.959   4.318   0.676 -1.2612  0.0871 -0.5291
  527SOL     vw 2108   1.987   4.263   0.614 -0.3741 -0.1004  0.0152
  528SOL     ow 2109   5.997   2.522   5.672  0.2970 -0.0701 -0.9542
  528SOL     hw 2110   6.003   2.553   5.582 -1.1833 -0.2416 -1.1346
  528SOL     hw 2111   5.977   2.601   5.723  0.0118 -0.1507 -0.9381
  528SOL     vw 2112   5.995   2.537   5.667  0.0639 -0.1034 -0.9758
  529SOL     ow 2113   5.872   6.411   5.147  0.0026  0.0224  0.7377
  529SOL     hw 2114   5.837   6.386   5.232 -0.0692  1.9126  1.3167
  529SOL     hw 2115   5.859   6.334   5.092  0.9201 -1.5987  2.6603
  529SOL     vw 2116   5.866   6.398   5.151  0.1142  0.0579  1.0676
  530SOL     ow 2117   5.850   2.310   5.896  0.0991  0.2678  0.0075
  530SOL     hw 2118   5.816   2.220   5.898  2.5254 -0.8146 -2.0724
  530SOL     hw 2119   5.836   2.343   5.985 -0.3704 -2.3441  0.9846
  530SOL     vw 2120   5.843   2.303   5.908  0.3574 -0.2196 -0.1380
  531SOL     ow 2121   4.072   2.892   0.670 -0.0826  0.1754 -0.1706
  531SOL     hw 2122   4.042   2.832   0.738 -0.7181 -2.5600 -2.6488
  531SOL     hw 2123   4.167   2.887   0.674 -0.1179 -1.2021 -0.4308
  531SOL     vw 2124   4.080   2.883   0.679 -0.1709 -0.3672 -0.5319
  532SOL     ow 2125   6.204   2.070   4.634 -0.1290  0.4531 -0.1736
  532SOL     hw 2126   6.122   2.084   4.585 -0.7267  0.2911  0.7615
  532SOL     hw 2127   6.181   2.005   4.701  1.0591 -0.4285 -0.5995
  532SOL     vw 2128   6.190   2.064   4.636 -0.0510  0.3155 -0.1066
  533SOL     ow 2129   1.656   4.385   0.077  0.5255 -0.4387 -0.1605
  533SOL     hw 2130   1.660   4.467   0.127  0.3109 -0.6684  0.2324
  533SOL     hw 2131   1.619   4.321   0.138  0.4619 -0.7713 -0.5456
  533SOL     vw 2132   1.652   4.388   0.091  0.4888 -0.5128 -0.1595
  534SOL     ow 2133   4.862   0.436   3.552  0.3222  0.0822  0.2756
  534SOL     hw 2134   4.777   0.464   3.585 -1.0791 -0.3525 -2.6679
  534SOL     hw 2135   4.866   0.342   3.569 -0.2522 -0.0804 -0.4471
  534SOL     vw 2136   4.852   0.428   3.559  0.0615  0.0034 -0.2080
  535SOL     ow 2137   4.556   0.276   4.270 -0.6382 -0.0523 -0.1590
  535SOL     hw 2138   4.616   0.202   4.266  0.1865  0.6211 -0.4759
  535SOL     hw 2139   4.557   0.302   4.363 -0.4169 -0.0279 -0.1676
  535SOL     vw 2140   4.564   0.270   4.282 -0.5002  0.0398 -0.2024
  536SOL     ow 2141   0.204   4.221   0.464  0.2210  0.0107  0.6128
  536SOL     hw 2142   0.206   4.128   0.486 -1.4905 -0.3115 -0.4110
  536SOL     hw 2143   0.204   4.266   0.549 -0.0470 -0.9687  1.1363
  536SOL     vw 2144   0.204   4.215   0.478 -0.0401 -0.1609  0.5468
  537SOL     ow 2145   4.549   2.617   4.855 -0.0912 -0.1109  0.0946
  537SOL     hw 2146   4.484   2.616   4.926  1.6630  1.3878  1.8577
  537SOL     hw 2147   4.624   2.571   4.892  0.5291 -0.1504 -1.1964
  537SOL     vw 2148   4.550   2.611   4.870  0.2222  0.0817  0.1569
  538SOL     ow 2149   3.777   3.555   5.022  0.6061  0.0157 -0.7316
  538SOL     hw 2150   3.725   3.538   4.943 -1.2024  1.9696 -0.0567
  538SOL     hw 2151   3.865   3.525   5.000  0.4301  1.4612 -3.9043
  538SOL     vw 2152   3.782   3.549   5.009  0.3443  0.4643 -1.0610
  539SOL     ow 2153   1.841   5.786   3.049  0.3454 -0.1456 -0.2374
  539SOL     hw 2154   1.827   5.696   3.018  1.6045  0.0326 -1.4054
  539SOL     hw 2155   1.845   5.838   2.969 -3.0415  1.4391  0.4694
  539SOL     vw 2156   1.840   5.781   3.034  0.0647  0.0870 -0.2984
  540SOL     ow 2157   2.530   0.998   1.042  0.2585  0.6898  0.3419
  540SOL     hw 2158   2.479   1.012   1.122 -0.3299  3.0313 -0.3661
  540SOL     hw 2159   2.466   0.973   0.976  0.5910 -0.1280  0.3177
  540SOL     vw 2160   2.515   0.996   1.044  0.2248  0.8908  0.2453
  541poe    c31 2161   1.262   4.730   3.465 -0.8386 -0.0671 -0.1300
  541poe     o2 2162   1.327   4.765   3.345 -0.2276 -0.2520  0.1479
  541poe    c23 2163   1.305   4.903   3.326  0.3124 -0.0741  0.7629
  541poe    c23 2164   1.345   4.946   3.184 -0.1243 -0.8849  0.3874
  541poe     o2 2165   1.478   4.904   3.160 -0.1456 -0.8418  0.1931
  541poe    c23 2166   1.557   4.981   3.073 -0.0254 -0.4129  0.6765
  541poe    c23 2167   1.705   4.938   3.061  0.1236  0.2833 -0.1154
  541poe     o2 2168   1.767   4.905   3.183 -0.0164  0.5571  0.0313
  541poe    c23 2169   1.901   4.866   3.164 -0.0695  0.3364  0.1118
  541poe    c23 2170   1.944   4.805   3.299 -0.5366  0.1160  0.1634
  541poe     o2 2171   1.845   4.711   3.334 -0.2264 -0.2775 -0.0163
  541poe    c31 2172   1.897   4.598   3.402  0.8845  0.7414  0.8630
  542poe    c31 2173   6.540   5.990   5.049  0.3815  0.0315  0.3049
  542poe     o2 2174   6.589   6.051   4.932  0.7246 -0.3025  0.2697
  542poe    c23 2175   6.478   6.096   4.857  0.6577  0.4600  0.8148
  542poe    c23 2176   6.514   6.173   4.728 -0.0934 -0.1408  0.2421
  542poe     o2 2177   6.612   6.271   4.754 -0.2644  0.1354 -0.1545
  542poe    c23 2178   6.675   6.297   4.631  0.2895 -0.2399  0.0479
  542poe    c23 2179   6.764   6.422   4.643  0.2977 -0.2851  0.4552
  542poe     o2 2180   6.857   6.400   4.747  0.6334 -0.5194  0.1097
  542poe    c23 2181   6.937   6.515   4.760 -0.0096 -0.0558  0.0399
  542poe    c23 2182   7.055   6.476   4.851 -0.0684 -0.2420  0.0366
  542poe     o2 2183   7.083   6.342   4.820  0.0535 -0.1682 -0.1697
  542poe    c31 2184   7.204   6.287   4.868  0.0974  0.0824  0.0088
  543poe    c31 2185   6.166   5.678   6.530  0.3885 -0.3917 -0.4308
  543poe     o2 2186   6.244   5.795   6.517  0.0144 -0.0677  0.2210
  543poe    c23 2187   6.346   5.802   6.615  0.2238  0.0466 -0.0058
  543poe    c23 2188   6.399   5.945   6.592 -0.1360  0.1608 -0.1426
  543poe     o2 2189   6.441   5.944   6.458  0.7407  0.1086  0.1227
  543poe    c23 2190   6.447   6.076   6.410  0.4165  0.0597 -0.0554
  543poe    c23 2191   6.463   6.071   6.257  0.6135 -0.3029 -0.0222
  543poe     o2 2192   6.378   5.965   6.221 -0.2602  0.3003  0.2460
  543poe    c23 2193   6.279   6.009   6.130  0.3924  0.2243 -0.5097
  543poe    c23 2194   6.212   5.877   6.088  0.6482 -0.2263  0.4701
  543poe     o2 2195   6.192   5.808   6.209 -0.0241 -0.0251  0.4747
  543poe    c31 2196   6.065   5.746   6.217  0.0835 -0.3142 -0.0755
  544poe    c31 2197   5.944   4.469   2.055 -0.1352 -0.4535 -0.2728
  544poe     o2 2198   5.882   4.524   2.170 -0.3054 -0.9974 -0.0990
  544poe    c23 2199   5.765   4.451   2.198 -0.2368 -0.8871  0.4811
  544poe    c23 2200   5.726   4.504   2.338 -0.6371 -0.0606  0.0694
  544poe     o2 2201   5.824   4.560   2.422 -0.4712  0.5212 -0.5073
  544poe    c23 2202   5.797   4.531   2.557  0.6550 -0.2463 -0.4289
  544poe    c23 2203   5.894   4.613   2.643  0.0171  0.0692  0.0013
  544poe     o2 2204   6.027   4.609   2.597  0.2149 -0.2937  0.5935
  544poe    c23 2205   6.119   4.680   2.676 -0.0520  0.2457  0.4220
  544poe    c23 2206   6.245   4.700   2.590  0.0304 -0.3490  0.4008
  544poe     o2 2207   6.291   4.580   2.533  0.2990 -0.2743  0.4588
  544poe    c31 2208   6.390   4.616   2.439 -0.0294 -0.0755  0.1855
  545poe    c31 2209   6.550   4.413   1.221  0.1147 -0.2604 -0.2661
  545poe     o2 2210   6.437   4.350   1.277 -0.1685  0.4087 -0.0772
  545poe    c23 2211   6.374   4.278   1.173  0.0984  0.2180 -0.1087
  545poe    c23 2212   6.262   4.193   1.235 -0.0777  0.3890 -0.1897
  545poe     o2 2213   6.200   4.255   1.345  0.2198  0.3313  0.0124
  545poe    c23 2214   6.112   4.165   1.410  0.3027  0.0029 -0.3249
  545poe    c23 2215   6.072   4.231   1.544 -0.0687  0.2865 -0.5731
  545poe     o2 2216   6.179   4.310   1.591  0.1335 -0.3504  0.0656
  545poe    c23 2217   6.126   4.396   1.689  0.3976 -0.5221  0.3567
  545poe    c23 2218   6.247   4.464   1.757  0.0329  0.2810  0.2104
  545poe     o2 2219   6.348   4.525   1.680  0.0879  0.3023  0.2995
  545poe    c31 2220   6.473   4.518   1.746 -0.0084 -0.3487  0.4151
  546poe    c31 2221   6.816   6.670   2.107 -0.1961 -0.4542 -0.3217
  546poe     o2 2222   6.743   6.745   2.013  0.4464 -0.0450 -0.5030
  546poe    c23 2223   6.611   6.697   1.999  0.4079 -0.0035 -0.2930
  546poe    c23 2224   6.548   6.765   1.875 -0.7058  0.5790  0.5785
  546poe     o2 2225   6.584   6.901   1.888 -0.0054  0.4264  0.2660
  546poe    c23 2226   6.547   6.978   1.776  0.4640  0.0287 -0.1730
  546poe    c23 2227   6.578   7.127   1.801 -0.3267  0.0854  0.5299
  546poe     o2 2228   6.717   7.114   1.819 -0.2407 -0.1278 -0.2453
  546poe    c23 2229   6.767   7.218   1.900 -0.1888 -0.1611 -0.2349
  546poe    c23 2230   6.885   7.158   1.979 -0.2085  0.3864  0.2187
  546poe     o2 2231   6.852   7.028   2.020 -0.4042  0.3546 -0.0429
  546poe    c31 2232   6.950   6.996   2.116 -0.6231 -0.0525  0.0496
  547poe    c31 2233   5.983   4.473   5.342 -0.0447 -0.1764 -0.4627
  547poe     o2 2234   6.087   4.551   5.396  0.2248 -0.8233 -0.0517
  547poe    c23 2235   6.120   4.510   5.527 -0.1442 -0.5576  0.1239
  547poe    c23 2236   6.273   4.519   5.533 -0.1232 -0.0891 -0.8950
  547poe     o2 2237   6.296   4.640   5.466 -0.6697  0.4445 -0.1313
  547poe    c23 2238   6.429   4.640   5.418 -0.5919 -0.3742  0.0757
  547poe    c23 2239   6.439   4.749   5.310 -0.2784  0.2319  0.7071
  547poe     o2 2240   6.316   4.716   5.249  0.2704 -0.3959 -0.0917
  547poe    c23 2241   6.300   4.745   5.112 -0.5558 -0.0014  0.0810
  547poe    c23 2242   6.168   4.823   5.090 -0.3046  0.3956 -0.0359
  547poe     o2 2243   6.086   4.753   5.181  0.2740 -0.0780  0.1355
  547poe    c31 2244   5.950   4.793   5.180  0.1268 -0.5696 -0.6127
  548poe    c31 2245   4.030   0.020   3.889  0.4259  0.4874 -0.0736
  548poe     o2 2246   3.951  -0.005   4.003 -0.3159  0.1284 -0.6594
  548poe    c23 2247   4.017  -0.109   4.071 -0.7475  0.3405  0.0960
  548poe    c23 2248   3.926  -0.163   4.184  0.2734 -0.0198  0.7649
  548poe     o2 2249   3.904  -0.044   4.256  0.0261  0.2796  0.2075
  548poe    c23 2250   3.828  -0.057   4.374 -0.0201 -0.4441  0.1014
  548poe    c23 2251   3.788   0.071   4.450  0.1317 -0.3191 -0.0286
  548poe     o2 2252   3.693   0.152   4.384  0.3205 -0.4249 -0.4319
  548poe    c23 2253   3.559   0.119   4.412  0.0457  0.7914 -0.2846
  548poe    c23 2254   3.469   0.202   4.318  0.2489  0.5217 -0.7174
  548poe     o2 2255   3.497   0.184   4.181  0.3568 -0.0703 -0.6208
  548poe    c31 2256   3.421   0.255   4.086 -0.2498  0.2237  0.0688
  549poe    c31 2257   3.565   6.270   0.993  0.1823 -0.4140 -0.0005
  549poe     o2 2258   3.601   6.255   0.857  0.0234  0.1492 -0.1084
  549poe    c23 2259   3.519   6.170   0.780  0.1359  0.0581 -0.1278
  549poe    c23 2260   3.588   6.164   0.642  0.1742  0.2858 -0.1186
  549poe     o2 2261   3.727   6.144   0.656  0.1021 -0.1073  0.0540
  549poe    c23 2262   3.789   6.144   0.530 -0.1792 -0.2189 -0.0860
  549poe    c23 2263   3.933   6.187   0.564 -0.0749 -0.8306  0.2656
  549poe     o2 2264   3.931   6.270   0.678 -0.0971  0.3525 -0.5799
  549poe    c23 2265   4.020   6.380   0.679 -0.3506  0.5521  0.1049
  549poe    c23 2266   4.000   6.444   0.818  0.0494  0.2346  0.3114
  549poe     o2 2267   3.870   6.416   0.867 -0.1870  0.2702 -0.2833
  549poe    c31 2268   3.811   6.533   0.919  0.4231  0.3793  0.1712
  550poe    c31 2269   1.808   4.978   1.045  0.3751  0.5697 -0.5059
  550poe     o2 2270   1.679   5.019   1.007  0.0646 -0.0326 -0.1200
  550poe    c23 2271   1.617   4.913   0.937 -0.4540  0.1932 -0.0123
  550poe    c23 2272   1.501   4.976   0.859 -0.0636  0.4924 -0.3599
  550poe     o2 2273   1.533   5.111   0.833  0.2802  0.5265  0.2183
  550poe    c23 2274   1.435   5.188   0.766  0.3128  0.3247 -0.0632
  550poe    c23 2275   1.507   5.308   0.701 -0.3913  0.4098 -0.6911
  550poe     o2 2276   1.567   5.395   0.794 -0.7853  0.2526 -0.2827
  550poe    c23 2277   1.622   5.512   0.738 -0.1830  0.2047  0.1983
  550poe    c23 2278   1.666   5.617   0.841  0.0448  0.4764 -0.1716
  550poe     o2 2279   1.562   5.648   0.932 -0.0632 -0.6270  0.0972
  550poe    c31 2280   1.626   5.746   1.011 -0.4781 -0.1917 -0.0964
  551poe    c31 2281   2.947   5.530   5.961 -0.0206 -0.0736  0.5949
  551poe     o2 2282   2.942   5.671   5.958 -0.6102 -0.0971  0.4587
  551poe    c23 2283   2.948   5.722   5.827 -0.4702  0.0049  0.5044
  551poe    c23 2284   2.925   5.874   5.832  0.0382  0.0878  0.3759
  551poe     o2 2285   2.785   5.888   5.842 -0.0082  0.0865 -0.2325
  551poe    c23 2286   2.757   6.022   5.875 -0.2791  0.1607 -0.7503
  551poe    c23 2287   2.603   6.036   5.868 -0.3397  0.1346  0.3666
  551poe     o2 2288   2.551   5.936   5.953 -0.2599 -0.1253  0.1116
  551poe    c23 2289   2.413   5.966   5.953 -0.2086  0.1169  0.3236
  551poe    c23 2290   2.364   5.867   6.061 -0.0540 -0.1668  0.1369
  551poe     o2 2291   2.422   5.742   6.031  0.3068 -0.0191  0.2167
  551poe    c31 2292   2.353   5.645   6.106 -0.3251 -0.1745 -0.5563
  552poe    c31 2293   0.025   2.555   4.523  0.0706  0.0897  0.2889
  552poe     o2 2294   0.135   2.487   4.464 -0.2272 -0.2268  0.0927
  552poe    c23 2295   0.175   2.375   4.539  0.0193  0.0238  0.3388
  552poe    c23 2296   0.320   2.332   4.510  0.0019  0.2498 -0.0857
  552poe     o2 2297   0.420   2.426   4.544  0.0273  0.1090  0.2308
  552poe    c23 2298   0.455   2.411   4.679  0.3657 -0.1214  0.1165
  552poe    c23 2299   0.594   2.475   4.696  0.4185 -0.1048 -0.3720
  552poe     o2 2300   0.584   2.590   4.616 -0.0007  0.4637  0.4794
  552poe    c23 2301   0.697   2.675   4.621 -0.0691  0.5537  0.5060
  552poe    c23 2302   0.671   2.782   4.513 -0.3273  0.0783  0.0906
  552poe     o2 2303   0.615   2.717   4.401  0.1602 -0.1233 -0.0392
  552poe    c31 2304   0.622   2.797   4.285  0.0927  0.0919  0.1063
  553poe    c31 2305   5.897   5.530   0.707 -0.7974  0.0413  0.0325
  553poe     o2 2306   5.863   5.564   0.839 -0.3479  0.2805  0.0871
  553poe    c23 2307   5.735   5.622   0.837 -0.2034  0.6041 -0.0028
  553poe    c23 2308   5.679   5.641   0.979 -0.2362 -0.1192  0.0852
  553poe     o2 2309   5.753   5.719   1.070  0.0988 -0.1942 -0.1181
  553poe    c23 2310   5.685   5.745   1.191  0.3986  0.2284 -0.0366
  553poe    c23 2311   5.763   5.812   1.306  0.5794  0.4967 -0.3144
  553poe     o2 2312   5.870   5.732   1.352 -0.2321  0.0013  0.7500
  553poe    c23 2313   5.843   5.610   1.417 -0.8431 -0.1316  0.2663
  553poe    c23 2314   5.971   5.568   1.493 -0.5065  0.1641 -0.1365
  553poe     o2 2315   6.091   5.599   1.425 -0.1196 -0.2719  0.3398
  553poe    c31 2316   6.197   5.566   1.512 -0.4328  0.4054  0.9948
  554poe    c31 2317   0.883   5.150   1.902 -0.2130  0.6406  0.9786
  554poe     o2 2318   0.752   5.196   1.878 -0.2313  0.0792 -0.0576
  554poe    c23 2319   0.694   5.175   1.752  0.0172  0.7085 -0.2796
  554poe    c23 2320   0.543   5.208   1.744  0.0191  0.8089  0.1118
  554poe     o2 2321   0.549   5.332   1.813 -0.2212  0.4551  0.7797
  554poe    c23 2322   0.451   5.423   1.770  0.0810  0.2079 -0.4907
  554poe    c23 2323   0.474   5.554   1.847 -0.5774 -0.1647  0.3623
  554poe     o2 2324   0.509   5.543   1.983 -0.9434 -0.6512  0.4166
  554poe    c23 2325   0.513   5.665   2.054 -0.0752 -0.8033  0.6509
  554poe    c23 2326   0.623   5.668   2.161  0.1227 -0.4991  0.4391
  554poe     o2 2327   0.751   5.685   2.104 -0.1131 -0.1111  0.0202
  554poe    c31 2328   0.856   5.697   2.197 -0.2456 -0.2605  0.1895
  555poe    c31 2329   5.015   6.263   3.269  0.4341  0.3383  0.5212
  555poe     o2 2330   5.033   6.148   3.190 -0.1353  0.0805  0.7674
  555poe    c23 2331   4.914   6.074   3.177 -0.1165  0.1241  0.3444
  555poe    c23 2332   4.946   5.924   3.161  0.0720  0.2202 -0.1813
  555poe     o2 2333   5.037   5.900   3.055  0.5807 -0.4413  0.3909
  555poe    c23 2334   5.034   5.767   3.009 -0.0138 -0.2661 -0.0905
  555poe    c23 2335   5.169   5.743   2.939 -0.1285  0.1762 -0.4709
  555poe     o2 2336   5.172   5.842   2.838 -0.3581  0.3804 -0.2796
  555poe    c23 2337   5.274   5.814   2.745  0.1564  0.2188  0.3222
  555poe    c23 2338   5.334   5.942   2.685  0.5469 -0.1958 -0.1878
  555poe     o2 2339   5.235   6.042   2.673  0.3426 -0.4929 -0.9644
  555poe    c31 2340   5.278   6.156   2.602  0.0190 -0.0063 -0.3793
  556poe    c31 2341   1.017   1.824   3.640 -0.3643  0.4968 -0.1432
  556poe     o2 2342   1.010   1.775   3.508 -0.2114  0.1297 -0.0152
  556poe    c23 2343   0.960   1.872   3.419  0.3323  0.5838  0.1715
  556poe    c23 2344   0.963   1.793   3.287  0.3371  0.3171  0.3310
  556poe     o2 2345   1.093   1.746   3.259  0.3249  0.3208  0.2694
  556poe    c23 2346   1.098   1.670   3.140 -0.1731  0.9440 -0.1584
  556poe    c23 2347   1.244   1.627   3.116 -0.4870 -0.0698 -0.2964
  556poe     o2 2348   1.293   1.542   3.217  0.4451  0.4195 -0.3303
  556poe    c23 2349   1.433   1.530   3.208  0.4390  0.6248 -0.7125
  556poe    c23 2350   1.503   1.491   3.340 -0.2369  0.5193 -0.3840
  556poe     o2 2351   1.489   1.593   3.436 -0.1364  0.2674 -0.0997
  556poe    c31 2352   1.563   1.565   3.552 -0.2537  0.7125  0.0870
  557poe    c31 2353   4.380   3.371   2.355 -0.5737  0.0036  0.0251
  557poe     o2 2354   4.382   3.245   2.291  0.7278  0.3156 -0.5686
  557poe    c23 2355   4.431   3.141   2.372 -0.0846  0.1013 -0.3427
  557poe    c23 2356   4.468   3.014   2.293 -0.4174 -0.1616 -0.0809
  557poe     o2 2357   4.386   3.015   2.178 -0.2332 -0.2384 -0.2150
  557poe    c23 2358   4.428   2.922   2.082 -0.0551 -0.3495 -0.0307
  557poe    c23 2359   4.320   2.933   1.972 -0.3654 -0.0080  0.3063
  557poe     o2 2360   4.316   3.073   1.953 -0.3693 -0.0218  0.2088
  557poe    c23 2361   4.277   3.103   1.820  0.5906 -0.0574 -0.0907
  557poe    c23 2362   4.214   3.243   1.806  0.7449  0.0094 -0.1236
  557poe     o2 2363   4.308   3.336   1.854  0.3916  0.2602  0.0841
  557poe    c31 2364   4.300   3.468   1.806  0.3338  0.3872  0.4422
  558poe    c31 2365   2.296   0.436   0.754  0.5028  0.2867  0.0259
  558poe     o2 2366   2.390   0.355   0.822 -0.0608 -0.1911  0.2431
  558poe    c23 2367   2.513   0.424   0.821 -0.1332 -0.0556  0.5402
  558poe    c23 2368   2.624   0.356   0.904 -0.1315 -0.6651  0.0448
  558poe     o2 2369   2.682   0.256   0.823  0.5594 -0.0664 -0.2086
  558poe    c23 2370   2.780   0.177   0.886 -0.1292 -0.5651  0.2495
  558poe    c23 2371   2.718   0.050   0.949 -0.4841 -0.4598  0.1123
  558poe     o2 2372   2.645  -0.040   0.869 -0.1957 -0.4797 -0.1344
  558poe    c23 2373   2.730  -0.131   0.804  0.0224 -0.3909  0.0242
  558poe    c23 2374   2.636  -0.233   0.735  0.0863  0.2744 -1.0585
  558poe     o2 2375   2.549  -0.157   0.654 -0.1942  1.0569 -0.0462
  558poe    c31 2376   2.516  -0.230   0.538  0.4786  0.0229  0.4018
  559poe    c31 2377   6.597   0.272   3.450 -0.3973 -0.0606 -0.4337
  559poe     o2 2378   6.531   0.221   3.563 -0.0086  0.4581  0.0328
  559poe    c23 2379   6.552   0.302   3.677 -0.2955  0.6114 -0.0218
  559poe    c23 2380   6.451   0.261   3.785 -0.0332  0.4476  0.1635
  559poe     o2 2381   6.444   0.120   3.778 -0.5722  0.4853 -0.1412
  559poe    c23 2382   6.414   0.072   3.907 -0.6516 -0.0727 -0.3644
  559poe    c23 2383   6.372  -0.076   3.900  0.2625 -0.3912  0.5909
  559poe     o2 2384   6.449  -0.134   3.797 -0.1259  0.1179  0.0070
  559poe    c23 2385   6.430  -0.273   3.802 -0.3738  0.1721  0.6302
  559poe    c23 2386   6.449  -0.340   3.665 -0.3068  0.0580  0.6951
  559poe     o2 2387   6.583  -0.327   3.625 -0.5406 -0.2052 -0.2110
  559poe    c31 2388   6.605  -0.413   3.516  0.4130  0.3832 -0.4986
  560poe    c31 2389   0.950   6.008   2.015  0.3724  0.1814  0.0200
  560poe     o2 2390   0.812   6.009   1.991  0.3661 -0.8813 -0.0095
  560poe    c23 2391   0.787   5.983   1.854 -0.2279  0.3114 -0.1417
  560poe    c23 2392   0.641   5.962   1.811 -0.0322 -0.2852 -0.5397
  560poe     o2 2393   0.582   6.085   1.847  0.3102 -0.2076 -0.2383
  560poe    c23 2394   0.452   6.087   1.793  0.3023  0.0962 -0.2109
  560poe    c23 2395   0.399   6.230   1.818  0.0459 -0.0017 -0.1873
  560poe     o2 2396   0.399   6.273   1.953  0.3149 -0.3510 -0.0728
  560poe    c23 2397   0.391   6.413   1.965 -0.4047 -0.3818 -0.1641
  560poe    c23 2398   0.405   6.445   2.115  0.1285 -0.1145 -0.2720
  560poe     o2 2399   0.501   6.361   2.174  0.4229  0.2767 -0.1846
  560poe    c31 2400   0.522   6.401   2.307 -0.4379  0.3609 -0.0700
  561poe    c31 2401   1.040   0.087   2.409  0.3231 -0.2565 -0.5858
  561poe     o2 2402   1.116  -0.017   2.465 -0.0429 -0.0881  0.2385
  561poe    c23 2403   1.177   0.027   2.584 -0.5060  0.6042  0.2246
  561poe    c23 2404   1.271  -0.081   2.640 -0.4230  0.1545 -0.7585
  561poe     o2 2405   1.371  -0.138   2.559 -0.0423 -0.4164  0.0940
  561poe    c23 2406   1.428  -0.238   2.640 -0.3841 -0.6665  0.0274
  561poe    c23 2407   1.544  -0.302   2.560 -0.0088 -0.1749  0.1735
  561poe     o2 2408   1.504  -0.328   2.427 -0.0386  0.4169  0.0638
  561poe    c23 2409   1.599  -0.377   2.336 -0.2738 -0.5160  0.3074
  561poe    c23 2410   1.530  -0.380   2.199 -0.2798  0.0068  0.2970
  561poe     o2 2411   1.483  -0.249   2.178 -0.5228 -0.0743  0.3325
  561poe    c31 2412   1.425  -0.260   2.050 -0.3650 -0.7860  0.3231
  562poe    c31 2413   1.274   0.351   0.080  0.0781 -0.2658 -0.3879
  562poe     o2 2414   1.171   0.369  -0.014 -0.2624 -0.3828 -0.0402
  562poe    c23 2415   1.172   0.263  -0.107 -0.2117 -0.2502 -0.1911
  562poe    c23 2416   1.065   0.278  -0.217 -0.3044 -0.0868 -0.0794
  562poe     o2 2417   1.072   0.388  -0.305  0.3236 -0.3062 -0.3136
  562poe    c23 2418   1.104   0.336  -0.432 -0.0590  0.0642 -0.5645
  562poe    c23 2419   1.101   0.467  -0.513  0.0202  0.5106  0.1480
  562poe     o2 2420   1.006   0.564  -0.477  0.0043  0.3407  0.5704
  562poe    c23 2421   1.003   0.675  -0.564 -0.0595  0.0105  0.1493
  562poe    c23 2422   0.923   0.771  -0.473 -0.7249 -0.2725 -0.1371
  562poe     o2 2423   0.956   0.754  -0.337  0.5486 -0.1134 -0.4152
  562poe    c31 2424   0.944   0.873  -0.262  0.3511 -0.1491 -0.3885
  563poe    c31 2425   1.869   6.507   3.503 -0.1022  0.1528 -0.3198
  563poe     o2 2426   1.966   6.607   3.526 -0.0250  0.0385 -0.1452
  563poe    c23 2427   1.971   6.708   3.427  0.3686 -0.1934 -0.3659
  563poe    c23 2428   2.106   6.782   3.420  0.1879  0.2206  0.3637
  563poe     o2 2429   2.152   6.835   3.542 -0.2613  0.4025  0.4558
  563poe    c23 2430   2.251   6.934   3.534  0.7271 -0.5454  0.7135
  563poe    c23 2431   2.254   7.021   3.661 -0.1033  0.4701  0.0559
  563poe     o2 2432   2.271   6.937   3.773 -0.1773 -0.0928 -0.3507
  563poe    c23 2433   2.280   6.996   3.901  1.3242 -0.4056 -0.2928
  563poe    c23 2434   2.296   6.880   4.001 -0.1291 -0.1959  0.1989
  563poe     o2 2435   2.205   6.781   3.961  0.0458 -0.1158 -0.4034
  563poe    c31 2436   2.203   6.678   4.058 -0.3866  0.2436 -0.0261
  564poe    c31 2437   6.303   0.672   2.648  0.5705 -0.1052  0.0437
  564poe     o2 2438   6.327   0.719   2.517  0.0654  0.4079  0.1328
  564poe    c23 2439   6.210   0.755   2.448  0.2156  0.4146 -0.1235
  564poe    c23 2440   6.241   0.845   2.327  0.2431  0.3912 -0.1339
  564poe     o2 2441   6.309   0.965   2.357  0.2539  0.2554  0.3923
  564poe    c23 2442   6.318   1.053   2.248 -0.1446  0.2609  0.3655
  564poe    c23 2443   6.445   1.136   2.273  0.2645 -0.3208  0.2379
  564poe     o2 2444   6.432   1.190   2.402 -0.1845 -0.4042  0.2289
  564poe    c23 2445   6.535   1.283   2.424 -0.1814 -0.1099 -0.9583
  564poe    c23 2446   6.517   1.334   2.569  0.7373 -0.0975 -0.8381
  564poe     o2 2447   6.526   1.225   2.658 -0.4027  0.4367 -0.0476
  564poe    c31 2448   6.492   1.276   2.785  0.1821  0.1238  0.2395
  565poe    c31 2449   2.936   5.894   5.480  0.2300  0.4156  0.4670
  565poe     o2 2450   2.958   5.803   5.375  0.2676  0.3171  0.5594
  565poe    c23 2451   2.930   5.860   5.249 -0.0034 -0.6712  0.1592
  565poe    c23 2452   3.023   5.786   5.151 -0.2305 -0.0698 -0.5253
  565poe     o2 2453   3.157   5.794   5.194 -0.4608  0.2223  0.1606
  565poe    c23 2454   3.256   5.726   5.119 -0.5004  0.0469  0.2689
  565poe    c23 2455   3.405   5.757   5.142 -0.4007 -0.4796  0.3577
  565poe     o2 2456   3.435   5.726   5.275 -0.4653  0.1010  0.5126
  565poe    c23 2457   3.569   5.745   5.315 -0.2369 -0.0579 -0.1696
  565poe    c23 2458   3.596   5.681   5.453 -0.4187  0.3769  0.0694
  565poe     o2 2459   3.488   5.732   5.528 -0.2057 -0.0016  0.6359
  565poe    c31 2460   3.480   5.674   5.656 -0.2626  0.2143  0.7295
  566poe    c31 2461   3.661   3.458   4.698  0.6074  0.3475 -0.3690
  566poe     o2 2462   3.638   3.530   4.816 -0.3341 -0.4617 -0.0490
  566poe    c23 2463   3.520   3.608   4.816  0.2486  0.4320 -0.6343
  566poe    c23 2464   3.402   3.540   4.888  0.2121  0.6341 -0.5030
  566poe     o2 2465   3.417   3.492   5.020 -0.6258 -0.0015 -0.6322
  566poe    c23 2466   3.458   3.358   5.028 -0.8101 -0.0004  0.3481
  566poe    c23 2467   3.500   3.318   5.171 -0.3951  0.1721  0.2760
  566poe     o2 2468   3.611   3.392   5.215 -0.3949  0.2332  0.1716
  566poe    c23 2469   3.634   3.385   5.354  0.0512 -0.2211  0.0809
  566poe    c23 2470   3.784   3.409   5.375  0.0166  0.2055 -0.1572
  566poe     o2 2471   3.804   3.536   5.317  0.0952  0.3009  0.0759
  566poe    c31 2472   3.921   3.601   5.360  0.0492 -0.1163  0.8533
  567poe    c31 2473   0.068   6.723   6.151 -0.1078  0.0167  0.7152
  567poe     o2 2474   0.088   6.843   6.222  0.0612  0.4711 -0.0926
  567poe    c23 2475   0.138   6.944   6.137 -0.1124  0.2059 -0.5182
  567poe    c23 2476   0.206   7.049   6.228  0.2217 -0.4487 -0.0055
  567poe     o2 2477   0.132   7.049   6.348  0.1974  0.7173 -0.0153
  567poe    c23 2478   0.161   7.160   6.431 -0.0590  0.6081  0.2218
  567poe    c23 2479   0.090   7.133   6.564 -0.4761  0.6391  0.0066
  567poe     o2 2480   0.022   7.010   6.562  0.1630  0.2836 -0.2502
  567poe    c23 2481  -0.036   6.993   6.690  0.1508  0.1204 -0.2765
  567poe    c23 2482  -0.105   6.858   6.716  0.1533  0.1293 -0.2246
  567poe     o2 2483  -0.219   6.829   6.638 -0.0688 -0.0444  0.1640
  567poe    c31 2484  -0.282   6.725   6.710 -0.4687  0.4882  0.5953
  568poe    c31 2485   1.716   6.413   0.510  0.1308  0.0526  0.2494
  568poe     o2 2486   1.790   6.522   0.561 -0.2763  0.4795 -0.0622
  568poe    c23 2487   1.889   6.480   0.652  0.4423  0.0550 -1.0153
  568poe    c23 2488   1.945   6.609   0.714  0.3774 -0.4361  0.0958
  568poe     o2 2489   1.971   6.700   0.609  0.4709 -0.1606  0.3557
  568poe    c23 2490   2.096   6.758   0.640  0.2814  0.3414  0.1817
  568poe    c23 2491   2.137   6.857   0.530 -0.1811  0.1775 -0.1415
  568poe     o2 2492   2.106   6.808   0.401  0.0411  0.4238 -0.2909
  568poe    c23 2493   2.109   6.918   0.313 -0.7002  0.4567 -0.2846
  568poe    c23 2494   2.075   6.896   0.165 -0.2650  0.0491 -0.3252
  568poe     o2 2495   2.117   6.768   0.123  0.5925  0.1778  0.1112
  568poe    c31 2496   2.097   6.776  -0.016  0.0252 -0.8638  0.1213
  569poe    c31 2497   0.666   0.650   2.419 -0.2215  0.6363  0.1783
  569poe     o2 2498   0.800   0.610   2.400 -0.3931 -0.1072  0.4771
  569poe    c23 2499   0.822   0.549   2.275 -0.1313 -0.1062  0.5239
  569poe    c23 2500   0.970   0.508   2.259  0.0743  0.6375  0.4819
  569poe     o2 2501   1.019   0.447   2.376  0.0568  0.4720  0.4035
  569poe    c23 2502   1.158   0.445   2.398  0.1218  0.1178 -0.0215
  569poe    c23 2503   1.177   0.414   2.548 -0.3092 -0.0371  0.0027
  569poe     o2 2504   1.079   0.490   2.615  0.1121  0.3543  0.1788
  569poe    c23 2505   1.061   0.429   2.741 -0.0972  0.7074  0.3236
  569poe    c23 2506   0.943   0.498   2.810 -0.4606 -0.4613  0.8882
  569poe     o2 2507   0.843   0.539   2.719  0.2017 -0.4468  0.1546
  569poe    c31 2508   0.728   0.543   2.801  0.3724  0.9021  0.3521
  570poe    c31 2509   1.038   4.305   1.942  0.1007  0.4243 -0.7192
  570poe     o2 2510   1.172   4.341   1.968  0.0352 -0.1446  0.4554
  570poe    c23 2511   1.176   4.378   2.104 -0.1332  0.2986  0.3428
  570poe    c23 2512   1.307   4.446   2.148 -0.1811  0.7504 -0.2036
  570poe     o2 2513   1.330   4.571   2.087  0.0371  0.4628 -0.7235
  570poe    c23 2514   1.351   4.667   2.190 -0.4114 -0.1822 -0.0215
  570poe    c23 2515   1.315   4.797   2.115  0.2192  0.2381  0.4026
  570poe     o2 2516   1.374   4.797   1.987 -0.2090  0.5100  0.2042
  570poe    c23 2517   1.372   4.921   1.919 -0.6353  0.3005 -0.1734
  570poe    c23 2518   1.432   4.898   1.779  0.6318 -0.1460  0.4188
  570poe     o2 2519   1.391   4.772   1.731 -0.3587  0.3204  0.0028
  570poe    c31 2520   1.422   4.737   1.598  0.1762 -0.2596  0.2752
  571poe    c31 2521   5.243   5.818   3.424  0.4647 -0.1153 -0.7082
  571poe     o2 2522   5.354   5.842   3.341  0.9989  0.1446  0.0666
  571poe    c23 2523   5.334   5.977   3.307 -0.2091  0.1458  0.7246
  571poe    c23 2524   5.451   6.028   3.221 -0.5191  0.0034  0.2128
  571poe     o2 2525   5.570   5.971   3.272 -0.2113  0.4063 -0.0452
  571poe    c23 2526   5.687   5.988   3.195 -0.2122 -0.0532 -0.1532
  571poe    c23 2527   5.800   5.917   3.273 -0.3136  0.2366  0.2621
  571poe     o2 2528   5.740   5.797   3.318  0.2498 -0.1374  0.0178
  571poe    c23 2529   5.798   5.734   3.431  0.5955  0.4259  0.1613
  571poe    c23 2530   5.724   5.609   3.481 -0.1232  0.8496  0.1793
  571poe     o2 2531   5.587   5.640   3.479 -0.2712  0.2113 -1.0383
  571poe    c31 2532   5.521   5.554   3.569  0.0095  0.3405 -0.7080
  572poe    c31 2533   3.875   3.832   4.797  0.1113 -0.1179  0.1673
  572poe     o2 2534   3.939   3.916   4.891  0.0172  0.1434 -0.0032
  572poe    c23 2535   3.947   3.864   5.022  0.1194  0.1388 -0.0111
  572poe    c23 2536   3.995   3.973   5.119  0.2188 -0.2220  0.3447
  572poe     o2 2537   3.910   4.080   5.153 -0.4538 -0.4973 -0.4378
  572poe    c23 2538   3.901   4.073   5.294 -0.2497 -0.1885 -0.4077
  572poe    c23 2539   3.807   4.184   5.344 -0.1398 -0.1356 -0.3187
  572poe     o2 2540   3.816   4.291   5.252  0.0256 -0.0520 -0.2054
  572poe    c23 2541   3.730   4.394   5.296 -0.1523  0.0411 -0.7714
  572poe    c23 2542   3.717   4.495   5.180  0.0596  0.2770 -0.5901
  572poe     o2 2543   3.688   4.411   5.071  0.1510 -0.0256 -0.3818
  572poe    c31 2544   3.659   4.478   4.950  0.2704 -0.1171 -0.4616
  573poe    c31 2545   6.365   0.195   0.195  0.1420  0.3553 -0.3140
  573poe     o2 2546   6.289   0.204   0.077 -0.0748 -0.5527 -0.2492
  573poe    c23 2547   6.370   0.232  -0.035  0.1873  0.1614  0.1158
  573poe    c23 2548   6.304   0.350  -0.110 -0.3797 -0.1415  0.1363
  573poe     o2 2549   6.182   0.330  -0.177 -0.1459 -0.1718 -0.2806
  573poe    c23 2550   6.195   0.255  -0.296  0.0439 -0.7666  0.1097
  573poe    c23 2551   6.063   0.198  -0.352  0.0793 -0.1969 -0.5729
  573poe     o2 2552   6.010   0.107  -0.259  0.2209 -0.2590 -0.5528
  573poe    c23 2553   5.896   0.056  -0.324 -0.4269  0.1473  0.2432
  573poe    c23 2554   5.797   0.034  -0.208 -0.1234 -0.9092  0.3145
  573poe     o2 2555   5.797   0.147  -0.124  0.0090 -0.1761 -0.6538
  573poe    c31 2556   5.720   0.112  -0.011  0.1980 -0.0325 -0.4802
  574poe    c31 2557   2.320   1.664   4.094 -0.1964 -0.5551  0.0588
  574poe     o2 2558   2.300   1.582   4.207 -0.4884 -0.0509  0.3754
  574poe    c23 2559   2.385   1.623   4.312  0.5439 -0.3714 -0.3211
  574poe    c23 2560   2.335   1.576   4.449  0.1569  0.0157 -0.3273
  574poe     o2 2561   2.319   1.436   4.449  0.4681 -0.0192 -0.3233
  574poe    c23 2562   2.264   1.381   4.567  0.4301  0.2596 -0.2100
  574poe    c23 2563   2.246   1.229   4.544 -0.4967  0.3047  0.1653
  574poe     o2 2564   2.196   1.206   4.414  0.0526  0.1549 -0.0242
  574poe    c23 2565   2.241   1.087   4.355  0.4089  0.2242  0.1053
  574poe    c23 2566   2.271   1.115   4.206 -0.4105  0.8787  0.0566
  574poe     o2 2567   2.325   1.242   4.181  0.4501  0.4057 -0.5343
  574poe    c31 2568   2.371   1.247   4.047  0.2775 -0.6148 -0.6345
  575poe    c31 2569   3.251   0.049   6.391  0.6881  0.6455  0.2041
  575poe     o2 2570   3.326   0.120   6.295  0.4257 -0.1700 -0.6119
  575poe    c23 2571   3.338   0.258   6.319  1.0049 -0.3424  0.1296
  575poe    c23 2572   3.426   0.323   6.211 -0.1580  0.7955 -0.1565
  575poe     o2 2573   3.549   0.254   6.209 -0.5043  0.1650  0.1714
  575poe    c23 2574   3.638   0.326   6.127 -0.2788 -0.1430  0.1415
  575poe    c23 2575   3.784   0.292   6.159 -0.1691  0.0727 -0.1298
  575poe     o2 2576   3.799   0.153   6.145 -0.1064  0.0415  0.2484
  575poe    c23 2577   3.931   0.108   6.168 -0.2685 -0.1535  0.8179
  575poe    c23 2578   3.917  -0.045   6.172 -0.1248 -0.1990 -0.1332
  575poe     o2 2579   3.814  -0.057   6.268  0.5267 -0.0671  0.5850
  575poe    c31 2580   3.795  -0.195   6.294 -0.5633 -0.0717 -0.2032
  576poe    c31 2581   5.196   1.786   2.554 -0.1597 -0.0123 -0.1848
  576poe     o2 2582   5.303   1.694   2.553 -0.0367  0.1314 -0.7618
  576poe    c23 2583   5.417   1.756   2.608 -0.3974 -0.2041  0.3873
  576poe    c23 2584   5.520   1.641   2.600  0.0874  0.2641 -0.1702
  576poe     o2 2585   5.477   1.525   2.668 -0.0984  0.2600 -0.2928
  576poe    c23 2586   5.581   1.432   2.647  0.4709  0.6799  0.6130
  576poe    c23 2587   5.532   1.303   2.716  0.7390  0.1181 -0.2339
  576poe     o2 2588   5.396   1.279   2.689  0.7590  0.0146 -0.2491
  576poe    c23 2589   5.362   1.155   2.746 -0.2778  0.3954 -0.0184
  576poe    c23 2590   5.208   1.145   2.748 -0.2421 -0.2114 -0.0776
  576poe     o2 2591   5.147   1.254   2.814 -0.0384 -0.2213  0.1297
  576poe    c31 2592   5.010   1.227   2.836 -0.1157 -0.1273 -0.2329
  577poe    c31 2593   3.294   6.110   0.417  0.3821  0.6312 -0.0449
  577poe     o2 2594   3.234   6.216   0.347 -0.2810  0.0023 -0.4388
  577poe    c23 2595   3.220   6.187   0.210  0.1939  0.0165 -0.4922
  577poe    c23 2596   3.138   6.299   0.144  0.3689  0.2587 -0.3001
  577poe     o2 2597   3.193   6.420   0.188  0.1311  0.2380  0.0594
  577poe    c23 2598   3.102   6.526   0.169  0.1655  0.2489 -0.0450
  577poe    c23 2599   3.133   6.648   0.259 -0.2289  0.3592 -0.0575
  577poe     o2 2600   3.161   6.605   0.390 -0.0615 -0.2396 -0.2878
  577poe    c23 2601   3.183   6.709   0.482 -0.5484 -0.3417 -0.0535
  577poe    c23 2602   3.182   6.634   0.616 -0.6840 -0.1351  0.0615
  577poe     o2 2603   3.229   6.503   0.596 -0.1643  0.0120  0.3134
  577poe    c31 2604   3.243   6.430   0.715 -0.3186 -0.2296  0.1840
  578poe    c31 2605   4.876   0.377   5.174 -0.1510 -0.0425  0.2500
  578poe     o2 2606   4.907   0.261   5.248 -0.2572 -0.2969 -0.1006
  578poe    c23 2607   4.820   0.252   5.359 -0.1048  0.1318  0.0560
  578poe    c23 2608   4.865   0.148   5.463 -0.7355 -0.1235  0.0761
  578poe     o2 2609   4.916   0.048   5.377  0.4236  0.6419 -0.1447
  578poe    c23 2610   5.012  -0.036   5.439 -0.1155  0.1813  0.0713
  578poe    c23 2611   5.033  -0.148   5.335  0.0773  0.2764  0.0080
  578poe     o2 2612   5.067  -0.077   5.218  0.0564  0.4714  0.1200
  578poe    c23 2613   5.031  -0.150   5.104  0.8971  0.3043 -0.0491
  578poe    c23 2614   5.042  -0.051   4.986  0.1864  0.0713 -0.3197
  578poe     o2 2615   4.991   0.077   5.018 -0.4370 -0.1471 -0.4222
  578poe    c31 2616   4.990   0.156   4.901 -0.4263  0.3135 -0.1099
  579poe    c31 2617   2.681   0.876   2.270 -0.5354  0.0494 -0.2190
  579poe     o2 2618   2.679   0.913   2.134 -0.4343  0.4079 -0.1240
  579poe    c23 2619   2.554   0.882   2.077 -0.3205 -0.3466  0.0352
  579poe    c23 2620   2.560   0.954   1.941  0.3205  0.1612  0.3275
  579poe     o2 2621   2.692   0.956   1.893  0.3185  0.1380  0.3210
  579poe    c23 2622   2.712   1.033   1.776  0.0645 -0.1473  0.0913
  579poe    c23 2623   2.864   1.049   1.759  0.0392  0.0273  0.0309
  579poe     o2 2624   2.914   1.091   1.884  0.0247 -0.0106  0.0495
  579poe    c23 2625   3.048   1.053   1.904 -0.0504 -0.4173 -0.2111
  579poe    c23 2626   3.078   1.046   2.055  0.0045 -0.0673 -0.2048
  579poe     o2 2627   2.994   0.947   2.111  0.0861 -0.0054  0.0249
  579poe    c31 2628   3.061   0.885   2.219 -0.0207 -0.5964 -0.2488
  580poe    c31 2629   0.799   3.210   6.680 -0.2867  0.3737 -0.2187
  580poe     o2 2630   0.838   3.338   6.724  0.0063  0.4059 -0.5628
  580poe    c23 2631   0.882   3.416   6.616 -0.0827 -0.0219 -0.9106
  580poe    c23 2632   0.895   3.564   6.658 -0.0979 -0.2973  0.0741
  580poe     o2 2633   0.951   3.568   6.788 -0.0091  0.0991  0.0253
  580poe    c23 2634   0.959   3.703   6.828  0.6241  0.1471 -0.2523
  580poe    c23 2635   1.019   3.720   6.969  0.0508 -0.2488  0.0458
  580poe     o2 2636   0.927   3.684   7.070  0.0740 -0.5613 -0.0432
  580poe    c23 2637   0.968   3.713   7.202 -0.0443  0.5685 -0.2407
  580poe    c23 2638   0.858   3.687   7.307  0.0713  0.1736 -0.2172
  580poe     o2 2639   0.799   3.561   7.285 -0.4024  0.3800 -0.1436
  580poe    c31 2640   0.702   3.524   7.381 -0.4696  0.7833 -0.0563
  581poe    c31 2641   3.191   4.773   1.293  0.5086  0.6067 -0.0060
  581poe     o2 2642   3.113   4.823   1.399 -0.2344 -0.2621 -0.1413
  581poe    c23 2643   3.023   4.915   1.340 -0.1871 -0.0700  0.0847
  581poe    c23 2644   2.958   4.984   1.461  0.4407  0.0161  0.3775
  581poe     o2 2645   2.925   4.877   1.546 -0.1782 -0.1520 -0.0715
  581poe    c23 2646   2.840   4.915   1.652 -0.3092 -0.2202 -0.1522
  581poe    c23 2647   2.793   4.801   1.744 -0.3841  0.0352  0.1264
  581poe     o2 2648   2.887   4.778   1.847 -0.2839 -0.0127  0.0252
  581poe    c23 2649   2.854   4.664   1.922 -0.2826  0.6781  1.1032
  581poe    c23 2650   2.973   4.607   2.003  0.2064 -0.3571 -0.2957
  581poe     o2 2651   3.079   4.569   1.919 -0.0999 -1.0876 -0.3568
  581poe    c31 2652   3.188   4.513   1.989  0.2059 -0.5517 -0.3978
  582poe    c31 2653   4.171   0.959   2.195  0.5307 -0.1396  0.6434
  582poe     o2 2654   4.049   0.976   2.265  0.3292 -0.3038  0.3355
  582poe    c23 2655   4.063   0.939   2.401  0.5821  1.3161  0.7777
  582poe    c23 2656   3.949   0.979   2.496 -0.0245 -0.2749  0.7548
  582poe     o2 2657   3.833   0.917   2.446  0.1080 -0.1711  0.3094
  582poe    c23 2658   3.712   0.951   2.510  0.0160  0.4864 -0.2054
  582poe    c23 2659   3.594   0.881   2.439  0.1908 -0.1044  0.0826
  582poe     o2 2660   3.574   0.940   2.313 -0.5258  0.2427  0.3574
  582poe    c23 2661   3.474   0.867   2.245 -0.0576 -0.0819  0.0211
  582poe    c23 2662   3.448   0.920   2.103 -0.1204 -0.0046  0.0620
  582poe     o2 2663   3.566   0.983   2.057 -0.2742  0.5345  0.3911
  582poe    c31 2664   3.556   0.993   1.917  0.2740 -0.3983  0.2741
  583poe    c31 2665   5.385   6.483   2.411 -0.3398  0.1495  0.5032
  583poe     o2 2666   5.522   6.515   2.397 -0.3936  0.2143  0.1250
  583poe    c23 2667   5.552   6.646   2.440  0.6115  0.1234 -0.2597
  583poe    c23 2668   5.691   6.638   2.504  0.3202  0.0088  0.3709
  583poe     o2 2669   5.779   6.584   2.408  0.1693  0.2523  0.0968
  583poe    c23 2670   5.904   6.535   2.451  0.0796 -0.4844 -0.4572
  583poe    c23 2671   5.979   6.489   2.325  0.0155 -0.6225 -0.4448
  583poe     o2 2672   5.887   6.412   2.250 -0.1433 -0.4726 -0.4040
  583poe    c23 2673   5.874   6.274   2.272 -0.3319 -0.3777  0.0734
  583poe    c23 2674   5.761   6.238   2.173  0.0672 -0.0993 -0.4802
  583poe     o2 2675   5.643   6.307   2.207 -0.0602 -0.6252  0.1664
  583poe    c31 2676   5.541   6.257   2.123 -0.0258 -0.1079 -0.1878
  584poe    c31 2677   0.219   5.370   6.382 -0.1796 -0.2202 -0.0565
  584poe     o2 2678   0.347   5.364   6.440 -0.1602  0.0060 -0.0752
  584poe    c23 2679   0.431   5.289   6.354 -0.3196 -0.1638 -0.0830
  584poe    c23 2680   0.571   5.299   6.417 -0.1264 -0.3013 -0.4943
  584poe     o2 2681   0.562   5.231   6.539  0.0202  0.6904  0.0819
  584poe    c23 2682   0.675   5.230   6.625 -0.1450  0.3180  0.3005
  584poe    c23 2683   0.625   5.184   6.763 -0.5171 -0.3527 -0.0533
  584poe     o2 2684   0.517   5.263   6.807  0.0421 -0.0158  0.7320
  584poe    c23 2685   0.540   5.381   6.882  0.3141 -0.2359  0.9934
  584poe    c23 2686   0.399   5.442   6.882  0.3161 -0.2256  0.5898
  584poe     o2 2687   0.366   5.455   6.746  0.2219 -0.0231  0.6313
  584poe    c31 2688   0.243   5.521   6.723  0.3377 -0.1778 -0.5386
  585poe    c31 2689   2.781   3.413   5.817  0.6808 -0.1488 -0.3450
  585poe     o2 2690   2.912   3.459   5.839  0.6978 -0.2653 -0.2041
  585poe    c23 2691   2.937   3.595   5.814  0.2478 -0.1167  0.1393
  585poe    c23 2692   3.088   3.623   5.801  0.1616  0.1536 -0.2766
  585poe     o2 2693   3.161   3.586   5.915 -0.2671 -0.2269 -0.1240
  585poe    c23 2694   3.297   3.603   5.880 -0.1950 -0.8817 -0.1781
  585poe    c23 2695   3.378   3.609   6.010 -0.2075 -0.2927 -0.1956
  585poe     o2 2696   3.336   3.517   6.108  0.3533  0.0184  0.3515
  585poe    c23 2697   3.386   3.546   6.236  0.6073 -0.4507  0.3594
  585poe    c23 2698   3.292   3.476   6.336 -0.0533  0.2831  0.2595
  585poe     o2 2699   3.159   3.515   6.308 -0.0456  0.4616  0.4708
  585poe    c31 2700   3.074   3.469   6.411  0.1485 -0.3909  0.2624
  586poe    c31 2701   0.660   0.655   5.128  0.1675  0.3758  0.3338
  586poe     o2 2702   0.523   0.623   5.122  0.2128  0.2552 -0.0922
  586poe    c23 2703   0.485   0.582   5.252  0.1596 -0.3955 -0.3075
  586poe    c23 2704   0.338   0.539   5.235 -0.0756  0.2251  0.1015
  586poe     o2 2705   0.324   0.508   5.098 -0.0716  0.6824 -0.0041
  586poe    c23 2706   0.197   0.451   5.078  0.0918  0.4568 -0.4156
  586poe    c23 2707   0.215   0.382   4.941  0.0027 -0.2788 -0.0595
  586poe     o2 2708   0.300   0.454   4.855 -0.2743 -0.4410 -0.4699
  586poe    c23 2709   0.241   0.563   4.786  0.0351 -0.0321 -0.0905
  586poe    c23 2710   0.356   0.654   4.740  0.3427 -0.1993  0.3338
  586poe     o2 2711   0.428   0.691   4.856  0.2577  0.1656  0.2735
  586poe    c31 2712   0.496   0.810   4.823  0.7747 -0.3002 -0.3763
  587poe    c31 2713   0.879   5.642   1.485 -0.1497  0.6731  0.3251
  587poe     o2 2714   1.009   5.664   1.435 -0.1454  0.0522  0.0429
  587poe    c23 2715   1.008   5.633   1.297 -0.5129 -0.9880  0.2751
  587poe    c23 2716   1.160   5.639   1.277 -0.4961  0.1060  0.6551
  587poe     o2 2717   1.204   5.767   1.316  0.0753  0.0904  0.0782
  587poe    c23 2718   1.343   5.790   1.317  0.1281 -0.2405  0.2716
  587poe    c23 2719   1.363   5.928   1.382 -0.1656  0.0467 -0.2410
  587poe     o2 2720   1.315   5.914   1.514 -0.1613  0.0257 -0.2417
  587poe    c23 2721   1.326   6.027   1.597 -0.2198  0.0084 -0.2102
  587poe    c23 2722   1.244   6.153   1.562  0.0745  0.3364  0.2678
  587poe     o2 2723   1.112   6.128   1.605 -0.1388 -0.1978 -0.6674
  587poe    c31 2724   1.049   6.245   1.652  0.8564  0.0205  0.1676
  588poe    c31 2725   6.259   3.512   5.487  0.1846  0.2229  0.0202
  588poe     o2 2726   6.141   3.562   5.427  0.5682  1.2926  0.1269
  588poe    c23 2727   6.167   3.627   5.304  0.0001  0.3214 -0.5245
  588poe    c23 2728   6.046   3.716   5.273 -0.3235  0.0796  0.0187
  588poe     o2 2729   5.936   3.633   5.307  0.1006 -0.3932  0.2456
  588poe    c23 2730   5.820   3.712   5.321  0.2502 -0.2119  0.4849
  588poe    c23 2731   5.722   3.604   5.372  0.0455 -0.0641  0.4057
  588poe     o2 2732   5.767   3.546   5.492 -0.5617  0.1470  0.7375
  588poe    c23 2733   5.705   3.422   5.515 -0.8436  0.2282  0.4331
  588poe    c23 2734   5.813   3.326   5.570 -0.5107  0.3328 -0.0368
  588poe     o2 2735   5.921   3.329   5.479 -0.3558  0.2762  0.1461
  588poe    c31 2736   6.026   3.238   5.503 -0.3404  0.1860 -0.2639
  589poe    c31 2737   2.425   5.355   5.354 -0.2764 -0.2380  0.3501
  589poe     o2 2738   2.447   5.217   5.370 -0.6527 -0.4319 -0.7078
  589poe    c23 2739   2.468   5.171   5.238 -0.4180 -0.2960 -0.7182
  589poe    c23 2740   2.538   5.034   5.253 -0.2196 -0.1422 -0.2061
  589poe     o2 2741   2.486   4.973   5.369  0.4295  0.2321  0.2867
  589poe    c23 2742   2.574   4.873   5.415  0.2118 -0.1979 -0.2304
  589poe    c23 2743   2.515   4.840   5.554 -0.2445 -0.0613 -0.3882
  589poe     o2 2744   2.494   4.957   5.628  0.5016 -0.1339 -0.0544
  589poe    c23 2745   2.365   4.954   5.684  0.5579 -0.0712  0.0801
  589poe    c23 2746   2.316   5.089   5.741  0.5785 -0.0018 -0.0661
  589poe     o2 2747   2.344   5.188   5.644 -0.1522  0.1571 -0.1237
  589poe    c31 2748   2.324   5.315   5.703  0.5105  0.1903  0.0484
  590poe    c31 2749   6.253   0.104   4.537  0.2200  0.0894  0.6124
  590poe     o2 2750   6.393   0.097   4.521  0.1391 -0.5316  0.1366
  590poe    c23 2751   6.438   0.001   4.429  0.2662 -0.1258 -0.2234
  590poe    c23 2752   6.535  -0.099   4.496 -0.1456 -0.5036 -0.1909
  590poe     o2 2753   6.623  -0.016   4.569 -0.1594 -0.8891  0.2687
  590poe    c23 2754   6.759  -0.019   4.534 -0.1235  0.2813  0.2696
  590poe    c23 2755   6.843   0.077   4.620  0.6182  0.3340 -0.5020
  590poe     o2 2756   6.752   0.175   4.666  0.5508 -0.2478  0.6508
  590poe    c23 2757   6.786   0.300   4.610 -0.3878 -0.3614 -0.2024
  590poe    c23 2758   6.662   0.391   4.624 -0.0013  0.1050  0.2079
  590poe     o2 2759   6.548   0.316   4.589  0.2447 -0.2001  0.0574
  590poe    c31 2760   6.453   0.416   4.618  0.3965 -0.2775  0.8466
  591poe    c31 2761   6.252   3.750   6.462 -0.0977  0.5681 -0.3615
  591poe     o2 2762   6.380   3.739   6.406  0.0333 -0.2380  0.0786
  591poe    c23 2763   6.493   3.720   6.489  0.0745 -0.2353  0.0239
  591poe    c23 2764   6.615   3.654   6.422  0.1551  0.0824 -0.1413
  591poe     o2 2765   6.607   3.515   6.404  0.4197  0.0505 -0.0088
  591poe    c23 2766   6.710   3.460   6.325  0.0283 -0.0914 -0.4278
  591poe    c23 2767   6.663   3.329   6.260  0.1572 -0.1416 -0.4196
  591poe     o2 2768   6.554   3.349   6.173 -0.1555 -0.1197 -0.0263
  591poe    c23 2769   6.480   3.229   6.178  0.2241 -0.3796 -0.4928
  591poe    c23 2770   6.355   3.240   6.088 -0.2751 -0.1582  0.2225
  591poe     o2 2771   6.314   3.371   6.120 -0.0105 -0.0178 -0.0040
  591poe    c31 2772   6.222   3.405   6.019  0.0301 -0.2012 -0.1041
  592poe    c31 2773   5.820   2.918   6.161  0.2203  0.4328  0.5200
  592poe     o2 2774   5.745   2.882   6.275 -0.2063  0.2552  0.1837
  592poe    c23 2775   5.717   2.993   6.357 -0.0052  0.4647 -0.0337
  592poe    c23 2776   5.621   2.943   6.466 -0.4159 -0.2041 -0.6931
  592poe     o2 2777   5.554   2.824   6.432 -0.4045 -0.3672 -0.1578
  592poe    c23 2778   5.504   2.759   6.546  0.6724  0.3718  0.7569
  592poe    c23 2779   5.432   2.623   6.536  0.0268  0.7297  0.5311
  592poe     o2 2780   5.331   2.638   6.438  0.2143  0.0112  0.2245
  592poe    c23 2781   5.306   2.519   6.365  0.2108  0.3714 -0.3644
  592poe    c23 2782   5.201   2.535   6.254 -0.0334  0.4224 -0.1264
  592poe     o2 2783   5.256   2.612   6.150 -0.0151  0.5636 -0.0137
  592poe    c31 2784   5.163   2.608   6.043  0.0398 -0.1014 -0.0388
  593poe    c31 2785   3.979   5.387   5.711  0.1518 -0.3081 -0.1356
  593poe     o2 2786   4.034   5.304   5.809 -0.3800 -0.4468  0.0515
  593poe    c23 2787   4.172   5.280   5.793 -0.1496  0.4486  0.6331
  593poe    c23 2788   4.262   5.299   5.917  0.2687  0.0277  0.3980
  593poe     o2 2789   4.242   5.196   6.012 -0.2759  0.0742  0.3349
  593poe    c23 2790   4.291   5.233   6.138 -0.4080  0.0305  0.3990
  593poe    c23 2791   4.270   5.115   6.234  0.1925 -0.1384  0.3284
  593poe     o2 2792   4.135   5.072   6.234  0.0583  0.2767  0.4346
  593poe    c23 2793   4.120   4.966   6.326  0.1853  0.0481  0.1919
  593poe    c23 2794   3.971   4.943   6.356  0.0747 -0.1553 -0.4841
  593poe     o2 2795   3.894   4.948   6.238  0.1988 -0.4039 -0.5765
  593poe    c31 2796   3.763   4.899   6.258 -0.0830  0.5832  0.0970
  594poe    c31 2797   4.819   0.856   1.082 -0.6174 -0.1841  0.2253
  594poe     o2 2798   4.816   0.947   0.974 -0.4012 -0.1426  0.2547
  594poe    c23 2799   4.690   0.942   0.911  0.0222  0.1612 -0.6260
  594poe    c23 2800   4.693   1.031   0.785 -0.0009 -0.0398 -0.7698
  594poe     o2 2801   4.748   1.152   0.831 -0.5667  0.0004 -0.1729
  594poe    c23 2802   4.743   1.264   0.745 -0.1877  0.0115 -0.1837
  594poe    c23 2803   4.791   1.390   0.819  0.1379 -0.4672  0.4351
  594poe     o2 2804   4.923   1.364   0.861  0.2560 -0.4290  0.0904
  594poe    c23 2805   4.987   1.478   0.914 -0.3678  0.0173 -0.0896
  594poe    c23 2806   5.119   1.425   0.975 -0.3760  0.4497  0.3112
  594poe     o2 2807   5.086   1.344   1.086 -0.2320  0.1013  0.1030
  594poe    c31 2808   5.202   1.278   1.131  0.2955  0.8540 -0.1292
  595poe    c31 2809   6.328   4.498   3.380  0.1121  0.1772  0.3370
  595poe     o2 2810   6.210   4.560   3.427 -0.0265  0.2919 -0.1622
  595poe    c23 2811   6.252   4.648   3.528 -0.0134  0.1926 -0.0810
  595poe    c23 2812   6.121   4.669   3.607 -0.0386  0.3429 -0.1625
  595poe     o2 2813   6.025   4.709   3.513 -0.7329  0.1630  0.4648
  595poe    c23 2814   5.898   4.721   3.574 -0.5463  0.4180  0.8041
  595poe    c23 2815   5.774   4.725   3.482 -0.2469  0.3665  0.3946
  595poe     o2 2816   5.771   4.607   3.406  0.5507  0.5515  0.0596
  595poe    c23 2817   5.658   4.596   3.323  0.3597 -0.2563  0.4163
  595poe    c23 2818   5.651   4.473   3.230  0.0672  0.0702  0.0034
  595poe     o2 2819   5.753   4.468   3.132 -0.1388  0.3284 -0.2264
  595poe    c31 2820   5.721   4.388   3.021  0.5587 -0.4603  0.1276
  596poe    c31 2821   0.508   3.212   2.082  0.1306  0.3968 -0.0780
  596poe     o2 2822   0.376   3.219   2.129  0.1287 -0.2711  0.0239
  596poe    c23 2823   0.325   3.350   2.124  0.3571 -0.1777  0.1555
  596poe    c23 2824   0.171   3.352   2.129  0.3617 -0.1724  0.3011
  596poe     o2 2825   0.144   3.249   2.221  0.5514 -0.0506  0.4955
  596poe    c23 2826   0.013   3.237   2.272  0.2189 -0.0452 -0.3365
  596poe    c23 2827   0.020   3.102   2.346 -0.0556  0.0729 -0.0920
  596poe     o2 2828   0.102   3.012   2.276  0.1457  0.4567 -0.3540
  596poe    c23 2829   0.069   2.877   2.297  0.3817  0.4345 -0.1295
  596poe    c23 2830   0.176   2.769   2.272  0.0845  0.1097 -0.0131
  596poe     o2 2831   0.288   2.791   2.355  0.0560  0.3014 -0.0261
  596poe    c31 2832   0.359   2.671   2.371 -0.6896 -0.1702 -0.2117
  597poe    c31 2833   4.049   5.335   4.133 -0.2213 -0.0473  0.2050
  597poe     o2 2834   4.077   5.296   4.266  0.3099  0.1622  0.1541
  597poe    c23 2835   4.021   5.384   4.362  0.0601  0.2937 -0.1101
  597poe    c23 2836   4.096   5.372   4.496 -0.1409 -0.0140 -0.0227
  597poe     o2 2837   4.104   5.232   4.505  0.2056 -0.0102 -0.2260
  597poe    c23 2838   4.163   5.185   4.625 -0.4148 -0.4439 -0.0821
  597poe    c23 2839   4.127   5.035   4.624 -1.4740 -0.1989 -0.3070
  597poe     o2 2840   4.146   4.989   4.492  0.4977  0.0339 -0.1342
  597poe    c23 2841   4.084   4.869   4.452 -0.2757  0.4417 -0.1732
  597poe    c23 2842   4.121   4.870   4.302 -0.1299  0.2291 -0.1384
  597poe     o2 2843   4.104   4.997   4.243  0.1586  0.5330  0.4196
  597poe    c31 2844   4.084   4.990   4.103 -0.4279  0.1951  0.5151
  598poe    c31 2845   4.141   3.469   0.076 -0.1473 -0.0167  0.0471
  598poe     o2 2846   4.187   3.411  -0.044 -0.4966  0.1908 -0.1889
  598poe    c23 2847   4.074   3.350  -0.102 -0.2534 -0.0169 -0.4405
  598poe    c23 2848   4.119   3.270  -0.226 -0.0329  0.1584 -0.4742
  598poe     o2 2849   4.206   3.338  -0.314  0.7879 -0.1252  0.1105
  598poe    c23 2850   4.254   3.257  -0.420 -0.1754  0.0704 -0.4885
  598poe    c23 2851   4.388   3.322  -0.457  0.2019 -0.4547 -0.0615
  598poe     o2 2852   4.462   3.337  -0.338  0.0646  0.0085 -0.0337
  598poe    c23 2853   4.576   3.420  -0.351 -0.2619  0.4326 -0.2286
  598poe    c23 2854   4.621   3.443  -0.205 -0.1713  0.9531 -0.3365
  598poe     o2 2855   4.501   3.474  -0.139 -0.3062 -0.5156  0.1390
  598poe    c31 2856   4.527   3.500  -0.003 -0.9004  0.2961  0.1063
  599poe    c31 2857   4.393   2.510   2.511  0.2001 -0.1496 -0.0498
  599poe     o2 2858   4.344   2.642   2.525 -0.0482 -0.3437  0.9652
  599poe    c23 2859   4.206   2.633   2.499  0.0802 -0.2478  0.2370
  599poe    c23 2860   4.143   2.771   2.469 -0.0741 -0.3114  0.2655
  599poe     o2 2861   4.176   2.847   2.582  0.0646  0.6113 -0.3857
  599poe    c23 2862   4.098   2.965   2.592 -0.5071  0.2022  0.1034
  599poe    c23 2863   4.096   3.023   2.735  0.6515  0.0498  0.1921
  599poe     o2 2864   4.222   2.988   2.790  0.7120 -0.4669 -0.2669
  599poe    c23 2865   4.241   3.060   2.909 -0.2958 -0.5057 -0.0667
  599poe    c23 2866   4.389   3.061   2.954 -0.1379  0.2922 -0.5853
  599poe     o2 2867   4.491   3.072   2.857 -0.0659  0.4916 -0.4873
  599poe    c31 2868   4.613   3.099   2.921 -0.4642  0.2180  0.3991
  600poe    c31 2869   0.671   4.420   1.952  0.1487  0.5386 -0.0145
  600poe     o2 2870   0.534   4.384   1.948  0.2774  0.0621 -0.2097
  600poe    c23 2871   0.536   4.248   1.913  0.6345  0.0088  0.0114
  600poe    c23 2872   0.393   4.193   1.893  0.7047 -0.1328 -0.1062
  600poe     o2 2873   0.329   4.282   1.804 -0.0623 -0.4131  0.1602
  600poe    c23 2874   0.192   4.248   1.802 -0.1258 -0.1585  0.1150
  600poe    c23 2875   0.144   4.269   1.658  0.5337  0.1209 -0.0675
  600poe     o2 2876   0.162   4.406   1.631  0.5455  0.1349  0.0122
  600poe    c23 2877   0.126   4.438   1.498  0.5036 -0.2958 -0.0811
  600poe    c23 2878   0.225   4.542   1.443 -0.3396  0.5709  0.0069
  600poe     o2 2879   0.295   4.590   1.556  0.1297 -0.0367 -0.0219
  600poe    c31 2880   0.371   4.707   1.538 -0.0973  0.0784 -0.2270
  601poe    c31 2881   4.291   5.705   2.163  0.1843 -0.3320  0.3480
  601poe     o2 2882   4.395   5.800   2.168  0.0396 -0.1362 -0.3036
  601poe    c23 2883   4.523   5.740   2.170  0.1206  0.0418 -0.1270
  601poe    c23 2884   4.619   5.861   2.164  0.3156 -0.0638  0.7650
  601poe     o2 2885   4.564   5.950   2.259  0.0987  0.0628  0.5207
  601poe    c23 2886   4.646   6.063   2.275  0.6231 -0.3044  0.4573
  601poe    c23 2887   4.592   6.137   2.399  0.0293  0.0439 -0.0051
  601poe     o2 2888   4.452   6.126   2.414  0.0785 -0.6196 -0.0238
  601poe    c23 2889   4.379   6.224   2.344  0.4199  0.1450  0.6813
  601poe    c23 2890   4.235   6.179   2.311  0.6206  0.0745 -0.0997
  601poe     o2 2891   4.229   6.048   2.259  0.1544 -0.1120  0.4159
  601poe    c31 2892   4.103   6.013   2.205  0.4046 -0.2955 -0.0615
  602poe    c31 2893   2.730   0.581   0.077  0.0189 -0.0531 -0.1521
  602poe     o2 2894   2.841   0.668   0.074 -0.1768  0.2098  0.0761
  602poe    c23 2895   2.950   0.603   0.137 -0.3203  0.1441  0.2596
  602poe    c23 2896   3.071   0.698   0.125 -0.1450 -0.1069  0.0354
  602poe     o2 2897   3.068   0.731  -0.012 -0.0424  0.4523  0.1636
  602poe    c23 2898   3.183   0.795  -0.061  0.0618  0.3147  0.2288
  602poe    c23 2899   3.117   0.908  -0.141 -0.1892  0.0444  0.0530
  602poe     o2 2900   2.989   0.872  -0.186 -0.0885 -0.1744 -0.0611
  602poe    c23 2901   2.911   0.989  -0.204  0.0285 -0.1604 -0.4956
  602poe    c23 2902   2.775   0.948  -0.264 -0.1378  0.0445 -0.2611
  602poe     o2 2903   2.729   0.855  -0.170  0.1032 -0.1574 -0.3417
  602poe    c31 2904   2.601   0.800  -0.191 -0.0676  0.1880 -0.2048
  603poe    c31 2905   3.046   1.252   5.158 -0.5590  0.0307  0.1170
  603poe     o2 2906   3.120   1.339   5.076  0.0350 -0.2359  0.3650
  603poe    c23 2907   3.242   1.273   5.052  0.3132  0.2161  0.5337
  603poe    c23 2908   3.329   1.327   4.936  0.0071 -0.1899  0.1127
  603poe     o2 2909   3.260   1.309   4.815  0.1352  0.3727 -0.0456
  603poe    c23 2910   3.326   1.221   4.727  0.3846 -0.0515  0.5632
  603poe    c23 2911   3.223   1.172   4.623  0.8442 -0.0953  0.1242
  603poe     o2 2912   3.155   1.289   4.584  0.0353 -0.5554  0.1301
  603poe    c23 2913   3.051   1.269   4.491 -0.2346 -0.3166  0.3795
  603poe    c23 2914   3.005   1.413   4.463  1.1360  0.0674  0.0549
  603poe     o2 2915   3.005   1.485   4.583  0.0134  0.0976  0.0446
  603poe    c31 2916   2.938   1.608   4.562  0.2565  0.1976 -0.1521
  604poe    c31 2917   0.589   5.234   5.778 -0.0822  0.0701 -0.0532
  604poe     o2 2918   0.728   5.253   5.764 -0.1513 -0.1186 -1.0635
  604poe    c23 2919   0.784   5.144   5.694 -0.5158 -0.3741 -0.9621
  604poe    c23 2920   0.934   5.174   5.677 -0.3236 -0.2975  0.7006
  604poe     o2 2921   0.985   5.239   5.791  0.2842 -0.1731  0.3666
  604poe    c23 2922   1.122   5.265   5.768  0.1673  0.0212 -0.1058
  604poe    c23 2923   1.177   5.326   5.898 -0.2569  0.5090 -0.1495
  604poe     o2 2924   1.171   5.223   5.994 -0.4135  0.2497 -0.4349
  604poe    c23 2925   1.127   5.268   6.120  0.6843 -0.3124  0.1583
  604poe    c23 2926   0.977   5.245   6.144  0.5631  0.7272  0.4555
  604poe     o2 2927   0.887   5.301   6.051  0.3334 -0.4132 -0.0327
  604poe    c31 2928   0.755   5.308   6.102  0.5158 -0.2921  0.4297
  605poe    c31 2929   0.694   0.476   4.282  0.5999 -0.1250 -0.0097
  605poe     o2 2930   0.768   0.467   4.162 -0.1338 -0.3383 -0.4573
  605poe    c23 2931   0.787   0.604   4.133 -0.1151 -0.1989  0.1836
  605poe    c23 2932   0.858   0.619   3.997 -0.2498 -0.3169  0.0985
  605poe     o2 2933   0.977   0.545   3.982 -0.0647 -0.0273  0.1233
  605poe    c23 2934   1.042   0.545   3.856 -0.2403  0.1608  0.0328
  605poe    c23 2935   1.133   0.421   3.852 -0.2364  0.1619  0.0850
  605poe     o2 2936   1.239   0.426   3.945  0.3990  0.0891 -0.6224
  605poe    c23 2937   1.307   0.305   3.968 -0.0565 -0.0115  0.2536
  605poe    c23 2938   1.366   0.327   4.108 -0.1773 -0.4946  0.3818
  605poe     o2 2939   1.270   0.376   4.200 -0.4053 -0.0937 -0.0649
  605poe    c31 2940   1.313   0.331   4.327  0.3954 -0.2770 -0.3893
  606poe    c31 2941   2.844   3.035   1.030 -0.0497  0.1288 -0.1780
  606poe     o2 2942   2.856   3.172   1.001 -0.5199  0.1716 -0.1741
  606poe    c23 2943   2.797   3.219   0.882  0.0263 -0.6438 -0.7747
  606poe    c23 2944   2.898   3.274   0.779  0.3154  0.1087 -0.0932
  606poe     o2 2945   2.925   3.410   0.802 -0.3316  0.2673 -0.2434
  606poe    c23 2946   3.029   3.439   0.711 -0.2913 -0.1784 -0.3388
  606poe    c23 2947   3.075   3.584   0.735 -0.4111 -0.1592 -0.2194
  606poe     o2 2948   3.094   3.612   0.871  0.3664  0.0313 -0.3637
  606poe    c23 2949   3.165   3.734   0.874  0.1631  0.1518 -0.4471
  606poe    c23 2950   3.176   3.782   1.020 -0.1883  0.2670 -0.4574
  606poe     o2 2951   3.047   3.796   1.074 -0.0320 -0.3328  0.0866
  606poe    c31 2952   3.054   3.798   1.215 -0.1055  0.1729  0.0874
  607poe    c31 2953   3.952   5.499   1.008 -0.2222 -0.0453 -0.0236
  607poe     o2 2954   3.820   5.540   1.036 -0.3625 -0.2390 -0.3918
  607poe    c23 2955   3.739   5.445   1.101  0.6060 -0.4324  0.5504
  607poe    c23 2956   3.609   5.525   1.121  0.8477  0.0439  0.2368
  607poe     o2 2957   3.597   5.624   1.022 -0.2272 -0.1414  0.1667
  607poe    c23 2958   3.467   5.679   1.027  0.0652  0.5380  0.4404
  607poe    c23 2959   3.436   5.771   0.907  0.3907 -0.0876 -0.1323
  607poe     o2 2960   3.441   5.689   0.793  0.3056  0.0619 -0.2433
  607poe    c23 2961   3.354   5.746   0.697 -0.8650 -0.3653  0.5409
  607poe    c23 2962   3.364   5.685   0.556 -0.1156 -0.2022  0.5177
  607poe     o2 2963   3.486   5.682   0.486 -0.4348  0.1054 -0.0576
  607poe    c31 2964   3.522   5.797   0.413 -0.5822 -0.1938 -0.6080
  608poe    c31 2965   1.069   6.788   1.424 -0.6291 -0.1685 -0.0684
  608poe     o2 2966   1.022   6.842   1.546 -0.4640 -0.2521  0.0324
  608poe    c23 2967   1.093   6.963   1.565  0.1827 -0.5925 -0.1571
  608poe    c23 2968   1.041   7.045   1.685 -0.0888 -0.1636 -0.5647
  608poe     o2 2969   1.026   6.949   1.788 -0.1588 -0.1948 -0.6039
  608poe    c23 2970   0.939   7.003   1.884  0.1233 -0.1710 -0.3630
  608poe    c23 2971   0.936   6.912   2.008 -0.4547  0.1162 -0.1593
  608poe     o2 2972   0.892   6.782   1.977  0.4595 -0.3922  0.5896
  608poe    c23 2973   0.894   6.701   2.093  0.6338 -0.5166  0.5005
  608poe    c23 2974   0.899   6.550   2.064 -0.1790 -0.4190 -0.1862
  608poe     o2 2975   1.019   6.508   2.003  0.3019  0.1308  0.3712
  608poe    c31 2976   1.032   6.367   2.009  0.3963  0.1222 -0.0699
  609poe    c31 2977   6.677   1.191   1.867 -0.1739  0.3260 -0.2739
  609poe     o2 2978   6.787   1.104   1.854 -0.2183  0.3456 -0.7869
  609poe    c23 2979   6.908   1.177   1.858  0.2527 -0.4822  0.6841
  609poe    c23 2980   7.028   1.088   1.820  0.2448 -0.1799 -0.0536
  609poe     o2 2981   7.014   0.961   1.879  0.4674  0.0489  0.4997
  609poe    c23 2982   7.109   0.880   1.813 -0.2430  0.0194 -0.5076
  609poe    c23 2983   7.089   0.732   1.850  0.2723  0.0862  0.0430
  609poe     o2 2984   6.958   0.681   1.841  0.2745  0.0619  0.1479
  609poe    c23 2985   6.925   0.645   1.709 -0.0506 -0.1743  0.2951
  609poe    c23 2986   6.801   0.713   1.649  0.1561  0.1589  0.2472
  609poe     o2 2987   6.798   0.845   1.700  0.2442  0.1265  0.3346
  609poe    c31 2988   6.683   0.901   1.643  0.7606 -0.1880 -1.0602
  610poe    c31 2989   3.712   4.579   3.476  0.3277 -0.2452 -0.1196
  610poe     o2 2990   3.797   4.690   3.457 -0.0645  0.1100  0.1620
  610poe    c23 2991   3.821   4.716   3.321  0.0578  0.2051  0.2010
  610poe    c23 2992   3.903   4.846   3.306 -0.0808  0.2582 -0.1133
  610poe     o2 2993   3.994   4.842   3.414  0.1215  0.1696 -0.2863
  610poe    c23 2994   4.115   4.912   3.398  0.1693  0.1411 -0.0583
  610poe    c23 2995   4.193   4.898   3.530  0.0353  0.2089  0.0283
  610poe     o2 2996   4.104   4.883   3.638  0.1379  0.2659  0.1206
  610poe    c23 2997   4.072   5.013   3.682  0.0099  0.3527 -0.2311
  610poe    c23 2998   3.928   4.997   3.735  0.0331  0.3575 -0.1674
  610poe     o2 2999   3.844   4.936   3.640 -0.3274  0.2197  0.2354
  610poe    c31 3000   3.707   4.960   3.664 -0.4782 -0.2257 -0.1496
  611poe    c31 3001   3.682   0.018   2.696  0.3157 -0.2460 -0.2312
  611poe     o2 3002   3.778  -0.034   2.785  0.2228 -0.0019  0.0132
  611poe    c23 3003   3.723  -0.159   2.821  0.4252 -0.3640 -0.9081
  611poe    c23 3004   3.817  -0.243   2.909 -0.4704 -0.1990  0.2406
  611poe     o2 3005   3.886  -0.146   2.984  0.3539 -0.0784 -0.6410
  611poe    c23 3006   3.980  -0.204   3.071 -0.3666  0.1875  0.3427
  611poe    c23 3007   4.043  -0.107   3.173  0.1351  0.4486 -0.2113
  611poe     o2 3008   4.052   0.024   3.121  0.2661  0.3842 -0.3523
  611poe    c23 3009   4.094   0.125   3.209 -0.3967  0.5263 -0.1902
  611poe    c23 3010   3.980   0.193   3.287 -0.2532  0.2628  0.2521
  611poe     o2 3011   3.904   0.286   3.215 -0.3013  0.1951  0.2148
  611poe    c31 3012   3.816   0.344   3.309 -0.3161  0.1469  0.2309
  612poe    c31 3013   4.837   3.673   5.116  0.1615  0.0006  0.0838
  612poe     o2 3014   4.708   3.621   5.141 -0.0920  0.3189 -0.5312
  612poe    c23 3015   4.600   3.684   5.076 -0.4477  0.1285 -0.1322
  612poe    c23 3016   4.470   3.624   5.132 -0.2531 -0.3210 -0.1555
  612poe     o2 3017   4.458   3.485   5.155  0.1598 -0.2490  0.5554
  612poe    c23 3018   4.330   3.464   5.211 -0.1287  0.3126  0.1265
  612poe    c23 3019   4.337   3.324   5.275  0.6339  0.5094  0.4890
  612poe     o2 3020   4.381   3.242   5.169 -0.0997  0.3725  0.2854
  612poe    c23 3021   4.388   3.108   5.213 -0.9479  0.1223 -0.3076
  612poe    c23 3022   4.465   3.034   5.103  0.1838 -0.0276  0.5724
  612poe     o2 3023   4.578   3.119   5.099  0.0526  0.1297  0.1437
  612poe    c31 3024   4.687   3.046   5.151 -0.6014 -0.4976  0.6469
  613poe    c31 3025   4.097   6.116   6.717 -0.3983  0.2210 -0.1932
  613poe     o2 3026   4.032   6.024   6.632 -0.2595  0.3316 -0.4208
  613poe    c23 3027   4.101   5.962   6.526 -0.1591 -0.0995 -0.1081
  613poe    c23 3028   4.014   5.852   6.463 -0.3968  0.0330 -0.0130
  613poe     o2 3029   3.883   5.899   6.442 -0.1759  0.5027 -0.3533
  613poe    c23 3030   3.817   5.823   6.343 -0.1296 -0.2008  0.1482
  613poe    c23 3031   3.665   5.842   6.355 -0.0992  0.1345  0.0134
  613poe     o2 3032   3.655   5.973   6.405  0.0158  0.2089 -0.1563
  613poe    c23 3033   3.528   6.031   6.384 -0.4342 -0.6365  0.2011
  613poe    c23 3034   3.483   6.152   6.469 -0.6304 -0.0208 -0.7691
  613poe     o2 3035   3.554   6.271   6.444 -0.2612 -0.1332 -0.2581
  613poe    c31 3036   3.482   6.389   6.469 -0.3990 -0.2851  0.0646
  614poe    c31 3037   3.965   3.819   6.604 -0.6495 -0.0290  0.0158
  614poe     o2 3038   3.967   3.886   6.479  0.2745 -0.1869 -0.0617
  614poe    c23 3039   3.947   4.024   6.494 -0.7140 -0.3536  0.2242
  614poe    c23 3040   3.947   4.100   6.360  0.5185  0.3395  0.6043
  614poe     o2 3041   4.056   4.041   6.294  0.5393  1.1719 -0.1246
  614poe    c23 3042   4.061   4.079   6.158  0.1680  0.6599 -0.2841
  614poe    c23 3043   4.153   3.971   6.098 -0.0082  0.2054  0.2594
  614poe     o2 3044   4.090   3.852   6.143  0.0485  0.0367 -0.1057
  614poe    c23 3045   4.115   3.732   6.073 -0.5242  0.0168 -0.2771
  614poe    c23 3046   4.047   3.616   6.148 -0.3342  0.3710  0.4554
  614poe     o2 3047   4.066   3.631   6.287 -0.1779 -0.0103  0.4754
  614poe    c31 3048   3.976   3.542   6.350  0.1333 -0.1196  0.7730
  615poe    c31 3049   4.778   4.569   1.623 -0.0980  0.8301  0.0443
  615poe     o2 3050   4.818   4.662   1.721 -0.0280  0.5167  0.3158
  615poe    c23 3051   4.870   4.778   1.661  0.1993 -0.0412 -0.5896
  615poe    c23 3052   4.901   4.891   1.761  0.0098 -0.3973 -0.1271
  615poe     o2 3053   4.935   4.823   1.880  0.1132  0.1174  0.1390
  615poe    c23 3054   5.020   4.901   1.962  0.8054  0.1568 -0.5974
  615poe    c23 3055   5.083   4.800   2.060 -0.1881 -0.0617 -0.1666
  615poe     o2 3056   4.991   4.705   2.109 -0.2397  0.2870  0.4116
  615poe    c23 3057   5.039   4.630   2.217  0.0516  0.3583  0.3322
  615poe    c23 3058   4.965   4.498   2.248  0.0836  0.2068 -0.2271
  615poe     o2 3059   4.826   4.504   2.271  0.1747  0.1618  0.3714
  615poe    c31 3060   4.782   4.371   2.285 -0.6119  0.3868  0.0822
  616poe    c31 3061   6.023   1.699   4.476 -0.3630 -0.1269  0.0485
  616poe     o2 3062   6.043   1.674   4.339  0.4135 -0.3012  0.1885
  616poe    c23 3063   5.957   1.737   4.246  0.6169 -0.1252  0.1162
  616poe    c23 3064   6.034   1.726   4.114  0.6576  0.3325  0.1022
  616poe     o2 3065   6.113   1.609   4.115  0.4260  0.1772  0.2280
  616poe    c23 3066   6.203   1.593   4.008 -0.1381 -0.3606 -0.1697
  616poe    c23 3067   6.252   1.447   4.021  0.2620 -0.2138 -0.0130
  616poe     o2 3068   6.299   1.433   4.153  0.2928 -0.2559 -0.0283
  616poe    c23 3069   6.346   1.300   4.163  0.1108 -0.3260 -0.0941
  616poe    c23 3070   6.440   1.275   4.283 -0.1853  0.0411  0.2141
  616poe     o2 3071   6.349   1.288   4.391 -0.0752  0.0708  0.3029
  616poe    c31 3072   6.422   1.255   4.507  1.0797 -0.4897 -0.5574
  617poe    c31 3073   3.065   1.517   2.768 -0.6734 -0.3333  0.3070
  617poe     o2 3074   3.135   1.413   2.833 -0.0004 -0.0416  0.0547
  617poe    c23 3075   3.272   1.443   2.839 -0.0899  0.3496  0.1768
  617poe    c23 3076   3.335   1.343   2.938  0.2137 -0.2995 -0.6576
  617poe     o2 3077   3.332   1.217   2.875 -0.3617 -0.4415 -0.3543
  617poe    c23 3078   3.390   1.107   2.942 -0.1359 -0.0922  0.0298
  617poe    c23 3079   3.400   0.988   2.845 -0.0201 -0.0710  0.0166
  617poe     o2 3080   3.268   0.964   2.803 -0.0520 -0.5934  0.4073
  617poe    c23 3081   3.254   0.844   2.730  0.5968 -0.0358 -0.6629
  617poe    c23 3082   3.106   0.815   2.700  0.3839  0.0736  0.2317
  617poe     o2 3083   3.068   0.934   2.635  0.0114 -0.0409  0.2410
  617poe    c31 3084   2.933   0.922   2.596  0.0568  0.4463 -0.0786
  618poe    c31 3085   2.795   3.844   3.305 -0.2108  0.1572  0.5120
  618poe     o2 3086   2.883   3.763   3.380  0.2315 -0.0347 -0.2009
  618poe    c23 3087   3.008   3.744   3.317  0.2673  0.0708 -0.1632
  618poe    c23 3088   3.075   3.623   3.385 -0.1087 -0.0805 -0.0607
  618poe     o2 3089   3.050   3.642   3.522 -0.4801 -0.3903 -0.0830
  618poe    c23 3090   3.072   3.520   3.590 -0.4510 -0.5194 -0.3221
  618poe    c23 3091   3.014   3.543   3.731  0.2604  0.4002 -0.1717
  618poe     o2 3092   2.882   3.586   3.707 -0.0515 -0.3478  0.1820
  618poe    c23 3093   2.821   3.656   3.814 -0.0533  0.3207 -0.2499
  618poe    c23 3094   2.689   3.712   3.757 -0.2264  0.3644  0.1907
  618poe     o2 3095   2.727   3.786   3.643 -0.1709 -0.1971 -0.1604
  618poe    c31 3096   2.612   3.860   3.607  0.4854  0.9707  0.0873
  619poe    c31 3097   1.322   2.015   3.197 -0.0811  0.8042 -0.0784
  619poe     o2 3098   1.314   2.014   3.337 -0.0264  0.6117 -0.0760
  619poe    c23 3099   1.373   2.129   3.393 -0.0691  0.2693  0.6974
  619poe    c23 3100   1.343   2.154   3.541  0.0624  1.1032  0.5873
  619poe     o2 3101   1.386   2.049   3.625  0.5067  0.5336 -0.3437
  619poe    c23 3102   1.342   2.072   3.757 -0.1923 -0.7469 -0.3345
  619poe    c23 3103   1.385   1.946   3.833 -0.3766 -0.4636  0.2456
  619poe     o2 3104   1.523   1.953   3.863 -0.3223  0.0063 -0.1057
  619poe    c23 3105   1.557   1.830   3.924 -0.3690 -0.0974 -0.2874
  619poe    c23 3106   1.711   1.834   3.933 -0.4163  0.3885  0.3947
  619poe     o2 3107   1.766   1.884   3.813  0.2495 -0.2567  0.4233
  619poe    c31 3108   1.907   1.887   3.819  0.2488  0.5375  0.1436
  620poe    c31 3109   2.667   2.522   1.624 -0.0086  0.6514 -0.0098
  620poe     o2 3110   2.741   2.638   1.594  0.5778  0.2750 -0.0419
  620poe    c23 3111   2.828   2.628   1.483  0.2886  0.3402 -0.2743
  620poe    c23 3112   2.914   2.756   1.488  0.3332  0.2928  0.2670
  620poe     o2 3113   2.833   2.869   1.468 -0.0389  0.0620  0.4351
  620poe    c23 3114   2.912   2.985   1.480 -0.2690  0.2671  0.0209
  620poe    c23 3115   2.848   3.117   1.433 -0.5048 -0.1028 -0.7015
  620poe     o2 3116   2.717   3.133   1.480 -0.1990  0.7651 -0.1112
  620poe    c23 3117   2.641   3.237   1.421 -0.2971  0.5227 -0.4175
  620poe    c23 3118   2.497   3.234   1.474 -0.0828 -0.1326  0.1485
  620poe     o2 3119   2.453   3.102   1.457 -0.2747 -0.1097  0.4455
  620poe    c31 3120   2.320   3.089   1.503 -0.4113  0.0972  0.1145
  621poe    c31 3121   1.030   5.137   2.346  0.5525  0.1354  0.2631
  621poe     o2 3122   0.995   5.236   2.440  0.0547  0.0274  0.1906
  621poe    c23 3123   1.070   5.354   2.422 -1.0037  0.6698 -0.1114
  621poe    c23 3124   1.033   5.445   2.541  0.0471  0.4681  0.3811
  621poe     o2 3125   1.034   5.355   2.650 -0.2288  0.0625  0.0519
  621poe    c23 3126   0.989   5.425   2.764  0.4395  0.1919  0.2402
  621poe    c23 3127   0.959   5.322   2.874  1.4110 -0.6284 -0.2383
  621poe     o2 3128   0.870   5.230   2.816 -0.3252  0.5374  0.4981
  621poe    c23 3129   0.808   5.161   2.923  0.1155  0.2159  0.5486
  621poe    c23 3130   0.702   5.061   2.873  0.5672  0.1609 -0.3196
  621poe     o2 3131   0.607   5.114   2.782 -0.5140 -0.0308  0.6823
  621poe    c31 3132   0.504   5.022   2.753 -0.1623  0.0287 -0.7997
  622poe    c31 3133   3.015   1.238   3.842 -0.2071 -0.0447 -0.2700
  622poe     o2 3134   3.015   1.111   3.901 -0.4738  0.0678 -0.0244
  622poe    c23 3135   2.950   1.120   4.026  0.0270  0.0102  0.2450
  622poe    c23 3136   2.905   0.977   4.064 -0.3084  0.0532  0.0093
  622poe     o2 3137   3.010   0.891   4.026  0.1047  0.6514 -0.2140
  622poe    c23 3138   2.998   0.767   4.090  0.5456  0.5369 -0.3520
  622poe    c23 3139   3.117   0.675   4.054 -0.1566 -0.4798 -0.1201
  622poe     o2 3140   3.111   0.629   3.921 -0.4239  0.1650 -0.3328
  622poe    c23 3141   3.222   0.555   3.875  0.0311  0.2449  0.5987
  622poe    c23 3142   3.184   0.523   3.729 -0.2980  0.3810  0.6519
  622poe     o2 3143   3.181   0.645   3.658  0.2725 -0.1592 -0.3240
  622poe    c31 3144   3.172   0.625   3.519 -0.5298  0.8629 -0.4306
  623poe    c31 3145   2.170   1.346   1.016 -0.2997  0.1353 -0.5368
  623poe     o2 3146   2.211   1.382   0.886  0.0066 -0.2857 -0.5586
  623poe    c23 3147   2.324   1.309   0.844  0.6869  0.1131  0.5671
  623poe    c23 3148   2.386   1.371   0.718 -0.0577  0.2379  0.2604
  623poe     o2 3149   2.273   1.401   0.640 -0.1750 -0.1580  0.2778
  623poe    c23 3150   2.310   1.445   0.511 -0.6451 -0.5983 -0.0119
  623poe    c23 3151   2.298   1.353   0.388 -0.2395 -0.1072 -0.4233
  623poe     o2 3152   2.410   1.268   0.377 -0.3898 -0.3169 -0.3433
  623poe    c23 3153   2.387   1.171   0.278  0.1857 -0.6315 -0.1739
  623poe    c23 3154   2.453   1.046   0.339  0.2780 -0.1882  0.6471
  623poe     o2 3155   2.583   1.018   0.291 -0.0070  0.0580 -0.2927
  623poe    c31 3156   2.613   0.885   0.326  0.1983  0.0537 -0.4868
  624poe    c31 3157   3.446   2.021   6.595 -0.0919  0.6790 -0.0507
  624poe     o2 3158   3.456   1.948   6.475  0.0937 -0.0627  0.4056
  624poe    c23 3159   3.343   1.867   6.454  0.4395 -0.2941 -0.6609
  624poe    c23 3160   3.362   1.793   6.321 -0.3062 -0.4960 -0.6615
  624poe     o2 3161   3.491   1.737   6.332 -0.0730  0.0448 -0.6150
  624poe    c23 3162   3.541   1.687   6.210  0.1478 -0.7739 -0.1926
  624poe    c23 3163   3.688   1.644   6.225  0.4128 -0.0105 -0.5815
  624poe     o2 3164   3.743   1.761   6.281  0.1407 -0.1022 -0.1211
  624poe    c23 3165   3.867   1.734   6.341  0.1877 -0.1022 -0.2188
  624poe    c23 3166   3.882   1.845   6.447  0.2297  0.3569 -0.6957
  624poe     o2 3167   3.755   1.881   6.499  0.1177 -0.6547 -0.2351
  624poe    c31 3168   3.782   1.968   6.606 -0.3183 -0.3115 -0.4032
  625poe    c31 3169   1.299   5.772   0.735 -0.2250  0.4434 -0.1817
  625poe     o2 3170   1.206   5.668   0.754  0.5407 -0.2100  0.0117
  625poe    c23 3171   1.251   5.557   0.830  0.1253 -0.0513  0.4931
  625poe    c23 3172   1.158   5.436   0.850 -0.0768  0.0414  0.1303
  625poe     o2 3173   1.076   5.393   0.743  0.0336 -0.3924  0.2191
  625poe    c23 3174   1.006   5.278   0.784 -0.1332 -0.3412  0.0769
  625poe    c23 3175   0.910   5.233   0.673  0.1255 -0.2578 -0.1817
  625poe     o2 3176   0.977   5.245   0.549  0.4258 -0.8608 -0.0765
  625poe    c23 3177   0.908   5.207   0.432  0.0889  0.0268 -0.1746
  625poe    c23 3178   0.979   5.267   0.310 -0.0129  0.4915 -0.0053
  625poe     o2 3179   1.011   5.401   0.341  0.8532  0.2003  0.3834
  625poe    c31 3180   1.074   5.454   0.226 -0.3732  0.3405 -0.2325
  626poe    c31 3181   6.601   2.116   4.662 -0.0994  0.0585  0.3362
  626poe     o2 3182   6.474   2.123   4.722 -0.3702 -0.6053 -0.1405
  626poe    c23 3183   6.478   2.105   4.862 -0.1223 -0.5916 -0.1465
  626poe    c23 3184   6.383   2.206   4.928  0.1578  0.1400 -0.8375
  626poe     o2 3185   6.299   2.270   4.835 -0.3946 -0.1695 -0.5603
  626poe    c23 3186   6.241   2.382   4.898  0.0863 -0.2602  0.0587
  626poe    c23 3187   6.137   2.446   4.803  0.3096  0.2722  0.1711
  626poe     o2 3188   6.198   2.435   4.676  0.0283 -0.6270  0.1063
  626poe    c23 3189   6.113   2.468   4.568  0.5113 -0.3517 -0.1942
  626poe    c23 3190   6.189   2.566   4.477  0.0846  0.1497 -0.0167
  626poe     o2 3191   6.301   2.504   4.417  0.0280 -0.0559  0.0895
  626poe    c31 3192   6.396   2.604   4.387 -0.2113  0.2666  0.3894
  627poe    c31 3193   5.525   1.179   1.077  0.3156  0.4802  0.1580
  627poe     o2 3194   5.639   1.102   1.105 -0.0096 -0.1287 -0.1754
  627poe    c23 3195   5.598   0.967   1.109 -0.2646 -0.0375  0.6132
  627poe    c23 3196   5.723   0.883   1.139 -0.7053 -0.8801  0.1411
  627poe     o2 3197   5.785   0.928   1.258  0.1794  0.1632 -0.7054
  627poe    c23 3198   5.883   0.840   1.307 -0.3085  0.1215  0.2167
  627poe    c23 3199   5.967   0.930   1.399  0.1117 -0.2482  0.1984
  627poe     o2 3200   6.013   1.052   1.347 -0.5894 -0.0781 -0.0270
  627poe    c23 3201   6.152   1.056   1.328 -0.5804  0.3385  0.1131
  627poe    c23 3202   6.214   1.197   1.334  0.9066 -0.2938  0.2717
  627poe     o2 3203   6.146   1.290   1.251  0.6380 -0.2744  0.5114
  627poe    c31 3204   6.215   1.411   1.230  0.1723 -0.1090 -0.0884
  628poe    c31 3205   4.344   1.974   1.797  0.1365 -0.8000  0.0072
  628poe     o2 3206   4.277   1.914   1.905 -0.1045 -0.1127  0.2450
  628poe    c23 3207   4.234   1.782   1.880  0.0311 -0.0176 -0.4984
  628poe    c23 3208   4.082   1.768   1.897  0.0134  0.4046 -0.2973
  628poe     o2 3209   4.058   1.818   2.026 -0.0640  0.4082 -0.3133
  628poe    c23 3210   3.919   1.815   2.052 -0.0136  0.0467 -0.0742
  628poe    c23 3211   3.924   1.866   2.197 -0.3068 -0.2935  0.0565
  628poe     o2 3212   3.979   1.995   2.203 -0.1685 -0.3375 -0.2437
  628poe    c23 3213   3.989   2.046   2.335  0.3396  0.1297 -0.4588
  628poe    c23 3214   3.983   2.199   2.333  0.1441  0.1214 -0.5056
  628poe     o2 3215   4.064   2.261   2.235  0.3480  0.4584 -0.1276
  628poe    c31 3216   4.054   2.402   2.238 -0.0844  0.4240  0.1684
  629poe    c31 3217   1.596   3.286   2.961 -0.3240 -0.1838 -0.0502
  629poe     o2 3218   1.462   3.326   2.940 -0.0493  0.7255 -0.1001
  629poe    c23 3219   1.439   3.295   2.805 -0.0503  0.1656  0.0237
  629poe    c23 3220   1.291   3.333   2.782 -0.1160 -0.1847 -0.1380
  629poe     o2 3221   1.217   3.317   2.901  0.1154 -0.3017 -0.0079
  629poe    c23 3222   1.094   3.384   2.883  0.3748  0.2034  0.0835
  629poe    c23 3223   1.012   3.367   3.012  0.1028 -0.3660 -0.1603
  629poe     o2 3224   1.092   3.389   3.126 -0.1196 -0.0081 -0.0721
  629poe    c23 3225   1.019   3.441   3.235 -0.2749 -0.4293  0.0254
  629poe    c23 3226   1.045   3.376   3.373  0.3702  0.0955  0.1539
  629poe     o2 3227   1.170   3.410   3.429  0.3501  0.0597  0.2208
  629poe    c31 3228   1.165   3.406   3.570  0.6247 -0.1007  0.2265
  630poe    c31 3229   0.849   2.231   3.016 -0.2615 -0.3520 -0.1708
  630poe     o2 3230   0.737   2.313   2.995 -0.1355 -0.1761 -0.1589
  630poe    c23 3231   0.674   2.271   2.876 -0.4343 -0.3671  0.0646
  630poe    c23 3232   0.578   2.386   2.838  0.6168  0.2751 -0.7321
  630poe     o2 3233   0.509   2.430   2.953  0.3549  0.1791 -0.8516
  630poe    c23 3234   0.401   2.514   2.919  0.0055 -0.0118 -0.2391
  630poe    c23 3235   0.317   2.554   3.041  0.1676 -0.1333 -0.0875
  630poe     o2 3236   0.385   2.588   3.160  0.2850  0.3252 -0.2847
  630poe    c23 3237   0.279   2.574   3.252  0.4306  0.1859 -0.1372
  630poe    c23 3238   0.332   2.594   3.395 -0.1498 -0.1723  0.1289
  630poe     o2 3239   0.426   2.491   3.411 -0.2338 -0.3144 -0.2923
  630poe    c31 3240   0.504   2.529   3.522 -0.4312 -0.7687  0.0056
  631poe    c31 3241   1.852   2.221   1.179 -0.3978  0.0788 -0.4342
  631poe     o2 3242   1.883   2.347   1.235 -0.0185  0.1864 -0.8783
  631poe    c23 3243   1.776   2.396   1.312  0.3051 -0.0318 -0.2800
  631poe    c23 3244   1.800   2.539   1.366 -0.2833 -0.1162  0.2155
  631poe     o2 3245   1.936   2.551   1.401 -0.2807  0.0550  0.1433
  631poe    c23 3246   1.983   2.683   1.386 -0.1669  0.0125  0.1277
  631poe    c23 3247   2.132   2.679   1.348 -0.1992 -0.2568  0.0270
  631poe     o2 3248   2.147   2.585   1.244 -0.3197 -0.1449 -0.0920
  631poe    c23 3249   2.249   2.592   1.147 -0.2720 -0.1110 -0.0394
  631poe    c23 3250   2.203   2.502   1.031 -0.3375 -0.2784  0.1163
  631poe     o2 3251   2.142   2.389   1.091 -0.6590 -0.2025 -0.0663
  631poe    c31 3252   2.148   2.284   0.997 -0.2987  0.0461 -0.3232
  632poe    c31 3253   5.308   4.539   5.193 -0.3533  0.1263 -0.2341
  632poe     o2 3254   5.374   4.661   5.171  0.0493 -0.0455 -0.0045
  632poe    c23 3255   5.408   4.688   5.037  0.3785 -0.1853  0.0507
  632poe    c23 3256   5.487   4.819   5.026  0.2108 -0.1086 -0.2628
  632poe     o2 3257   5.413   4.922   5.089  0.0011 -0.3104 -0.1803
  632poe    c23 3258   5.464   5.052   5.071  0.0085 -0.2795  0.0626
  632poe    c23 3259   5.373   5.114   5.178  0.2403  0.1499  0.0112
  632poe     o2 3260   5.354   5.021   5.282 -0.1954  0.0609 -0.1468
  632poe    c23 3261   5.270   5.072   5.383  0.2121  0.1258  0.1625
  632poe    c23 3262   5.220   4.949   5.460  0.3710  0.0271  0.1090
  632poe     o2 3263   5.194   4.838   5.377 -0.0768  0.3363 -0.1673
  632poe    c31 3264   5.153   4.724   5.449  0.6621  0.3236  0.2346
  633poe    c31 3265   2.726   5.370   4.402  0.1246 -0.7509 -0.4009
  633poe     o2 3266   2.638   5.478   4.382  0.2733 -0.4488  0.5185
  633poe    c23 3267   2.714   5.594   4.353 -0.0483 -0.4423 -0.3283
  633poe    c23 3268   2.663   5.692   4.460  0.1552 -0.9350  0.2229
  633poe     o2 3269   2.527   5.665   4.490 -0.1989  0.2138 -0.3023
  633poe    c23 3270   2.495   5.719   4.616  0.0978  0.1757 -0.2090
  633poe    c23 3271   2.343   5.703   4.634  0.1938 -0.1090  0.3525
  633poe     o2 3272   2.299   5.571   4.612  0.0235  0.1352 -0.8511
  633poe    c23 3273   2.160   5.562   4.635  0.1764 -0.2932 -0.0426
  633poe    c23 3274   2.119   5.415   4.653  0.1838 -0.2456  0.3894
  633poe     o2 3275   2.149   5.358   4.527 -0.3533 -0.3109  0.2887
  633poe    c31 3276   2.164   5.218   4.528 -0.1527 -0.3027 -0.7736
  634poe    c31 3277   3.110   2.459   0.614  0.0454 -0.0308 -0.5144
  634poe     o2 3278   3.141   2.593   0.647 -0.5495  0.1997 -0.8759
  634poe    c23 3279   3.031   2.649   0.716  0.1183  0.0280  0.3633
  634poe    c23 3280   3.060   2.790   0.768  0.2077  0.0215  0.3313
  634poe     o2 3281   3.100   2.886   0.672  0.0455  0.1376  0.3783
  634poe    c23 3282   3.161   3.000   0.727  0.0370  0.1785  0.3024
  634poe    c23 3283   3.205   3.097   0.615 -0.2554 -0.3206 -0.2445
  634poe     o2 3284   3.226   3.048   0.484 -0.5014 -0.7902 -0.1118
  634poe    c23 3285   3.271   3.137   0.385  0.1279 -0.6322  0.3069
  634poe    c23 3286   3.313   3.035   0.278 -0.2020 -0.4182 -0.0325
  634poe     o2 3287   3.206   2.948   0.249 -0.0538 -0.3247 -0.8957
  634poe    c31 3288   3.237   2.870   0.136 -0.0906 -0.4504 -0.8196
  635poe    c31 3289   5.497   0.338   2.443 -0.4671 -0.2247  0.6248
  635poe     o2 3290   5.446   0.455   2.383  0.2263 -0.4809 -0.4849
  635poe    c23 3291   5.320   0.424   2.328  0.0895 -0.0063 -0.4378
  635poe    c23 3292   5.277   0.538   2.233 -0.5058  0.1304 -0.0093
  635poe     o2 3293   5.277   0.672   2.277  0.0433  0.1764 -0.1462
  635poe    c23 3294   5.195   0.701   2.387  0.2125  0.0859  0.0038
  635poe    c23 3295   5.273   0.795   2.482  0.1265  0.0301  0.1309
  635poe     o2 3296   5.394   0.728   2.512 -0.0395 -0.1550  0.3928
  635poe    c23 3297   5.491   0.797   2.587 -0.3227  0.1499  0.4864
  635poe    c23 3298   5.610   0.703   2.617 -0.2519  0.1772  0.2910
  635poe     o2 3299   5.631   0.631   2.497 -0.6550 -0.7114  0.7475
  635poe    c31 3300   5.750   0.555   2.506 -0.1345 -0.0240 -0.2352
  636poe    c31 3301   2.468   4.320   5.717  0.3554 -0.0983 -0.0743
  636poe     o2 3302   2.572   4.317   5.622  0.6149  0.1863  0.2021
  636poe    c23 3303   2.526   4.243   5.511  0.3264  0.0046  0.4425
  636poe    c23 3304   2.638   4.227   5.407 -0.5335 -0.4496 -0.4303
  636poe     o2 3305   2.756   4.189   5.475 -0.5467  0.0335 -0.1362
  636poe    c23 3306   2.843   4.119   5.390 -0.1725  0.1840  0.1187
  636poe    c23 3307   2.956   4.060   5.477 -0.2907  0.0630  0.1900
  636poe     o2 3308   3.018   4.163   5.551 -0.2245  0.0508  0.1518
  636poe    c23 3309   3.134   4.122   5.620 -0.3173  0.1176  0.3490
  636poe    c23 3310   3.215   4.240   5.677 -0.2820  0.3704 -0.2194
  636poe     o2 3311   3.168   4.272   5.806  0.2195 -0.2348  0.1192
  636poe    c31 3312   3.249   4.373   5.859  0.0752  0.0691 -0.2354
  637poe    c31 3313   6.178   2.905   6.367  0.2315 -0.0597  0.5048
  637poe     o2 3314   6.074   2.970   6.436 -0.2647 -0.1982 -0.1010
  637poe    c23 3315   6.133   3.087   6.488  0.3152 -0.5333  0.0053
  637poe    c23 3316   6.026   3.178   6.551  0.1911 -0.6698 -0.0073
  637poe     o2 3317   5.965   3.120   6.664 -0.3739 -0.2860 -0.1087
  637poe    c23 3318   5.861   3.196   6.720  0.0671  0.0669  0.2407
  637poe    c23 3319   5.800   3.125   6.842 -0.6405 -0.2197 -0.2750
  637poe     o2 3320   5.763   2.996   6.796 -0.0188 -0.4575 -0.1177
  637poe    c23 3321   5.729   2.929   6.915  0.0129 -0.0010  0.1513
  637poe    c23 3322   5.769   2.783   6.890 -0.1494  0.0765 -0.5731
  637poe     o2 3323   5.908   2.786   6.864 -0.0005  0.0790  0.2156
  637poe    c31 3324   5.961   2.658   6.841  0.0505  0.1092  0.1665
  638poe    c31 3325   2.353   3.232   3.262 -0.4966  0.1319  0.0919
  638poe     o2 3326   2.403   3.242   3.130  0.3688 -0.0941  0.3975
  638poe    c23 3327   2.357   3.141   3.042  0.0534 -0.2445  0.7312
  638poe    c23 3328   2.426   3.153   2.905  0.1299  0.4013  0.8237
  638poe     o2 3329   2.412   3.287   2.863  0.5729  0.0740 -0.3908
  638poe    c23 3330   2.446   3.317   2.729  0.3643 -0.0470 -0.4700
  638poe    c23 3331   2.418   3.467   2.717  0.4062 -0.0219 -0.2585
  638poe     o2 3332   2.475   3.535   2.826  0.1236 -0.1269 -0.0464
  638poe    c23 3333   2.442   3.671   2.806 -0.0352 -0.1473  0.0676
  638poe    c23 3334   2.474   3.768   2.921 -0.4901 -0.2289  0.2625
  638poe     o2 3335   2.406   3.747   3.043 -0.5995 -0.0127  0.2393
  638poe    c31 3336   2.401   3.860   3.127  0.1714 -0.2203  0.5737
  639poe    c31 3337   5.573   5.174   6.609  0.1739  0.3336 -0.2944
  639poe     o2 3338   5.629   5.058   6.667  0.3845  0.5465 -0.0670
  639poe    c23 3339   5.733   5.085   6.758  0.4589  0.4241 -0.1165
  639poe    c23 3340   5.809   4.954   6.790 -0.0716  0.1806  0.1687
  639poe     o2 3341   5.730   4.860   6.859 -0.3890  0.1906 -0.1757
  639poe    c23 3342   5.811   4.744   6.868 -0.2943  0.2620 -0.0901
  639poe    c23 3343   5.733   4.644   6.956 -0.0734  0.0622 -0.1205
  639poe     o2 3344   5.595   4.649   6.926 -0.0572  0.3388 -0.1602
  639poe    c23 3345   5.525   4.560   7.011 -0.2506  0.1193 -0.5461
  639poe    c23 3346   5.375   4.564   6.977 -0.1918  0.6601 -0.7570
  639poe     o2 3347   5.343   4.698   7.008 -0.1286  0.5245 -0.0800
  639poe    c31 3348   5.217   4.745   6.966 -0.2925  0.0113 -0.1783
  640poe    c31 3349   5.616   1.410   6.027  0.2982 -0.1853 -0.0780
  640poe     o2 3350   5.483   1.453   6.014  0.4137  0.2705  0.2115
  640poe    c23 3351   5.451   1.484   5.881 -0.3241 -0.0599  0.3044
  640poe    c23 3352   5.322   1.429   5.817 -0.2460 -0.1878  0.2569
  640poe     o2 3353   5.218   1.451   5.910 -0.7873 -0.4967 -0.2661
  640poe    c23 3354   5.087   1.427   5.864 -0.9059 -0.3249 -0.0213
  640poe    c23 3355   5.005   1.517   5.959  0.5341  0.2867  0.6655
  640poe     o2 3356   5.035   1.479   6.091  0.2645 -0.3653  0.5394
  640poe    c23 3357   5.014   1.586   6.180  0.1948  0.3277 -0.3097
  640poe    c23 3358   5.140   1.599   6.268 -0.0365  0.0190  0.0633
  640poe     o2 3359   5.257   1.558   6.202 -0.1527 -0.3660  0.0917
  640poe    c31 3360   5.370   1.597   6.277  0.4525 -0.8395 -0.5578
  641poe    c31 3361   5.445   4.519   0.929 -0.7034 -0.6993 -0.0684
  641poe     o2 3362   5.411   4.655   0.943  0.2822 -0.4617  0.0399
  641poe    c23 3363   5.279   4.682   0.904  0.4341  0.4826  0.1357
  641poe    c23 3364   5.221   4.811   0.965 -0.6073  0.0712  0.0445
  641poe     o2 3365   5.301   4.925   0.948 -0.4719 -0.1152 -0.6061
  641poe    c23 3366   5.225   5.041   0.972  0.1300  0.2171 -0.2759
  641poe    c23 3367   5.323   5.160   0.969  0.0192  0.3120 -0.1649
  641poe     o2 3368   5.439   5.125   1.040  0.1358  0.6360 -0.1954
  641poe    c23 3369   5.532   5.231   1.057  0.7686  0.0360  0.1268
  641poe    c23 3370   5.656   5.162   1.116  0.6138 -0.4899 -0.1477
  641poe     o2 3371   5.622   5.074   1.221  0.0623  0.4678  0.5001
  641poe    c31 3372   5.740   5.028   1.283 -0.2978 -0.1528  0.7372
  642poe    c31 3373   3.173   5.014   2.829  0.4322 -0.1150 -0.1594
  642poe     o2 3374   3.049   5.005   2.896  0.3829 -0.1966 -0.2613
  642poe    c23 3375   3.015   5.111   2.982 -0.3278 -0.8585  0.2871
  642poe    c23 3376   2.863   5.114   3.006 -0.2961 -0.1781  0.4480
  642poe     o2 3377   2.829   4.989   3.063 -0.5272 -0.4347 -0.2346
  642poe    c23 3378   2.694   4.963   3.096 -0.5932  0.3026  0.1158
  642poe    c23 3379   2.703   4.826   3.167  0.3374  0.2392 -0.1044
  642poe     o2 3380   2.785   4.746   3.086 -0.2176 -0.2136 -0.2308
  642poe    c23 3381   2.755   4.608   3.092 -0.1456 -0.2464 -0.5580
  642poe    c23 3382   2.834   4.508   3.007 -0.0417 -0.0644 -0.6760
  642poe     o2 3383   2.975   4.497   3.007 -0.0386 -0.0107 -0.3861
  642poe    c31 3384   3.015   4.374   2.953 -0.1087 -0.2130  0.0165
  643poe    c31 3385   6.271   0.929   4.842 -0.0638  0.5992 -0.2572
  643poe     o2 3386   6.261   0.970   4.977  0.1055  0.1664 -0.1120
  643poe    c23 3387   6.298   1.106   4.977 -0.0018  0.1955  0.1817
  643poe    c23 3388   6.291   1.157   5.122 -0.3571  0.1361  0.1860
  643poe     o2 3389   6.331   1.051   5.206  0.3864  0.1005 -0.2119
  643poe    c23 3390   6.316   1.070   5.345  0.1255  0.0731 -0.2367
  643poe    c23 3391   6.388   0.955   5.419 -0.3488  0.1167  0.2991
  643poe     o2 3392   6.352   0.836   5.352  0.1900  0.3215 -0.3730
  643poe    c23 3393   6.388   0.723   5.428  0.1656  0.3312 -0.3473
  643poe    c23 3394   6.359   0.597   5.346  0.0025  0.3638 -0.3403
  643poe     o2 3395   6.470   0.576   5.261  0.6366  0.3675  0.4781
  643poe    c31 3396   6.478   0.452   5.194  0.7039  0.1559  0.8753
  644poe    c31 3397   4.936   3.596   6.821 -0.3291  0.0736 -0.1918
  644poe     o2 3398   4.873   3.664   6.927 -0.4780 -0.0110 -0.2271
  644poe    c23 3399   4.915   3.623   7.055 -0.0510  0.6246 -0.1599
  644poe    c23 3400   4.853   3.713   7.163 -0.5147 -0.1551  0.2286
  644poe     o2 3401   4.872   3.844   7.115  0.3492 -0.1510  0.5695
  644poe    c23 3402   4.869   3.932   7.225  0.8312  0.2422  0.2752
  644poe    c23 3403   4.850   4.077   7.177 -0.1353  0.1850  0.4591
  644poe     o2 3404   4.717   4.097   7.134  0.0048  0.5374  0.1777
  644poe    c23 3405   4.708   4.215   7.059 -0.1196  0.5755  0.2527
  644poe    c23 3406   4.570   4.219   6.990 -0.1267  0.3383  0.2533
  644poe     o2 3407   4.564   4.124   6.886  0.0536  0.0877  0.4683
  644poe    c31 3408   4.452   4.149   6.804 -0.1744  0.3477  0.8568
  645poe    c31 3409   3.041   2.074   2.612  0.0545  0.2023 -0.2516
  645poe     o2 3410   3.110   2.196   2.597  0.2186  0.1995  0.4563
  645poe    c23 3411   3.032   2.272   2.507  0.4500  0.0003  0.0857
  645poe    c23 3412   3.104   2.385   2.431 -0.3595  0.4057 -0.0863
  645poe     o2 3413   3.171   2.453   2.534  0.0748  0.0524 -0.1346
  645poe    c23 3414   3.291   2.520   2.504  0.1455  0.0435  0.1288
  645poe    c23 3415   3.375   2.532   2.634 -0.5187 -0.0949  0.5744
  645poe     o2 3416   3.394   2.404   2.690  0.1505 -0.2368  0.0381
  645poe    c23 3417   3.461   2.394   2.814 -0.1578 -0.4283  0.1905
  645poe    c23 3418   3.466   2.244   2.849  0.3682 -0.3990  0.2570
  645poe     o2 3419   3.337   2.197   2.815  0.3852 -0.1643 -0.1392
  645poe    c31 3420   3.360   2.058   2.831 -0.9229 -0.3672  0.0404
  646poe    c31 3421   0.158   6.555   1.656  0.0097  0.1128  0.4234
  646poe     o2 3422   0.073   6.497   1.560  0.2062 -0.2065  0.4393
  646poe    c23 3423  -0.006   6.405   1.633 -0.2650 -0.0484  0.1352
  646poe    c23 3424  -0.143   6.412   1.564 -0.1728 -0.4163 -0.0887
  646poe     o2 3425  -0.116   6.403   1.426  0.1645  0.0229 -0.0528
  646poe    c23 3426  -0.226   6.416   1.339 -0.2561 -0.3937  0.4082
  646poe    c23 3427  -0.160   6.390   1.202  0.1458 -0.5643  0.6336
  646poe     o2 3428  -0.034   6.454   1.203  0.0133 -0.2947  0.1912
  646poe    c23 3429   0.055   6.389   1.115 -0.3115  0.7515 -0.9467
  646poe    c23 3430   0.201   6.426   1.148 -0.3007 -0.0263 -0.0818
  646poe     o2 3431   0.199   6.428   1.289 -0.2672  0.0311 -0.0822
  646poe    c31 3432   0.328   6.450   1.343 -0.0864 -0.5543 -0.2639
  647poe    c31 3433   2.215   3.528   6.552 -0.0219  1.0156  1.2777
  647poe     o2 3434   2.350   3.491   6.569 -0.0452  0.1246 -0.3075
  647poe    c23 3435   2.359   3.422   6.691 -0.0823  0.5552 -0.0592
  647poe    c23 3436   2.402   3.499   6.818  0.2103 -0.0790  0.2322
  647poe     o2 3437   2.377   3.435   6.941 -0.2275  0.3126  0.3500
  647poe    c23 3438   2.471   3.494   7.029 -0.1456 -0.2808  0.6672
  647poe    c23 3439   2.457   3.445   7.174  0.6358 -0.3706  0.7159
  647poe     o2 3440   2.424   3.309   7.185 -0.0198 -0.2738  0.0252
  647poe    c23 3441   2.421   3.276   7.322 -0.4536  1.1098  0.3665
  647poe    c23 3442   2.351   3.139   7.322  0.1108  0.8174  0.5542
  647poe     o2 3443   2.242   3.138   7.233  0.1673  0.1434  0.4891
  647poe    c31 3444   2.161   3.024   7.252  0.2079  0.0128 -0.0885
  648poe    c31 3445   4.673   2.078   6.324  0.1651 -0.0063  0.2887
  648poe     o2 3446   4.536   2.096   6.355  0.1284  0.2737 -0.0260
  648poe    c23 3447   4.498   2.231   6.365 -0.0069  0.2532 -0.2509
  648poe    c23 3448   4.346   2.236   6.391  0.0700 -0.2815  0.3369
  648poe     o2 3449   4.286   2.147   6.300 -0.1049 -0.2832  0.4543
  648poe    c23 3450   4.146   2.159   6.303 -0.0756  0.3483 -0.3990
  648poe    c23 3451   4.092   2.065   6.193  0.7595  0.0465 -0.5528
  648poe     o2 3452   4.170   1.948   6.191  0.0480 -0.4588  0.7241
  648poe    c23 3453   4.154   1.874   6.072 -0.9970 -0.4303  0.8382
  648poe    c23 3454   4.211   1.731   6.063  0.0376  0.0678 -1.0819
  648poe     o2 3455   4.348   1.752   6.037  0.3354 -0.0515  0.3359
  648poe    c31 3456   4.415   1.636   5.994  0.1648  0.0468 -0.2041
  649poe    c31 3457   4.323   0.301   5.940 -0.1405 -0.1021 -0.2922
  649poe     o2 3458   4.318   0.171   5.993 -0.0477  0.0300  0.0462
  649poe    c23 3459   4.438   0.102   5.965 -0.2081 -0.2915  0.1440
  649poe    c23 3460   4.444  -0.043   6.017  0.3011 -0.6064 -0.7722
  649poe     o2 3461   4.373  -0.136   5.940 -0.6755 -0.4194 -0.1191
  649poe    c23 3462   4.420  -0.262   5.980  0.4339 -0.0576 -0.2467
  649poe    c23 3463   4.324  -0.378   5.947  0.7854 -0.3209 -0.3503
  649poe     o2 3464   4.291  -0.363   5.810 -0.3747 -0.0002 -0.0434
  649poe    c23 3465   4.196  -0.460   5.771 -0.0037 -0.3215 -0.1455
  649poe    c23 3466   4.179  -0.459   5.618  1.1142  0.5583 -0.2784
  649poe     o2 3467   4.189  -0.326   5.574  0.5168  0.5597 -0.4214
  649poe    c31 3468   4.120  -0.315   5.452  0.1051 -0.3510 -0.2740
  650poe    c31 3469   2.116   3.980   2.963 -0.3359 -0.6001  0.3266
  650poe     o2 3470   2.048   3.989   2.840 -0.1472 -0.0038  0.2601
  650poe    c23 3471   1.944   4.083   2.850 -0.2204 -0.0494 -0.0607
  650poe    c23 3472   1.840   4.066   2.737  0.5067 -0.3496 -0.6874
  650poe     o2 3473   1.763   3.948   2.743 -0.2054  0.1711  0.8579
  650poe    c23 3474   1.694   3.919   2.624  0.1804  0.1199  0.6447
  650poe    c23 3475   1.625   3.782   2.620 -0.0161  0.2174  0.6893
  650poe     o2 3476   1.721   3.680   2.637 -0.1750  0.0045  0.3345
  650poe    c23 3477   1.658   3.554   2.622  0.0195 -0.0575  0.0362
  650poe    c23 3478   1.781   3.463   2.611  0.3548  0.3291  0.5214
  650poe     o2 3479   1.862   3.497   2.722  0.2787  0.0554  0.6636
  650poe    c31 3480   1.978   3.419   2.739  0.4964  0.2937  0.2858
  651poe    c31 3481   2.695   0.254   1.887  0.4732  0.1575 -0.2843
  651poe     o2 3482   2.686   0.268   2.026 -0.0636  0.2589 -0.3295
  651poe    c23 3483   2.688   0.406   2.055  0.0716  0.1564  0.1737
  651poe    c23 3484   2.683   0.450   2.202 -0.1972  0.6344  0.0253
  651poe     o2 3485   2.577   0.390   2.273  0.1396 -0.0754 -0.0628
  651poe    c23 3486   2.581   0.427   2.409  0.2451  0.2398 -0.1516
  651poe    c23 3487   2.472   0.346   2.481  0.3682  0.0108 -0.2220
  651poe     o2 3488   2.345   0.375   2.428  0.2362 -0.1436  0.0045
  651poe    c23 3489   2.250   0.318   2.514  0.3683 -0.4198 -0.0333
  651poe    c23 3490   2.116   0.351   2.447  0.6063  0.0806 -0.2656
  651poe     o2 3491   2.121   0.319   2.310 -0.1340  0.4875 -0.3964
  651poe    c31 3492   1.993   0.282   2.264  0.1366 -0.0058 -0.7646
  652poe    c31 3493   2.557   6.082   4.983  0.4315  0.3641 -0.0578
  652poe     o2 3494   2.574   6.200   5.058  0.7187  0.2851  0.0025
  652poe    c23 3495   2.670   6.178   5.159  0.7911 -0.4077 -0.2118
  652poe    c23 3496   2.649   6.270   5.280  0.3122 -0.4595 -0.2532
  652poe     o2 3497   2.533   6.241   5.356  0.5512 -0.1999  0.2187
  652poe    c23 3498   2.524   6.334   5.461  0.0073  0.0114 -0.0098
  652poe    c23 3499   2.401   6.287   5.542 -0.1357 -0.1389 -0.3144
  652poe     o2 3500   2.278   6.294   5.473  0.1626 -0.4493 -0.8848
  652poe    c23 3501   2.175   6.244   5.555  0.3182  0.2629 -0.2422
  652poe    c23 3502   2.059   6.251   5.454  0.1136 -0.6394 -0.0808
  652poe     o2 3503   2.104   6.189   5.335  0.3676  0.0885 -0.3709
  652poe    c31 3504   1.994   6.143   5.259  0.0485 -0.0510  0.1689
  653poe    c31 3505   0.878   3.361   6.176 -0.2805 -0.2536 -0.0838
  653poe     o2 3506   0.788   3.468   6.156  0.4075  0.3179 -0.1616
  653poe    c23 3507   0.804   3.589   6.227 -0.9722  0.1379  0.4923
  653poe    c23 3508   0.732   3.698   6.146 -0.3115  0.4446  0.3175
  653poe     o2 3509   0.628   3.634   6.076 -0.1502  0.3010  0.2079
  653poe    c23 3510   0.593   3.714   5.965 -0.4207  0.0200  0.0907
  653poe    c23 3511   0.544   3.641   5.838 -0.3428  0.0074  0.0676
  653poe     o2 3512   0.456   3.543   5.887 -0.1181 -0.4712 -0.4723
  653poe    c23 3513   0.405   3.480   5.772 -0.2185 -0.5434 -0.3888
  653poe    c23 3514   0.308   3.362   5.794 -0.9482 -0.0043 -0.6520
  653poe     o2 3515   0.365   3.253   5.863 -0.2406  0.9080  0.2426
  653poe    c31 3516   0.262   3.176   5.920 -0.1087  0.5772  0.0337
  654poe    c31 3517   4.638   3.082   0.550 -0.3884 -1.1161  0.5786
  654poe     o2 3518   4.763   3.024   0.519 -0.0910 -0.2992  0.2221
  654poe    c23 3519   4.854   3.118   0.466 -0.0049 -0.3393  0.2978
  654poe    c23 3520   4.979   3.033   0.439  0.1072 -0.0969  0.0423
  654poe     o2 3521   5.011   2.972   0.562 -0.5280  0.1800  0.3508
  654poe    c23 3522   5.144   2.935   0.593 -0.7008 -0.4080  0.3829
  654poe    c23 3523   5.161   2.965   0.743 -0.1103  0.1716  0.2028
  654poe     o2 3524   5.049   2.904   0.804 -0.0728 -0.2038 -0.0987
  654poe    c23 3525   5.021   2.964   0.929  0.5214 -0.3656  0.1128
  654poe    c23 3526   4.871   2.940   0.952  0.4563  0.1521  0.2314
  654poe     o2 3527   4.791   2.955   0.837  0.0429 -0.5238  0.4246
  654poe    c31 3528   4.662   2.938   0.893 -0.2398 -0.0644 -0.0776
  655poe    c31 3529   3.493   2.804   6.014 -0.0633 -0.5890  0.0127
  655poe     o2 3530   3.625   2.775   5.975  0.2161  0.4599  0.1313
  655poe    c23 3531   3.630   2.643   5.924 -0.2962  0.4909 -0.0051
  655poe    c23 3532   3.773   2.594   5.894 -0.5350 -0.3257  0.1826
  655poe     o2 3533   3.857   2.594   6.008 -0.2850 -0.2766  0.0000
  655poe    c23 3534   3.993   2.562   5.990 -0.2262 -0.1403  0.1968
  655poe    c23 3535   4.064   2.552   6.126 -0.0324  0.1900  0.1195
  655poe     o2 3536   4.007   2.644   6.217 -0.0347  0.2103  0.0978
  655poe    c23 3537   4.036   2.631   6.355 -0.2924 -0.0634  0.1282
  655poe    c23 3538   3.950   2.740   6.421  0.2117  0.1918  0.3703
  655poe     o2 3539   3.819   2.710   6.376  0.1857  0.5240  0.2198
  655poe    c31 3540   3.721   2.749   6.470  0.2962 -0.3392  0.7024
  656poe    c31 3541   0.333   1.617   3.083 -0.5945  0.4776 -0.5219
  656poe     o2 3542   0.297   1.566   3.209  0.1059  0.3855 -0.3606
  656poe    c23 3543   0.157   1.568   3.224  0.1652  0.1155  0.2954
  656poe    c23 3544   0.098   1.573   3.365 -0.5832  0.1829 -0.0165
  656poe     o2 3545   0.118   1.448   3.428  0.1601  0.6713  0.7415
  656poe    c23 3546   0.206   1.444   3.538  0.3507  0.0701  0.5703
  656poe    c23 3547   0.293   1.317   3.546 -0.1426 -0.3318 -0.2717
  656poe     o2 3548   0.397   1.327   3.452  0.2851 -0.9146  0.1336
  656poe    c23 3549   0.530   1.326   3.501  0.2568  0.0284  0.2513
  656poe    c23 3550   0.620   1.320   3.376 -0.1878 -0.4823 -0.0502
  656poe     o2 3551   0.569   1.408   3.278 -0.4360 -0.3633  0.1860
  656poe    c31 3552   0.659   1.393   3.171 -0.3455  0.3145  0.1628
  657poe    c31 3553   0.989   0.751   0.207 -0.6169 -0.5769 -0.2233
  657poe     o2 3554   1.057   0.663   0.294 -0.5355 -0.3683 -0.0764
  657poe    c23 3555   0.980   0.554   0.340 -0.1346 -0.7228 -0.2369
  657poe    c23 3556   1.056   0.469   0.443 -0.4747 -0.4641  0.2325
  657poe     o2 3557   1.072   0.565   0.545  0.4552  0.0756 -0.3969
  657poe    c23 3558   1.130   0.514   0.663 -0.2360  0.0892 -0.0402
  657poe    c23 3559   1.163   0.626   0.763  0.4213  0.1863 -0.3566
  657poe     o2 3560   1.229   0.735   0.704  0.7573  0.1422 -0.0681
  657poe    c23 3561   1.296   0.820   0.794 -0.1058  0.7430  0.0228
  657poe    c23 3562   1.441   0.844   0.749  0.0371 -0.0334  0.0447
  657poe     o2 3563   1.461   0.889   0.616 -0.0600 -0.3927 -0.0912
  657poe    c31 3564   1.559   0.990   0.604  0.0308 -0.4751 -0.0497
  658poe    c31 3565   1.959   3.550   1.616 -0.2695 -0.1529  0.2107
  658poe     o2 3566   1.965   3.436   1.534 -0.5021  0.3275 -0.4892
  658poe    c23 3567   1.891   3.333   1.597  0.1137 -0.0328 -0.3506
  658poe    c23 3568   1.895   3.207   1.509  0.0950  0.1358 -0.5953
  658poe     o2 3569   1.882   3.248   1.375  0.2623  0.5353 -0.4900
  658poe    c23 3570   1.832   3.137   1.304  0.0978  0.4507 -0.2444
  658poe    c23 3571   1.796   3.172   1.158 -0.0343 -0.3463 -0.4130
  658poe     o2 3572   1.716   3.288   1.150  0.2464 -0.1437 -0.3097
  658poe    c23 3573   1.707   3.317   1.012 -0.2479 -0.2442 -0.2987
  658poe    c23 3574   1.624   3.447   1.007 -0.3585 -0.3024  0.0116
  658poe     o2 3575   1.686   3.569   1.039 -0.0566 -0.3686 -0.3167
  658poe    c31 3576   1.607   3.686   1.047 -0.0728 -0.3997 -0.0374
  659poe    c31 3577   3.083   4.523   5.358  0.2577  0.1180 -0.6597
  659poe     o2 3578   2.995   4.486   5.462  0.2969  0.4140 -0.5199
  659poe    c23 3579   3.006   4.570   5.575 -0.2740 -0.2628  0.0507
  659poe    c23 3580   2.887   4.557   5.672 -0.6560  0.4191 -0.3274
  659poe     o2 3581   2.860   4.422   5.701  0.6123  0.2983  0.3672
  659poe    c23 3582   2.783   4.405   5.818 -0.5062 -0.0355 -0.3952
  659poe    c23 3583   2.806   4.261   5.869  0.0636  0.1234 -0.1918
  659poe     o2 3584   2.791   4.170   5.763  0.5812  0.2981 -0.4144
  659poe    c23 3585   2.767   4.041   5.815  0.2000  0.2563 -0.6923
  659poe    c23 3586   2.653   3.966   5.744 -0.2029 -0.0833  0.2982
  659poe     o2 3587   2.706   3.868   5.657 -0.0329  0.3542 -0.0934
  659poe    c31 3588   2.607   3.815   5.572  0.3421  0.1814 -0.4319
  660poe    c31 3589   3.237   5.323   4.954  0.2957  1.0679 -0.5974
  660poe     o2 3590   3.240   5.323   5.095 -0.4639  0.4032 -0.5715
  660poe    c23 3591   3.149   5.242   5.165  0.7539 -0.3462  0.1789
  660poe    c23 3592   3.153   5.259   5.318  0.2523 -0.1321  0.1713
  660poe     o2 3593   3.281   5.226   5.368  0.5500  0.5472 -0.1386
  660poe    c23 3594   3.274   5.206   5.507  0.0297  0.2098 -0.2125
  660poe    c23 3595   3.417   5.207   5.564 -0.2046 -0.2494  0.3901
  660poe     o2 3596   3.506   5.131   5.486  0.1384  0.1586  0.3812
  660poe    c23 3597   3.641   5.149   5.523  0.2898 -0.0232 -0.0739
  660poe    c23 3598   3.733   5.099   5.411  0.3241 -0.0318 -0.0414
  660poe     o2 3599   3.673   5.127   5.287 -0.1773  0.2337  0.2609
  660poe    c31 3600   3.737   5.056   5.183 -0.3693 -0.1060  0.3710
  661poe    c31 3601   1.060   0.457   4.581  0.1978  0.2562  0.3111
  661poe     o2 3602   1.074   0.375   4.695 -0.6948 -0.0546  0.2033
  661poe    c23 3603   1.097   0.239   4.663 -0.0126  0.0577  0.2091
  661poe    c23 3604   1.155   0.174   4.790  0.2517  0.5133  0.3261
  661poe     o2 3605   1.106   0.240   4.905  0.3072  0.2099  0.5238
  661poe    c23 3606   1.178   0.209   5.022  0.4658  0.3639  0.4671
  661poe    c23 3607   1.170   0.332   5.113 -0.8118  0.8052 -0.2171
  661poe     o2 3608   1.142   0.449   5.039 -0.4422  0.8293 -0.3219
  661poe    c23 3609   1.160   0.577   5.095  0.0316  0.3224  0.6961
  661poe    c23 3610   1.081   0.677   5.009  0.1606 -0.3749 -0.2545
  661poe     o2 3611   1.065   0.633   4.876 -0.0530  0.2732 -0.4435
  661poe    c31 3612   1.038   0.732   4.779 -0.0568 -0.2630 -0.9951
  662poe    c31 3613   0.151   3.097   0.142 -0.5445 -0.1571  0.1219
  662poe     o2 3614   0.062   3.205   0.123  0.3499  0.6335  0.4008
  662poe    c23 3615   0.097   3.278   0.007 -0.0037  0.1761  0.0062
  662poe    c23 3616  -0.037   3.347  -0.028 -0.1228 -0.3362 -0.5570
  662poe     o2 3617  -0.089   3.413   0.084 -0.2074 -0.4462 -0.5321
  662poe    c23 3618  -0.230   3.403   0.087 -0.2071 -0.2962  0.3991
  662poe    c23 3619  -0.290   3.282   0.161 -0.0360 -0.4588  0.2728
  662poe     o2 3620  -0.204   3.282   0.273  0.0637  0.4601  0.2113
  662poe    c23 3621  -0.221   3.172   0.360  0.5958  0.3759  0.2094
  662poe    c23 3622  -0.110   3.195   0.464  0.4807 -0.2879  0.4847
  662poe     o2 3623   0.008   3.215   0.390  0.0082  0.4436 -0.0873
  662poe    c31 3624   0.129   3.219   0.462 -0.1058  0.6451  0.0903
  663poe    c31 3625   6.573   5.376   6.656  0.5121  0.3800 -0.1566
  663poe     o2 3626   6.621   5.286   6.754  0.7746  0.6339 -0.0483
  663poe    c23 3627   6.625   5.343   6.882  0.0067  0.1154  0.2155
  663poe    c23 3628   6.639   5.225   6.981  0.4063 -0.3616 -0.4049
  663poe     o2 3629   6.569   5.124   6.912  0.0144 -0.0889 -0.4081
  663poe    c23 3630   6.577   5.004   6.985 -0.3895 -0.1083 -0.3917
  663poe    c23 3631   6.512   4.891   6.904 -0.5632 -0.0063 -0.3957
  663poe     o2 3632   6.554   4.925   6.774 -0.3283 -0.1670 -0.3626
  663poe    c23 3633   6.567   4.822   6.678  0.1588 -0.0778 -0.3981
  663poe    c23 3634   6.660   4.891   6.577 -0.0905 -0.3329 -0.8068
  663poe     o2 3635   6.645   5.031   6.579  0.9571 -0.2154  0.0801
  663poe    c31 3636   6.747   5.088   6.500  0.2257  0.4804 -0.3769
  664poe    c31 3637   2.559   6.725   2.230 -0.1183 -0.1887 -0.0100
  664poe     o2 3638   2.689   6.725   2.283 -0.1495  0.2046  0.0731
  664poe    c23 3639   2.686   6.679   2.416  0.2066  0.1710  0.0724
  664poe    c23 3640   2.835   6.692   2.451  0.2691  0.4013 -0.2689
  664poe     o2 3641   2.910   6.643   2.342  0.1657  0.0710 -0.1942
  664poe    c23 3642   3.049   6.651   2.362  0.2325  0.2204 -0.7030
  664poe    c23 3643   3.119   6.654   2.225  0.8335 -0.0977 -0.4104
  664poe     o2 3644   3.054   6.746   2.139 -0.2734 -0.1408  0.3556
  664poe    c23 3645   3.137   6.779   2.030 -0.1524 -0.4026  0.3674
  664poe    c23 3646   3.072   6.851   1.910  0.5754 -0.6536 -0.1887
  664poe     o2 3647   2.992   6.778   1.820  0.2978 -0.0665 -0.4219
  664poe    c31 3648   2.973   6.844   1.697  0.6333  0.1269 -0.3701
  665poe    c31 3649   2.655   1.869   2.412  0.5531  1.1150  0.1953
  665poe     o2 3650   2.532   1.937   2.422 -0.2085 -0.2220  0.1106
  665poe    c23 3651   2.550   2.059   2.491  0.0153 -0.3341  0.2515
  665poe    c23 3652   2.417   2.135   2.506  0.2821  0.3114 -0.6142
  665poe     o2 3653   2.340   2.105   2.391 -0.1458 -0.2059 -0.1967
  665poe    c23 3654   2.226   2.183   2.365  0.2782  0.5286  0.1372
  665poe    c23 3655   2.112   2.120   2.284  0.4864  0.3922 -0.0488
  665poe     o2 3656   2.102   1.985   2.324 -0.1437  0.4202 -0.1036
  665poe    c23 3657   1.985   1.935   2.263  0.1485  0.0443 -0.3550
  665poe    c23 3658   1.971   1.788   2.306  0.0929  0.1320 -0.0756
  665poe     o2 3659   2.081   1.700   2.294 -0.0831 -0.1780  0.5300
  665poe    c31 3660   2.070   1.638   2.168  0.1223 -0.1534  0.5006
  666poe    c31 3661   2.311   5.333   2.324 -0.2875  0.0380  0.6535
  666poe     o2 3662   2.225   5.239   2.384  0.0216 -0.2932  0.5819
  666poe    c23 3663   2.192   5.280   2.515  0.0157  0.0918  0.4615
  666poe    c23 3664   2.170   5.151   2.596  0.4266 -0.2786 -0.0110
  666poe     o2 3665   2.074   5.085   2.517  0.5194 -0.0425 -0.3228
  666poe    c23 3666   2.057   4.946   2.537 -0.6038  0.2352  0.8016
  666poe    c23 3667   2.177   4.863   2.487 -0.7991  0.3987  0.0464
  666poe     o2 3668   2.226   4.927   2.372 -0.4390  0.1353  0.0530
  666poe    c23 3669   2.328   4.853   2.308 -0.8260 -0.2732 -0.0945
  666poe    c23 3670   2.317   4.911   2.166  0.1358 -0.1857 -0.1383
  666poe     o2 3671   2.279   5.046   2.168  0.2221 -0.1650  0.1158
  666poe    c31 3672   2.316   5.108   2.046  0.9359  0.0044  0.4122
  667poe    c31 3673   1.307   5.177   5.165 -0.0709  0.5413  0.6013
  667poe     o2 3674   1.190   5.166   5.087  0.4857 -0.4053 -0.1321
  667poe    c23 3675   1.108   5.068   5.145  0.3458 -0.1425  0.1171
  667poe    c23 3676   0.963   5.080   5.092  0.3260 -0.4340  0.1030
  667poe     o2 3677   0.961   5.047   4.955  0.3182  0.2617 -0.0692
  667poe    c23 3678   0.835   5.014   4.902  0.0780  0.2372  0.5118
  667poe    c23 3679   0.837   5.004   4.749  0.4240  0.1202  0.5235
  667poe     o2 3680   0.968   4.976   4.704  0.3003  0.3121  0.0395
  667poe    c23 3681   0.977   4.986   4.563 -0.0340  0.1595  0.0078
  667poe    c23 3682   1.121   4.949   4.525 -0.1762 -0.1815 -0.2093
  667poe     o2 3683   1.211   5.009   4.616  0.1013 -0.3142 -0.3962
  667poe    c31 3684   1.341   5.013   4.561  0.2170 -0.4770 -0.1418
  668poe    c31 3685   1.338   5.988   3.570  0.2495  0.1143 -0.2271
  668poe     o2 3686   1.316   5.991   3.710  0.6754  0.3316 -0.1616
  668poe    c23 3687   1.389   6.095   3.770  0.2508  0.1715  0.6389
  668poe    c23 3688   1.285   6.178   3.848 -0.2310 -0.0452  0.2308
  668poe     o2 3689   1.229   6.069   3.918 -0.2804 -0.6001 -0.6503
  668poe    c23 3690   1.145   6.113   4.023  0.1887 -0.3955 -0.3566
  668poe    c23 3691   1.092   5.988   4.095 -0.0716  0.2188  0.5369
  668poe     o2 3692   1.076   5.881   4.005  0.1156  0.5069  0.1592
  668poe    c23 3693   1.159   5.770   4.036  0.0303  0.3205 -0.2695
  668poe    c23 3694   1.152   5.670   3.920  0.0884 -0.3574  0.3085
  668poe     o2 3695   1.194   5.745   3.808  0.2498  0.0993  0.6719
  668poe    c31 3696   1.263   5.664   3.715 -0.2338  0.1987  0.2233
  669poe    c31 3697   0.988   6.065   0.803  0.2353 -0.7003  0.4120
  669poe     o2 3698   0.877   5.986   0.840 -0.4129 -0.1825 -0.3890
  669poe    c23 3699   0.911   5.911   0.954 -0.4626 -0.1972 -0.3839
  669poe    c23 3700   0.819   5.788   0.959 -0.4469 -0.2038 -0.2468
  669poe     o2 3701   0.692   5.848   0.973 -0.2522  0.1098  0.2006
  669poe    c23 3702   0.586   5.758   0.955  0.4116 -0.6952  0.2561
  669poe    c23 3703   0.462   5.844   0.923  0.3310 -0.6889  0.5731
  669poe     o2 3704   0.510   5.920   0.814 -0.2696  0.1610  0.8959
  669poe    c23 3705   0.422   6.022   0.770  0.3395  0.3274  0.0374
  669poe    c23 3706   0.496   6.088   0.652 -0.1743  0.1302 -0.3975
  669poe     o2 3707   0.633   6.087   0.682 -0.3025 -0.5099  0.1958
  669poe    c31 3708   0.720   6.121   0.576 -0.7155  0.1222  0.0547
  670poe    c31 3709   6.206   0.721   6.158 -0.0345 -0.4846  0.1270
  670poe     o2 3710   6.194   0.637   6.046  0.2893  0.2225 -0.4431
  670poe    c23 3711   6.079   0.556   6.051  0.4542 -0.0108 -0.4270
  670poe    c23 3712   6.041   0.532   5.904 -0.4640 -0.1843 -0.1717
  670poe     o2 3713   6.152   0.481   5.833 -0.6667 -0.5747 -0.2110
  670poe    c23 3714   6.125   0.457   5.697  0.7907  0.2394 -0.6748
  670poe    c23 3715   6.233   0.369   5.632  0.6698 -0.3232 -0.1257
  670poe     o2 3716   6.359   0.433   5.625  0.4540  0.0547 -0.5883
  670poe    c23 3717   6.455   0.338   5.665  0.2159  0.0221 -0.0812
  670poe    c23 3718   6.586   0.418   5.679 -0.0201  0.3929  0.0288
  670poe     o2 3719   6.581   0.527   5.769  0.0682  0.3290  0.1117
  670poe    c31 3720   6.706   0.577   5.809  0.2282 -0.0263  0.0562
  671poe    c31 3721   6.093   6.360   3.831 -0.6556  0.3173  0.5715
  671poe     o2 3722   6.022   6.462   3.766  0.0117  0.5408  0.1837
  671poe    c23 3723   5.935   6.396   3.677  0.3357  0.2521  0.0824
  671poe    c23 3724   5.823   6.499   3.654 -0.0124 -0.0367  0.4698
  671poe     o2 3725   5.776   6.547   3.778 -0.1775 -0.1583  0.4533
  671poe    c23 3726   5.654   6.617   3.768  0.1877  0.3505 -0.6574
  671poe    c23 3727   5.615   6.664   3.910  0.2174 -0.3341 -0.4189
  671poe     o2 3728   5.728   6.673   3.992 -0.2195 -0.2884  0.1820
  671poe    c23 3729   5.700   6.726   4.120 -0.1178 -0.3041  0.2116
  671poe    c23 3730   5.827   6.769   4.195 -0.1746 -0.0137  0.1435
  671poe     o2 3731   5.897   6.859   4.112  0.0370 -0.6042 -0.3207
  671poe    c31 3732   5.984   6.934   4.194 -0.4428 -0.4378  0.0357
  672poe    c31 3733   0.911   5.518   4.898  0.1567  0.0995  0.1962
  672poe     o2 3734   0.810   5.510   4.799  0.3270 -0.3666  0.0602
  672poe    c23 3735   0.798   5.383   4.740  0.2111  0.0510 -0.8326
  672poe    c23 3736   0.665   5.371   4.664 -0.0865 -0.0614 -0.2977
  672poe     o2 3737   0.625   5.506   4.654 -0.1753 -0.0572  0.0743
  672poe    c23 3738   0.526   5.526   4.555 -0.4402 -0.1686  0.3180
  672poe    c23 3739   0.494   5.675   4.540 -0.3448 -0.1966 -0.1813
  672poe     o2 3740   0.434   5.724   4.658 -0.0934 -0.2189 -0.0444
  672poe    c23 3741   0.423   5.864   4.644  0.6774 -0.1576 -0.0820
  672poe    c23 3742   0.353   5.908   4.774 -0.1217 -0.3287 -0.4465
  672poe     o2 3743   0.424   5.848   4.880  0.2430  0.0352 -0.4819
  672poe    c31 3744   0.421   5.929   4.994 -0.2484 -0.0547 -0.4300
  673poe    c31 3745   1.717   3.630   0.409 -0.4256 -0.1266  0.3636
  673poe     o2 3746   1.696   3.510   0.338 -0.1112 -0.0027  0.0592
  673poe    c23 3747   1.581   3.533   0.259  0.3190  0.6187 -0.4000
  673poe    c23 3748   1.556   3.418   0.159 -0.2850  0.5359 -0.1566
  673poe     o2 3749   1.540   3.301   0.236 -0.0698  0.4471 -0.2458
  673poe    c23 3750   1.500   3.193   0.154 -0.4609  0.4926 -0.1184
  673poe    c23 3751   1.586   3.068   0.180 -0.4507  0.4682 -0.2706
  673poe     o2 3752   1.596   3.064   0.320  0.3856 -0.0699 -0.3404
  673poe    c23 3753   1.598   2.928   0.357 -0.8683  0.0133  0.0747
  673poe    c23 3754   1.671   2.941   0.492 -0.3553  0.2905 -0.2272
  673poe     o2 3755   1.630   3.055   0.565 -0.8073 -0.2098  0.3046
  673poe    c31 3756   1.677   3.039   0.697 -0.1207  0.0484  0.0951
  674poe    c31 3757   5.683   2.107   0.458 -0.3501 -0.3875 -0.6990
  674poe     o2 3758   5.568   2.186   0.440 -0.3519 -0.1714  0.1913
  674poe    c23 3759   5.574   2.260   0.320  0.1695 -0.6656 -0.0918
  674poe    c23 3760   5.440   2.302   0.258  0.4039  0.0591 -0.1123
  674poe     o2 3761   5.395   2.412   0.333 -0.1969 -0.4554  0.2864
  674poe    c23 3762   5.258   2.441   0.312 -0.1569 -0.3744  0.1399
  674poe    c23 3763   5.197   2.545   0.407 -0.0108 -0.4421  0.3088
  674poe     o2 3764   5.190   2.493   0.538  0.2341 -0.3982  0.3381
  674poe    c23 3765   5.102   2.563   0.623  0.0338  0.0327 -0.2203
  674poe    c23 3766   5.092   2.488   0.757 -0.1115  0.3081 -0.0767
  674poe     o2 3767   5.223   2.446   0.786 -0.3519 -0.3163  0.1082
  674poe    c31 3768   5.230   2.416   0.924 -0.0334  1.1066  0.4109
  675poe    c31 3769   5.547   3.295   0.317 -0.2035 -0.3260 -0.0683
  675poe     o2 3770   5.562   3.314   0.178  0.2155  0.1157  0.0352
  675poe    c23 3771   5.446   3.259   0.119  0.0270  0.2381  0.2886
  675poe    c23 3772   5.403   3.374   0.027 -0.0572 -0.4034 -0.4893
  675poe     o2 3773   5.498   3.397  -0.075  0.1761 -0.5697 -0.3093
  675poe    c23 3774   5.437   3.375  -0.200 -0.2155 -0.6765 -0.1040
  675poe    c23 3775   5.547   3.406  -0.303 -0.1829 -0.1647  0.0821
  675poe     o2 3776   5.593   3.531  -0.257  0.1631 -0.0281 -0.6074
  675poe    c23 3777   5.693   3.564  -0.350  0.1590 -0.1141 -0.6417
  675poe    c23 3778   5.752   3.700  -0.310  0.0390 -0.1645 -0.2945
  675poe     o2 3779   5.779   3.705  -0.171 -0.3637  0.1900 -0.2262
  675poe    c31 3780   5.870   3.805  -0.132 -0.0384 -0.2963  0.2582
  676poe    c31 3781   2.817   6.614   1.382 -0.1681 -0.8321 -0.1535
  676poe     o2 3782   2.923   6.521   1.388  0.7712  0.2172 -0.3553
  676poe    c23 3783   3.016   6.563   1.486  0.2935  0.9119 -0.1858
  676poe    c23 3784   3.145   6.480   1.470 -0.1875  0.2073 -0.4797
  676poe     o2 3785   3.120   6.342   1.456 -0.0158  0.0193  0.9848
  676poe    c23 3786   3.207   6.251   1.393 -0.4351  0.3368 -0.0731
  676poe    c23 3787   3.226   6.277   1.242 -0.0357  0.2662 -0.0370
  676poe     o2 3788   3.093   6.315   1.213 -0.2872 -0.4231  0.1830
  676poe    c23 3789   3.066   6.282   1.079  0.4659  0.1853 -0.1323
  676poe    c23 3790   2.931   6.349   1.049  0.1164 -0.2591  0.4177
  676poe     o2 3791   2.842   6.358   1.158 -0.0581 -0.0539  0.2617
  676poe    c31 3792   2.723   6.425   1.124 -0.1564 -0.4737 -0.2321
  677poe    c31 3793   0.291   1.935   6.172 -0.1436  0.5393 -0.8252
  677poe     o2 3794   0.214   1.857   6.082 -0.0813 -0.2794 -0.1773
  677poe    c23 3795   0.301   1.780   6.003  0.2831 -0.0354 -0.0169
  677poe    c23 3796   0.217   1.712   5.893  0.1539  0.1059 -0.0060
  677poe     o2 3797   0.132   1.607   5.934  0.3003 -0.1646 -0.3838
  677poe    c23 3798   0.047   1.559   5.833  0.0861 -0.3530 -0.1158
  677poe    c23 3799  -0.068   1.477   5.895  0.2312 -0.5237 -0.0713
  677poe     o2 3800  -0.112   1.530   6.018  0.4021  0.1039 -0.2757
  677poe    c23 3801  -0.232   1.469   6.059  0.8130 -0.3876  0.2177
  677poe    c23 3802  -0.286   1.561   6.170 -0.1892  0.0364 -0.6011
  677poe     o2 3803  -0.184   1.594   6.261 -0.7148 -0.0569  0.0326
  677poe    c31 3804  -0.233   1.677   6.365  0.2592 -0.2834  0.6931
  678poe    c31 3805   0.449   6.096   4.293  0.4134  0.1229  0.4138
  678poe     o2 3806   0.449   6.001   4.190 -0.8695  0.4669  0.0871
  678poe    c23 3807   0.326   5.932   4.197 -0.5394 -0.2161 -0.6383
  678poe    c23 3808   0.322   5.806   4.108 -0.3685 -0.3556 -0.4508
  678poe     o2 3809   0.392   5.839   3.990  0.1193 -0.1670 -0.1124
  678poe    c23 3810   0.311   5.862   3.877 -0.1130  0.2234  0.1321
  678poe    c23 3811   0.373   5.965   3.780  0.3027 -0.0422  0.1104
  678poe     o2 3812   0.409   6.063   3.875 -0.5941  0.0792  0.3416
  678poe    c23 3813   0.471   6.169   3.806 -0.3002 -0.1565  0.2410
  678poe    c23 3814   0.545   6.260   3.906 -0.2589 -0.0592  0.1217
  678poe     o2 3815   0.623   6.168   3.979  0.0167  0.3971  0.4059
  678poe    c31 3816   0.721   6.233   4.057  0.1084  0.5188  0.1929
  679poe    c31 3817   0.461   2.418   6.034  0.4420 -0.1501 -0.1750
  679poe     o2 3818   0.363   2.501   5.976 -0.2797 -0.5264  0.4910
  679poe    c23 3819   0.372   2.633   6.024 -0.3043 -0.4556  0.3024
  679poe    c23 3820   0.281   2.722   5.938 -0.0121 -0.3803  0.0696
  679poe     o2 3821   0.170   2.635   5.933  0.1715 -0.6227  0.1954
  679poe    c23 3822   0.073   2.683   5.842  0.2305 -0.1514  0.3763
  679poe    c23 3823  -0.036   2.574   5.839  0.1838 -0.0870 -0.5663
  679poe     o2 3824   0.040   2.461   5.805  0.4015 -0.2652  0.4822
  679poe    c23 3825  -0.041   2.345   5.800  0.0848 -0.0335  0.2515
  679poe    c23 3826   0.065   2.242   5.757  0.1838  0.3651 -0.4854
  679poe     o2 3827   0.171   2.268   5.846 -0.1772 -0.1121  0.0924
  679poe    c31 3828   0.232   2.143   5.874  0.0478 -0.0473 -0.1056
  680poe    c31 3829   4.405   3.718   3.944  0.1025  0.3600  0.2552
  680poe     o2 3830   4.433   3.675   3.813 -0.0118 -0.0338  0.3563
  680poe    c23 3831   4.501   3.773   3.736 -0.4544  0.0947  0.1276
  680poe    c23 3832   4.436   3.761   3.597 -0.4988 -0.3112  0.1812
  680poe     o2 3833   4.408   3.633   3.546 -0.1177 -0.2074 -0.2979
  680poe    c23 3834   4.352   3.633   3.417  0.2169 -0.2882 -0.4432
  680poe    c23 3835   4.279   3.504   3.375  0.1853 -0.4430  0.0825
  680poe     o2 3836   4.154   3.479   3.435 -0.0044  0.1128 -0.0774
  680poe    c23 3837   4.097   3.356   3.398  1.0814 -0.4639  0.1437
  680poe    c23 3838   4.000   3.298   3.502  0.2702  0.7271  0.0664
  680poe     o2 3839   4.074   3.280   3.621 -0.5717  0.1900  0.5281
  680poe    c31 3840   4.029   3.159   3.676  0.5508 -0.5246 -0.0716
  681poe    c31 3841   1.847   3.704   3.781  0.0906  0.3534  0.1391
  681poe     o2 3842   1.971   3.641   3.757 -0.0360  0.0893  0.1783
  681poe    c23 3843   1.963   3.504   3.791  0.3486  0.1444  0.4978
  681poe    c23 3844   2.108   3.452   3.803  0.2053 -0.4026 -0.1147
  681poe     o2 3845   2.167   3.495   3.683 -0.1476 -0.2671 -0.2415
  681poe    c23 3846   2.306   3.476   3.670 -0.1414 -0.3925 -0.0029
  681poe    c23 3847   2.345   3.545   3.538  0.8327  0.3244  0.6427
  681poe     o2 3848   2.281   3.670   3.527  0.7008  0.2139  0.1008
  681poe    c23 3849   2.187   3.672   3.422  0.4411 -0.0203  0.3282
  681poe    c23 3850   2.106   3.803   3.413 -0.2703 -0.5063 -0.4488
  681poe     o2 3851   2.045   3.819   3.538  0.6099  0.2085 -0.0975
  681poe    c31 3852   2.010   3.952   3.568 -0.5250 -0.0968  0.0178
  682poe    c31 3853   4.414   2.771   5.413  0.0917 -0.5904 -0.5671
  682poe     o2 3854   4.520   2.743   5.502 -0.7055  0.0811  0.6245
  682poe    c23 3855   4.629   2.829   5.480 -0.0821 -0.8468 -0.0414
  682poe    c23 3856   4.731   2.817   5.595  0.1875  0.2746 -0.1444
  682poe     o2 3857   4.726   2.682   5.636  0.3690  0.3858  0.2522
  682poe    c23 3858   4.822   2.648   5.733  0.3263 -0.3988  0.0293
  682poe    c23 3859   4.808   2.498   5.765 -0.1799 -0.0804  1.3921
  682poe     o2 3860   4.676   2.464   5.801 -0.6976 -0.1596 -0.4577
  682poe    c23 3861   4.666   2.347   5.880  0.1002  0.6884  0.9404
  682poe    c23 3862   4.524   2.310   5.924 -0.0107  0.2492  0.2307
  682poe     o2 3863   4.448   2.272   5.811  0.3478 -0.6575  0.2865
  682poe    c31 3864   4.329   2.202   5.839  0.5488 -0.9226  0.4782
  683poe    c31 3865   3.057   5.527   4.453 -0.9183  0.6151 -0.4403
  683poe     o2 3866   3.105   5.501   4.323 -0.5297  0.0438 -0.1878
  683poe    c23 3867   3.171   5.615   4.274 -0.3192 -0.0300 -0.0751
  683poe    c23 3868   3.133   5.636   4.126 -0.2306  0.2460 -0.0601
  683poe     o2 3869   3.150   5.522   4.045 -0.0605  0.2083  0.0275
  683poe    c23 3870   3.125   5.558   3.911  0.1819  0.1836 -0.0246
  683poe    c23 3871   3.046   5.448   3.838  0.2786 -0.0652  0.2459
  683poe     o2 3872   3.122   5.330   3.847  0.0377 -0.2480 -0.0931
  683poe    c23 3873   3.039   5.232   3.787 -0.6131 -0.0106  0.4118
  683poe    c23 3874   3.119   5.106   3.824  0.1469  0.4218  0.2781
  683poe     o2 3875   3.143   5.100   3.962  0.1929  0.3722  0.2681
  683poe    c31 3876   3.205   4.978   3.998 -0.5111 -0.3434 -0.8930
  684poe    c31 3877   2.586   4.029   0.939  0.2311  0.1028  0.2800
  684poe     o2 3878   2.650   4.060   1.061  0.1911 -0.0417  0.3380
  684poe    c23 3879   2.549   4.084   1.157  0.1258  0.2434  0.1971
  684poe    c23 3880   2.610   4.043   1.292  0.1597  0.0782  0.1315
  684poe     o2 3881   2.730   4.118   1.290 -0.0216  0.3750  0.2621
  684poe    c23 3882   2.823   4.084   1.390  0.4200 -0.3312 -0.3761
  684poe    c23 3883   2.947   4.165   1.348  0.2789 -0.1226 -0.3893
  684poe     o2 3884   2.962   4.154   1.208 -0.4525 -0.0384 -0.4796
  684poe    c23 3885   3.026   4.271   1.163  0.1310 -0.0221  0.3755
  684poe    c23 3886   2.921   4.364   1.100  0.5072  0.0355 -0.1699
  684poe     o2 3887   2.840   4.279   1.022  0.2522  0.4506 -0.3604
  684poe    c31 3888   2.740   4.345   0.948  0.0187  0.5118  0.0101
  685poe    c31 3889   3.501   0.624   3.255 -0.3133 -0.2646  0.1729
  685poe     o2 3890   3.594   0.723   3.294  0.1155 -0.2370 -0.8904
  685poe    c23 3891   3.525   0.846   3.306  0.4865 -0.0941 -0.1901
  685poe    c23 3892   3.623   0.961   3.334 -0.2387  0.5812 -0.3813
  685poe     o2 3893   3.698   0.911   3.442  0.1475  0.8679 -0.5133
  685poe    c23 3894   3.803   0.997   3.482  0.0457  0.5573  0.4520
  685poe    c23 3895   3.897   0.929   3.582  0.0675  0.1808  0.1788
  685poe     o2 3896   3.926   0.794   3.552 -0.6045  0.0167  0.2574
  685poe    c23 3897   4.017   0.737   3.643  0.3727 -0.2375 -0.8479
  685poe    c23 3898   4.023   0.584   3.634 -0.2573 -0.2950 -0.3944
  685poe     o2 3899   3.905   0.517   3.673 -0.3463 -0.0673 -0.2742
  685poe    c31 3900   3.921   0.377   3.668  0.2397 -0.0013 -0.3791
  686poe    c31 3901   5.404   4.332   4.288  0.1097 -0.6940 -0.2824
  686poe     o2 3902   5.536   4.376   4.264  0.0777 -0.4960 -0.1012
  686poe    c23 3903   5.628   4.323   4.356 -0.2228  0.5891  0.8353
  686poe    c23 3904   5.763   4.397   4.344  0.5052 -0.7954  0.2184
  686poe     o2 3905   5.781   4.441   4.211  0.0130 -0.5683  0.2247
  686poe    c23 3906   5.842   4.568   4.215 -0.2020 -0.4559 -0.0491
  686poe    c23 3907   5.817   4.636   4.079  0.0746 -0.3788 -0.0614
  686poe     o2 3908   5.679   4.611   4.062  0.0460 -0.2125 -0.0777
  686poe    c23 3909   5.640   4.633   3.928  0.1209  0.0971 -0.0493
  686poe    c23 3910   5.486   4.626   3.931  0.1097  0.4177  0.1411
  686poe     o2 3911   5.456   4.517   4.016  0.4914 -0.1643 -0.4622
  686poe    c31 3912   5.322   4.480   3.992  0.6515 -0.8802 -0.2478
  687poe    c31 3913   5.492   1.313   0.132 -0.1670  0.0137 -0.2346
  687poe     o2 3914   5.453   1.178   0.131 -0.7975  0.1950 -0.5040
  687poe    c23 3915   5.380   1.154   0.249  0.4363 -0.3736  0.1590
  687poe    c23 3916   5.394   1.011   0.304  0.1306 -0.3814  0.2192
  687poe     o2 3917   5.376   0.930   0.190  0.5869  0.1078 -0.2073
  687poe    c23 3918   5.411   0.799   0.230 -1.0473 -0.2915 -0.0138
  687poe    c23 3919   5.439   0.748   0.087  0.1180  0.0247  0.0930
  687poe     o2 3920   5.529   0.839   0.029  0.5594 -0.5481 -0.1303
  687poe    c23 3921   5.561   0.808  -0.105  0.2220  0.2727 -0.4078
  687poe    c23 3922   5.619   0.939  -0.161  0.5661 -0.0001 -0.6975
  687poe     o2 3923   5.539   1.054  -0.140  0.0040 -0.4236 -0.4914
  687poe    c31 3924   5.590   1.164  -0.211  0.3574 -0.0393  0.3514
  688poe    c31 3925   3.984   2.361   6.640  0.4109  0.5491  0.2257
  688poe     o2 3926   4.009   2.426   6.763 -0.1249  0.4746  0.3773
  688poe    c23 3927   4.146   2.442   6.794  0.1904 -0.5354 -0.4408
  688poe    c23 3928   4.134   2.484   6.941  0.6370 -0.4803 -0.4203
  688poe     o2 3929   4.095   2.371   7.015  0.1025  0.1990  0.3521
  688poe    c23 3930   4.124   2.356   7.152 -0.6145  0.3355  0.5250
  688poe    c23 3931   4.019   2.264   7.218  0.2142 -0.7004  0.4275
  688poe     o2 3932   3.959   2.174   7.127  0.1557 -0.2822  0.0463
  688poe    c23 3933   3.888   2.071   7.191 -0.2675 -0.1004 -0.1268
  688poe    c23 3934   3.846   1.958   7.095  0.3256 -0.1413 -0.3415
  688poe     o2 3935   3.749   1.992   6.999 -0.3445 -0.1667  0.3113
  688poe    c31 3936   3.650   1.893   6.994 -0.5194  0.0273 -0.2065
  689poe    c31 3937   2.400   4.973   0.386 -0.0787 -0.4490  0.1995
  689poe     o2 3938   2.323   5.039   0.289  0.4800  0.3316  0.2824
  689poe    c23 3939   2.411   5.069   0.183 -0.0425 -0.2986 -0.3352
  689poe    c23 3940   2.322   5.107   0.063 -0.0549 -0.5174 -0.3947
  689poe     o2 3941   2.254   5.229   0.080  0.3771 -0.3049 -0.1678
  689poe    c23 3942   2.189   5.264  -0.040 -0.2409 -0.3904  0.1357
  689poe    c23 3943   2.043   5.302  -0.009 -0.2122 -0.1297 -0.0461
  689poe     o2 3944   1.960   5.204   0.049  0.2985 -0.0661  0.8139
  689poe    c23 3945   1.825   5.227   0.014  0.5372 -0.0592 -0.1435
  689poe    c23 3946   1.741   5.154   0.120 -0.1713  0.9730  0.0218
  689poe     o2 3947   1.797   5.167   0.249  0.2756 -0.3524 -0.0224
  689poe    c31 3948   1.758   5.291   0.303  0.4579 -0.1833 -0.2747
  690poe    c31 3949   4.300   6.794   6.463 -0.1978 -0.7990  0.1906
  690poe     o2 3950   4.221   6.898   6.516  0.2191 -0.1212 -0.5013
  690poe    c23 3951   4.287   7.014   6.561 -0.3589  0.0605 -0.1092
  690poe    c23 3952   4.194   7.093   6.655  0.2718  0.3243  0.2978
  690poe     o2 3953   4.175   7.013   6.770 -0.0137 -0.2327 -0.1325
  690poe    c23 3954   4.063   7.046   6.848 -0.0511  0.1585 -0.3494
  690poe    c23 3955   4.047   6.952   6.969 -0.2393  0.2910 -0.2707
  690poe     o2 3956   4.005   6.827   6.921 -0.1103  0.1231  0.0508
  690poe    c23 3957   3.959   6.741   7.023  0.0912 -0.1131 -0.0560
  690poe    c23 3958   3.879   6.637   6.942  0.7059 -0.6812  0.0586
  690poe     o2 3959   3.960   6.587   6.839  0.0957  0.1931 -0.8572
  690poe    c31 3960   3.908   6.464   6.793 -0.1623  0.0061 -0.0799
  691poe    c31 3961   0.451   2.227   6.582 -0.4918  0.9059  0.5801
  691poe     o2 3962   0.571   2.234   6.507 -0.3972 -0.0651  0.6274
  691poe    c23 3963   0.604   2.371   6.510  0.3686 -0.2444  0.4486
  691poe    c23 3964   0.683   2.419   6.387 -0.3541 -0.5710 -0.1520
  691poe     o2 3965   0.821   2.397   6.369 -0.1593  0.1442  0.3921
  691poe    c23 3966   0.854   2.456   6.245 -0.0713  0.4335  0.5531
  691poe    c23 3967   0.976   2.383   6.185  0.0164  0.2206  0.9863
  691poe     o2 3968   0.963   2.244   6.206 -0.1739  0.0356 -0.3162
  691poe    c23 3969   1.073   2.181   6.145  0.0484  0.1001  0.0210
  691poe    c23 3970   1.062   2.033   6.190 -0.2153  0.0606 -0.1777
  691poe     o2 3971   1.029   2.039   6.327 -0.5281 -0.2640 -0.2383
  691poe    c31 3972   1.060   1.915   6.388 -0.2144 -0.2160 -0.2959
  692poe    c31 3973   6.353   0.428   0.907 -0.6750  0.4334  0.0806
  692poe     o2 3974   6.378   0.290   0.899 -0.0464  0.5944 -0.9249
  692poe    c23 3975   6.407   0.258   0.765  0.4121  0.1195 -0.7170
  692poe    c23 3976   6.458   0.114   0.747 -0.3383 -0.1831 -0.4583
  692poe     o2 3977   6.381   0.008   0.799 -0.0219 -0.2628 -0.1483
  692poe    c23 3978   6.443  -0.114   0.764  0.5633  0.1244 -0.4669
  692poe    c23 3979   6.417  -0.218   0.875 -0.1061 -0.0949 -0.8219
  692poe     o2 3980   6.281  -0.204   0.907  0.0844  0.2737 -0.1477
  692poe    c23 3981   6.240  -0.282   1.017  0.3771  0.3898  0.0431
  692poe    c23 3982   6.097  -0.237   1.055  0.1946 -0.0207 -0.1493
  692poe     o2 3983   6.070  -0.102   1.025 -0.4552 -0.1343 -0.0921
  692poe    c31 3984   5.949  -0.056   1.080  0.1132  0.9231  0.3227
  693poe    c31 3985   3.350   2.061   3.483 -0.1358 -0.2176  0.3647
  693poe     o2 3986   3.345   1.942   3.558 -0.5464 -0.0633  0.5822
  693poe    c23 3987   3.377   1.965   3.693  0.5946 -0.3289  0.3681
  693poe    c23 3988   3.317   1.857   3.786  0.1026 -0.1898  0.2147
  693poe     o2 3989   3.366   1.729   3.754  0.1221 -0.0169 -0.4788
  693poe    c23 3990   3.311   1.632   3.841 -0.6319  0.2523 -0.6510
  693poe    c23 3991   3.318   1.486   3.794  0.0343 -0.1609  0.6871
  693poe     o2 3992   3.267   1.468   3.664 -0.3070 -0.0919  0.8092
  693poe    c23 3993   3.299   1.344   3.604 -0.4102  0.2426  0.0521
  693poe    c23 3994   3.229   1.333   3.467  0.6112  0.1397 -0.4660
  693poe     o2 3995   3.220   1.459   3.406  0.1881  0.2402 -0.1939
  693poe    c31 3996   3.177   1.455   3.272  0.3825 -0.1797 -0.2455
  694poe    c31 3997   4.603   2.680   0.073  0.2075  0.4161  0.1240
  694poe     o2 3998   4.683   2.581   0.134 -0.0871  0.0268 -0.1170
  694poe    c23 3999   4.718   2.628   0.262 -0.3455  0.3329 -0.1574
  694poe    c23 4000   4.773   2.514   0.350  0.2619  0.6618 -0.1011
  694poe     o2 4001   4.851   2.435   0.263 -0.2376  0.4666 -0.3827
  694poe    c23 4002   4.830   2.298   0.287 -0.4281  0.5843  0.1397
  694poe    c23 4003   4.920   2.236   0.178 -0.9622  0.1071 -0.0402
  694poe     o2 4004   4.920   2.308   0.057 -0.1929 -0.0127 -0.1132
  694poe    c23 4005   5.012   2.252  -0.035 -0.0536  0.2959 -0.1634
  694poe    c23 4006   4.945   2.186  -0.157  0.2206 -0.0404 -0.1333
  694poe     o2 4007   4.894   2.283  -0.247  0.7400  0.3458 -0.0177
  694poe    c31 4008   4.929   2.265  -0.382  0.3340 -0.1303 -0.0616
  695poe    c31 4009   5.635   6.145   4.991 -0.0478 -0.0353  0.3460
  695poe     o2 4010   5.579   6.031   4.929  0.5450 -0.1699  0.0478
  695poe    c23 4011   5.520   5.947   5.026  0.3245  0.0283  0.0876
  695poe    c23 4012   5.542   5.801   4.980 -0.1405  0.1058 -0.3959
  695poe     o2 4013   5.496   5.805   4.847 -0.1134  0.4623 -0.3950
  695poe    c23 4014   5.507   5.681   4.781 -0.9153  0.0835  0.1600
  695poe    c23 4015   5.477   5.679   4.630  0.3458 -0.3512 -0.1004
  695poe     o2 4016   5.552   5.774   4.558  0.4359 -0.3786 -0.0413
  695poe    c23 4017   5.504   5.783   4.426 -0.5209  0.3880  0.3431
  695poe    c23 4018   5.566   5.898   4.345 -0.5519 -0.0078 -0.2446
  695poe     o2 4019   5.550   6.025   4.405 -0.1426 -0.2025  0.2817
  695poe    c31 4020   5.624   6.114   4.325 -0.3227 -0.5201 -0.2449
  696poe    c31 4021   4.691   5.346   1.224  0.0470  0.1965 -0.2903
  696poe     o2 4022   4.640   5.462   1.163  0.1784  0.1466 -0.4936
  696poe    c23 4023   4.729   5.546   1.092  0.3421  0.1284 -0.3108
  696poe    c23 4024   4.636   5.656   1.036 -0.3992 -0.2583  0.1493
  696poe     o2 4025   4.544   5.695   1.136 -0.2074  0.2742  0.1211
  696poe    c23 4026   4.481   5.811   1.089 -0.2429 -0.1025 -0.7763
  696poe    c23 4027   4.446   5.896   1.212 -0.0492 -0.1556 -0.6849
  696poe     o2 4028   4.349   5.828   1.288 -0.1165  0.4443 -0.2181
  696poe    c23 4029   4.297   5.908   1.391 -0.0372  0.0354  0.1405
  696poe    c23 4030   4.221   5.821   1.494  0.2688  0.0878  0.4112
  696poe     o2 4031   4.318   5.723   1.525  0.2099 -0.1103 -0.0209
  696poe    c31 4032   4.320   5.689   1.662  0.7344  0.1623  0.0407
  697poe    c31 4033   2.705   3.323   2.120 -0.7717  0.1360  0.0587
  697poe     o2 4034   2.735   3.235   2.226  0.2030  0.1463 -0.1951
  697poe    c23 4035   2.765   3.308   2.343 -0.2357  0.1913 -0.1088
  697poe    c23 4036   2.798   3.211   2.459  0.2213  0.1474 -0.2727
  697poe     o2 4037   2.690   3.127   2.495  0.2250  0.2168 -0.0976
  697poe    c23 4038   2.706   3.053   2.613 -0.2954 -0.0868 -0.2154
  697poe    c23 4039   2.781   2.919   2.623  0.5522  0.3762 -0.2500
  697poe     o2 4040   2.713   2.846   2.523  0.7397 -0.0613 -0.0636
  697poe    c23 4041   2.733   2.709   2.547  0.9651 -0.0851 -0.3870
  697poe    c23 4042   2.626   2.637   2.463  0.0864  0.6181  0.1139
  697poe     o2 4043   2.618   2.707   2.342  0.5245  0.5789  0.0607
  697poe    c31 4044   2.525   2.651   2.253  1.1365  0.5845 -0.5973
  698poe    c31 4045   6.292   6.531   5.488  0.1681 -0.5633  0.3123
  698poe     o2 4046   6.424   6.567   5.452 -0.2951  0.8078 -0.1106
  698poe    c23 4047   6.508   6.582   5.564  0.4323 -0.2738 -0.4896
  698poe    c23 4048   6.649   6.632   5.526  0.2158  0.5963 -0.1578
  698poe     o2 4049   6.668   6.552   5.412 -0.3992  0.2689 -0.0346
  698poe    c23 4050   6.790   6.577   5.347 -0.3185  0.0112  0.0147
  698poe    c23 4051   6.796   6.480   5.228 -0.5414 -0.3577  0.3047
  698poe     o2 4052   6.692   6.506   5.137 -0.0522 -0.2502 -0.2266
  698poe    c23 4053   6.663   6.390   5.062  0.3201 -0.1730 -0.4909
  698poe    c23 4054   6.510   6.393   5.067  0.3440 -0.1989  0.4338
  698poe     o2 4055   6.456   6.411   5.196  0.1940 -0.4975  0.4136
  698poe    c31 4056   6.319   6.377   5.200  0.1131 -0.1977  0.1873
  699poe    c31 4057   5.578   0.656   3.452 -0.3973  0.0296 -0.4074
  699poe     o2 4058   5.661   0.627   3.342 -0.1549  0.1790 -0.2660
  699poe    c23 4059   5.792   0.664   3.379 -0.3361  0.3237  0.2360
  699poe    c23 4060   5.908   0.574   3.332 -0.2858  0.5025  0.0165
  699poe     o2 4061   5.910   0.533   3.198  0.1727  0.0914  0.1427
  699poe    c23 4062   6.039   0.495   3.157  0.1782 -0.2153  0.4374
  699poe    c23 4063   6.033   0.490   3.003 -0.0180 -0.3046  0.4488
  699poe     o2 4064   5.911   0.429   2.964  0.0521 -0.2290  0.1070
  699poe    c23 4065   5.917   0.384   2.831  0.1408 -0.0894  0.0631
  699poe    c23 4066   5.773   0.361   2.780  0.1378 -0.1478  0.0971
  699poe     o2 4067   5.706   0.301   2.888 -0.3607  0.0016 -0.1286
  699poe    c31 4068   5.581   0.251   2.845 -0.1977 -0.1321 -0.4514
  700poe    c31 4069   5.242   0.595   6.084  0.4005  0.1390 -0.6655
  700poe     o2 4070   5.208   0.596   6.221  0.2068 -0.2605 -0.7098
  700poe    c23 4071   5.068   0.580   6.213  0.0688  0.4846  0.0618
  700poe    c23 4072   5.018   0.588   6.359  0.2126  0.2818  0.1233
  700poe     o2 4073   5.110   0.520   6.441 -0.2510 -0.4293  0.0692
  700poe    c23 4074   5.072   0.517   6.576  0.1541  0.8423  0.2349
  700poe    c23 4075   5.176   0.427   6.646 -0.4101  0.1661  0.2223
  700poe     o2 4076   5.301   0.488   6.621 -0.1483 -0.0862  0.8829
  700poe    c23 4077   5.398   0.387   6.605 -0.0978  0.1080 -0.0943
  700poe    c23 4078   5.498   0.426   6.495  0.1902  0.4406  0.2855
  700poe     o2 4079   5.428   0.443   6.374  0.5977  0.1151  0.0005
  700poe    c31 4080   5.523   0.483   6.277  0.3997 -0.1030 -0.2839
  701poe    c31 4081   4.788   0.137   3.701  0.8141  0.2329  0.6063
  701poe     o2 4082   4.898   0.181   3.624  0.3757 -0.3422 -0.3810
  701poe    c23 4083   5.019   0.143   3.687  0.2522 -0.1434 -0.0172
  701poe    c23 4084   5.127   0.234   3.625 -0.0959  0.0424 -0.3550
  701poe     o2 4085   5.114   0.373   3.646  0.9872  0.0687  0.1655
  701poe    c23 4086   5.132   0.420   3.778 -0.2115 -0.2111  0.4318
  701poe    c23 4087   5.165   0.569   3.758 -0.7955 -0.0736  0.4673
  701poe     o2 4088   5.068   0.607   3.662 -0.2064 -0.0839 -0.1396
  701poe    c23 4089   5.092   0.742   3.627  0.3859 -0.2362 -0.3387
  701poe    c23 4090   4.982   0.782   3.527 -0.2316 -0.0804  0.3957
  701poe     o2 4091   4.965   0.682   3.429 -0.0087  0.3138 -0.0474
  701poe    c31 4092   4.838   0.694   3.371 -0.3744  0.0431  0.6775
  702poe    c31 4093   1.015   2.641   2.871 -0.2091  0.9802  0.1209
  702poe     o2 4094   1.054   2.637   2.736  0.4002 -0.4286  0.3273
  702poe    c23 4095   1.041   2.753   2.658  0.6336 -0.3887  0.3492
  702poe    c23 4096   1.165   2.767   2.567  0.5013  0.3348  0.2688
  702poe     o2 4097   1.182   2.633   2.527  0.3046  0.2731  0.3891
  702poe    c23 4098   1.263   2.625   2.412 -0.1415 -0.0311  0.0911
  702poe    c23 4099   1.238   2.482   2.362 -0.0080 -0.0893  0.1922
  702poe     o2 4100   1.211   2.391   2.467  0.1030 -0.0649  0.2417
  702poe    c23 4101   1.182   2.260   2.423 -0.1545  0.1720 -0.2989
  702poe    c23 4102   1.155   2.147   2.523  0.0697  0.2087 -0.1960
  702poe     o2 4103   1.042   2.171   2.604  0.3199  0.0597  0.2031
  702poe    c31 4104   0.982   2.054   2.653  0.0159  0.2057  0.1795
  703poe    c31 4105   2.949   1.382   6.286  0.2846  0.2620 -0.5677
  703poe     o2 4106   2.859   1.381   6.177  0.0741 -0.2380 -0.3908
  703poe    c23 4107   2.725   1.405   6.215  0.2583  0.0392  0.0934
  703poe    c23 4108   2.633   1.371   6.097  0.4770 -0.3880  0.0448
  703poe     o2 4109   2.663   1.442   5.978  0.2526  0.1171  0.2857
  703poe    c23 4110   2.603   1.375   5.869  0.5130 -0.0413  0.2386
  703poe    c23 4111   2.623   1.469   5.749  0.3020 -0.2890  0.0104
  703poe     o2 4112   2.756   1.514   5.738  0.1461  0.1481 -0.0934
  703poe    c23 4113   2.778   1.618   5.645  0.1154  0.0647 -0.1941
  703poe    c23 4114   2.919   1.607   5.585  0.2170 -0.2110  0.0915
  703poe     o2 4115   2.987   1.572   5.703  0.0859  0.4917  0.3790
  703poe    c31 4116   3.125   1.570   5.677  0.0173 -0.4838  0.0674
  704poe    c31 4117   2.128   0.700   4.126 -0.0820 -1.0856  0.2492
  704poe     o2 4118   2.028   0.685   4.224 -0.1590  0.0393  0.3614
  704poe    c23 4119   1.961   0.566   4.189  0.1872 -0.1181  0.2267
  704poe    c23 4120   1.894   0.510   4.316  0.4191 -0.3345  0.2554
  704poe     o2 4121   1.873   0.628   4.391  0.0285 -0.1827 -0.0873
  704poe    c23 4122   1.839   0.599   4.525  0.3006 -0.1951 -0.0203
  704poe    c23 4123   1.815   0.736   4.591 -0.3016 -0.0580 -0.5127
  704poe     o2 4124   1.914   0.820   4.536 -0.2381  0.0687 -0.2038
  704poe    c23 4125   1.883   0.958   4.542 -0.0766  0.0946  0.0591
  704poe    c23 4126   1.835   0.990   4.400 -0.0679 -0.1341  0.0040
  704poe     o2 4127   1.916   0.937   4.297 -0.2524 -0.4300  0.0088
  704poe    c31 4128   1.886   1.000   4.174  0.1528 -0.3442 -0.0483
  705poe    c31 4129   5.156   2.046   5.079 -0.2741  0.1387  0.4318
  705poe     o2 4130   5.289   2.089   5.062 -0.1633 -0.2369  0.3563
  705poe    c23 4131   5.292   2.229   5.044 -0.1491 -0.2999 -0.1717
  705poe    c23 4132   5.435   2.276   5.013 -0.2639  0.1403 -0.0324
  705poe     o2 4133   5.481   2.182   4.919 -0.0832  0.0443  0.1506
  705poe    c23 4134   5.621   2.190   4.902  0.0579 -0.7784  0.7927
  705poe    c23 4135   5.666   2.084   4.800  0.1333 -0.0355  0.0336
  705poe     o2 4136   5.612   1.960   4.841 -0.3956  0.1169 -0.1985
  705poe    c23 4137   5.672   1.856   4.768  0.1992  0.1477  0.2393
  705poe    c23 4138   5.590   1.725   4.774 -0.2195  0.4187  0.4430
  705poe     o2 4139   5.461   1.746   4.720  0.0516 -0.3008 -0.5075
  705poe    c31 4140   5.410   1.626   4.665  0.5106 -0.3393 -0.8531
  706poe    c31 4141   1.099   3.300   1.580 -0.2641  0.0941  0.1681
  706poe     o2 4142   1.153   3.198   1.499 -0.4057 -0.0885  0.3042
  706poe    c23 4143   1.193   3.256   1.377  0.2710 -0.7347  0.2103
  706poe    c23 4144   1.305   3.181   1.304  0.6123  0.7314 -0.8193
  706poe     o2 4145   1.253   3.062   1.249 -0.3647  0.6141  0.3301
  706poe    c23 4146   1.351   2.966   1.217 -0.5659  0.5848 -0.2147
  706poe    c23 4147   1.295   2.823   1.207 -0.2449  0.4765 -0.4857
  706poe     o2 4148   1.247   2.766   1.327  0.6361  0.0166 -0.3393
  706poe    c23 4149   1.184   2.643   1.300  0.1415  0.1889  0.0195
  706poe    c23 4150   1.165   2.573   1.436 -0.2585 -0.1262 -0.1953
  706poe     o2 4151   1.120   2.672   1.525 -0.1014 -0.1765 -0.0585
  706poe    c31 4152   1.022   2.616   1.609  0.0997 -0.6182 -0.1134
  707poe    c31 4153   3.868   2.148   1.898 -0.6072  0.0936  0.3210
  707poe     o2 4154   3.782   2.138   1.786  0.3213 -0.4854 -0.3566
  707poe    c23 4155   3.730   2.265   1.753  0.0481 -0.4883  0.0531
  707poe    c23 4156   3.658   2.271   1.617 -0.2038  0.2122  0.2135
  707poe     o2 4157   3.582   2.153   1.630  0.1303 -0.0283 -0.0130
  707poe    c23 4158   3.516   2.129   1.508  0.0949  0.2873 -0.0562
  707poe    c23 4159   3.434   1.999   1.514  0.0301  0.3177 -0.2617
  707poe     o2 4160   3.529   1.907   1.563 -0.5026  0.0897  0.3653
  707poe    c23 4161   3.493   1.770   1.567  0.8091 -0.2840 -0.0442
  707poe    c23 4162   3.408   1.712   1.681  0.5499  0.0954 -0.0396
  707poe     o2 4163   3.460   1.749   1.807 -0.5167  0.1627  0.3904
  707poe    c31 4164   3.396   1.684   1.915  0.2515  0.0311  0.7723
  708poe    c31 4165   5.870   0.758   0.478  0.3002  0.1803 -0.0780
  708poe     o2 4166   5.929   0.858   0.398 -0.1101  0.2444 -0.3033
  708poe    c23 4167   5.844   0.900   0.294 -0.3397 -0.2436 -0.3162
  708poe    c23 4168   5.930   1.010   0.230  0.1040  0.0189  0.7078
  708poe     o2 4169   6.054   0.949   0.206  0.0508  0.3060 -0.3348
  708poe    c23 4170   6.146   1.018   0.124  0.3883 -0.0232 -0.2391
  708poe    c23 4171   6.283   0.952   0.149  0.4414  0.3755  0.5644
  708poe     o2 4172   6.288   0.908   0.283 -0.8320 -0.4764  0.3519
  708poe    c23 4173   6.394   0.819   0.308  0.1424  0.5253 -0.1690
  708poe    c23 4174   6.375   0.770   0.453 -0.0439 -0.1138 -0.4062
  708poe     o2 4175   6.237   0.740   0.457 -0.0227 -0.1410  0.2145
  708poe    c31 4176   6.210   0.678   0.580 -0.4736 -0.3409  0.0188
  709poe    c31 4177   1.899   4.906   5.566 -0.1395 -0.5347 -0.4940
  709poe     o2 4178   1.971   4.867   5.681 -0.0233  0.2556 -0.2929
  709poe    c23 4179   1.879   4.892   5.785  0.3236 -0.0432  0.0906
  709poe    c23 4180   1.931   4.876   5.929  0.1335  0.1490  0.1828
  709poe     o2 4181   1.950   4.745   5.977 -0.2914  0.0662  0.1234
  709poe    c23 4182   1.989   4.742   6.113 -0.0708  0.4164  0.0672
  709poe    c23 4183   1.965   4.602   6.171  0.0941  0.2934 -0.1603
  709poe     o2 4184   2.027   4.517   6.077 -0.3372  0.2517 -0.4075
  709poe    c23 4185   2.008   4.386   6.124  0.1147  0.4170  0.2496
  709poe    c23 4186   2.045   4.292   6.008 -0.0406  0.4078  0.2072
  709poe     o2 4187   1.997   4.355   5.891 -0.0968  0.0649  0.0430
  709poe    c31 4188   2.035   4.276   5.781  0.0499 -0.0653  0.1895
  710poe    c31 4189   4.051   0.993   4.542 -0.5123 -0.0759  0.1829
  710poe     o2 4190   3.959   0.983   4.436 -0.1626  0.2409 -0.1529
  710poe    c23 4191   3.822   0.975   4.467 -0.0286  0.6929  0.5615
  710poe    c23 4192   3.742   0.996   4.338  0.9212 -0.1935 -0.1925
  710poe     o2 4193   3.727   0.904   4.232  0.4971 -0.1174 -0.2015
  710poe    c23 4194   3.643   0.798   4.270 -0.1709  0.4694 -0.0187
  710poe    c23 4195   3.625   0.691   4.160 -0.0727  0.1884  0.2373
  710poe     o2 4196   3.755   0.651   4.120 -0.1529  0.2909 -0.1333
  710poe    c23 4197   3.767   0.538   4.037 -0.2960 -0.0967  0.3624
  710poe    c23 4198   3.915   0.495   4.029 -0.1537  0.4609 -0.1419
  710poe     o2 4199   3.999   0.607   4.011  0.2025  0.2592  0.2444
  710poe    c31 4200   4.130   0.560   3.987  0.0388  0.1079 -0.3825
  711poe    c31 4201   4.830   0.948   3.885 -0.4360  0.2370  0.0620
  711poe     o2 4202   4.791   1.056   3.805 -0.8922  0.1028  0.1032
  711poe    c23 4203   4.837   1.180   3.853 -0.3327 -0.0546 -0.0181
  711poe    c23 4204   4.764   1.300   3.789 -0.3930 -0.2085 -0.2363
  711poe     o2 4205   4.794   1.320   3.653  0.4885  1.0010  0.1196
  711poe    c23 4206   4.716   1.427   3.602 -0.5928  0.2862  0.2282
  711poe    c23 4207   4.769   1.436   3.457 -0.0695 -0.5792  0.3545
  711poe     o2 4208   4.830   1.320   3.405 -0.0094 -0.3735 -0.0332
  711poe    c23 4209   4.807   1.322   3.266  0.3563  0.1963 -0.0903
  711poe    c23 4210   4.930   1.240   3.223  0.4101  0.2031  0.0496
  711poe     o2 4211   4.925   1.119   3.295  0.1286  0.0944 -0.1463
  711poe    c31 4212   5.015   1.025   3.240  0.3871  0.3195 -0.1072
  712poe    c31 4213   1.934   2.527   1.782 -0.3634 -0.3699 -0.0609
  712poe     o2 4214   1.890   2.433   1.877 -0.2663 -0.3912 -0.0368
  712poe    c23 4215   1.975   2.327   1.841  0.6715  0.1538  0.5385
  712poe    c23 4216   1.935   2.204   1.926  0.0427 -0.1440 -0.1828
  712poe     o2 4217   1.805   2.149   1.923  0.2163 -0.5668 -0.0033
  712poe    c23 4218   1.802   2.009   1.935 -0.1791 -0.5590 -0.0010
  712poe    c23 4219   1.667   1.947   1.892 -0.3909 -0.2915  0.2734
  712poe     o2 4220   1.576   2.041   1.944  0.0436  0.1116  0.3229
  712poe    c23 4221   1.444   1.992   1.953  0.1285 -0.1912 -0.0523
  712poe    c23 4222   1.346   2.099   2.004  0.1694 -0.1902  0.0239
  712poe     o2 4223   1.404   2.228   1.999 -0.3482  0.0318 -0.3240
  712poe    c31 4224   1.302   2.325   2.002 -0.4070 -0.0499  0.2973
  713poe    c31 4225   0.972   6.635   3.620 -0.0279  0.7922  0.2206
  713poe     o2 4226   1.106   6.643   3.577 -0.1399 -0.1918 -0.3484
  713poe    c23 4227   1.110   6.767   3.512 -0.2503 -0.1430 -0.2630
  713poe    c23 4228   1.246   6.803   3.449  0.0095 -0.3867  0.1585
  713poe     o2 4229   1.328   6.734   3.540 -0.0514 -0.5453  0.0936
  713poe    c23 4230   1.457   6.790   3.556 -0.3023  0.0785 -0.0726
  713poe    c23 4231   1.554   6.682   3.607  0.0285  0.4226  0.0327
  713poe     o2 4232   1.487   6.603   3.702  0.0074 -0.0115 -0.3377
  713poe    c23 4233   1.573   6.523   3.780 -0.1803 -0.0582 -0.1772
  713poe    c23 4234   1.600   6.593   3.915 -0.1674 -0.9748  0.3049
  713poe     o2 4235   1.482   6.600   3.991 -0.0268 -0.4708  0.4827
  713poe    c31 4236   1.490   6.672   4.112  0.2401 -0.3091  0.3701
  714poe    c31 4237   3.347   1.824   0.738  0.3540 -0.7370 -0.6962
  714poe     o2 4238   3.482   1.864   0.744  0.1649 -0.2221  0.2445
  714poe    c23 4239   3.502   1.981   0.669  0.6324 -0.1313  0.5058
  714poe    c23 4240   3.655   1.994   0.652  0.5436 -0.0830 -0.2780
  714poe     o2 4241   3.724   1.967   0.771 -0.0394  0.1025  0.1058
  714poe    c23 4242   3.728   2.073   0.864 -0.5638  0.2630 -0.0505
  714poe    c23 4243   3.734   2.008   1.003 -0.4006 -0.0805 -0.2181
  714poe     o2 4244   3.636   1.907   0.999 -0.3313 -0.1562 -0.0403
  714poe    c23 4245   3.616   1.852   1.128  0.2467 -0.4419 -0.0700
  714poe    c23 4246   3.499   1.753   1.119 -0.2724  0.1625 -0.0975
  714poe     o2 4247   3.519   1.687   0.996 -0.4918  0.7733 -0.4637
  714poe    c31 4248   3.448   1.565   0.997  0.2742  0.3214  0.0137
  715poe    c31 4249   4.708   2.443   4.621  0.1078  0.2811 -0.0848
  715poe     o2 4250   4.590   2.512   4.584  0.1107  0.6501  0.5654
  715poe    c23 4251   4.625   2.609   4.488 -0.2392  0.0272 -0.2017
  715poe    c23 4252   4.499   2.690   4.451  0.1428  0.9389  0.4838
  715poe     o2 4253   4.433   2.723   4.572 -0.2549  0.4299  0.4046
  715poe    c23 4254   4.312   2.785   4.534 -0.1418  0.4090 -0.0015
  715poe    c23 4255   4.259   2.837   4.669 -0.3598  0.0065  0.0718
  715poe     o2 4256   4.272   2.726   4.754 -0.0810  0.0266  0.0572
  715poe    c23 4257   4.206   2.752   4.876 -0.4750 -0.1305 -0.1201
  715poe    c23 4258   4.213   2.637   4.978 -0.0200 -0.0999 -0.1122
  715poe     o2 4259   4.343   2.606   5.022 -0.0188  0.0891  0.0183
  715poe    c31 4260   4.335   2.508   5.124  0.4509 -0.1095 -0.1320
  716poe    c31 4261   3.069   3.163   1.997  0.0244  0.2551  0.1431
  716poe     o2 4262   3.027   3.036   1.951  0.0375  0.3259 -0.0693
  716poe    c23 4263   2.888   3.044   1.929 -0.0527 -0.3115  0.2393
  716poe    c23 4264   2.822   2.907   1.905 -0.1060 -0.1749 -0.4178
  716poe     o2 4265   2.862   2.807   1.996  0.5334  0.0398 -0.4576
  716poe    c23 4266   2.861   2.680   1.933  0.3262 -0.0470 -0.2817
  716poe    c23 4267   2.975   2.589   1.982  0.0919 -0.2084 -0.0297
  716poe     o2 4268   3.084   2.680   1.981 -0.4058  0.3958  0.2109
  716poe    c23 4269   3.157   2.649   2.098 -0.2879 -0.3632 -0.0600
  716poe    c23 4270   3.287   2.730   2.093 -0.2929 -0.3451  0.1333
  716poe     o2 4271   3.263   2.861   2.050  0.0666 -0.4661 -0.4431
  716poe    c31 4272   3.387   2.922   2.023  0.1340 -0.1532  0.5446
  717poe    c31 4273   1.776   2.846   2.881 -0.1105 -0.2678 -0.4811
  717poe     o2 4274   1.771   2.789   3.010 -0.0394 -0.0795 -0.3941
  717poe    c23 4275   1.870   2.848   3.092 -0.2333 -0.3441  0.0347
  717poe    c23 4276   1.872   2.771   3.225  0.1682 -0.0809  0.1825
  717poe     o2 4277   1.864   2.632   3.203 -0.4823 -0.0444  0.1577
  717poe    c23 4278   1.864   2.556   3.321 -0.3183 -0.2040  0.0566
  717poe    c23 4279   1.894   2.415   3.269  0.4126  0.0080 -0.1052
  717poe     o2 4280   1.816   2.390   3.154  0.4513  0.1789 -0.1685
  717poe    c23 4281   1.852   2.262   3.106 -0.1813 -0.2812  0.5633
  717poe    c23 4282   1.750   2.213   3.002  0.0318 -0.0430  0.2401
  717poe     o2 4283   1.773   2.274   2.877  0.0485 -0.5278  0.0035
  717poe    c31 4284   1.684   2.234   2.776 -0.0234 -0.2108 -0.0599
  718poe    c31 4285   4.364   6.106   2.895  0.1623  0.1451 -0.2353
  718poe     o2 4286   4.314   6.237   2.916 -0.1048  0.0176 -0.0663
  718poe    c23 4287   4.237   6.275   2.805 -1.0743  0.6991  0.8176
  718poe    c23 4288   4.288   6.413   2.762 -0.4061  0.2459  0.1330
  718poe     o2 4289   4.316   6.482   2.882  0.3020  0.0012  0.1173
  718poe    c23 4290   4.406   6.589   2.866  0.4995 -0.1344  0.3242
  718poe    c23 4291   4.416   6.677   2.992  0.6503  0.0833  0.1600
  718poe     o2 4292   4.430   6.596   3.106 -0.0114 -0.2517  0.0046
  718poe    c23 4293   4.435   6.678   3.221 -0.3567 -0.1778 -0.0320
  718poe    c23 4294   4.404   6.596   3.348  0.2497 -0.3073  0.0379
  718poe     o2 4295   4.276   6.536   3.348 -0.0189  0.2484  0.1133
  718poe    c31 4296   4.231   6.513   3.479  0.3762  0.5706  0.3083
  719poe    c31 4297   2.144   4.835   1.142 -0.0242  0.7137  0.3216
  719poe     o2 4298   2.105   4.898   1.262  0.4188  0.0900  0.7996
  719poe    c23 4299   2.157   5.028   1.244 -0.0782  0.1591 -0.2138
  719poe    c23 4300   2.102   5.101   1.369  0.2322 -0.2962  0.1939
  719poe     o2 4301   2.125   5.026   1.486 -0.4358 -0.3114  0.3143
  719poe    c23 4302   2.052   5.088   1.589 -0.3733 -0.3954  0.4092
  719poe    c23 4303   2.058   4.978   1.696 -0.2248 -0.9254 -0.1404
  719poe     o2 4304   2.026   4.851   1.644  0.0699 -0.7889 -0.6566
  719poe    c23 4305   1.980   4.762   1.743  0.0098  0.2151  0.2347
  719poe    c23 4306   1.973   4.614   1.701 -0.5119  0.2480  0.2039
  719poe     o2 4307   1.879   4.590   1.599 -0.0712 -0.7216  0.0068
  719poe    c31 4308   1.749   4.551   1.637  0.0572 -0.4775  0.7050
  720poe    c31 4309   4.589   2.493   3.445  0.0395 -0.0793 -0.6748
  720poe     o2 4310   4.685   2.392   3.466 -0.1740 -0.1498 -0.0064
  720poe    c23 4311   4.734   2.390   3.598  0.2587  0.5316 -0.1538
  720poe    c23 4312   4.850   2.291   3.581 -0.4956 -0.3198 -0.3788
  720poe     o2 4313   4.790   2.188   3.505 -0.0360 -0.4437 -0.5820
  720poe    c23 4314   4.891   2.101   3.461  0.5579 -0.0096 -0.0856
  720poe    c23 4315   4.842   1.994   3.362 -0.6713  0.3794  0.0905
  720poe     o2 4316   4.782   2.065   3.256 -0.4571  0.1708 -0.1721
  720poe    c23 4317   4.796   1.981   3.143 -0.3158 -0.2236  0.1378
  720poe    c23 4318   4.697   2.028   3.035 -0.1410  0.2107  0.1642
  720poe     o2 4319   4.716   2.157   2.982  0.0127  0.0767 -0.1031
  720poe    c31 4320   4.608   2.193   2.899  0.4784  0.7187 -0.4412
  721poe    c31 4321   4.024   6.454   4.999 -0.2976 -0.1359  0.4374
  721poe     o2 4322   4.153   6.493   5.042 -0.2144  0.1589 -0.0761
  721poe    c23 4323   4.141   6.606   5.125  0.3171 -0.0678  0.3151
  721poe    c23 4324   4.277   6.677   5.119  0.2280  0.0476 -0.4517
  721poe     o2 4325   4.386   6.601   5.166 -0.1421 -0.2870 -0.1300
  721poe    c23 4326   4.499   6.685   5.174 -0.2304 -0.1712 -0.1037
  721poe    c23 4327   4.602   6.604   5.255 -0.6297 -0.4838  0.0955
  721poe     o2 4328   4.617   6.484   5.183 -0.0640  0.0139 -0.6301
  721poe    c23 4329   4.706   6.396   5.248 -0.2006  0.2098 -0.1710
  721poe    c23 4330   4.727   6.273   5.157  0.2085  0.2611 -0.1500
  721poe     o2 4331   4.596   6.239   5.116 -0.0473  0.3010  0.6211
  721poe    c31 4332   4.589   6.101   5.089 -0.0854  0.5751 -0.8579
  722poe    c31 4333   3.318   3.185   4.000 -0.5457  0.3729  0.5437
  722poe     o2 4334   3.403   3.088   4.057  0.0580  0.3939 -0.3020
  722poe    c23 4335   3.521   3.149   4.105  0.3026  0.0591 -0.4802
  722poe    c23 4336   3.606   3.034   4.162 -0.4018 -0.0231  0.4319
  722poe     o2 4337   3.523   2.954   4.243  0.0302 -0.7807  0.1401
  722poe    c23 4338   3.581   2.856   4.326  0.5957 -0.4497  0.1408
  722poe    c23 4339   3.451   2.787   4.372  0.1174  0.2935 -0.0663
  722poe     o2 4340   3.367   2.762   4.262  0.0916  0.6006 -0.1149
  722poe    c23 4341   3.237   2.726   4.303  0.1352  0.2324 -0.3036
  722poe    c23 4342   3.153   2.761   4.179  0.5803 -0.1330 -0.7119
  722poe     o2 4343   3.212   2.863   4.102  0.3151  0.1667 -0.5151
  722poe    c31 4344   3.130   2.887   3.989  0.2179  0.3584 -0.4046
  723poe    c31 4345   3.092   6.560   4.241  0.2327 -0.0101  0.0739
  723poe     o2 4346   3.027   6.592   4.121  0.2514 -0.3287 -0.0227
  723poe    c23 4347   2.923   6.500   4.099 -0.0859  0.2095 -0.7631
  723poe    c23 4348   2.809   6.573   4.025 -0.3610 -0.4241 -0.9697
  723poe     o2 4349   2.880   6.647   3.929  0.3568 -0.3924 -0.4195
  723poe    c23 4350   2.803   6.755   3.879 -0.0149 -0.1966  0.5629
  723poe    c23 4351   2.898   6.830   3.785 -0.0419 -0.6135  0.1993
  723poe     o2 4352   3.026   6.837   3.844  0.1572  0.0574 -0.2850
  723poe    c23 4353   3.137   6.859   3.761  0.4271  0.9660  0.3080
  723poe    c23 4354   3.257   6.835   3.856  0.1896  0.0465  0.3888
  723poe     o2 4355   3.224   6.747   3.960 -0.1268 -0.3276 -0.0222
  723poe    c31 4356   3.337   6.671   4.000  0.1566 -0.0899 -0.3659
  724poe    c31 4357   1.079   2.182   5.594 -0.2647 -0.3335  0.2167
  724poe     o2 4358   0.995   2.228   5.491 -0.3279  0.3628  0.5751
  724poe    c23 4359   1.036   2.356   5.448  0.2176  0.0578  0.1909
  724poe    c23 4360   0.913   2.434   5.399  0.1739  0.0081  0.2221
  724poe     o2 4361   0.841   2.353   5.309  0.5079  0.2702 -0.2830
  724poe    c23 4362   0.724   2.418   5.265 -0.1143 -0.7988 -0.2604
  724poe    c23 4363   0.680   2.333   5.144 -0.1009  0.0321 -0.8594
  724poe     o2 4364   0.673   2.197   5.177  0.2804  0.1276 -0.3805
  724poe    c23 4365   0.608   2.110   5.087  0.0257 -0.0307 -0.0495
  724poe    c23 4366   0.634   1.962   5.120 -0.2779 -0.1328 -0.2612
  724poe     o2 4367   0.770   1.939   5.149 -0.3110 -0.4092 -0.3209
  724poe    c31 4368   0.803   1.803   5.167  0.4568 -0.1851  0.0119
  725poe    c31 4369   5.937   0.869   5.811 -0.0959 -0.0515 -0.1998
  725poe     o2 4370   5.919   0.814   5.682 -0.2366 -0.1087 -0.1560
  725poe    c23 4371   6.039   0.817   5.608  0.0664 -0.2785  0.3234
  725poe    c23 4372   6.008   0.797   5.459 -0.4061  0.0487  0.3751
  725poe     o2 4373   5.972   0.663   5.434  0.0673  0.0159 -0.1607
  725poe    c23 4374   5.919   0.632   5.307  0.3565 -0.2086 -0.2272
  725poe    c23 4375   5.879   0.483   5.308  0.0437 -0.1248  0.1792
  725poe     o2 4376   5.798   0.451   5.419 -0.0562  0.0184  0.1462
  725poe    c23 4377   5.823   0.317   5.454  0.2781  0.1629  0.4687
  725poe    c23 4378   5.710   0.291   5.555  0.0894  0.2922  0.2936
  725poe     o2 4379   5.671   0.407   5.625 -0.2745  0.2937  0.0885
  725poe    c31 4380   5.557   0.378   5.703 -0.1679  0.3539  0.2656
  726poe    c31 4381   4.697   4.890   4.578  0.1514  0.6894  0.5382
  726poe     o2 4382   4.822   4.890   4.512 -0.1074  0.1143  0.0400
  726poe    c23 4383   4.877   4.760   4.523  0.3009  0.2560 -0.3326
  726poe    c23 4384   5.011   4.736   4.451  0.2715 -0.0859 -0.2746
  726poe     o2 4385   4.995   4.770   4.315  0.2171  0.2475 -0.1875
  726poe    c23 4386   5.122   4.785   4.257  0.1892  0.2762 -0.2406
  726poe    c23 4387   5.115   4.843   4.115  0.0772  0.0817 -0.3154
  726poe     o2 4388   5.069   4.977   4.106 -0.1165  0.0139 -0.3491
  726poe    c23 4389   5.009   4.985   3.979 -0.1563 -0.2674 -0.3488
  726poe    c23 4390   4.985   5.135   3.957 -0.4541 -0.2730 -0.0541
  726poe     o2 4391   4.945   5.183   4.084  0.0234 -0.1830  0.0615
  726poe    c31 4392   4.903   5.317   4.076  0.1206 -0.1678 -0.2265
  727poe    c31 4393   2.931   6.660   2.911  0.1091  0.0364  0.1898
  727poe     o2 4394   3.002   6.781   2.920 -0.0896  0.2492 -0.9260
  727poe    c23 4395   3.132   6.763   2.867  0.4816  0.6685  0.2834
  727poe    c23 4396   3.201   6.899   2.891  0.8039  0.5332  0.1270
  727poe     o2 4397   3.172   6.931   3.025  0.3027  0.1332  0.1188
  727poe    c23 4398   3.201   7.062   3.069 -0.1995  0.2660  0.0525
  727poe    c23 4399   3.117   7.177   3.011 -0.7400  0.1755  0.6400
  727poe     o2 4400   2.990   7.120   3.033 -0.7984  0.2178  0.4158
  727poe    c23 4401   2.907   7.215   2.970 -0.2034  0.7405  0.4115
  727poe    c23 4402   2.780   7.128   2.952  0.3580 -0.1855  0.8513
  727poe     o2 4403   2.818   7.008   2.890 -0.6372 -0.2807  0.4156
  727poe    c31 4404   2.732   6.982   2.781  0.5184 -0.6234 -0.4323
  728poe    c31 4405   2.218   3.015   2.322 -0.3232 -0.2742  0.1872
  728poe     o2 4406   2.099   3.037   2.250 -0.1429  0.2408  0.0476
  728poe    c23 4407   2.103   3.131   2.145 -0.1968  0.2976  0.0963
  728poe    c23 4408   1.957   3.161   2.107 -0.2090  0.0519 -0.0455
  728poe     o2 4409   1.896   3.035   2.086 -0.0817 -0.1315  0.6820
  728poe    c23 4410   1.758   3.039   2.059  0.0325 -0.0573  0.1097
  728poe    c23 4411   1.729   2.891   2.028 -0.0068 -0.0028 -0.1162
  728poe     o2 4412   1.757   2.828   2.151 -0.2701 -0.1123 -0.1118
  728poe    c23 4413   1.748   2.688   2.140  0.1148 -0.0934 -0.7033
  728poe    c23 4414   1.851   2.641   2.245 -0.1354 -0.3685 -0.5802
  728poe     o2 4415   1.967   2.720   2.236  0.1264 -0.5571  0.8931
  728poe    c31 4416   2.064   2.661   2.320  0.4287 -0.5347  0.5661
  729poe    c31 4417   2.391   4.305   2.386  0.2278  0.0657 -0.5845
  729poe     o2 4418   2.489   4.267   2.481 -0.3573 -0.5133 -0.1956
  729poe    c23 4419   2.570   4.162   2.433  0.1192 -0.2040 -0.0767
  729poe    c23 4420   2.671   4.131   2.546  0.1778  0.2577 -0.0019
  729poe     o2 4421   2.601   4.157   2.665  0.4819 -0.0548  0.2462
  729poe    c23 4422   2.698   4.159   2.767  0.3746  0.6018  0.3386
  729poe    c23 4423   2.613   4.191   2.892  0.0425  0.2679  0.1999
  729poe     o2 4424   2.534   4.302   2.860 -0.1415  0.1294  0.1743
  729poe    c23 4425   2.507   4.369   2.982  0.3539  0.2270  0.2308
  729poe    c23 4426   2.422   4.494   2.953  0.3323  0.1909  0.1397
  729poe     o2 4427   2.492   4.583   2.869  0.0536  0.1400 -0.1508
  729poe    c31 4428   2.412   4.689   2.821  0.4522  0.5739  0.1321
  730poe    c31 4429   1.479   0.485   1.827  0.0646  0.1884  0.1203
  730poe     o2 4430   1.443   0.611   1.775 -1.0965 -0.0594  0.3060
  730poe    c23 4431   1.450   0.597   1.635 -0.1284 -0.2706  0.3689
  730poe    c23 4432   1.491   0.739   1.591 -0.2515 -0.2902  0.1922
  730poe     o2 4433   1.427   0.844   1.660  0.0482  0.0154  0.0070
  730poe    c23 4434   1.291   0.855   1.623  0.1762  0.0059 -0.4697
  730poe    c23 4435   1.210   0.897   1.747  0.0877 -0.8967 -0.2184
  730poe     o2 4436   1.261   0.827   1.859  0.4342  0.1332  0.2852
  730poe    c23 4437   1.194   0.843   1.981 -0.1307 -0.3159  0.0393
  730poe    c23 4438   1.254   0.738   2.077 -0.3831  0.0464  0.6047
  730poe     o2 4439   1.394   0.744   2.060 -0.4633 -0.3250 -0.2844
  730poe    c31 4440   1.457   0.643   2.136  0.0177  0.3489  0.2209
  731poe    c31 4441   5.373   2.308   2.838  0.1100  0.3019 -0.1123
  731poe     o2 4442   5.306   2.384   2.936  0.6854  0.6485  0.0141
  731poe    c23 4443   5.364   2.363   3.063 -0.1604 -0.2039  0.2747
  731poe    c23 4444   5.249   2.396   3.159 -0.1191  0.3542  0.1411
  731poe     o2 4445   5.164   2.503   3.122  0.1382  0.5311  0.0653
  731poe    c23 4446   5.094   2.528   3.242  0.2305  0.2749  0.1751
  731poe    c23 4447   5.049   2.676   3.244 -0.9983 -0.0884  0.1036
  731poe     o2 4448   4.954   2.690   3.141 -0.1893  0.1992 -0.6206
  731poe    c23 4449   4.836   2.752   3.189 -0.1563 -0.0650 -0.2005
  731poe    c23 4450   4.716   2.744   3.093 -0.1661 -0.3985 -0.1624
  731poe     o2 4451   4.685   2.613   3.053 -0.3629 -0.4085  0.0209
  731poe    c31 4452   4.559   2.599   2.990 -0.1796 -0.0458 -0.4311
  732poe    c31 4453   3.215   2.924   1.149 -0.6345  0.1827 -0.2925
  732poe     o2 4454   3.278   2.823   1.073 -0.0641  0.1160  0.2568
  732poe    c23 4455   3.414   2.853   1.056 -0.1317  0.1308 -0.2657
  732poe    c23 4456   3.468   2.794   0.924  0.1027  0.1084 -0.1603
  732poe     o2 4457   3.471   2.654   0.941  0.1356  0.1326  0.0345
  732poe    c23 4458   3.459   2.592   0.815  0.1164  0.1748  0.0158
  732poe    c23 4459   3.448   2.440   0.833 -0.1147  0.1625 -0.2155
  732poe     o2 4460   3.340   2.409   0.919 -0.0038  0.3714 -0.0002
  732poe    c23 4461   3.323   2.271   0.938  0.1358  0.4762  0.9252
  732poe    c23 4462   3.189   2.243   1.008 -0.5636  0.2087 -0.4971
  732poe     o2 4463   3.182   2.329   1.119  0.4305 -0.3208 -0.0117
  732poe    c31 4464   3.080   2.282   1.204  0.3545 -0.1415 -0.0030
  733poe    c31 4465   0.369   0.152   1.403 -0.6592  0.6746  0.1116
  733poe     o2 4466   0.506   0.180   1.388 -0.5284 -0.0225 -0.0183
  733poe    c23 4467   0.574   0.214   1.507 -0.2959  0.3648 -0.2594
  733poe    c23 4468   0.684   0.314   1.466  0.1613  0.1331  0.3811
  733poe     o2 4469   0.752   0.254   1.358  0.4224  0.2962  0.4542
  733poe    c23 4470   0.831   0.355   1.299 -0.0666  0.3371 -0.1507
  733poe    c23 4471   0.880   0.299   1.165 -0.2048 -0.6362  0.2016
  733poe     o2 4472   0.778   0.213   1.118 -0.6391 -0.0708  0.0959
  733poe    c23 4473   0.811   0.098   1.043 -0.0129 -0.2071  0.5711
  733poe    c23 4474   0.697  -0.004   1.063 -0.3445 -0.0360 -0.4148
  733poe     o2 4475   0.651  -0.006   1.196 -0.4400  0.2405 -0.4428
  733poe    c31 4476   0.574  -0.118   1.233 -0.1909  0.3078  0.2920
  734poe    c31 4477   5.530   4.892   2.504  0.8641 -0.0413 -0.2608
  734poe     o2 4478   5.493   4.924   2.372  0.2877  0.1632 -0.0512
  734poe    c23 4479   5.504   4.814   2.285 -0.3512  0.0086  0.0598
  734poe    c23 4480   5.424   4.837   2.156  0.1582  0.1402 -0.2344
  734poe     o2 4481   5.430   4.975   2.130  0.1537  0.1379 -0.2494
  734poe    c23 4482   5.491   5.007   2.007  0.1750  0.2859 -0.2002
  734poe    c23 4483   5.558   5.144   2.032  0.6030  0.1185 -0.4227
  734poe     o2 4484   5.620   5.144   2.159  0.0580  0.3086 -0.1523
  734poe    c23 4485   5.675   5.269   2.193  0.4758  0.1634 -0.2860
  734poe    c23 4486   5.705   5.256   2.344  0.4600 -0.3113 -0.3241
  734poe     o2 4487   5.599   5.191   2.411  0.1014  0.4708 -0.1280
  734poe    c31 4488   5.600   5.223   2.549 -0.2705  0.1941 -0.0591
  735poe    c31 4489   3.864   3.992   4.468  0.4237  0.0937  0.1565
  735poe     o2 4490   3.738   4.053   4.454  0.4128 -0.0009 -0.1573
  735poe    c23 4491   3.635   3.963   4.489  0.1406  0.3149 -0.1455
  735poe    c23 4492   3.497   4.016   4.445  0.0030  0.3297  0.3008
  735poe     o2 4493   3.517   4.150   4.485  0.1973  0.3494  0.1367
  735poe    c23 4494   3.410   4.236   4.455  0.2617  0.1803 -0.6057
  735poe    c23 4495   3.437   4.377   4.510  0.1585 -0.1624  0.3527
  735poe     o2 4496   3.572   4.408   4.485  0.0431  0.0029 -0.0778
  735poe    c23 4497   3.631   4.487   4.585 -0.0676 -0.3617  0.2757
  735poe    c23 4498   3.783   4.480   4.561  0.0095  0.4320  0.5012
  735poe     o2 4499   3.807   4.341   4.569  0.2924  0.4472 -0.0767
  735poe    c31 4500   3.929   4.301   4.629 -0.0040  0.0954  0.2946
  736poe    c31 4501   0.545   4.432   0.339  0.1196 -0.1075 -0.0110
  736poe     o2 4502   0.427   4.509   0.340  0.0737 -0.1758 -0.1569
  736poe    c23 4503   0.390   4.539   0.472 -0.1736  0.0427 -0.2751
  736poe    c23 4504   0.251   4.607   0.468 -0.0711  0.2454 -0.4033
  736poe     o2 4505   0.142   4.521   0.447 -0.0245  0.0391  0.1839
  736poe    c23 4506   0.017   4.585   0.443  0.0394  0.1730  0.3308
  736poe    c23 4507  -0.081   4.467   0.458 -0.2156  0.3430  0.0215
  736poe     o2 4508  -0.053   4.377   0.353  0.5043 -0.0484  0.5412
  736poe    c23 4509  -0.149   4.273   0.358 -0.1282  0.5024 -0.0245
  736poe    c23 4510  -0.120   4.174   0.243  0.1802  0.2468  0.2735
  736poe     o2 4511   0.021   4.167   0.245  0.1541 -0.3920 -0.0685
  736poe    c31 4512   0.071   4.066   0.159  0.1502 -0.3569 -0.1122
  737poe    c31 4513   3.315   1.826   5.370  0.5242  0.5256 -0.0370
  737poe     o2 4514   3.203   1.910   5.382  0.4236  0.4603 -0.4762
  737poe    c23 4515   3.105   1.858   5.296  0.4176 -0.0295 -0.1740
  737poe    c23 4516   2.966   1.910   5.337  0.6795  0.1943  0.4450
  737poe     o2 4517   2.965   1.889   5.477  0.0459 -0.2903  0.3759
  737poe    c23 4518   2.870   1.957   5.556  0.1951  0.0604  0.2585
  737poe    c23 4519   2.933   1.954   5.697 -0.0303 -0.4635  0.3539
  737poe     o2 4520   3.061   2.012   5.675 -0.2629  0.0969  0.4523
  737poe    c23 4521   3.144   2.022   5.788  0.3736 -0.3177  0.0261
  737poe    c23 4522   3.269   2.097   5.739  0.2657 -0.5106 -0.5460
  737poe     o2 4523   3.284   2.074   5.601 -0.5356  0.3265 -0.7844
  737poe    c31 4524   3.410   2.111   5.549  0.0005 -0.0352  0.2399
  738poe    c31 4525   5.837   6.197   1.582  0.6578  0.0194  0.2098
  738poe     o2 4526   5.780   6.306   1.513 -0.0522 -0.3283  0.2355
  738poe    c23 4527   5.704   6.391   1.596 -0.2004 -0.1104 -0.1200
  738poe    c23 4528   5.682   6.533   1.542 -0.5876 -0.0484  0.1972
  738poe     o2 4529   5.613   6.532   1.419 -0.2292  0.2786 -0.0091
  738poe    c23 4530   5.587   6.667   1.385  0.2738  0.4988  0.4666
  738poe    c23 4531   5.528   6.663   1.243  0.1764 -0.2410  0.5241
  738poe     o2 4532   5.608   6.591   1.151 -0.0765  0.0671  0.0605
  738poe    c23 4533   5.582   6.628   1.018 -0.3747  0.1158  0.1311
  738poe    c23 4534   5.628   6.508   0.933  0.8559  0.3618  0.4379
  738poe     o2 4535   5.611   6.385   1.001  0.0597  0.1740 -0.0902
  738poe    c31 4536   5.651   6.282   0.914 -0.3638 -0.1383  0.0813
  739poe    c31 4537   1.018   1.426   0.301 -0.6910 -0.3680 -0.0525
  739poe     o2 4538   1.047   1.479   0.428 -0.3922 -0.0315 -0.2579
  739poe    c23 4539   1.043   1.619   0.440  0.2279 -0.0666  0.4252
  739poe    c23 4540   1.101   1.676   0.571 -0.2086  0.1321  0.5320
  739poe     o2 4541   1.044   1.617   0.686 -0.6016 -0.4407  0.0520
  739poe    c23 4542   1.124   1.590   0.799  0.4759 -0.2057 -0.6396
  739poe    c23 4543   1.229   1.480   0.771  0.4768 -0.2922 -0.2950
  739poe     o2 4544   1.168   1.369   0.709  0.5562 -0.1324 -0.6560
  739poe    c23 4545   1.255   1.275   0.650  0.4621 -0.6195 -0.0293
  739poe    c23 4546   1.172   1.158   0.594 -0.2740 -0.1289  0.0279
  739poe     o2 4547   1.057   1.209   0.531  0.2834  0.5033 -0.5035
  739poe    c31 4548   0.953   1.116   0.509  0.2057  0.5345 -0.2740
  740poe    c31 4549   5.357   2.594   1.991 -0.7029 -0.6822 -0.0034
  740poe     o2 4550   5.283   2.712   2.017  0.4134  0.0884 -0.2619
  740poe    c23 4551   5.368   2.820   2.048  0.4143 -0.0596  0.2565
  740poe    c23 4552   5.301   2.942   2.114 -0.6982 -0.3711 -0.2824
  740poe     o2 4553   5.209   3.017   2.037 -0.0247 -0.0282 -0.7618
  740poe    c23 4554   5.178   3.135   2.108  0.6870 -0.0499 -0.4036
  740poe    c23 4555   5.060   3.213   2.047  0.3530 -0.4603 -0.2948
  740poe     o2 4556   4.948   3.128   2.036 -0.0424 -0.0113  0.1710
  740poe    c23 4557   4.840   3.193   1.973 -0.2897 -0.2988  0.2966
  740poe    c23 4558   4.728   3.090   1.953 -0.2433 -0.2365 -0.2798
  740poe     o2 4559   4.789   2.970   1.911  0.2184  0.1222 -0.6427
  740poe    c31 4560   4.698   2.875   1.861 -0.2330  0.0678  0.2658
  741poe    c31 4561   5.478   0.835   5.113 -0.5528  0.0382 -0.2139
  741poe     o2 4562   5.435   0.915   5.221 -0.7094  0.3203 -0.4850
  741poe    c23 4563   5.421   0.863   5.351  0.1775  0.3754 -0.3648
  741poe    c23 4564   5.380   0.979   5.444  0.1199  0.2487 -0.2328
  741poe     o2 4565   5.262   1.043   5.404 -0.2584 -0.0208  0.4196
  741poe    c23 4566   5.197   1.120   5.502  0.4651  0.5354  0.4661
  741poe    c23 4567   5.086   1.202   5.434  0.4010 -0.2236 -0.3457
  741poe     o2 4568   5.151   1.279   5.336  0.2201  0.2577 -0.0891
  741poe    c23 4569   5.067   1.363   5.260  0.1214 -0.0336 -0.3036
  741poe    c23 4570   5.138   1.475   5.182  0.2960  0.2787  0.2953
  741poe     o2 4571   5.235   1.400   5.111  0.1555 -0.0253  0.4218
  741poe    c31 4572   5.308   1.482   5.022 -0.3942 -0.0884 -0.0881
  742poe    c31 4573   6.816   4.456   6.807 -0.0587 -0.3974  0.2296
  742poe     o2 4574   6.732   4.395   6.711 -0.1709  0.0664  0.0269
  742poe    c23 4575   6.772   4.261   6.689  0.1423  0.2004 -0.2252
  742poe    c23 4576   6.736   4.221   6.544  0.2224 -0.4814 -0.0612
  742poe     o2 4577   6.598   4.232   6.518  0.3440  0.4906 -0.3654
  742poe    c23 4578   6.571   4.153   6.404  0.0963  0.4247 -0.2615
  742poe    c23 4579   6.418   4.155   6.380  0.0486  0.1576  0.0133
  742poe     o2 4580   6.375   4.289   6.369  0.1897  0.1550 -0.6173
  742poe    c23 4581   6.239   4.298   6.335  0.0269 -0.0973 -0.0548
  742poe    c23 4582   6.193   4.441   6.369  0.0421 -0.1526  0.1971
  742poe     o2 4583   6.261   4.482   6.486  0.7709  0.1292 -0.3213
  742poe    c31 4584   6.227   4.615   6.518 -0.0164 -0.2003  0.2298
  743poe    c31 4585   4.901   5.707   2.265 -0.1603  0.3950  0.0727
  743poe     o2 4586   4.997   5.629   2.196 -0.4985  0.2963 -0.2872
  743poe    c23 4587   4.941   5.507   2.154  0.1922 -0.3300  0.5717
  743poe    c23 4588   5.038   5.445   2.051 -0.5405  0.2003 -0.4642
  743poe     o2 4589   5.160   5.496   2.101 -0.3127 -0.2007 -0.6018
  743poe    c23 4590   5.280   5.445   2.046  0.1239  0.3998 -0.2124
  743poe    c23 4591   5.394   5.536   2.096  0.2876 -0.0164  0.1804
  743poe     o2 4592   5.347   5.669   2.096  0.0081 -0.1148  0.2691
  743poe    c23 4593   5.444   5.753   2.154  0.0160  0.4627 -0.5711
  743poe    c23 4594   5.355   5.867   2.208 -0.0433 -0.1583  0.6577
  743poe     o2 4595   5.227   5.822   2.246 -0.0156 -0.1102  0.8083
  743poe    c31 4596   5.167   5.919   2.328 -0.6230  0.0266  0.2082
  744poe    c31 4597   5.703   5.801   5.399  0.6305  0.0790  0.0706
  744poe     o2 4598   5.635   5.687   5.446 -0.2517  0.4376 -0.3175
  744poe    c23 4599   5.723   5.577   5.446 -0.6588  0.1083 -0.1244
  744poe    c23 4600   5.673   5.459   5.531  0.0714 -0.4224 -0.4260
  744poe     o2 4601   5.535   5.482   5.539  0.1200 -0.3122  0.1752
  744poe    c23 4602   5.461   5.391   5.618 -0.1231 -0.3297 -0.0680
  744poe    c23 4603   5.324   5.460   5.624  0.0830  0.2210 -1.2891
  744poe     o2 4604   5.350   5.591   5.668  0.0989 -0.2858  0.2891
  744poe    c23 4605   5.243   5.673   5.708  0.0529 -0.1318 -0.1476
  744poe    c23 4606   5.308   5.813   5.703 -0.2274  0.0033 -0.0168
  744poe     o2 4607   5.374   5.834   5.580 -0.2819  0.1187 -0.0266
  744poe    c31 4608   5.444   5.955   5.590  0.1083 -0.1090  0.0164
  745poe    c31 4609   5.409   4.324   5.621  0.3369  0.3596  0.1318
  745poe     o2 4610   5.508   4.228   5.652  0.3751  0.2526 -0.3209
  745poe    c23 4611   5.603   4.281   5.741  0.7805 -0.1097 -0.5332
  745poe    c23 4612   5.730   4.195   5.751  0.3958 -0.5750  0.4428
  745poe     o2 4613   5.673   4.066   5.749 -0.3353 -0.2547  0.3024
  745poe    c23 4614   5.770   3.964   5.734  0.0773  0.2352 -0.3813
  745poe    c23 4615   5.685   3.836   5.725 -0.1130  0.3327  0.0137
  745poe     o2 4616   5.572   3.845   5.641 -0.0150 -0.1447 -0.1694
  745poe    c23 4617   5.502   3.723   5.642  0.2557 -0.3005  0.3837
  745poe    c23 4618   5.445   3.655   5.768 -0.6289 -0.1046  0.0975
  745poe     o2 4619   5.340   3.734   5.820 -0.3587  0.2789  0.0653
  745poe    c31 4620   5.277   3.691   5.938  0.3774 -0.3080  0.2522
  746poe    c31 4621   6.638   5.409   5.693  0.6977 -0.6838 -0.8055
  746poe     o2 4622   6.633   5.513   5.599 -0.3725  0.0875  0.0738
  746poe    c23 4623   6.691   5.466   5.479 -0.0787 -0.0322  0.2628
  746poe    c23 4624   6.707   5.582   5.379 -0.0289  0.0626  0.3799
  746poe     o2 4625   6.594   5.666   5.388  0.2020  0.3949  0.1960
  746poe    c23 4626   6.525   5.689   5.267 -0.5099  0.3156  0.5855
  746poe    c23 4627   6.396   5.760   5.314 -0.7523  0.2546  0.0174
  746poe     o2 4628   6.369   5.716   5.445 -0.3672  0.2390  0.0926
  746poe    c23 4629   6.235   5.743   5.479 -0.3429  0.1302  0.2791
  746poe    c23 4630   6.201   5.630   5.577 -0.1653  0.0130  0.2067
  746poe     o2 4631   6.302   5.637   5.675  0.0246  0.3457 -0.0106
  746poe    c31 4632   6.247   5.694   5.791 -0.8254  0.0106 -0.2405
  747poe    c31 4633   0.651   2.908   5.144 -0.6671 -0.6334  0.3629
  747poe     o2 4634   0.530   2.845   5.178 -0.9173 -0.2560  0.1802
  747poe    c23 4635   0.442   2.850   5.068 -0.2655 -0.2023 -0.3431
  747poe    c23 4636   0.309   2.796   5.124 -0.2861  0.2458  0.0421
  747poe     o2 4637   0.264   2.872   5.234 -0.4450 -0.2181  0.2973
  747poe    c23 4638   0.149   2.816   5.294 -0.2284 -0.7607  0.2100
  747poe    c23 4639   0.158   2.885   5.431 -0.0972 -0.4824  0.0627
  747poe     o2 4640   0.289   2.859   5.475  0.0137 -0.3404 -0.1804
  747poe    c23 4641   0.337   2.939   5.581 -0.0130 -0.1003 -0.3494
  747poe    c23 4642   0.483   2.890   5.596  0.0399  0.1741  0.0436
  747poe     o2 4643   0.538   2.913   5.468 -0.2144 -0.0505 -0.1093
  747poe    c31 4644   0.674   2.937   5.497  0.0160 -0.4300 -0.8624
  748poe    c31 4645   0.188   6.676   5.771  0.1569  0.3855 -0.4020
  748poe     o2 4646   0.283   6.581   5.814 -0.2653  0.1451  0.0015
  748poe    c23 4647   0.411   6.628   5.782 -0.2122  0.1085  0.1575
  748poe    c23 4648   0.515   6.519   5.815 -0.2379  0.0403  0.0166
  748poe     o2 4649   0.454   6.402   5.767  0.3754 -0.3505  0.1857
  748poe    c23 4650   0.544   6.295   5.785  0.4582 -0.3289 -0.0887
  748poe    c23 4651   0.468   6.170   5.735 -0.3046  0.3792 -0.7230
  748poe     o2 4652   0.342   6.179   5.799  0.2794 -0.2705  0.5525
  748poe    c23 4653   0.296   6.048   5.822 -0.0630 -0.1861  0.3489
  748poe    c23 4654   0.151   6.046   5.874 -0.3959 -0.0188 -0.5551
  748poe     o2 4655   0.118   6.098   6.001  0.6040  0.0521 -0.3188
  748poe    c31 4656  -0.009   6.058   6.047  0.6406 -0.0619 -0.3162
  749poe    c31 4657   2.634   0.407   4.439 -0.1405 -0.3572 -0.2230
  749poe     o2 4658   2.510   0.344   4.463 -0.3984  0.1069 -0.3286
  749poe    c23 4659   2.405   0.384   4.377 -0.4733 -0.2745 -0.4203
  749poe    c23 4660   2.270   0.322   4.415 -0.4317 -0.0525  0.1057
  749poe     o2 4661   2.301   0.186   4.436 -0.0106  0.0775  0.3451
  749poe    c23 4662   2.186   0.106   4.414  0.0356 -0.0375  0.5227
  749poe    c23 4663   2.207  -0.036   4.469  0.1386 -0.0682  0.4051
  749poe     o2 4664   2.316  -0.113   4.424  0.0708  0.1826 -0.1941
  749poe    c23 4665   2.353  -0.230   4.494  0.0857  0.2428 -0.1026
  749poe    c23 4666   2.468  -0.308   4.427  0.1142 -0.4185  0.7043
  749poe     o2 4667   2.585  -0.236   4.453 -0.3540  0.6290 -0.0217
  749poe    c31 4668   2.694  -0.326   4.445 -0.6285  0.3260 -0.3632
  750poe    c31 4669   4.239   4.630   0.155  0.4569 -0.3670  0.0150
  750poe     o2 4670   4.107   4.668   0.123  0.5979  0.3470  0.2687
  750poe    c23 4671   4.098   4.792   0.055 -0.0208  0.3712  0.3833
  750poe    c23 4672   3.952   4.836   0.041 -0.1712 -0.1467  0.3025
  750poe     o2 4673   3.875   4.718   0.049  0.0998 -0.4076 -0.7302
  750poe    c23 4674   3.735   4.727   0.054  0.1011 -0.8178  0.6697
  750poe    c23 4675   3.675   4.585   0.044 -0.6671 -0.4604  0.0116
  750poe     o2 4676   3.768   4.507   0.117 -0.8790 -0.3408  0.4110
  750poe    c23 4677   3.738   4.370   0.113 -0.2730 -0.4808  0.6322
  750poe    c23 4678   3.848   4.303   0.198  0.0388  0.0635  0.6594
  750poe     o2 4679   3.971   4.368   0.172  0.1794 -0.5997 -0.4049
  750poe    c31 4680   4.084   4.305   0.227  0.1233 -0.1886  0.1985
  751poe    c31 4681   1.163   1.227   3.121 -0.1437  0.4274 -0.4614
  751poe     o2 4682   1.170   1.138   3.230  0.0548  0.5989 -0.3347
  751poe    c23 4683   1.053   1.060   3.245  0.3158  0.2969  0.1394
  751poe    c23 4684   1.073   0.938   3.338  0.7246  0.2140 -0.0546
  751poe     o2 4685   1.098   0.984   3.469  0.4736  0.0033  0.0678
  751poe    c23 4686   1.131   0.867   3.540 -0.0264 -0.0127  0.2820
  751poe    c23 4687   1.184   0.897   3.682 -0.4006  0.4473  0.3268
  751poe     o2 4688   1.306   0.967   3.667 -0.1179 -0.0974  0.0690
  751poe    c23 4689   1.346   1.030   3.786 -0.0136  0.1378 -0.0903
  751poe    c23 4690   1.495   1.069   3.778 -0.0090  0.0519 -0.4261
  751poe     o2 4691   1.524   1.112   3.647  0.0088  0.0638 -0.4183
  751poe    c31 4692   1.650   1.176   3.643 -0.0730  0.1890 -1.0528
  752poe    c31 4693   1.937   1.073   1.708 -0.3201 -0.2815  0.1145
  752poe     o2 4694   1.928   1.213   1.690  0.0746 -0.2720 -0.0342
  752poe    c23 4695   2.025   1.265   1.777  0.1409 -0.0929 -0.2167
  752poe    c23 4696   2.034   1.414   1.738  0.0299  0.0639  0.3448
  752poe     o2 4697   2.026   1.425   1.598 -0.1294 -0.2290  0.3313
  752poe    c23 4698   1.973   1.545   1.547  0.2574 -0.2827 -0.2051
  752poe    c23 4699   1.924   1.526   1.402  0.6820  0.5424 -0.4671
  752poe     o2 4700   1.833   1.419   1.414  0.4180  0.8312  0.1229
  752poe    c23 4701   1.782   1.368   1.293 -0.3129  0.3862  0.6092
  752poe    c23 4702   1.682   1.257   1.332 -0.2139 -0.0732 -0.4198
  752poe     o2 4703   1.735   1.183   1.440  0.5574  0.0951 -0.6747
  752poe    c31 4704   1.643   1.078   1.458 -0.1980  0.7934 -0.4267
  753poe    c31 4705   4.193   0.879   6.018  0.0735 -0.0619 -0.0981
  753poe     o2 4706   4.318   0.812   6.016  0.2139  0.1965 -0.0759
  753poe    c23 4707   4.360   0.773   5.888  0.0545  0.4440 -0.2032
  753poe    c23 4708   4.481   0.679   5.892 -0.1087  0.2460  0.1115
  753poe     o2 4709   4.595   0.739   5.949 -0.1414  0.0639  0.3720
  753poe    c23 4710   4.688   0.640   5.988 -0.1122  0.1019  0.3989
  753poe    c23 4711   4.821   0.714   6.008  0.2331 -0.3542 -0.2089
  753poe     o2 4712   4.807   0.847   6.055  0.1515 -0.3612 -0.2136
  753poe    c23 4713   4.935   0.907   6.056  0.3330 -0.7395  0.7873
  753poe    c23 4714   4.912   1.032   6.142 -0.1501 -0.2867  0.0187
  753poe     o2 4715   4.799   1.111   6.111 -0.0459 -0.2552 -0.2880
  753poe    c31 4716   4.794   1.233   6.182 -1.0317 -0.4785  0.0453
  754poe    c31 4717   0.643   0.566   6.074 -0.0401  0.3787  0.6541
  754poe     o2 4718   0.748   0.503   6.004 -0.3971  0.2321  0.2458
  754poe    c23 4719   0.786   0.385   6.071 -0.5607  0.2825  0.4279
  754poe    c23 4720   0.880   0.296   5.987 -0.4526  0.3215  0.5068
  754poe     o2 4721   0.938   0.371   5.882  0.0365 -0.7833 -0.0234
  754poe    c23 4722   1.005   0.297   5.783 -0.0636 -0.0428 -0.6539
  754poe    c23 4723   1.049   0.388   5.667 -0.3415 -0.1605 -0.8536
  754poe     o2 4724   0.949   0.482   5.632 -0.2516  0.2361 -0.0715
  754poe    c23 4725   0.987   0.568   5.527  0.1835 -0.2904 -0.3511
  754poe    c23 4726   0.892   0.680   5.482  0.0396 -0.0897  0.4376
  754poe     o2 4727   0.887   0.787   5.574 -0.1876  0.2186  0.0709
  754poe    c31 4728   0.822   0.901   5.523  0.0790  0.2554 -0.1906
  755poe    c31 4729   0.721   4.138   3.464 -0.7062  0.7461  0.3835
  755poe     o2 4730   0.706   4.278   3.456  0.2281  0.8731  0.6761
  755poe    c23 4731   0.572   4.323   3.462 -0.0361  0.3500 -0.7927
  755poe    c23 4732   0.590   4.471   3.502  0.4036  0.0652  0.0952
  755poe     o2 4733   0.706   4.521   3.439  0.2171  0.5677  0.1449
  755poe    c23 4734   0.695   4.659   3.415  0.0711  0.4875 -0.2606
  755poe    c23 4735   0.832   4.715   3.372  0.2456 -0.0703 -0.4429
  755poe     o2 4736   0.861   4.653   3.249  0.3628 -0.1616 -0.3685
  755poe    c23 4737   0.995   4.672   3.210  0.4938 -0.0833  0.1063
  755poe    c23 4738   1.017   4.618   3.067 -0.1501  0.7054 -0.2952
  755poe     o2 4739   0.950   4.496   3.046  0.4325  0.3635 -0.2020
  755poe    c31 4740   0.972   4.441   2.918  0.1806  0.5560 -0.3304
  756poe    c31 4741   5.360   1.976   4.160  0.0125 -0.9010 -0.3039
  756poe     o2 4742   5.284   1.870   4.106  0.0737 -0.5789 -1.0324
  756poe    c23 4743   5.354   1.748   4.118  0.5470 -0.2009  0.2715
  756poe    c23 4744   5.284   1.637   4.037  0.0522  0.0685  0.3278
  756poe     o2 4745   5.266   1.699   3.911 -0.0993 -0.2480  0.1924
  756poe    c23 4746   5.298   1.615   3.802  0.2268 -0.1195  0.1874
  756poe    c23 4747   5.229   1.680   3.680  0.5086 -0.2894 -0.0649
  756poe     o2 4748   5.250   1.819   3.691 -0.2862 -0.1299 -0.5040
  756poe    c23 4749   5.254   1.885   3.566 -0.3617  0.1305 -0.3684
  756poe    c23 4750   5.315   2.027   3.574 -0.5774  0.2038  0.0262
  756poe     o2 4751   5.451   2.035   3.612 -0.4612  0.2012 -0.3774
  756poe    c31 4752   5.505   2.164   3.603  0.6224 -0.2560 -0.5221
  757poe    c31 4753   5.611   1.610   1.013 -0.4513  0.2124  0.1594
  757poe     o2 4754   5.719   1.560   0.938 -0.1497  0.1961  0.6012
  757poe    c23 4755   5.836   1.534   1.013  0.0847  0.2028  0.2380
  757poe    c23 4756   5.951   1.508   0.913 -0.2154  0.1916 -0.1077
  757poe     o2 4757   5.918   1.577   0.794 -0.5517 -0.0351 -0.1494
  757poe    c23 4758   6.021   1.570   0.698 -0.6365  0.1846 -0.2564
  757poe    c23 4759   5.985   1.657   0.576  0.0661  0.3952 -0.3195
  757poe     o2 4760   5.851   1.649   0.531  0.0457 -0.1687 -0.1762
  757poe    c23 4761   5.822   1.740   0.427  0.0370 -0.1162 -0.1278
  757poe    c23 4762   5.683   1.745   0.361  0.1720  0.2595 -0.3891
  757poe     o2 4763   5.573   1.760   0.448  0.3399  0.2988 -0.1841
  757poe    c31 4764   5.454   1.732   0.378  0.1845  0.4680  0.0081
  758poe    c31 4765   4.799   0.966   2.598  0.1291 -0.2751 -0.0339
  758poe     o2 4766   4.804   0.952   2.738 -0.3863  0.1241  0.0284
  758poe    c23 4767   4.861   0.830   2.782 -0.7424 -0.0649 -0.0332
  758poe    c23 4768   4.825   0.828   2.932  0.7723  0.3671  0.3583
  758poe     o2 4769   4.693   0.783   2.956  0.8008  0.2090  0.2208
  758poe    c23 4770   4.659   0.825   3.085 -0.2381  0.2120 -0.0462
  758poe    c23 4771   4.507   0.817   3.110 -0.2655  0.1654 -0.2276
  758poe     o2 4772   4.469   0.683   3.083  0.5449 -0.1604  0.2041
  758poe    c23 4773   4.357   0.652   3.162  0.3513  0.3354  0.1337
  758poe    c23 4774   4.350   0.498   3.153 -0.0945  0.3703 -0.1193
  758poe     o2 4775   4.361   0.452   3.020 -0.7103  0.1908 -0.1129
  758poe    c31 4776   4.304   0.325   2.995 -0.2779 -0.0600  0.1439
  759poe    c31 4777   4.750   4.632   4.125 -0.6108 -0.3888 -0.0705
  759poe     o2 4778   4.701   4.549   4.022 -0.3787  0.1564 -0.6305
  759poe    c23 4779   4.731   4.598   3.893  0.1337  0.2711 -0.4677
  759poe    c23 4780   4.629   4.528   3.802 -0.2039 -0.2641  0.3081
  759poe     o2 4781   4.496   4.550   3.843 -0.2838  0.0768 -0.1276
  759poe    c23 4782   4.401   4.477   3.768 -0.4110  0.0306  0.0795
  759poe    c23 4783   4.279   4.459   3.861 -0.0779 -0.1252  0.4892
  759poe     o2 4784   4.336   4.437   3.988 -0.1611  0.0600  0.5584
  759poe    c23 4785   4.240   4.470   4.085 -0.3469 -0.3622  0.5169
  759poe    c23 4786   4.299   4.433   4.223  0.6507 -0.4582  0.0668
  759poe     o2 4787   4.431   4.481   4.214  0.2633  0.5665 -0.3526
  759poe    c31 4788   4.483   4.479   4.345  0.4061  0.4534 -0.4098
  760poe    c31 4789   1.477   4.099   1.562 -0.4281 -0.1274 -0.6499
  760poe     o2 4790   1.400   4.022   1.651 -0.1848 -0.0105 -0.3351
  760poe    c23 4791   1.269   4.073   1.660 -0.0514  0.2786 -0.0107
  760poe    c23 4792   1.212   3.992   1.778 -0.0363 -0.0977 -0.2577
  760poe     o2 4793   1.249   3.857   1.766  0.5398  0.0128  0.2485
  760poe    c23 4794   1.181   3.779   1.862  0.5570 -0.1448  0.1326
  760poe    c23 4795   1.249   3.641   1.868 -0.0027 -0.4371 -0.1449
  760poe     o2 4796   1.386   3.665   1.893 -0.0750  0.3188 -0.4509
  760poe    c23 4797   1.470   3.553   1.879 -0.3392  0.0041  0.4355
  760poe    c23 4798   1.589   3.560   1.976  0.0957  0.0584 -0.0992
  760poe     o2 4799   1.684   3.654   1.931  0.3392 -0.2059 -0.1465
  760poe    c31 4800   1.788   3.678   2.023  0.4844 -0.6614 -0.1926
  761poe    c31 4801   5.274   4.228   1.344 -0.3882 -0.3859  0.9832
  761poe     o2 4802   5.410   4.227   1.382 -0.1425 -0.3165  0.1412
  761poe    c23 4803   5.452   4.092   1.383 -0.3145 -0.3698  0.6914
  761poe    c23 4804   5.606   4.088   1.394 -0.2040  0.9528 -0.1483
  761poe     o2 4805   5.670   4.182   1.478  0.1032  0.4878  0.1367
  761poe    c23 4806   5.659   4.172   1.618  0.4829  0.1574  0.1472
  761poe    c23 4807   5.668   4.314   1.677  0.0711  0.1326  0.2757
  761poe     o2 4808   5.570   4.392   1.612 -0.0328 -0.2130  0.0130
  761poe    c23 4809   5.601   4.530   1.625 -0.5474 -0.0928 -0.0390
  761poe    c23 4810   5.482   4.595   1.552 -0.0488  0.3894 -0.4253
  761poe     o2 4811   5.433   4.509   1.451  0.1120  0.3760 -0.4928
  761poe    c31 4812   5.368   4.593   1.358 -0.2658  0.4243 -0.1911
  762poe    c31 4813   5.856   2.185   5.509  0.1548  0.2030  0.1551
  762poe     o2 4814   5.928   2.208   5.628  0.2313 -0.1021  0.1686
  762poe    c23 4815   6.036   2.119   5.633 -0.1870 -0.6163  0.1560
  762poe    c23 4816   6.100   2.124   5.773 -0.2259 -0.4109  0.1660
  762poe     o2 4817   6.125   2.262   5.791 -0.7721 -0.3384  0.3953
  762poe    c23 4818   6.174   2.287   5.920 -0.3814  0.8017  0.0364
  762poe    c23 4819   6.230   2.426   5.958  0.0043  0.5102  0.5626
  762poe     o2 4820   6.132   2.518   5.916 -0.0553  0.2138  0.0423
  762poe    c23 4821   6.165   2.649   5.956  0.5145  0.1917 -0.3437
  762poe    c23 4822   6.045   2.744   5.942  0.2435 -0.1558 -0.3969
  762poe     o2 4823   5.983   2.727   5.817 -0.7989 -0.4594  0.1493
  762poe    c31 4824   5.880   2.823   5.816 -0.0878  0.3224  0.5224
  763poe    c31 4825   0.758   4.408   5.031  0.1748  0.1260  0.3032
  763poe     o2 4826   0.667   4.312   5.081  0.0934 -0.1975 -0.4511
  763poe    c23 4827   0.721   4.187   5.043  0.5709 -0.2330  0.3282
  763poe    c23 4828   0.638   4.075   5.109 -0.2877  0.3283  0.2153
  763poe     o2 4829   0.669   3.943   5.070 -0.6749  0.5071 -0.7150
  763poe    c23 4830   0.595   3.858   5.155 -0.5458  0.1503 -0.9546
  763poe    c23 4831   0.540   3.738   5.077 -0.4991 -0.0038 -0.7527
  763poe     o2 4832   0.636   3.694   4.984  0.0250  0.2688 -0.3445
  763poe    c23 4833   0.589   3.602   4.888  0.0257 -0.2115  0.1128
  763poe    c23 4834   0.700   3.543   4.800  0.2547 -0.2771  0.4453
  763poe     o2 4835   0.801   3.634   4.762 -0.0921 -0.1578 -0.1995
  763poe    c31 4836   0.916   3.580   4.700  0.1523 -0.1372  0.2288
  764poe    c31 4837   2.662   2.263   0.116 -0.3594  0.2259 -0.2029
  764poe     o2 4838   2.730   2.213   0.229 -0.2329  0.7313 -0.0532
  764poe    c23 4839   2.805   2.110   0.169 -0.2728  0.3833  0.4901
  764poe    c23 4840   2.935   2.086   0.248 -0.0861  0.5364  0.2309
  764poe     o2 4841   2.889   2.102   0.381  0.1745  0.3576  0.3432
  764poe    c23 4842   2.996   2.069   0.466  0.2863  0.7027  0.3373
  764poe    c23 4843   2.947   2.061   0.612 -0.6587 -0.2472 -0.0210
  764poe     o2 4844   2.863   2.170   0.642 -0.1188  0.1113  0.1950
  764poe    c23 4845   2.821   2.152   0.775  0.0619  0.1001  0.2511
  764poe    c23 4846   2.691   2.234   0.789 -0.0700 -0.1857  0.7409
  764poe     o2 4847   2.570   2.174   0.749 -0.1991  0.2604  0.4540
  764poe    c31 4848   2.461   2.239   0.810 -0.2520  0.5161  0.0917
  765poe    c31 4849   1.992   3.336   0.696  0.3351  0.2025 -0.1124
  765poe     o2 4850   1.967   3.327   0.557 -0.6637  0.1801  0.0586
  765poe    c23 4851   2.058   3.412   0.490 -0.8061  0.1634 -0.1570
  765poe    c23 4852   2.038   3.431   0.339 -0.4058 -0.0051 -0.2323
  765poe     o2 4853   2.064   3.313   0.267  0.1747 -0.2316  0.3328
  765poe    c23 4854   2.021   3.332   0.133  0.3841 -0.1107  0.2820
  765poe    c23 4855   2.047   3.200   0.058 -0.1466  0.0250 -0.1410
  765poe     o2 4856   2.181   3.172   0.091 -0.1570 -0.0013 -0.1220
  765poe    c23 4857   2.221   3.041   0.058  0.2153  0.0456  0.1357
  765poe    c23 4858   2.374   3.046   0.062  0.2252  0.2547 -0.4270
  765poe     o2 4859   2.409   3.143   0.159 -0.1568  0.0700 -0.1047
  765poe    c31 4860   2.546   3.113   0.171 -0.2571 -0.2305  0.3512
  766poe    c31 4861   1.722   4.038   0.519  0.3618 -0.0613 -0.0411
  766poe     o2 4862   1.841   4.100   0.477  0.5237 -0.4127 -0.1088
  766poe    c23 4863   1.840   4.109   0.336  0.2937 -0.4084 -0.1063
  766poe    c23 4864   1.969   4.169   0.279 -0.2339  0.9182  0.0666
  766poe     o2 4865   2.002   4.306   0.292  0.2102  0.7809  0.4295
  766poe    c23 4866   1.990   4.375   0.169 -0.3164  0.6924  0.4259
  766poe    c23 4867   2.044   4.514   0.206 -0.1026  0.7991 -0.2659
  766poe     o2 4868   2.161   4.500   0.284 -0.5315 -0.6706  0.1382
  766poe    c23 4869   2.206   4.624   0.332 -0.3558 -0.7043  0.0617
  766poe    c23 4870   2.276   4.580   0.462  0.4514  0.0942 -0.0931
  766poe     o2 4871   2.193   4.493   0.535  0.0839  0.5434  0.0291
  766poe    c31 4872   2.225   4.493   0.673  0.0514  0.0219  0.0400
  767poe    c31 4873   3.061   5.514   6.816  0.2162 -0.0402  0.2574
  767poe     o2 4874   3.017   5.610   6.910 -0.0263  0.1051 -0.0041
  767poe    c23 4875   3.129   5.674   6.966 -0.0664  0.0075  0.1896
  767poe    c23 4876   3.098   5.824   6.978  0.0271  0.0191  0.2889
  767poe     o2 4877   2.968   5.828   7.034 -0.3093  0.2103 -0.4948
  767poe    c23 4878   2.907   5.955   7.036  0.5140  0.6056  0.0460
  767poe    c23 4879   2.783   5.938   7.125  0.1280 -0.5414 -0.6814
  767poe     o2 4880   2.713   5.820   7.094 -0.1493 -0.6100  0.1771
  767poe    c23 4881   2.580   5.828   7.141 -0.2482  0.2238 -0.2478
  767poe    c23 4882   2.511   5.692   7.126 -0.3098  0.2232  0.0416
  767poe     o2 4883   2.490   5.659   6.990 -1.2928  0.1986  0.1857
  767poe    c31 4884   2.412   5.542   6.986 -0.0827 -0.6289 -0.0399
  768poe    c31 4885   3.849   4.159   1.568 -0.1054 -0.0484  1.0855
  768poe     o2 4886   3.877   4.030   1.517 -0.1924  0.2615  0.2317
  768poe    c23 4887   4.013   4.020   1.483 -0.1704 -0.3171  0.4734
  768poe    c23 4888   4.044   3.872   1.512 -0.3042 -0.3631  0.3816
  768poe     o2 4889   3.933   3.797   1.467 -0.1369 -0.2918 -0.1518
  768poe    c23 4890   3.927   3.667   1.521  0.0563 -0.2544 -0.0406
  768poe    c23 4891   3.830   3.593   1.429 -0.2141 -0.1461  0.1562
  768poe     o2 4892   3.709   3.665   1.415 -0.0489  0.2049  0.5306
  768poe    c23 4893   3.614   3.619   1.322  0.1939  0.5953  0.0832
  768poe    c23 4894   3.481   3.698   1.314 -0.1173  0.0915  0.2178
  768poe     o2 4895   3.497   3.818   1.241 -0.0716 -0.2323 -0.3095
  768poe    c31 4896   3.396   3.912   1.266  0.5472  0.2049  0.5923
  769poe    c31 4897   1.128   1.817   2.338 -0.1076  0.4784  0.3614
  769poe     o2 4898   1.151   1.677   2.341 -0.1748  0.4694  0.4721
  769poe    c23 4899   1.039   1.601   2.380 -0.0869  0.0598 -0.0580
  769poe    c23 4900   1.036   1.464   2.309  0.3879 -0.1005  0.2291
  769poe     o2 4901   1.041   1.483   2.170 -0.9481  0.2259  0.2134
  769poe    c23 4902   1.015   1.355   2.115  0.8452 -0.0265 -0.1001
  769poe    c23 4903   0.957   1.361   1.973  0.2071 -0.2956  0.1497
  769poe     o2 4904   1.041   1.458   1.914 -0.5108  0.0233 -0.3700
  769poe    c23 4905   1.021   1.475   1.776 -0.3659  0.2777 -0.3604
  769poe    c23 4906   1.103   1.599   1.736  0.1749 -0.0129 -0.1594
  769poe     o2 4907   1.059   1.697   1.827 -0.2633 -0.0820 -0.2928
  769poe    c31 4908   1.006   1.804   1.752  0.1051  0.0457 -0.3714
  770poe    c31 4909   0.389   6.533   0.720 -0.0217  0.3551 -0.0554
  770poe     o2 4910   0.297   6.628   0.669 -0.3661 -0.1704 -0.4180
  770poe    c23 4911   0.262   6.715   0.774  0.4399 -0.0268 -0.2606
  770poe    c23 4912   0.146   6.803   0.724  0.3470 -0.0653 -0.1162
  770poe     o2 4913   0.172   6.842   0.590  0.1550  0.3078 -0.0446
  770poe    c23 4914   0.063   6.894   0.517 -0.2053 -0.6868 -0.2318
  770poe    c23 4915   0.127   6.904   0.377 -0.2170 -0.1647 -0.2031
  770poe     o2 4916   0.220   6.802   0.347 -0.3703 -0.3986  0.1057
  770poe    c23 4917   0.167   6.681   0.298 -0.1542 -0.4346 -0.0410
  770poe    c23 4918   0.269   6.566   0.284 -0.2188 -0.4823 -0.1184
  770poe     o2 4919   0.328   6.554   0.411  0.2820  0.0665 -0.2922
  770poe    c31 4920   0.420   6.447   0.400  0.0285 -0.2317  0.4114
  771poe    c31 4921   5.877   0.480   4.450 -0.0909 -0.1410 -0.9743
  771poe     o2 4922   5.825   0.602   4.497 -0.1164 -0.4918 -0.0594
  771poe    c23 4923   5.694   0.613   4.446  0.0370  0.3251 -0.3026
  771poe    c23 4924   5.626   0.729   4.521  0.4608 -0.0747  0.7258
  771poe     o2 4925   5.712   0.833   4.483  0.0473  0.1324  0.3373
  771poe    c23 4926   5.673   0.967   4.504  0.1938  0.2393 -0.0716
  771poe    c23 4927   5.795   1.054   4.469  0.2107 -0.0246 -0.6979
  771poe     o2 4928   5.898   0.983   4.536  0.0009 -0.0045 -0.3518
  771poe    c23 4929   6.024   1.042   4.558 -0.1567  0.3836 -0.4755
  771poe    c23 4930   6.032   1.170   4.644  0.8016 -0.1248  0.2058
  771poe     o2 4931   5.986   1.285   4.577 -0.1292 -0.4060  0.3421
  771poe    c31 4932   5.980   1.396   4.664  0.1384  0.0674 -0.2366
  772poe    c31 4933   4.317   2.471   1.066  0.0528  0.5932 -0.2468
  772poe     o2 4934   4.356   2.360   1.144  0.0971  0.6274 -0.2200
  772poe    c23 4935   4.391   2.404   1.273  0.2650 -0.5474  0.1516
  772poe    c23 4936   4.387   2.290   1.376  0.2040 -0.3486  0.3721
  772poe     o2 4937   4.442   2.177   1.311  0.5214 -0.1919  0.3683
  772poe    c23 4938   4.423   2.063   1.391 -0.9275 -0.1729  0.0822
  772poe    c23 4939   4.461   1.947   1.297  0.2862  0.1259  0.1821
  772poe     o2 4940   4.404   1.982   1.173 -0.4325  0.1189  0.4991
  772poe    c23 4941   4.281   1.922   1.142  0.0304 -0.2974 -0.5979
  772poe    c23 4942   4.249   1.982   1.003 -0.5187  0.4354 -0.1599
  772poe     o2 4943   4.277   2.119   0.992  0.1487  0.2907 -0.2614
  772poe    c31 4944   4.294   2.156   0.857 -0.0436 -0.3274 -0.4562
  773poe    c31 4945   6.450   3.564   2.100  0.1443 -0.1512 -0.4223
  773poe     o2 4946   6.520   3.642   2.193 -0.3563  0.2382 -0.3691
  773poe    c23 4947   6.448   3.676   2.309  0.0683 -0.3649  0.0772
  773poe    c23 4948   6.553   3.702   2.418 -0.0236  0.3651 -0.0016
  773poe     o2 4949   6.673   3.737   2.351 -0.3810  0.5313 -0.5596
  773poe    c23 4950   6.765   3.792   2.442 -0.2983  0.0366 -0.3409
  773poe    c23 4951   6.900   3.770   2.372 -0.2253  0.4766 -0.3418
  773poe     o2 4952   6.895   3.828   2.244 -0.4019 -0.1437 -0.6169
  773poe    c23 4953   7.016   3.892   2.211 -0.3093  0.1522  0.2734
  773poe    c23 4954   7.000   3.925   2.061 -0.2256  0.0722  0.2470
  773poe     o2 4955   6.984   3.800   1.998 -0.0247  0.0928  0.1522
  773poe    c31 4956   7.111   3.767   1.948  0.0179 -0.0995  0.3837
  774poe    c31 4957   1.776   4.068   1.323  0.6043 -0.7321  0.4593
  774poe     o2 4958   1.868   4.108   1.223 -0.2428 -0.2223 -0.1329
  774poe    c23 4959   1.823   4.060   1.099  0.1500 -0.2255 -0.2752
  774poe    c23 4960   1.937   4.047   0.996  0.6953 -0.4552  0.3501
  774poe     o2 4961   2.014   4.164   1.018 -0.1681  0.1116  0.4092
  774poe    c23 4962   2.134   4.179   0.946 -0.3282  0.4565  0.2136
  774poe    c23 4963   2.236   4.271   1.016  0.0676  0.1768  0.0107
  774poe     o2 4964   2.232   4.235   1.153 -0.2224  0.0325 -0.0341
  774poe    c23 4965   2.268   4.348   1.229  0.2408  0.2874 -0.6233
  774poe    c23 4966   2.234   4.315   1.375  0.0652  0.3423 -0.6519
  774poe     o2 4967   2.104   4.260   1.376 -0.1356  0.8033  0.4812
  774poe    c31 4968   2.055   4.230   1.505  0.4946 -1.1678  0.2916
  775poe    c31 4969   2.749   0.268   1.359  0.5530 -0.5735  0.1074
  775poe     o2 4970   2.617   0.271   1.408  0.4551 -0.3949 -0.1645
  775poe    c23 4971   2.586   0.145   1.463  0.0417 -0.4348 -0.4862
  775poe    c23 4972   2.485   0.174   1.576  0.3063 -0.3658 -0.2655
  775poe     o2 4973   2.398   0.264   1.511  0.3554  0.2735  0.5345
  775poe    c23 4974   2.307   0.322   1.601  0.1000  0.7236 -0.0108
  775poe    c23 4975   2.226   0.405   1.500  0.0956  0.2197 -0.4222
  775poe     o2 4976   2.316   0.502   1.452  0.0349  0.2425 -0.4911
  775poe    c23 4977   2.252   0.624   1.422 -0.2714  0.1796 -0.1026
  775poe    c23 4978   2.311   0.708   1.307  0.4459 -0.4069 -0.1713
  775poe     o2 4979   2.300   0.631   1.190 -0.4954 -0.1785 -0.2431
  775poe    c31 4980   2.324   0.713   1.078  0.4251  0.0870  0.1436
  776poe    c31 4981   6.587   4.866   4.548  0.7126 -0.3592  0.2268
  776poe     o2 4982   6.578   4.974   4.458 -0.5726  0.2559  1.0647
  776poe    c23 4983   6.534   4.927   4.332  1.1731 -0.0892  0.5592
  776poe    c23 4984   6.613   4.984   4.213  0.6031 -0.3936  0.0320
  776poe     o2 4985   6.574   5.118   4.194  0.6724 -0.3833 -0.0383
  776poe    c23 4986   6.689   5.200   4.183  0.1482  0.2569 -0.8702
  776poe    c23 4987   6.655   5.349   4.202 -0.4121  0.0764 -0.4094
  776poe     o2 4988   6.575   5.379   4.315 -0.4190  0.2242 -0.4530
  776poe    c23 4989   6.569   5.520   4.318  0.4000  0.2545  0.2801
  776poe    c23 4990   6.492   5.549   4.448  0.1109 -0.2304  0.2183
  776poe     o2 4991   6.366   5.485   4.442 -0.1295  0.2377  0.2466
  776poe    c31 4992   6.268   5.556   4.514 -0.0878  0.1942  0.3462
  777poe    c31 4993   0.202   1.158   2.535 -0.3992  0.3315  0.1063
  777poe     o2 4994   0.323   1.217   2.494 -0.4054  0.2659 -0.0058
  777poe    c23 4995   0.316   1.239   2.354  0.1513  0.7076  0.0303
  777poe    c23 4996   0.451   1.279   2.292  0.4497  0.2894  0.3997
  777poe     o2 4997   0.476   1.415   2.319  0.6295  0.2073  0.6647
  777poe    c23 4998   0.613   1.447   2.313  0.6641 -0.0319  0.1416
  777poe    c23 4999   0.633   1.592   2.360  0.0113  0.2803 -0.5178
  777poe     o2 5000   0.532   1.675   2.306 -0.6164 -0.2306 -0.1413
  777poe    c23 5001   0.517   1.795   2.378 -0.0501  0.0459 -0.4786
  777poe    c23 5002   0.429   1.899   2.306 -0.4983  0.0959  0.1267
  777poe     o2 5003   0.335   1.823   2.233 -0.1537 -0.1042 -0.1162
  777poe    c31 5004   0.239   1.897   2.161  0.1240  0.4256  0.0462
  778poe    c31 5005   4.831   4.140   5.278 -0.1139 -0.4379  0.1267
  778poe     o2 5006   4.864   4.043   5.375 -0.5032 -0.4032  0.2978
  778poe    c23 5007   4.781   3.930   5.364  0.1914 -0.8195 -0.8885
  778poe    c23 5008   4.801   3.825   5.476  0.1538  0.4368  0.3301
  778poe     o2 5009   4.748   3.878   5.595  0.2613  0.2745  0.4490
  778poe    c23 5010   4.802   3.809   5.706  0.0909 -0.4489  0.0927
  778poe    c23 5011   4.707   3.852   5.820  0.7306 -0.2361  0.5544
  778poe     o2 5012   4.702   3.993   5.828  0.2266 -0.2356  0.2640
  778poe    c23 5013   4.637   4.054   5.937 -0.3250 -0.3285 -0.0103
  778poe    c23 5014   4.632   4.205   5.910 -0.2882 -0.1999  0.6986
  778poe     o2 5015   4.574   4.225   5.783 -0.1207 -0.3507  0.5986
  778poe    c31 5016   4.546   4.361   5.761  0.2116 -0.3796 -0.0124
  779poe    c31 5017   2.760   2.060   4.427  0.2912 -0.1259 -0.5362
  779poe     o2 5018   2.772   2.115   4.556 -0.1565  0.0327 -0.5614
  779poe    c23 5019   2.670   2.062   4.637 -0.0009  0.0274 -0.3689
  779poe    c23 5020   2.686   2.104   4.784  0.2249  0.0603 -0.4017
  779poe     o2 5021   2.705   2.244   4.785  0.1743  0.0658  0.0012
  779poe    c23 5022   2.741   2.286   4.914 -0.5862  0.0879  0.2099
  779poe    c23 5023   2.811   2.421   4.891  0.4299 -0.3616  0.6096
  779poe     o2 5024   2.932   2.389   4.826  0.0041 -0.2366 -0.2531
  779poe    c23 5025   3.012   2.502   4.804  0.1607 -0.3527 -0.2809
  779poe    c23 5026   3.157   2.472   4.761  0.3214  0.4940 -0.3616
  779poe     o2 5027   3.173   2.443   4.624  0.5408  0.5113 -0.3390
  779poe    c31 5028   3.307   2.436   4.579  0.3916 -0.2041 -0.6767
  780poe    c31 5029   4.774   4.073   1.747 -0.2803  0.1205  0.1785
  780poe     o2 5030   4.889   4.018   1.808 -0.5417 -0.5568  0.0607
  780poe    c23 5031   4.993   4.005   1.714 -0.3163  0.6247  0.1388
  780poe    c23 5032   5.109   3.926   1.777 -0.9324 -0.1344  0.3310
  780poe     o2 5033   5.148   3.972   1.905  0.1242 -0.5877  0.1858
  780poe    c23 5034   5.286   3.950   1.916  0.3403  0.4874 -0.2412
  780poe    c23 5035   5.355   4.003   2.043  0.0402  0.0567  0.1056
  780poe     o2 5036   5.263   3.952   2.137 -0.2813  0.0096 -0.2292
  780poe    c23 5037   5.255   4.036   2.250 -0.3954 -0.0332 -0.2053
  780poe    c23 5038   5.142   4.000   2.348 -0.6890  0.2683 -0.4328
  780poe     o2 5039   5.028   3.998   2.265 -0.6038  0.0572 -0.5470
  780poe    c31 5040   4.917   3.965   2.346 -0.0738  0.1593  0.2318
  781poe    c31 5041   3.471   6.553   5.544 -0.1552 -0.0296 -0.1065
  781poe     o2 5042   3.541   6.434   5.570  0.1018  0.2404  0.4662
  781poe    c23 5043   3.678   6.468   5.562  0.2380 -0.4291 -0.2093
  781poe    c23 5044   3.756   6.335   5.556  0.1882 -0.4983  0.5461
  781poe     o2 5045   3.691   6.242   5.640 -0.4842 -0.4844  0.0490
  781poe    c23 5046   3.743   6.111   5.644 -0.1325 -0.3534 -0.1204
  781poe    c23 5047   3.658   6.061   5.763  0.1114  0.5301  0.4278
  781poe     o2 5048   3.520   6.082   5.742 -0.0140 -0.7309 -0.1041
  781poe    c23 5049   3.442   6.073   5.859 -0.3090  0.4463 -0.1932
  781poe    c23 5050   3.439   6.212   5.925 -0.6112  0.4293 -0.1699
  781poe     o2 5051   3.425   6.302   5.818 -0.7358  0.6602  0.0397
  781poe    c31 5052   3.430   6.430   5.878  0.1258  0.6054  0.0877
  782poe    c31 5053   0.879   1.067   1.564  0.7093 -0.0393 -0.0215
  782poe     o2 5054   0.867   1.122   1.435 -0.2538 -0.0711  0.0468
  782poe    c23 5055   0.781   1.234   1.430 -0.2392 -0.0480  0.2856
  782poe    c23 5056   0.741   1.257   1.283 -0.2942  0.1561  0.3333
  782poe     o2 5057   0.838   1.234   1.184 -0.5416 -0.2335  0.1782
  782poe    c23 5058   0.794   1.276   1.057  0.2361  0.1137  0.0149
  782poe    c23 5059   0.861   1.210   0.935 -0.1558 -0.1069 -0.0823
  782poe     o2 5060   0.836   1.072   0.939  0.1808 -0.1669 -0.0764
  782poe    c23 5061   0.959   1.003   0.944  0.3071  0.0319 -0.4236
  782poe    c23 5062   0.971   0.895   1.054  0.3060  0.1567 -0.2997
  782poe     o2 5063   0.990   0.953   1.181 -0.0572 -0.6494  0.1299
  782poe    c31 5064   0.990   0.858   1.285 -0.5354 -0.5748  0.2010
  783poe    c31 5065   6.702   2.149   1.578  0.8812  0.5405  0.5293
  783poe     o2 5066   6.836   2.133   1.538  0.5825 -0.1995 -0.2038
  783poe    c23 5067   6.900   2.043   1.626 -0.7257 -1.0072 -0.0559
  783poe    c23 5068   7.046   2.019   1.583 -0.2967  0.3023  0.6299
  783poe     o2 5069   7.129   2.130   1.605 -0.0336  0.1901  0.2174
  783poe    c23 5070   7.166   2.133   1.741 -0.7422  0.1799  0.4158
  783poe    c23 5071   7.204   2.275   1.785 -0.1893  0.1711 -0.0196
  783poe     o2 5072   7.106   2.373   1.755 -0.1413  0.2153 -0.0312
  783poe    c23 5073   7.143   2.487   1.829 -0.3203  0.0552  0.3062
  783poe    c23 5074   7.062   2.605   1.770 -0.3726 -0.2435 -0.2251
  783poe     o2 5075   7.054   2.586   1.631 -0.1136 -0.7319 -0.1760
  783poe    c31 5076   7.018   2.710   1.574  0.7665 -0.0947  0.6306
  784poe    c31 5077   1.944   1.889   5.996 -0.1895  0.5539  0.1528
  784poe     o2 5078   1.871   1.840   6.106 -0.2449 -0.5174 -0.3431
  784poe    c23 5079   1.873   1.926   6.218 -0.3043 -0.3316 -0.4848
  784poe    c23 5080   1.845   1.846   6.347 -0.0175  0.5573  0.1340
  784poe     o2 5081   1.728   1.769   6.360  0.5228 -0.2805  0.1168
  784poe    c23 5082   1.706   1.727   6.493  0.3655  0.1789  0.2390
  784poe    c23 5083   1.605   1.610   6.485  0.1983  0.3434 -0.0799
  784poe     o2 5084   1.491   1.648   6.412  0.2175 -0.0858 -0.3354
  784poe    c23 5085   1.407   1.535   6.404 -0.1047  0.1300  0.0339
  784poe    c23 5086   1.307   1.561   6.290  0.1558 -0.1386 -0.2532
  784poe     o2 5087   1.386   1.609   6.183  0.1226 -0.4343 -0.4121
  784poe    c31 5088   1.341   1.553   6.061 -0.5241 -0.5151 -0.1445
  785poe    c31 5089   6.468   4.306   2.613  0.5460  0.7536  0.3159
  785poe     o2 5090   6.389   4.353   2.720 -0.6867 -0.4710 -0.0201
  785poe    c23 5091   6.467   4.404   2.826 -0.0991 -0.1104 -0.6150
  785poe    c23 5092   6.372   4.440   2.942  0.1734 -0.2765 -0.3415
  785poe     o2 5093   6.272   4.341   2.948  0.1330 -0.1828  0.7489
  785poe    c23 5094   6.172   4.365   3.044 -0.0838  0.4336  0.3705
  785poe    c23 5095   6.084   4.239   3.038  0.1970  0.2620 -0.1112
  785poe     o2 5096   6.021   4.217   2.913  0.3047  0.1842 -0.1525
  785poe    c23 5097   5.961   4.091   2.895  0.1702  0.2404 -0.0933
  785poe    c23 5098   5.853   4.111   2.787 -0.1053  0.6262  0.2496
  785poe     o2 5099   5.898   4.148   2.659 -0.1162  0.1128  0.0946
  785poe    c31 5100   5.818   4.116   2.547  0.2652  0.6927 -0.3470
  786poe    c31 5101   2.413   4.392   3.888 -0.4377  0.2091 -0.1942
  786poe     o2 5102   2.528   4.455   3.836  0.3523 -0.7032  0.4052
  786poe    c23 5103   2.620   4.361   3.786  0.2451 -0.5843 -0.0150
  786poe    c23 5104   2.752   4.429   3.746 -0.0475  0.1036  0.1716
  786poe     o2 5105   2.724   4.555   3.689 -0.3173  0.1485  0.4037
  786poe    c23 5106   2.813   4.659   3.723 -0.1514  0.0929  0.1440
  786poe    c23 5107   2.782   4.776   3.628 -0.0679  0.0819  0.1035
  786poe     o2 5108   2.656   4.823   3.670 -0.0801 -0.1958  0.3801
  786poe    c23 5109   2.605   4.926   3.587  0.1283 -0.0222  0.4669
  786poe    c23 5110   2.494   5.017   3.644  0.0465  0.3325 -0.2480
  786poe     o2 5111   2.384   4.935   3.675  0.2833  0.2849  0.4902
  786poe    c31 5112   2.270   5.007   3.717 -0.1804 -0.0304 -0.2148
  787poe    c31 5113   4.576   4.382   6.532  0.2483 -0.1734 -0.0774
  787poe     o2 5114   4.597   4.469   6.423  0.2492 -0.0272  0.0392
  787poe    c23 5115   4.692   4.425   6.329  0.4484  0.4915 -0.0057
  787poe    c23 5116   4.706   4.522   6.211  0.4181  0.0633 -0.3668
  787poe     o2 5117   4.703   4.651   6.267  0.0661 -0.1186  0.0307
  787poe    c23 5118   4.756   4.752   6.184 -0.3035  0.2428  0.2265
  787poe    c23 5119   4.732   4.889   6.251  0.3323  0.1444  0.6631
  787poe     o2 5120   4.745   4.866   6.389  0.1237  0.4140  0.7293
  787poe    c23 5121   4.681   4.963   6.468 -0.4689  0.3201  0.3652
  787poe    c23 5122   4.533   4.922   6.471 -0.2818 -0.4963 -0.8042
  787poe     o2 5123   4.520   4.782   6.484  0.1037 -0.4675 -0.0251
  787poe    c31 5124   4.386   4.754   6.517 -0.0211  0.1574  0.0181
  788poe    c31 5125   0.666   5.812   5.562 -0.1141 -0.3371 -0.1027
  788poe     o2 5126   0.773   5.903   5.563 -0.0264 -0.4381  0.3408
  788poe    c23 5127   0.800   5.949   5.694  0.1313  0.0471  0.1437
  788poe    c23 5128   0.879   6.081   5.696 -0.3775  0.3559  0.1854
  788poe     o2 5129   0.986   6.057   5.607 -0.7251 -0.2112 -0.0864
  788poe    c23 5130   1.029   6.177   5.546 -0.5593 -0.2334 -0.0155
  788poe    c23 5131   1.091   6.127   5.415 -0.1275 -0.1220  0.1461
  788poe     o2 5132   0.996   6.045   5.352  0.1091 -0.1644 -0.1574
  788poe    c23 5133   1.029   6.003   5.221 -0.5409 -0.3562 -0.2655
  788poe    c23 5134   0.933   5.892   5.174 -0.3368 -0.4748 -0.4048
  788poe     o2 5135   0.868   5.840   5.288 -0.1330 -0.0195 -0.0800
  788poe    c31 5136   0.801   5.725   5.243 -0.7119  0.2480  0.0928
  789poe    c31 5137   4.080   6.817   4.834 -0.2198 -0.3218  0.3484
  789poe     o2 5138   3.966   6.891   4.872 -0.3801 -0.3461 -0.0801
  789poe    c23 5139   3.968   7.024   4.826  0.0671 -0.1879  0.3904
  789poe    c23 5140   3.836   7.100   4.847 -0.1380 -0.4936  0.1959
  789poe     o2 5141   3.809   7.137   4.981  0.2334  0.4256  0.0213
  789poe    c23 5142   3.684   7.201   4.979 -0.3500 -0.6877 -0.2729
  789poe    c23 5143   3.634   7.221   5.124 -0.0729 -0.7069 -0.1747
  789poe     o2 5144   3.646   7.097   5.190 -0.6764 -0.6056  0.1261
  789poe    c23 5145   3.562   7.096   5.304 -0.4563  0.2250  0.3028
  789poe    c23 5146   3.589   6.956   5.362  0.3150 -0.0180 -0.6058
  789poe     o2 5147   3.726   6.926   5.354  0.2720 -0.2967 -0.3150
  789poe    c31 5148   3.752   6.825   5.449 -0.0117  0.0221  0.1055
  790poe    c31 5149   3.359   6.123   4.956  0.1452 -0.2785  0.2522
  790poe     o2 5150   3.481   6.093   4.892  0.2214  0.0484  0.2376
  790poe    c23 5151   3.523   6.206   4.820 -0.2611  0.0253 -0.0879
  790poe    c23 5152   3.675   6.190   4.800 -0.2153  0.1378  0.1648
  790poe     o2 5153   3.682   6.065   4.735 -0.2069  0.4116 -0.3631
  790poe    c23 5154   3.805   6.046   4.669  0.0015  0.2365  0.0726
  790poe    c23 5155   3.791   5.940   4.558 -0.1234  0.5654 -0.2294
  790poe     o2 5156   3.746   5.818   4.612  0.4395  0.2416 -0.4884
  790poe    c23 5157   3.704   5.720   4.520  0.3750 -0.1355 -0.0620
  790poe    c23 5158   3.602   5.626   4.586  0.3597 -0.2044 -0.1828
  790poe     o2 5159   3.482   5.693   4.616  0.0775 -0.4747 -0.6925
  790poe    c31 5160   3.386   5.597   4.657 -0.3668  0.1746 -0.1811
  791poe    c31 5161   3.764   1.754   2.633 -0.0313  0.1480 -0.0945
  791poe     o2 5162   3.790   1.676   2.747  0.2860 -0.4678 -0.5826
  791poe    c23 5163   3.693   1.574   2.753 -0.1328 -0.0261  0.2990
  791poe    c23 5164   3.760   1.452   2.819 -0.3958 -0.3212  0.0240
  791poe     o2 5165   3.805   1.492   2.946 -0.7757 -0.3660  0.1724
  791poe    c23 5166   3.907   1.404   2.989 -0.0117 -0.2360 -1.3115
  791poe    c23 5167   4.045   1.459   2.949  0.3275 -0.2413 -0.2000
  791poe     o2 5168   4.031   1.597   2.973  0.1721 -0.2633 -0.1603
  791poe    c23 5169   4.155   1.658   2.944 -0.1578  0.5204  0.0430
  791poe    c23 5170   4.124   1.807   2.964  0.5263  0.7396 -0.4908
  791poe     o2 5171   4.006   1.852   2.900 -0.2717 -0.3946  0.1623
  791poe    c31 5172   4.019   1.973   2.829  0.2714 -0.2236  0.5475
  792poe    c31 5173   5.054   4.427   0.367  0.0025 -0.0192 -0.2694
  792poe     o2 5174   4.982   4.517   0.449 -0.1345 -0.5290  0.1717
  792poe    c23 5175   5.043   4.639   0.484 -0.0446 -0.7388  0.7517
  792poe    c23 5176   4.940   4.709   0.575  0.0534 -0.0566  0.3396
  792poe     o2 5177   4.806   4.692   0.536  0.1792  0.0560 -0.1475
  792poe    c23 5178   4.708   4.777   0.590  0.3561  0.0987  0.1070
  792poe    c23 5179   4.576   4.738   0.520  0.3916 -0.7314  0.4933
  792poe     o2 5180   4.548   4.603   0.547 -0.2338 -0.7327 -0.1380
  792poe    c23 5181   4.418   4.570   0.505 -0.4649 -0.3838  0.3001
  792poe    c23 5182   4.382   4.430   0.558 -0.0277 -0.3806  0.6154
  792poe     o2 5183   4.458   4.324   0.506  0.0742 -0.3628  0.7297
  792poe    c31 5184   4.380   4.208   0.521 -0.5329 -0.0664 -0.0307
  793poe    c31 5185   4.097   6.333   3.958 -0.4696 -0.1042  0.0797
  793poe     o2 5186   4.197   6.243   3.918  0.1597  0.5093  0.2373
  793poe    c23 5187   4.316   6.314   3.893 -0.0395  0.8511  0.2662
  793poe    c23 5188   4.432   6.232   3.953 -0.3047  0.1894 -0.1253
  793poe     o2 5189   4.403   6.097   3.926 -0.0675  0.0049  0.5334
  793poe    c23 5190   4.503   6.005   3.964 -0.0771 -0.3340 -0.2425
  793poe    c23 5191   4.450   5.863   3.937  0.3972 -0.5558 -0.0294
  793poe     o2 5192   4.311   5.877   3.958  0.4623 -0.6134  0.4391
  793poe    c23 5193   4.251   5.795   3.860 -0.1220  0.6425 -0.2800
  793poe    c23 5194   4.106   5.844   3.870 -0.4448 -0.1794 -0.8158
  793poe     o2 5195   4.116   5.982   3.842  0.1314 -0.0045  0.2030
  793poe    c31 5196   3.991   6.030   3.800  0.1001  0.4359  0.7847
  794poe    c31 5197   0.083   1.297   0.201  0.2477  0.7160 -0.3742
  794poe     o2 5198   0.019   1.394   0.281  0.2427 -0.2228  0.7936
  794poe    c23 5199  -0.122   1.392   0.279  0.2274  0.6243 -0.4565
  794poe    c23 5200  -0.177   1.479   0.394 -0.3423 -0.0099 -0.2408
  794poe     o2 5201  -0.121   1.605   0.365  0.2029 -0.2231 -0.1244
  794poe    c23 5202  -0.128   1.697   0.472 -0.2467 -0.2307 -0.1435
  794poe    c23 5203  -0.055   1.827   0.432 -0.3546 -0.0996  0.0881
  794poe     o2 5204   0.083   1.802   0.422 -0.2927  0.4753 -0.6113
  794poe    c23 5205   0.157   1.919   0.398 -0.1182  0.4815 -0.0728
  794poe    c23 5206   0.302   1.879   0.366 -0.0528  0.2303  0.5266
  794poe     o2 5207   0.338   1.811   0.248  0.3067  0.5753  0.4320
  794poe    c31 5208   0.472   1.770   0.240 -0.1433 -0.8363 -0.3216
  795poe    c31 5209   2.212   6.029   3.252  0.2789 -0.1532  0.2319
  795poe     o2 5210   2.351   6.045   3.272  0.1796  0.5812  0.3418
  795poe    c23 5211   2.397   5.942   3.357  0.0854  0.8515  0.7256
  795poe    c23 5212   2.550   5.932   3.361  0.0572 -0.1257 -0.0351
  795poe     o2 5213   2.588   6.063   3.398  0.0864 -0.2184  0.2650
  795poe    c23 5214   2.726   6.087   3.409 -0.0052  0.6649 -0.3861
  795poe    c23 5215   2.710   6.232   3.459 -0.0352  0.4535  0.2263
  795poe     o2 5216   2.615   6.295   3.377  0.4969  0.3413 -0.4834
  795poe    c23 5217   2.574   6.412   3.446 -0.4184 -0.2384 -0.0198
  795poe    c23 5218   2.462   6.467   3.356  0.1631  0.3466 -0.3949
  795poe     o2 5219   2.381   6.360   3.313 -0.0441  0.1924  0.3676
  795poe    c31 5220   2.283   6.412   3.226 -0.3165 -0.3352  0.3572
  796poe    c31 5221   2.251   0.176   5.450 -0.5936  0.2917 -0.3443
  796poe     o2 5222   2.164   0.072   5.490 -0.1109  0.1047  0.2295
  796poe    c23 5223   2.080   0.111   5.595  0.2867  0.0460  0.5736
  796poe    c23 5224   1.999  -0.012   5.642 -0.0905  0.2380  0.4284
  796poe     o2 5225   1.969  -0.068   5.516 -0.0228  0.2242  0.4188
  796poe    c23 5226   1.915  -0.197   5.532  0.6699 -0.0848  0.3088
  796poe    c23 5227   1.894  -0.263   5.394  0.5091  0.0855  0.2517
  796poe     o2 5228   2.016  -0.233   5.329  0.4067  0.1117  0.0742
  796poe    c23 5229   1.988  -0.220   5.191 -0.3728 -0.0539  0.2097
  796poe    c23 5230   2.091  -0.122   5.133 -0.4677 -0.2096 -0.2243
  796poe     o2 5231   2.100  -0.012   5.220 -0.2493 -0.2298 -0.2200
  796poe    c31 5232   2.061   0.103   5.147  0.3902  0.1931  0.0928
  797poe    c31 5233   4.167   5.261   2.236  0.1083  0.0833  0.5192
  797poe     o2 5234   4.305   5.270   2.264  0.0855  0.4200  0.5246
  797poe    c23 5235   4.322   5.333   2.389  0.4470  0.4451  0.4656
  797poe    c23 5236   4.471   5.362   2.412  0.5292 -0.2804  0.8891
  797poe     o2 5237   4.536   5.238   2.392  0.1054 -0.3481 -0.1249
  797poe    c23 5238   4.675   5.239   2.418  0.1864  0.1783 -0.5671
  797poe    c23 5239   4.729   5.114   2.346  0.4536 -0.0186 -0.0279
  797poe     o2 5240   4.656   4.995   2.366 -0.2862  0.4022 -0.1503
  797poe    c23 5241   4.717   4.887   2.298 -0.3712  0.3357 -0.1200
  797poe    c23 5242   4.652   4.757   2.348 -0.1206  0.1677 -0.2304
  797poe     o2 5243   4.513   4.754   2.326 -0.1166 -0.0173 -0.2342
  797poe    c31 5244   4.456   4.628   2.356  0.2575 -0.1780 -0.1930
  798poe    c31 5245   5.128   3.911   0.752 -0.6889  0.3679  0.0844
  798poe     o2 5246   5.168   3.900   0.887  0.0910 -0.6255 -0.2121
  798poe    c23 5247   5.277   3.986   0.909 -0.3643 -0.0958  0.0052
  798poe    c23 5248   5.369   3.959   1.029 -0.3151 -0.4216 -0.1049
  798poe     o2 5249   5.431   3.834   1.007 -0.0789 -0.2111 -0.6557
  798poe    c23 5250   5.548   3.812   1.084 -0.1497  0.1683 -0.4362
  798poe    c23 5251   5.577   3.662   1.069 -0.3124  0.0995 -0.0626
  798poe     o2 5252   5.462   3.584   1.095 -0.2395  0.1955  0.5738
  798poe    c23 5253   5.499   3.449   1.107 -0.4432  0.1397  0.5907
  798poe    c23 5254   5.386   3.345   1.110 -0.4375  0.0868 -0.5529
  798poe     o2 5255   5.279   3.419   1.054 -0.5458  0.5049  0.1952
  798poe    c31 5256   5.175   3.325   1.071  0.0217 -0.2380 -0.3312
  799poe    c31 5257   2.388   4.516   6.796  0.1768  0.1936 -0.4521
  799poe     o2 5258   2.455   4.435   6.702  0.2194 -0.1294 -0.1478
  799poe    c23 5259   2.379   4.325   6.657 -0.2960  0.3527 -0.4733
  799poe    c23 5260   2.458   4.231   6.564  0.2425  0.2996  0.0298
  799poe     o2 5261   2.578   4.186   6.622  0.4050  0.3158 -0.2882
  799poe    c23 5262   2.616   4.075   6.543 -0.2942 -0.2362  0.1392
  799poe    c23 5263   2.750   4.018   6.593 -0.2115 -0.1626  0.0045
  799poe     o2 5264   2.728   3.988   6.729 -0.1469  0.3959  0.1419
  799poe    c23 5265   2.853   3.965   6.790 -0.2574 -0.1576  0.1650
  799poe    c23 5266   2.824   3.982   6.940 -0.3077 -0.3124  0.1729
  799poe     o2 5267   2.763   4.109   6.948  0.1465 -0.1074  0.4281
  799poe    c31 5268   2.750   4.153   7.081 -0.9281  0.1907  0.2287
  800poe    c31 5269   5.363   3.204   6.208  0.2429 -0.0275 -0.4427
  800poe     o2 5270   5.249   3.180   6.287 -0.1689  0.4483 -0.8825
  800poe    c23 5271   5.234   3.040   6.295 -0.3842  0.5123 -0.0327
  800poe    c23 5272   5.116   2.997   6.384  0.0909  0.1713  0.4363
  800poe     o2 5273   4.991   3.044   6.339  0.2797  0.3026  0.0482
  800poe    c23 5274   4.894   2.975   6.415 -0.1095  0.4857 -0.2792
  800poe    c23 5275   4.761   3.041   6.376 -0.5939 -0.3455 -0.0475
  800poe     o2 5276   4.769   3.085   6.242  0.3918 -0.4607 -0.0292
  800poe    c23 5277   4.643   3.086   6.179  0.2514  0.3473  0.2463
  800poe    c23 5278   4.625   3.195   6.072 -0.0190 -0.2158 -0.2857
  800poe     o2 5279   4.654   3.326   6.114 -0.3079 -0.1972 -0.1375
  800poe    c31 5280   4.608   3.414   6.015 -0.3811  0.0480  0.1123
  801poe    c31 5281   5.907   0.662   1.786  0.7225  0.3136  0.1252
  801poe     o2 5282   5.879   0.523   1.786  0.2838  0.3994 -0.2018
  801poe    c23 5283   5.763   0.490   1.714  0.4342 -0.3058 -0.1206
  801poe    c23 5284   5.737   0.339   1.729 -0.1285 -0.1263  0.7657
  801poe     o2 5285   5.832   0.248   1.677 -0.1342  0.4907 -0.3552
  801poe    c23 5286   5.782   0.117   1.694  0.2922  0.3746  0.0200
  801poe    c23 5287   5.886   0.013   1.651 -0.2937 -0.0355 -0.4218
  801poe     o2 5288   5.935   0.067   1.530 -0.1323  0.6048 -0.0734
  801poe    c23 5289   6.039  -0.018   1.486 -0.3145  0.3975 -0.1029
  801poe    c23 5290   6.103   0.074   1.381  0.1422 -0.4260 -0.5571
  801poe     o2 5291   6.124   0.196   1.449 -0.2615 -0.5281 -0.2442
  801poe    c31 5292   6.221   0.273   1.381 -0.1912 -0.9013 -0.5695
  802poe    c31 5293   2.995   4.750   6.111 -0.5097 -0.1255  0.9930
  802poe     o2 5294   3.111   4.671   6.129 -0.1371  0.1853  0.0056
  802poe    c23 5295   3.234   4.735   6.105  0.1327 -0.0019  0.8474
  802poe    c23 5296   3.350   4.636   6.125 -0.1595 -0.6797 -0.6398
  802poe     o2 5297   3.307   4.542   6.222 -0.2634 -0.0891 -0.1030
  802poe    c23 5298   3.410   4.455   6.261  0.3437  0.5584 -0.2457
  802poe    c23 5299   3.405   4.453   6.415 -0.1890  0.6445 -0.2616
  802poe     o2 5300   3.274   4.441   6.465  0.2107  0.1605  0.6923
  802poe    c23 5301   3.273   4.409   6.602  0.3658 -0.2782  0.5933
  802poe    c23 5302   3.126   4.402   6.646  0.1991 -0.0422  0.0749
  802poe     o2 5303   3.061   4.527   6.630 -0.1239 -0.1210  0.7448
  802poe    c31 5304   2.946   4.535   6.711 -0.3251  0.2864  0.4179
  803poe    c31 5305   0.554   5.594   3.595 -0.7040 -0.3563  0.7195
  803poe     o2 5306   0.596   5.469   3.645  0.3470 -0.1764  0.3033
  803poe    c23 5307   0.489   5.435   3.730  0.1833 -0.0421  0.1530
  803poe    c23 5308   0.512   5.290   3.777  0.0391 -0.3429 -0.6863
  803poe     o2 5309   0.650   5.270   3.796 -0.0510 -0.2984  0.0345
  803poe    c23 5310   0.680   5.156   3.873  0.0140  0.5061  1.2336
  803poe    c23 5311   0.830   5.152   3.908  0.2080 -0.0044  0.3730
  803poe     o2 5312   0.899   5.165   3.785 -0.1330  0.4075  0.2200
  803poe    c23 5313   1.039   5.164   3.800 -0.1235  0.5468  0.1423
  803poe    c23 5314   1.121   5.171   3.670  0.4996 -0.2998  0.4780
  803poe     o2 5315   1.092   5.293   3.607 -0.2161 -0.7982 -0.1795
  803poe    c31 5316   1.163   5.333   3.491 -0.7588 -0.4536 -0.3989
  804poe    c31 5317   6.623   2.698   4.766  0.0404  0.1506  0.0558
  804poe     o2 5318   6.550   2.819   4.771 -0.3051 -0.0285 -0.5966
  804poe    c23 5319   6.425   2.788   4.830  0.0919 -0.4768  0.0253
  804poe    c23 5320   6.345   2.919   4.843  0.3313 -0.3787  0.5052
  804poe     o2 5321   6.399   3.015   4.931 -0.1569  0.3754 -0.0119
  804poe    c23 5322   6.412   2.984   5.068 -0.4287  0.0487 -0.0582
  804poe    c23 5323   6.449   3.108   5.152  0.0947 -0.2509  0.1618
  804poe     o2 5324   6.565   3.163   5.092 -0.3352  0.3972 -0.0934
  804poe    c23 5325   6.614   3.279   5.155 -0.6096  0.4597  0.0080
  804poe    c23 5326   6.742   3.320   5.078 -0.5741  0.1192 -0.1158
  804poe     o2 5327   6.725   3.296   4.940 -0.8508  0.1057 -0.0811
  804poe    c31 5328   6.825   3.346   4.854 -0.3191  0.1288  0.5363
  805poe    c31 5329   6.570   3.669   1.062  0.3797  0.2471  0.2173
  805poe     o2 5330   6.563   3.769   0.963  0.2613  0.4373  0.4163
  805poe    c23 5331   6.495   3.875   1.028  0.0077  0.6267 -0.1499
  805poe    c23 5332   6.498   4.003   0.943  0.7423  0.0312 -1.0549
  805poe     o2 5333   6.431   3.996   0.819 -0.1795  0.0459 -0.5673
  805poe    c23 5334   6.415   4.118   0.749 -0.4214  0.4399  0.1546
  805poe    c23 5335   6.366   4.085   0.606 -0.0539  0.4336  0.0297
  805poe     o2 5336   6.421   3.963   0.563 -0.4706  0.2825 -0.0773
  805poe    c23 5337   6.361   3.942   0.438  0.0173  0.2683 -0.3123
  805poe    c23 5338   6.375   3.793   0.402  0.3103  0.2637 -0.1741
  805poe     o2 5339   6.347   3.736   0.528 -0.1677  0.2884 -0.2688
  805poe    c31 5340   6.356   3.595   0.531 -0.0792  0.3026  0.2136
  806poe    c31 5341   0.701   6.757   6.609  0.6494  0.6339 -0.2410
  806poe     o2 5342   0.722   6.640   6.685 -0.5814  0.3026 -0.3917
  806poe    c23 5343   0.633   6.534   6.655 -0.4022  0.1610 -0.4252
  806poe    c23 5344   0.676   6.447   6.536  0.5370  0.0647 -0.0252
  806poe     o2 5345   0.785   6.379   6.594  0.4192 -0.0465  0.0644
  806poe    c23 5346   0.855   6.286   6.515  0.1595  0.1851 -0.4399
  806poe    c23 5347   0.982   6.253   6.595 -0.2638 -0.0362  0.1508
  806poe     o2 5348   1.071   6.362   6.584 -0.2084 -0.1171 -0.2215
  806poe    c23 5349   1.199   6.339   6.639 -0.4165  0.4765  0.5256
  806poe    c23 5350   1.304   6.436   6.583 -0.3926  0.3113  0.2844
  806poe     o2 5351   1.240   6.561   6.567 -0.7080  0.1100 -0.0382
  806poe    c31 5352   1.327   6.671   6.580 -0.2841 -0.2349  0.0284
  807poe    c31 5353   5.546   3.631   2.130  0.3017 -0.2721  0.2567
  807poe     o2 5354   5.664   3.556   2.148  0.1888 -0.4865  0.1017
  807poe    c23 5355   5.641   3.445   2.232 -0.4211 -0.4197  0.0317
  807poe    c23 5356   5.746   3.332   2.216  0.1061  0.1089 -0.2878
  807poe     o2 5357   5.876   3.371   2.252 -0.1944  0.1458  0.7969
  807poe    c23 5358   5.956   3.264   2.299 -0.3523 -0.2615  0.1435
  807poe    c23 5359   6.086   3.332   2.344 -0.7070  0.4899  0.0546
  807poe     o2 5360   6.064   3.430   2.442  0.0118  0.2613  0.4507
  807poe    c23 5361   6.186   3.479   2.494  0.0048  0.1589  0.5636
  807poe    c23 5362   6.159   3.589   2.597 -0.2030 -0.0112  0.6917
  807poe     o2 5363   6.036   3.649   2.564 -0.2203 -0.1055  0.5848
  807poe    c31 5364   6.008   3.776   2.618  0.2294  0.0465  0.4609
  808poe    c31 5365   6.084   4.169   5.026 -0.1460 -0.1651  0.0221
  808poe     o2 5366   6.008   4.081   4.946 -0.1366  0.2480 -0.4505
  808poe    c23 5367   6.044   3.945   4.958 -0.6965  0.1573  0.2496
  808poe    c23 5368   5.957   3.866   4.858  0.0536  0.2749 -0.5041
  808poe     o2 5369   5.829   3.924   4.851 -0.2322 -0.2513  0.2058
  808poe    c23 5370   5.733   3.851   4.777  0.1661 -0.5398 -0.0322
  808poe    c23 5371   5.597   3.913   4.815  0.4439 -0.3169  0.6247
  808poe     o2 5372   5.592   4.053   4.804  0.0342 -0.3352  0.5356
  808poe    c23 5373   5.459   4.100   4.800  0.2585  0.2901  0.1887
  808poe    c23 5374   5.460   4.251   4.828 -0.4845  0.2787  0.2886
  808poe     o2 5375   5.532   4.314   4.724 -0.3572  0.2529  0.3602
  808poe    c31 5376   5.475   4.432   4.673  0.3794  0.3132 -0.3363
  809poe    c31 5377   6.648   5.168   6.128  0.3513 -0.3506 -0.0262
  809poe     o2 5378   6.724   5.170   6.009  0.1164 -0.3550 -0.1773
  809poe    c23 5379   6.851   5.224   6.035 -0.2030  0.1310  0.3942
  809poe    c23 5380   6.930   5.243   5.904 -0.2336  0.0783  0.3686
  809poe     o2 5381   6.913   5.115   5.849 -0.4870  0.3367 -0.1578
  809poe    c23 5382   6.936   5.101   5.710 -0.2148 -0.0266 -0.0803
  809poe    c23 5383   6.868   4.965   5.681 -0.5343  0.3336 -1.0793
  809poe     o2 5384   6.735   4.969   5.728  0.0117  0.0721  0.5646
  809poe    c23 5385   6.657   4.856   5.696  0.0746  0.2344 -0.1760
  809poe    c23 5386   6.519   4.889   5.756  0.2189  0.2120  0.1656
  809poe     o2 5387   6.549   4.945   5.883 -0.1706 -0.2905  0.4813
  809poe    c31 5388   6.472   4.878   5.981 -0.6055  0.1630  0.4500
  810poe    c31 5389   2.226   2.945   4.632  0.1352  0.1528  0.1676
  810poe     o2 5390   2.272   2.822   4.578 -0.4434 -0.1775  0.4201
  810poe    c23 5391   2.268   2.714   4.668  0.1360 -0.3177  0.2791
  810poe    c23 5392   2.339   2.590   4.611  0.3228 -0.0980  0.0292
  810poe     o2 5393   2.303   2.579   4.475  0.3001 -0.1041  0.0354
  810poe    c23 5394   2.358   2.461   4.421  0.6386  0.2142 -0.3214
  810poe    c23 5395   2.291   2.449   4.283 -0.1196  0.5404  0.0107
  810poe     o2 5396   2.272   2.572   4.217  0.7877  0.5273 -0.2916
  810poe    c23 5397   2.223   2.553   4.086  0.0948 -0.1080  0.0552
  810poe    c23 5398   2.167   2.683   4.025  0.1447 -0.1184 -0.0127
  810poe     o2 5399   2.069   2.742   4.108  0.3176  0.0373  0.0822
  810poe    c31 5400   2.034   2.872   4.066  0.1106 -0.1145 -0.2206
  811poe    c31 5401   1.729   5.617   5.404 -0.2488  0.1793 -0.5647
  811poe     o2 5402   1.832   5.604   5.308 -0.0678 -0.1936 -0.3210
  811poe    c23 5403   1.839   5.727   5.241 -0.1222 -0.1619 -0.2678
  811poe    c23 5404   1.956   5.729   5.141  0.1735 -0.4795  0.0717
  811poe     o2 5405   2.055   5.673   5.225  0.6261  0.1474 -0.0327
  811poe    c23 5406   2.181   5.670   5.162  0.3957  0.1650 -0.5062
  811poe    c23 5407   2.199   5.529   5.103  0.5001 -0.0436  0.0136
  811poe     o2 5408   2.140   5.453   5.206 -0.0499  0.5797  0.1678
  811poe    c23 5409   2.086   5.328   5.169 -0.0007  0.4531  0.5192
  811poe    c23 5410   2.046   5.260   5.302  0.2350  0.1494  0.4351
  811poe     o2 5411   1.991   5.369   5.372 -0.0863  0.4802 -0.3125
  811poe    c31 5412   1.931   5.312   5.486  0.7963  0.9379  0.4032
  812poe    c31 5413   0.103   0.312   2.633 -0.2409 -0.2866 -0.0278
  812poe     o2 5414   0.026   0.429   2.647 -0.2317 -0.2877  0.0329
  812poe    c23 5415  -0.078   0.397   2.737  0.1002  0.0439  0.5349
  812poe    c23 5416  -0.163   0.525   2.741 -0.5304 -0.3544 -0.0131
  812poe     o2 5417  -0.073   0.631   2.760 -0.5782 -0.2744 -0.2261
  812poe    c23 5418  -0.133   0.759   2.765  0.5880  0.2718  0.4024
  812poe    c23 5419  -0.021   0.862   2.745  0.6386  0.1677  0.1488
  812poe     o2 5420   0.069   0.808   2.651  0.3398 -0.0826  0.0035
  812poe    c23 5421   0.204   0.834   2.682  0.0993  0.9360  0.2365
  812poe    c23 5422   0.300   0.751   2.594 -0.4799  0.0091  0.4616
  812poe     o2 5423   0.255   0.618   2.580  0.5746 -0.3343  0.2642
  812poe    c31 5424   0.348   0.552   2.497  0.5923 -0.5755  0.4712
  813poe    c31 5425   3.206   2.443   6.610  0.0852 -0.0920 -0.2219
  813poe     o2 5426   3.174   2.461   6.474  0.0877  0.1932 -0.1851
  813poe    c23 5427   3.202   2.593   6.434 -0.6134  0.3127 -0.2868
  813poe    c23 5428   3.255   2.566   6.292  0.1041  0.0451  0.0294
  813poe     o2 5429   3.186   2.464   6.224  0.2203 -0.0880  0.1114
  813poe    c23 5430   3.205   2.472   6.084 -0.1942 -0.7024  0.0174
  813poe    c23 5431   3.070   2.413   6.040 -0.4854  0.0384 -0.0973
  813poe     o2 5432   3.052   2.297   6.119  0.2146  0.1032  0.1650
  813poe    c23 5433   2.916   2.268   6.146  0.3109 -0.2588  0.2610
  813poe    c23 5434   2.855   2.356   6.257 -0.1367 -0.0580 -0.1397
  813poe     o2 5435   2.933   2.360   6.375 -0.1356  0.3306 -0.1534
  813poe    c31 5436   2.853   2.330   6.487 -0.2442 -0.1454 -0.3557
  814poe    c31 5437   1.285   4.513   0.356 -0.0078  0.6229  0.1264
  814poe     o2 5438   1.168   4.462   0.296  0.2921  0.1208 -0.0409
  814poe    c23 5439   1.192   4.419   0.164  0.0814  0.1684 -0.0952
  814poe    c23 5440   1.065   4.376   0.089 -0.1826  0.4920  0.1678
  814poe     o2 5441   0.979   4.487   0.071 -0.1213  0.4763 -0.2145
  814poe    c23 5442   0.919   4.481  -0.057 -0.4487 -0.1156 -0.0352
  814poe    c23 5443   0.847   4.616  -0.072  0.3828  0.3910  0.4079
  814poe     o2 5444   0.770   4.636   0.044  0.4648  0.0511  0.5228
  814poe    c23 5445   0.725   4.770   0.051  0.5390  0.1028  0.0333
  814poe    c23 5446   0.663   4.778   0.192 -0.3063  0.3925 -0.3467
  814poe     o2 5447   0.765   4.734   0.279 -0.5102 -0.3148 -0.4591
  814poe    c31 5448   0.747   4.773   0.413 -0.0821 -0.1987 -0.4332
  815poe    c31 5449   0.377   2.032   2.745  0.0140  0.1913 -0.5762
  815poe     o2 5450   0.267   2.074   2.821  0.5626  0.2791  0.1800
  815poe    c23 5451   0.276   2.011   2.947 -0.1430 -0.4351 -0.1136
  815poe    c23 5452   0.138   2.010   3.016 -0.0625  0.3615  0.0659
  815poe     o2 5453   0.056   1.970   2.909 -0.3123  0.2428  0.2996
  815poe    c23 5454  -0.083   1.982   2.924 -0.3644 -0.0771  0.0862
  815poe    c23 5455  -0.154   1.956   2.790 -0.2895 -0.0370  0.0391
  815poe     o2 5456  -0.073   2.039   2.708 -0.1054 -0.1722  0.0845
  815poe    c23 5457  -0.097   1.997   2.576 -0.2476 -0.3282  0.1585
  815poe    c23 5458  -0.014   2.095   2.490 -0.4216  0.0731  0.4418
  815poe     o2 5459   0.113   2.105   2.549 -0.0634 -0.4434 -0.2305
  815poe    c31 5460   0.190   2.194   2.469 -0.1805 -0.1114  0.0230
  816poe    c31 5461   6.559   2.135   0.169  0.1637  0.0665  0.2410
  816poe     o2 5462   6.441   2.179   0.105  0.3940 -0.4446 -0.5406
  816poe    c23 5463   6.450   2.314   0.065  0.3442 -0.3789 -0.3277
  816poe    c23 5464   6.337   2.351  -0.034 -0.1156 -0.2162  0.2475
  816poe     o2 5465   6.228   2.275   0.014 -0.4070  0.0741  0.0441
  816poe    c23 5466   6.111   2.314  -0.053 -0.1040  0.0826 -0.4839
  816poe    c23 5467   5.989   2.253   0.018  0.1877 -0.2684 -0.2849
  816poe     o2 5468   6.006   2.113   0.029 -0.4018 -0.3116  0.0800
  816poe    c23 5469   5.887   2.055   0.080 -0.0529 -0.3284  0.8898
  816poe    c23 5470   5.876   1.907   0.041 -0.1807  0.0555 -0.5812
  816poe     o2 5471   5.993   1.837   0.077 -0.3695 -0.1491 -0.3610
  816poe    c31 5472   5.973   1.698   0.067  0.7516 -0.3527  0.1564
  817poe    c31 5473   5.813   2.561   4.039  0.1088 -0.2088 -0.1614
  817poe     o2 5474   5.876   2.600   3.919  0.1894 -0.3264 -0.1579
  817poe    c23 5475   5.773   2.648   3.834  0.3145 -0.9273 -0.6555
  817poe    c23 5476   5.829   2.686   3.696 -0.3334  0.3473 -0.5782
  817poe     o2 5477   5.961   2.725   3.723 -0.3806 -0.1167  0.3379
  817poe    c23 5478   6.009   2.808   3.620  0.1356 -0.3151  0.4141
  817poe    c23 5479   6.162   2.816   3.635  0.1682 -0.5683  0.2306
  817poe     o2 5480   6.189   2.803   3.773 -0.6044 -0.2700  0.4175
  817poe    c23 5481   6.300   2.716   3.784 -0.3125  0.0810  0.2672
  817poe    c23 5482   6.294   2.637   3.915  0.5102  0.0134  0.2708
  817poe     o2 5483   6.163   2.607   3.958  0.3214 -0.0690 -0.3559
  817poe    c31 5484   6.154   2.531   4.076  0.3389 -0.3913 -0.5614
  818poe    c31 5485   4.423   4.168   3.454  0.4999 -0.8984 -0.2993
  818poe     o2 5486   4.514   4.211   3.552  0.0973  0.1189 -0.3579
  818poe    c23 5487   4.648   4.171   3.534 -0.0499 -0.6015  0.1206
  818poe    c23 5488   4.745   4.236   3.634 -0.0375  0.1600 -0.3817
  818poe     o2 5489   4.882   4.205   3.620 -0.0380 -0.2216  0.4295
  818poe    c23 5490   4.967   4.313   3.654 -0.2768  0.2198 -0.3544
  818poe    c23 5491   5.117   4.278   3.655 -0.2814  0.2111  0.1869
  818poe     o2 5492   5.127   4.165   3.738  0.0431 -0.0958 -0.2686
  818poe    c23 5493   5.258   4.131   3.776  0.0522  0.2709  0.0295
  818poe    c23 5494   5.254   3.984   3.822  0.3590  0.2752  0.0788
  818poe     o2 5495   5.161   3.917   3.740 -0.0375  0.5782  0.2734
  818poe    c31 5496   5.200   3.781   3.742 -0.3858  0.4685 -0.1788
  819poe    c31 5497   0.494   1.043   5.269 -0.3092 -0.4806  0.0651
  819poe     o2 5498   0.542   1.078   5.397  0.2635 -0.4983 -0.1416
  819poe    c23 5499   0.628   1.189   5.385 -0.0980 -0.1122  0.7367
  819poe    c23 5500   0.697   1.240   5.513  0.3606  0.2829  0.3351
  819poe     o2 5501   0.578   1.264   5.586  0.0549  0.5084 -0.2270
  819poe    c23 5502   0.594   1.266   5.726  0.3995  0.7210 -0.2687
  819poe    c23 5503   0.455   1.282   5.791  0.4954 -0.1032  0.1385
  819poe     o2 5504   0.388   1.172   5.734 -0.0289  0.2107  0.1513
  819poe    c23 5505   0.247   1.182   5.743  0.0017  0.2348  0.6231
  819poe    c23 5506   0.211   1.052   5.668 -0.0182  0.0528  0.9428
  819poe     o2 5507   0.292   1.059   5.553 -0.2646 -0.5132  0.7309
  819poe    c31 5508   0.230   0.979   5.455  0.5999 -0.3136  0.0004
  820poe    c31 5509   2.148   2.524   3.636 -0.1138 -0.0134  0.4259
  820poe     o2 5510   2.268   2.467   3.589 -0.1440 -0.1478  0.5073
  820poe    c23 5511   2.387   2.519   3.644  0.4165  0.0954 -0.8889
  820poe    c23 5512   2.508   2.446   3.582  0.6744 -0.0545 -0.2237
  820poe     o2 5513   2.514   2.489   3.448 -0.6051  0.2016 -0.2140
  820poe    c23 5514   2.640   2.457   3.393 -0.5772 -0.1854  0.0734
  820poe    c23 5515   2.633   2.479   3.241 -0.0517  0.9981  0.2062
  820poe     o2 5516   2.537   2.404   3.170  0.6999 -0.0957  0.3195
  820poe    c23 5517   2.587   2.375   3.041 -0.0761  0.3437 -0.0874
  820poe    c23 5518   2.486   2.277   2.978 -0.4210  0.6886 -0.0770
  820poe     o2 5519   2.359   2.317   3.024 -0.4022  0.1736  0.4244
  820poe    c31 5520   2.258   2.264   2.942 -0.1615  0.2662  0.0649
  821poe    c31 5521   2.016   3.056   3.706  0.1156  0.2183  0.2016
  821poe     o2 5522   1.885   3.010   3.683  0.2755 -0.1431 -0.0097
  821poe    c23 5523   1.800   3.104   3.621  0.1667 -0.2374 -0.0055
  821poe    c23 5524   1.670   3.047   3.564 -0.3775  0.8224  0.1506
  821poe     o2 5525   1.602   2.991   3.675  0.0339  0.2847  0.1330
  821poe    c23 5526   1.463   2.981   3.655  0.0674  0.5164 -0.2454
  821poe    c23 5527   1.404   3.005   3.795  0.2762  0.7903 -0.2048
  821poe     o2 5528   1.468   2.928   3.895 -0.5613  0.2267 -0.0993
  821poe    c23 5529   1.368   2.879   3.981 -0.0046  0.1036  0.4792
  821poe    c23 5530   1.439   2.827   4.108  0.2302  0.5610  0.5367
  821poe     o2 5531   1.547   2.756   4.052 -0.2902  0.1487  0.0343
  821poe    c31 5532   1.583   2.661   4.150  0.0633  0.0984 -0.1432
  822poe    c31 5533   2.049   0.395   6.044  0.9326  0.1597 -0.3892
  822poe     o2 5534   2.041   0.272   6.113 -0.4403  0.5823  0.2336
  822poe    c23 5535   2.104   0.176   6.033 -0.1524  0.3942  0.6847
  822poe    c23 5536   2.109   0.035   6.094  0.1288 -0.0616 -0.3586
  822poe     o2 5537   2.006   0.028   6.190  0.3111 -0.0223 -0.1581
  822poe    c23 5538   2.005  -0.091   6.266  0.0899  0.0903  0.0184
  822poe    c23 5539   1.883  -0.070   6.356 -0.1305  0.0456 -0.2689
  822poe     o2 5540   1.888   0.065   6.397  0.2454 -0.2036  0.5327
  822poe    c23 5541   1.763   0.119   6.431 -0.0314 -0.4918 -0.0036
  822poe    c23 5542   1.768   0.272   6.450 -0.5515 -0.4223 -0.4026
  822poe     o2 5543   1.825   0.327   6.334 -0.0534 -0.2166 -0.0631
  822poe    c31 5544   1.780   0.459   6.314  0.6230  0.0826  0.3360
  823poe    c31 5545   1.274   3.841   5.587  0.0140 -0.1709  0.0015
  823poe     o2 5546   1.245   3.979   5.579  0.0961 -0.1302  0.3608
  823poe    c23 5547   1.356   4.064   5.586 -0.3301  0.4155  0.5255
  823poe    c23 5548   1.294   4.203   5.610  0.0989  0.6518  0.2813
  823poe     o2 5549   1.178   4.217   5.530  0.4368 -0.7069 -0.4730
  823poe    c23 5550   1.106   4.331   5.568  0.0586 -1.0366 -0.1945
  823poe    c23 5551   0.962   4.340   5.512  0.3298 -0.2870 -0.8007
  823poe     o2 5552   0.914   4.208   5.525  0.0806 -0.1738 -0.5523
  823poe    c23 5553   0.787   4.196   5.466 -0.3664  0.1927  0.3217
  823poe    c23 5554   0.740   4.056   5.510  0.1584 -0.0117  0.2358
  823poe     o2 5555   0.800   3.953   5.435  0.1290  0.2380 -0.1341
  823poe    c31 5556   0.769   3.827   5.489 -0.5228  0.6643  0.5043
  824poe    c31 5557   5.755   6.561   0.194  0.0250  0.5181  0.1039
  824poe     o2 5558   5.874   6.506   0.142  0.0195 -0.0462  0.6692
  824poe    c23 5559   5.969   6.598   0.191 -0.2085  0.6233 -0.1314
  824poe    c23 5560   6.113   6.558   0.155 -0.3794 -0.1090 -0.0077
  824poe     o2 5561   6.109   6.418   0.174 -0.0634 -0.0576  0.4674
  824poe    c23 5562   6.236   6.365   0.145 -0.0676  0.3226 -0.2787
  824poe    c23 5563   6.239   6.212   0.166 -0.3447  0.3945  0.3032
  824poe     o2 5564   6.118   6.168   0.109 -0.2773 -0.1182  0.5539
  824poe    c23 5565   6.110   6.027   0.109 -0.2014 -0.1225  0.2867
  824poe    c23 5566   5.979   5.976   0.045  0.0068 -0.7422  0.3584
  824poe     o2 5567   5.864   6.010   0.119  0.0657  0.0628  0.0895
  824poe    c31 5568   5.760   5.979   0.029  0.1497  0.4000 -0.1228
  825poe    c31 5569   4.570   3.897   0.697 -0.2455  0.2045  0.0367
  825poe     o2 5570   4.626   3.883   0.826 -0.2301 -0.0333  0.0058
  825poe    c23 5571   4.739   3.965   0.843  0.0472 -0.2486 -0.7813
  825poe    c23 5572   4.780   3.925   0.986  0.0061  0.0683 -0.6792
  825poe     o2 5573   4.781   3.784   0.998  0.6106  0.0969 -0.3510
  825poe    c23 5574   4.813   3.749   1.131 -0.3434  0.0030 -0.1389
  825poe    c23 5575   4.831   3.597   1.139  0.1396  0.1044  0.7283
  825poe     o2 5576   4.719   3.527   1.091  0.4825  0.1108 -0.1036
  825poe    c23 5577   4.740   3.391   1.122  0.3669  0.0798 -0.1627
  825poe    c23 5578   4.627   3.317   1.046  0.4015 -0.0038 -0.1317
  825poe     o2 5579   4.603   3.358   0.914 -0.1707  0.3059  0.0647
  825poe    c31 5580   4.498   3.285   0.855  0.0246  0.2449 -0.2108
  826poe    c31 5581   0.315   3.809   0.958 -0.2083  0.1458  0.3413
  826poe     o2 5582   0.400   3.914   1.000  0.3507 -0.3001  0.3353
  826poe    c23 5583   0.387   4.036   0.931 -0.1385 -0.2620  0.4880
  826poe    c23 5584   0.509   4.118   0.976 -0.0708  0.2290 -0.5630
  826poe     o2 5585   0.484   4.145   1.112 -0.6419  0.7278 -0.7626
  826poe    c23 5586   0.572   4.250   1.145 -0.5909  0.4722 -0.0826
  826poe    c23 5587   0.579   4.255   1.299 -0.0781  0.2340 -0.0941
  826poe     o2 5588   0.593   4.119   1.336  0.0712  0.3386  0.2367
  826poe    c23 5589   0.700   4.122   1.427  0.1344  0.4587  0.1586
  826poe    c23 5590   0.719   3.995   1.512  0.3086  0.0664 -0.4606
  826poe     o2 5591   0.733   3.877   1.436  0.4844 -0.3454  0.1986
  826poe    c31 5592   0.727   3.758   1.511 -0.1840  0.2374  1.0932
  827poe    c31 5593   5.379   2.829   3.313 -0.1799  0.2849 -0.3870
  827poe     o2 5594   5.397   2.878   3.182  0.1456  0.3250 -0.3278
  827poe    c23 5595   5.391   2.759   3.106  0.1006 -0.0281  0.2190
  827poe    c23 5596   5.408   2.794   2.957 -0.1221 -0.1721  0.1603
  827poe     o2 5597   5.405   2.680   2.873  0.0296 -0.1058  0.0632
  827poe    c23 5598   5.353   2.730   2.752 -0.0848 -0.1382  0.0986
  827poe    c23 5599   5.340   2.605   2.662 -0.1464 -0.1154  0.0757
  827poe     o2 5600   5.228   2.534   2.709 -0.0110 -0.4658 -0.1277
  827poe    c23 5601   5.170   2.450   2.612 -0.0789 -0.5048 -0.0532
  827poe    c23 5602   5.043   2.388   2.674 -0.3651 -0.0108 -0.1443
  827poe     o2 5603   5.074   2.368   2.810  0.1356 -0.4842 -0.3266
  827poe    c31 5604   4.961   2.315   2.877 -0.2224  0.8807  0.1803
  828poe    c31 5605   1.396   4.176   6.186  0.0465  0.1443  0.7157
  828poe     o2 5606   1.525   4.119   6.197  0.0409  0.0146  0.1311
  828poe    c23 5607   1.605   4.137   6.083  0.2133  0.5108  0.3283
  828poe    c23 5608   1.733   4.052   6.079 -0.1275  0.0090 -0.2036
  828poe     o2 5609   1.721   3.915   6.110 -0.3927  0.1349  0.2508
  828poe    c23 5610   1.846   3.854   6.130 -0.3632  0.0665 -0.1321
  828poe    c23 5611   1.843   3.706   6.173  0.2324  0.2082  0.4212
  828poe     o2 5612   1.797   3.696   6.306  0.4058 -0.0738  0.4619
  828poe    c23 5613   1.795   3.562   6.349 -0.5241 -0.1419  0.2412
  828poe    c23 5614   1.690   3.565   6.462 -0.2576 -0.1536  0.4915
  828poe     o2 5615   1.695   3.692   6.522  0.2026  0.2932 -0.4748
  828poe    c31 5616   1.605   3.676   6.629  0.4454  0.1645 -0.2913
  829poe    c31 5617   0.587   2.374   0.088  0.3088  0.1456 -0.1099
  829poe     o2 5618   0.520   2.335   0.206  0.6667 -0.4227 -0.0890
  829poe    c23 5619   0.562   2.208   0.249  0.9590 -0.4955 -0.5820
  829poe    c23 5620   0.607   2.226   0.395 -0.4039  0.2343 -0.2302
  829poe     o2 5621   0.498   2.293   0.455 -0.1827  0.0923  0.3369
  829poe    c23 5622   0.461   2.252   0.585  0.3355  0.1620  0.5095
  829poe    c23 5623   0.418   2.383   0.654 -0.5476 -0.0586  0.3856
  829poe     o2 5624   0.334   2.474   0.586 -0.5460 -0.5511 -0.2901
  829poe    c23 5625   0.324   2.590   0.665 -0.2683 -0.6529 -0.1031
  829poe    c23 5626   0.252   2.698   0.582  0.6105 -0.1458 -0.2221
  829poe     o2 5627   0.321   2.725   0.462  0.2669  0.0244 -0.3820
  829poe    c31 5628   0.220   2.765   0.372 -0.2772 -0.2802  0.0830
  830poe    c31 5629   3.765   5.636   3.035  0.2551  0.1952  0.1586
  830poe     o2 5630   3.806   5.612   3.168 -0.0561 -0.5432  0.1292
  830poe    c23 5631   3.794   5.714   3.265  0.2921 -0.4183  0.0441
  830poe    c23 5632   3.915   5.809   3.252 -0.0134 -0.1304 -0.7567
  830poe     o2 5633   4.024   5.721   3.261  0.1963  0.1321 -0.7348
  830poe    c23 5634   4.136   5.759   3.184  0.5319  0.6104 -0.0277
  830poe    c23 5635   4.207   5.637   3.121  0.5349  0.4287  0.3241
  830poe     o2 5636   4.100   5.545   3.117  0.6407  0.3083  0.2675
  830poe    c23 5637   4.152   5.423   3.071 -0.2111  0.0907 -0.1394
  830poe    c23 5638   4.027   5.337   3.047 -0.1164 -0.0877 -0.0014
  830poe     o2 5639   3.942   5.357   3.158  0.2754  0.1829  0.2495
  830poe    c31 5640   3.842   5.257   3.164  0.7555 -0.3425 -0.2861
  831poe    c31 5641   4.631   6.387   6.316 -0.4681  0.2410  0.3664
  831poe     o2 5642   4.650   6.505   6.390  0.2409  0.3191  0.0640
  831poe    c23 5643   4.748   6.476   6.488  0.2307 -0.2730 -0.1002
  831poe    c23 5644   4.715   6.557   6.614  0.2201  0.1209 -0.3539
  831poe     o2 5645   4.703   6.696   6.593 -0.4016  0.0580 -0.4355
  831poe    c23 5646   4.729   6.777   6.706  0.9805  0.0974 -0.7743
  831poe    c23 5647   4.691   6.923   6.675  0.0870  0.0721  0.1755
  831poe     o2 5648   4.743   6.946   6.546  0.0915 -0.1138  0.1428
  831poe    c23 5649   4.723   7.075   6.492  0.7888  0.1090  0.4107
  831poe    c23 5650   4.775   7.076   6.347 -0.5682 -0.6521 -0.0940
  831poe     o2 5651   4.897   7.004   6.349 -0.5370 -0.5963  0.0175
  831poe    c31 5652   4.945   7.001   6.217 -0.3159 -0.3164  0.0898
  832poe    c31 5653   1.957   1.799   5.489 -0.4814 -0.5719  0.0670
  832poe     o2 5654   2.082   1.819   5.428 -0.5142 -0.2737  0.0958
  832poe    c23 5655   2.077   1.779   5.293 -0.5679  0.0108  0.0122
  832poe    c23 5656   2.217   1.760   5.232 -0.4357 -0.1621  0.3666
  832poe     o2 5657   2.291   1.862   5.294 -0.1134 -0.2851  0.1857
  832poe    c23 5658   2.410   1.896   5.226 -0.1194 -0.0157  0.3084
  832poe    c23 5659   2.487   1.983   5.327  0.2978  0.2776 -0.2567
  832poe     o2 5660   2.389   2.059   5.395  0.5767  0.3842  0.0244
  832poe    c23 5661   2.446   2.143   5.493  0.0756  0.4600  0.2514
  832poe    c23 5662   2.413   2.289   5.456 -0.3703  0.1475 -0.6162
  832poe     o2 5663   2.283   2.322   5.499 -0.1576  0.2717 -0.0602
  832poe    c31 5664   2.237   2.451   5.466  0.2280  0.4833  0.2211
  833poe    c31 5665   1.733   4.390   4.820  0.0514  0.0335 -0.4924
  833poe     o2 5666   1.847   4.398   4.738  0.2872  0.2820 -0.1435
  833poe    c23 5667   1.956   4.318   4.778  0.5161  0.4705 -0.3852
  833poe    c23 5668   2.078   4.310   4.684 -0.1213 -0.1280 -1.1771
  833poe     o2 5669   2.131   4.441   4.688 -0.0705 -0.1582 -0.8219
  833poe    c23 5670   2.269   4.432   4.662 -0.0682  0.0968 -0.8957
  833poe    c23 5671   2.334   4.570   4.639  0.0351  0.1921 -0.0338
  833poe     o2 5672   2.281   4.658   4.736  0.0439 -0.0301  0.1731
  833poe    c23 5673   2.299   4.793   4.700  0.1324  0.0527  0.5242
  833poe    c23 5674   2.258   4.883   4.818  0.1215 -0.3214  0.8099
  833poe     o2 5675   2.143   4.820   4.868  0.0649 -0.4238  0.5544
  833poe    c31 5676   2.073   4.911   4.949 -0.5048 -0.2644 -0.1060
  834poe    c31 5677   4.091   3.032   0.302  0.5217 -0.1434  0.3471
  834poe     o2 5678   4.017   3.064   0.418 -0.1230 -0.0692 -0.0785
  834poe    c23 5679   4.050   3.197   0.454 -0.3464  0.0578 -0.3376
  834poe    c23 5680   3.957   3.237   0.569  0.4060  0.3452  0.1788
  834poe     o2 5681   3.945   3.130   0.660  0.3049  0.1436 -0.0712
  834poe    c23 5682   3.842   3.135   0.756 -0.1578 -0.2357 -0.5424
  834poe    c23 5683   3.725   3.048   0.707 -0.0420 -0.9741  0.4729
  834poe     o2 5684   3.787   2.942   0.637  0.3553 -0.0986 -0.5355
  834poe    c23 5685   3.691   2.852   0.587  0.3059 -0.4819  0.2243
  834poe    c23 5686   3.764   2.769   0.479 -0.3493 -0.2342 -0.4224
  834poe     o2 5687   3.868   2.839   0.416 -0.2097  0.0468  0.1111
  834poe    c31 5688   3.916   2.742   0.325 -0.0572  0.5535 -0.3539
  835poe    c31 5689   1.592   1.077   3.195  0.7592  0.4162  0.9368
  835poe     o2 5690   1.637   0.975   3.281  0.4804 -0.4943  0.0240
  835poe    c23 5691   1.776   0.986   3.301  0.3758  0.0750  0.4856
  835poe    c23 5692   1.802   0.865   3.392 -0.4490 -0.2267  0.3265
  835poe     o2 5693   1.813   0.738   3.333  0.1392  0.1404 -0.3568
  835poe    c23 5694   1.855   0.657   3.440  0.2097  0.0921 -0.4203
  835poe    c23 5695   1.905   0.517   3.399 -0.3510 -0.1514 -0.2820
  835poe     o2 5696   1.797   0.459   3.329 -0.6132  0.2601 -0.2225
  835poe    c23 5697   1.829   0.325   3.301 -0.1923  0.1876  0.5514
  835poe    c23 5698   1.706   0.278   3.220  0.3297 -0.2929  0.0216
  835poe     o2 5699   1.672   0.377   3.126 -0.1564 -0.4695  0.0083
  835poe    c31 5700   1.605   0.319   3.017 -0.2616 -0.5539  0.1187
  836poe    c31 5701   1.494   1.470   4.541  0.3733 -0.0433  0.4355
  836poe     o2 5702   1.454   1.338   4.572 -0.4288  0.1586  0.2948
  836poe    c23 5703   1.460   1.315   4.711  0.3764  0.5626  0.3363
  836poe    c23 5704   1.316   1.338   4.762  0.1509 -0.2435  0.0665
  836poe     o2 5705   1.254   1.236   4.686  0.0892 -0.2364  0.1070
  836poe    c23 5706   1.114   1.247   4.678  0.0825 -0.4512 -0.0879
  836poe    c23 5707   1.063   1.206   4.538  0.3529 -0.3858 -0.2054
  836poe     o2 5708   1.159   1.267   4.455  0.5248  0.1021  0.3408
  836poe    c23 5709   1.138   1.237   4.319  0.7656 -0.4868  0.4342
  836poe    c23 5710   1.260   1.280   4.235  0.2392  0.3005  0.0665
  836poe     o2 5711   1.379   1.255   4.307  0.1580  0.1123  0.1362
  836poe    c31 5712   1.484   1.276   4.215 -0.2320  0.3460 -0.2631
  837poe    c31 5713   1.998   0.821   4.921  0.0633 -0.0356 -0.6662
  837poe     o2 5714   2.013   0.946   4.984  0.0764 -0.0051 -0.7288
  837poe    c23 5715   1.922   1.052   4.961 -0.4301 -0.2245  0.1746
  837poe    c23 5716   1.854   1.110   5.086  0.0356 -0.0761  0.3634
  837poe     o2 5717   1.936   1.195   5.163  0.3572 -0.1173  0.0687
  837poe    c23 5718   1.872   1.212   5.288  0.5595  0.0256  0.1526
  837poe    c23 5719   1.945   1.323   5.366  0.0094  0.3549  0.2094
  837poe     o2 5720   2.083   1.293   5.353 -0.1083  0.0207 -0.2850
  837poe    c23 5721   2.153   1.400   5.412 -0.2823  0.1138 -0.2454
  837poe    c23 5722   2.291   1.331   5.416 -0.4481 -0.2262 -0.3099
  837poe     o2 5723   2.319   1.293   5.283  0.1554  0.3787 -0.3620
  837poe    c31 5724   2.458   1.294   5.261  0.3821  0.3594  0.9752
  838poe    c31 5725   0.917   6.543   5.800  0.2703  0.1761 -0.0681
  838poe     o2 5726   1.044   6.575   5.853  0.5301 -0.1942 -0.4557
  838poe    c23 5727   1.088   6.687   5.780  0.0972  0.5784  0.4471
  838poe    c23 5728   1.232   6.723   5.819  0.2761  0.2705  0.0676
  838poe     o2 5729   1.252   6.705   5.957 -0.0013  0.1112  0.0875
  838poe    c23 5730   1.385   6.676   5.993 -0.0040  0.4761  0.4044
  838poe    c23 5731   1.423   6.529   5.966 -0.0973  0.5949 -0.4113
  838poe     o2 5732   1.308   6.467   6.020  0.0482  0.2015 -0.5518
  838poe    c23 5733   1.329   6.327   6.019  0.0862  0.2066 -0.3879
  838poe    c23 5734   1.209   6.267   6.095  0.2867  0.3558  0.0533
  838poe     o2 5735   1.091   6.329   6.047  0.2085  0.1040 -0.0793
  838poe    c31 5736   0.976   6.263   6.095  0.1606  0.4188  0.2390
  839poe    c31 5737   2.635   5.795   1.865  0.3091  0.1389 -0.1085
  839poe     o2 5738   2.698   5.737   1.753 -0.0168 -0.1664 -0.1354
  839poe    c23 5739   2.619   5.722   1.638  0.5771 -0.5264 -0.5038
  839poe    c23 5740   2.654   5.589   1.568  0.5010 -0.7069 -0.2016
  839poe     o2 5741   2.794   5.591   1.550  0.4619  0.1524 -0.4683
  839poe    c23 5742   2.852   5.481   1.483  0.4081  0.3258 -0.8015
  839poe    c23 5743   3.004   5.497   1.496  0.3476  0.3599 -0.0793
  839poe     o2 5744   3.028   5.527   1.632 -0.1463  0.0214  0.0845
  839poe    c23 5745   3.161   5.506   1.676  0.0662  0.1945 -0.4630
  839poe    c23 5746   3.273   5.597   1.623  0.2822  0.3862  0.3180
  839poe     o2 5747   3.236   5.733   1.632 -0.5712  0.1673  0.1911
  839poe    c31 5748   3.351   5.813   1.633 -0.3184 -0.1925  0.3595
  840poe    c31 5749   5.412   0.903   4.044  0.2578 -0.1113  0.5045
  840poe     o2 5750   5.309   0.905   4.140 -0.1613  0.1390  0.0593
  840poe    c23 5751   5.198   0.838   4.085 -0.1525 -0.0282  0.2444
  840poe    c23 5752   5.085   0.806   4.185 -0.4834 -0.1131 -0.1579
  840poe     o2 5753   5.001   0.903   4.244 -0.4060 -0.0059 -0.2245
  840poe    c23 5754   4.882   0.855   4.301 -0.3398  0.1613  0.0537
  840poe    c23 5755   4.803   0.981   4.343 -0.0644  0.4877 -0.3935
  840poe     o2 5756   4.889   1.023   4.447  0.1796 -0.0064 -0.3934
  840poe    c23 5757   4.861   1.151   4.498  0.4843 -0.0145 -0.2085
  840poe    c23 5758   4.976   1.182   4.597 -0.0454 -0.0869  0.4357
  840poe     o2 5759   5.096   1.168   4.525 -0.2553 -0.1465  0.0900
  840poe    c31 5760   5.210   1.218   4.592 -0.4326  0.1179  0.1941
  841poe    c31 5761   4.765   4.324   4.655  0.1820  0.0524 -0.1031
  841poe     o2 5762   4.649   4.250   4.689  0.4077 -0.3747 -0.2470
  841poe    c23 5763   4.576   4.312   4.793  0.2748 -0.9419 -0.0023
  841poe    c23 5764   4.433   4.257   4.798 -0.0239 -0.1235  0.6014
  841poe     o2 5765   4.439   4.118   4.771 -0.2689 -0.1219  0.5312
  841poe    c23 5766   4.309   4.064   4.781 -0.2643 -0.2732 -0.2177
  841poe    c23 5767   4.316   3.918   4.734  0.0265 -0.2821 -0.1506
  841poe     o2 5768   4.399   3.922   4.620  0.1294 -0.5122 -0.0863
  841poe    c23 5769   4.363   3.820   4.530 -0.7569  0.0023 -0.3341
  841poe    c23 5770   4.415   3.850   4.388  0.2763  0.3000  0.0936
  841poe     o2 5771   4.365   3.975   4.346  0.1966  0.0633 -0.5317
  841poe    c31 5772   4.262   3.970   4.249 -0.3277 -0.0997  0.0255
  842poe    c31 5773   4.618   1.788   2.179  0.1442  0.2954  0.0381
  842poe     o2 5774   4.701   1.864   2.094  0.0175  0.0543 -0.3030
  842poe    c23 5775   4.651   1.995   2.108  0.1815  0.1154 -0.2953
  842poe    c23 5776   4.750   2.093   2.042  0.5296 -0.0974 -0.0896
  842poe     o2 5777   4.860   2.126   2.124  0.2737  0.2806  0.1016
  842poe    c23 5778   4.908   2.254   2.087 -0.5059  0.3459 -0.7252
  842poe    c23 5779   5.060   2.271   2.109 -0.6374 -0.1912  0.7659
  842poe     o2 5780   5.113   2.142   2.087 -0.1082  0.1731 -0.1549
  842poe    c23 5781   5.246   2.150   2.134 -0.2362 -0.6302  0.3632
  842poe    c23 5782   5.316   2.014   2.124  0.2829 -0.3092 -0.4818
  842poe     o2 5783   5.229   1.908   2.154 -0.2311  0.1936 -0.1843
  842poe    c31 5784   5.303   1.788   2.159 -0.0014  0.3315 -0.3246
  843poe    c31 5785   3.461   2.980   5.575 -0.0675  0.0454 -0.7461
  843poe     o2 5786   3.526   3.041   5.685  0.3006 -0.7408 -0.5207
  843poe    c23 5787   3.651   2.978   5.700  0.5588 -0.2924 -0.7698
  843poe    c23 5788   3.728   3.088   5.775 -0.3528 -0.1745  0.0088
  843poe     o2 5789   3.658   3.120   5.893  0.1375 -0.5739  0.4140
  843poe    c23 5790   3.728   3.209   5.977 -0.2135  0.5829 -0.4878
  843poe    c23 5791   3.638   3.235   6.100  0.0467  0.3464 -0.2456
  843poe     o2 5792   3.510   3.258   6.046 -0.1081 -0.1225 -0.0816
  843poe    c23 5793   3.406   3.185   6.106  0.0162  0.0764  0.3816
  843poe    c23 5794   3.298   3.150   6.002  0.1781 -0.1483  0.2871
  843poe     o2 5795   3.345   3.070   5.895 -0.6263  0.2535 -0.3843
  843poe    c31 5796   3.244   2.988   5.840 -0.8968  0.1760  0.2160
  844poe    c31 5797   4.908   1.245   0.075  0.0110 -0.1983 -0.5698
  844poe     o2 5798   4.868   1.373   0.119  0.0804 -0.1943 -0.5178
  844poe    c23 5799   4.970   1.433   0.195 -0.2951  0.1861 -0.3077
  844poe    c23 5800   4.944   1.581   0.231  0.5493  0.3086 -0.1659
  844poe     o2 5801   4.884   1.632   0.114 -0.9455 -0.0718  0.4023
  844poe    c23 5802   4.805   1.741   0.154 -0.0359  0.6702  0.2028
  844poe    c23 5803   4.779   1.803   0.015 -0.3289  0.1031  0.0048
  844poe     o2 5804   4.737   1.711  -0.083  0.5693 -0.1141 -0.1877
  844poe    c23 5805   4.705   1.778  -0.203  0.6494  0.1439 -0.0652
  844poe    c23 5806   4.641   1.696  -0.317  0.5595  0.2719 -0.1070
  844poe     o2 5807   4.722   1.592  -0.366  0.1251 -0.3018  0.3757
  844poe    c31 5808   4.641   1.495  -0.428  0.3193 -0.3290  0.1658
  845poe    c31 5809   0.697   3.894   6.432 -0.8985  0.1233 -0.8493
  845poe     o2 5810   0.694   3.913   6.572  0.2768  0.0342 -0.8020
  845poe    c23 5811   0.817   3.972   6.607  0.1370 -0.2079  0.1077
  845poe    c23 5812   0.804   4.064   6.730  0.0765 -0.1972  0.0933
  845poe     o2 5813   0.734   3.993   6.829 -0.5102 -0.7164 -0.6865
  845poe    c23 5814   0.714   4.058   6.953  0.2752 -0.6102 -0.6133
  845poe    c23 5815   0.613   3.959   7.014 -0.0655  0.1173  0.0234
  845poe     o2 5816   0.525   3.897   6.923 -0.0171  0.4009 -0.2189
  845poe    c23 5817   0.422   3.815   6.975  0.1951  0.3309  0.0948
  845poe    c23 5818   0.463   3.674   7.022  0.1702  0.2916 -0.0011
  845poe     o2 5819   0.454   3.599   6.903  0.1911  0.7898 -0.3245
  845poe    c31 5820   0.513   3.472   6.920 -0.5730  0.3856 -0.6197
  846poe    c31 5821   5.574   0.228   4.830  0.2391 -0.2035  0.1093
  846poe     o2 5822   5.457   0.237   4.753  0.1502  0.3367  0.3048
  846poe    c23 5823   5.486   0.337   4.658  0.1640  0.4145  0.3906
  846poe    c23 5824   5.353   0.393   4.605  0.0202 -0.2349  0.0492
  846poe     o2 5825   5.263   0.298   4.555 -0.2631 -0.2475  0.5697
  846poe    c23 5826   5.130   0.345   4.564 -0.2148  0.0383 -0.1234
  846poe    c23 5827   5.026   0.248   4.507 -0.4736  0.1832  0.0983
  846poe     o2 5828   5.066   0.128   4.570  0.2711  0.3267 -0.0883
  846poe    c23 5829   4.996   0.018   4.515  0.2698  0.4219 -0.2772
  846poe    c23 5830   5.097  -0.098   4.501 -0.2577 -0.0606 -0.1095
  846poe     o2 5831   5.213  -0.048   4.439  0.1856 -0.2813  0.5311
  846poe    c31 5832   5.268  -0.139   4.347 -0.0658 -0.3233  0.4206
  847poe    c31 5833   6.267   2.848   1.205  0.2199  0.8099  0.2980
  847poe     o2 5834   6.197   2.923   1.108 -0.2614 -0.2179 -0.1796
  847poe    c23 5835   6.298   2.952   1.014 -0.0188  0.0514  0.1601
  847poe    c23 5836   6.276   3.078   0.928 -0.2095 -0.4014 -0.4641
  847poe     o2 5837   6.138   3.089   0.900 -0.3678 -0.0966  0.4143
  847poe    c23 5838   6.128   3.211   0.831  0.1646 -0.2966 -0.0235
  847poe    c23 5839   5.984   3.236   0.782  0.6428  0.4271 -1.1184
  847poe     o2 5840   5.913   3.119   0.750  0.1131  0.4523 -0.1038
  847poe    c23 5841   5.791   3.158   0.690  0.0604  0.1981 -0.1619
  847poe    c23 5842   5.678   3.174   0.794  0.1501 -0.4541  0.0429
  847poe     o2 5843   5.679   3.064   0.883  0.1335 -0.4213  0.0839
  847poe    c31 5844   5.550   3.051   0.937  0.2118 -0.2761  0.3071
  848poe    c31 5845   1.504   5.890   2.857 -0.3319 -0.1257  0.2809
  848poe     o2 5846   1.460   5.842   2.732  0.1232 -0.2795  0.1796
  848poe    c23 5847   1.418   5.708   2.744 -1.0973  0.0863  0.0513
  848poe    c23 5848   1.343   5.658   2.619 -0.3176  0.0396 -0.4049
  848poe     o2 5849   1.426   5.708   2.517 -0.2691  0.4086 -0.1847
  848poe    c23 5850   1.387   5.680   2.384 -0.4560  0.3429 -0.1153
  848poe    c23 5851   1.490   5.762   2.305  0.0214  0.1780  0.3263
  848poe     o2 5852   1.503   5.877   2.385  0.4945  0.0654  0.4137
  848poe    c23 5853   1.548   5.995   2.322 -0.0667  0.0884  0.0490
  848poe    c23 5854   1.540   6.112   2.423 -0.1239  0.2783 -0.1750
  848poe     o2 5855   1.567   6.052   2.547 -0.2356  0.1784 -0.1985
  848poe    c31 5856   1.588   6.156   2.640 -0.3675 -0.4506  0.5494
  849poe    c31 5857   0.201   4.257   4.276  0.1959  0.2978 -0.3545
  849poe     o2 5858   0.166   4.165   4.175 -0.7911 -0.0440  0.2914
  849poe    c23 5859   0.063   4.230   4.104 -0.0648  0.7790 -0.0175
  849poe    c23 5860  -0.008   4.117   4.028  0.3985  0.5669 -0.1372
  849poe     o2 5861   0.090   4.023   3.988 -0.4751 -0.4397  0.0389
  849poe    c23 5862   0.051   3.909   3.915 -0.8016 -0.4410  0.2115
  849poe    c23 5863   0.188   3.842   3.894 -0.5549  0.0389  0.2803
  849poe     o2 5864   0.250   3.800   4.014 -0.0202 -0.5177 -0.1877
  849poe    c23 5865   0.306   3.671   3.998  0.9152 -0.1102 -0.2498
  849poe    c23 5866   0.366   3.626   4.133 -0.0355 -0.0784  0.1917
  849poe     o2 5867   0.265   3.622   4.231 -0.3049 -0.5487 -0.0992
  849poe    c31 5868   0.323   3.591   4.356 -0.5829 -0.3624  0.0779
  850poe    c31 5869   2.423   3.770   6.289  0.2236 -0.4409 -0.1916
  850poe     o2 5870   2.486   3.652   6.334  0.3493 -0.1430  0.4244
  850poe    c23 5871   2.627   3.661   6.338  0.3102  0.2479  0.9170
  850poe    c23 5872   2.672   3.515   6.327  0.0084  0.1932  0.3357
  850poe     o2 5873   2.611   3.439   6.429  0.4266 -0.6739 -0.0476
  850poe    c23 5874   2.686   3.323   6.461  0.6744 -0.3853  0.4370
  850poe    c23 5875   2.589   3.215   6.512 -0.1894  0.1270 -0.0932
  850poe     o2 5876   2.499   3.194   6.406  0.0466 -0.4131 -0.1871
  850poe    c23 5877   2.426   3.074   6.423 -0.0820 -0.2870  0.1492
  850poe    c23 5878   2.386   3.021   6.284 -0.1538 -0.2576  0.1583
  850poe     o2 5879   2.303   3.098   6.201 -0.2381 -0.5247 -0.0064
  850poe    c31 5880   2.356   3.078   6.072 -0.3363 -0.8949  0.0090
  851poe    c31 5881   0.562   4.003   2.446 -0.1344  0.2261  0.1832
  851poe     o2 5882   0.602   3.870   2.472 -0.0944  0.2566  0.2771
  851poe    c23 5883   0.734   3.855   2.424 -0.1151 -0.4641  0.4406
  851poe    c23 5884   0.796   3.732   2.493  0.0088 -0.4567  0.3423
  851poe     o2 5885   0.699   3.630   2.492 -0.3027 -0.1562 -0.8444
  851poe    c23 5886   0.744   3.508   2.545  0.4369  0.0218 -1.0467
  851poe    c23 5887   0.620   3.419   2.565  0.2728  0.4230 -0.2374
  851poe     o2 5888   0.516   3.508   2.599  0.0973  0.2304 -0.2680
  851poe    c23 5889   0.463   3.503   2.730 -0.2122 -0.0784 -0.4026
  851poe    c23 5890   0.360   3.618   2.726 -0.3796 -0.2139 -0.0488
  851poe     o2 5891   0.427   3.731   2.673 -0.1971 -0.2596  0.0834
  851poe    c31 5892   0.339   3.841   2.671 -0.1192 -0.1882  0.4671
  852poe    c31 5893   3.357   4.263   2.831  0.0878  0.0605 -0.0336
  852poe     o2 5894   3.353   4.161   2.734  0.0319  0.0520 -0.0222
  852poe    c23 5895   3.424   4.049   2.784  0.2525 -0.0015 -0.4476
  852poe    c23 5896   3.472   3.965   2.665  0.2608  0.3997 -0.7311
  852poe     o2 5897   3.358   3.960   2.583 -0.1118 -0.2551 -0.1850
  852poe    c23 5898   3.385   3.890   2.464  0.6830  0.0360 -0.1835
  852poe    c23 5899   3.278   3.945   2.367 -0.3297 -0.3345  0.7011
  852poe     o2 5900   3.261   4.083   2.390 -0.5687 -0.2670  0.1377
  852poe    c23 5901   3.124   4.109   2.372 -0.5188 -0.3187 -0.3086
  852poe    c23 5902   3.073   4.244   2.425  0.2120 -0.2863  0.3184
  852poe     o2 5903   3.144   4.267   2.545  0.2195  0.0994  0.2404
  852poe    c31 5904   3.164   4.406   2.560  0.6032  0.0637  0.0731
  853poe    c31 5905   3.844   1.076   6.775 -0.0237  0.4004  0.4452
  853poe     o2 5906   3.888   1.098   6.908  0.5809 -0.4453  0.3941
  853poe    c23 5907   4.001   1.181   6.899  0.2100 -0.0033 -0.2802
  853poe    c23 5908   4.067   1.187   7.038  0.1011 -0.0063 -0.2284
  853poe     o2 5909   3.961   1.219   7.124  0.2366  0.1388 -0.1148
  853poe    c23 5910   3.996   1.242   7.258  0.4434 -0.0895 -0.1294
  853poe    c23 5911   3.978   1.117   7.346  0.1513  0.1368  0.1378
  853poe     o2 5912   3.856   1.061   7.302  0.3024 -0.1499  0.0782
  853poe    c23 5913   3.848   0.924   7.331 -0.4171 -0.1274 -0.0042
  853poe    c23 5914   3.738   0.879   7.233 -0.7908  0.3631  0.1844
  853poe     o2 5915   3.760   0.942   7.109 -0.0422 -0.0854  0.0834
  853poe    c31 5916   3.693   0.875   7.004  0.0616  0.2769 -0.2174
  854poe    c31 5917   0.240   4.612   2.277  0.1182  0.4958 -0.4059
  854poe     o2 5918   0.360   4.584   2.344 -0.1350 -0.0652 -0.1840
  854poe    c23 5919   0.431   4.475   2.290  0.7284  0.3473  0.0916
  854poe    c23 5920   0.477   4.388   2.408  0.8986  0.0841 -0.1678
  854poe     o2 5921   0.537   4.474   2.502 -0.0068  0.5261  0.0139
  854poe    c23 5922   0.593   4.386   2.596  0.1151  0.4862 -0.0950
  854poe    c23 5923   0.649   4.457   2.721  0.4316 -0.2026  0.1586
  854poe     o2 5924   0.549   4.536   2.780  0.0974 -0.4857 -0.0256
  854poe    c23 5925   0.598   4.606   2.892 -0.2239 -0.0267 -0.1661
  854poe    c23 5926   0.480   4.674   2.964 -0.3840 -0.4470 -0.0262
  854poe     o2 5927   0.403   4.764   2.887  0.4719  0.4005  0.1011
  854poe    c31 5928   0.314   4.844   2.963 -0.4707 -0.0335 -0.5364
  855poe    c31 5929   5.930   0.998   3.684  0.0089 -0.3344 -0.1461
  855poe     o2 5930   5.919   1.117   3.609 -0.3625 -0.1094  0.2635
  855poe    c23 5931   5.921   1.231   3.692 -0.0926 -0.1747  0.3491
  855poe    c23 5932   5.908   1.366   3.620  0.1145 -0.0435  0.5550
  855poe     o2 5933   5.780   1.389   3.563  0.3182 -0.7095 -0.1849
  855poe    c23 5934   5.764   1.507   3.488 -0.2722 -0.7354 -0.1039
  855poe    c23 5935   5.635   1.479   3.409 -0.5407 -0.4763  0.2428
  855poe     o2 5936   5.613   1.349   3.359 -0.0947 -0.4110 -0.1254
  855poe    c23 5937   5.536   1.371   3.243  0.6987  0.1001 -0.5691
  855poe    c23 5938   5.483   1.234   3.198  0.3456 -0.0275  0.2214
  855poe     o2 5939   5.588   1.140   3.210  0.2175 -0.1910  0.0796
  855poe    c31 5940   5.559   1.023   3.139  0.3672  0.0979 -0.4616
  856poe    c31 5941   0.886   6.655   5.375 -0.3902 -0.1228  0.3104
  856poe     o2 5942   0.875   6.677   5.237 -0.0661 -0.0604  0.2937
  856poe    c23 5943   0.953   6.591   5.157  0.9401  0.2627  0.9185
  856poe    c23 5944   0.980   6.640   5.013 -0.2968  0.4275  0.7385
  856poe     o2 5945   0.860   6.662   4.942 -0.1940 -0.6771  0.1961
  856poe    c23 5946   0.889   6.682   4.805 -0.2681  0.6256  0.3543
  856poe    c23 5947   0.764   6.639   4.726 -0.0996 -0.5614  0.7096
  856poe     o2 5948   0.656   6.714   4.777 -0.0957  0.0133 -0.0951
  856poe    c23 5949   0.536   6.698   4.706 -0.4134  0.2053  0.3929
  856poe    c23 5950   0.419   6.784   4.757 -0.8578 -0.0085 -0.2419
  856poe     o2 5951   0.370   6.749   4.884  0.2003 -0.1610  0.1401
  856poe    c31 5952   0.344   6.869   4.954  0.2751 -0.0959  0.0551
  857poe    c31 5953   4.164   6.339   1.138  0.1219  0.6271 -0.0742
  857poe     o2 5954   4.215   6.422   1.239  0.0965  0.0573  0.4118
  857poe    c23 5955   4.244   6.342   1.351 -0.2379  0.0170  0.4676
  857poe    c23 5956   4.304   6.440   1.453  0.2528  0.2018  0.0009
  857poe     o2 5957   4.410   6.507   1.389  0.1111  0.1974 -0.2390
  857poe    c23 5958   4.491   6.591   1.468 -0.1304  0.3164 -0.1179
  857poe    c23 5959   4.614   6.628   1.383 -0.1705  0.4366 -0.1237
  857poe     o2 5960   4.561   6.692   1.268 -0.4133 -0.0917 -0.3103
  857poe    c23 5961   4.662   6.749   1.188 -0.2186  0.0021 -0.0044
  857poe    c23 5962   4.596   6.832   1.075 -0.0718 -0.1321 -0.1897
  857poe     o2 5963   4.522   6.759   0.980  0.1267 -0.3264 -0.1963
  857poe    c31 5964   4.505   6.830   0.859 -0.4408 -0.0291  0.0540
  858poe    c31 5965   1.615   6.301   5.059 -0.3740  0.1552 -0.2724
  858poe     o2 5966   1.567   6.189   4.987 -0.2318  0.0354 -0.1820
  858poe    c23 5967   1.463   6.127   5.059 -0.2732  0.3692  0.0507
  858poe    c23 5968   1.452   5.973   5.062 -0.0160  0.3420 -0.3630
  858poe     o2 5969   1.380   5.913   4.957 -0.4628  0.0854  0.0883
  858poe    c23 5970   1.386   5.774   4.979  0.4940  0.0166 -0.5640
  858poe    c23 5971   1.308   5.707   4.864 -0.1328 -0.0381 -0.1086
  858poe     o2 5972   1.300   5.791   4.751  0.3992  0.2161  0.0396
  858poe    c23 5973   1.250   5.733   4.633 -0.2393  0.9091 -0.0339
  858poe    c23 5974   1.279   5.832   4.518  0.2690  0.1810 -0.5398
  858poe     o2 5975   1.262   5.965   4.560 -0.3262 -0.1495  0.3041
  858poe    c31 5976   1.182   6.032   4.464 -0.6011 -0.7035  0.1437
  859poe    c31 5977   6.589   3.090   1.317 -0.9156  0.5383  0.2924
  859poe     o2 5978   6.610   2.979   1.401 -0.0227  0.0597 -0.5469
  859poe    c23 5979   6.695   2.885   1.338  0.5728  0.0974  0.1849
  859poe    c23 5980   6.682   2.748   1.406  0.3745 -0.0950 -0.2364
  859poe     o2 5981   6.651   2.765   1.543  0.4806  0.0826 -0.2345
  859poe    c23 5982   6.632   2.640   1.606 -0.0439  0.4217  0.2874
  859poe    c23 5983   6.565   2.660   1.743 -0.2299 -0.7420  0.3710
  859poe     o2 5984   6.469   2.755   1.704  0.6472  0.1659  0.3745
  859poe    c23 5985   6.370   2.782   1.800  0.2472 -0.1363  0.0545
  859poe    c23 5986   6.234   2.722   1.759  0.1742 -0.0907  0.2291
  859poe     o2 5987   6.194   2.776   1.635 -0.4093 -0.1392  0.3936
  859poe    c31 5988   6.066   2.731   1.598  0.0016 -0.5449 -0.5529
  860poe    c31 5989   5.600   2.719   1.691  0.2110 -0.4288 -0.4071
  860poe     o2 5990   5.502   2.722   1.590 -0.2164 -0.7150 -0.0003
  860poe    c23 5991   5.567   2.737   1.466  0.0018 -0.2304  0.1733
  860poe    c23 5992   5.468   2.766   1.351 -0.5584 -0.0985  0.6808
  860poe     o2 5993   5.374   2.662   1.368 -0.4556 -0.2173  0.5264
  860poe    c23 5994   5.274   2.661   1.268  0.2078 -0.2847 -0.1472
  860poe    c23 5995   5.172   2.548   1.284  0.0261 -0.0432  0.4393
  860poe     o2 5996   5.102   2.560   1.406 -0.1132 -0.4561  0.4030
  860poe    c23 5997   4.989   2.476   1.407 -0.2385 -0.3119 -0.4999
  860poe    c23 5998   4.918   2.534   1.530 -0.1153 -0.3818 -0.3949
  860poe     o2 5999   5.012   2.542   1.635 -0.4361  0.3018 -0.1487
  860poe    c31 6000   4.939   2.575   1.751  0.1567 -0.0068  0.3160
  861poe    c31 6001   5.051   5.785   0.105 -0.3815 -0.4396  0.4113
  861poe     o2 6002   4.967   5.805   0.216 -0.1484 -0.2138  0.5488
  861poe    c23 6003   4.870   5.702   0.211 -0.5634  0.2067 -0.2949
  861poe    c23 6004   4.740   5.733   0.288 -0.2999  0.0668  0.2159
  861poe     o2 6005   4.759   5.765   0.424  0.5152 -0.1040  0.1475
  861poe    c23 6006   4.666   5.857   0.474  0.5367  0.1662 -0.3016
  861poe    c23 6007   4.702   5.889   0.621 -0.7115  1.0607 -0.1728
  861poe     o2 6008   4.834   5.929   0.647 -0.2851 -0.1696 -0.3944
  861poe    c23 6009   4.846   5.959   0.784 -0.4060  0.3170 -0.4893
  861poe    c23 6010   4.990   6.012   0.798 -0.1889 -0.4559  0.3108
  861poe     o2 6011   5.079   5.929   0.727 -0.0534  0.3430 -0.4748
  861poe    c31 6012   5.204   5.987   0.698  0.3710 -0.4312 -0.2422
  862poe    c31 6013   1.038   0.117   0.291 -0.2754 -0.0382  0.0034
  862poe     o2 6014   0.954   0.154   0.184 -0.5402 -0.1501  0.1702
  862poe    c23 6015   0.921   0.043   0.104 -0.1451  0.1177 -0.3767
  862poe    c23 6016   0.788  -0.020   0.150  0.2179 -0.0185  0.5161
  862poe     o2 6017   0.682   0.066   0.112  0.2798 -0.1440  0.0511
  862poe    c23 6018   0.553   0.010   0.123  0.2594 -0.2059 -0.4778
  862poe    c23 6019   0.436   0.108   0.104  0.0777 -0.3320 -0.0285
  862poe     o2 6020   0.456   0.217   0.191 -0.3844 -0.1108 -0.1966
  862poe    c23 6021   0.355   0.314   0.170 -0.2698  0.0074 -0.1986
  862poe    c23 6022   0.367   0.418   0.283 -0.1509 -0.2680  0.0433
  862poe     o2 6023   0.505   0.431   0.313 -0.2213 -0.0626  0.2862
  862poe    c31 6024   0.516   0.542   0.399  0.1408 -0.1308  0.3287
  863poe    c31 6025   3.394   0.575   5.498 -1.0506  0.1840 -0.3610
  863poe     o2 6026   3.389   0.633   5.626  0.1743 -0.5480  0.0376
  863poe    c23 6027   3.363   0.525   5.713  0.2466 -0.1390  0.5696
  863poe    c23 6028   3.354   0.573   5.859  0.2350 -0.2202  0.5958
  863poe     o2 6029   3.466   0.652   5.892  0.7982 -0.7936  0.0823
  863poe    c23 6030   3.451   0.733   6.006 -0.5737 -0.1199 -0.5581
  863poe    c23 6031   3.421   0.873   5.951 -0.0149  0.2118 -0.0289
  863poe     o2 6032   3.478   0.886   5.822 -0.1505 -0.1458 -0.1255
  863poe    c23 6033   3.401   0.964   5.733 -0.1003 -0.0490 -0.0847
  863poe    c23 6034   3.515   0.970   5.630 -0.3001 -0.2822 -0.3213
  863poe     o2 6035   3.541   0.839   5.584  0.3956 -0.5341  0.7639
  863poe    c31 6036   3.622   0.851   5.469 -0.1436 -0.4219  0.3960
  864poe    c31 6037   2.308   4.308   1.828 -0.4351  0.1607 -0.1380
  864poe     o2 6038   2.289   4.169   1.817  0.0573  0.1252 -0.5930
  864poe    c23 6039   2.172   4.127   1.884 -0.2499  0.4990 -0.8937
  864poe    c23 6040   2.151   3.978   1.850 -0.1668  0.1595  0.4968
  864poe     o2 6041   2.246   3.891   1.906  0.2417  0.3568  0.1073
  864poe    c23 6042   2.227   3.759   1.861  0.3653  0.6605 -0.8683
  864poe    c23 6043   2.309   3.647   1.928 -0.2321  0.3151 -0.7044
  864poe     o2 6044   2.437   3.700   1.900  0.2409 -0.6862 -0.4912
  864poe    c23 6045   2.543   3.608   1.915  0.1380 -0.8080 -0.5057
  864poe    c23 6046   2.669   3.678   1.860 -0.1226 -0.0637 -0.1747
  864poe     o2 6047   2.670   3.803   1.925 -0.5012 -0.0049 -0.2739
  864poe    c31 6048   2.784   3.879   1.891 -0.2138 -0.3179 -0.0195
  865poe    c31 6049   6.783   1.371   4.788 -0.2030  0.5929 -0.2431
  865poe     o2 6050   6.840   1.390   4.915  0.0372 -0.1063 -0.2456
  865poe    c23 6051   6.751   1.397   5.024  0.2604  0.1488 -0.0788
  865poe    c23 6052   6.809   1.348   5.158  0.2067 -0.2554 -0.2014
  865poe     o2 6053   6.919   1.422   5.207  0.3978 -0.4339 -0.3607
  865poe    c23 6054   6.967   1.373   5.330 -0.4096 -0.0801  0.1050
  865poe    c23 6055   7.067   1.467   5.400 -0.1678 -0.5646  0.4193
  865poe     o2 6056   7.171   1.475   5.305 -0.1833 -0.2695  0.4265
  865poe    c23 6057   7.265   1.580   5.312 -0.3231 -0.0825 -0.4374
  865poe    c23 6058   7.388   1.541   5.227  0.1877  0.2833  0.1278
  865poe     o2 6059   7.349   1.516   5.094 -0.1301 -0.3464  0.3351
  865poe    c31 6060   7.459   1.537   5.009 -0.0179 -0.2300  0.5093
  866poe    c31 6061   3.689   0.096   0.927 -0.1731 -0.4010  0.2731
  866poe     o2 6062   3.675   0.203   1.018  0.2629 -0.6552  0.6386
  866poe    c23 6063   3.602   0.154   1.127 -0.6546 -0.2322  0.2210
  866poe    c23 6064   3.549   0.264   1.222  0.2550 -0.1286  0.6159
  866poe     o2 6065   3.660   0.343   1.260  0.4508 -0.1261  0.0507
  866poe    c23 6066   3.664   0.382   1.395  0.0839 -0.2606  0.1011
  866poe    c23 6067   3.747   0.510   1.410  0.1452 -0.2911  0.0235
  866poe     o2 6068   3.877   0.496   1.358 -0.0491 -0.3339 -0.4587
  866poe    c23 6069   3.940   0.621   1.382  0.2089 -0.4703 -0.4186
  866poe    c23 6070   4.092   0.604   1.365  0.3050  0.1627 -0.1925
  866poe     o2 6071   4.130   0.474   1.326  0.2719  0.0688  0.0927
  866poe    c31 6072   4.259   0.460   1.270  0.0435 -0.1061 -0.3883
  867poe    c31 6073   3.243   0.336   4.906 -0.1321 -0.2501  0.0302
  867poe     o2 6074   3.175   0.236   4.834  0.1578 -0.4388  0.0164
  867poe    c23 6075   3.208   0.236   4.697 -0.2984  0.3975 -0.0981
  867poe    c23 6076   3.105   0.156   4.616 -0.6084  0.1565  0.5279
  867poe     o2 6077   3.121   0.024   4.662  0.0616  0.2835  0.6652
  867poe    c23 6078   3.007  -0.042   4.612  0.5797  0.1258 -0.3572
  867poe    c23 6079   3.009  -0.192   4.647 -0.8024  0.1959  0.1116
  867poe     o2 6080   3.031  -0.207   4.785 -0.0983 -0.0834 -0.0266
  867poe    c23 6081   3.080  -0.339   4.798  0.1645 -0.0255 -0.4126
  867poe    c23 6082   3.070  -0.377   4.947 -0.3899  0.3695 -0.3439
  867poe     o2 6083   3.072  -0.259   5.023  0.3013  0.1081  0.0564
  867poe    c31 6084   3.082  -0.287   5.161  0.3281 -0.3931 -0.0447
  868poe    c31 6085   2.872   4.959   0.921 -0.1568  0.0013 -0.3410
  868poe     o2 6086   2.751   5.028   0.940  0.0260  0.1998  0.1135
  868poe    c23 6087   2.669   5.020   0.825  0.1581 -0.5046  0.0652
  868poe    c23 6088   2.534   5.089   0.851  0.4782  0.0060  0.3807
  868poe     o2 6089   2.550   5.217   0.908 -0.0692  0.1666  0.1827
  868poe    c23 6090   2.429   5.290   0.902 -0.0539  0.1628 -0.2107
  868poe    c23 6091   2.442   5.390   1.018 -0.7041  0.3920 -0.3377
  868poe     o2 6092   2.568   5.450   1.003 -0.3605 -0.0574  0.6482
  868poe    c23 6093   2.613   5.514   1.120  0.5591 -0.1448  0.3501
  868poe    c23 6094   2.756   5.568   1.098  0.3346  0.0032 -0.8061
  868poe     o2 6095   2.832   5.466   1.038  0.3075 -0.3765 -0.2073
  868poe    c31 6096   2.964   5.515   1.031  0.3478 -0.3605  0.6169
  869poe    c31 6097   2.466   2.671   6.233  1.0676  0.1376  0.1142
  869poe     o2 6098   2.408   2.683   6.361 -0.2667  0.3435 -0.4944
  869poe    c23 6099   2.463   2.585   6.447 -0.4484  0.2813 -0.4489
  869poe    c23 6100   2.410   2.581   6.592 -0.5688  0.5120 -0.4853
  869poe     o2 6101   2.271   2.561   6.587 -0.5024 -0.2558  0.3733
  869poe    c23 6102   2.203   2.574   6.710 -0.0661  0.4822  0.5431
  869poe    c23 6103   2.056   2.616   6.687  0.0378  0.6248  0.1340
  869poe     o2 6104   2.007   2.524   6.592 -0.1809  0.2632  0.5986
  869poe    c23 6105   1.871   2.543   6.558  0.0560  0.6166 -0.1613
  869poe    c23 6106   1.834   2.463   6.431  0.1333  0.1673  0.0962
  869poe     o2 6107   1.920   2.495   6.324 -0.2663 -0.4811 -0.4202
  869poe    c31 6108   1.880   2.433   6.203  0.1292 -0.5594 -0.5104
  870poe    c31 6109   0.425   0.724   0.892 -0.3223  0.3362  0.3686
  870poe     o2 6110   0.381   0.856   0.871  0.4154  0.5271 -0.0329
  870poe    c23 6111   0.495   0.918   0.818  0.5743  0.1528 -0.1341
  870poe    c23 6112   0.474   1.071   0.822 -0.2789  0.0365 -0.0967
  870poe     o2 6113   0.343   1.095   0.775 -0.4883  0.2096  0.5567
  870poe    c23 6114   0.315   1.223   0.723  0.5863 -0.0057 -0.6060
  870poe    c23 6115   0.194   1.205   0.629  0.1432 -0.3176  0.0191
  870poe     o2 6116   0.090   1.155   0.710  0.0789  0.0197  0.1429
  870poe    c23 6117  -0.026   1.121   0.637  0.2781 -0.3298 -0.0105
  870poe    c23 6118  -0.140   1.060   0.720 -0.1220  0.0945 -0.2412
  870poe     o2 6119  -0.109   0.931   0.769 -0.2354 -0.0264 -0.4875
  870poe    c31 6120  -0.234   0.888   0.817 -0.2509 -0.0562 -0.5546
  871poe    c31 6121   0.249   1.903   4.152 -0.1252  0.0274 -0.1393
  871poe     o2 6122   0.156   1.860   4.249  0.0654  0.4926  0.2522
  871poe    c23 6123   0.217   1.879   4.375 -0.1744 -0.0065  0.4503
  871poe    c23 6124   0.136   1.803   4.481 -0.3858 -0.5079 -0.0641
  871poe     o2 6125   0.004   1.843   4.452 -0.1939  0.1819 -0.0083
  871poe    c23 6126  -0.078   1.765   4.536  0.6557 -0.4602  0.2295
  871poe    c23 6127  -0.211   1.731   4.467  0.5619 -0.0601  0.2146
  871poe     o2 6128  -0.174   1.724   4.331 -0.0544  0.0732  0.0363
  871poe    c23 6129  -0.270   1.690   4.233 -0.2783 -0.4423  0.4310
  871poe    c23 6130  -0.202   1.689   4.095 -0.2522 -0.3004  0.4432
  871poe     o2 6131  -0.080   1.759   4.107 -0.2582 -0.2993  0.4983
  871poe    c31 6132  -0.029   1.763   3.975  0.2513 -0.0632  0.6970
  872poe    c31 6133   5.112   1.614   1.826  0.5413  0.5217 -0.0906
  872poe     o2 6134   5.121   1.599   1.686  0.0616 -0.0674 -0.0619
  872poe    c23 6135   5.204   1.495   1.639  0.6668  0.8185 -0.9989
  872poe    c23 6136   5.148   1.464   1.498  0.0012 -0.4766 -0.4672
  872poe     o2 6137   5.122   1.594   1.449  0.3111 -0.3729 -0.3593
  872poe    c23 6138   5.048   1.564   1.333 -0.4387  0.3682 -0.0785
  872poe    c23 6139   4.981   1.690   1.275 -0.0480  0.5190 -0.2051
  872poe     o2 6140   4.933   1.766   1.384 -0.3450 -0.3474  0.2801
  872poe    c23 6141   4.831   1.854   1.342 -0.2942 -0.4091  0.0285
  872poe    c23 6142   4.809   1.964   1.447  0.0503 -0.0735 -0.2466
  872poe     o2 6143   4.761   1.914   1.570 -0.2529  0.0982 -0.2951
  872poe    c31 6144   4.689   2.011   1.643  0.7414  0.2139  0.5552
  873poe    c31 6145   1.214   4.353   4.183 -0.0656 -0.0097 -0.3256
  873poe     o2 6146   1.076   4.332   4.203 -0.0281  0.1531  0.1065
  873poe    c23 6147   1.015   4.250   4.106 -0.2035  0.2511  0.1342
  873poe    c23 6148   0.887   4.184   4.160  0.1249 -0.5579 -0.0622
  873poe     o2 6149   0.812   4.292   4.211  0.3563 -0.1269 -0.6213
  873poe    c23 6150   0.681   4.251   4.243  0.4654  0.1298  0.1827
  873poe    c23 6151   0.592   4.377   4.242  0.3572  0.0528 -0.1227
  873poe     o2 6152   0.638   4.451   4.354  0.1725 -0.3165  0.1997
  873poe    c23 6153   0.547   4.546   4.404  0.1013 -0.2864  0.0137
  873poe    c23 6154   0.615   4.634   4.510 -0.0517 -0.0607 -0.0737
  873poe     o2 6155   0.637   4.564   4.630 -0.5228  0.1910  0.1598
  873poe    c31 6156   0.679   4.651   4.732  0.0935 -0.2151  0.2544
  874poe    c31 6157   6.007   5.885   2.325  0.1200  0.1137  0.2413
  874poe     o2 6158   6.086   5.982   2.259 -0.0703  0.2092  0.1526
  874poe    c23 6159   6.198   5.995   2.343  0.1516 -0.6947  0.0065
  874poe    c23 6160   6.296   6.103   2.294 -0.4698 -0.1608 -0.0705
  874poe     o2 6161   6.342   6.047   2.173  0.2718 -0.2108  0.2267
  874poe    c23 6162   6.477   6.084   2.159  0.0166  0.6173 -0.1004
  874poe    c23 6163   6.542   5.983   2.063 -0.7215 -0.2900  0.3449
  874poe     o2 6164   6.477   6.006   1.940 -0.1618  0.2625  0.1455
  874poe    c23 6165   6.487   5.893   1.856  0.4812  0.2648  0.2132
  874poe    c23 6166   6.439   5.947   1.719  0.3501  0.3889  0.3078
  874poe     o2 6167   6.306   5.984   1.748  0.2636  0.3867 -0.0926
  874poe    c31 6168   6.259   6.048   1.631 -0.1849  0.1093 -0.0646
  875poe    c31 6169   2.108   2.907   5.120  0.2452  0.6496  0.6593
  875poe     o2 6170   2.159   2.829   5.226 -0.0609 -0.5299 -0.0494
  875poe    c23 6171   2.162   2.886   5.355 -0.1750 -0.0534 -0.2589
  875poe    c23 6172   2.265   2.998   5.381 -0.3717  0.0687 -0.0040
  875poe     o2 6173   2.395   2.959   5.342 -0.1271  0.2875  0.5721
  875poe    c23 6174   2.495   3.058   5.353  0.7334 -0.5374  0.3365
  875poe    c23 6175   2.620   3.022   5.271  0.3067 -0.0458 -0.5416
  875poe     o2 6176   2.648   2.890   5.310 -0.3283  0.1146  0.5019
  875poe    c23 6177   2.761   2.843   5.241 -0.2247  0.8426  0.1709
  875poe    c23 6178   2.784   2.695   5.276 -0.1890  0.8475  0.1686
  875poe     o2 6179   2.660   2.628   5.264  0.1871  0.0645  0.5507
  875poe    c31 6180   2.675   2.488   5.261 -0.4655 -0.0007  0.2161
  876poe    c31 6181   6.707   5.201   2.277  0.1564 -0.2522 -0.0407
  876poe     o2 6182   6.638   5.129   2.377 -0.5054  0.6748  0.1826
  876poe    c23 6183   6.690   5.163   2.503  0.2330  0.4189 -0.0462
  876poe    c23 6184   6.613   5.108   2.624  0.3242 -0.1227 -0.2356
  876poe     o2 6185   6.493   5.180   2.637  0.3780 -0.1092  0.1874
  876poe    c23 6186   6.447   5.173   2.771 -0.0758  0.1477  0.0489
  876poe    c23 6187   6.331   5.272   2.792 -0.0144  0.2178  0.0580
  876poe     o2 6188   6.239   5.245   2.689  0.2168  0.0184 -0.0988
  876poe    c23 6189   6.140   5.344   2.673  0.0356 -0.1128  0.2063
  876poe    c23 6190   6.072   5.295   2.544 -0.2959  0.0851  0.3032
  876poe     o2 6191   6.171   5.297   2.444 -0.2140 -0.4988  0.3700
  876poe    c31 6192   6.128   5.368   2.330 -0.0843 -0.3231  0.4295
  877poe    c31 6193   3.579   4.049   3.710 -0.2712 -0.5014  0.5343
  877poe     o2 6194   3.513   4.172   3.689  0.8860  0.1507  0.6437
  877poe    c23 6195   3.442   4.208   3.805 -0.8208 -0.3722 -0.2157
  877poe    c23 6196   3.441   4.362   3.799 -0.5462 -0.3823 -0.5620
  877poe     o2 6197   3.406   4.398   3.667  0.0769 -0.1522 -0.6669
  877poe    c23 6198   3.366   4.532   3.684  0.0117 -0.2459 -0.0204
  877poe    c23 6199   3.319   4.567   3.541 -0.7123 -0.3001  0.1998
  877poe     o2 6200   3.415   4.515   3.451 -0.4311  0.5179  0.0192
  877poe    c23 6201   3.387   4.551   3.318 -0.3809  0.3395 -0.0393
  877poe    c23 6202   3.504   4.513   3.225 -0.3125 -0.5208  0.3808
  877poe     o2 6203   3.559   4.385   3.242 -0.0202 -0.4476  0.0097
  877poe    c31 6204   3.655   4.368   3.140 -0.0981 -0.1140 -0.1213
  878poe    c31 6205   5.168   3.985   2.810  0.4826  0.6608  0.7833
  878poe     o2 6206   5.093   4.047   2.912  0.0947  0.0489  0.8753
  878poe    c23 6207   4.987   4.115   2.848  0.5714  0.0073  0.0265
  878poe    c23 6208   4.896   4.189   2.947 -0.1772 -1.0529  0.1504
  878poe     o2 6209   4.975   4.226   3.058 -0.2655 -0.4385  0.0116
  878poe    c23 6210   5.003   4.361   3.086  0.9110 -0.4140 -1.2030
  878poe    c23 6211   5.125   4.385   3.177  0.0842 -0.2684 -0.1061
  878poe     o2 6212   5.214   4.294   3.116  0.1322 -0.3428  0.0725
  878poe    c23 6213   5.338   4.287   3.183  0.1981 -0.1798 -0.0299
  878poe    c23 6214   5.411   4.176   3.104  0.5741 -0.2363  0.3927
  878poe     o2 6215   5.341   4.057   3.131 -0.4197  0.3120  0.2960
  878poe    c31 6216   5.421   3.946   3.096 -0.2538  0.4153  0.3446
  879poe    c31 6217   1.560   5.099   4.136 -0.3780 -0.0957  0.3172
  879poe     o2 6218   1.602   5.228   4.174 -0.3665 -0.0730  0.2279
  879poe    c23 6219   1.496   5.294   4.238 -0.7374 -0.3614 -0.0876
  879poe    c23 6220   1.511   5.447   4.233  0.1480 -0.4368  0.1207
  879poe     o2 6221   1.644   5.459   4.278  0.0537  0.1799  0.2387
  879poe    c23 6222   1.682   5.594   4.289  0.2513  0.1097  0.4209
  879poe    c23 6223   1.820   5.598   4.357  0.3929  0.1616  0.1333
  879poe     o2 6224   1.906   5.495   4.313 -0.5139 -0.7748  0.5110
  879poe    c23 6225   1.978   5.525   4.196 -0.8000 -0.3610  0.4409
  879poe    c23 6226   2.015   5.392   4.128 -0.2788  0.3712 -0.7318
  879poe     o2 6227   1.897   5.319   4.107 -0.2743  0.1297  0.0614
  879poe    c31 6228   1.921   5.210   4.020  0.4164  0.2833  0.0535
  880poe    c31 6229   3.721   5.120   1.663 -0.1656  0.0728  0.5629
  880poe     o2 6230   3.859   5.143   1.672 -0.0731 -0.2053 -0.0696
  880poe    c23 6231   3.920   5.056   1.765 -0.0168 -0.0743  0.0183
  880poe    c23 6232   4.069   5.094   1.764 -0.0863  0.1903 -0.3473
  880poe     o2 6233   4.091   5.232   1.783  0.3775  0.0637  0.0374
  880poe    c23 6234   4.208   5.284   1.723  0.2012  0.3159 -0.0880
  880poe    c23 6235   4.183   5.308   1.573 -0.2152 -0.6074 -0.1759
  880poe     o2 6236   4.067   5.387   1.580  0.3892  0.2907 -0.1249
  880poe    c23 6237   4.028   5.440   1.455  0.0996  0.9103  0.2272
  880poe    c23 6238   3.894   5.515   1.474 -0.2282  0.2267  0.6459
  880poe     o2 6239   3.804   5.430   1.542 -0.1644 -0.4725 -0.1272
  880poe    c31 6240   3.677   5.493   1.545 -0.1039 -0.3464 -0.1814
  881poe    c31 6241   1.493   1.368   5.467  0.3091 -0.0323 -0.3185
  881poe     o2 6242   1.357   1.390   5.498  0.2203 -0.4095 -0.4278
  881poe    c23 6243   1.319   1.303   5.601 -0.0889 -0.1970 -0.3592
  881poe    c23 6244   1.169   1.327   5.625 -0.0725 -0.1958 -0.2584
  881poe     o2 6245   1.166   1.467   5.641 -0.2247 -0.2790  0.5155
  881poe    c23 6246   1.038   1.526   5.642 -0.1589 -0.1122 -0.0607
  881poe    c23 6247   1.062   1.676   5.620 -0.2559 -0.0895 -0.0121
  881poe     o2 6248   1.176   1.682   5.537 -0.2837  0.0894 -0.0379
  881poe    c23 6249   1.219   1.816   5.534  0.0722 -0.0095  0.4637
  881poe    c23 6250   1.347   1.812   5.448 -0.1078 -0.4350  0.2117
  881poe     o2 6251   1.419   1.699   5.490  0.0404 -0.3890  0.0845
  881poe    c31 6252   1.552   1.696   5.445 -0.0037 -0.1347 -0.0654
  882poe    c31 6253   3.484   5.498   3.286 -0.1936  0.3013  0.4779
  882poe     o2 6254   3.353   5.468   3.244  0.2225 -0.3288 -0.3971
  882poe    c23 6255   3.263   5.389   3.319  0.2071  0.0586 -0.0035
  882poe    c23 6256   3.147   5.351   3.225 -0.1580  0.0555  0.4476
  882poe     o2 6257   3.095   5.478   3.194 -0.4598 -0.1465  0.1168
  882poe    c23 6258   2.972   5.475   3.126 -0.2256 -0.2021 -0.3117
  882poe    c23 6259   2.924   5.622   3.122  0.3201 -0.0252 -0.3996
  882poe     o2 6260   3.030   5.694   3.063  0.6784  0.0475  0.3334
  882poe    c23 6261   2.972   5.813   3.014 -0.3318 -0.2667  0.7409
  882poe    c23 6262   3.061   5.895   2.920 -0.8775  0.1305  0.5643
  882poe     o2 6263   3.179   5.923   2.993 -0.4408  0.1740 -0.1466
  882poe    c31 6264   3.294   5.931   2.912 -0.8680  0.5938 -0.7208
  883poe    c31 6265   4.691   1.843   0.854 -0.6734  0.2897  0.6009
  883poe     o2 6266   4.577   1.819   0.774 -0.3554  0.4950  0.0772
  883poe    c23 6267   4.541   1.699   0.838  0.2762 -0.0760 -0.6171
  883poe    c23 6268   4.404   1.650   0.789  0.1940 -0.4832 -0.0042
  883poe     o2 6269   4.401   1.719   0.665 -0.0338 -0.5300 -0.0256
  883poe    c23 6270   4.289   1.695   0.583 -0.1111 -0.0537 -0.0628
  883poe    c23 6271   4.248   1.831   0.524 -0.3186  0.1862  0.6256
  883poe     o2 6272   4.370   1.897   0.497 -0.7233  0.5431 -0.3985
  883poe    c23 6273   4.360   2.028   0.448 -0.0624  0.5182 -0.6032
  883poe    c23 6274   4.498   2.093   0.471  0.0533  0.0642  0.0052
  883poe     o2 6275   4.576   2.009   0.552  0.2022 -0.0946 -0.3034
  883poe    c31 6276   4.692   2.084   0.582  0.0442 -0.1607  0.5164
  884poe    c31 6277   1.912   0.732   6.073  0.7352 -0.0243 -0.1851
  884poe     o2 6278   2.014   0.822   6.037  0.7146  0.2117  0.3422
  884poe    c23 6279   1.978   0.958   6.038 -0.2407 -0.0260 -0.2104
  884poe    c23 6280   2.110   1.038   6.026  0.0197 -0.3400  0.5021
  884poe     o2 6281   2.192   0.988   5.922 -0.3519 -0.0060  0.0438
  884poe    c23 6282   2.312   1.061   5.917  0.0460 -0.6613  0.0313
  884poe    c23 6283   2.418   1.002   5.822  0.5794  0.1024  0.1396
  884poe     o2 6284   2.457   0.871   5.857  0.0614 -0.2174 -0.4574
  884poe    c23 6285   2.578   0.828   5.798  0.4235 -0.0093  0.1323
  884poe    c23 6286   2.594   0.689   5.862 -0.7212 -0.2641 -0.1157
  884poe     o2 6287   2.581   0.688   6.003 -0.3859 -0.0624 -0.0826
  884poe    c31 6288   2.660   0.587   6.062 -0.4923  0.2339  0.5700
  885poe    c31 6289   0.417   4.573   3.840  0.7676 -0.0985 -1.1440
  885poe     o2 6290   0.353   4.698   3.847  0.2201 -0.4352 -0.0548
  885poe    c23 6291   0.349   4.738   3.983  0.1166  0.2186 -0.2484
  885poe    c23 6292   0.251   4.857   3.991 -0.0769  0.0070  0.5683
  885poe     o2 6293   0.263   4.920   3.865  0.4803 -0.3083  0.4603
  885poe    c23 6294   0.154   5.007   3.848  0.4686 -0.3094  0.5270
  885poe    c23 6295   0.201   5.090   3.727 -0.2872 -0.5635  0.0560
  885poe     o2 6296   0.255   5.007   3.627  0.2199  0.1243 -0.2491
  885poe    c23 6297   0.151   4.975   3.537  0.5796  0.1964 -0.6929
  885poe    c23 6298   0.178   4.839   3.468  0.0749 -0.3182  0.1160
  885poe     o2 6299   0.244   4.762   3.566 -0.1434 -0.2594  0.3121
  885poe    c31 6300   0.261   4.637   3.502  0.3033  0.1156 -0.3176
  886poe    c31 6301   4.458   1.636   4.150  0.3682 -0.2306  0.1844
  886poe     o2 6302   4.530   1.716   4.240  0.4211 -0.0303 -0.0362
  886poe    c23 6303   4.463   1.840   4.246 -0.1457 -0.3787  0.9682
  886poe    c23 6304   4.507   1.927   4.365 -0.3747  0.4129  0.4845
  886poe     o2 6305   4.647   1.906   4.367 -0.4163  0.0763 -0.1108
  886poe    c23 6306   4.706   1.972   4.476 -0.0139 -0.2950 -0.0994
  886poe    c23 6307   4.854   1.932   4.478 -0.0387 -0.3736  0.1911
  886poe     o2 6308   4.866   1.793   4.460 -0.6773 -0.4534  0.3815
  886poe    c23 6309   5.002   1.757   4.461 -0.3410  0.7763 -0.0902
  886poe    c23 6310   5.036   1.614   4.416  0.3809  0.9855 -0.2195
  886poe     o2 6311   5.012   1.584   4.281 -0.7047 -0.0955  0.1972
  886poe    c31 6312   5.038   1.448   4.254 -0.5208 -0.0025 -0.1043
  887poe    c31 6313   4.175   5.833   0.272 -0.2640 -0.0154  0.2141
  887poe     o2 6314   4.200   5.722   0.189 -0.4389  0.0486  0.0781
  887poe    c23 6315   4.084   5.667   0.130 -0.0796  0.0208 -0.6086
  887poe    c23 6316   4.013   5.569   0.225  0.0726  0.6416  0.1575
  887poe     o2 6317   4.093   5.463   0.272 -0.3139  0.1266 -0.3260
  887poe    c23 6318   4.022   5.363   0.342  0.4970  0.1266  0.5208
  887poe    c23 6319   4.118   5.246   0.371 -0.0137 -0.3657  0.2267
  887poe     o2 6320   4.227   5.292   0.448 -0.0606  0.2619 -0.0775
  887poe    c23 6321   4.317   5.185   0.465 -0.5314 -0.1705 -0.2761
  887poe    c23 6322   4.420   5.252   0.556  0.1481 -1.1270 -0.3234
  887poe     o2 6323   4.435   5.386   0.514 -0.0562 -0.9407  0.1782
  887poe    c31 6324   4.569   5.427   0.529 -0.2465  0.0275 -0.6170
  888poe    c31 6325   6.512   2.688   6.371  0.0835 -0.0889 -0.1997
  888poe     o2 6326   6.629   2.729   6.303 -0.1075  0.8745  0.0362
  888poe    c23 6327   6.597   2.784   6.177 -0.2752 -0.4283 -0.5025
  888poe    c23 6328   6.731   2.842   6.131 -0.7046  0.6350 -0.4321
  888poe     o2 6329   6.803   2.896   6.239 -0.3177 -0.4108 -0.1568
  888poe    c23 6330   6.939   2.932   6.223 -0.4600  0.2718  0.1274
  888poe    c23 6331   7.006   2.937   6.361 -0.1068 -0.4107 -0.0127
  888poe     o2 6332   6.967   2.818   6.427 -0.3961 -0.0674  0.4499
  888poe    c23 6333   7.016   2.802   6.558  0.2657 -0.3761  0.1731
  888poe    c23 6334   6.927   2.688   6.611 -0.0958 -0.0713  0.2351
  888poe     o2 6335   6.800   2.683   6.551  0.0691  0.0528 -0.1305
  888poe    c31 6336   6.740   2.557   6.576 -0.0795  0.0594 -0.4493
  889poe    c31 6337   6.173   3.703   3.434 -0.1136  0.4869 -0.4014
  889poe     o2 6338   6.139   3.674   3.568  0.1918  0.4585 -0.3287
  889poe    c23 6339   6.070   3.783   3.626 -0.3952  0.0165 -0.1977
  889poe    c23 6340   5.945   3.751   3.711  0.2050  0.3716  0.8277
  889poe     o2 6341   5.998   3.641   3.780  0.2219 -0.1169  0.0497
  889poe    c23 6342   5.902   3.560   3.844  0.2124  0.0710  0.2760
  889poe    c23 6343   5.977   3.430   3.879  0.6389  0.2255 -0.0497
  889poe     o2 6344   6.084   3.410   3.789  0.5365 -0.3563 -0.0504
  889poe    c23 6345   6.083   3.286   3.723  0.5052 -0.3920  0.0175
  889poe    c23 6346   6.218   3.290   3.649  0.5943  0.5153  0.2138
  889poe     o2 6347   6.235   3.413   3.582 -0.0887  0.4419 -0.1054
  889poe    c31 6348   6.363   3.415   3.523  0.2341 -0.7690  0.5174
  890poe    c31 6349   0.140   3.575   1.273  0.3354  0.2043 -0.4705
  890poe     o2 6350   0.192   3.449   1.307  0.3837  0.3985  0.1873
  890poe    c23 6351   0.109   3.357   1.240  0.7958  0.1853 -0.0330
  890poe    c23 6352   0.193   3.230   1.264  0.0821 -0.2609  0.1512
  890poe     o2 6353   0.226   3.223   1.401  0.2684  0.1495  0.1298
  890poe    c23 6354   0.322   3.126   1.438  0.4513  0.3688  0.2345
  890poe    c23 6355   0.329   3.154   1.589  0.3292 -0.2646  0.3637
  890poe     o2 6356   0.359   3.292   1.596  0.1860 -0.2040 -0.1541
  890poe    c23 6357   0.330   3.341   1.726  0.3856 -0.1978 -0.1125
  890poe    c23 6358   0.335   3.493   1.708 -0.5356 -0.1991 -0.4170
  890poe     o2 6359   0.243   3.533   1.609 -0.7680 -0.3117 -0.2481
  890poe    c31 6360   0.201   3.667   1.625 -0.3705 -0.1567 -0.4916
  891poe    c31 6361   6.330   5.403   4.117  0.0745 -0.0854 -0.5805
  891poe     o2 6362   6.317   5.312   4.225 -0.1838  0.2019 -0.3664
  891poe    c23 6363   6.193   5.246   4.224 -0.1799  0.1853  0.2516
  891poe    c23 6364   6.196   5.133   4.329 -0.3201  0.1497  0.2174
  891poe     o2 6365   6.241   5.195   4.448  0.2744  0.0282  0.0589
  891poe    c23 6366   6.207   5.122   4.564  0.5505 -0.3485 -0.0946
  891poe    c23 6367   6.224   5.195   4.699  1.0478  0.8737 -0.8003
  891poe     o2 6368   6.361   5.194   4.734  0.7621  0.2893  0.3360
  891poe    c23 6369   6.393   5.203   4.871  0.3701 -0.4306  0.4804
  891poe    c23 6370   6.398   5.347   4.925  0.2801 -0.0947 -0.3938
  891poe     o2 6371   6.491   5.434   4.865  0.3576  0.1399  0.0620
  891poe    c31 6372   6.446   5.565   4.894 -0.5709 -0.2491  0.3987
  892poe    c31 6373   4.983   5.292   4.795 -0.1280  0.4072  0.5272
  892poe     o2 6374   4.906   5.354   4.694  0.5329  0.5122  0.0784
  892poe    c23 6375   4.869   5.265   4.591  0.0733  0.1957  0.5091
  892poe    c23 6376   4.761   5.343   4.513  0.6440  0.4119 -0.0742
  892poe     o2 6377   4.722   5.465   4.572  0.0530  0.1592  0.0621
  892poe    c23 6378   4.628   5.530   4.489  0.1374 -0.0764 -0.2215
  892poe    c23 6379   4.600   5.663   4.560  0.3479 -0.1375 -0.0231
  892poe     o2 6380   4.722   5.731   4.583  0.5239 -0.4895  0.0913
  892poe    c23 6381   4.721   5.834   4.680 -0.1017 -0.2277 -0.1883
  892poe    c23 6382   4.852   5.913   4.691 -0.1702 -0.1264 -0.1042
  892poe     o2 6383   4.964   5.850   4.749  0.0499  0.2813 -0.0763
  892poe    c31 6384   5.065   5.944   4.776 -0.0124  0.3338 -0.0260
  893poe    c31 6385   6.190   1.894   1.505 -0.3620 -0.2074 -0.0844
  893poe     o2 6386   6.167   1.971   1.620  0.3657 -0.4287  0.2121
  893poe    c23 6387   6.220   2.101   1.599  0.1252 -0.4218 -0.3621
  893poe    c23 6388   6.206   2.202   1.714  0.4589 -0.5975 -0.1678
  893poe     o2 6389   6.238   2.142   1.838 -0.1811 -0.2777  0.1569
  893poe    c23 6390   6.234   2.236   1.943  0.6853 -0.2093  0.1420
  893poe    c23 6391   6.218   2.153   2.072 -0.7632  0.0157  0.1266
  893poe     o2 6392   6.298   2.037   2.065  0.0405  0.5588  0.1840
  893poe    c23 6393   6.341   1.994   2.192  0.9130  0.2873 -0.1982
  893poe    c23 6394   6.394   1.853   2.158 -0.0471 -0.0833 -0.1848
  893poe     o2 6395   6.462   1.858   2.034  0.6240  0.0463  0.1855
  893poe    c31 6396   6.519   1.730   2.021  0.2706 -0.1243  0.2832
  894poe    c31 6397   2.452   0.696   3.287  0.1330 -0.2428  0.3436
  894poe     o2 6398   2.552   0.696   3.386 -0.1915 -0.4126  0.6702
  894poe    c23 6399   2.623   0.574   3.382  0.1953 -0.1750  0.3456
  894poe    c23 6400   2.744   0.609   3.471  0.6488 -0.1580 -0.2714
  894poe     o2 6401   2.698   0.651   3.597  0.0004 -0.7606 -0.3055
  894poe    c23 6402   2.805   0.696   3.676 -0.9555 -0.0624  0.6131
  894poe    c23 6403   2.742   0.796   3.775  0.2481  0.7986  0.5280
  894poe     o2 6404   2.664   0.880   3.693  0.0072 -0.1496 -0.2159
  894poe    c23 6405   2.599   0.981   3.765  0.7930  0.7249 -0.7138
  894poe    c23 6406   2.544   1.078   3.659 -0.9288  0.7475  0.1650
  894poe     o2 6407   2.500   0.989   3.559  0.1320  0.0859  0.2716
  894poe    c31 6408   2.439   1.063   3.456  0.0858 -0.0333  0.2132
  895poe    c31 6409   1.160   6.606   3.056 -0.2552  0.3662 -0.1025
  895poe     o2 6410   1.024   6.642   3.066 -0.3119  0.2032 -0.2727
  895poe    c23 6411   0.986   6.637   3.202 -0.2760 -0.7070 -0.2936
  895poe    c23 6412   0.841   6.683   3.229 -0.0896 -0.3134  0.0453
  895poe     o2 6413   0.774   6.625   3.119 -0.5318 -0.8193  0.5726
  895poe    c23 6414   0.635   6.637   3.136 -0.4803 -0.1340  0.5179
  895poe    c23 6415   0.556   6.576   3.018 -1.0835  0.8514  0.3988
  895poe     o2 6416   0.623   6.623   2.903 -0.5276 -0.3505  0.2132
  895poe    c23 6417   0.551   6.582   2.789 -0.7520 -0.0742  0.2525
  895poe    c23 6418   0.628   6.626   2.663 -0.0366 -0.3989  0.5683
  895poe     o2 6419   0.742   6.552   2.627 -0.2166 -0.4994  0.1917
  895poe    c31 6420   0.814   6.603   2.517 -0.3603 -0.2447  0.2155
  896poe    c31 6421   3.435   4.071   1.834  0.8521 -0.7103 -0.0769
  896poe     o2 6422   3.375   3.944   1.845  0.0310 -0.3428 -0.2563
  896poe    c23 6423   3.283   3.945   1.952  0.2095 -0.1823 -0.1039
  896poe    c23 6424   3.232   3.802   1.977 -0.0375 -0.1811 -0.5920
  896poe     o2 6425   3.341   3.727   2.026 -0.1468 -0.3163 -0.5545
  896poe    c23 6426   3.288   3.605   2.072 -0.6121  0.1573  0.1752
  896poe    c23 6427   3.395   3.519   2.142 -0.1578  0.0172 -0.6879
  896poe     o2 6428   3.479   3.481   2.035  0.6695 -0.0724 -0.0120
  896poe    c23 6429   3.565   3.371   2.057 -0.2194 -0.7596  0.0877
  896poe    c23 6430   3.626   3.329   1.922  0.1561 -0.1990  0.0783
  896poe     o2 6431   3.652   3.441   1.841  0.1557 -0.0796  0.2425
  896poe    c31 6432   3.713   3.406   1.719  0.0743 -0.1661  0.2259
  897poe    c31 6433   6.491   5.212   3.267 -0.2760 -0.0196 -0.4873
  897poe     o2 6434   6.422   5.138   3.365  0.6360 -0.0918  0.1157
  897poe    c23 6435   6.516   5.044   3.412  0.8287  0.2585  0.4381
  897poe    c23 6436   6.464   4.937   3.509 -0.4410  0.2391 -0.2418
  897poe     o2 6437   6.390   4.962   3.626  0.2029 -0.0056  0.2263
  897poe    c23 6438   6.457   5.047   3.716 -0.1225  0.1227  0.3505
  897poe    c23 6439   6.382   5.179   3.744 -0.3507  0.0782 -0.0491
  897poe     o2 6440   6.342   5.247   3.628 -0.1040 -0.0302 -0.1998
  897poe    c23 6441   6.248   5.348   3.657  0.4112  0.3088  0.2993
  897poe    c23 6442   6.241   5.422   3.522  0.5059 -0.4669 -0.1321
  897poe     o2 6443   6.213   5.337   3.413 -0.1643 -0.2815 -0.1068
  897poe    c31 6444   6.143   5.405   3.311 -1.1622 -0.5004  0.4151
  898poe    c31 6445   2.700   0.371   5.555 -0.2321 -0.5280 -0.7435
  898poe     o2 6446   2.801   0.439   5.482 -0.1129 -0.2975 -0.3649
  898poe    c23 6447   2.903   0.350   5.444  0.0718 -0.4524  0.4644
  898poe    c23 6448   3.018   0.435   5.387 -0.4298 -0.2089 -0.1885
  898poe     o2 6449   2.964   0.525   5.292  0.1157 -0.0508 -0.3499
  898poe    c23 6450   3.050   0.625   5.240 -0.3231  0.3037 -0.4005
  898poe    c23 6451   2.965   0.709   5.143 -0.2772  0.1642 -0.5617
  898poe     o2 6452   2.863   0.759   5.226  0.3467  0.6049 -0.0453
  898poe    c23 6453   2.786   0.858   5.163 -0.1554  0.3278  0.1233
  898poe    c23 6454   2.682   0.925   5.255 -0.0184  0.5261  0.1357
  898poe     o2 6455   2.570   0.841   5.273  0.2687  0.1259  0.0788
  898poe    c31 6456   2.476   0.902   5.359  0.0339  0.4314 -0.3897
  899poe    c31 6457   5.592   2.217   1.684  0.0949  0.1746 -0.4873
  899poe     o2 6458   5.676   2.125   1.750 -0.1976  0.3419  0.1242
  899poe    c23 6459   5.808   2.163   1.718 -0.1856  0.4926  0.3489
  899poe    c23 6460   5.900   2.051   1.769 -0.6638  0.0840  0.3201
  899poe     o2 6461   5.851   2.007   1.894 -0.3217  0.2276  0.5062
  899poe    c23 6462   5.944   1.910   1.938 -0.4204 -0.0950  0.0155
  899poe    c23 6463   5.906   1.848   2.074 -0.1097  0.1882  0.2301
  899poe     o2 6464   5.787   1.776   2.057 -0.2721  0.4910  0.0669
  899poe    c23 6465   5.757   1.719   2.183 -0.0343 -0.1914 -0.1768
  899poe    c23 6466   5.641   1.619   2.166 -0.5163  0.3919 -0.3589
  899poe     o2 6467   5.680   1.486   2.141  0.0684  0.3761  0.5670
  899poe    c31 6468   5.574   1.395   2.132  0.0215  0.4738  0.0786
  900poe    c31 6469   5.776   2.060   1.273 -0.3295 -0.0976 -0.6672
  900poe     o2 6470   5.739   2.053   1.138  0.0291  0.6270 -0.8082
  900poe    c23 6471   5.599   2.039   1.127  0.0807 -0.1449 -0.5181
  900poe    c23 6472   5.565   2.064   0.979  0.2053  0.3307 -0.4702
  900poe     o2 6473   5.660   1.984   0.913 -0.1823 -0.0121 -0.6259
  900poe    c23 6474   5.681   1.989   0.773 -0.2460 -0.5500 -0.6540
  900poe    c23 6475   5.812   1.911   0.750  0.0505 -0.3738  0.3552
  900poe     o2 6476   5.897   1.970   0.845 -0.1019 -0.1168  0.3323
  900poe    c23 6477   6.024   1.910   0.834 -0.2338 -0.3617  0.1213
  900poe    c23 6478   6.094   1.942   0.968 -0.5272  0.1838  0.1442
  900poe     o2 6479   5.994   1.916   1.064 -0.1828 -0.4795  0.3266
  900poe    c31 6480   6.066   1.868   1.176 -0.5546  0.0966  0.8203
  901poe    c31 6481   1.395   0.758   5.462 -0.2700 -0.5850  0.3397
  901poe     o2 6482   1.525   0.718   5.425  0.0052  0.0229  0.6509
  901poe    c23 6483   1.594   0.823   5.359 -0.0932  0.3766  1.1047
  901poe    c23 6484   1.730   0.769   5.310 -0.4986 -0.2361  0.6321
  901poe     o2 6485   1.715   0.634   5.273 -0.2140 -0.1892  0.3462
  901poe    c23 6486   1.832   0.572   5.225 -0.6203 -0.1079 -0.7730
  901poe    c23 6487   1.808   0.425   5.186 -0.8235 -0.1299 -0.5637
  901poe     o2 6488   1.746   0.353   5.291  0.2671 -0.2409  0.0304
  901poe    c23 6489   1.712   0.222   5.251 -0.0913 -0.0640 -0.2600
  901poe    c23 6490   1.605   0.153   5.339 -0.4113  0.0993 -0.5196
  901poe     o2 6491   1.480   0.216   5.355 -0.4241  0.0097 -0.2695
  901poe    c31 6492   1.441   0.192   5.488  0.3610 -0.6616 -0.1508
  902poe    c31 6493   5.129   0.978   2.076  0.4759 -0.3155 -0.6676
  902poe     o2 6494   5.060   1.039   1.969  0.2232  0.1362 -0.2533
  902poe    c23 6495   5.124   1.151   1.913 -0.2280  0.3071 -0.4229
  902poe    c23 6496   5.037   1.195   1.793 -0.1526 -0.2258 -0.6722
  902poe     o2 6497   4.906   1.189   1.844  0.1215  0.5066  0.1387
  902poe    c23 6498   4.823   1.200   1.730  0.1675 -0.1978  0.0367
  902poe    c23 6499   4.679   1.169   1.774  0.0544 -0.0609 -0.2384
  902poe     o2 6500   4.679   1.053   1.853  0.5520 -0.1431 -0.3544
  902poe    c23 6501   4.586   1.065   1.959  0.5384  0.1887 -0.4033
  902poe    c23 6502   4.645   0.997   2.084 -0.2662  0.1368 -0.0497
  902poe     o2 6503   4.779   1.037   2.098 -0.1541 -0.2870  0.0970
  902poe    c31 6504   4.833   1.034   2.228 -0.6451 -0.2784  0.3041
  903poe    c31 6505   6.704   5.129   5.097 -0.3634  0.5466  0.1090
  903poe     o2 6506   6.775   5.146   4.977 -0.4880  0.2100 -0.0143
  903poe    c23 6507   6.839   5.029   4.930 -0.4020  0.2469  0.0124
  903poe    c23 6508   6.861   5.049   4.779 -0.6005 -0.2836 -0.0884
  903poe     o2 6509   6.912   5.180   4.782  0.5576 -0.7254 -0.1674
  903poe    c23 6510   6.955   5.216   4.653 -0.5760  0.4618 -0.2375
  903poe    c23 6511   7.050   5.336   4.663  0.0458 -0.0595  0.2070
  903poe     o2 6512   6.992   5.413   4.766  0.5082  0.4945  0.0588
  903poe    c23 6513   7.040   5.546   4.770  1.0924  0.2715  0.6096
  903poe    c23 6514   7.018   5.599   4.913  0.2626  0.2826  0.4863
  903poe     o2 6515   6.884   5.630   4.943  0.0571  0.1775 -0.3029
  903poe    c31 6516   6.877   5.726   5.046 -0.1345 -0.0962 -0.0577
  904poe    c31 6517   4.850   6.255   4.114 -0.2872 -0.3681 -0.7909
  904poe     o2 6518   4.959   6.286   4.029  0.1096  0.3486 -0.0376
  904poe    c23 6519   4.916   6.349   3.910 -0.2593 -0.1312 -0.1652
  904poe    c23 6520   5.028   6.442   3.859  0.0053 -0.1001  0.4591
  904poe     o2 6521   5.147   6.376   3.893  0.4154  0.0885 -0.5747
  904poe    c23 6522   5.263   6.456   3.891  0.4373  0.0738 -0.1105
  904poe    c23 6523   5.356   6.401   4.001  0.3481 -0.0687 -0.1072
  904poe     o2 6524   5.263   6.372   4.103 -0.0088 -0.0565 -0.4246
  904poe    c23 6525   5.328   6.336   4.223  0.3730 -0.3555 -0.7182
  904poe    c23 6526   5.221   6.267   4.308  0.5205  0.0844 -0.1632
  904poe     o2 6527   5.157   6.176   4.220  0.1567  0.4979 -0.3300
  904poe    c31 6528   5.210   6.046   4.231 -0.8858  0.1323  0.5583
  905poe    c31 6529   1.647   0.972   5.844  0.2690  0.3444  0.1235
  905poe     o2 6530   1.558   1.001   5.949  0.1896 -0.4178  0.2746
  905poe    c23 6531   1.424   1.004   5.904  0.1904 -0.4483  0.2700
  905poe    c23 6532   1.340   0.980   6.031 -0.2111 -0.3898  0.0148
  905poe     o2 6533   1.387   1.073   6.126 -0.5039 -0.4033  0.1770
  905poe    c23 6534   1.322   1.054   6.249 -0.5530  0.1308  0.2379
  905poe    c23 6535   1.379   1.147   6.358  0.0604 -0.2930  0.2868
  905poe     o2 6536   1.518   1.129   6.370  0.1586  0.2837  0.0423
  905poe    c23 6537   1.584   1.182   6.483  0.9695  0.3438 -0.4489
  905poe    c23 6538   1.685   1.083   6.544  0.2263  0.0592  0.3496
  905poe     o2 6539   1.797   1.069   6.459  0.1086 -0.2177  0.2377
  905poe    c31 6540   1.918   1.062   6.531 -0.0128  0.0061  0.4683
  906poe    c31 6541   3.678   2.919   2.578  0.0041  0.0912  0.2521
  906poe     o2 6542   3.662   3.059   2.588  0.0242  0.1382 -0.3209
  906poe    c23 6543   3.703   3.107   2.463 -0.6552  0.1544 -0.5405
  906poe    c23 6544   3.692   3.260   2.470  0.2414  0.1827  0.4779
  906poe     o2 6545   3.584   3.309   2.547  0.0972 -0.0688  0.4354
  906poe    c23 6546   3.575   3.447   2.524  0.3483 -0.0598  0.3912
  906poe    c23 6547   3.438   3.494   2.574  0.1826 -0.1342  0.0072
  906poe     o2 6548   3.413   3.470   2.711  0.2873  0.4957  0.1430
  906poe    c23 6549   3.290   3.513   2.766 -0.1108 -0.0615 -0.2916
  906poe    c23 6550   3.310   3.522   2.919  0.0266 -0.0648 -0.3086
  906poe     o2 6551   3.337   3.390   2.960  0.0376 -0.1667 -0.6390
  906poe    c31 6552   3.381   3.394   3.094  0.0970  0.0965 -0.6650
  907poe    c31 6553   3.512   1.530   4.359 -0.3565  0.1596  0.2619
  907poe     o2 6554   3.535   1.637   4.447 -0.3923  0.0358  0.4223
  907poe    c23 6555   3.667   1.618   4.494  0.0479  0.6231 -0.5457
  907poe    c23 6556   3.700   1.728   4.596 -0.6835  0.1718  0.1882
  907poe     o2 6557   3.638   1.845   4.549  0.1050  0.4238 -0.2430
  907poe    c23 6558   3.690   1.965   4.602  0.3877  0.1243  0.1651
  907poe    c23 6559   3.607   2.071   4.526  0.2554  0.1021  0.2784
  907poe     o2 6560   3.487   2.014   4.481  0.4489  0.1728 -0.3345
  907poe    c23 6561   3.429   2.085   4.374  0.0763  0.2120 -0.1122
  907poe    c23 6562   3.310   1.993   4.338  0.2634 -0.1241  0.1184
  907poe     o2 6563   3.350   1.858   4.343 -0.0003 -0.2006  0.1385
  907poe    c31 6564   3.239   1.786   4.293 -0.0286  0.0491 -0.1657
  908poe    c31 6565   3.744   4.770   0.937 -0.2141 -0.5069 -0.6865
  908poe     o2 6566   3.822   4.670   0.999 -0.3580 -0.1772  0.0386
  908poe    c23 6567   3.907   4.605   0.907 -0.7326 -0.5060 -0.0787
  908poe    c23 6568   3.956   4.476   0.975  0.1360 -0.2194 -0.1526
  908poe     o2 6569   3.953   4.497   1.114 -0.4085  0.3951 -0.2509
  908poe    c23 6570   3.991   4.383   1.188  0.0328  0.6115 -0.1458
  908poe    c23 6571   4.033   4.402   1.335  0.1624 -0.1764 -0.0768
  908poe     o2 6572   3.925   4.458   1.406  0.1775 -0.0444 -0.1569
  908poe    c23 6573   3.963   4.587   1.449 -0.8321  0.1491  0.1908
  908poe    c23 6574   3.841   4.681   1.442 -0.4439  0.6524  0.1163
  908poe     o2 6575   3.811   4.708   1.306 -0.2616 -0.2503 -0.1115
  908poe    c31 6576   3.723   4.818   1.312 -0.2240 -0.2126 -0.2430
  909poe    c31 6577   4.758   5.463   6.401 -0.0052  0.3439 -0.6817
  909poe     o2 6578   4.880   5.397   6.429 -0.1019  0.4022 -0.1085
  909poe    c23 6579   4.925   5.326   6.316 -0.0775 -0.0449  0.1819
  909poe    c23 6580   4.987   5.191   6.357  1.1604  0.3322 -0.3982
  909poe     o2 6581   5.032   5.202   6.490  0.5849 -0.1600 -0.1538
  909poe    c23 6582   5.098   5.082   6.523 -0.0308 -0.4249  0.1128
  909poe    c23 6583   5.142   5.102   6.669 -0.1728 -0.0572  0.1063
  909poe     o2 6584   5.071   5.180   6.762 -0.1878 -0.2698  0.2745
  909poe    c23 6585   4.951   5.126   6.812 -0.5818 -0.4808 -0.8748
  909poe    c23 6586   4.868   5.250   6.851  0.6807  0.2538 -0.4565
  909poe     o2 6587   4.858   5.331   6.736 -0.1772  0.1804 -0.4387
  909poe    c31 6588   4.771   5.439   6.762 -0.6002 -0.2085 -0.2252
  910poe    c31 6589   1.714   6.092   3.127  0.5863 -0.1661 -0.1102
  910poe     o2 6590   1.707   5.987   3.220  0.1935 -0.3291 -0.3214
  910poe    c23 6591   1.727   6.039   3.350  0.6137  0.5436 -0.7302
  910poe    c23 6592   1.793   5.933   3.440  0.4599  0.4821 -0.6898
  910poe     o2 6593   1.873   5.852   3.356  0.4765 -0.3486  0.1107
  910poe    c23 6594   1.929   5.748   3.432  0.3036 -0.2129  0.4239
  910poe    c23 6595   2.006   5.645   3.348 -0.3776 -0.8179  0.5281
  910poe     o2 6596   1.903   5.599   3.264 -0.0490  0.2641 -0.4971
  910poe    c23 6597   1.956   5.484   3.202 -0.0511  0.0187 -0.0473
  910poe    c23 6598   1.866   5.441   3.085  0.3626 -0.1414 -0.3101
  910poe     o2 6599   1.845   5.541   2.987 -0.5303  0.2050  0.2255
  910poe    c31 6600   1.839   5.498   2.853 -0.2883  0.3533  0.1673
  911poe    c31 6601   2.236   3.950   5.462  0.6144 -0.2271  0.2940
  911poe     o2 6602   2.237   3.822   5.402 -0.7956 -0.1049 -0.0187
  911poe    c23 6603   2.198   3.845   5.268  0.2066 -0.0675 -0.3093
  911poe    c23 6604   2.192   3.710   5.193 -0.1972 -0.3360  0.2005
  911poe     o2 6605   2.078   3.641   5.240 -0.3542 -0.0655  0.2242
  911poe    c23 6606   2.066   3.521   5.166  0.5148  0.0219 -0.0790
  911poe    c23 6607   1.942   3.450   5.223  0.0867  0.7556 -0.0754
  911poe     o2 6608   1.961   3.443   5.363 -0.9339 -0.5679  0.0210
  911poe    c23 6609   1.851   3.385   5.430 -0.7461 -0.0894  0.7612
  911poe    c23 6610   1.886   3.379   5.580  0.4582  0.6498  0.5297
  911poe     o2 6611   1.922   3.511   5.613  0.3895  0.6998  0.4089
  911poe    c31 6612   1.847   3.546   5.727 -0.2066 -0.3911  0.3697
  912poe    c31 6613   3.408   5.941   3.539 -0.0830 -0.0576 -0.0626
  912poe     o2 6614   3.450   5.869   3.653 -0.0945  0.0897  0.0339
  912poe    c23 6615   3.590   5.881   3.664 -0.0959  0.0618  0.0847
  912poe    c23 6616   3.634   5.787   3.778 -0.0434 -0.0823 -0.0552
  912poe     o2 6617   3.593   5.829   3.906 -0.4989 -0.1293 -0.1859
  912poe    c23 6618   3.585   5.727   4.002  1.2259  0.0493  0.1691
  912poe    c23 6619   3.560   5.776   4.146  0.1165 -0.3502  0.1208
  912poe     o2 6620   3.434   5.839   4.158  0.3483  0.0197  0.6233
  912poe    c23 6621   3.426   5.912   4.279 -0.0009  0.2490  0.4636
  912poe    c23 6622   3.291   5.985   4.276  0.0271  0.3056  0.5593
  912poe     o2 6623   3.266   6.029   4.144 -0.2853  0.1948  0.5802
  912poe    c31 6624   3.168   6.130   4.141  0.1179  0.5670 -1.0617
  913poe    c31 6625   5.470   3.550   3.532 -0.0096 -0.1519 -0.0985
  913poe     o2 6626   5.537   3.636   3.442 -0.1944  0.2980  0.1908
  913poe    c23 6627   5.668   3.669   3.480 -0.0469  0.3164 -0.3390
  913poe    c23 6628   5.749   3.725   3.361  0.0865  0.0876 -0.3565
  913poe     o2 6629   5.745   3.642   3.247  0.3119  0.2420 -0.4782
  913poe    c23 6630   5.803   3.692   3.129  1.0481 -0.4374 -0.4097
  913poe    c23 6631   5.753   3.618   3.003 -0.5923  0.2963 -0.2153
  913poe     o2 6632   5.760   3.480   3.030  0.4150  0.3897  0.0793
  913poe    c23 6633   5.738   3.409   2.910  0.3376 -0.1095  0.3844
  913poe    c23 6634   5.658   3.282   2.945  0.8711 -0.3527  0.7299
  913poe     o2 6635   5.616   3.293   3.079 -0.3009  0.6046  0.3056
  913poe    c31 6636   5.523   3.190   3.102 -0.2245  0.5724  0.4762
  914poe    c31 6637   3.815   3.897   0.442  0.3138 -0.2183  0.1246
  914poe     o2 6638   3.825   3.942   0.575  0.0496  0.1894  0.0092
  914poe    c23 6639   3.747   4.057   0.599 -0.5419 -0.1920 -0.0463
  914poe    c23 6640   3.745   4.098   0.747  0.3147  0.0881 -0.1067
  914poe     o2 6641   3.872   4.082   0.806  0.2516 -0.1855 -0.0417
  914poe    c23 6642   3.851   4.026   0.934 -0.0826  0.4760  0.1997
  914poe    c23 6643   3.968   3.936   0.977 -0.4520 -0.2798 -0.3450
  914poe     o2 6644   3.998   3.852   0.867  0.0971 -0.1997 -0.2612
  914poe    c23 6645   4.119   3.781   0.879  0.6864  0.8031 -0.1442
  914poe    c23 6646   4.102   3.670   0.773 -0.5348  0.4838  0.3678
  914poe     o2 6647   4.033   3.722   0.662 -0.3998  0.0671  0.0853
  914poe    c31 6648   4.026   3.609   0.579 -0.1510 -0.0565  0.2328
  915poe    c31 6649   5.937   3.538   4.565 -0.4830 -0.1121  0.5708
  915poe     o2 6650   6.041   3.541   4.471 -0.4050  0.0815  0.6641
  915poe    c23 6651   6.050   3.425   4.391  0.1075 -0.0636  0.9313
  915poe    c23 6652   6.153   3.414   4.277 -0.2202  0.2955  0.6005
  915poe     o2 6653   6.285   3.436   4.321  0.1403  0.0942 -0.3532
  915poe    c23 6654   6.376   3.334   4.288 -0.1246 -0.3239  0.2042
  915poe    c23 6655   6.504   3.370   4.365  0.0673  0.4877 -0.4852
  915poe     o2 6656   6.522   3.510   4.361 -0.0363  0.5042 -0.3629
  915poe    c23 6657   6.654   3.553   4.389  0.0266 -0.2490  0.5767
  915poe    c23 6658   6.651   3.707   4.402 -0.0997 -0.2628  0.7228
  915poe     o2 6659   6.585   3.763   4.291  0.1233 -0.0726  0.6847
  915poe    c31 6660   6.583   3.904   4.299  0.6012 -0.0373  0.2664
  916poe    c31 6661   1.057   4.986   1.371 -0.7389 -0.4142 -0.3903
  916poe     o2 6662   1.117   4.888   1.289 -0.1774 -0.5485  0.1695
  916poe    c23 6663   1.257   4.888   1.304 -0.2144  0.0571  0.5193
  916poe    c23 6664   1.306   4.755   1.245  0.0181  0.4815 -0.2632
  916poe     o2 6665   1.262   4.752   1.112  0.1638  0.2623 -0.3085
  916poe    c23 6666   1.282   4.622   1.061  0.3107  0.1139  0.1299
  916poe    c23 6667   1.190   4.600   0.940  0.0275 -0.2262  0.4050
  916poe     o2 6668   1.054   4.583   0.974  0.0140 -0.0290  0.4489
  916poe    c23 6669   0.973   4.569   0.859  0.6617  0.2462 -0.0497
  916poe    c23 6670   0.820   4.578   0.872  0.6451 -0.1428  0.0401
  916poe     o2 6671   0.802   4.718   0.871  0.3486 -0.1784  0.3101
  916poe    c31 6672   0.667   4.755   0.856  0.0742 -0.8272  1.1030
  917poe    c31 6673   6.135   2.191   3.569  0.3523 -0.8505 -0.3654
  917poe     o2 6674   6.207   2.133   3.462  0.0896 -0.9399 -0.4960
  917poe    c23 6675   6.345   2.157   3.471 -0.0354 -0.2516 -0.3354
  917poe    c23 6676   6.412   2.095   3.346 -0.1189 -0.3326 -0.3396
  917poe     o2 6677   6.344   1.978   3.306 -0.2764 -0.2391 -0.3499
  917poe    c23 6678   6.387   1.938   3.178  0.3871 -0.1649 -0.1536
  917poe    c23 6679   6.332   1.796   3.158  0.6484 -0.2655 -0.1670
  917poe     o2 6680   6.191   1.795   3.150  0.6241 -0.3666  0.2617
  917poe    c23 6681   6.142   1.663   3.163 -0.1715 -0.0758  0.2877
  917poe    c23 6682   5.997   1.676   3.112 -0.2124  0.1086  0.4479
  917poe     o2 6683   5.931   1.782   3.176  0.3785  0.6241  0.2193
  917poe    c31 6684   5.798   1.783   3.129  0.3010  0.0957  0.4134
  918poe    c31 6685   5.148   2.979   4.907 -0.1954 -0.3691 -0.1126
  918poe     o2 6686   5.255   2.969   4.999 -0.2562 -0.3829 -0.0443
  918poe    c23 6687   5.207   2.920   5.122 -0.6921  0.2665  0.0535
  918poe    c23 6688   5.315   2.951   5.227  0.0341  0.0850 -0.6277
  918poe     o2 6689   5.436   2.902   5.175  0.1499 -0.1131 -0.1703
  918poe    c23 6690   5.548   2.947   5.249  0.1011 -0.4283  0.1001
  918poe    c23 6691   5.663   2.867   5.186  0.1699  0.1125 -0.4654
  918poe     o2 6692   5.633   2.867   5.048 -0.3895 -0.5241 -0.3437
  918poe    c23 6693   5.757   2.849   4.984 -0.2866 -0.5347 -0.1436
  918poe    c23 6694   5.777   2.714   4.914 -0.7804 -0.8095  0.2369
  918poe     o2 6695   5.683   2.702   4.809 -0.3686 -0.3433 -0.1913
  918poe    c31 6696   5.657   2.564   4.806 -0.4784 -0.3366  0.4031
  919poe    c31 6697   1.750   0.214   1.093 -0.0798 -0.0969  0.1703
  919poe     o2 6698   1.778   0.344   1.140 -0.4114  0.2905 -0.6978
  919poe    c23 6699   1.828   0.425   1.036  0.5450  0.1485 -0.3616
  919poe    c23 6700   1.808   0.562   1.104 -0.0873  0.0212 -0.2784
  919poe     o2 6701   1.851   0.564   1.239 -0.0890  0.3620 -0.2822
  919poe    c23 6702   1.839   0.690   1.302  0.1954  0.1229  0.2486
  919poe    c23 6703   1.890   0.666   1.446 -0.1811  0.0414  0.3676
  919poe     o2 6704   1.855   0.536   1.488 -0.1409 -0.0830  0.0198
  919poe    c23 6705   1.903   0.510   1.618  0.1849  0.0326 -0.0764
  919poe    c23 6706   1.858   0.372   1.668 -0.0993  0.0769 -0.2013
  919poe     o2 6707   1.945   0.273   1.616  0.2792  0.3149 -0.0261
  919poe    c31 6708   1.914   0.142   1.659 -0.2407  0.3423 -0.3143
  920poe    c31 6709   4.481   0.177   2.153  0.7682 -0.1790 -0.2633
  920poe     o2 6710   4.522   0.126   2.278 -0.3082 -0.2430  0.0742
  920poe    c23 6711   4.516   0.235   2.367  0.0163 -0.1968  0.0385
  920poe    c23 6712   4.561   0.170   2.499  0.2171  0.3784  0.2569
  920poe     o2 6713   4.674   0.090   2.468  0.3480  0.6448  0.0394
  920poe    c23 6714   4.744   0.100   2.590  0.3963  0.0726  0.0610
  920poe    c23 6715   4.879   0.028   2.572 -0.0005 -0.6035 -0.2502
  920poe     o2 6716   4.964   0.100   2.485 -0.3236 -0.1811 -0.2201
  920poe    c23 6717   5.077   0.024   2.450  0.2229  0.4768  0.1025
  920poe    c23 6718   5.159   0.082   2.333  0.3919 -0.3325 -0.1928
  920poe     o2 6719   5.081   0.075   2.216  0.1093  0.3841 -0.0522
  920poe    c31 6720   5.144   0.150   2.114  0.3533  0.5037  0.1818
  921poe    c31 6721   2.110   0.514   2.997  0.2981  0.5635  0.1625
  921poe     o2 6722   1.998   0.591   3.036  0.0960  0.5676 -0.4167
  921poe    c23 6723   1.901   0.570   2.936 -0.4066 -0.2077  0.2289
  921poe    c23 6724   1.781   0.665   2.954  0.1584  0.6292 -0.3920
  921poe     o2 6725   1.689   0.630   3.055  0.3038 -0.0945 -0.5115
  921poe    c23 6726   1.592   0.731   3.069 -0.0805 -0.4416 -0.6663
  921poe    c23 6727   1.478   0.667   3.152  0.1439  0.3562  0.2672
  921poe     o2 6728   1.526   0.609   3.271 -0.0432  0.5631  0.4433
  921poe    c23 6729   1.422   0.544   3.340 -0.2711  0.0352 -0.3904
  921poe    c23 6730   1.464   0.523   3.486 -0.6866 -0.2251 -0.3064
  921poe     o2 6731   1.472   0.645   3.555  0.1146 -0.4481  0.0094
  921poe    c31 6732   1.544   0.615   3.673 -0.5177 -0.2980  0.4403
  922poe    c31 6733   1.856   5.464   3.656 -0.0585  0.3669 -0.3970
  922poe     o2 6734   1.988   5.513   3.666  0.0224  0.0910 -0.0948
  922poe    c23 6735   2.070   5.402   3.642 -0.3708 -0.3171  0.4146
  922poe    c23 6736   2.218   5.446   3.631 -0.4628 -0.1978 -0.4616
  922poe     o2 6737   2.267   5.484   3.758  0.3290 -0.9093 -0.5511
  922poe    c23 6738   2.386   5.420   3.798  0.1235 -0.8555  0.1500
  922poe    c23 6739   2.419   5.440   3.948 -0.0611 -0.0159  0.0859
  922poe     o2 6740   2.414   5.580   3.958 -0.0465 -0.0172  0.1107
  922poe    c23 6741   2.468   5.629   4.079  0.4385 -0.0275 -0.1005
  922poe    c23 6742   2.427   5.777   4.088  0.0351 -0.0982 -0.6356
  922poe     o2 6743   2.300   5.792   4.029 -0.0643  0.0449 -0.3863
  922poe    c31 6744   2.249   5.915   4.075  0.1968 -0.0117  0.0652
  923poe    c31 6745   2.776   6.331   2.350  0.8531  0.4049  0.0438
  923poe     o2 6746   2.749   6.262   2.230 -0.0688  1.1442 -0.1896
  923poe    c23 6747   2.724   6.343   2.117 -0.3388  0.6375 -0.4977
  923poe    c23 6748   2.729   6.282   1.976 -0.0343 -0.2237 -0.1195
  923poe     o2 6749   2.867   6.271   1.950 -0.0289  0.3345 -0.3250
  923poe    c23 6750   2.876   6.228   1.816 -0.5612 -0.0593 -0.2346
  923poe    c23 6751   3.021   6.191   1.783 -0.3797  0.2947  0.1585
  923poe     o2 6752   3.066   6.119   1.895 -0.2162  0.3075  0.1017
  923poe    c23 6753   3.155   6.018   1.853  0.4696  0.9267  0.0345
  923poe    c23 6754   3.238   5.948   1.963 -0.2645 -0.1880 -0.0974
  923poe     o2 6755   3.161   5.892   2.067 -0.0064  0.3984  0.4180
  923poe    c31 6756   3.239   5.848   2.176  0.1124  0.1289  0.2272
  924poe    c31 6757   1.532   3.870   3.425 -0.6335 -0.4533 -0.5564
  924poe     o2 6758   1.431   3.824   3.512 -0.3275 -0.0246  0.0326
  924poe    c23 6759   1.468   3.707   3.582  0.0605 -0.0561 -0.2223
  924poe    c23 6760   1.388   3.709   3.713 -0.1922  0.4889 -0.3833
  924poe     o2 6761   1.253   3.744   3.692 -0.4716 -0.1913  0.2624
  924poe    c23 6762   1.200   3.811   3.804  0.2330  0.5174  0.1825
  924poe    c23 6763   1.071   3.878   3.752 -0.1231 -0.0464  0.3265
  924poe     o2 6764   1.102   3.936   3.627  0.0334 -0.6927  0.0605
  924poe    c23 6765   0.993   3.929   3.538  0.2450  0.2655 -0.2805
  924poe    c23 6766   1.042   3.994   3.408  0.4118  0.3842 -0.1592
  924poe     o2 6767   1.169   3.936   3.390 -0.0915 -0.7547 -0.1362
  924poe    c31 6768   1.204   3.934   3.254  0.3120  0.4600 -0.0636
  925poe    c31 6769   5.860   5.327   6.164 -0.1218 -0.4390  0.1646
  925poe     o2 6770   5.881   5.193   6.125  0.3886 -0.3512  0.1285
  925poe    c23 6771   5.823   5.111   6.225  0.0067 -0.0445  0.1646
  925poe    c23 6772   5.853   4.969   6.172 -0.3578  0.0703 -0.3564
  925poe     o2 6773   5.990   4.972   6.137 -0.1771  0.0550  0.3284
  925poe    c23 6774   6.031   4.850   6.081  0.1278  0.1873  0.2643
  925poe    c23 6775   6.043   4.881   5.931  0.4122 -0.1971  0.2053
  925poe     o2 6776   6.101   5.007   5.909 -0.6121  0.3199  0.4314
  925poe    c23 6777   6.036   5.074   5.803  0.0673 -0.3953 -0.4495
  925poe    c23 6778   6.106   5.211   5.816 -0.0625 -0.3737  0.0076
  925poe     o2 6779   6.099   5.245   5.953 -0.3763 -0.2596 -0.0352
  925poe    c31 6780   6.139   5.380   5.965 -0.0703 -0.3419 -0.1196
  926poe    c31 6781   4.942   6.433   1.451  0.7021  0.6405 -0.2713
  926poe     o2 6782   4.993   6.448   1.582  0.2898 -0.0198 -0.0248
  926poe    c23 6783   5.132   6.475   1.575  0.2642  0.0932 -0.1194
  926poe    c23 6784   5.180   6.437   1.716 -0.5142 -0.5589 -0.0190
  926poe     o2 6785   5.098   6.518   1.797 -0.1989 -0.2404 -0.0139
  926poe    c23 6786   5.146   6.490   1.927 -0.0260  0.0237 -0.0209
  926poe    c23 6787   5.084   6.585   2.031  0.5121 -0.2093  0.5190
  926poe     o2 6788   4.947   6.556   2.048  0.3673  0.2499  0.1719
  926poe    c23 6789   4.894   6.617   2.163 -0.0884 -0.2263  0.2174
  926poe    c23 6790   4.744   6.585   2.181 -0.0648 -0.4949 -0.0593
  926poe     o2 6791   4.664   6.674   2.256  0.1509  0.2307 -0.6821
  926poe    c31 6792   4.534   6.619   2.259  0.0460  0.5286  0.6167
  927poe    c31 6793   1.557   4.892   5.317 -0.3611  0.2793 -0.0606
  927poe     o2 6794   1.599   4.782   5.238  0.0163  0.5684 -0.2673
  927poe    c23 6795   1.727   4.799   5.182  0.1792  0.4764  0.0788
  927poe    c23 6796   1.802   4.671   5.226 -0.0334  0.2700 -0.1553
  927poe     o2 6797   1.724   4.555   5.209  0.0575  0.1332  0.3547
  927poe    c23 6798   1.790   4.448   5.274  0.3505 -0.0325 -0.2109
  927poe    c23 6799   1.696   4.328   5.248  0.0083  0.1400  0.2229
  927poe     o2 6800   1.559   4.359   5.252 -0.0668 -0.1004 -0.4859
  927poe    c23 6801   1.497   4.247   5.192 -0.3256 -0.3166  0.1728
  927poe    c23 6802   1.355   4.269   5.137 -0.2593 -0.5290 -0.0883
  927poe     o2 6803   1.346   4.375   5.044  0.1645 -0.0553  0.4017
  927poe    c31 6804   1.252   4.333   4.947  0.1602  0.3637  0.2224
  928poe    c31 6805   1.561   4.806   2.714  0.4018 -0.3132  0.3546
  928poe     o2 6806   1.577   4.676   2.660  0.5590 -0.1770  0.0714
  928poe    c23 6807   1.590   4.678   2.520  0.6399  0.2535  0.0827
  928poe    c23 6808   1.629   4.532   2.487  0.0616 -0.0242  0.6154
  928poe     o2 6809   1.536   4.452   2.556 -0.0251  0.0590  0.5958
  928poe    c23 6810   1.535   4.315   2.524  0.3996  0.2520 -0.2689
  928poe    c23 6811   1.424   4.248   2.608  0.4071  0.5320 -0.0346
  928poe     o2 6812   1.433   4.292   2.742  0.4357  0.0634  0.1183
  928poe    c23 6813   1.356   4.206   2.824  0.9249 -0.5083 -0.0158
  928poe    c23 6814   1.380   4.222   2.975  0.3897 -0.4162  0.0585
  928poe     o2 6815   1.327   4.348   3.008 -0.4673 -0.6411 -0.4153
  928poe    c31 6816   1.296   4.336   3.146 -0.2238 -0.3147 -0.3314
  929poe    c31 6817   0.255   4.291   4.927  0.2622  0.1413  0.1232
  929poe     o2 6818   0.269   4.431   4.914 -0.5087  0.2378  0.2603
  929poe    c23 6819   0.341   4.475   4.801 -0.4328 -0.1633  0.1527
  929poe    c23 6820   0.302   4.623   4.788 -0.1087 -0.0886  0.0259
  929poe     o2 6821   0.308   4.702   4.905  0.3306 -0.0570 -0.0174
  929poe    c23 6822   0.384   4.817   4.876  0.4269 -0.2207 -0.4156
  929poe    c23 6823   0.426   4.903   4.997 -0.3178  0.4516 -0.6257
  929poe     o2 6824   0.514   4.818   5.067 -0.5030  0.2523 -0.6351
  929poe    c23 6825   0.560   4.880   5.185  0.3999 -0.1387 -0.7745
  929poe    c23 6826   0.656   4.797   5.273  0.2672  0.2268 -0.2789
  929poe     o2 6827   0.597   4.673   5.306  0.6295  0.2367  0.4238
  929poe    c31 6828   0.660   4.606   5.412  1.0048 -0.3126 -0.1396
  930poe    c31 6829   3.645   3.794   6.311  0.0756 -0.4098  0.0131
  930poe     o2 6830   3.558   3.743   6.409 -0.1372  0.0633  0.0714
  930poe    c23 6831   3.471   3.845   6.454  0.2065  0.4373 -0.1060
  930poe    c23 6832   3.343   3.786   6.516  0.3814 -0.2366 -0.3706
  930poe     o2 6833   3.365   3.696   6.622 -0.3047  0.2006  0.1511
  930poe    c23 6834   3.256   3.661   6.705 -0.0936  0.3757  0.5029
  930poe    c23 6835   3.291   3.562   6.818 -0.4775 -0.4225 -0.0723
  930poe     o2 6836   3.413   3.603   6.875 -0.1903 -0.3490 -0.7233
  930poe    c23 6837   3.448   3.529   6.990 -0.3129  0.5270 -0.1130
  930poe    c23 6838   3.550   3.618   7.063  0.2241  0.0064 -0.2246
  930poe     o2 6839   3.642   3.661   6.965  0.2259  0.1228 -0.1716
  930poe    c31 6840   3.775   3.624   6.997  0.0227  0.0127  0.5626
  931poe    c31 6841   3.908   4.780   5.449  0.0483 -0.1267 -1.2143
  931poe     o2 6842   3.951   4.677   5.534  0.2144  0.4300 -0.6108
  931poe    c23 6843   4.081   4.690   5.586 -0.0719  0.4721  0.1008
  931poe    c23 6844   4.138   4.550   5.617 -0.2724  0.3874  0.0841
  931poe     o2 6845   4.069   4.454   5.693  0.3512  0.0191  0.1927
  931poe    c23 6846   4.146   4.340   5.725  0.2179 -0.0830  0.1528
  931poe    c23 6847   4.042   4.226   5.721 -0.0100  0.1206  0.2323
  931poe     o2 6848   3.933   4.266   5.800 -0.1982  0.3048 -0.1161
  931poe    c23 6849   3.810   4.207   5.764  0.3887 -1.0369  0.0068
  931poe    c23 6850   3.705   4.237   5.873  0.4279 -0.2440 -0.1685
  931poe     o2 6851   3.722   4.376   5.890  0.1863 -0.2492  0.1340
  931poe    c31 6852   3.640   4.413   5.998  0.1911  0.2550 -0.0308
  932poe    c31 6853   5.408   5.561   3.999  0.6524  0.1262 -0.6112
  932poe     o2 6854   5.410   5.420   3.999 -0.4401  0.0895  0.5484
  932poe    c23 6855   5.324   5.382   3.894  0.1507 -0.1679  0.1530
  932poe    c23 6856   5.347   5.231   3.872 -1.0461 -0.3557  0.1534
  932poe     o2 6857   5.335   5.151   3.987  0.0258  0.5430  0.9071
  932poe    c23 6858   5.419   5.039   3.975 -0.4098  0.3022  0.0026
  932poe    c23 6859   5.490   5.024   4.111  0.1909 -0.2365 -0.3679
  932poe     o2 6860   5.542   5.151   4.144  0.2362 -0.1793 -0.6593
  932poe    c23 6861   5.642   5.138   4.242  0.0989 -0.0412 -0.5031
  932poe    c23 6862   5.717   5.273   4.238  0.1269 -0.0383  0.0425
  932poe     o2 6863   5.643   5.386   4.197  0.3076  0.0051 -0.1636
  932poe    c31 6864   5.727   5.499   4.212 -0.3633  0.5358 -0.3732
  933poe    c31 6865   1.303   2.829   0.019  0.0324 -0.1389  0.0399
  933poe     o2 6866   1.273   2.925  -0.079 -0.3797 -0.0486  0.2514
  933poe    c23 6867   1.134   2.940  -0.100 -0.4641 -0.5035  0.4768
  933poe    c23 6868   1.050   2.842  -0.184 -1.3095  0.2992  0.3698
  933poe     o2 6869   1.120   2.845  -0.307 -0.4324 -0.2751  0.8465
  933poe    c23 6870   1.055   2.759  -0.398  0.1708  0.4852 -0.3212
  933poe    c23 6871   1.101   2.767  -0.545  0.0145 -0.1752 -0.4088
  933poe     o2 6872   1.239   2.746  -0.559  0.0524  0.1557 -0.5328
  933poe    c23 6873   1.285   2.762  -0.692 -0.0481  0.0020 -0.5868
  933poe    c23 6874   1.429   2.708  -0.685 -0.1409 -0.1931 -0.1614
  933poe     o2 6875   1.492   2.767  -0.573 -0.3146 -0.4584  0.0761
  933poe    c31 6876   1.628   2.793  -0.597 -0.3503 -0.5113 -0.1845
  934poe    c31 6877   4.904   5.080   2.985 -0.1660 -0.3796  0.2743
  934poe     o2 6878   4.900   4.946   2.942  0.0291 -0.3256  0.0867
  934poe    c23 6879   4.815   4.948   2.830 -0.5322  0.0122  0.5157
  934poe    c23 6880   4.772   4.817   2.762  1.2104 -0.4666  0.2886
  934poe     o2 6881   4.712   4.722   2.848 -0.6178 -0.1554 -0.5848
  934poe    c23 6882   4.736   4.591   2.802  0.0067 -0.1697 -0.2327
  934poe    c23 6883   4.667   4.493   2.898  0.3996 -0.6670 -0.4583
  934poe     o2 6884   4.685   4.529   3.033 -0.8943  0.7565 -0.6493
  934poe    c23 6885   4.602   4.456   3.120 -0.2478  0.2639 -0.4379
  934poe    c23 6886   4.614   4.521   3.259  0.5290  0.0754 -0.4126
  934poe     o2 6887   4.583   4.658   3.247  1.0293  0.2614  0.3173
  934poe    c31 6888   4.532   4.715   3.365  0.3516 -0.0942  0.1996
  935poe    c31 6889   2.040   4.506   3.775  0.1016  0.5822 -0.5759
  935poe     o2 6890   1.925   4.563   3.833 -0.1834  0.0455 -0.6002
  935poe    c23 6891   1.955   4.701   3.841  0.0599 -0.0541  0.4125
  935poe    c23 6892   1.812   4.759   3.850  0.4489  0.9312  0.3582
  935poe     o2 6893   1.735   4.701   3.953  0.4573 -0.1897 -0.2456
  935poe    c23 6894   1.596   4.701   3.930  0.3424  0.4326  0.4282
  935poe    c23 6895   1.545   4.594   4.028 -0.1905 -0.2812 -0.6201
  935poe     o2 6896   1.611   4.474   3.993  0.5402 -0.0737  0.0373
  935poe    c23 6897   1.606   4.376   4.094  0.2519 -0.3091 -0.2053
  935poe    c23 6898   1.692   4.266   4.029  0.2870 -0.5722  0.2785
  935poe     o2 6899   1.812   4.325   3.984 -0.3067 -0.0039 -0.5930
  935poe    c31 6900   1.913   4.231   3.955  0.0656  0.1690  0.1142
  936poe    c31 6901   1.461   2.239   1.313 -0.0981 -0.0912 -0.2044
  936poe     o2 6902   1.487   2.107   1.354  0.2135  0.1202  0.2891
  936poe    c23 6903   1.519   2.104   1.491  0.0700  0.2742  0.3266
  936poe    c23 6904   1.489   1.967   1.556 -0.6798 -0.0727 -0.7192
  936poe     o2 6905   1.575   1.876   1.492 -0.2808 -0.1141 -0.1346
  936poe    c23 6906   1.557   1.738   1.517  0.4076 -0.2405 -0.2978
  936poe    c23 6907   1.429   1.690   1.445 -0.3912  1.0046  0.2474
  936poe     o2 6908   1.444   1.744   1.316 -0.1402  0.1858 -0.0759
  936poe    c23 6909   1.327   1.730   1.239 -0.0377 -0.2579 -0.1507
  936poe    c23 6910   1.356   1.814   1.113  0.2617  0.0408  0.1194
  936poe     o2 6911   1.426   1.931   1.150  0.6097 -0.1248 -0.0119
  936poe    c31 6912   1.433   2.012   1.035 -0.0292 -0.4151 -0.2618
  937poe    c31 6913   1.341   6.002   6.718 -0.3755 -0.5450  0.0566
  937poe     o2 6914   1.317   6.050   6.848  0.0677 -0.0415 -0.0408
  937poe    c23 6915   1.408   6.151   6.882  0.1240 -0.0497 -0.1687
  937poe    c23 6916   1.374   6.201   7.023 -0.0285  0.0736 -0.2482
  937poe     o2 6917   1.343   6.081   7.091 -0.0896  0.1734 -0.0992
  937poe    c23 6918   1.309   6.105   7.226  0.5203 -0.3435  0.1532
  937poe    c23 6919   1.213   5.993   7.270 -0.2124  0.4748  0.6769
  937poe     o2 6920   1.118   5.982   7.166  0.1314  0.2551  0.3847
  937poe    c23 6921   1.047   5.861   7.176  0.2896  0.0990 -0.2857
  937poe    c23 6922   0.991   5.835   7.035 -0.3586 -0.2103  0.0246
  937poe     o2 6923   1.083   5.887   6.942  0.0937 -0.2543  0.4417
  937poe    c31 6924   1.032   5.845   6.817 -0.1901 -0.1225  0.5130
  938poe    c31 6925   4.605   1.091   6.524 -0.0952  0.3450  0.4274
  938poe     o2 6926   4.530   1.070   6.641 -0.4742 -0.3795  0.0574
  938poe    c23 6927   4.578   1.133   6.758 -0.1800  0.0978 -0.3166
  938poe    c23 6928   4.530   1.038   6.869  0.4416  0.2328  0.0733
  938poe     o2 6929   4.396   1.006   6.837  0.4621 -0.0141  0.2308
  938poe    c23 6930   4.338   0.907   6.919  0.7987 -0.4568 -0.0583
  938poe    c23 6931   4.190   0.870   6.897  0.6793  0.2970 -0.5640
  938poe     o2 6932   4.158   0.835   6.764 -0.2209 -0.3044 -0.1958
  938poe    c23 6933   4.144   0.699   6.729  0.3637 -0.4359  0.0776
  938poe    c23 6934   4.080   0.673   6.591  0.3605 -0.0017 -0.0023
  938poe     o2 6935   4.139   0.739   6.481  0.2370  0.2967  0.1094
  938poe    c31 6936   4.066   0.702   6.366  0.4234 -0.6015  0.2723
  939poe    c31 6937   4.707   5.454   3.179  0.3824 -0.6319  0.1106
  939poe     o2 6938   4.709   5.446   3.320  0.0632 -0.0713  0.1508
  939poe    c23 6939   4.774   5.563   3.364 -0.8535  0.4172  0.2309
  939poe    c23 6940   4.733   5.610   3.505 -0.0027  0.3203  0.5157
  939poe     o2 6941   4.734   5.483   3.565  0.3502 -0.0530 -0.2711
  939poe    c23 6942   4.740   5.486   3.706  0.1066 -0.3656 -0.2521
  939poe    c23 6943   4.658   5.363   3.748 -0.2637 -0.0586 -0.0740
  939poe     o2 6944   4.689   5.264   3.653 -0.2442  0.2545 -0.3960
  939poe    c23 6945   4.580   5.173   3.657 -0.0931  0.0912 -0.0036
  939poe    c23 6946   4.575   5.091   3.527  0.4423 -0.2465  0.1837
  939poe     o2 6947   4.609   5.172   3.416 -0.5124 -0.2609 -0.1291
  939poe    c31 6948   4.579   5.114   3.291 -0.5383  0.4701 -0.4615
  940poe    c31 6949   3.069   0.209   0.053  0.5462 -0.2547 -0.3762
  940poe     o2 6950   3.179   0.279   0.104 -0.3346  0.5852  0.4060
  940poe    c23 6951   3.273   0.305   0.002 -0.1245 -0.1864  0.3970
  940poe    c23 6952   3.371   0.404   0.068 -0.3021  0.2316  0.0418
  940poe     o2 6953   3.423   0.357   0.190  0.3582  0.1459 -0.2673
  940poe    c23 6954   3.532   0.440   0.225  0.1965  0.2039  0.1108
  940poe    c23 6955   3.605   0.373   0.343 -0.2414 -0.8282 -0.1879
  940poe     o2 6956   3.519   0.370   0.455  0.3645  0.2624  0.3287
  940poe    c23 6957   3.562   0.282   0.557  0.1692  0.1118  0.2829
  940poe    c23 6958   3.463   0.295   0.674 -0.2983  0.2346 -0.1262
  940poe     o2 6959   3.332   0.307   0.622 -0.3368  0.0118 -0.0782
  940poe    c31 6960   3.237   0.314   0.726 -0.0164 -0.7455  0.2800
  941poe    c31 6961   0.316   5.897   2.406 -0.4210 -0.0882  0.0339
  941poe     o2 6962   0.217   5.920   2.503 -0.2723  0.2829  0.0997
  941poe    c23 6963   0.114   5.833   2.462 -0.3005  0.3791 -0.0310
  941poe    c23 6964   0.002   5.857   2.565 -0.0235 -0.2678  0.4221
  941poe     o2 6965   0.056   5.907   2.685  0.3236  0.0648  0.1301
  941poe    c23 6966  -0.033   5.987   2.761  0.0900  0.3488 -0.4379
  941poe    c23 6967   0.054   6.058   2.866 -0.1348  0.4826 -0.3413
  941poe     o2 6968   0.158   6.120   2.794  0.0901  0.2132 -0.2535
  941poe    c23 6969   0.254   6.193   2.868  0.2422 -0.2778  0.0368
  941poe    c23 6970   0.368   6.229   2.771 -0.4785  0.6755 -0.4818
  941poe     o2 6971   0.389   6.121   2.682  0.1963 -0.1582  0.6500
  941poe    c31 6972   0.520   6.117   2.631  0.1159 -0.3070  0.4531
  942poe    c31 6973   0.377   5.768   1.484 -0.0082 -0.0980 -0.1347
  942poe     o2 6974   0.359   5.630   1.463 -0.0034 -0.1353  0.1039
  942poe    c23 6975   0.372   5.593   1.327  0.0284  0.4129 -0.0445
  942poe    c23 6976   0.354   5.446   1.287 -0.0985  0.4378 -0.0791
  942poe     o2 6977   0.219   5.413   1.314  0.0919 -0.1697  0.1484
  942poe    c23 6978   0.201   5.278   1.276  0.3799 -0.3917  0.7899
  942poe    c23 6979   0.049   5.260   1.260  0.3323  0.4512  0.2189
  942poe     o2 6980  -0.011   5.323   1.371 -0.2346 -0.1826  0.2739
  942poe    c23 6981  -0.145   5.278   1.371 -0.1891 -0.3191  0.0125
  942poe    c23 6982  -0.206   5.346   1.495  0.4395 -0.0077  0.1536
  942poe     o2 6983  -0.201   5.485   1.472  0.1249  0.0460  0.4079
  942poe    c31 6984  -0.263   5.558   1.576 -0.2657 -0.2800  0.4059
  943poe    c31 6985   0.247   5.001   2.488  0.1580  0.5001 -0.2239
  943poe     o2 6986   0.196   5.120   2.544  0.1609  0.4657 -0.1475
  943poe    c23 6987   0.251   5.237   2.487 -0.3736  0.7002 -0.1893
  943poe    c23 6988   0.187   5.370   2.530 -0.5556  0.5490  0.0106
  943poe     o2 6989   0.184   5.402   2.667 -0.2198 -0.1550  0.1821
  943poe    c23 6990   0.137   5.532   2.690 -0.1190 -0.1623  0.4407
  943poe    c23 6991   0.130   5.556   2.842  0.2094 -0.3308  0.4823
  943poe     o2 6992   0.059   5.445   2.891  0.4447 -0.6250  0.1623
  943poe    c23 6993   0.025   5.468   3.026  0.2265  0.1743 -0.0230
  943poe    c23 6994  -0.005   5.332   3.093  0.5682  0.1572  0.0969
  943poe     o2 6995   0.103   5.249   3.058  0.4805 -0.0371  0.2868
  943poe    c31 6996   0.099   5.119   3.111 -0.1738  0.1812  0.7884
  944poe    c31 6997   0.696   0.436   3.147 -0.0562  0.3964  0.3387
  944poe     o2 6998   0.601   0.481   3.241  0.2593  0.3302  0.6932
  944poe    c23 6999   0.472   0.440   3.205  0.2693  0.3317  0.6563
  944poe    c23 7000   0.357   0.533   3.247  0.4539  0.6007  0.5656
  944poe     o2 7001   0.326   0.524   3.385 -0.1165  0.8301  0.4534
  944poe    c23 7002   0.188   0.547   3.404 -0.1491  0.4254  0.6996
  944poe    c23 7003   0.140   0.504   3.544 -0.8330  1.2006  0.7117
  944poe     o2 7004   0.247   0.514   3.636  0.1227  0.3325 -0.2783
  944poe    c23 7005   0.214   0.463   3.763 -0.1260  0.2422 -0.3787
  944poe    c23 7006   0.338   0.477   3.853  0.0189 -0.2864 -0.4904
  944poe     o2 7007   0.447   0.426   3.781  0.0828 -0.1054 -0.5201
  944poe    c31 7008   0.568   0.428   3.853  0.5599  0.1014 -1.3092
  945poe    c31 7009   1.264   3.016   3.020  0.0445 -0.0735  0.0404
  945poe     o2 7010   1.317   3.134   3.076 -0.4944  0.2361 -0.0945
  945poe    c23 7011   1.336   3.098   3.211 -0.0832  0.1175 -0.1811
  945poe    c23 7012   1.438   3.205   3.255 -0.2749  0.1797  0.1177
  945poe     o2 7013   1.377   3.330   3.236  0.4052  0.4246 -0.4998
  945poe    c23 7014   1.462   3.432   3.283 -0.0062  0.6450 -0.2259
  945poe    c23 7015   1.406   3.565   3.230 -0.2004  0.5684 -0.2137
  945poe     o2 7016   1.388   3.544   3.091  0.0305  0.3206 -0.2074
  945poe    c23 7017   1.359   3.654   3.007 -0.6636  0.0429 -0.3323
  945poe    c23 7018   1.470   3.757   2.980 -0.2511 -0.2882  0.0841
  945poe     o2 7019   1.504   3.843   3.086 -0.5629 -0.0424 -0.0134
  945poe    c31 7020   1.611   3.921   3.038 -0.5740  0.0403  0.0971
  946poe    c31 7021   1.085   6.787   0.745  0.0045  0.4403 -0.3325
  946poe     o2 7022   1.218   6.832   0.732  0.3163 -0.2876  0.2473
  946poe    c23 7023   1.219   6.950   0.654  0.3069 -0.2684  0.2760
  946poe    c23 7024   1.359   7.013   0.649  0.1477  0.0251 -0.6039
  946poe     o2 7025   1.441   6.901   0.670  0.1890  0.2254  0.3343
  946poe    c23 7026   1.565   6.962   0.696  0.0578  0.5697  0.1404
  946poe    c23 7027   1.649   6.859   0.771  0.0002  0.1288 -0.3938
  946poe     o2 7028   1.560   6.818   0.872  0.5296 -0.3905 -0.1291
  946poe    c23 7029   1.593   6.709   0.955 -0.5674 -0.6931 -0.0793
  946poe    c23 7030   1.465   6.664   1.030 -0.4933  0.1095  0.5405
  946poe     o2 7031   1.365   6.645   0.932  0.0392  0.0225  0.0036
  946poe    c31 7032   1.277   6.544   0.974  0.4567 -0.2707  0.1762
  947poe    c31 7033   2.960   1.383   0.031 -0.3602  0.2818  0.3117
  947poe     o2 7034   2.970   1.332   0.162  0.3986 -0.3990 -0.0038
  947poe    c23 7035   2.849   1.266   0.194 -0.1555  0.7191  0.2639
  947poe    c23 7036   2.876   1.151   0.293 -0.1041  0.5717  0.0799
  947poe     o2 7037   2.959   1.209   0.391  0.4108 -0.1813  0.0984
  947poe    c23 7038   3.039   1.124   0.470  0.2683 -0.7400 -0.3480
  947poe    c23 7039   3.178   1.129   0.405  0.5331 -0.4197  0.2269
  947poe     o2 7040   3.219   1.261   0.379  0.1473 -0.2791  0.3288
  947poe    c23 7041   3.330   1.273   0.293  0.0023 -0.0022  0.1788
  947poe    c23 7042   3.332   1.421   0.250 -0.2123  0.0144  0.2265
  947poe     o2 7043   3.199   1.465   0.231 -0.1160  0.2513  0.1000
  947poe    c31 7044   3.200   1.595   0.175  0.3894 -0.0477 -0.6064
  948poe    c31 7045   0.412   5.672   3.198 -0.3774  0.3110  0.0563
  948poe     o2 7046   0.553   5.673   3.208 -0.3721 -0.4694  0.1288
  948poe    c23 7047   0.601   5.542   3.188  0.1922 -0.3215  0.4699
  948poe    c23 7048   0.738   5.513   3.251  0.3667 -0.0773  0.2087
  948poe     o2 7049   0.847   5.571   3.183  0.1889 -0.1986 -0.1813
  948poe    c23 7050   0.960   5.582   3.267 -0.4070  0.4566  0.5487
  948poe    c23 7051   1.071   5.679   3.223  0.0308 -0.4427 -0.3706
  948poe     o2 7052   1.014   5.805   3.196  0.0672 -0.2112  0.5836
  948poe    c23 7053   1.119   5.894   3.168 -0.3869 -0.0379 -0.6403
  948poe    c23 7054   1.050   6.028   3.136 -0.2176  0.1606 -0.1874
  948poe     o2 7055   0.931   6.001   3.065 -0.0604 -0.1996 -0.3146
  948poe    c31 7056   0.874   6.112   3.000  0.3633  0.1281 -0.1319
  949poe    c31 7057   1.570   0.875   2.453  0.3114  0.5133  0.2169
  949poe     o2 7058   1.605   1.003   2.406  0.5659  0.5184  0.4179
  949poe    c23 7059   1.573   1.030   2.271  0.0730  0.2117  0.4719
  949poe    c23 7060   1.586   1.176   2.223  0.3011  0.1473  0.3358
  949poe     o2 7061   1.506   1.255   2.309  0.5175  0.2367  0.4542
  949poe    c23 7062   1.539   1.392   2.301  0.3236  0.2521 -0.0664
  949poe    c23 7063   1.424   1.470   2.367 -0.1856 -0.1472 -0.4723
  949poe     o2 7064   1.413   1.431   2.502 -0.3268 -0.0598 -0.4587
  949poe    c23 7065   1.339   1.512   2.590  0.3491  0.0295  0.0327
  949poe    c23 7066   1.336   1.456   2.733  0.0623  0.3939  0.1727
  949poe     o2 7067   1.337   1.317   2.710 -0.2057  0.3433  0.4595
  949poe    c31 7068   1.361   1.248   2.830  0.2291 -0.2871  0.0177
  950poe    c31 7069   4.928   3.323   4.921 -0.7815  0.7913 -0.1927
  950poe     o2 7070   5.022   3.385   4.837 -0.0706 -0.4070 -0.3024
  950poe    c23 7071   4.993   3.358   4.702  0.2486 -0.4508 -0.3643
  950poe    c23 7072   5.068   3.448   4.602  0.2458 -0.4246 -0.3431
  950poe     o2 7073   5.207   3.443   4.627  0.1532  0.1267  0.3112
  950poe    c23 7074   5.289   3.549   4.584 -0.0949  0.1066 -0.2203
  950poe    c23 7075   5.307   3.662   4.687  0.4912 -0.2398  0.0613
  950poe     o2 7076   5.319   3.582   4.803 -0.4058 -0.4079  0.0416
  950poe    c23 7077   5.354   3.669   4.908 -0.0599 -0.2293 -0.2169
  950poe    c23 7078   5.316   3.592   5.036  0.3400  0.1220  0.1131
  950poe     o2 7079   5.202   3.513   5.010  0.1393  0.4286  0.0567
  950poe    c31 7080   5.201   3.411   5.107  0.7329  0.2993 -0.0681
  951poe    c31 7081   4.757   1.652   2.599 -0.4567 -0.2312 -0.1917
  951poe     o2 7082   4.744   1.582   2.721 -0.5062  0.0231 -0.0497
  951poe    c23 7083   4.809   1.635   2.834 -0.4372  0.0644 -0.1081
  951poe    c23 7084   4.717   1.584   2.947 -0.2102 -0.1192 -0.0040
  951poe     o2 7085   4.661   1.464   2.900 -0.0090 -0.2573  0.1092
  951poe    c23 7086   4.551   1.427   2.982 -0.0248 -0.1586  0.1328
  951poe    c23 7087   4.539   1.283   2.929  0.1868 -0.1597  0.0853
  951poe     o2 7088   4.519   1.283   2.789 -0.2150 -0.2468  0.1431
  951poe    c23 7089   4.468   1.155   2.758 -0.8877 -0.0760  0.5089
  951poe    c23 7090   4.421   1.146   2.611  0.3860 -0.7722  0.1244
  951poe     o2 7091   4.534   1.158   2.528  0.0500  1.2002 -0.1091
  951poe    c31 7092   4.499   1.121   2.396  0.6329  1.1536 -0.2514
  952poe    c31 7093   4.833   0.832   5.595 -0.2026  1.2425 -0.1267
  952poe     o2 7094   4.837   0.839   5.454  0.0767  0.2456 -0.1786
  952poe    c23 7095   4.970   0.827   5.408  0.2611 -0.4061  0.5188
  952poe    c23 7096   4.995   0.838   5.257 -0.1225 -0.2444  0.4640
  952poe     o2 7097   4.961   0.967   5.212  0.1445 -0.3516 -0.0513
  952poe    c23 7098   5.031   1.009   5.096  0.5449 -0.3264  0.1953
  952poe    c23 7099   4.950   1.124   5.032  0.2184 -0.5301  0.2381
  952poe     o2 7100   4.820   1.082   4.997  0.2064 -0.1658 -0.1522
  952poe    c23 7101   4.753   1.188   4.933  0.5540 -0.2998 -0.7470
  952poe    c23 7102   4.618   1.126   4.890  0.4467 -0.6585  0.0979
  952poe     o2 7103   4.575   1.059   5.007 -0.1748 -0.0567  0.2188
  952poe    c31 7104   4.444   1.014   4.984 -0.4097  0.4445  0.5430
  953poe    c31 7105   1.980   2.974   5.999 -0.5472 -0.3393 -0.1437
  953poe     o2 7106   2.026   2.856   5.936 -0.6811 -0.6111  0.2583
  953poe    c23 7107   2.083   2.774   6.034  0.0511  0.1259  0.4607
  953poe    c23 7108   2.146   2.644   5.979 -0.6211 -0.0992  0.2207
  953poe     o2 7109   2.049   2.572   5.905  0.0994 -0.6776 -0.1696
  953poe    c23 7110   2.110   2.449   5.873  0.5447 -0.5878  0.3085
  953poe    c23 7111   2.004   2.371   5.793 -0.0052  0.1412  0.3189
  953poe     o2 7112   1.934   2.468   5.718 -0.8540 -0.4712  0.3004
  953poe    c23 7113   1.899   2.424   5.589  0.0287 -0.0338 -0.0986
  953poe    c23 7114   1.745   2.424   5.578  0.0415  0.0410 -0.2799
  953poe     o2 7115   1.690   2.546   5.621 -0.1865 -0.1075 -0.1534
  953poe    c31 7116   1.551   2.539   5.596 -0.2598  0.0097  0.2192
  954poe    c31 7117   0.495   4.523   6.141 -0.1496 -0.4603 -0.5122
  954poe     o2 7118   0.628   4.536   6.185 -0.1961 -0.4387 -0.3783
  954poe    c23 7119   0.634   4.484   6.316  0.2443  0.4170 -0.0526
  954poe    c23 7120   0.780   4.493   6.365  0.1995  0.1333  0.1387
  954poe     o2 7121   0.853   4.454   6.250 -0.1277 -0.1092  0.0091
  954poe    c23 7122   0.992   4.468   6.266 -0.0838 -0.1275 -0.3618
  954poe    c23 7123   1.046   4.504   6.126 -0.0067  0.4137 -0.1979
  954poe     o2 7124   0.938   4.562   6.057 -0.3360  0.3530  0.2587
  954poe    c23 7125   0.974   4.589   5.923 -0.1443 -0.2193  0.1920
  954poe    c23 7126   0.859   4.668   5.857  0.2832  0.1371 -0.1351
  954poe     o2 7127   0.741   4.597   5.889  0.0408  0.4348 -0.3690
  954poe    c31 7128   0.643   4.621   5.791 -0.2815 -0.3201 -0.2392
  955poe    c31 7129   0.361   1.794   6.621  0.6185 -0.2814  0.5351
  955poe     o2 7130   0.404   1.660   6.608  0.4923 -0.2819  0.0919
  955poe    c23 7131   0.383   1.586   6.726 -0.3011 -0.2088  0.0030
  955poe    c23 7132   0.381   1.440   6.679 -0.2999 -0.1059 -0.3226
  955poe     o2 7133   0.487   1.425   6.588  0.1668 -0.2966  0.2437
  955poe    c23 7134   0.514   1.296   6.538  0.0137 -0.3285  0.2435
  955poe    c23 7135   0.636   1.319   6.448 -0.4987  0.2364 -0.3120
  955poe     o2 7136   0.594   1.428   6.369 -0.5196  0.0025 -0.6258
  955poe    c23 7137   0.691   1.480   6.281  0.0841 -0.6111 -0.3226
  955poe    c23 7138   0.640   1.623   6.258  0.1763 -0.5283 -0.0186
  955poe     o2 7139   0.597   1.696   6.371 -0.1057 -0.3261 -0.2534
  955poe    c31 7140   0.599   1.835   6.349  0.0438 -0.3001 -0.0794
  956poe    c31 7141   5.632   6.301   5.392 -0.4208  0.5085 -0.2167
  956poe     o2 7142   5.698   6.424   5.376 -0.1682  0.3377 -0.5059
  956poe    c23 7143   5.610   6.529   5.341 -0.5103  0.2509  0.0685
  956poe    c23 7144   5.680   6.665   5.324 -0.0947 -0.0090 -0.3104
  956poe     o2 7145   5.793   6.669   5.239 -0.0887 -0.2433 -0.3124
  956poe    c23 7146   5.833   6.802   5.214 -0.2649 -0.1300  0.0126
  956poe    c23 7147   5.947   6.812   5.111 -0.4352 -0.0037 -0.1642
  956poe     o2 7148   5.898   6.748   4.996 -0.2073 -0.3243 -0.0822
  956poe    c23 7149   5.992   6.761   4.892 -0.0832 -0.2540  0.0372
  956poe    c23 7150   5.958   6.641   4.800  0.5996  0.2493 -0.8866
  956poe     o2 7151   5.933   6.533   4.887 -0.8023  0.7109 -0.7041
  956poe    c31 7152   5.942   6.412   4.815 -0.8207  0.1847  0.1632
  957poe    c31 7153   1.906   6.198   3.971  0.1859  0.1219 -0.3023
  957poe     o2 7154   1.873   6.315   4.043 -0.3958 -0.1181 -0.1775
  957poe    c23 7155   1.979   6.389   4.099  0.0447 -0.3656 -0.6779
  957poe    c23 7156   2.033   6.330   4.230  0.0692  0.9990 -0.0586
  957poe     o2 7157   1.935   6.331   4.332  0.5207  0.4305  0.3958
  957poe    c23 7158   1.968   6.258   4.447  0.0832 -0.0985  0.1861
  957poe    c23 7159   1.891   6.339   4.553 -0.3675  0.0179 -0.2262
  957poe     o2 7160   1.753   6.329   4.525 -0.4026  0.2711 -0.1407
  957poe    c23 7161   1.666   6.362   4.632 -0.2130  0.3958 -0.0226
  957poe    c23 7162   1.527   6.353   4.566 -0.3327 -0.1212  0.2937
  957poe     o2 7163   1.537   6.415   4.439 -0.0119 -0.1372  0.3087
  957poe    c31 7164   1.406   6.403   4.388  0.1883  0.4269 -0.3551
  958poe    c31 7165   6.409   2.156   1.007  0.4533 -0.4652  0.1798
  958poe     o2 7166   6.537   2.103   0.979  0.2445 -0.6553 -0.4145
  958poe    c23 7167   6.595   2.182   0.878 -0.1997 -0.1354 -0.2646
  958poe    c23 7168   6.688   2.095   0.793  0.4282  0.1541  0.1165
  958poe     o2 7169   6.765   2.036   0.895  0.4856  0.3987  0.2151
  958poe    c23 7170   6.881   1.966   0.853  0.5029  0.4301  0.2107
  958poe    c23 7171   6.949   1.929   0.986  0.1094 -0.2491  0.2276
  958poe     o2 7172   6.863   1.864   1.077 -0.4231 -0.0319 -0.1163
  958poe    c23 7173   6.887   1.897   1.212  0.0195 -0.4120 -0.1016
  958poe    c23 7174   6.753   1.885   1.286 -0.0816 -0.2549 -0.2585
  958poe     o2 7175   6.663   1.973   1.222 -0.2231 -0.4575 -0.3399
  958poe    c31 7176   6.539   1.972   1.290 -0.0098  0.5495  0.0873
  959poe    c31 7177   5.071   3.028   5.975 -0.4644 -0.0705 -0.1034
  959poe     o2 7178   4.999   3.125   6.047  0.3946  0.1855  0.4314
  959poe    c23 7179   5.033   3.254   6.002 -0.2246  0.2607  0.1591
  959poe    c23 7180   4.967   3.365   6.087 -0.0587  0.3866  0.1258
  959poe     o2 7181   4.976   3.321   6.220 -0.5326 -0.0561  0.0199
  959poe    c23 7182   4.959   3.423   6.317 -0.6170  0.0060 -0.0606
  959poe    c23 7183   5.030   3.406   6.452 -0.1118  0.0615 -0.3154
  959poe     o2 7184   4.967   3.298   6.517  0.1494  0.1174  0.0356
  959poe    c23 7185   5.029   3.297   6.644 -0.4299 -0.5797  0.3231
  959poe    c23 7186   4.959   3.193   6.734 -0.3757 -0.6604  0.2730
  959poe     o2 7187   4.829   3.235   6.766 -0.2966 -0.1507 -0.0593
  959poe    c31 7188   4.765   3.140   6.848  0.0176  0.1299  0.5124
  960poe    c31 7189   2.524   6.727   6.672 -0.4528  0.1647  0.7879
  960poe     o2 7190   2.609   6.617   6.654 -0.1078  0.5974 -0.2584
  960poe    c23 7191   2.712   6.651   6.564  0.0409 -1.1649 -0.8076
  960poe    c23 7192   2.675   6.643   6.415 -0.2256  0.9251 -0.8897
  960poe     o2 7193   2.656   6.507   6.382  0.4821  0.5877  0.0617
  960poe    c23 7194   2.686   6.486   6.246  0.2314 -0.3481  0.1470
  960poe    c23 7195   2.639   6.349   6.193  0.7144 -0.2366 -0.5892
  960poe     o2 7196   2.682   6.239   6.271 -0.0892  0.0693  0.3123
  960poe    c23 7197   2.619   6.116   6.239  0.0957 -0.2218  1.0523
  960poe    c23 7198   2.683   6.015   6.336  0.3274 -0.4210  0.6921
  960poe     o2 7199   2.703   6.060   6.468  0.2841  0.2484  0.4742
  960poe    c31 7200   2.758   5.951   6.539  0.7348  0.2214  0.0907
  961poe    c31 7201   3.911   4.332   1.906 -0.4653  0.2607  0.3099
  961poe     o2 7202   3.970   4.256   2.010  0.2521 -0.3654 -0.5465
  961poe    c23 7203   3.924   4.322   2.125 -0.1897 -0.3397 -0.7371
  961poe    c23 7204   3.982   4.264   2.256 -0.6077 -0.1007 -0.4422
  961poe     o2 7205   4.111   4.235   2.208 -0.3097 -0.1930  0.4083
  961poe    c23 7206   4.183   4.181   2.317  0.1017 -0.5039 -0.0128
  961poe    c23 7207   4.315   4.143   2.247  0.3560  0.4204 -0.0468
  961poe     o2 7208   4.280   4.097   2.119 -0.0260 -0.1291  0.2506
  961poe    c23 7209   4.390   4.019   2.078 -0.0971 -0.1970  0.1878
  961poe    c23 7210   4.371   3.937   1.948  0.4680 -0.0710  0.0204
  961poe     o2 7211   4.350   4.025   1.840  0.1957 -0.1292  0.0239
  961poe    c31 7212   4.414   3.973   1.724 -0.3302 -0.1227 -0.2706
  962poe    c31 7213   4.051   1.390   4.324 -0.0437 -0.2151  0.3558
  962poe     o2 7214   3.954   1.401   4.222  0.1974 -0.6641  0.0690
  962poe    c23 7215   3.915   1.273   4.178  0.3622 -0.3718 -0.9480
  962poe    c23 7216   3.819   1.278   4.058 -0.3671  1.0490 -0.3260
  962poe     o2 7217   3.887   1.334   3.948  0.8811 -0.2342 -0.2433
  962poe    c23 7218   3.791   1.370   3.851  0.4323 -0.1900  0.2117
  962poe    c23 7219   3.844   1.351   3.708  0.2093 -0.3350  0.1489
  962poe     o2 7220   3.964   1.423   3.724  0.0425 -0.0039 -0.0664
  962poe    c23 7221   4.019   1.469   3.603  0.1163  0.2583  0.0665
  962poe    c23 7222   4.112   1.588   3.633  0.4828  0.0283 -0.1404
  962poe     o2 7223   4.184   1.541   3.745  0.0226  0.4938  0.3587
  962poe    c31 7224   4.307   1.607   3.763 -0.1173  0.9308 -0.2622
  963poe    c31 7225   6.391   2.787   2.462 -0.3566 -0.3543 -0.3260
  963poe     o2 7226   6.303   2.819   2.568 -0.1801  0.3171 -0.3782
  963poe    c23 7227   6.243   2.943   2.540 -0.1232  0.3474 -0.3675
  963poe    c23 7228   6.167   3.016   2.653  0.3313  0.1906  0.0399
  963poe     o2 7229   6.079   2.930   2.721  0.8960 -0.1237  0.3872
  963poe    c23 7230   6.022   3.000   2.830 -0.1290 -0.3848  0.0308
  963poe    c23 7231   5.950   2.908   2.931  0.0845 -0.5132  0.0657
  963poe     o2 7232   5.877   2.810   2.861 -0.1184 -0.2686 -0.0658
  963poe    c23 7233   5.813   2.718   2.946 -0.4103  0.1953  0.2136
  963poe    c23 7234   5.732   2.623   2.856  0.0264 -0.1282  0.1625
  963poe     o2 7235   5.804   2.594   2.738  0.1323  0.0939  0.1718
  963poe    c31 7236   5.711   2.531   2.654  0.5006 -0.7529  0.3890
  964poe    c31 7237   4.611   0.166   4.664  0.1563 -0.1057 -0.2839
  964poe     o2 7238   4.526   0.242   4.582  0.0910  0.1754  0.0400
  964poe    c23 7239   4.487   0.362   4.645 -0.3069  0.0981 -0.0553
  964poe    c23 7240   4.415   0.465   4.556 -0.1859 -0.1670 -0.4646
  964poe     o2 7241   4.503   0.521   4.461 -0.2957 -0.6457 -0.8454
  964poe    c23 7242   4.475   0.643   4.397 -0.3023 -0.3434 -0.2665
  964poe    c23 7243   4.373   0.629   4.282 -0.4904 -0.1813 -0.1203
  964poe     o2 7244   4.410   0.548   4.173 -0.2183 -0.0361 -0.1353
  964poe    c23 7245   4.475   0.628   4.077  0.1181 -0.2469 -0.0857
  964poe    c23 7246   4.621   0.578   4.072  0.2676  0.0358  0.9715
  964poe     o2 7247   4.612   0.442   4.033  0.5521  0.1834  0.3758
  964poe    c31 7248   4.724   0.389   3.966  1.0188  0.2820  1.0691
  965poe    c31 7249   0.273   5.910   6.287  0.3992 -0.9399 -0.3083
  965poe     o2 7250   0.322   5.959   6.409 -0.4246  0.1891 -0.4163
  965poe    c23 7251   0.368   6.092   6.397 -0.1915  0.1502  0.0170
  965poe    c23 7252   0.456   6.130   6.518  0.3244  0.0059 -0.3142
  965poe     o2 7253   0.374   6.121   6.632  0.2773  0.9736 -0.2661
  965poe    c23 7254   0.463   6.130   6.741 -0.0891  0.6189  0.0678
  965poe    c23 7255   0.389   6.209   6.850 -0.3146 -0.3056  0.5963
  965poe     o2 7256   0.254   6.173   6.835 -0.2676 -0.4122  0.4320
  965poe    c23 7257   0.151   6.241   6.902  0.1722  0.5917  0.1068
  965poe    c23 7258   0.029   6.146   6.900 -0.1767  1.0418 -0.2180
  965poe     o2 7259   0.013   6.092   6.771  0.0363  0.1499  0.1216
  965poe    c31 7260  -0.118   6.042   6.759 -0.1068  0.5103  0.1597
  966poe    c31 7261   3.886   1.084   5.978  0.3484  0.0791 -0.2967
  966poe     o2 7262   3.766   1.144   6.022  0.2961  0.1799 -0.5711
  966poe    c23 7263   3.724   1.226   5.916  0.1748  0.1490 -0.5479
  966poe    c23 7264   3.581   1.274   5.948  0.2117 -0.0971 -0.0159
  966poe     o2 7265   3.522   1.175   6.030  0.1937 -0.3100 -0.2820
  966poe    c23 7266   3.397   1.222   6.077  0.1477 -0.4870 -0.2287
  966poe    c23 7267   3.348   1.130   6.190  0.2933 -0.1026  0.1492
  966poe     o2 7268   3.464   1.066   6.239  0.3345 -0.1814 -0.0503
  966poe    c23 7269   3.446   0.941   6.301  0.7124 -0.4309 -0.4378
  966poe    c23 7270   3.590   0.920   6.352  0.4086 -0.6557  0.3495
  966poe     o2 7271   3.686   0.970   6.262  0.0807 -0.0987  0.3080
  966poe    c31 7272   3.814   0.946   6.314  0.0958 -0.3986  0.1369
  967poe    c31 7273   2.440   5.840   2.332 -0.3649 -0.4731 -0.3298
  967poe     o2 7274   2.501   5.739   2.409  0.1504 -0.2216 -0.4063
  967poe    c23 7275   2.601   5.815   2.474  0.1853 -0.5528 -0.0706
  967poe    c23 7276   2.695   5.722   2.554  0.6474 -0.1289 -0.1173
  967poe     o2 7277   2.622   5.650   2.651  0.4139  0.4171  0.1186
  967poe    c23 7278   2.719   5.571   2.718  0.1346 -0.1369 -0.1263
  967poe    c23 7279   2.626   5.463   2.776 -0.2115  0.1392 -0.1610
  967poe     o2 7280   2.516   5.534   2.827 -0.5944 -0.3317 -0.3174
  967poe    c23 7281   2.407   5.455   2.869 -0.3290 -0.3506  0.3406
  967poe    c23 7282   2.292   5.544   2.920 -0.2912  0.0326 -0.2325
  967poe     o2 7283   2.248   5.617   2.808 -0.2044 -0.1919 -0.4127
  967poe    c31 7284   2.157   5.721   2.837 -0.0933 -0.2307  0.0808
  968poe    c31 7285   6.738   2.751   4.120  0.2759 -0.0721  0.0955
  968poe     o2 7286   6.809   2.652   4.049  0.5735  0.4633 -0.3672
  968poe    c23 7287   6.892   2.576   4.135 -0.3536 -0.1088  0.0377
  968poe    c23 7288   7.000   2.500   4.056  0.0114 -0.1652  0.5898
  968poe     o2 7289   6.962   2.389   3.979  0.0417 -0.2480  0.6932
  968poe    c23 7290   7.074   2.325   3.922 -0.1724  0.3884 -0.4828
  968poe    c23 7291   7.026   2.212   3.831  0.3861 -0.4230  0.2095
  968poe     o2 7292   6.972   2.287   3.724  0.7495 -0.5252 -0.0460
  968poe    c23 7293   6.939   2.199   3.619 -0.3449 -0.1035 -0.0578
  968poe    c23 7294   6.869   2.292   3.518 -0.1230  0.0206 -0.0981
  968poe     o2 7295   6.764   2.362   3.581 -0.3273 -0.2314 -0.1529
  968poe    c31 7296   6.699   2.440   3.483  0.1972  0.4386  0.0301
  969poe    c31 7297   5.297   4.219   6.682  0.0152  0.3353 -0.0684
  969poe     o2 7298   5.430   4.203   6.637 -0.0819 -0.4198 -0.0925
  969poe    c23 7299   5.499   4.124   6.731  0.2089 -0.0975 -0.0345
  969poe    c23 7300   5.635   4.096   6.666  0.2296 -0.2561  0.0758
  969poe     o2 7301   5.626   4.089   6.525  0.1486  0.3068  0.0522
  969poe    c23 7302   5.740   4.086   6.442  0.0345 -0.0414 -0.0936
  969poe    c23 7303   5.690   4.102   6.297 -0.2237 -0.0619 -0.0074
  969poe     o2 7304   5.589   4.200   6.292 -0.3931 -0.2209  0.2664
  969poe    c23 7305   5.511   4.219   6.176 -0.6398 -0.1982  0.4361
  969poe    c23 7306   5.412   4.330   6.216 -0.4138  0.3480 -0.4805
  969poe     o2 7307   5.354   4.292   6.339  0.5769  0.0936 -0.0820
  969poe    c31 7308   5.252   4.381   6.379  0.1098 -0.7669  0.6887
  970poe    c31 7309   3.077   4.994   0.327 -0.3925 -0.1525  0.0725
  970poe     o2 7310   3.118   4.861   0.349  0.4674  0.1611  0.3877
  970poe    c23 7311   3.216   4.818   0.258  0.1185  0.3546 -0.0812
  970poe    c23 7312   3.217   4.664   0.258  0.5678  0.3549  0.1236
  970poe     o2 7313   3.241   4.616   0.388  0.1700  0.5268  0.2638
  970poe    c23 7314   3.204   4.481   0.401  0.0529  0.5028 -0.3146
  970poe    c23 7315   3.199   4.474   0.555  0.1390  0.1044 -0.3273
  970poe     o2 7316   3.127   4.582   0.610  0.2926  0.0941 -0.1063
  970poe    c23 7317   3.128   4.610   0.748  0.2922 -0.2545 -0.0353
  970poe    c23 7318   3.248   4.706   0.768 -0.1391  0.1283  0.7860
  970poe     o2 7319   3.251   4.787   0.652  0.5528 -0.8804  0.0831
  970poe    c31 7320   3.372   4.859   0.644 -0.2049  0.4228  0.1726
  971poe    c31 7321   4.496   4.936   1.499  0.0316  0.5099  0.2776
  971poe     o2 7322   4.575   4.913   1.384 -0.7062  0.5580 -0.2423
  971poe    c23 7323   4.673   5.013   1.368  0.0295  0.0144  0.7677
  971poe    c23 7324   4.791   4.955   1.286 -0.0385  0.6013  0.2497
  971poe     o2 7325   4.724   4.877   1.190  0.5239 -0.1833  0.4852
  971poe    c23 7326   4.808   4.826   1.090 -0.2424  0.2770 -0.4074
  971poe    c23 7327   4.709   4.797   0.976  0.0768  0.1324 -0.6510
  971poe     o2 7328   4.590   4.755   1.038  0.1612  0.3095 -0.3674
  971poe    c23 7329   4.566   4.616   1.037 -0.1536  0.3612 -0.2181
  971poe    c23 7330   4.439   4.598   1.122  0.0057 -0.1995 -0.0969
  971poe     o2 7331   4.466   4.668   1.242 -0.7364  0.2995 -0.2163
  971poe    c31 7332   4.379   4.623   1.343 -0.0037  0.2299  0.3933
  972poe    c31 7333   5.950   5.147   0.283 -0.1293  0.4297 -0.0052
  972poe     o2 7334   6.019   5.104   0.398  0.6397  0.0145 -0.6096
  972poe    c23 7335   6.111   5.200   0.446  0.2624  0.0493  0.0662
  972poe    c23 7336   6.167   5.149   0.579  0.1286  0.2268  0.1911
  972poe     o2 7337   6.046   5.125   0.648  0.1427 -0.1285  0.0982
  972poe    c23 7338   6.072   5.086   0.781 -0.1993  0.4497  0.3382
  972poe    c23 7339   5.953   5.007   0.838  0.8715 -1.1141  0.4588
  972poe     o2 7340   5.903   4.910   0.749 -0.0505 -0.3572  0.1399
  972poe    c23 7341   5.787   4.850   0.802  0.2292 -0.6047  0.4684
  972poe    c23 7342   5.793   4.697   0.786 -0.2552 -0.5987  0.2250
  972poe     o2 7343   5.779   4.657   0.651  0.6074 -0.4716  0.0941
  972poe    c31 7344   5.789   4.517   0.640 -0.1938 -0.5555  0.3537
  973poe    c31 7345   0.833   3.741   4.395 -0.0609 -0.2530  0.3233
  973poe     o2 7346   0.896   3.643   4.315  0.3716  0.1106  0.2146
  973poe    c23 7347   0.998   3.704   4.239  0.3293 -0.4101 -0.2715
  973poe    c23 7348   1.107   3.608   4.190  0.4649  0.0424 -0.8637
  973poe     o2 7349   1.041   3.487   4.162  0.3288 -0.0984  0.0509
  973poe    c23 7350   1.129   3.391   4.107 -0.4182 -0.5647 -0.3451
  973poe    c23 7351   1.059   3.257   4.140 -0.5161 -0.2713  0.6765
  973poe     o2 7352   0.937   3.251   4.071  0.1774  0.3855 -0.6464
  973poe    c23 7353   0.869   3.128   4.085  0.0258  0.5477  0.0814
  973poe    c23 7354   0.718   3.132   4.055  0.0997  0.8971 -0.2604
  973poe     o2 7355   0.647   3.211   4.148 -0.6052 -0.6895  0.5924
  973poe    c31 7356   0.512   3.233   4.112 -0.4081 -0.3140  0.0733
  974poe    c31 7357   4.301   1.111   5.420 -0.0568  0.3033  0.1980
  974poe     o2 7358   4.181   1.089   5.351 -0.5544 -0.0868  1.1706
  974poe    c23 7359   4.112   1.210   5.329  0.4050  0.1200 -1.0075
  974poe    c23 7360   3.962   1.186   5.309  0.3868 -0.0946 -0.6217
  974poe     o2 7361   3.930   1.096   5.205 -0.3774 -0.4600 -0.0840
  974poe    c23 7362   3.796   1.053   5.204 -0.6184  0.2501  0.3569
  974poe    c23 7363   3.766   1.003   5.061 -0.5921 -0.2948  0.5380
  974poe     o2 7364   3.864   0.911   5.022 -0.3099  0.2854 -0.1427
  974poe    c23 7365   3.850   0.860   4.891  0.3168  0.2185 -0.1882
  974poe    c23 7366   3.944   0.739   4.878 -0.1313 -0.1344 -0.1349
  974poe     o2 7367   4.064   0.769   4.944 -0.1618 -0.2203 -0.0383
  974poe    c31 7368   4.165   0.671   4.932  0.1336  0.0184  0.4652
  975poe    c31 7369   1.981   4.196   4.331  0.6520  0.1179 -0.1454
  975poe     o2 7370   1.881   4.149   4.418  1.1061 -0.2165  0.2044
  975poe    c23 7371   1.790   4.256   4.430  0.2074 -1.0320  0.8800
  975poe    c23 7372   1.656   4.202   4.483 -0.5933 -0.3706 -0.4034
  975poe     o2 7373   1.685   4.103   4.579  0.0492 -0.1357 -0.3476
  975poe    c23 7374   1.574   4.076   4.662 -0.0274 -0.0865 -0.4336
  975poe    c23 7375   1.606   3.980   4.779 -0.4964  0.1404 -0.1186
  975poe     o2 7376   1.713   4.041   4.847 -0.1117 -0.4166 -0.2276
  975poe    c23 7377   1.761   3.963   4.954 -0.1064  0.0394  0.1056
  975poe    c23 7378   1.901   4.002   5.005 -0.0282  0.3405 -0.3349
  975poe     o2 7379   1.993   4.016   4.899  0.3365  0.5437  0.0010
  975poe    c31 7380   2.123   4.004   4.951  0.1057  0.1175  0.4848
  976poe    c31 7381   6.425   3.445   1.416 -0.2634 -0.3454 -0.1264
  976poe     o2 7382   6.295   3.491   1.442 -0.0938 -0.0804  0.2670
  976poe    c23 7383   6.269   3.616   1.383 -0.0095 -0.1896 -0.0023
  976poe    c23 7384   6.127   3.664   1.418  0.2458  0.8110 -0.2825
  976poe     o2 7385   6.114   3.637   1.556  0.5146  0.2010 -0.3710
  976poe    c23 7386   5.979   3.658   1.593  0.4732 -0.4585 -0.1294
  976poe    c23 7387   5.973   3.658   1.747 -0.0347 -0.2991 -0.1455
  976poe     o2 7388   6.029   3.537   1.795  0.1516 -0.2596 -0.2627
  976poe    c23 7389   5.984   3.508   1.925 -0.3567 -0.0717 -0.3957
  976poe    c23 7390   5.997   3.355   1.940 -0.1974 -0.0258 -0.0639
  976poe     o2 7391   6.130   3.307   1.937 -0.0385  0.4245 -0.4880
  976poe    c31 7392   6.146   3.168   1.959  0.5720  0.5711  0.0020
  977poe    c31 7393   2.278   5.669   0.779  0.1361 -0.1211 -0.5394
  977poe     o2 7394   2.343   5.784   0.827 -0.2031 -0.2132  0.1511
  977poe    c23 7395   2.481   5.767   0.805 -0.1380 -0.2449  0.5750
  977poe    c23 7396   2.561   5.896   0.827 -0.7382  0.3328 -0.5572
  977poe     o2 7397   2.481   5.977   0.911  0.3128  0.3955  0.4016
  977poe    c23 7398   2.515   6.114   0.916 -0.2298  0.5583 -0.3084
  977poe    c23 7399   2.438   6.162   1.040  0.1539 -0.1079  0.1944
  977poe     o2 7400   2.300   6.158   1.011  0.2655 -0.2752 -0.3305
  977poe    c23 7401   2.208   6.228   1.092  0.3327 -0.0830 -0.4204
  977poe    c23 7402   2.060   6.215   1.052  0.1900 -0.2161  0.1368
  977poe     o2 7403   2.027   6.078   1.059 -0.1790 -0.1240  0.1818
  977poe    c31 7404   1.896   6.079   1.006 -0.0697 -0.5659 -0.0996
  978poe    c31 7405   3.017   5.705   6.276  0.0547  0.0034 -0.1929
  978poe     o2 7406   3.089   5.607   6.348  0.1546  0.0261 -0.2613
  978poe    c23 7407   3.180   5.667   6.436  0.3574 -0.7334  0.0459
  978poe    c23 7408   3.279   5.574   6.510  0.5239  0.0526  0.8303
  978poe     o2 7409   3.354   5.506   6.412  0.2479  0.5993  0.2353
  978poe    c23 7410   3.444   5.420   6.477  0.1537  0.0459 -0.3477
  978poe    c23 7411   3.495   5.318   6.373 -0.0235 -0.3885 -0.0109
  978poe     o2 7412   3.395   5.236   6.318 -0.3960  0.0186  0.0490
  978poe    c23 7413   3.456   5.160   6.216  0.0862  0.9035 -0.3369
  978poe    c23 7414   3.337   5.089   6.148  0.2616  0.5068 -0.2340
  978poe     o2 7415   3.249   5.184   6.093 -0.2553 -0.1320 -0.5312
  978poe    c31 7416   3.159   5.130   5.999 -0.1807 -0.3124 -0.4975
  979poe    c31 7417   1.413   1.915   6.119 -0.0276 -0.4931 -0.6080
  979poe     o2 7418   1.452   1.871   6.247 -0.2306  0.2753 -0.2746
  979poe    c23 7419   1.413   1.960   6.349  0.5282  0.4363 -0.1176
  979poe    c23 7420   1.514   2.055   6.416  0.6854  0.0705  0.1611
  979poe     o2 7421   1.545   2.001   6.543 -0.2077  0.2105  0.4490
  979poe    c23 7422   1.623   2.093   6.617 -0.0339  0.0612  0.4511
  979poe    c23 7423   1.706   2.023   6.727  0.6389  0.3172  0.1141
  979poe     o2 7424   1.611   1.950   6.801  0.4560  0.6944  0.2554
  979poe    c23 7425   1.670   1.913   6.923 -0.1055  0.4883  0.4678
  979poe    c23 7426   1.557   1.859   7.013 -0.0700 -0.4599 -0.0440
  979poe     o2 7427   1.458   1.803   6.929 -0.0627  0.0345 -0.3849
  979poe    c31 7428   1.349   1.770   7.013  0.5719 -0.4052  0.2785
  980poe    c31 7429   3.465   0.048   2.234  0.0849 -0.0185  0.0787
  980poe     o2 7430   3.538   0.152   2.297  0.2879 -0.2970  0.3057
  980poe    c23 7431   3.484   0.274   2.251  0.1755 -0.3999  0.1634
  980poe    c23 7432   3.548   0.401   2.310 -0.1294 -0.0059 -0.3525
  980poe     o2 7433   3.678   0.407   2.256  0.2594  0.5611  0.6163
  980poe    c23 7434   3.732   0.537   2.259  0.8797  0.3291  0.0028
  980poe    c23 7435   3.877   0.527   2.310  0.8208  0.7654  0.2672
  980poe     o2 7436   3.929   0.435   2.217 -0.0230 -0.0309  0.5673
  980poe    c23 7437   4.061   0.397   2.248 -0.1163 -0.3108  0.6311
  980poe    c23 7438   4.107   0.308   2.132  0.0535  0.9257 -0.2740
  980poe     o2 7439   4.008   0.212   2.100  0.4753  0.3029  0.2763
  980poe    c31 7440   4.061   0.111   2.017  0.1850 -0.0553  0.5206
  981poe    c31 7441   4.426   2.135   3.760 -0.0181 -0.2562  0.2395
  981poe     o2 7442   4.286   2.117   3.750 -0.0931  0.2900  0.3047
  981poe    c23 7443   4.245   2.011   3.832 -0.3899  0.2870  0.1514
  981poe    c23 7444   4.146   1.927   3.749  0.0626 -0.3669  0.2662
  981poe     o2 7445   4.064   2.025   3.690  0.1215 -0.6539 -0.3021
  981poe    c23 7446   3.938   1.973   3.653 -0.0084 -0.4312 -0.1773
  981poe    c23 7447   3.879   2.104   3.599 -0.3398 -0.5342 -0.0639
  981poe     o2 7448   3.975   2.146   3.505 -0.5867 -0.0241 -0.0941
  981poe    c23 7449   3.972   2.282   3.467 -0.5799  0.0847  0.2892
  981poe    c23 7450   4.024   2.381   3.572 -0.0424  0.4083 -0.2771
  981poe     o2 7451   4.140   2.324   3.628 -0.3498  0.4302  0.4007
  981poe    c31 7452   4.216   2.424   3.691  0.5073  0.0572 -0.0191
  982poe    c31 7453   6.036   4.206   0.668  0.2665 -0.3691 -0.3298
  982poe     o2 7454   5.978   4.126   0.568  0.1661 -0.2915 -0.3330
  982poe    c23 7455   6.008   4.172   0.439  0.0044  0.6296 -0.0490
  982poe    c23 7456   5.915   4.116   0.330 -0.2659  0.3772  0.3122
  982poe     o2 7457   5.888   3.987   0.382  0.4035  0.1226  0.0382
  982poe    c23 7458   5.789   3.925   0.302 -0.2404  0.1292  0.8218
  982poe    c23 7459   5.768   3.784   0.361 -0.2032 -0.0043  0.5160
  982poe     o2 7460   5.762   3.799   0.501  0.5725  0.4042  0.5123
  982poe    c23 7461   5.630   3.818   0.549  0.2719 -0.4495  0.0400
  982poe    c23 7462   5.659   3.880   0.687 -0.5052 -0.0848  0.0435
  982poe     o2 7463   5.743   3.994   0.687 -0.3884 -0.1701 -0.0619
  982poe    c31 7464   5.739   4.059   0.812 -0.6960 -0.0825 -0.1149
  983poe    c31 7465   4.381   3.435   3.016 -0.5253  0.6745 -0.1065
  983poe     o2 7466   4.492   3.454   2.930 -0.3191  0.1007  0.0296
  983poe    c23 7467   4.457   3.483   2.797  0.1897  0.2373 -0.0759
  983poe    c23 7468   4.579   3.529   2.715 -0.1213  0.3970 -0.4538
  983poe     o2 7469   4.687   3.439   2.717 -0.1232  0.4005 -0.0145
  983poe    c23 7470   4.754   3.442   2.592 -0.3489 -0.2509 -0.1549
  983poe    c23 7471   4.870   3.341   2.605 -0.0473  0.1308  0.1297
  983poe     o2 7472   4.898   3.305   2.738 -0.0177  0.0420  0.0998
  983poe    c23 7473   5.024   3.247   2.763  0.0117  0.0905  0.0606
  983poe    c23 7474   5.057   3.191   2.902  0.0760  0.3672  0.1560
  983poe     o2 7475   4.962   3.091   2.932  0.8129 -0.3003  0.2883
  983poe    c31 7476   4.981   3.054   3.066 -0.1147 -0.2935  0.4229
  984poe    c31 7477   2.239   0.832   0.065 -0.5065  0.2877 -0.1649
  984poe     o2 7478   2.154   0.748   0.140 -0.1513  0.0665 -0.0056
  984poe    c23 7479   2.172   0.609   0.130  0.2525  0.1681 -0.7414
  984poe    c23 7480   2.050   0.544   0.062 -0.0491 -0.0991  0.0489
  984poe     o2 7481   1.947   0.601   0.140  0.1466  0.5109 -0.1284
  984poe    c23 7482   1.826   0.580   0.070  0.0388 -0.5820  0.3656
  984poe    c23 7483   1.736   0.704   0.084  0.3524 -0.2589 -0.4297
  984poe     o2 7484   1.814   0.820   0.070  0.0238  0.0411  0.1983
  984poe    c23 7485   1.747   0.940   0.102 -0.0923 -0.0303  0.2222
  984poe    c23 7486   1.862   1.038   0.134  0.1402 -0.1815 -0.1398
  984poe     o2 7487   1.967   0.962   0.190  0.2278 -0.1349 -0.2411
  984poe    c31 7488   2.031   1.045   0.284 -0.3146 -0.3936  0.3681
  985poe    c31 7489   5.308   0.280   1.447 -0.6321 -0.6005 -0.2052
  985poe     o2 7490   5.282   0.366   1.555  0.1034 -0.2520 -0.2986
  985poe    c23 7491   5.376   0.359   1.660 -0.1132  0.1243 -0.0764
  985poe    c23 7492   5.346   0.469   1.763  0.2883 -0.3456  0.5495
  985poe     o2 7493   5.205   0.465   1.756  0.3109 -0.5465  0.1842
  985poe    c23 7494   5.154   0.573   1.831 -0.0183 -1.0793  0.7418
  985poe    c23 7495   5.005   0.573   1.793  0.0577 -0.1651  0.4108
  985poe     o2 7496   4.985   0.526   1.662  0.0645  0.1481  0.2979
  985poe    c23 7497   4.925   0.628   1.586 -0.1509  0.0348  0.3169
  985poe    c23 7498   4.920   0.576   1.441 -0.1148 -0.4118  0.4776
  985poe     o2 7499   5.043   0.509   1.420 -0.3923 -0.9727  0.6019
  985poe    c31 7500   5.037   0.449   1.293 -0.0416 -0.2554  0.2407
  986poe    c31 7501   4.517   4.609   5.263 -0.1725  0.3642 -0.0603
  986poe     o2 7502   4.653   4.622   5.294 -0.3578  0.3963  0.7616
  986poe    c23 7503   4.686   4.511   5.374  0.3002 -0.2165 -0.3278
  986poe    c23 7504   4.829   4.538   5.425  0.0305  0.3730  0.1195
  986poe     o2 7505   4.856   4.665   5.481  0.2268  0.3179  0.1492
  986poe    c23 7506   4.769   4.722   5.576  0.0051  0.0872  0.0883
  986poe    c23 7507   4.732   4.869   5.551 -0.3283  0.0576  0.4049
  986poe     o2 7508   4.709   4.887   5.413  0.0900  0.0808  0.3362
  986poe    c23 7509   4.709   5.024   5.379 -0.4261  0.1405  0.5636
  986poe    c23 7510   4.638   5.041   5.243  0.7753  0.3566 -0.0477
  986poe     o2 7511   4.638   4.919   5.172 -0.1540  0.0495  0.4681
  986poe    c31 7512   4.563   4.930   5.053  0.4600  0.1857  0.0881
  987poe    c31 7513   5.875   2.013   2.853 -0.0938  0.1008  0.7091
  987poe     o2 7514   5.988   2.097   2.858 -0.3324  0.4338  0.5349
  987poe    c23 7515   6.081   2.057   2.956  0.4263  0.0998 -0.2999
  987poe    c23 7516   6.196   2.160   2.961  0.4420  0.0695 -0.0086
  987poe     o2 7517   6.228   2.191   2.827  0.1705 -0.6212 -0.2395
  987poe    c23 7518   6.334   2.284   2.817 -0.1278 -0.2381  0.1194
  987poe    c23 7519   6.349   2.312   2.666 -0.0274  0.0714  0.1862
  987poe     o2 7520   6.224   2.357   2.619 -0.0701  0.0328  0.2634
  987poe    c23 7521   6.252   2.383   2.483  0.6633 -0.2109  0.3658
  987poe    c23 7522   6.118   2.417   2.416  0.7625  0.1183  0.3338
  987poe     o2 7523   6.068   2.544   2.450  0.0999  0.0837 -0.4715
  987poe    c31 7524   6.059   2.618   2.330 -0.2417  0.5447 -0.1683
  988poe    c31 7525   2.977   0.413   5.940  0.1206 -0.0498 -0.4436
  988poe     o2 7526   2.906   0.292   5.946  0.1279 -0.0609 -0.5770
  988poe    c23 7527   2.940   0.233   6.069 -0.6431  0.3208 -0.1745
  988poe    c23 7528   2.848   0.114   6.102  0.6901 -0.6038  0.2987
  988poe     o2 7529   2.859   0.000   6.018  0.0772 -0.2803 -0.2328
  988poe    c23 7530   2.966  -0.086   6.050  0.1426 -0.2797 -0.4503
  988poe    c23 7531   2.994  -0.196   5.946  0.2462 -0.4488 -0.2428
  988poe     o2 7532   2.944  -0.149   5.824  0.3571 -0.7638 -0.4129
  988poe    c23 7533   2.930  -0.250   5.726  0.7073 -0.9137 -0.3067
  988poe    c23 7534   2.883  -0.175   5.601 -0.2559 -0.1968  0.4674
  988poe     o2 7535   2.778  -0.084   5.628 -0.4829 -0.4922  0.5738
  988poe    c31 7536   2.718  -0.060   5.503 -0.4750 -0.5076  0.5670
  989poe    c31 7537   1.276   3.004   2.011 -0.5034 -0.1130 -0.3802
  989poe     o2 7538   1.162   3.060   2.071 -0.0593 -0.0340  0.3956
  989poe    c23 7539   1.165   3.200   2.079 -0.1879  0.0325 -0.6303
  989poe    c23 7540   1.101   3.243   2.213 -0.1574 -0.3683 -0.4880
  989poe     o2 7541   0.983   3.166   2.211 -0.1269 -0.4190 -0.3025
  989poe    c23 7542   0.921   3.169   2.338  0.1925 -0.4597 -0.1438
  989poe    c23 7543   0.785   3.103   2.308  0.0545 -0.1514 -0.2033
  989poe     o2 7544   0.815   2.986   2.235 -0.2033 -0.2159 -0.2063
  989poe    c23 7545   0.810   2.867   2.310 -0.2670 -0.0403  0.0688
  989poe    c23 7546   0.866   2.763   2.212  0.4465  0.0600  0.3598
  989poe     o2 7547   0.971   2.823   2.139  0.0398  0.0190 -0.2694
  989poe    c31 7548   0.998   2.749   2.022  0.0426  0.2573 -0.4196
  990poe    c31 7549   3.904   6.674   5.794  0.2689  1.0120  0.7801
  990poe     o2 7550   4.012   6.680   5.703 -0.3911  0.2622 -0.0754
  990poe    c23 7551   4.060   6.812   5.719 -0.5711  0.3064  0.1151
  990poe    c23 7552   4.174   6.851   5.623 -0.7073 -0.1115 -0.2215
  990poe     o2 7553   4.283   6.762   5.630 -0.0561  0.7082  0.2419
  990poe    c23 7554   4.395   6.826   5.573  0.0883  0.4181  0.1991
  990poe    c23 7555   4.525   6.744   5.585 -0.0570  0.0411 -0.6831
  990poe     o2 7556   4.483   6.609   5.579 -0.3163  0.0737  0.1944
  990poe    c23 7557   4.594   6.524   5.592 -0.4488 -0.1217  0.0487
  990poe    c23 7558   4.562   6.373   5.599 -0.6786 -0.0643  0.2174
  990poe     o2 7559   4.487   6.326   5.489 -0.3105  0.5340 -0.2971
  990poe    c31 7560   4.459   6.188   5.490  0.1094  0.4496  0.0891
  991poe    c31 7561   2.650   1.929   1.092  0.2144  0.9214  0.0437
  991poe     o2 7562   2.609   1.854   1.204 -0.4915  0.7392 -0.3311
  991poe    c23 7563   2.658   1.938   1.306  0.0822  0.4158 -0.3390
  991poe    c23 7564   2.661   1.863   1.441  0.1705  0.5199 -0.2827
  991poe     o2 7565   2.633   1.726   1.423  0.2523  0.3951  0.5077
  991poe    c23 7566   2.557   1.671   1.529 -0.0597 -0.2020 -0.0149
  991poe    c23 7567   2.410   1.702   1.495 -0.1071 -0.2775  0.1210
  991poe     o2 7568   2.407   1.663   1.359 -0.0668 -0.6342  0.2224
  991poe    c23 7569   2.288   1.703   1.297  0.3305 -0.0606 -0.1852
  991poe    c23 7570   2.301   1.649   1.153  0.1963 -0.1048 -0.1813
  991poe     o2 7571   2.421   1.701   1.100  0.4462 -0.4287  0.0625
  991poe    c31 7572   2.449   1.641   0.975  0.6773 -0.8561  0.3142
  992poe    c31 7573   2.447   4.275   4.351 -0.4109 -0.0083 -0.8075
  992poe     o2 7574   2.496   4.143   4.348  0.3675  0.2506  0.2479
  992poe    c23 7575   2.389   4.054   4.372  0.5075  0.0174  0.0130
  992poe    c23 7576   2.451   3.914   4.388  0.3919 -0.0561 -0.1838
  992poe     o2 7577   2.548   3.896   4.489 -0.2688 -0.2765  0.4190
  992poe    c23 7578   2.601   3.766   4.476 -0.3650 -0.3334  0.5952
  992poe    c23 7579   2.704   3.727   4.583  0.0196 -0.0381  0.3355
  992poe     o2 7580   2.814   3.813   4.564  0.1336 -0.1947  0.2779
  992poe    c23 7581   2.928   3.771   4.634  0.4775  0.0209 -0.1477
  992poe    c23 7582   3.042   3.865   4.591  0.2539  0.2366 -0.2646
  992poe     o2 7583   2.983   3.992   4.570  0.1485  0.2327 -0.0018
  992poe    c31 7584   3.071   4.097   4.537  0.2313 -0.0159 -0.5841
  993poe    c31 7585   1.044   2.003   0.873  0.2731 -0.0137  0.1471
  993poe     o2 7586   0.945   2.079   0.940  0.1443 -0.0578  0.0074
  993poe    c23 7587   0.923   2.197   0.866 -0.1437 -0.3737 -0.4140
  993poe    c23 7588   0.842   2.292   0.955  0.3810 -0.6543  0.3680
  993poe     o2 7589   0.717   2.234   0.983  0.1094 -0.2270  0.0420
  993poe    c23 7590   0.629   2.339   1.018 -0.1549 -0.1070 -0.9381
  993poe    c23 7591   0.501   2.271   1.070  0.0600  0.7593  0.7735
  993poe     o2 7592   0.530   2.168   1.162 -0.3486 -0.4649 -0.4452
  993poe    c23 7593   0.408   2.120   1.216 -0.3764 -0.0119 -0.0986
  993poe    c23 7594   0.430   1.975   1.264 -0.3549  0.1930  0.5120
  993poe     o2 7595   0.569   1.970   1.289 -0.2818  0.2466  0.1156
  993poe    c31 7596   0.604   1.837   1.320 -0.6440  0.0471 -0.3071
  994poe    c31 7597   6.655   4.342   4.436  0.0558  0.4472  0.2577
  994poe     o2 7598   6.515   4.331   4.454  0.1073  0.1296  0.4858
  994poe    c23 7599   6.475   4.261   4.569 -0.1887 -0.2237  0.1690
  994poe    c23 7600   6.329   4.217   4.593 -0.5652  0.9003  0.0106
  994poe     o2 7601   6.271   4.170   4.473 -0.0806  0.4117 -0.0376
  994poe    c23 7602   6.136   4.157   4.510  0.0731 -0.6140  0.2149
  994poe    c23 7603   6.042   4.081   4.414  0.0530 -0.2187 -0.0817
  994poe     o2 7604   6.066   4.147   4.291  0.2176  0.6361  0.4003
  994poe    c23 7605   5.965   4.099   4.205  0.0457  0.2892  0.7865
  994poe    c23 7606   5.989   4.189   4.082 -0.2682 -0.8698 -0.1423
  994poe     o2 7607   6.128   4.191   4.056 -0.2374 -0.0406  0.0365
  994poe    c31 7608   6.157   4.282   3.953  0.0296 -0.3911 -0.1988
  995poe    c31 7609   5.442   0.274   1.024  0.4664  0.2853 -0.3320
  995poe     o2 7610   5.422   0.359   0.913 -0.0209  0.2608 -0.2639
  995poe    c23 7611   5.510   0.469   0.919 -0.3016  0.4651  0.0840
  995poe    c23 7612   5.496   0.532   0.779  0.5271  0.1927 -0.1214
  995poe     o2 7613   5.545   0.440   0.684 -0.0379 -0.2957  0.0558
  995poe    c23 7614   5.532   0.491   0.553 -0.2593 -0.1498  0.1328
  995poe    c23 7615   5.595   0.391   0.454 -0.3600 -0.1323  0.0508
  995poe     o2 7616   5.543   0.262   0.475 -0.3351 -0.2346 -0.4863
  995poe    c23 7617   5.591   0.153   0.399  0.4437 -0.0364 -0.2880
  995poe    c23 7618   5.515   0.027   0.443  0.3759 -0.1401 -0.6989
  995poe     o2 7619   5.545   0.027   0.581  0.1866 -0.1177 -0.6578
  995poe    c31 7620   5.501  -0.093   0.641  0.6591 -0.0918 -0.2576
  996poe    c31 7621   5.113   6.247   6.564 -0.4085 -0.6242 -0.2879
  996poe     o2 7622   5.215   6.157   6.527  0.3385  0.1735 -0.2093
  996poe    c23 7623   5.328   6.236   6.553  0.4647  0.0918 -0.5038
  996poe    c23 7624   5.457   6.151   6.554  0.1066 -0.4541  0.2717
  996poe     o2 7625   5.454   6.066   6.442 -0.6150  0.0634 -0.1102
  996poe    c23 7626   5.568   5.983   6.435 -0.5865  0.0711  0.2467
  996poe    c23 7627   5.584   5.914   6.298  0.0882 -0.1903  0.4543
  996poe     o2 7628   5.472   5.837   6.262  0.3579 -0.1792 -0.4390
  996poe    c23 7629   5.466   5.707   6.316  0.3621  0.1567  0.3901
  996poe    c23 7630   5.341   5.630   6.270  0.1402  0.2985  0.7543
  996poe     o2 7631   5.227   5.692   6.324  0.0153  0.3782  0.3980
  996poe    c31 7632   5.106   5.628   6.290  0.2434  0.3016 -0.2912
  997poe    c31 7633   4.857   2.560   4.230 -0.6833 -0.0687 -0.4621
  997poe     o2 7634   4.993   2.526   4.240 -0.8099 -0.4542  0.0244
  997poe    c23 7635   5.045   2.482   4.116  0.0242  0.3318  0.0857
  997poe    c23 7636   5.194   2.446   4.127 -0.3002 -0.8882  0.6100
  997poe     o2 7637   5.256   2.530   4.222  0.0845  0.0565 -0.4589
  997poe    c23 7638   5.396   2.536   4.204  0.0994  0.1755 -0.2979
  997poe    c23 7639   5.465   2.600   4.326 -0.7176 -0.2212  0.3826
  997poe     o2 7640   5.416   2.730   4.352 -0.3555 -0.0360  0.1348
  997poe    c23 7641   5.464   2.781   4.474 -0.0614  0.1571 -0.0613
  997poe    c23 7642   5.412   2.924   4.500 -0.3865  0.0587 -0.1715
  997poe     o2 7643   5.271   2.923   4.498 -0.3855  0.0057 -0.2610
  997poe    c31 7644   5.228   3.057   4.507  0.0555  0.0921  0.5873
  998poe    c31 7645   0.786   1.142   4.153 -0.0930  0.4476 -0.5562
  998poe     o2 7646   0.681   1.233   4.132 -0.8212 -0.2571 -0.0275
  998poe    c23 7647   0.593   1.158   4.051  0.0069 -0.1637 -1.0360
  998poe    c23 7648   0.466   1.244   4.052  0.0895 -0.0316  0.5760
  998poe     o2 7649   0.507   1.379   4.042  0.1481 -0.1042 -0.2237
  998poe    c23 7650   0.403   1.474   4.037  0.3306  0.0889 -0.3197
  998poe    c23 7651   0.458   1.618   4.043  0.0604  0.1906 -0.2820
  998poe     o2 7652   0.551   1.627   4.148 -0.0160  0.2166 -0.2161
  998poe    c23 7653   0.568   1.763   4.182 -0.0050  0.0720  0.3795
  998poe    c23 7654   0.652   1.776   4.310  0.3044  0.2520  0.1580
  998poe     o2 7655   0.770   1.704   4.279  0.0408 -0.0245 -0.2096
  998poe    c31 7656   0.866   1.741   4.374 -0.1631 -0.9729  0.3741
  999poe    c31 7657   3.781   5.228   0.036 -0.0177  0.0608 -0.3896
  999poe     o2 7658   3.670   5.201   0.119 -0.0392  0.1933 -0.3749
  999poe    c23 7659   3.553   5.232   0.047 -0.4291  0.7035  0.4671
  999poe    c23 7660   3.429   5.215   0.136 -0.2927 -0.4640  0.4488
  999poe     o2 7661   3.437   5.293   0.253  0.3334  0.1240  0.0246
  999poe    c23 7662   3.321   5.263   0.327  0.6801 -0.8013  0.2073
  999poe    c23 7663   3.318   5.342   0.459  0.6424 -0.0778 -0.2263
  999poe     o2 7664   3.439   5.321   0.527  0.2710 -0.6008  0.2822
  999poe    c23 7665   3.428   5.351   0.665  0.3869 -0.6561  0.3032
  999poe    c23 7666   3.559   5.295   0.726  0.6144 -0.2995  0.1435
  999poe     o2 7667   3.664   5.333   0.641  0.2185  0.3302 -0.0755
  999poe    c31 7668   3.786   5.282   0.691 -0.1005 -0.1422  0.2294
 1000poe    c31 7669   5.437   2.312   5.944 -0.0484  0.0980 -0.1065
 1000poe     o2 7670   5.382   2.302   5.814  0.0536  0.1380 -0.1528
 1000poe    c23 7671   5.241   2.304   5.824  0.0521 -0.3831 -0.0636
 1000poe    c23 7672   5.188   2.251   5.689 -0.0692  0.1879 -0.2398
 1000poe     o2 7673   5.253   2.330   5.591 -0.1708  0.4422 -0.1026
 1000poe    c23 7674   5.197   2.280   5.472 -0.1715 -0.5998  0.3244
 1000poe    c23 7675   5.245   2.370   5.357 -0.1481 -0.5456  0.3762
 1000poe     o2 7676   5.386   2.379   5.355 -0.1632 -0.3812  0.0337
 1000poe    c23 7677   5.439   2.509   5.359 -0.1848 -0.3702 -0.0287
 1000poe    c23 7678   5.573   2.509   5.435 -0.1466  0.4959 -0.0830
 1000poe     o2 7679   5.562   2.448   5.562  0.3021  0.4578 -0.0615
 1000poe    c31 7680   5.649   2.495   5.662 -0.0374  0.5114  0.2105
 1001poe    c31 7681   3.493   5.227   4.654  0.5760  0.1245  0.2737
 1001poe     o2 7682   3.510   5.133   4.550  0.5253 -0.0042  0.3813
 1001poe    c23 7683   3.622   5.048   4.562  0.0836 -0.6273  0.1439
 1001poe    c23 7684   3.595   4.937   4.459  0.2830 -0.8535  0.3356
 1001poe     o2 7685   3.458   4.907   4.470  0.0146  0.2285  0.0915
 1001poe    c23 7686   3.409   4.830   4.362 -0.7590  0.1335  0.4965
 1001poe    c23 7687   3.260   4.803   4.386 -0.8001 -0.0373  0.0449
 1001poe     o2 7688   3.221   4.939   4.390  0.4610  0.3427 -0.1489
 1001poe    c23 7689   3.081   4.950   4.403  0.4450  0.2788 -0.2608
 1001poe    c23 7690   3.040   5.099   4.408 -0.3766  0.0490 -0.0449
 1001poe     o2 7691   3.103   5.161   4.518 -0.1854  0.4090 -0.3582
 1001poe    c31 7692   3.029   5.176   4.638  0.5147  0.7448  0.0342
 1002poe    c31 7693   6.511   2.492   0.587  0.3769  0.0573  0.2914
 1002poe     o2 7694   6.401   2.560   0.641 -0.0714 -0.0948 -0.4184
 1002poe    c23 7695   6.417   2.607   0.773 -0.1956 -0.0774 -0.4087
 1002poe    c23 7696   6.270   2.628   0.811 -0.1132 -0.0264 -0.1175
 1002poe     o2 7697   6.218   2.721   0.719  0.1090 -0.2492 -0.4687
 1002poe    c23 7698   6.084   2.756   0.749  0.0906 -0.4952 -0.2615
 1002poe    c23 7699   6.047   2.814   0.611 -0.0004  0.4215  0.1425
 1002poe     o2 7700   6.087   2.727   0.508 -0.1797  0.0799  0.3560
 1002poe    c23 7701   6.104   2.796   0.386 -0.2893 -0.0667  0.2582
 1002poe    c23 7702   6.230   2.736   0.321 -0.2207  0.1242  0.2140
 1002poe     o2 7703   6.314   2.703   0.429  0.4532  0.1196 -0.3041
 1002poe    c31 7704   6.406   2.811   0.427 -0.3111  0.7968  0.2499
 1003poe    c31 7705   1.758   4.111   6.726 -0.3014 -0.0279 -0.3497
 1003poe     o2 7706   1.712   4.225   6.656 -0.0516  0.6332  0.5577
 1003poe    c23 7707   1.639   4.192   6.540  0.3228  0.1864  0.4434
 1003poe    c23 7708   1.604   4.328   6.475 -0.3463 -0.2209 -0.0582
 1003poe     o2 7709   1.539   4.390   6.584  0.0184  0.3192 -0.1472
 1003poe    c23 7710   1.487   4.513   6.538 -0.0945  0.2443 -0.2200
 1003poe    c23 7711   1.415   4.583   6.653  0.2050  0.2911 -0.0597
 1003poe     o2 7712   1.513   4.609   6.751  0.4180 -0.1241 -0.1655
 1003poe    c23 7713   1.465   4.670   6.868  0.5606  0.0264 -0.1853
 1003poe    c23 7714   1.567   4.703   6.980 -0.3844  0.1383  0.6566
 1003poe     o2 7715   1.636   4.595   7.039  0.2820  0.3123  0.1970
 1003poe    c31 7716   1.700   4.652   7.151 -0.1236  0.7554  0.2028
 1004poe    c31 7717   2.407   0.801   4.772 -0.5100 -0.1557 -0.3606
 1004poe     o2 7718   2.496   0.889   4.837 -0.5575 -0.1119 -0.3545
 1004poe    c23 7719   2.434   0.973   4.932  0.3236 -0.1732  0.2932
 1004poe    c23 7720   2.508   1.107   4.914  0.2200 -0.1996 -0.3750
 1004poe     o2 7721   2.646   1.077   4.906  0.2966 -0.0392  0.2680
 1004poe    c23 7722   2.728   1.190   4.885  0.1151  0.0363 -0.0503
 1004poe    c23 7723   2.861   1.121   4.850 -0.2882 -0.8300  0.0852
 1004poe     o2 7724   2.820   1.019   4.761 -0.0876 -0.7935 -0.0498
 1004poe    c23 7725   2.922   0.922   4.751  0.4773 -0.2543  0.3542
 1004poe    c23 7726   2.863   0.797   4.684  0.2094 -0.1870  0.4612
 1004poe     o2 7727   2.731   0.782   4.729  0.2358  0.9368  0.9339
 1004poe    c31 7728   2.730   0.653   4.786  0.1623  0.7171  0.4397
 1005poe    c31 7729   6.715   3.746   5.682  0.4160  0.1772 -0.8291
 1005poe     o2 7730   6.720   3.799   5.812  0.4302 -0.0037 -0.7550
 1005poe    c23 7731   6.770   3.710   5.909 -0.0935  0.0038 -0.4790
 1005poe    c23 7732   6.825   3.782   6.033  0.1357 -0.1749 -0.4764
 1005poe     o2 7733   6.924   3.879   6.006  0.3578 -0.2099  0.1852
 1005poe    c23 7734   6.973   3.947   6.119  0.4588  0.2823 -0.1502
 1005poe    c23 7735   7.063   4.061   6.069  0.2483  0.4585 -0.1329
 1005poe     o2 7736   6.997   4.157   5.990 -0.0432 -0.1057 -0.5839
 1005poe    c23 7737   7.091   4.237   5.922 -0.2628  0.7037  0.0548
 1005poe    c23 7738   7.012   4.352   5.857 -0.0709  0.4554 -0.6239
 1005poe     o2 7739   6.901   4.301   5.786 -0.7356  0.2517  0.5481
 1005poe    c31 7740   6.851   4.397   5.696 -0.3528 -0.0596 -0.0028
 1006poe    c31 7741   0.281   1.338   1.259  0.2526  0.2229  0.0153
 1006poe     o2 7742   0.151   1.291   1.232  0.3014  0.0153  0.1384
 1006poe    c23 7743   0.049   1.351   1.308  0.1608  0.1849 -0.1829
 1006poe    c23 7744  -0.085   1.294   1.258  0.0360  0.0563  0.2909
 1006poe     o2 7745  -0.068   1.156   1.237 -0.1876  0.0478  0.1592
 1006poe    c23 7746  -0.165   1.099   1.151 -0.1671  0.3438 -0.0589
 1006poe    c23 7747  -0.190   0.949   1.171  0.1799  0.2523 -0.2972
 1006poe     o2 7748  -0.082   0.864   1.139  0.0154 -0.0741  0.0006
 1006poe    c23 7749  -0.129   0.731   1.126 -0.2534  0.0670 -0.5221
 1006poe    c23 7750  -0.014   0.630   1.115 -0.3205 -0.0820  0.0829
 1006poe     o2 7751   0.064   0.630   0.997 -0.5189 -0.3991 -0.0521
 1006poe    c31 7752   0.128   0.509   0.965  0.0580 -0.2115  0.3645
 1007poe    c31 7753   1.566   2.507   0.538  0.1242  0.0143 -0.6840
 1007poe     o2 7754   1.438   2.498   0.478 -0.2172  0.1886  0.0079
 1007poe    c23 7755   1.440   2.547   0.346 -0.0644 -0.7227 -0.3351
 1007poe    c23 7756   1.302   2.511   0.289 -0.4063  0.3401 -0.2028
 1007poe     o2 7757   1.206   2.566   0.378 -0.3514 -0.7137  0.5262
 1007poe    c23 7758   1.079   2.530   0.329 -0.1865 -0.6467  0.0392
 1007poe    c23 7759   0.973   2.606   0.411 -0.1146 -0.2710 -0.2123
 1007poe     o2 7760   0.964   2.556   0.543  0.3023 -0.0116 -0.0861
 1007poe    c23 7761   0.862   2.616   0.620  0.0348 -0.3671 -0.1650
 1007poe    c23 7762   0.912   2.688   0.746  0.3363 -0.6568 -0.1170
 1007poe     o2 7763   1.002   2.613   0.824  0.2570 -0.1500  0.4755
 1007poe    c31 7764   1.074   2.705   0.902  0.0207  0.2826  0.1841
 1008poe    c31 7765   0.724   2.828   1.346  0.3159 -0.4581  0.2388
 1008poe     o2 7766   0.783   2.883   1.230 -0.0840 -0.0880  0.2066
 1008poe    c23 7767   0.819   3.013   1.271 -0.0256 -0.1674  0.4112
 1008poe    c23 7768   0.911   3.073   1.163 -0.3898  0.4601  0.4381
 1008poe     o2 7769   0.880   3.052   1.027  0.8944 -0.3325  0.2432
 1008poe    c23 7770   0.972   3.127   0.952  0.2806  0.0594 -0.1239
 1008poe    c23 7771   0.941   3.095   0.804 -0.2569  0.4362 -0.0976
 1008poe     o2 7772   0.801   3.108   0.795 -0.3076  0.2958  0.4269
 1008poe    c23 7773   0.764   3.102   0.659 -0.3779 -0.1156  0.4624
 1008poe    c23 7774   0.611   3.088   0.667 -0.4180  0.0049 -0.0758
 1008poe     o2 7775   0.593   2.999   0.775 -0.2119 -0.2784 -0.2730
 1008poe    c31 7776   0.453   2.979   0.774 -0.3546  0.6143  0.4840
 1009poe    c31 7777   4.065   4.491   2.913  0.3339  0.5904  0.1555
 1009poe     o2 7778   4.076   4.522   2.776 -0.0362 -0.1565 -0.0432
 1009poe    c23 7779   4.191   4.470   2.713 -0.0936  0.0227 -0.3025
 1009poe    c23 7780   4.149   4.477   2.565 -0.8058 -0.2909 -0.1185
 1009poe     o2 7781   4.093   4.605   2.551 -0.2316  0.0179  0.3380
 1009poe    c23 7782   4.039   4.629   2.423 -0.6771 -0.7447  0.3792
 1009poe    c23 7783   4.006   4.779   2.416  0.1810 -0.5704 -0.0657
 1009poe     o2 7784   3.919   4.815   2.521  0.3292 -0.1401 -0.0886
 1009poe    c23 7785   3.853   4.936   2.492 -0.1000 -0.3961 -0.1868
 1009poe    c23 7786   3.757   4.981   2.605  0.1449  0.5967 -0.3705
 1009poe     o2 7787   3.822   4.993   2.729 -0.1945  0.1958 -0.1547
 1009poe    c31 7788   3.756   5.089   2.809  0.2344  0.3498  0.0196
 1010poe    c31 7789   6.570   4.772   1.331 -0.5229  0.1792  0.2369
 1010poe     o2 7790   6.583   4.781   1.191  0.1359 -0.1103  0.2767
 1010poe    c23 7791   6.459   4.833   1.151  0.2112 -0.0220  0.1558
 1010poe    c23 7792   6.444   4.857   1.000  0.1182 -0.3389  0.1142
 1010poe     o2 7793   6.572   4.905   0.964  0.0262 -0.0501  0.1738
 1010poe    c23 7794   6.578   4.967   0.838  0.2790 -1.2221 -0.3982
 1010poe    c23 7795   6.719   5.029   0.823 -0.2008 -0.0135  0.0008
 1010poe     o2 7796   6.804   4.921   0.852 -0.1117 -0.1246 -0.6785
 1010poe    c23 7797   6.934   4.952   0.806 -0.1244  0.0713 -0.5816
 1010poe    c23 7798   7.059   4.883   0.864 -0.5882 -0.6241 -0.3910
 1010poe     o2 7799   7.060   4.904   1.004  0.1780  0.0740 -0.4943
 1010poe    c31 7800   7.182   4.867   1.064  0.5411  0.3243 -1.0642
 1011poe    c31 7801   1.687   6.123   6.559  0.0294 -0.1562 -0.2141
 1011poe     o2 7802   1.696   6.096   6.421 -0.4110 -0.1538 -0.2431
 1011poe    c23 7803   1.684   6.214   6.345 -0.3859  0.0555  0.0720
 1011poe    c23 7804   1.690   6.187   6.193  0.2998  0.3000  0.0532
 1011poe     o2 7805   1.614   6.069   6.178  0.4696  0.1847  0.0872
 1011poe    c23 7806   1.624   5.996   6.058 -0.7014 -0.0226  0.1034
 1011poe    c23 7807   1.758   5.922   6.071 -0.7184 -0.0299  0.2293
 1011poe     o2 7808   1.750   5.859   6.197  0.2697  0.2769  0.4504
 1011poe    c23 7809   1.870   5.796   6.238  0.4825  0.5382  0.2326
 1011poe    c23 7810   1.843   5.716   6.367 -0.7913  0.1274 -0.2729
 1011poe     o2 7811   1.754   5.788   6.450 -0.1693  0.4463  0.1239
 1011poe    c31 7812   1.731   5.713   6.567 -0.5284 -0.3576 -0.4490
 1012poe    c31 7813   4.454   3.042   3.881 -0.7292  0.0983 -0.5107
 1012poe     o2 7814   4.416   3.126   3.988  0.3161  0.0333 -0.0756
 1012poe    c23 7815   4.476   3.254   3.992 -0.2946  0.3218 -0.0302
 1012poe    c23 7816   4.405   3.328   4.107 -0.1932 -0.3142  0.4486
 1012poe     o2 7817   4.388   3.234   4.211 -0.5098 -1.0839 -0.2787
 1012poe    c23 7818   4.342   3.296   4.329 -0.0047  0.0183 -0.6469
 1012poe    c23 7819   4.349   3.185   4.435  0.4701 -0.1153 -0.8161
 1012poe     o2 7820   4.248   3.087   4.425  0.4381 -0.2304  0.4254
 1012poe    c23 7821   4.118   3.132   4.458  0.4034 -0.0437  0.0361
 1012poe    c23 7822   4.021   3.016   4.428  0.2653  0.0121  0.2701
 1012poe     o2 7823   4.021   2.985   4.290 -0.0828 -0.2078  0.3195
 1012poe    c31 7824   3.955   2.862   4.276  0.0168 -0.1221 -0.9470
 1013poe    c31 7825   2.956   0.514   0.986  0.2707  0.0213 -0.2852
 1013poe     o2 7826   2.859   0.605   1.030  0.5493 -0.1278  0.6709
 1013poe    c23 7827   2.866   0.625   1.170  0.2089  0.4776  0.6056
 1013poe    c23 7828   2.758   0.722   1.221  0.1848  0.1474  1.1802
 1013poe     o2 7829   2.774   0.857   1.186 -0.0095  0.0366  0.6658
 1013poe    c23 7830   2.879   0.926   1.250  0.2242 -0.3790  0.7287
 1013poe    c23 7831   2.848   1.076   1.234 -0.5587 -0.6401 -0.3290
 1013poe     o2 7832   2.808   1.093   1.100 -0.4993  0.2858 -0.2347
 1013poe    c23 7833   2.836   1.223   1.055  0.4284  0.0755 -0.2836
 1013poe    c23 7834   2.771   1.242   0.916  0.5472  0.5319 -0.2790
 1013poe     o2 7835   2.801   1.147   0.816  0.1515  0.1290 -0.0216
 1013poe    c31 7836   2.728   1.149   0.696  0.0864  0.5506  0.0218
 1014poe    c31 7837   2.824   5.101   6.237  0.3605  0.9653 -0.8136
 1014poe     o2 7838   2.688   5.068   6.217  0.5211 -0.3189  0.0668
 1014poe    c23 7839   2.638   5.133   6.102  0.3729  0.7993  0.7518
 1014poe    c23 7840   2.490   5.166   6.127  0.0467  0.2126 -0.3536
 1014poe     o2 7841   2.456   5.064   6.218  0.1721  0.4645 -0.0221
 1014poe    c23 7842   2.332   5.092   6.279  0.1562 -0.5781  0.4349
 1014poe    c23 7843   2.303   4.979   6.380 -0.4079 -0.5752  0.2849
 1014poe     o2 7844   2.434   4.951   6.427 -0.0919  0.4389  0.0443
 1014poe    c23 7845   2.445   4.824   6.488  0.3105  0.1985 -0.5210
 1014poe    c23 7846   2.594   4.807   6.524  0.2922  0.0092 -0.5341
 1014poe     o2 7847   2.680   4.857   6.424  0.3758  0.1991 -0.3689
 1014poe    c31 7848   2.811   4.826   6.466  0.2043  0.1120  0.1051
 1015poe    c31 7849   2.016   1.440   6.704  0.1826  0.4537 -0.7049
 1015poe     o2 7850   2.137   1.505   6.736  0.1452  0.4237 -0.5041
 1015poe    c23 7851   2.140   1.555   6.868 -0.2002 -0.5558 -0.1185
 1015poe    c23 7852   2.273   1.631   6.875 -0.3840 -0.2432 -0.0066
 1015poe     o2 7853   2.287   1.708   6.758  0.1215  0.5242  0.5424
 1015poe    c23 7854   2.422   1.746   6.744  0.2139  0.1144  0.2957
 1015poe    c23 7855   2.460   1.814   6.612  0.2553 -0.2456  0.1223
 1015poe     o2 7856   2.410   1.725   6.515 -0.2868 -0.1634  0.3241
 1015poe    c23 7857   2.436   1.778   6.387  0.5845 -0.5617  0.3296
 1015poe    c23 7858   2.372   1.693   6.275 -0.0029 -0.1618  0.3618
 1015poe     o2 7859   2.235   1.667   6.295 -0.1043 -0.1245 -0.2904
 1015poe    c31 7860   2.178   1.597   6.186  0.1577 -0.1466 -0.4158
 1016poe    c31 7861   5.336   5.540   1.534 -0.1572 -0.6361 -0.3105
 1016poe     o2 7862   5.211   5.599   1.506 -0.1091 -0.4129 -0.0650
 1016poe    c23 7863   5.117   5.495   1.483  0.1525 -0.6011 -0.2840
 1016poe    c23 7864   5.003   5.551   1.396 -0.0411  0.2785  0.5272
 1016poe     o2 7865   4.970   5.673   1.459 -0.3126  0.3948  0.1651
 1016poe    c23 7866   4.888   5.754   1.378 -0.1356  0.0668 -0.3479
 1016poe    c23 7867   4.926   5.900   1.410 -0.2797  0.0628 -0.1541
 1016poe     o2 7868   5.066   5.905   1.421 -0.2869  0.0918 -0.0881
 1016poe    c23 7869   5.107   6.040   1.428  0.0386 -0.0113 -0.0053
 1016poe    c23 7870   5.258   6.044   1.460  0.0221  0.3044  0.0311
 1016poe     o2 7871   5.270   5.972   1.580  0.2879  0.1607 -0.0814
 1016poe    c31 7872   5.400   5.974   1.635  0.3195  0.4537 -0.1640
 1017poe    c31 7873   0.223   0.784   0.027 -0.3015 -0.0125 -0.0595
 1017poe     o2 7874   0.179   0.795  -0.107  0.1018  0.1838 -0.1771
 1017poe    c23 7875   0.284   0.748  -0.189 -0.0485 -0.0118 -0.2592
 1017poe    c23 7876   0.257   0.769  -0.339  0.3971 -0.5924 -0.4230
 1017poe     o2 7877   0.123   0.740  -0.372  0.2220 -0.1772 -0.0966
 1017poe    c23 7878   0.117   0.728  -0.513  0.0408  0.1639 -0.1167
 1017poe    c23 7879  -0.029   0.749  -0.556  0.0099  0.2462  0.0252
 1017poe     o2 7880  -0.093   0.860  -0.498 -0.2946  0.1221 -0.0693
 1017poe    c23 7881  -0.233   0.842  -0.501 -0.3049  0.0776  0.5522
 1017poe    c23 7882  -0.317   0.959  -0.448  0.1345  1.1037 -0.9571
 1017poe     o2 7883  -0.262   0.992  -0.323 -0.2064 -0.2611 -0.4290
 1017poe    c31 7884  -0.344   1.086  -0.255  0.5529  0.3599 -0.3548
 1018poe    c31 7885   4.772   0.332   1.072 -0.2578  0.0434 -0.5418
 1018poe     o2 7886   4.688   0.310   0.961  0.3848 -0.3265 -0.9609
 1018poe    c23 7887   4.635   0.435   0.921  0.0525 -0.0844  0.2195
 1018poe    c23 7888   4.523   0.420   0.816  0.3551 -0.3565 -0.0653
 1018poe     o2 7889   4.564   0.336   0.711  0.1289 -0.6269  0.0616
 1018poe    c23 7890   4.497   0.368   0.590  0.4522  0.3135  0.1239
 1018poe    c23 7891   4.531   0.268   0.478 -0.0806  0.2339  0.0347
 1018poe     o2 7892   4.671   0.260   0.474 -0.0839  0.2774 -0.1827
 1018poe    c23 7893   4.733   0.168   0.387  0.0223  0.0361  0.1462
 1018poe    c23 7894   4.877   0.222   0.389  0.1178 -0.1852 -0.4043
 1018poe     o2 7895   4.921   0.243   0.522  0.1090 -0.0621 -0.4202
 1018poe    c31 7896   5.062   0.243   0.528  0.1055 -0.7230 -0.2927
 1019poe    c31 7897   3.137   1.173   0.894  0.1720 -0.3203  0.0308
 1019poe     o2 7898   3.268   1.124   0.907  0.4029  0.1921 -0.3290
 1019poe    c23 7899   3.330   1.188   1.016  0.0693  0.0053 -0.0303
 1019poe    c23 7900   3.482   1.164   1.005 -0.0020 -0.3298 -0.2823
 1019poe     o2 7901   3.520   1.029   1.018  0.2441 -0.2126  0.2005
 1019poe    c23 7902   3.630   1.002   0.935 -0.1677 -0.2025 -0.3512
 1019poe    c23 7903   3.686   0.866   0.981 -0.2125 -0.0610  0.1227
 1019poe     o2 7904   3.577   0.779   0.996 -0.0346 -0.3536 -0.2708
 1019poe    c23 7905   3.613   0.666   1.073  0.4591 -0.1322 -0.1726
 1019poe    c23 7906   3.485   0.581   1.066  0.1426  0.3775 -0.6642
 1019poe     o2 7907   3.384   0.661   1.123  0.6517  0.5017  0.0830
 1019poe    c31 7908   3.290   0.580   1.189  0.7973  0.0928 -0.2067
 1020poe    c31 7909   6.701   3.257   3.146 -0.2296 -0.3872 -0.1940
 1020poe     o2 7910   6.612   3.152   3.180 -0.0414 -0.4909 -0.0211
 1020poe    c23 7911   6.558   3.182   3.307 -0.2522  0.5137 -0.3350
 1020poe    c23 7912   6.432   3.094   3.323  0.1295  0.0980  0.4395
 1020poe     o2 7913   6.458   2.963   3.278 -0.2434  0.0713  0.3048
 1020poe    c23 7914   6.343   2.909   3.216  0.1100 -0.0830 -0.2275
 1020poe    c23 7915   6.401   2.799   3.126 -0.4501  0.0983 -0.8157
 1020poe     o2 7916   6.502   2.864   3.052  0.0193 -0.0390 -0.3035
 1020poe    c23 7917   6.546   2.782   2.946 -0.0683 -0.1858 -0.2265
 1020poe    c23 7918   6.656   2.871   2.884 -0.3007  0.1666 -0.1329
 1020poe     o2 7919   6.716   2.958   2.977 -0.5936  0.1906  0.0365
 1020poe    c31 7920   6.843   2.975   2.919 -0.8660  0.0251 -0.6110
 1021poe    c31 7921   4.522   6.043   5.858 -0.2665  0.3660 -0.3630
 1021poe     o2 7922   4.614   5.937   5.855 -0.2016  0.3991  0.3580
 1021poe    c23 7923   4.734   5.997   5.814  0.0046 -0.2595 -0.0285
 1021poe    c23 7924   4.825   5.886   5.760 -0.0641 -0.1698 -0.3276
 1021poe     o2 7925   4.814   5.788   5.861 -0.0826  0.2398  0.0701
 1021poe    c23 7926   4.878   5.674   5.808 -0.0070  0.3111  0.0077
 1021poe    c23 7927   4.848   5.568   5.916 -0.2845  0.2186 -0.1571
 1021poe     o2 7928   4.711   5.580   5.946 -0.2427  0.0241  0.1122
 1021poe    c23 7929   4.674   5.527   6.072 -0.0486 -0.3640  0.0083
 1021poe    c23 7930   4.538   5.591   6.105  0.0469 -0.1566  0.0086
 1021poe     o2 7931   4.540   5.727   6.067  0.3526 -0.1036  0.2119
 1021poe    c31 7932   4.431   5.798   6.122  0.1245 -0.7438  0.6066
 1022poe    c31 7933   1.903   1.421   3.461 -0.0307 -0.1568 -0.0781
 1022poe     o2 7934   1.987   1.382   3.355  0.3592  0.3624  0.0306
 1022poe    c23 7935   1.955   1.456   3.239 -0.1131 -0.4901 -0.3981
 1022poe    c23 7936   2.080   1.475   3.152  0.6748  0.4721  0.9092
 1022poe     o2 7937   2.136   1.358   3.096 -0.2434  0.4869 -0.0680
 1022poe    c23 7938   2.217   1.403   2.990  0.1631 -0.1073 -0.0144
 1022poe    c23 7939   2.309   1.282   2.966  0.0176 -0.2480  0.1267
 1022poe     o2 7940   2.237   1.163   2.986  0.0396 -0.2601  0.1339
 1022poe    c23 7941   2.330   1.057   2.979  0.1172 -0.2181  0.5385
 1022poe    c23 7942   2.231   0.942   3.008 -0.0895 -0.0415  0.5383
 1022poe     o2 7943   2.152   0.980   3.119  0.0823  0.1549  0.5949
 1022poe    c31 7944   2.094   0.862   3.170  0.1276  0.1497  0.6340
 1023poe    c31 7945   1.985   2.397   4.528  0.0919 -0.0561  0.2054
 1023poe     o2 7946   1.959   2.327   4.648 -0.1809  0.3832  0.4080
 1023poe    c23 7947   2.019   2.200   4.657 -0.0496  0.3776 -0.4104
 1023poe    c23 7948   1.908   2.104   4.704 -0.1912  0.4911 -0.5142
 1023poe     o2 7949   1.820   2.183   4.781 -0.0974 -0.5032  0.6596
 1023poe    c23 7950   1.682   2.158   4.771 -0.2741  0.5953  0.1188
 1023poe    c23 7951   1.589   2.275   4.808 -0.4626  0.3093  0.5592
 1023poe     o2 7952   1.661   2.389   4.766 -0.0862 -0.2643 -0.3802
 1023poe    c23 7953   1.619   2.502   4.839 -0.2670 -0.1440 -0.6661
 1023poe    c23 7954   1.717   2.619   4.822  0.0781 -0.3547 -0.1349
 1023poe     o2 7955   1.845   2.562   4.803  0.4869  0.5879 -0.2464
 1023poe    c31 7956   1.928   2.673   4.775  0.6995  0.5975  0.4227
 1024poe    c31 7957   1.761   6.106   1.409 -0.0681  0.6493  0.4350
 1024poe     o2 7958   1.808   6.231   1.362  0.5014  0.0355 -0.6619
 1024poe    c23 7959   1.706   6.283   1.280 -0.0276 -0.3509 -0.2564
 1024poe    c23 7960   1.747   6.417   1.218 -0.4549  0.0983  0.4183
 1024poe     o2 7961   1.845   6.473   1.302 -0.3027  0.1656  0.1990
 1024poe    c23 7962   1.858   6.613   1.291  0.6180  0.0281 -0.6155
 1024poe    c23 7963   1.977   6.649   1.382  0.5215 -0.3006 -0.3554
 1024poe     o2 7964   1.981   6.546   1.478  0.2511  0.0570  0.0453
 1024poe    c23 7965   2.116   6.519   1.507  0.2681  0.7942  0.6812
 1024poe    c23 7966   2.107   6.384   1.581 -0.5913  0.8476  0.6758
 1024poe     o2 7967   2.032   6.302   1.494  0.4526 -0.1660  0.7120
 1024poe    c31 7968   2.106   6.192   1.446 -0.2137 -0.4719  0.3730
 1025poe    c31 7969   0.419   0.794   4.128 -0.1289 -0.2353  0.4137
 1025poe     o2 7970   0.293   0.846   4.163 -0.1288  0.1850 -0.2032
 1025poe    c23 7971   0.249   0.828   4.296  0.3015  0.1389 -0.0680
 1025poe    c23 7972   0.120   0.903   4.334  0.3201 -0.0761  0.4194
 1025poe     o2 7973   0.003   0.845   4.281  0.6873 -0.5638  0.1323
 1025poe    c23 7974  -0.115   0.867   4.355  0.1969 -0.0039 -0.7929
 1025poe    c23 7975  -0.230   0.794   4.285 -0.3756  0.2863 -0.1669
 1025poe     o2 7976  -0.200   0.785   4.147 -0.1193  0.0049 -0.0934
 1025poe    c23 7977  -0.313   0.758   4.067  0.2414 -0.3445 -0.4900
 1025poe    c23 7978  -0.266   0.768   3.920  0.3876  1.0929 -0.3643
 1025poe     o2 7979  -0.135   0.717   3.911  0.2507  0.6308  0.2061
 1025poe    c31 7980  -0.104   0.682   3.778  0.2830  0.5127  0.2444
 1026poe    c31 7981   6.685   0.127   2.372  0.3879 -0.3636  0.4867
 1026poe     o2 7982   6.552   0.086   2.354  0.5773 -0.6003 -0.4000
 1026poe    c23 7983   6.534  -0.054   2.350  0.3955 -0.5912  0.1194
 1026poe    c23 7984   6.393  -0.099   2.306  0.5219 -0.5881 -0.2911
 1026poe     o2 7985   6.351  -0.034   2.189  0.3500 -0.2333 -0.0330
 1026poe    c23 7986   6.230  -0.082   2.134  0.1747 -0.0659  0.2028
 1026poe    c23 7987   6.178   0.011   2.022  0.5743 -0.2409 -0.1337
 1026poe     o2 7988   6.154   0.139   2.076 -0.1706 -0.4289 -0.0054
 1026poe    c23 7989   6.127   0.210   1.958  0.6823  0.3662  0.2649
 1026poe    c23 7990   6.069   0.351   1.982 -0.6757 -0.1220 -0.0641
 1026poe     o2 7991   6.159   0.410   2.073 -0.5472 -0.6944  0.1891
 1026poe    c31 7992   6.123   0.542   2.108  0.2215 -0.5935  0.6096
 1027poe    c31 7993   3.646   3.690   3.380  0.5840 -0.1621 -0.1824
 1027poe     o2 7994   3.680   3.679   3.516  0.0112 -0.3146 -0.0487
 1027poe    c23 7995   3.814   3.638   3.532  0.2271  0.5359  0.3761
 1027poe    c23 7996   3.874   3.696   3.661  0.2979 -0.3578  0.7491
 1027poe     o2 7997   3.779   3.681   3.764 -0.5230 -0.1581  0.0257
 1027poe    c23 7998   3.827   3.765   3.867 -0.3267 -0.8846  0.5359
 1027poe    c23 7999   3.714   3.790   3.968 -0.4086  0.3355  0.1605
 1027poe     o2 8000   3.598   3.738   3.906  0.2615 -0.4367 -0.4740
 1027poe    c23 8001   3.477   3.805   3.934  0.3820 -0.1953 -0.5225
 1027poe    c23 8002   3.384   3.729   3.837 -0.1560  0.4726 -0.5378
 1027poe     o2 8003   3.445   3.719   3.711  0.0942 -0.4062 -0.3533
 1027poe    c31 8004   3.342   3.710   3.615 -0.4317  0.6407  0.0985
 1028poe    c31 8005   2.185   6.392   2.283 -0.0583  0.2834 -0.3041
 1028poe     o2 8006   2.133   6.514   2.334  0.2073  0.1310  0.3423
 1028poe    c23 8007   2.065   6.597   2.243  0.5035  0.1337  0.1211
 1028poe    c23 8008   2.053   6.731   2.318  0.2994  0.1752  0.0140
 1028poe     o2 8009   2.016   6.700   2.450 -0.5833  0.0798 -0.2463
 1028poe    c23 8010   2.020   6.819   2.526 -0.0072 -0.2559  0.2604
 1028poe    c23 8011   1.925   6.785   2.642  0.0331  0.0308  0.3774
 1028poe     o2 8012   1.980   6.667   2.696  0.1827 -0.2080 -0.2876
 1028poe    c23 8013   1.907   6.638   2.814  0.6120 -0.5216 -0.0938
 1028poe    c23 8014   1.966   6.508   2.870  0.2410 -0.4836  0.3911
 1028poe     o2 8015   1.940   6.400   2.783 -0.2784 -0.3017  0.3186
 1028poe    c31 8016   1.944   6.278   2.854 -0.6314 -0.6021 -0.1698
 1029poe    c31 8017   3.567   6.655   1.414  0.4192  0.0528 -0.2996
 1029poe     o2 8018   3.684   6.625   1.487 -0.0592 -0.0141  0.4537
 1029poe    c23 8019   3.728   6.499   1.440 -0.2849 -0.0321  0.2855
 1029poe    c23 8020   3.871   6.475   1.493 -0.5357 -0.8377  0.6176
 1029poe     o2 8021   3.874   6.512   1.629  0.1533  0.1182  0.3578
 1029poe    c23 8022   4.000   6.547   1.680  0.1665  0.1605  0.2957
 1029poe    c23 8023   3.968   6.592   1.824  0.0054  0.3281  0.2079
 1029poe     o2 8024   3.850   6.669   1.815  0.0607  0.4066  0.1405
 1029poe    c23 8025   3.788   6.728   1.928 -0.5607  0.0542 -0.0089
 1029poe    c23 8026   3.674   6.814   1.872 -0.2309  0.3592 -0.2185
 1029poe     o2 8027   3.609   6.739   1.772 -0.2210 -0.7420  0.5824
 1029poe    c31 8028   3.488   6.807   1.745 -0.1122 -0.3670  1.0276
 1030poe    c31 8029   1.414   3.475   5.656 -0.0354  0.4101 -0.3124
 1030poe     o2 8030   1.298   3.396   5.643 -0.1105  0.4651  0.0161
 1030poe    c23 8031   1.334   3.306   5.540 -0.3825  0.3571  0.0154
 1030poe    c23 8032   1.200   3.255   5.483  0.1230 -1.0369  0.0299
 1030poe     o2 8033   1.129   3.228   5.602 -0.2986 -0.4100 -0.0752
 1030poe    c23 8034   0.992   3.198   5.590 -0.4088  0.0523  0.0041
 1030poe    c23 8035   0.894   3.305   5.643  0.4546  0.8848 -0.0727
 1030poe     o2 8036   0.972   3.367   5.743  0.2537  0.8017  0.1348
 1030poe    c23 8037   0.926   3.494   5.782 -1.1376  0.1496  0.6849
 1030poe    c23 8038   1.013   3.542   5.900 -0.0418 -0.6713  0.2300
 1030poe     o2 8039   1.143   3.510   5.857  0.0081  0.0912 -0.2069
 1030poe    c31 8040   1.230   3.580   5.943 -0.3212  0.2690 -0.0167
 1031poe    c31 8041   4.270   0.718   2.805 -0.5537 -0.4359  0.1001
 1031poe     o2 8042   4.383   0.634   2.814 -0.1003  0.1279 -0.2044
 1031poe    c23 8043   4.437   0.626   2.684  0.4940 -0.1104  0.0541
 1031poe    c23 8044   4.539   0.510   2.685 -0.0081 -0.5581  0.4176
 1031poe     o2 8045   4.580   0.491   2.818  0.7062  0.4763  0.3556
 1031poe    c23 8046   4.702   0.419   2.819  0.2373 -0.3309 -0.0234
 1031poe    c23 8047   4.767   0.422   2.958  0.1334 -0.4947  0.0293
 1031poe     o2 8048   4.682   0.386   3.064 -0.1226 -0.0006 -0.0071
 1031poe    c23 8049   4.754   0.375   3.185  0.9507 -0.0125 -0.6370
 1031poe    c23 8050   4.769   0.238   3.252 -0.4936 -0.1975 -0.6626
 1031poe     o2 8051   4.880   0.168   3.201  0.0277 -0.0155  0.2008
 1031poe    c31 8052   4.883   0.041   3.262  0.4196 -0.2380 -0.2691
 1032poe    c31 8053   3.455   6.314   3.586 -0.5221  0.7913  0.4250
 1032poe     o2 8054   3.388   6.350   3.468  0.0390 -0.1755 -0.1994
 1032poe    c23 8055   3.467   6.458   3.424 -0.0797  0.2925  0.7078
 1032poe    c23 8056   3.396   6.546   3.320  0.2562 -0.2681 -0.0074
 1032poe     o2 8057   3.355   6.443   3.232 -0.3087  0.1552 -0.2474
 1032poe    c23 8058   3.266   6.484   3.131 -0.1824  0.3301 -0.2873
 1032poe    c23 8059   3.258   6.369   3.029 -1.0581  0.2830 -0.1673
 1032poe     o2 8060   3.240   6.247   3.098 -0.2838  0.3044  0.0830
 1032poe    c23 8061   3.109   6.204   3.127 -0.1682  0.0258  0.1934
 1032poe    c23 8062   3.118   6.119   3.255  0.6281 -0.0109  0.1141
 1032poe     o2 8063   3.196   6.185   3.353  0.3867 -0.2098  0.4436
 1032poe    c31 8064   3.107   6.232   3.451 -0.1637 -0.2153 -0.0507
 1033poe    c31 8065   3.073   2.486   3.689 -0.1714 -0.4554  0.2415
 1033poe     o2 8066   3.002   2.603   3.653  0.3670 -0.0872  0.3523
 1033poe    c23 8067   2.871   2.599   3.705  0.3144  0.4082  0.2572
 1033poe    c23 8068   2.788   2.725   3.673 -0.0899  0.0285 -0.2111
 1033poe     o2 8069   2.777   2.738   3.533  0.1708  0.5199 -0.1921
 1033poe    c23 8070   2.690   2.838   3.486 -0.1706  0.2270 -0.1874
 1033poe    c23 8071   2.691   2.843   3.332 -0.0688  0.3717 -0.1817
 1033poe     o2 8072   2.813   2.894   3.283 -0.0828  0.4943 -0.0898
 1033poe    c23 8073   2.827   2.882   3.143  0.1273 -0.0646 -0.0222
 1033poe    c23 8074   2.936   2.976   3.090 -0.1923  0.3156 -0.0084
 1033poe     o2 8075   3.042   2.964   3.182 -0.4801  0.2663  0.3185
 1033poe    c31 8076   3.157   3.032   3.137 -0.2776 -0.3234 -0.0593
 1034poe    c31 8077   5.800   1.048   1.827 -0.4609  0.7487  0.2719
 1034poe     o2 8078   5.903   1.144   1.823  0.2441  0.0106  0.5412
 1034poe    c23 8079   6.012   1.083   1.757  0.0468  0.3147 -0.0769
 1034poe    c23 8080   6.101   1.196   1.704 -0.5511  0.7542 -0.1545
 1034poe     o2 8081   6.114   1.291   1.808 -0.3539  0.8546 -0.2694
 1034poe    c23 8082   6.246   1.324   1.845 -0.0277 -0.3371 -0.3190
 1034poe    c23 8083   6.247   1.429   1.958 -0.4322 -0.2838 -0.3635
 1034poe     o2 8084   6.204   1.362   2.075 -0.7016  0.0771 -0.2547
 1034poe    c23 8085   6.209   1.453   2.183  0.2610 -0.2818  0.0196
 1034poe    c23 8086   6.182   1.398   2.324 -0.4102  1.0067  0.4189
 1034poe     o2 8087   6.055   1.339   2.310  0.2024 -0.2204 -0.1217
 1034poe    c31 8088   5.990   1.288   2.424 -0.3971 -0.3042 -0.4941
 1035poe    c31 8089   6.668   3.116   4.040 -0.2482 -0.0766  0.0449
 1035poe     o2 8090   6.773   3.173   3.966 -0.2118  0.0203  0.1701
 1035poe    c23 8091   6.769   3.313   3.983  0.0344 -0.0833  1.1078
 1035poe    c23 8092   6.864   3.357   3.871 -0.1607 -0.0483  0.9564
 1035poe     o2 8093   6.984   3.285   3.848 -0.3764 -0.1609  0.1254
 1035poe    c23 8094   7.052   3.328   3.733  0.0582  0.0218  0.4443
 1035poe    c23 8095   7.189   3.258   3.729 -0.0849 -0.2259 -0.3193
 1035poe     o2 8096   7.171   3.121   3.759 -0.5949 -0.0436  0.2149
 1035poe    c23 8097   7.291   3.047   3.753 -0.2708  0.5165 -0.3222
 1035poe    c23 8098   7.255   2.898   3.757  0.2571  0.4022  0.6135
 1035poe     o2 8099   7.223   2.856   3.888  0.1053 -0.3151  0.3538
 1035poe    c31 8100   7.228   2.715   3.889  0.7312 -0.3064 -0.4326
 1036poe    c31 8101   0.013   1.082   3.353 -0.4308 -0.9006 -0.1653
 1036poe     o2 8102  -0.100   1.071   3.437 -0.0829  0.3372  0.4934
 1036poe    c23 8103  -0.054   1.013   3.558 -0.2997 -0.6843  0.0993
 1036poe    c23 8104  -0.128   1.079   3.676  0.0197  0.0683 -0.1107
 1036poe     o2 8105  -0.263   1.087   3.639 -0.0523 -0.2711  0.0739
 1036poe    c23 8106  -0.342   1.148   3.738  0.0461  0.0360 -0.0353
 1036poe    c23 8107  -0.476   1.169   3.665  0.0835  0.2557 -0.0416
 1036poe     o2 8108  -0.442   1.226   3.541  0.1296 -0.0905 -0.1902
 1036poe    c23 8109  -0.522   1.217   3.425  0.3769 -0.4651 -0.3331
 1036poe    c23 8110  -0.435   1.260   3.306 -0.2236 -0.4274 -0.7627
 1036poe     o2 8111  -0.327   1.169   3.301  0.4896  0.3776 -0.2643
 1036poe    c31 8112  -0.282   1.126   3.175 -0.1013 -0.9707 -0.0358
 1037poe    c31 8113   1.397   1.959   4.935  0.8405  0.8840  0.1025
 1037poe     o2 8114   1.294   1.991   4.843  0.3732 -0.1811  0.2461
 1037poe    c23 8115   1.166   1.946   4.882  0.5583 -0.3942  0.6116
 1037poe    c23 8116   1.063   1.972   4.771  0.6134 -0.0797  0.6305
 1037poe     o2 8117   1.036   2.106   4.738 -0.1357 -0.4809 -0.4594
 1037poe    c23 8118   0.940   2.137   4.640 -0.4615  0.2660  0.0910
 1037poe    c23 8119   0.936   2.291   4.631  0.7177  0.3492  0.7669
 1037poe     o2 8120   1.062   2.346   4.602  0.7684 -0.2481 -0.1848
 1037poe    c23 8121   1.076   2.478   4.649 -0.0082 -0.3285  0.2764
 1037poe    c23 8122   1.202   2.540   4.586 -0.2851  0.0212  0.0672
 1037poe     o2 8123   1.296   2.436   4.578 -0.2771  0.0690 -0.5318
 1037poe    c31 8124   1.416   2.468   4.513  0.1043  0.4682  0.3608
 1038poe    c31 8125   5.924   6.431   6.161  0.1804  0.4810  0.2060
 1038poe     o2 8126   5.975   6.429   6.029 -0.0738 -0.5677  0.1131
 1038poe    c23 8127   5.889   6.359   5.942 -0.0272 -0.2053 -0.2252
 1038poe    c23 8128   5.932   6.410   5.803 -0.4650 -0.3244 -0.4069
 1038poe     o2 8129   6.070   6.390   5.778 -0.3985 -0.1402 -0.1918
 1038poe    c23 8130   6.106   6.305   5.671  0.0027  0.0619 -0.2178
 1038poe    c23 8131   6.226   6.221   5.720  0.2619  0.1318 -0.7332
 1038poe     o2 8132   6.347   6.287   5.749  0.0260  0.3703 -0.2757
 1038poe    c23 8133   6.429   6.187   5.806 -0.6644  0.2008  0.4326
 1038poe    c23 8134   6.537   6.252   5.895 -0.1870 -0.1835  0.1395
 1038poe     o2 8135   6.469   6.329   5.992 -0.1207 -0.1137  0.1303
 1038poe    c31 8136   6.574   6.403   6.051  0.2120  0.1853 -0.8149
 1039poe    c31 8137   5.548   6.274   6.152 -0.4624 -1.2111 -0.0307
 1039poe     o2 8138   5.532   6.351   6.035  0.5752 -0.4190  0.3312
 1039poe    c23 8139   5.527   6.260   5.928 -0.8651 -0.2038  0.1831
 1039poe    c23 8140   5.512   6.354   5.807  0.2511  0.2688  0.3962
 1039poe     o2 8141   5.411   6.450   5.827  0.0244  0.0310  0.4074
 1039poe    c23 8142   5.396   6.531   5.712  0.1753 -0.3355  0.1276
 1039poe    c23 8143   5.298   6.641   5.758  0.2947 -0.0537 -0.2895
 1039poe     o2 8144   5.308   6.667   5.896 -0.4148 -0.2735 -0.1950
 1039poe    c23 8145   5.268   6.802   5.906  0.1997 -0.1092  0.0971
 1039poe    c23 8146   5.265   6.848   6.053 -0.2385  0.1772  0.0003
 1039poe     o2 8147   5.394   6.848   6.110 -0.1817 -0.0586 -0.1274
 1039poe    c31 8148   5.383   6.892   6.244 -0.6896 -0.3456 -0.0694
 1040poe    c31 8149   3.861   2.583   3.320  0.3219 -0.1824  0.1218
 1040poe     o2 8150   3.847   2.723   3.331 -0.0197 -0.1954 -0.1308
 1040poe    c23 8151   3.972   2.786   3.307 -0.2280  0.2033 -0.1856
 1040poe    c23 8152   3.949   2.938   3.314  0.4194  0.2914  0.0248
 1040poe     o2 8153   3.824   2.967   3.255  0.1128 -0.6143  0.2160
 1040poe    c23 8154   3.845   2.987   3.117 -0.2174  0.8069  0.3584
 1040poe    c23 8155   3.712   2.950   3.049  0.5667 -0.1904 -0.6723
 1040poe     o2 8156   3.673   2.836   3.122  0.4245  0.3326  0.0897
 1040poe    c23 8157   3.572   2.767   3.051  0.5192  0.2286  0.0537
 1040poe    c23 8158   3.514   2.662   3.148  0.2181  0.2269 -0.1284
 1040poe     o2 8159   3.531   2.707   3.280 -0.1703 -0.7010  0.2463
 1040poe    c31 8160   3.425   2.668   3.364 -0.3583 -0.6495  0.0330
 1041poe    c31 8161   4.446   6.630   0.479 -0.1560  0.5462 -0.2080
 1041poe     o2 8162   4.585   6.608   0.488 -0.3270 -0.5485 -0.1046
 1041poe    c23 8163   4.609   6.546   0.612  0.2007  0.2844  0.2222
 1041poe    c23 8164   4.761   6.551   0.637  0.2459 -0.4437  0.1133
 1041poe     o2 8165   4.838   6.480   0.542  0.2194 -0.0288 -0.2183
 1041poe    c23 8166   4.950   6.560   0.510  0.1206  0.0551 -0.3555
 1041poe    c23 8167   5.039   6.469   0.423 -0.0143 -0.2783 -0.1467
 1041poe     o2 8168   4.958   6.393   0.337 -0.2325 -0.3222  0.0974
 1041poe    c23 8169   5.022   6.365   0.215 -0.5908 -0.3865 -0.0774
 1041poe    c23 8170   4.952   6.247   0.145  0.0244 -0.3171 -0.8255
 1041poe     o2 8171   4.815   6.277   0.143  0.1284  0.1688 -0.8027
 1041poe    c31 8172   4.751   6.178   0.066  0.5336 -0.1415 -0.7412
 1042poe    c31 8173   0.115   5.906   0.486  0.5012 -0.4640  0.4284
 1042poe     o2 8174   0.075   5.818   0.589 -0.4751 -0.8201 -0.2374
 1042poe    c23 8175  -0.003   5.891   0.681  0.1637 -0.1258 -0.2404
 1042poe    c23 8176   0.003   5.817   0.816  0.3521  0.1854 -0.0749
 1042poe     o2 8177  -0.018   5.683   0.776 -0.0361  0.0787  0.4718
 1042poe    c23 8178  -0.033   5.587   0.878  0.3154  0.0974  0.5428
 1042poe    c23 8179  -0.048   5.452   0.805 -0.4291  0.5118 -0.0827
 1042poe     o2 8180   0.059   5.444   0.713 -0.2863 -0.1117  0.1314
 1042poe    c23 8181   0.048   5.346   0.612 -0.4335  0.2692 -0.2271
 1042poe    c23 8182   0.163   5.376   0.513 -0.4511  0.1266 -0.2902
 1042poe     o2 8183   0.132   5.507   0.472  0.0137  0.2782 -0.1633
 1042poe    c31 8184   0.199   5.542   0.353 -0.4921  0.0295 -0.5306
 1043poe    c31 8185   4.517   2.212   4.927  0.2775  0.2846  0.4835
 1043poe     o2 8186   4.452   2.149   5.035  0.0128 -0.3259 -0.0308
 1043poe    c23 8187   4.314   2.144   5.008  0.1135 -0.1270 -0.5973
 1043poe    c23 8188   4.251   2.042   5.104  0.0094  0.3268 -0.1794
 1043poe     o2 8189   4.320   2.067   5.224  0.0470 -0.6296  0.0081
 1043poe    c23 8190   4.273   2.011   5.344 -0.4680  0.5252  0.3638
 1043poe    c23 8191   4.371   2.046   5.459 -0.2167 -0.0367  0.3241
 1043poe     o2 8192   4.493   1.999   5.406 -0.0721  0.9200 -0.2179
 1043poe    c23 8193   4.576   1.964   5.514  0.1206  0.0168 -0.6427
 1043poe    c23 8194   4.722   1.935   5.475  0.4768  0.3359  0.4145
 1043poe     o2 8195   4.729   1.858   5.357  0.1850  0.2242  0.4686
 1043poe    c31 8196   4.855   1.797   5.342  0.0978  0.0930  0.2631
 1044poe    c31 8197   3.280   5.199   1.801 -0.1513  0.5851 -0.0853
 1044poe     o2 8198   3.222   5.144   1.916  0.0857  0.6518  0.0662
 1044poe    c23 8199   3.106   5.075   1.876  0.0323  0.6215  0.2686
 1044poe    c23 8200   3.041   5.046   2.013  0.1889  0.3424  0.2847
 1044poe     o2 8201   3.139   5.010   2.108  0.5364 -0.5972 -0.4142
 1044poe    c23 8202   3.090   4.977   2.236  0.2610  0.1107 -0.3298
 1044poe    c23 8203   3.126   5.098   2.324 -0.2375  0.0173  0.0039
 1044poe     o2 8204   3.256   5.131   2.282 -0.2773  0.1668  0.0006
 1044poe    c23 8205   3.295   5.240   2.362 -0.4206  0.3689 -0.2013
 1044poe    c23 8206   3.383   5.325   2.269  0.4109  0.1867  0.4122
 1044poe     o2 8207   3.374   5.286   2.134  0.0521  0.4995  0.3459
 1044poe    c31 8208   3.487   5.336   2.064 -0.4353  0.3300 -0.5757
 1045poe    c31 8209   6.518   1.359   5.553 -0.2715 -0.4728  0.1565
 1045poe     o2 8210   6.407   1.390   5.473 -0.0119 -0.3103 -0.1442
 1045poe    c23 8211   6.419   1.515   5.409  0.7089 -0.4089 -0.2058
 1045poe    c23 8212   6.292   1.549   5.329  0.2209  0.3418  0.8621
 1045poe     o2 8213   6.178   1.554   5.412 -0.2342 -0.3330  0.2891
 1045poe    c23 8214   6.071   1.572   5.322 -0.0088  0.0089  0.0913
 1045poe    c23 8215   5.930   1.598   5.378 -0.0519 -0.0699  0.0176
 1045poe     o2 8216   5.927   1.501   5.480  0.5046 -0.1670 -0.0529
 1045poe    c23 8217   5.810   1.519   5.557  0.5737 -0.1769  0.0554
 1045poe    c23 8218   5.827   1.406   5.660  0.4261 -0.1998  0.0551
 1045poe     o2 8219   5.961   1.417   5.703  0.4702  0.0048 -0.1330
 1045poe    c31 8220   5.971   1.355   5.829  0.7629  0.0439 -0.1359
 1046poe    c31 8221   5.481   5.285   2.921 -0.6393 -0.0999 -0.3361
 1046poe     o2 8222   5.446   5.165   2.986  0.1902 -0.0194  0.2733
 1046poe    c23 8223   5.338   5.099   2.925  0.3076 -0.4905  0.5669
 1046poe    c23 8224   5.324   4.956   2.981 -0.1281 -0.6843 -0.0200
 1046poe     o2 8225   5.344   4.971   3.120 -0.2410  0.0771 -0.0806
 1046poe    c23 8226   5.297   4.857   3.187 -0.4289  0.1799 -0.0376
 1046poe    c23 8227   5.325   4.877   3.337 -0.2138 -0.5126  0.0200
 1046poe     o2 8228   5.461   4.908   3.360 -0.4165 -0.0923  0.6945
 1046poe    c23 8229   5.490   5.004   3.459  0.1928  0.4360  0.0198
 1046poe    c23 8230   5.611   5.087   3.412  0.2292  0.4993  0.2257
 1046poe     o2 8231   5.587   5.144   3.286 -0.1851  0.1435  0.1387
 1046poe    c31 8232   5.673   5.254   3.263 -0.0859 -0.0386 -0.3671
 1047poe    c31 8233   3.148   1.397   1.748  0.2055 -0.0139 -0.2162
 1047poe     o2 8234   3.048   1.480   1.803  0.1209 -0.2467 -0.0152
 1047poe    c23 8235   3.006   1.429   1.927 -0.1826  0.6585  0.2638
 1047poe    c23 8236   2.929   1.542   1.998 -0.2484  0.5496  0.3677
 1047poe     o2 8237   3.021   1.649   2.009  0.0967  0.2457  0.4505
 1047poe    c23 8238   2.970   1.743   2.100  0.1488  0.6006  0.1152
 1047poe    c23 8239   3.057   1.870   2.088 -0.1069  0.7632 -0.0064
 1047poe     o2 8240   3.057   1.906   1.951 -0.2863 -0.1075 -0.2409
 1047poe    c23 8241   3.127   2.026   1.926  0.3233 -0.4037  0.0153
 1047poe    c23 8242   3.148   2.057   1.777 -0.2523 -0.0814 -0.0007
 1047poe     o2 8243   3.034   2.000   1.718 -0.4428 -0.0499  0.3414
 1047poe    c31 8244   3.012   2.056   1.591 -0.6344 -0.3981  0.2210
 1048poe    c31 8245   5.347   5.399   0.213 -0.2361  0.7001 -0.0504
 1048poe     o2 8246   5.416   5.457   0.321 -0.1895  0.1794  0.1979
 1048poe    c23 8247   5.327   5.534   0.399 -0.2673  0.3629 -0.0710
 1048poe    c23 8248   5.409   5.575   0.522 -0.0195  0.4547 -0.2680
 1048poe     o2 8249   5.535   5.613   0.470  0.4126 -0.0618  0.3859
 1048poe    c23 8250   5.578   5.735   0.527  0.0624  0.2269  0.0377
 1048poe    c23 8251   5.703   5.776   0.448  0.0310  0.3383  0.0461
 1048poe     o2 8252   5.808   5.684   0.429  0.3448  0.5900  0.5411
 1048poe    c23 8253   5.900   5.726   0.331  0.1375 -0.1070  0.0445
 1048poe    c23 8254   5.995   5.613   0.287 -0.1752 -0.4708  0.3007
 1048poe     o2 8255   5.951   5.528   0.184  0.7103 -0.5680 -0.0074
 1048poe    c31 8256   6.064   5.520   0.099  0.1509 -0.9104 -0.7332
 1049poe    c31 8257   2.973   4.171   0.649  0.3009  0.0871 -0.1353
 1049poe     o2 8258   2.886   4.064   0.682  0.5046  0.0034  0.1342
 1049poe    c23 8259   2.901   3.939   0.618 -0.4611  0.1271 -0.3485
 1049poe    c23 8260   2.803   3.836   0.675 -0.0964  0.1794  0.3909
 1049poe     o2 8261   2.819   3.777   0.802  0.2826 -0.3459  0.1063
 1049poe    c23 8262   2.719   3.681   0.825 -0.2121  0.2584  0.5110
 1049poe    c23 8263   2.690   3.651   0.974 -0.4990 -0.0222  0.4013
 1049poe     o2 8264   2.794   3.569   1.024 -0.3495 -0.1619 -0.1331
 1049poe    c23 8265   2.769   3.528   1.156 -0.4967 -0.2094 -0.1754
 1049poe    c23 8266   2.872   3.419   1.191  0.1819  0.6920  0.6949
 1049poe     o2 8267   2.989   3.454   1.121 -0.0445 -0.1105 -0.1147
 1049poe    c31 8268   3.112   3.410   1.176 -0.2402  0.0510  0.4613
 1050poe    c31 8269   2.924   3.346   4.774 -0.4099 -0.3636  0.0205
 1050poe     o2 8270   2.918   3.455   4.864 -0.0250 -0.0688 -0.3019
 1050poe    c23 8271   3.044   3.493   4.913 -0.2517 -0.6296  0.7610
 1050poe    c23 8272   3.024   3.628   4.984 -0.6010 -0.2756 -0.0045
 1050poe     o2 8273   2.912   3.591   5.061 -0.3825  0.0529  0.4711
 1050poe    c23 8274   2.873   3.677   5.166 -1.0622  0.0745  0.2025
 1050poe    c23 8275   2.769   3.594   5.245  0.1726 -1.5671  0.1577
 1050poe     o2 8276   2.672   3.538   5.160 -0.2098 -0.4935 -0.1234
 1050poe    c23 8277   2.544   3.516   5.216 -0.2388 -0.2503 -0.0913
 1050poe    c23 8278   2.447   3.441   5.123 -0.1964  0.1167 -0.4336
 1050poe     o2 8279   2.491   3.311   5.092 -0.0306  0.0706 -0.0211
 1050poe    c31 8280   2.399   3.227   5.026  0.2666 -0.4017  0.1618
 1051poe    c31 8281   6.134   1.279   6.389 -0.8354 -0.6236  0.5714
 1051poe     o2 8282   6.019   1.341   6.441 -0.3004  0.7044  0.2214
 1051poe    c23 8283   5.918   1.347   6.343 -0.3099 -0.0411  0.1760
 1051poe    c23 8284   5.786   1.417   6.381 -0.2322  0.2039 -0.0013
 1051poe     o2 8285   5.803   1.557   6.383  0.8428  0.0834 -0.3186
 1051poe    c23 8286   5.693   1.627   6.435  0.6796 -0.2816 -0.1667
 1051poe    c23 8287   5.708   1.781   6.434  0.1038 -0.2162  0.6405
 1051poe     o2 8288   5.844   1.808   6.457  0.2471 -0.5214  0.1616
 1051poe    c23 8289   5.879   1.937   6.414 -0.2591 -0.3851  0.1511
 1051poe    c23 8290   6.011   1.956   6.492 -0.1517 -0.5319  0.0031
 1051poe     o2 8291   6.093   1.855   6.436  0.4710 -0.0852  0.0974
 1051poe    c31 8292   6.210   1.854   6.514  0.1429 -0.3716  0.5935
 1052poe    c31 8293   1.324   2.985   5.137  0.7068  0.3546 -0.6166
 1052poe     o2 8294   1.349   3.115   5.088  0.1632  0.4244 -0.7105
 1052poe    c23 8295   1.476   3.157   5.130  0.3071 -0.1095 -0.6060
 1052poe    c23 8296   1.484   3.306   5.095  0.0216  0.0253 -0.0984
 1052poe     o2 8297   1.436   3.342   4.967 -0.2158  0.0593  0.0003
 1052poe    c23 8298   1.470   3.472   4.926 -0.6690  0.1208 -0.1905
 1052poe    c23 8299   1.454   3.506   4.777  0.1583 -0.1096 -0.3392
 1052poe     o2 8300   1.569   3.497   4.696 -0.1453 -0.1540 -0.7679
 1052poe    c23 8301   1.679   3.581   4.718 -0.2572 -0.1322 -0.2717
 1052poe    c23 8302   1.788   3.569   4.609  0.2711 -0.4192  0.2839
 1052poe     o2 8303   1.818   3.435   4.578  0.2908 -0.3331 -0.0667
 1052poe    c31 8304   1.928   3.439   4.489  0.1501  0.3036 -0.2174
 1053poe    c31 8305   6.219   6.320   0.513  0.1134  0.0331 -0.7915
 1053poe     o2 8306   6.203   6.180   0.505 -0.3318  0.0781 -0.6672
 1053poe    c23 8307   6.069   6.134   0.507 -0.1774 -0.3428  0.6802
 1053poe    c23 8308   6.082   5.981   0.513 -0.1244 -0.3450  0.5077
 1053poe     o2 8309   6.172   5.939   0.613  0.3319 -0.1339  0.1928
 1053poe    c23 8310   6.188   5.800   0.592  0.4605 -0.0515 -0.2676
 1053poe    c23 8311   6.225   5.730   0.724  0.3034 -0.1169 -0.2585
 1053poe     o2 8312   6.319   5.825   0.769  0.2143 -0.0531 -0.2050
 1053poe    c23 8313   6.351   5.804   0.905  0.6134 -0.7757 -0.4026
 1053poe    c23 8314   6.463   5.903   0.942  0.6357 -0.8229 -0.3432
 1053poe     o2 8315   6.416   6.033   0.912  0.3312 -0.7134  0.5915
 1053poe    c31 8316   6.511   6.137   0.908 -0.4365 -0.0030  0.4748
 1054poe    c31 8317   1.700   5.645   1.470  0.0053  1.0095  0.7125
 1054poe     o2 8318   1.718   5.591   1.599  0.8160 -0.0461  0.1757
 1054poe    c23 8319   1.616   5.635   1.685  0.6711 -0.4831  0.2299
 1054poe    c23 8320   1.638   5.568   1.822 -0.5347 -0.1967  0.5817
 1054poe     o2 8321   1.778   5.564   1.839 -0.4607 -0.2360 -0.0292
 1054poe    c23 8322   1.838   5.561   1.966 -0.3370 -0.2287 -0.0870
 1054poe    c23 8323   1.991   5.577   1.953 -0.2715 -0.8403 -0.1297
 1054poe     o2 8324   2.045   5.497   1.850  0.4487 -0.6999  0.1370
 1054poe    c23 8325   2.186   5.504   1.860  0.4021 -0.0060  0.4108
 1054poe    c23 8326   2.262   5.406   1.769  0.6377  0.3454  0.2268
 1054poe     o2 8327   2.229   5.429   1.634 -0.5562 -0.9815  0.2702
 1054poe    c31 8328   2.320   5.355   1.555 -0.3414 -0.4291 -0.0022
 1055poe    c31 8329   3.321   2.898   4.937 -0.2136 -0.0148  0.3133
 1055poe     o2 8330   3.454   2.862   4.970 -0.1393  0.1287  0.1697
 1055poe    c23 8331   3.549   2.929   4.890 -0.4508  0.1282 -0.2058
 1055poe    c23 8332   3.687   2.919   4.958 -0.5481 -0.4205 -0.0867
 1055poe     o2 8333   3.697   2.787   5.007  0.3652 -0.2149  0.2865
 1055poe    c23 8334   3.803   2.777   5.100  0.4421  0.4236  0.2746
 1055poe    c23 8335   3.833   2.628   5.125 -0.2060  0.1998 -0.2548
 1055poe     o2 8336   3.712   2.569   5.169 -0.1428  0.1729 -0.1158
 1055poe    c23 8337   3.729   2.431   5.190  0.1506  0.3300  0.6984
 1055poe    c23 8338   3.594   2.357   5.201  0.2458  0.0941  0.2927
 1055poe     o2 8339   3.514   2.358   5.086  0.3920 -0.7989  0.1751
 1055poe    c31 8340   3.414   2.259   5.099 -0.1367 -0.2304  0.4941
 1056poe    c31 8341   0.436   2.306   5.581 -0.0451  0.1432  0.1930
 1056poe     o2 8342   0.427   2.194   5.495 -0.1300  0.2124  0.1116
 1056poe    c23 8343   0.300   2.134   5.507  0.0518 -0.0630  0.7219
 1056poe    c23 8344   0.286   2.022   5.402 -0.7636  0.5211  0.1887
 1056poe     o2 8345   0.162   1.988   5.345 -0.2495 -0.3830 -0.4125
 1056poe    c23 8346   0.174   1.859   5.289  1.2521 -0.0893 -0.8198
 1056poe    c23 8347   0.066   1.840   5.181  0.6071  0.3987 -0.2727
 1056poe     o2 8348  -0.058   1.891   5.224  0.2262 -0.7310 -0.0127
 1056poe    c23 8349  -0.172   1.862   5.147 -0.0356 -0.0123  0.0982
 1056poe    c23 8350  -0.284   1.938   5.221 -0.1875  0.1710 -0.3176
 1056poe     o2 8351  -0.230   2.057   5.274  0.1409 -0.2842  0.3874
 1056poe    c31 8352  -0.336   2.122   5.342 -0.0730 -0.3254  0.0978
 1057poe    c31 8353   2.991   1.879   3.352  0.6168 -0.5531  0.8092
 1057poe     o2 8354   2.931   1.894   3.479 -0.3272  0.3733  0.2716
 1057poe    c23 8355   2.932   2.032   3.504  0.4623  0.4775 -0.3069
 1057poe    c23 8356   2.881   2.075   3.642  0.4232 -0.0739 -0.1484
 1057poe     o2 8357   2.743   2.047   3.660  0.3342  0.1158 -0.5324
 1057poe    c23 8358   2.698   2.078   3.790  0.1605  0.0955 -0.5883
 1057poe    c23 8359   2.545   2.064   3.795  0.1855  0.0733  0.0966
 1057poe     o2 8360   2.504   1.931   3.774 -0.1599  0.2375 -0.2777
 1057poe    c23 8361   2.363   1.926   3.774 -0.1446 -0.2902  0.4531
 1057poe    c23 8362   2.339   1.778   3.740 -0.1011 -0.0761 -0.5426
 1057poe     o2 8363   2.419   1.768   3.625  0.7699  0.0061  0.0445
 1057poe    c31 8364   2.365   1.686   3.523 -0.3698 -0.0836  0.7143
 1058poe    c31 8365   0.574   6.572   3.586  0.4269  0.2209  0.0578
 1058poe     o2 8366   0.517   6.627   3.702  0.1584 -0.5141  0.2807
 1058poe    c23 8367   0.621   6.693   3.770  0.0196  0.1520 -0.1426
 1058poe    c23 8368   0.578   6.730   3.913 -0.1280  0.0335 -0.1570
 1058poe     o2 8369   0.450   6.788   3.907 -0.0862  0.1689  0.2444
 1058poe    c23 8370   0.403   6.835   4.032 -0.3735  0.3967  0.0534
 1058poe    c23 8371   0.271   6.896   3.982 -0.3182  0.5009  0.0348
 1058poe     o2 8372   0.227   6.815   3.875  0.1297  0.1360  0.1222
 1058poe    c23 8373   0.087   6.819   3.856  0.2119  0.2509 -0.4831
 1058poe    c23 8374   0.068   6.680   3.794 -0.1269  0.2073 -0.2834
 1058poe     o2 8375   0.185   6.644   3.725 -0.0074 -0.0406  0.0428
 1058poe    c31 8376   0.165   6.528   3.647 -0.3751 -0.0316  0.1249
 1059poe    c31 8377   4.120   3.668   2.463  0.4668  0.2506 -0.1312
 1059poe     o2 8378   4.077   3.801   2.480  0.1308  0.1930 -0.5028
 1059poe    c23 8379   3.937   3.818   2.480  0.0574 -0.3807  0.1058
 1059poe    c23 8380   3.901   3.959   2.530  0.3733 -0.1504 -0.3090
 1059poe     o2 8381   3.933   3.992   2.663 -0.2889  0.6381 -0.3376
 1059poe    c23 8382   3.896   4.125   2.693 -0.0238  0.6377 -0.0045
 1059poe    c23 8383   3.877   4.141   2.845 -0.6864  0.7152 -0.0945
 1059poe     o2 8384   3.982   4.081   2.917 -0.5755  0.8762 -0.1202
 1059poe    c23 8385   3.954   4.068   3.055 -0.2324  0.9683 -0.0421
 1059poe    c23 8386   4.087   4.013   3.110 -0.6724 -0.1603 -0.0677
 1059poe     o2 8387   4.126   3.912   3.020  0.3823 -0.0054  0.1945
 1059poe    c31 8388   4.225   3.842   3.093  0.4211  0.0582  0.2017
 1060poe    c31 8389   5.572   6.689   2.919 -0.3217  0.3583 -0.0079
 1060poe     o2 8390   5.699   6.658   2.972 -0.3059  0.2867 -0.0879
 1060poe    c23 8391   5.806   6.724   2.908 -0.4123  0.6275  0.0871
 1060poe    c23 8392   5.923   6.719   3.008  0.1055  0.3029 -0.5281
 1060poe     o2 8393   5.945   6.583   3.040 -0.1738  0.5045  0.5568
 1060poe    c23 8394   6.014   6.563   3.161 -0.0644 -0.4922  0.3399
 1060poe    c23 8395   5.963   6.431   3.221 -0.0986 -0.2718  0.8022
 1060poe     o2 8396   5.825   6.459   3.226 -0.0908 -0.2219  0.7252
 1060poe    c23 8397   5.756   6.350   3.281 -0.0600 -0.5676  0.0878
 1060poe    c23 8398   5.605   6.368   3.260  0.0328  0.4114  0.2277
 1060poe     o2 8399   5.597   6.438   3.138  0.0295  0.2465  0.1333
 1060poe    c31 8400   5.459   6.420   3.114  0.1449 -0.0992 -0.2754
 1061poe    c31 8401   1.600   5.442   5.842 -0.2539 -0.4303 -0.1276
 1061poe     o2 8402   1.546   5.345   5.929  0.5047 -0.5315  0.2406
 1061poe    c23 8403   1.597   5.220   5.888  0.7337 -0.6316  0.8241
 1061poe    c23 8404   1.555   5.095   5.968 -0.2539 -0.6093  0.3524
 1061poe     o2 8405   1.580   5.101   6.106 -0.5320  0.1096  0.3768
 1061poe    c23 8406   1.525   4.982   6.159  0.2431 -0.4011  0.0473
 1061poe    c23 8407   1.557   4.954   6.307 -0.2835 -0.5497  0.1333
 1061poe     o2 8408   1.495   5.050   6.389  0.1068 -0.2481  0.0763
 1061poe    c23 8409   1.491   5.011   6.525 -0.5204 -0.3133  0.0415
 1061poe    c23 8410   1.480   5.146   6.598 -0.1237  0.1787 -0.7953
 1061poe     o2 8411   1.576   5.231   6.538  0.1250  0.3676 -0.1414
 1061poe    c31 8412   1.576   5.350   6.613 -0.0309  0.2223  0.0915
 1062poe    c31 8413   0.124   6.765   2.963 -0.0798 -0.2532  0.5003
 1062poe     o2 8414  -0.009   6.729   2.936 -0.0561  0.0108  0.0243
 1062poe    c23 8415  -0.101   6.836   2.924  0.2425  0.2998  0.2908
 1062poe    c23 8416  -0.239   6.769   2.912  0.1734  0.4592  0.1931
 1062poe     o2 8417  -0.236   6.657   2.998  0.3220  0.5607  0.3193
 1062poe    c23 8418  -0.355   6.595   3.041  0.3455  0.1178 -0.2495
 1062poe    c23 8419  -0.329   6.472   3.130 -0.0070 -0.0732 -0.4100
 1062poe     o2 8420  -0.214   6.401   3.090 -0.0072 -0.0645 -0.4245
 1062poe    c23 8421  -0.228   6.261   3.081  0.2199 -0.0748 -0.6421
 1062poe    c23 8422  -0.305   6.207   2.959 -0.3781 -0.0230 -0.2891
 1062poe     o2 8423  -0.240   6.230   2.837  0.0513 -0.0213 -0.0618
 1062poe    c31 8424  -0.319   6.203   2.723 -0.0958 -0.0585  0.0494
 1063poe    c31 8425   2.237   1.098   2.232  0.1289  0.7019 -0.4604
 1063poe     o2 8426   2.200   1.217   2.297 -0.1933  0.0817  0.5040
 1063poe    c23 8427   2.062   1.233   2.322 -0.2668 -0.0966  0.2137
 1063poe    c23 8428   2.038   1.375   2.379 -0.0526 -0.0204  0.1138
 1063poe     o2 8429   2.146   1.394   2.467 -0.2460  0.1035  0.3234
 1063poe    c23 8430   2.145   1.510   2.547  0.2076  0.7819 -0.6523
 1063poe    c23 8431   2.287   1.558   2.586  0.0803  0.3340  0.3701
 1063poe     o2 8432   2.373   1.454   2.626 -0.1399  0.0939  0.2274
 1063poe    c23 8433   2.509   1.492   2.625 -0.3116  0.6994 -0.8738
 1063poe    c23 8434   2.603   1.400   2.705 -0.4714  0.2972 -1.1438
 1063poe     o2 8435   2.579   1.268   2.661 -0.2457 -0.3061  0.4894
 1063poe    c31 8436   2.669   1.192   2.738  0.1271 -0.7252 -0.3477
 1064poe    c31 8437   0.902   1.884   4.022 -0.0967 -0.2610 -0.1046
 1064poe     o2 8438   0.882   1.952   3.900 -0.2531 -0.1386 -0.0112
 1064poe    c23 8439   0.760   2.023   3.902 -0.0975  0.1151  0.7243
 1064poe    c23 8440   0.740   2.063   3.755  0.0941 -0.8063  0.4401
 1064poe     o2 8441   0.846   2.146   3.713 -0.3936 -0.3437  0.0970
 1064poe    c23 8442   0.803   2.266   3.653  0.6927 -0.0507 -0.1285
 1064poe    c23 8443   0.918   2.355   3.602  0.0882  0.5938 -0.3779
 1064poe     o2 8444   0.993   2.420   3.701 -0.5176  0.4297  0.2003
 1064poe    c23 8445   1.085   2.511   3.644 -0.5380  0.3256  0.0029
 1064poe    c23 8446   1.169   2.568   3.759 -0.1078  0.1887 -0.2374
 1064poe     o2 8447   1.190   2.465   3.854  0.1375  0.1368 -0.3491
 1064poe    c31 8448   1.232   2.518   3.977 -0.5022 -0.4320  0.1191
 1065poe    c31 8449   2.243   2.008   0.162  0.4425 -0.1088 -0.2266
 1065poe     o2 8450   2.291   2.087   0.269 -0.4201 -0.4441  0.4261
 1065poe    c23 8451   2.293   2.214   0.207 -0.2807 -0.6840 -0.0728
 1065poe    c23 8452   2.337   2.324   0.306  0.3292 -0.8123 -0.2000
 1065poe     o2 8453   2.241   2.355   0.405  0.6558 -0.6069  0.0540
 1065poe    c23 8454   2.298   2.442   0.501  0.0188 -0.6727  0.4950
 1065poe    c23 8455   2.191   2.509   0.589  0.1252  0.0435  0.0875
 1065poe     o2 8456   2.114   2.399   0.632 -0.0993 -0.1324 -0.7449
 1065poe    c23 8457   1.987   2.443   0.672  0.4328  0.3004  0.5099
 1065poe    c23 8458   1.894   2.329   0.720  0.5901 -0.0577 -0.0267
 1065poe     o2 8459   1.905   2.241   0.611 -0.1668  0.5339 -0.5856
 1065poe    c31 8460   1.805   2.143   0.626  0.2223  0.0913 -0.8565
 1066poe    c31 8461   6.439   6.172   4.066  0.0014  0.1638 -0.0179
 1066poe     o2 8462   6.473   6.141   3.933 -0.2661  0.5201 -0.1706
 1066poe    c23 8463   6.611   6.144   3.902 -0.0917 -0.5402  0.4627
 1066poe    c23 8464   6.631   6.112   3.753  0.0928 -0.0965  0.3915
 1066poe     o2 8465   6.571   5.986   3.734  0.3648 -0.1632 -0.0406
 1066poe    c23 8466   6.558   5.933   3.604 -0.2362 -0.6603  0.2155
 1066poe    c23 8467   6.445   5.831   3.625 -0.3520 -0.5335  0.2108
 1066poe     o2 8468   6.355   5.886   3.718  0.1457  0.1405  0.2948
 1066poe    c23 8469   6.261   5.787   3.754 -0.1429  0.2092 -0.2640
 1066poe    c23 8470   6.160   5.867   3.837  0.0090 -0.5063  0.6198
 1066poe     o2 8471   6.234   5.965   3.907  0.0538 -0.2116  0.1609
 1066poe    c31 8472   6.155   6.005   4.016 -0.0958 -0.7969  0.2703
 1067poe    c31 8473   6.310   5.516   2.013 -0.6329  0.5386  0.1067
 1067poe     o2 8474   6.278   5.381   1.987  0.1653  0.3662  0.0141
 1067poe    c23 8475   6.380   5.293   2.029  0.0874  0.0244 -0.4973
 1067poe    c23 8476   6.341   5.146   2.004  0.0073 -0.0172 -0.1341
 1067poe     o2 8477   6.311   5.109   1.872  0.2782 -0.3674 -0.0993
 1067poe    c23 8478   6.414   5.109   1.775  0.0614 -0.7174 -0.3320
 1067poe    c23 8479   6.367   5.018   1.660 -0.1847 -0.3428 -0.5311
 1067poe     o2 8480   6.239   5.074   1.639  0.1531  0.3237 -0.8240
 1067poe    c23 8481   6.165   4.992   1.551 -0.1752 -0.1655 -0.1039
 1067poe    c23 8482   6.035   5.066   1.514 -0.3214 -0.4500 -0.1583
 1067poe     o2 8483   5.990   5.099   1.643 -0.2972  0.5559 -0.3946
 1067poe    c31 8484   5.856   5.141   1.639 -0.4494  0.1537  0.2393
 1068poe    c31 8485   1.355   3.814   0.804  0.7751 -0.0787  0.2605
 1068poe     o2 8486   1.313   3.911   0.897  0.1460 -0.2961  0.2062
 1068poe    c23 8487   1.408   4.015   0.899 -0.3247  0.1562 -0.5141
 1068poe    c23 8488   1.384   4.110   1.018 -0.2454 -0.3063 -0.1244
 1068poe     o2 8489   1.247   4.143   1.008 -0.2517 -0.3319 -0.1206
 1068poe    c23 8490   1.204   4.206   1.126 -0.1366 -0.0832 -0.2103
 1068poe    c23 8491   1.053   4.178   1.124 -0.2614  0.5539 -0.1601
 1068poe     o2 8492   1.036   4.042   1.089  0.4052  0.4264 -0.0035
 1068poe    c23 8493   0.910   4.013   1.033  0.2772  0.2058  0.3920
 1068poe    c23 8494   0.907   3.860   1.018  0.5555  0.2393 -0.0252
 1068poe     o2 8495   1.016   3.816   0.940  0.3679  0.6244 -0.5083
 1068poe    c31 8496   1.020   3.675   0.931 -0.7154  0.6023 -0.7807
 1069poe    c31 8497   0.231   3.360   3.111 -0.2581  0.6750 -0.5340
 1069poe     o2 8498   0.342   3.419   3.174 -0.0004 -0.2493 -0.1089
 1069poe    c23 8499   0.307   3.550   3.210  0.2665 -0.1985 -0.0248
 1069poe    c23 8500   0.445   3.617   3.222  0.4691 -0.6695  0.2844
 1069poe     o2 8501   0.537   3.532   3.285  0.4869 -0.6725  0.2542
 1069poe    c23 8502   0.521   3.535   3.425 -0.0090  0.2064  0.1813
 1069poe    c23 8503   0.573   3.399   3.474 -0.6373  0.0029  0.2968
 1069poe     o2 8504   0.529   3.316   3.369  0.2390  0.3936 -0.3985
 1069poe    c23 8505   0.593   3.191   3.383 -0.3113  0.1739  0.2011
 1069poe    c23 8506   0.503   3.096   3.303  0.0299  0.1426 -0.1482
 1069poe     o2 8507   0.495   3.112   3.163 -0.5238  0.4293 -0.0867
 1069poe    c31 8508   0.449   2.993   3.105 -0.0504  0.2948 -0.1943
 1070poe    c31 8509   2.636   4.701   5.008  0.3923  0.2007  0.0937
 1070poe     o2 8510   2.728   4.594   5.006  0.3214  0.1457 -0.2172
 1070poe    c23 8511   2.724   4.542   5.137 -0.4425 -0.2124 -0.3752
 1070poe    c23 8512   2.799   4.407   5.141 -0.0563  0.0075 -0.1696
 1070poe     o2 8513   2.894   4.418   5.037 -0.2904  0.1436 -0.3704
 1070poe    c23 8514   2.937   4.294   4.986 -0.2815  0.0507 -0.1375
 1070poe    c23 8515   3.039   4.326   4.876  0.0898 -0.0037  0.1895
 1070poe     o2 8516   2.994   4.446   4.817 -0.6451 -0.0799  0.5918
 1070poe    c23 8517   3.041   4.475   4.688 -1.3275 -0.0419  0.3484
 1070poe    c23 8518   2.983   4.614   4.656 -0.5205  0.0626 -0.7046
 1070poe     o2 8519   2.855   4.627   4.714 -0.2918  0.0196 -0.1905
 1070poe    c31 8520   2.771   4.728   4.663  0.0383  0.4556  0.1244
 1071poe    c31 8521   0.012   3.529   5.442  0.3441 -0.2881 -0.2418
 1071poe     o2 8522   0.008   3.658   5.385 -0.4263 -0.3153 -0.2497
 1071poe    c23 8523   0.134   3.691   5.332 -0.1036 -0.3394  0.4916
 1071poe    c23 8524   0.112   3.753   5.193  0.1516 -0.0567  0.5769
 1071poe     o2 8525   0.047   3.877   5.203 -0.0174 -0.0975  0.0162
 1071poe    c23 8526   0.049   3.931   5.072  0.3642  0.1847  0.1370
 1071poe    c23 8527  -0.014   4.069   5.053  0.1309  0.0767  0.1288
 1071poe     o2 8528  -0.111   4.072   5.156  0.0625  0.4694  0.0581
 1071poe    c23 8529  -0.147   4.203   5.192  0.1574  0.5818 -0.2562
 1071poe    c23 8530  -0.241   4.190   5.314  0.0016 -0.4158 -0.4747
 1071poe     o2 8531  -0.179   4.100   5.403  0.1367  0.0003 -0.1459
 1071poe    c31 8532  -0.232   4.107   5.534  0.3587 -0.1100 -0.0505
 1072poe    c31 8533   4.855   3.152   3.771  0.4050 -0.2200 -0.0474
 1072poe     o2 8534   4.989   3.178   3.734  0.1853 -0.0342 -0.7234
 1072poe    c23 8535   5.012   3.191   3.595  0.0611 -0.1140 -0.7518
 1072poe    c23 8536   5.161   3.201   3.558  0.2087  0.2980 -0.0563
 1072poe     o2 8537   5.232   3.118   3.647  0.3273  0.3910 -0.0629
 1072poe    c23 8538   5.369   3.128   3.617  0.2733 -0.2453 -0.5352
 1072poe    c23 8539   5.443   3.040   3.720 -0.0855  0.1747  0.0880
 1072poe     o2 8540   5.368   3.062   3.837 -0.1643  0.1556  0.0416
 1072poe    c23 8541   5.407   2.975   3.940  0.3927 -0.0478 -0.3347
 1072poe    c23 8542   5.315   2.990   4.063  0.1332 -0.0769 -0.5249
 1072poe     o2 8543   5.182   2.990   4.014 -0.0825 -0.1482  0.0575
 1072poe    c31 8544   5.081   2.975   4.111  0.0487  0.7793  0.3436
 1073poe    c31 8545   2.543   6.408   0.099 -0.2184  0.2037 -1.0244
 1073poe     o2 8546   2.405   6.393   0.121  0.1335 -0.4593  0.8626
 1073poe    c23 8547   2.347   6.508   0.178  0.2577  0.2704 -0.4413
 1073poe    c23 8548   2.200   6.490   0.221  0.2525  0.2577 -0.4648
 1073poe     o2 8549   2.158   6.370   0.160 -0.2568  0.3766 -0.3541
 1073poe    c23 8550   2.023   6.346   0.193 -0.0301 -0.2674  0.1230
 1073poe    c23 8551   2.017   6.193   0.180  0.2992 -0.2837  0.1662
 1073poe     o2 8552   2.105   6.161   0.074  0.2327  0.0529  0.0065
 1073poe    c23 8553   2.141   6.025   0.065 -0.5545 -0.1322 -0.4893
 1073poe    c23 8554   2.254   6.003  -0.038 -0.5052 -0.1851 -0.4247
 1073poe     o2 8555   2.349   6.106  -0.023 -0.3748 -0.3757  0.0598
 1073poe    c31 8556   2.477   6.059  -0.058 -0.1873 -0.0365  0.2850
 1074poe    c31 8557   6.783   3.871   3.002  0.9524 -0.3756  0.1397
 1074poe     o2 8558   6.799   4.008   3.031 -0.0076 -0.2645  0.1648
 1074poe    c23 8559   6.815   4.085   2.914 -0.1481  0.0388  0.3460
 1074poe    c23 8560   6.811   4.234   2.953  0.3608  0.0933  0.1902
 1074poe     o2 8561   6.840   4.249   3.090  0.6807  0.1530  0.1172
 1074poe    c23 8562   6.808   4.379   3.134 -0.0539  0.0253 -0.0322
 1074poe    c23 8563   6.822   4.372   3.287  0.4497 -0.3635 -0.0920
 1074poe     o2 8564   6.753   4.260   3.338  0.2757  0.0088  0.5032
 1074poe    c23 8565   6.711   4.279   3.472  0.2827  0.3139  0.4636
 1074poe    c23 8566   6.610   4.173   3.520  0.4497 -0.0131  0.0988
 1074poe     o2 8567   6.505   4.194   3.429  0.4702 -0.2323  0.0249
 1074poe    c31 8568   6.384   4.157   3.491  0.1309 -0.4256 -0.7362
 1075poe    c31 8569   4.498   6.112   4.587 -0.2453 -0.3168 -0.4606
 1075poe     o2 8570   4.377   6.184   4.596  0.1237  0.2406  0.1044
 1075poe    c23 8571   4.280   6.112   4.669  0.2891  0.0415  0.1297
 1075poe    c23 8572   4.162   6.196   4.722  0.4839  0.1187  0.4422
 1075poe     o2 8573   4.128   6.272   4.609  0.3024 -0.1071  0.3428
 1075poe    c23 8574   4.023   6.364   4.629 -0.0714 -0.4193 -0.1621
 1075poe    c23 8575   4.032   6.460   4.509  0.1408  0.2085  0.3486
 1075poe     o2 8576   4.170   6.483   4.495  0.0336  0.2459 -0.7980
 1075poe    c23 8577   4.219   6.541   4.376 -0.1587  0.3087 -0.8458
 1075poe    c23 8578   4.372   6.524   4.375 -0.1349  0.3516  0.2526
 1075poe     o2 8579   4.393   6.386   4.361 -0.1807  0.3596  0.0982
 1075poe    c31 8580   4.505   6.350   4.284 -0.2538  0.2365  0.0488
 1076poe    c31 8581   3.872   1.887   5.028 -0.3822 -0.3151 -0.4256
 1076poe     o2 8582   3.963   1.779   5.030 -0.7698 -0.6408  0.1164
 1076poe    c23 8583   4.012   1.747   4.902 -0.3423  0.5672 -0.0346
 1076poe    c23 8584   4.094   1.617   4.902 -0.1241  0.7030 -0.1164
 1076poe     o2 8585   4.169   1.639   5.020  0.2091  0.2575 -0.2443
 1076poe    c23 8586   4.261   1.534   5.039  0.6062  0.5731 -0.4133
 1076poe    c23 8587   4.303   1.538   5.187  0.0433  0.0117 -0.2323
 1076poe     o2 8588   4.184   1.566   5.258  0.0535  0.2455 -0.3068
 1076poe    c23 8589   4.215   1.641   5.372  0.1860  0.1662 -0.2903
 1076poe    c23 8590   4.076   1.671   5.431  0.2167 -0.1274 -0.0679
 1076poe     o2 8591   4.011   1.740   5.327  0.0626 -0.1518  0.0115
 1076poe    c31 8592   3.894   1.803   5.373  0.1565 -0.0692  0.1367
 1077poe    c31 8593   3.475   5.694   2.464 -0.1204  0.4300  0.0210
 1077poe     o2 8594   3.537   5.820   2.478  0.2457  0.2559 -0.0361
 1077poe    c23 8595   3.527   5.867   2.611 -0.9083 -0.1981  0.0520
 1077poe    c23 8596   3.665   5.926   2.646 -0.8718 -0.2767  0.0410
 1077poe     o2 8597   3.697   6.043   2.573  0.0489 -0.2931  0.3967
 1077poe    c23 8598   3.803   6.118   2.626  0.2243 -0.1628 -0.1315
 1077poe    c23 8599   3.839   6.234   2.532 -0.7328  0.5041  0.3097
 1077poe     o2 8600   3.804   6.204   2.398 -0.1067  0.1248  0.2308
 1077poe    c23 8601   3.830   6.317   2.318 -0.2093  0.1788  0.2749
 1077poe    c23 8602   3.771   6.295   2.178  0.4273  0.0345  0.0242
 1077poe     o2 8603   3.817   6.181   2.110 -0.1767  0.1189 -0.5408
 1077poe    c31 8604   3.815   6.201   1.970  0.3038 -0.4359 -0.6321
 1078poe    c31 8605   3.846   1.192   1.239  0.0766 -0.0387 -0.3007
 1078poe     o2 8606   3.961   1.169   1.317 -0.0977 -0.1591 -0.0737
 1078poe    c23 8607   4.069   1.254   1.283 -0.2325 -0.1193 -0.4070
 1078poe    c23 8608   4.186   1.181   1.351 -0.1468 -0.0012 -0.4271
 1078poe     o2 8609   4.127   1.151   1.476  0.6351  0.0041 -0.0530
 1078poe    c23 8610   4.213   1.120   1.584  0.0851 -0.2353  0.3197
 1078poe    c23 8611   4.145   1.089   1.719 -0.0868  0.1394  0.3194
 1078poe     o2 8612   4.040   1.180   1.744  0.1074  0.5768 -0.4105
 1078poe    c23 8613   4.011   1.203   1.880 -0.1728 -0.5663 -0.2618
 1078poe    c23 8614   3.863   1.241   1.895  0.0603  0.1063  0.4061
 1078poe     o2 8615   3.839   1.354   1.815 -0.3728  0.0959  0.5174
 1078poe    c31 8616   3.703   1.388   1.827 -0.4511  0.2693 -0.6959
 1079poe    c31 8617   3.852   3.031   1.643 -0.1292 -0.0844 -0.0072
 1079poe     o2 8618   3.876   2.985   1.511  0.0175  0.0082 -0.0136
 1079poe    c23 8619   3.758   2.934   1.453  0.0669 -0.0116 -0.0969
 1079poe    c23 8620   3.802   2.842   1.338 -0.4172  0.1866 -0.4419
 1079poe     o2 8621   3.905   2.915   1.276 -0.2815  0.3353 -0.0412
 1079poe    c23 8622   3.922   2.866   1.145  0.4468  0.0556  0.1478
 1079poe    c23 8623   4.062   2.913   1.103  0.6058 -0.0994  0.5004
 1079poe     o2 8624   4.151   2.873   1.205  0.0905 -0.7256  0.7039
 1079poe    c23 8625   4.284   2.906   1.175 -0.3726  0.4229 -0.1848
 1079poe    c23 8626   4.391   2.814   1.238 -0.1243  0.6621 -0.2519
 1079poe     o2 8627   4.400   2.830   1.378 -0.4533 -0.0631 -0.1417
 1079poe    c31 8628   4.487   2.740   1.441 -0.1382  0.4203  0.1148
 1080poe    c31 8629   2.283   3.352   4.123  0.1226 -0.1558  0.2615
 1080poe     o2 8630   2.404   3.324   4.190  0.3035 -0.2614 -0.1057
 1080poe    c23 8631   2.393   3.193   4.243  0.2463 -0.1493  0.1632
 1080poe    c23 8632   2.515   3.181   4.336  0.1392 -0.2248  0.2932
 1080poe     o2 8633   2.630   3.226   4.268 -0.1063 -0.0802 -0.0263
 1080poe    c23 8634   2.758   3.205   4.323 -0.2557  0.4301  0.5206
 1080poe    c23 8635   2.850   3.306   4.252  0.2496 -0.0797  0.4476
 1080poe     o2 8636   2.798   3.434   4.226  0.1190 -0.2025  0.0959
 1080poe    c23 8637   2.900   3.509   4.164 -0.1201 -0.0046 -0.0564
 1080poe    c23 8638   2.897   3.660   4.194 -0.6083 -0.0934  0.3588
 1080poe     o2 8639   2.791   3.730   4.131 -0.4784 -0.0859  0.1483
 1080poe    c31 8640   2.817   3.868   4.141  0.6096 -0.3060  0.5321
 1081lim     li 8641   5.397   4.777   5.995 -0.0193  0.4444  0.6096
 1082lim     li 8642   5.183   2.498   2.882 -0.9120 -0.5885 -0.4506
 1083lim     li 8643   5.575   5.948   4.778 -1.4192 -0.7331 -0.8357
 1084lim     li 8644   5.936   3.556   2.448  0.8055 -0.2679 -0.7583
 1085lim     li 8645   4.921   6.527   1.742  0.5194 -1.7766 -0.8933
 1086lim     li 8646   1.679   3.332   4.611 -0.6111  0.2384 -1.0480
 1087lim     li 8647   1.560   1.075   6.125 -0.3404  0.1591  1.1142
 1088lim     li 8648   5.665   1.164   3.379  0.3507 -0.4091  0.2161
 1089lim     li 8649   5.795   1.118   1.226 -0.3286 -0.2933 -0.1739
 1090lim     li 8650   4.827   5.509   4.704 -0.3344 -1.5315  0.2872
 1091lim     li 8651   0.486   2.575   4.465 -0.0838  0.5131  0.4271
 1092lim     li 8652   1.289   6.615   3.669  0.8770  1.1874  0.1304
 1093lim     li 8653   1.162   3.343   5.753  0.3477  0.5491  0.6832
 1094lim     li 8654   3.740   6.643   1.671 -1.3640 -0.6121 -0.6622
 1095lim     li 8655   4.084   1.415   3.854  0.2558 -0.4966 -0.3350
 1096lim     li 8656   1.677   0.534   3.208 -0.5298  0.4394 -0.0472
 1097lim     li 8657   6.555   0.139   4.631  0.3363  0.0389 -0.4417
 1098lim     li 8658   5.800   4.109   4.881 -0.0945 -1.1759 -0.4787
 1099lim     li 8659   4.789   6.377   0.309 -0.1084 -0.0391  0.0128
 1100lim     li 8660   2.273   6.269   0.068 -0.1659  0.2113  1.0594
 1101lim     li 8661   5.310   2.420   0.636 -1.1412 -0.1059 -0.4338
 1102lim     li 8662   5.987   1.702   6.417  0.4055 -0.6142 -0.9184
 1103lim     li 8663   0.446   0.539   4.981  0.2944 -0.5667  0.2217
 1104lim     li 8664   1.786   4.506   3.949 -0.4038 -0.4147 -0.1129
 1105lim     li 8665   0.242   0.927   0.808  0.2290 -0.0889 -0.0541
 1106lim     li 8666   1.859   3.692   2.765 -0.2280  0.1244  0.7774
 1107lim     li 8667   3.297   5.126   2.096 -1.2400  0.2884  0.5203
 1108lim     li 8668   4.401   2.188   1.132  0.5873  0.5496  0.6608
 1109lim     li 8669   6.668   1.988   1.035  0.1814 -0.8185 -0.3136
 1110lim     li 8670   5.421   2.353   5.631  0.5916 -0.1919 -1.0018
 1111lim     li 8671   4.394   2.003   6.275  0.8560 -0.6018 -0.7057
 1112lim     li 8672   6.281   5.177   3.457  0.1715  0.3464  0.1041
 1113lim     li 8673   6.083   1.486   5.561  0.0341  0.5064  0.7039
 1114lim     li 8674   4.385   5.946   2.258 -0.4304  0.1274  0.6870
 1115lim     li 8675   2.175   0.808   5.949 -0.1113  0.3090 -0.6523
 1116lim     li 8676   6.226   4.167   4.207  0.7672 -0.1360 -0.9174
 1117lim     li 8677   5.921   2.719   2.708  0.9705  0.4041  0.5987
 1118lim     li 8678   3.452   5.163   5.302 -0.2626  1.2185  0.4652
 1119lim     li 8679   4.763   5.707   5.234  0.7410  0.7543  0.4650
 1120lim     li 8680   6.722   5.038   5.889 -0.1308 -0.3653 -0.1405
 1121lim     li 8681   3.813   2.680   6.182  0.6038  0.3283 -1.2731
 1122lim     li 8682   6.729   6.549   3.001 -0.0435  0.7270  0.4022
 1123lim     li 8683   4.781   1.500   0.029  0.9091  0.0714 -0.1937
 1124lim     li 8684   6.548   6.517   5.288  0.0927 -0.1993  0.6520
 1125lim     li 8685   2.790   3.988   4.529  0.7732 -0.1555  0.2117
 1126lim     li 8686   0.020   0.912   1.863  0.3972  0.0491  0.4605
 1127lim     li 8687   4.782   4.548   0.450 -0.7308 -0.0993 -0.3906
 1128lim     li 8688   2.879   3.734   3.562 -0.1820  0.0839 -0.3767
 1129lim     li 8689   1.064   4.813   1.133 -0.6516 -0.1830 -0.2641
 1130lim     li 8690   4.878   4.659   1.887  0.3876 -0.1804 -1.3464
 1131lim     li 8691   5.941   1.288   1.915  0.4361  0.8772  0.7530
 1132lim     li 8692   0.866   6.657   2.980  0.2916 -0.1141  1.8664
 1133lim     li 8693   0.914   3.404   0.054 -0.0508 -0.8918  0.3053
 1134lim     li 8694   4.344   3.447   6.602 -0.1946 -0.3640 -0.3014
 1135lim     li 8695   3.108   0.957   3.896  1.6772 -1.4439 -0.3346
 1136lim     li 8696   0.193   1.387   4.887 -0.0102 -0.1447  0.9074
 1137lim     li 8697   0.248   4.540   1.719  0.2236  0.1181 -0.4696
 1138lim     li 8698   2.581   1.803   3.667 -0.6037  0.1647 -0.7184
 1139lim     li 8699   6.613   3.172   4.906 -0.0083  0.2090  0.2887
 1140lim     li 8700   1.429   0.770   1.865  0.0401  0.2033 -0.5332
 1141lim     li 8701   0.040   6.475   1.366 -0.2729 -0.3236 -0.1435
 1142lim     li 8702   4.492   0.578   2.944 -0.0620  0.1241  0.2785
 1143lim     li 8703   4.371   6.550   1.223  0.5269  0.2259  0.2414
 1144lim     li 8704   1.403   1.261   2.537 -0.4337 -0.4374 -1.2483
 1145lim     li 8705   6.136   5.134   1.763 -0.7097  0.0778 -0.3637
 1146lim     li 8706   5.500   5.330   4.114 -0.4549  0.2984  0.1782
 1147lim     li 8707   5.609   3.546   6.734  0.3937 -0.3277 -0.2996
 1148lim     li 8708   5.166   2.619   1.566 -0.6677 -0.1703 -0.0727
 1149lim     li 8709   0.694   6.703   4.956  0.2374  0.3635  0.4686
 1150lim     li 8710   2.117   4.659   4.785  0.3999  0.4351  0.4038
 1151lim     li 8711   2.796   0.588   5.384  0.3593  0.8947 -0.5577
 1152lim     li 8712   0.852   4.424   4.332  0.2078  0.5845  1.0722
 1153lim     li 8713   4.707   0.991   5.109  0.7891  0.1997  0.1548
 1154lim     li 8714   2.101   2.498   6.437  0.4017 -0.4924  0.2077
 1155lim     li 8715   3.551   3.589   1.901 -0.1484  0.1387  0.3987
 1156lim     li 8716   4.555   4.835   1.218 -0.9280  1.0220 -0.5838
 1157lim     li 8717   1.798   2.544   3.044  0.7228 -0.1884  0.2348
 1158lim     li 8718   3.682   4.254   4.473  0.7125  0.7276 -1.1272
 1159lim     li 8719   1.931   2.905   2.206 -0.8316 -0.9266 -0.6224
 1160lim     li 8720   4.631   1.446   2.729  0.0009  0.2988 -0.4778
 1161lim     li 8721   3.533   2.714   5.059 -0.1643  0.9614 -0.4496
 1162lim     li 8722   6.418   5.989   3.854 -0.2060  0.3645 -0.1238
 1163lim     li 8723   5.728   6.567   3.112 -0.3017  0.1594 -0.7300
 1164lim     li 8724   1.867   6.664   0.475  0.1779  0.8885  0.6005
 1165lim     li 8725   5.113   6.027   2.813 -1.4062  0.1813  0.5459
 1166lim     li 8726   3.123   4.545   6.275  0.0280 -0.4261 -0.0109
 1167lim     li 8727   6.239   2.113   0.082  0.9049  0.3927 -0.6313
 1168lim     li 8728   3.340   5.040   4.505 -0.4575  0.7766 -0.7214
 1169lim     li 8729   5.883   0.778   4.519  0.9406  0.1538 -0.1202
 1170lim     li 8730   5.426   6.501   5.995 -0.5074 -0.1319 -0.5648
 1171lim     li 8731   1.435   1.926   6.779 -0.6147 -0.2127 -1.2553
 1172lim     li 8732   4.510   1.831   0.599  0.1178  0.7763  0.3921
 1173lim     li 8733   5.203   3.444   4.841 -1.3888 -0.0326 -0.1472
 1174lim     li 8734   3.994   0.357   1.312 -0.9702  0.1413 -0.2696
 1175lim     li 8735   3.461   4.281   3.556 -1.2176  1.0572  1.7159
 1176lim     li 8736   4.426   0.365   4.150 -0.2413  0.4101  0.0249
 1177lim     li 8737   0.380   1.641   2.219  0.3154 -0.0794 -0.4839
 1178lim     li 8738   1.636   2.883   3.939  0.7551  0.6151  0.2779
 1179lim     li 8739   1.416   3.850   1.724 -0.2272  0.3902  0.0140
 1180lim     li 8740   3.319   5.753   5.415 -0.2923  0.1115  0.9748
 1181lim     li 8741   6.037   2.701   3.876  0.0434  1.2771  0.4220
 1182lim     li 8742   1.579   0.548   5.388 -0.8157  0.1593  0.7996
 1183lim     li 8743   0.617   3.447   6.096  0.0028 -1.0930  0.8738
 1184lim     li 8744   4.037   1.661   5.147 -0.2526  1.1631 -0.7601
 1185lim     li 8745   6.326   0.895   5.140 -1.0570 -0.7612  0.3816
 1186lim     li 8746   2.748   2.202   0.426 -1.0260  0.0502  0.4765
 1187lim     li 8747   5.976   6.328   0.117  0.6029 -0.5361  0.4695
 1188lim     li 8748   3.554   3.201   2.668 -0.2643  0.3080  0.6007
 1189lim     li 8749   4.469   5.554   1.219  0.3520 -0.3354  0.3825
 1190lim     li 8750   3.199   6.436   0.427 -0.3282 -0.8750  0.5098
 1191lim     li 8751   1.379   6.765   0.777 -1.1019  0.5254 -0.8748
 1192lim     li 8752   1.574   5.222   6.361 -1.1333  0.0321  0.1994
 1193lim     li 8753   6.705   4.803   1.053  1.4972 -0.0757 -0.6600
 1194lim     li 8754   3.078   1.348   0.314 -0.0504 -0.2094 -0.6462
 1195lim     li 8755   4.706   2.234   3.351  0.1062  0.6760 -0.1786
 1196lim     li 8756   6.778   1.827   4.260  1.3121 -1.2238 -0.2832
 1197lim     li 8757   3.243   5.316   6.265  0.7651 -0.4766 -1.0202
 1198lim     li 8758   2.107   6.747   5.391 -0.7780  0.9395  0.2516
 1199lim     li 8759   3.126   2.919   0.411  0.5264  0.1036  0.4276
 1200lim     li 8760   4.877   1.124   0.954  0.1958  0.6433  0.5053
 1201lim     li 8761   6.184   1.973   3.389  1.3183  0.5864 -1.5915
 1202lim     li 8762   5.037   1.703   1.564  0.1033  0.4137 -0.2733
 1203lim     li 8763   2.293   3.248   0.249  0.2222 -0.2152  0.1430
 1204lim     li 8764   2.163   5.084   2.303 -0.0485  0.4583 -1.0965
 1205lim     li 8765   5.612   4.463   4.116  0.1247  0.1589 -0.0763
 1206lim     li 8766   4.335   6.373   3.014 -0.5462  0.0305 -0.4373
 1207lim     li 8767   6.132   0.879   0.375  0.7244 -0.6091  0.3051
 1208lim     li 8768   4.152   2.154   3.613 -0.5316  0.1445  0.1129
 1209lim     li 8769   3.875   1.679   2.922 -0.5072  0.0401  0.9217
 1210lim     li 8770   1.091   4.056   5.531 -0.0836  0.3634  0.3323
 1211lim     li 8771   3.565   5.949   4.777  0.6036  0.0420  0.7631
 1212lim     li 8772   3.748   5.685   0.969  0.5361  0.7127 -0.0254
 1213lim     li 8773   5.120   0.441   1.560 -1.3406  0.0103 -0.6766
 1214lim     li 8774   6.033   4.556   3.387 -0.2917 -0.9459 -0.4585
 1215lim     li 8775   0.394   1.437   3.308 -0.2302 -0.0147  0.3145
 1216lim     li 8776   4.780   0.265   0.624  1.3567  0.1116 -0.5049
 1217lim     li 8777   5.029   3.919   4.339 -0.3167 -0.2409  0.4376
 1218lim     li 8778   5.087   1.024   4.406  0.1129  0.8480 -0.4010
 1219lim     li 8779   2.287   0.352   2.252  0.4653  0.2694  0.8877
 1220lim     li 8780   0.218   3.978   4.127  0.3614 -1.0657 -0.2416
 1221lim     li 8781   1.343   1.237   4.485  0.3521 -0.8546  0.6076
 1222lim     li 8782   5.940   2.927   6.733 -0.1525 -0.1205 -0.8694
 1223lim     li 8783   2.972   3.507   0.955 -0.1677  0.4752  0.5305
 1224lim     li 8784   6.538   1.104   3.453 -0.3815 -0.0235 -1.2931
 1225lim     li 8785   2.433   3.466   6.415 -1.2254  0.6309 -0.1783
 1226lim     li 8786   1.431   0.821   0.446  2.0562  0.2631 -0.0467
 1227lim     li 8787   1.817   0.415   1.326  0.4191 -0.6672 -0.2890
 1228lim     li 8788   0.647   1.249   2.690 -0.9656  0.6031 -0.6376
 1229lim     li 8789   6.049   5.706   1.282  0.2155 -0.1175  0.9548
 1230lim     li 8790   4.046   0.924   5.037 -0.1170  0.4292 -0.4191
 1231lim     li 8791   1.131   6.516   5.992 -0.3650  0.1437  0.1000
 1232lim     li 8792   0.159   5.304   2.891 -0.5368  0.5203  1.5957
 1233lim     li 8793   2.877   4.541   4.902 -0.8961  0.7412  0.5026
 1234lim     li 8794   2.604   5.765   5.943  0.3399  0.3598  0.5085
 1235lim     li 8795   6.366   5.231   2.525  0.3990  0.0629  0.2560
 1236lim     li 8796   2.359   2.398   3.184  0.5172 -0.7229  0.3852
 1237lim     li 8797   4.519   2.061   5.181  0.0544 -0.4462 -0.6033
 1238lim     li 8798   3.951   4.559   0.116 -0.4840  1.5307 -0.3614
 1239lim     li 8799   5.932   4.999   0.555 -0.1472  0.8008 -0.0835
 1240lim     li 8800   2.695   5.321   0.960  0.4412  0.2181 -0.7963
 1241lim     li 8801   6.303   6.005   0.740  0.1119 -0.0632 -0.2836
 1242lim     li 8802   1.122   5.017   4.787  0.2578 -0.7757  0.8639
 1243lim     li 8803   3.115   2.871   1.947 -0.7649 -0.2040  0.2328
 1244lim     li 8804   4.151   5.126   4.361 -0.1326  0.7482 -0.1207
 1245lim     li 8805   1.047   0.415   4.861  0.7050 -0.7056 -0.2422
 1246lim     li 8806   3.789   6.268   0.795  0.6294 -0.1674  1.1440
 1247lim     li 8807   2.293   5.941   0.883 -0.6857 -0.4346 -0.1575
 1248lim     li 8808   2.143   6.799   3.775  0.5761  1.1818  0.6921
 1249lim     li 8809   2.010   5.537   5.344 -0.5727  0.5866  0.1154
 1250lim     li 8810   0.079   5.485   1.392  0.6280  0.6734 -0.7724
 1251lim     li 8811   5.179   3.083   3.832 -0.1962 -0.5246 -0.5722
 1252lim     li 8812   6.420   3.834   0.689  0.9922  0.3212  0.5162
 1253lim     li 8813   1.640   2.008   3.751 -0.4374  0.1700 -0.0081
 1254lim     li 8814   0.347   6.733   3.768  0.4411 -0.1301 -0.0573
 1255lim     li 8815   5.252   6.019   6.410  0.1738  0.3583  0.2547
 1256lim     li 8816   6.776   2.064   5.318  0.4996 -0.0415  0.2354
 1257lim     li 8817   2.523   2.774   5.330  0.8727 -0.1553 -1.5870
 1258lim     li 8818   0.817   0.491   5.841 -0.7408 -0.3553  0.0570
 1259lim     li 8819   6.367   3.593   4.357  0.7556 -0.8153 -0.9828
 1260lim     li 8820   6.505   5.658   5.540 -0.0128  1.0389  0.1005
 1261lim     li 8821   6.751   3.979   5.311  0.7763  0.4223  0.0345
 1262lim     li 8822   2.463   5.135   5.531  0.5565  0.6216  0.3603
 1263lim     li 8823   2.987   2.910   3.342  0.4055  0.0489  0.3297
 1264lim     li 8824   2.836   2.268   4.634  0.5288  0.0863  0.0564
 1265lim     li 8825   5.642   6.414   1.174  0.1139  0.1378  0.1067
 1266lim     li 8826   5.581   5.479   0.359  0.2427 -0.5676 -0.6858
 1267lim     li 8827   0.471   1.089   5.566 -0.2234 -0.5322 -0.1256
 1268lim     li 8828   0.227   6.007   2.654  0.5854 -0.2883 -0.5341
 1269lim     li 8829   1.949   0.189   6.266  0.4326 -0.3123  0.1603
 1270lim     li 8830   2.381   1.939   2.314  0.2100 -0.2381 -0.0009
 1271lim     li 8831   3.780   3.886   1.457 -0.3312  0.8920 -0.3809
 1272lim     li 8832   2.968   6.367   1.319  1.3616 -0.7186  0.2331
 1273lim     li 8833   4.457   5.146   2.255 -0.3237 -0.1702 -0.2868
 1274lim     li 8834   1.990   4.552   5.897  0.4297 -1.2287  0.0440
 1275lim     li 8835   2.492   4.306   2.675 -0.2061  0.3782  0.9093
 1276lim     li 8836   3.895   4.451   5.804 -0.4078 -0.7224  0.7542
 1277lim     li 8837   0.411   2.424   0.331  0.4939  0.0679  0.4734
 1278lim     li 8838   3.920   0.747   4.103 -0.1533  0.2827  1.3681
 1279lim     li 8839   0.186   2.431   5.920  0.4646 -0.7191  1.2421
 1280lim     li 8840   4.295   2.841   2.712 -0.9714 -0.0601 -0.3366
 1281lim     li 8841   4.016   2.972   1.402  1.5509  0.0906  1.6217
 1282lim     li 8842   2.443   5.671   2.725 -0.2182  0.0468  0.1220
 1283lim     li 8843   1.136   2.486   2.614  0.2139  1.1245  0.2090
 1284lim     li 8844   2.882   1.521   5.875 -0.3933  0.8208 -0.7439
 1285lim     li 8845   6.555   5.116   6.727 -0.5445 -0.5754 -0.1845
 1286lim     li 8846   5.486   5.098   3.141 -0.3359 -0.0279 -0.5414
 1287lim     li 8847   2.013   3.601   5.437  0.4228 -0.0605  0.1808
 1288lim     li 8848   0.868   5.831   3.103  0.5754  1.0954 -0.1556
 1289lim     li 8849   5.038   0.502   3.524 -0.7845 -0.1562 -0.5975
 1290lim     li 8850   2.834   6.737   2.167  0.2344  0.1701  0.2108
 1291lim     li 8851   6.128   6.471   5.954 -0.3082  0.4646  0.0880
 1292lim     li 8852   4.841   0.017   6.434 -0.2651 -0.5222  0.7987
 1293lim     li 8853   5.884   3.976   0.556  0.8202 -0.3798  0.2071
 1294lim     li 8854   5.685   6.475   2.284 -0.6831  0.3218  1.7516
 1295lim     li 8855   2.977   1.863   1.803 -0.1585  0.8036 -0.2063
 1296lim     li 8856   2.864   4.254   5.613  0.2080 -0.1263 -0.4508
 1297lim     li 8857   0.294   6.702   0.517  1.1861  0.0480 -0.3890
 1298lim     li 8858   0.828   4.390   3.424  0.5605 -0.2427  0.5207
 1299lim     li 8859   6.449   3.483   6.126  0.1521 -0.6118  0.3234
 1300lim     li 8860   4.289   6.595   5.683 -1.4858  0.7017 -0.0439
 1301lim     li 8861   0.772   4.488   6.094 -0.0074 -0.1885  0.0571
 1302lim     li 8862   3.045   6.726   4.014 -0.2204 -0.1651 -0.4728
 1303lim     li 8863   0.915   5.209   2.608 -0.8829 -0.7912 -0.8127
 1304lim     li 8864   0.113   6.248   4.786 -0.0061 -0.1595 -0.9423
 1305lim     li 8865   6.362   1.962   1.921  0.2683  1.2672  1.2096
 1306lim     li 8866   1.217   2.279   4.671 -0.0909 -0.6997  0.2675
 1307lim     li 8867   5.029   4.027   3.688  0.7069  0.0246  0.3268
 1308lim     li 8868   1.059   5.415   0.515 -0.6618  0.4348  0.4656
 1309lim     li 8869   4.842   2.483   0.055  1.0474 -0.1227 -0.5405
 1310lim     li 8870   5.970   2.346   5.759 -0.6732  0.1319 -0.8084
 1311lim     li 8871   3.034   4.729   1.529  0.1036  1.0147  0.0884
 1312lim     li 8872   0.282   6.371   5.819 -0.1964  0.0464 -0.1106
 1313lim     li 8873   4.395   3.535   3.703 -0.8004 -0.4128  0.5389
 1314lim     li 8874   1.682   4.793   3.295 -0.9060 -0.4409  0.3445
 1315lim     li 8875   0.115   5.625   0.658  0.6670 -0.0042  0.8698
 1316lim     li 8876   2.286   1.290   2.440  0.7316  0.6167  0.4412
 1317lim     li 8877   4.891   2.929   0.688  0.3474 -0.9102  0.5356
 1318lim     li 8878   0.058   0.604   2.638  0.4809 -1.0608 -0.0917
 1319lim     li 8879   5.263   1.427   6.082 -0.2285  0.6942 -0.4784
 1320lim     li 8880   3.550   3.673   6.808  0.4981  0.9832  0.3417
 1321lim     li 8881   1.033   2.353   3.857  0.1030 -0.2723  0.2154
 1322lim     li 8882   5.741   1.545   0.752 -0.8746 -0.2660  0.6526
 1323lim     li 8883   6.041   5.148   6.082 -0.8079 -0.2441 -0.0814
 1324lim     li 8884   3.609   1.799   0.871 -0.2682 -0.8956 -0.0882
 1325lim     li 8885   2.554   1.701   1.255 -0.1334 -1.1591 -0.4325
 1326lim     li 8886   3.334   6.271   3.287  0.6994  0.7743  0.1040
 1327lim     li 8887   0.522   3.689   2.517  0.8344 -0.7383 -0.0932
 1328lim     li 8888   6.204   0.265   2.181  0.3732 -0.0099  0.2847
 1329lim     li 8889   5.508   0.215   0.650  1.1773  0.1780  0.2881
 1330lim     li 8890   6.716   3.758   2.173  0.8874 -1.0908  0.3781
 1331lim     li 8891   3.278   2.477   1.075  0.5387  0.1863 -0.7042
 1332lim     li 8892   5.865   2.032   1.012  0.8266  0.3121  1.1952
 1333lim     li 8893   1.066   1.607   2.016 -0.3495 -0.8431  1.3254
 1334lim     li 8894   0.634   2.418   3.089  0.2694 -0.6157 -0.2505
 1335lim     li 8895   1.537   1.938   1.298 -0.9644  0.3727 -0.3776
 1336lim     li 8896   5.131   4.129   3.072  1.3900 -1.3651  0.1419
 1337lim     li 8897   0.864   2.186   5.370 -0.0746 -0.3212 -0.6451
 1338lim     li 8898   6.757   4.113   3.185 -0.4210 -0.1906  0.2113
 1339lim     li 8899   0.458   4.027   1.246 -0.0335 -0.1275  0.6610
 1340lim     li 8900   1.982   0.779   0.189 -0.5145  0.5600 -0.9488
 1341lim     li 8901   4.787   3.401   2.847  0.3843 -0.2931 -0.3439
 1342lim     li 8902   1.864   5.502   1.703 -0.8584 -0.6746  0.3567
 1343lim     li 8903   3.921   4.788   3.587 -0.8217  0.0806  0.7884
 1344lim     li 8904   1.137   3.976   0.951 -0.2112  0.4404  0.2374
 1345lim     li 8905   4.548   2.623   5.641  0.7701  0.5018  1.4610
 1346lim     li 8906   6.050   3.024   1.051 -0.1683  0.2233 -0.0984
 1347lim     li 8907   3.129   3.553   6.107 -0.4553  0.3671  0.6387
 1348lim     li 8908   5.292   3.583   1.064 -0.1616  0.1982 -0.5695
 1349lim     li 8909   1.354   5.966   4.742 -0.5129 -0.0509  1.4825
 1350lim     li 8910   5.291   1.876   3.893  0.3983  0.8347  0.3676
 1351lim     li 8911   3.138   2.007   5.519  0.1440 -0.7670 -0.1898
 1352lim     li 8912   3.614   1.868   6.401  0.9271  0.1013 -0.7287
 1353lim     li 8913   1.909   1.801   4.398 -0.2052  0.8700 -0.3294
 1354lim     li 8914   3.687   2.831   3.299  0.9278  0.5110  0.5387
 1355lim     li 8915   5.012   1.989   2.153 -0.0889  0.1158  0.4972
 1356lim     li 8916   3.515   0.719   5.723 -0.3759  0.9376 -1.0574
 1357lim     li 8917   4.077   6.723   6.797 -0.6550 -0.4871  0.6104
 1358lim     li 8918   1.261   3.899   3.540 -0.1232 -0.3211  1.2224
 1359lim     li 8919   2.046   2.430   1.239 -0.5065 -0.2086  0.8839
 1360lim     li 8920   4.222   5.659   5.237  0.4738 -1.1165 -0.5322
 1361lim     li 8921   3.613   5.313   0.463  0.7417  0.0581 -0.6316
 1362lim     li 8922   1.163   1.697   3.417  0.6554  0.0074  0.9771
 1363lim     li 8923   5.018   0.108   5.206  0.9231 -1.0398 -0.5610
 1364lim     li 8924   2.863   5.679   0.168 -0.3765 -0.4811  0.0757
 1365lim     li 8925   3.349   0.368   0.454  0.5330  0.7349  0.5384
 1366lim     li 8926   5.500   5.082   2.289 -0.3924  0.4183  0.1133
 1367lim     li 8927   5.294   4.866   5.209 -0.7601 -0.6358  0.2305
 1368lim     li 8928   0.594   3.907   6.765 -0.1638 -0.4095  0.6934
 1369lim     li 8929   0.961   6.785   1.717 -0.3298  0.6162 -0.2305
 1370lim     li 8930   5.330   1.452   2.645  0.7471  0.7448 -0.6405
 1371lim     li 8931   3.948   5.316   1.685  0.3734  0.0541 -0.4571
 1372lim     li 8932   5.968   4.580   2.320 -0.5106 -0.3069 -0.4160
 1373lim     li 8933   4.511   4.487   4.033  0.5341  0.4410  0.0388
 1374lim     li 8934   1.419   6.626   2.365 -0.0385  0.2294 -0.5795
 1375lim     li 8935   1.730   3.816   6.417  0.6236 -0.6727  0.4738
 1376lim     li 8936   0.053   5.288   4.925 -0.7948 -1.2769  0.3582
 1377lim     li 8937   5.545   5.803   3.343 -0.4589 -0.2545  0.2285
 1378lim     li 8938   6.337   5.812   6.321  0.2288 -0.0849  0.5401
 1379lim     li 8939   3.633   1.111   6.166 -0.3813 -0.0933 -0.2491
 1380lim     li 8940   3.957   1.183   1.513  0.2553 -0.2775  1.0142
 1381lim     li 8941   5.454   2.911   4.998 -0.2706  0.8660 -0.8717
 1382lim     li 8942   6.247   2.619   0.565  0.4907 -0.2207  0.4075
 1383lim     li 8943   5.138   5.762   1.518 -0.7355 -0.2737 -0.3799
 1384lim     li 8944   1.059   6.548   6.573 -0.1671  0.7447  0.2626
 1385lim     li 8945   1.220   2.818   1.504  0.5161 -0.4642 -0.0058
 1386lim     li 8946   4.866   1.036   1.938  0.8519  0.7575  0.2122
 1387lim     li 8947   5.836   6.579   5.073  0.6386  0.3190 -1.1385
 1388lim     li 8948   1.656   5.936   6.335 -0.7025  0.8843  0.7214
 1389lim     li 8949   0.923   1.092   1.272  0.1880 -0.5378  0.9668
 1390lim     li 8950   2.269   1.361   4.298  1.2351 -0.6138 -0.1289
 1391lim     li 8951   2.709   2.862   2.344 -0.1841  0.5966  0.2194
 1392lim     li 8952   6.395   4.382   6.517 -0.6326 -0.2736 -1.3301
 1393lim     li 8953   3.835   4.600   1.169  0.7053 -0.2079  0.0128
 1394lim     li 8954   1.957   3.403   1.353  0.0165  0.0441  1.1477
 1395lim     li 8955   2.101   1.164   3.102 -0.4455 -0.0310  0.5262
 1396lim     li 8956   2.140   3.682   3.660 -1.0916  0.1989  0.8055
 1397lim     li 8957   5.440   1.024   0.024 -0.8674  0.1681  0.2066
 1398lim     li 8958   6.759   0.938   6.484  0.4934  0.4566 -0.4142
 1399lim     li 8959   6.320   2.200   4.683  1.5586 -0.2134  0.6304
 1400lim     li 8960   1.915   2.627   5.797  0.4913 -0.3575 -0.7101
 1401lim     li 8961   4.640   5.763   5.921  0.2112 -0.4908 -0.1107
 1402lim     li 8962   3.950   3.897   0.684  0.3973  0.2465  0.2654
 1403lim     li 8963   4.672   0.029   2.292 -0.8498 -0.2739 -0.0404
 1404lim     li 8964   4.568   4.103   4.635  0.7099 -0.0292  0.7978
 1405lim     li 8965   3.246   1.588   3.536  0.4572 -0.5603  0.0300
 1406lim     li 8966   5.666   2.020   1.884  0.5401 -0.3352  0.1688
 1407lim     li 8967   3.809   2.196   4.150  0.3642 -0.2258 -0.3715
 1408lim     li 8968   0.511   5.985   4.005 -0.2107 -0.2597  0.8139
 1409lim     li 8969   3.485   3.144   5.823 -0.9190 -0.0088  0.3091
 1410lim     li 8970   4.367   1.019   6.669  0.2156  0.0834  0.3529
 1411lim     li 8971   2.142   1.470   0.746  0.0038  0.1709  0.1318
 1412lim     li 8972   2.438   3.403   3.010  0.5661 -1.0106  0.1951
 1413lim     li 8973   6.479   0.047   3.623  0.5502 -0.2813  0.2326
 1414lim     li 8974   5.311   1.243   5.268 -0.7314 -0.6875  0.9177
 1415lim     li 8975   6.611   2.976   3.135  0.0510  0.3478  0.0115
 1416lim     li 8976   1.021   1.387   0.579 -1.0635 -0.2135 -0.2469
 1417lim     li 8977   6.037   5.887   2.774 -0.2948  0.1442 -0.1073
 1418lim     li 8978   5.864   6.557   3.932  0.4121 -0.0326  0.5055
 1419lim     li 8979   1.989   0.765   4.381  0.1708  0.3522 -0.2803
 1420lim     li 8980   4.872   1.169   3.482 -0.9344 -0.1932 -0.5050
 1421lim     li 8981   5.158   2.587   4.348 -0.6736  0.6394  1.1677
 1422lim     li 8982   6.166   3.531   3.686  0.1391 -0.3985  0.0649
 1423lim     li 8983   3.517   6.269   5.667  1.3626 -0.6097 -0.3046
 1424lim     li 8984   4.973   5.340   6.603  0.0417  0.1884 -0.5933
 1425lim     li 8985   2.712   0.965   1.037  0.1871  0.0479  0.2668
 1426lim     li 8986   1.756   5.811   3.210 -0.5863  0.5256  0.4406
 1427lim     li 8987   2.426   5.500   4.492 -0.4986  0.5023 -0.9135
 1428lim     li 8988   0.890   5.929   5.447  0.8507 -0.1512 -0.1511
 1429lim     li 8989   4.242   6.058   3.944  0.2177 -0.0734  0.7015
 1430lim     li 8990   5.286   0.561   6.377 -0.5427 -0.5050 -0.0496
 1431lim     li 8991   5.559   4.821   0.092 -0.3303  0.4098  0.1042
 1432lim     li 8992   2.645   4.156   6.806  0.0801  0.3864  0.2917
 1433lim     li 8993   4.342   3.170   2.120  0.4954 -0.6339  0.2031
 1434lim     li 8994   3.949   2.257   0.135 -0.5892 -0.3470  0.4306
 1435lim     li 8995   6.125   1.529   4.277  1.3805 -0.4843 -0.2668
 1436lim     li 8996   5.962   0.216   6.711  0.6416 -0.4733  0.4956
 1437lim     li 8997   2.769   3.479   4.994  0.2883 -0.4323  1.1633
 1438lim     li 8998   4.414   3.074   4.150 -1.3498 -0.0331 -0.6126
 1439lim     li 8999   3.988   5.046   6.120  0.4295 -0.6021 -0.4902
 1440lim     li 9000   6.340   4.349   1.433 -0.0945 -0.0618  0.5382
 1441lim     li 9001   4.619   3.735   0.924  1.0057 -1.0726  0.0103
 1442lim     li 9002   1.275   1.540   5.491  1.2115  0.9866  0.5801
 1443lim     li 9003   1.363   2.772   6.383  0.0008 -0.0060  0.2021
 1444lim     li 9004   3.814   0.192   5.219  0.0732  0.1417  1.0926
 1445lim     li 9005   3.675   0.045   6.252  0.1713 -0.4553  0.1005
 1446lim     li 9006   4.724   4.781   5.273 -0.3241  1.2840 -0.4821
 1447lim     li 9007   6.750   0.089   1.933 -0.2492  0.0135 -0.1158
 1448lim     li 9008   5.462   4.976   1.133 -0.2524  0.0801 -0.7155
 1449lim     li 9009   2.960   6.159   2.044  0.9001 -0.1231 -0.7166
 1450lim     li 9010   0.919   0.560   2.541 -0.3480 -0.2472 -0.0804
 1451lim     li 9011   0.869   3.492   4.201  0.3948  0.4665 -0.0787
 1452lim     li 9012   3.384   5.952   4.029 -0.0747 -1.3473  0.4039
 1453lim     li 9013   3.418   0.838   1.055 -0.6508 -0.9064 -0.2669
 1454lim     li 9014   1.140   0.472   4.103  0.1777  0.2237  1.0962
 1455lim     li 9015   5.162   5.682   2.150  0.6533  0.0554 -0.4844
 1456lim     li 9016   4.700   4.716   3.047 -1.2973  0.4069  0.8039
 1457lim     li 9017   4.929   3.154   6.210 -0.2187  0.3522  1.0624
 1458lim     li 9018   0.416   0.514   3.560  0.4127  0.2112  0.0210
 1459lim     li 9019   3.130   1.421   4.713 -0.2377 -0.7297 -0.7280
 1460lim     li 9020   0.258   3.099   2.189  0.5327 -1.4022  0.0108
 1461lim     li 9021   0.081   1.563   0.322 -0.0485 -0.7826 -0.0958
 1462lim     li 9022   1.548   1.699   6.245 -0.8353  1.0849 -0.1072
 1463lim     li 9023   5.488   0.631   2.386  0.4679  0.1322  0.4493
 1464lim     li 9024   6.194   3.493   1.620 -0.6066 -0.4957 -0.6178
 1465lim     li 9025   4.278   6.332   4.510  0.1681  1.6840 -0.2034
 1466lim     li 9026   2.575   4.957   6.317 -1.4940  0.5647 -0.3050
 1467lim     li 9027   5.517   4.356   1.445 -0.5407 -0.7121  0.5585
 1468lim     li 9028   2.493   3.871   1.906 -0.1751  0.5526  0.1883
 1469lim     li 9029   2.085   6.550   2.508 -0.9764  0.2076 -0.3165
 1470lim     li 9030   2.468   6.212   3.302 -0.7728  1.1033 -0.3955
 1471lim     li 9031   4.080   3.873   6.326  0.3989 -0.0374  1.3151
 1472lim     li 9032   4.490   6.401   5.096 -0.1358  0.9914 -0.8071
 1473lim     li 9033   3.683   2.018   1.681 -0.5972  0.3773  0.4374
 1474lim     li 9034   6.209   6.781   0.893 -0.3159  0.0080  0.1534
 1475lim     li 9035   6.416   5.296   4.370  0.2601 -0.8352 -0.5833
 1476lim     li 9036   3.257   5.555   3.120 -0.2993 -0.0952  0.5051
 1477lim     li 9037   2.571   3.368   4.148  0.4813  0.4948 -0.6262
 1478lim     li 9038   1.790   5.345   4.262  0.7387  0.3566 -0.2640
 1479lim     li 9039   4.173   1.955   2.055  0.4575  0.4104  0.8850
 1480lim     li 9040   3.667   1.028   2.190 -1.0764 -0.1549 -0.4146
 1481lim     li 9041   1.651   4.382   6.711  0.0331  2.0095  0.2724
 1482lim     li 9042   2.177   1.233   5.201 -0.0466 -0.2764  0.6080
 1483lim     li 9043   2.800   6.787   5.791  0.4025  0.6071 -0.4391
 1484lim     li 9044   6.777   0.746   4.056 -0.8729 -0.7839  0.4002
 1485lim     li 9045   2.068   4.864   1.452  0.2565 -0.5285 -0.0780
 1486lim     li 9046   6.792   3.323   0.251  0.0518 -0.2372  0.3711
 1487lim     li 9047   2.588   2.992   1.443  0.8700  1.2925  0.4884
 1488lim     li 9048   1.519   5.870   2.566 -0.3944 -0.0227 -0.0368
 1489lim     li 9049   5.471   5.671   5.533  0.4987 -0.4606 -0.1812
 1490lim     li 9050   1.217   5.990   0.184  0.2706 -0.3856  0.5905
 1491lim     li 9051   0.321   4.829   3.725  0.7309 -0.0597 -0.0153
 1492lim     li 9052   2.824   0.915   2.039  0.0998 -0.0019 -0.4140
 1493lim     li 9053   0.481   1.586   6.472 -1.3374 -1.0941 -0.7228
 1494lim     li 9054   0.763   3.822   4.943 -0.1911 -0.6950  0.0871
 1495lim     li 9055   3.121   4.746   0.518  0.4258  0.2907 -0.1803
 1496lim     li 9056   6.231   4.263   2.786  0.0440 -0.3833  0.3634
 1497lim     li 9057   4.060   3.936   2.841 -0.9574 -0.4636  0.8176
 1498lim     li 9058   5.962   3.515   5.469 -0.2980 -0.2625 -0.4455
 1499lim     li 9059   4.014   4.668   2.683  0.4761 -0.1826  0.2076
 1500lim     li 9060   3.117   2.357   6.338 -0.7402  0.8833  1.4761
 1501lim     li 9061   3.172   5.287   4.011  0.6598 -0.4694 -1.7435
 1502lim     li 9062   5.760   0.379   3.043 -0.0142 -1.0184  0.3079
 1503lim     li 9063   2.254   2.742   4.403  0.3729  0.6342  1.3506
 1504lim     li 9064   1.710   6.401   4.376  1.2222  0.7812 -0.5754
 1505lim     li 9065   0.295   3.389   1.456  0.3706 -0.8089 -0.9388
 1506lim     li 9066   1.516   4.507   2.730  0.1747 -0.0015 -0.2219
 1507lim     li 9067   1.545   4.586   5.228 -1.0605 -0.5794  0.4850
 1508lim     li 9068   1.396   1.037   3.537  0.3051  1.1060 -0.0754
 1509lim     li 9069   3.969   5.521   3.225 -2.2414  0.1206  0.5581
 1510lim     li 9070   0.637   1.412   4.158 -0.0030 -0.7389 -0.2448
 1511lim     li 9071   0.673   5.976   0.845 -0.2190  0.2754  0.3083
 1512lim     li 9072   1.568   3.191   0.442  1.0790  0.0454  1.0381
 1513lim     li 9073   3.167   1.086   2.756  0.2783 -1.1902 -0.2553
 1514lim     li 9074   5.980   0.248   1.549  0.5251 -0.3288  0.0511
 1515lim     li 9075   6.560   2.910   1.582 -0.0466  0.3970 -0.3138
 1516lim     li 9076   5.605   2.776   6.270 -0.8096  0.2368  0.2074
 1517lim     li 9077   5.009   5.080   4.226 -0.2342  0.5762 -1.0998
 1518lim     li 9078   0.892   4.628   0.201 -0.1237  0.2656 -0.6026
 1519lim     li 9079   6.294   6.055   1.929 -0.0517  0.7405 -0.4569
 1520lim     li 9080   1.173   5.931   3.825 -0.4486  0.2114  0.6119
 1521lim     li 9081   1.315   3.320   3.063  0.8564 -0.2271 -0.0392
 1522lim     li 9082   2.927   4.866   2.966 -0.1208 -0.1911  0.8423
 1523lim     li 9083   5.659   0.535   5.492 -1.4197  0.4143  0.2421
 1524lim     li 9084   0.248   2.418   1.595  0.3376 -0.4478 -0.0512
 1525lim     li 9085   1.875   2.349   4.804  1.2022  0.1731  0.4850
 1526lim     li 9086   6.156   4.704   5.348  0.3060 -0.6642  1.0768
 1527lim     li 9087   2.509   6.798   0.750 -1.1491 -0.5442 -0.7469
 1528lim     li 9088   0.975   3.001   2.117 -0.6512 -0.9368 -0.1916
 1529lim     li 9089   3.817   6.029   6.537 -0.0639  0.5405  0.4844
 1530lim     li 9090   2.883   5.636   1.698 -0.8667 -0.4413 -0.8272
 1531lim     li 9091   0.863   5.314   5.878 -0.2946 -0.9985 -0.4993
 1532lim     li 9092   2.554   0.799   3.563  0.2478 -0.4086 -0.3409
 1533lim     li 9093   0.640   0.164   1.249  0.7074 -0.2498 -0.4263
 1534lim     li 9094   4.653   0.918   6.033 -0.6183  0.2340  0.6266
 1535lim     li 9095   1.612   2.217   1.975  0.1759  0.7305 -1.2905
 1536lim     li 9096   0.732   5.649   4.749  0.5540  0.4208  0.1480
 1537lim     li 9097   3.678   3.557   5.181 -0.8014  0.1174 -0.8037
 1538lim     li 9098   1.874   6.415   1.474  0.0657  0.4895 -0.3129
 1539lim     li 9099   4.727   5.313   3.467  0.1108 -1.4684  0.1504
 1540lim     li 9100   3.820   1.109   0.296  0.2918 -0.0469  0.2829
 1541lim     li 9101   6.818   2.404   3.757  0.2023 -0.5681  0.0767
 1542lim     li 9102   2.898   0.737   6.734 -0.0365  0.3310 -0.5576
 1543lim     li 9103   0.115   4.311   0.318  0.1297  0.4960  0.7214
 1544lim     li 9104   4.121   4.154   2.032 -0.5742 -0.9741 -0.4905
 1545lim     li 9105   3.685   6.060   2.396  0.2855 -0.4016 -0.3561
 1546lim     li 9106   1.320   3.217   4.924 -0.5470  0.1614  0.1650
 1547lim     li 9107   0.289   4.560   5.028 -0.9108 -0.6518  0.5621
 1548lim     li 9108   0.679   2.082   1.196  0.2900  0.4671 -0.3707
 1549lim     li 9109   0.527   6.210   2.063 -0.5038 -1.1703  0.1760
 1550lim     li 9110   3.886   0.090   4.136 -0.3257 -0.3795  0.5178
 1551lim     li 9111   4.671   4.041   5.645 -1.0940 -0.5251  0.0905
 1552lim     li 9112   1.277   2.552   0.549 -1.0699 -0.6048  0.1322
 1553lim     li 9113   3.839   0.316   2.131 -0.2497  0.0159 -0.2940
 1554lim     li 9114   0.040   0.082   6.401 -1.4787 -0.4406  0.3591
 1555lim     li 9115   0.746   5.344   3.654 -0.2636  0.1028 -0.7364
 1556lim     li 9116   2.702   6.233   6.454  0.0495  0.0412 -0.0330
 1557lim     li 9117   5.069   3.947   2.076  0.1469  0.9707 -1.2740
 1558lim     li 9118   3.482   1.822   4.469  0.0902 -0.6658  0.3064
 1559lim     li 9119   2.224   1.935   5.434 -0.1334 -0.8219 -0.7929
 1560lim     li 9120   2.822   4.128   1.107 -0.2208  0.6474 -0.1690
 1561lim     li 9121   0.696   3.024   0.908  1.1499 -0.6321 -0.4886
 1562lim     li 9122   0.502   3.357   3.195  0.4152 -0.6131 -0.1532
 1563lim     li 9123   0.036   4.146   5.849 -0.4329  0.0773  0.1635
 1564lim     li 9124   2.553   4.608   3.715  0.7226 -0.6472  0.9089
 1565lim     li 9125   4.608   4.651   6.415 -0.5987 -0.3690 -0.1992
 1566lim     li 9126   4.306   5.446   0.415  0.2880 -0.5125  0.3381
 1567lim     li 9127   1.889   1.267   1.506  1.1662 -0.4818  0.4763
 1568lim     li 9128   6.397   1.040   2.522  0.5046  0.5643 -0.9807
 1569lim     li 9129   5.508   4.040   5.648 -0.5415 -0.8716  0.7854
 1570lim     li 9130   6.776   1.631   6.158 -0.0105 -0.1560 -0.1044
 1571lim     li 9131   6.803   2.770   6.390 -0.1676  0.4347  0.2164
 1572lim     li 9132   0.410   2.906   5.329  0.0297  0.2071 -0.4817
 1573lim     li 9133   1.964   5.106   0.276  0.2177  0.2070 -0.4125
 1574lim     li 9134   0.415   5.317   6.638 -0.3371 -0.0385  0.2162
 1575lim     li 9135   0.200   6.101   6.686  0.3480  0.3553 -0.0346
 1576lim     li 9136   3.391   2.891   4.133  0.9239  0.1519  1.1097
 1577lim     li 9137   2.658   0.934   4.750  0.8048  0.1018  0.3929
 1578lim     li 9138   5.488   4.214   6.463 -0.9537  0.0796 -1.1647
 1579lim     li 9139   4.700   1.741   4.339 -1.1846 -0.3741  0.2906
 1580lim     li 9140   2.477   0.178   4.529  0.4979  0.6037 -0.6183
 1581lim     li 9141   0.111   1.122   1.182  0.4865  0.4328  0.4740
 1582lim     li 9142   1.658   5.188   0.934 -0.6027 -0.5072  0.2866
 1583lim     li 9143   2.275   6.204   5.307 -0.7814 -0.5018 -0.8164
 1584lim     li 9144   5.254   0.108   4.528  0.5674  0.3640  0.3986
 1585lim     li 9145   3.237   2.293   2.696  0.9336 -1.0810  0.1374
 1586lim     li 9146   5.145   6.248   4.021 -0.8777  0.8633  0.2391
 1587lim     li 9147   4.415   2.619   4.715 -0.7461 -0.3347  0.1260
 1588lim     li 9148   4.832   3.849   0.112 -0.7548 -0.8574  0.1257
 1589lim     li 9149   2.042   2.272   0.508 -0.4497  0.2157  0.6574
 1590lim     li 9150   3.910   0.015   2.915 -0.2168 -0.2593 -0.4402
 1591lim     li 9151   2.274   5.637   3.859  1.5217  0.2915 -0.5289
 1592lim     li 9152   4.561   3.299   5.104  1.3104  0.7396  0.8293
 1593lim     li 9153   2.236   1.591   6.619 -0.5152  1.2327 -0.7300
 1594lim     li 9154   4.965   2.965   1.974  0.4620  1.2805 -0.1480
 1595lim     li 9155   3.946   2.981   0.556  1.0927 -0.2016  1.6276
 1596lim     li 9156   1.132   5.801   1.484 -0.4880 -0.3868  0.3081
 1597lim     li 9157   0.106   3.102   3.896  0.0083 -0.5977 -0.3624
 1598lim     li 9158   0.661   5.342   1.934 -1.1364 -1.1017 -1.2873
 1599lim     li 9159   2.827   2.922   5.742 -0.5239  0.9365 -1.1467
 1600lim     li 9160   2.480   0.391   1.411  0.8069 -0.0767 -0.1908
 1601lim     li 9161   5.421   2.010   4.963  0.4566 -0.6677  0.3409
 1602lim     li 9162   6.296   0.565   5.915  0.0490 -1.0768  0.2406
 1603lim     li 9163   2.978   0.095   3.044 -0.0897 -0.1212 -0.7371
 1604lim     li 9164   3.610   3.641   3.731 -0.4883 -0.7353  1.0123
 1605lim     li 9165   4.992   5.879   0.588  0.5616  0.4368  0.2827
 1606lim     li 9166   5.665   3.448   3.174 -0.2380 -0.3147 -1.1764
 1607lim     li 9167   3.738   0.731   3.423 -0.1113  0.6215  0.3638
 1608lim     li 9168   2.044   4.179   1.209  0.1830 -0.1214 -0.8653
 1609lim     li 9169   0.993   0.579   6.531 -0.1761  1.0941 -1.3035
 1610lim     li 9170   3.314   4.143   2.554 -0.3008 -0.8220  0.2602
 1611lim     li 9171   2.106   4.350   0.468 -0.3140  1.2395  0.5977
 1612lim     li 9172   6.062   2.210   2.733  0.6236 -0.9111 -0.0739
 1613lim     li 9173   0.419   4.620   2.522  0.5057 -0.7528  0.2897
 1614lim     li 9174   3.063   6.722   4.929 -0.7738  0.2685 -0.1849
 1615lim     li 9175   3.852   4.252   5.072 -0.0270 -0.2762 -0.3105
 1616lim     li 9176   0.101   2.107   2.752  0.3733  0.3288  0.5683
 1617lim     li 9177   1.392   4.640   1.902  0.5855 -0.4250 -0.5555
 1618lim     li 9178   0.936   2.171   6.370 -0.7539  0.1140  0.5288
 1619lim     li 9179   1.829   4.001   4.518  0.2982 -0.1455 -0.3166
 1620lim     li 9180   0.607   0.293   0.269  0.9050  0.0613 -1.3956
 1621ntf    cn1 9181   5.139   4.688   2.646 -0.5063  0.0331 -0.0417
 1621ntf    sn2 9182   5.162   4.551   2.763  0.0698 -0.0069 -0.2011
 1621ntf    nn3 9183   5.301   4.497   2.712  0.1766 -0.0189  0.1017
 1621ntf    sn2 9184   5.359   4.461   2.571 -0.6020  0.2843 -0.3031
 1621ntf    cn1 9185   5.410   4.288   2.594  0.1996  0.5322 -0.1722
 1621ntf    fn4 9186   5.044   4.766   2.696  0.1962  0.1637  1.1237
 1621ntf    fn4 9187   5.248   4.760   2.624 -0.4973 -0.1178 -0.4842
 1621ntf    fn4 9188   5.096   4.658   2.525 -0.9010  0.0959  0.0808
 1621ntf    on5 9189   5.174   4.616   2.891  0.0999 -0.1871 -0.1122
 1621ntf    on5 9190   5.045   4.469   2.747  0.2152 -0.1621 -0.4895
 1621ntf    on5 9191   5.476   4.538   2.535 -0.3054  0.3345  0.7324
 1621ntf    on5 9192   5.255   4.446   2.472 -0.2757 -0.1078 -0.5890
 1621ntf    fn4 9193   5.307   4.216   2.637  0.2803  0.3448 -0.2941
 1621ntf    fn4 9194   5.436   4.238   2.475  0.0860  0.0464  0.0050
 1621ntf    fn4 9195   5.517   4.266   2.668  0.0704  0.1750 -0.0880
 1622ntf    cn1 9196   0.864   3.562   2.015  0.0932  0.1054 -0.5625
 1622ntf    sn2 9197   0.685   3.589   2.033  0.1105 -0.0678 -0.1113
 1622ntf    nn3 9198   0.688   3.745   2.053 -0.0258 -0.0383 -0.3102
 1622ntf    sn2 9199   0.717   3.849   1.939  0.0248  0.1413 -0.1337
 1622ntf    cn1 9200   0.782   3.986   2.040 -0.0084 -0.0571  0.1582
 1622ntf    fn4 9201   0.901   3.439   2.044 -0.2689  0.1754  0.2224
 1622ntf    fn4 9202   0.913   3.589   1.895 -0.5314  0.3376 -0.7687
 1622ntf    fn4 9203   0.931   3.639   2.099 -0.1194  0.1852 -0.4663
 1622ntf    on5 9204   0.621   3.549   1.910 -0.7511 -0.0957  0.3379
 1622ntf    on5 9205   0.639   3.520   2.151 -0.0803  0.0111 -0.1387
 1622ntf    on5 9206   0.598   3.905   1.881 -0.0674  0.1677  0.0798
 1622ntf    on5 9207   0.829   3.825   1.852  0.0790  0.1689 -0.0718
 1622ntf    fn4 9208   0.868   3.940   2.130 -0.1735 -0.5663  0.0603
 1622ntf    fn4 9209   0.840   4.087   1.978 -0.4173 -0.0459 -0.2076
 1622ntf    fn4 9210   0.681   4.034   2.111 -0.2895 -0.1036 -0.2040
 1623ntf    cn1 9211   5.660   1.382   4.431 -0.3536 -0.0149 -0.2251
 1623ntf    sn2 9212   5.540   1.346   4.300 -0.4276  0.2893 -0.2422
 1623ntf    nn3 9213   5.569   1.460   4.196 -0.2018  0.3892 -0.0688
 1623ntf    sn2 9214   5.693   1.474   4.101 -0.2096 -0.2046 -0.1704
 1623ntf    cn1 9215   5.634   1.394   3.949 -0.0562 -0.0492 -0.3122
 1623ntf    fn4 9216   5.778   1.338   4.391 -0.3934 -0.2377 -0.1017
 1623ntf    fn4 9217   5.677   1.507   4.472 -0.0092 -0.0976 -0.1140
 1623ntf    fn4 9218   5.624   1.310   4.536  0.2102  0.0894  0.0456
 1623ntf    on5 9219   5.564   1.211   4.253 -0.5920  0.1210  0.1587
 1623ntf    on5 9220   5.413   1.362   4.366 -0.2184 -0.4090  0.3410
 1623ntf    on5 9221   5.812   1.399   4.130  0.2615  0.1929 -1.0353
 1623ntf    on5 9222   5.711   1.612   4.062 -0.4753 -0.0900  0.1091
 1623ntf    fn4 9223   5.622   1.263   3.966  0.2852 -0.0274  0.0832
 1623ntf    fn4 9224   5.521   1.437   3.895 -0.0295  0.2687 -0.1177
 1623ntf    fn4 9225   5.712   1.413   3.844  0.4805  0.2112  0.1301
 1624ntf    cn1 9226   2.115   6.487   6.510 -0.0585 -0.0156  0.3338
 1624ntf    sn2 9227   2.220   6.349   6.567  0.2191  0.1599  0.2464
 1624ntf    nn3 9228   2.132   6.238   6.500 -0.2425  0.6844 -0.0297
 1624ntf    sn2 9229   2.147   6.172   6.358 -0.1946 -0.0103  0.2964
 1624ntf    cn1 9230   2.125   6.001   6.415  0.1021 -0.1431  0.0187
 1624ntf    fn4 9231   2.104   6.493   6.379 -0.0589  0.0478  0.3362
 1624ntf    fn4 9232   1.991   6.473   6.556 -0.1537 -0.0493  0.0653
 1624ntf    fn4 9233   2.160   6.606   6.547 -0.4214  0.1857  0.1311
 1624ntf    on5 9234   2.354   6.371   6.518  0.2641  0.1789  0.3796
 1624ntf    on5 9235   2.212   6.350   6.711  0.1256  0.5177  0.2406
 1624ntf    on5 9236   2.278   6.174   6.297 -0.4474  0.0656 -0.2527
 1624ntf    on5 9237   2.035   6.188   6.269 -0.2222 -0.2496  0.2858
 1624ntf    fn4 9238   2.225   5.969   6.496 -0.0116 -0.1037  0.1750
 1624ntf    fn4 9239   2.012   5.993   6.483 -0.0434 -0.0575 -0.2140
 1624ntf    fn4 9240   2.119   5.915   6.314 -0.1301 -0.4111  0.2580
 1625ntf    cn1 9241   4.095   2.464   1.741  0.0417 -0.1445  0.0309
 1625ntf    sn2 9242   4.210   2.593   1.798 -0.2932  0.1429  0.0576
 1625ntf    nn3 9243   4.341   2.532   1.737  0.0259  0.1205  0.7596
 1625ntf    sn2 9244   4.412   2.404   1.794 -0.1191 -0.3364 -0.0624
 1625ntf    cn1 9245   4.535   2.483   1.902 -0.0779 -0.3735 -0.0830
 1625ntf    fn4 9246   3.968   2.496   1.761 -0.0484 -0.2440 -0.3701
 1625ntf    fn4 9247   4.102   2.463   1.609  0.3493 -1.0327  0.0437
 1625ntf    fn4 9248   4.118   2.337   1.771 -0.3655 -0.1936  0.1396
 1625ntf    on5 9249   4.168   2.711   1.726  0.1415  0.4646  0.3337
 1625ntf    on5 9250   4.209   2.603   1.942 -0.7430  0.2292  0.0508
 1625ntf    on5 9251   4.494   2.342   1.693  0.1297 -0.6217  0.3146
 1625ntf    on5 9252   4.331   2.323   1.881 -0.5374  0.1247 -0.0170
 1625ntf    fn4 9253   4.489   2.577   1.982 -0.1633 -0.0963 -0.4613
 1625ntf    fn4 9254   4.608   2.403   1.979  0.1984 -0.1153 -0.0769
 1625ntf    fn4 9255   4.620   2.552   1.829 -0.2582 -0.0087  0.0517
 1626ntf    cn1 9256   0.133   6.678   2.459  0.0268  0.4009 -0.2674
 1626ntf    sn2 9257   0.153   6.508   2.519 -0.0736  0.4332 -0.1429
 1626ntf    nn3 9258   0.132   6.424   2.388 -0.3612  0.2619  0.0117
 1626ntf    sn2 9259   0.105   6.269   2.383 -0.1348  0.2227  0.0106
 1626ntf    cn1 9260  -0.068   6.287   2.331 -0.1791 -0.0531  0.0614
 1626ntf    fn4 9261   0.140   6.756   2.566  0.2307  0.2407 -0.1637
 1626ntf    fn4 9262   0.221   6.723   2.371  0.4402  0.5406  0.2091
 1626ntf    fn4 9263   0.011   6.702   2.413  0.0926  0.4198 -0.4316
 1626ntf    on5 9264   0.292   6.498   2.558  0.0128  0.4987 -0.4353
 1626ntf    on5 9265   0.050   6.496   2.619 -0.0039 -0.8006 -0.1960
 1626ntf    on5 9266   0.113   6.203   2.511  0.2994  0.1121 -0.0728
 1626ntf    on5 9267   0.167   6.203   2.270 -0.3815  0.0254 -0.0091
 1626ntf    fn4 9268  -0.076   6.342   2.211  0.0904 -0.2866 -0.0627
 1626ntf    fn4 9269  -0.126   6.168   2.321 -0.5209  0.1397 -0.2768
 1626ntf    fn4 9270  -0.145   6.358   2.412 -0.0967  0.3372 -0.2012
 1627ntf    cn1 9271   4.208   1.276   6.209  0.0972  0.1495  0.2143
 1627ntf    sn2 9272   4.073   1.302   6.328  0.0333 -0.1874  0.2157
 1627ntf    nn3 9273   4.101   1.451   6.369  0.2558 -0.2175  0.1745
 1627ntf    sn2 9274   4.181   1.502   6.494  0.1031 -0.0227  0.1939
 1627ntf    cn1 9275   4.052   1.511   6.621 -0.2313 -0.3490 -0.1231
 1627ntf    fn4 9276   4.325   1.294   6.268  0.1934 -0.5389  0.2358
 1627ntf    fn4 9277   4.217   1.158   6.150  0.5768  0.1639  0.2503
 1627ntf    fn4 9278   4.207   1.356   6.103  0.3429  0.1049  0.1762
 1627ntf    on5 9279   3.956   1.306   6.244 -0.0193  0.5781  0.3169
 1627ntf    on5 9280   4.075   1.200   6.430 -0.1974  0.3788  0.7924
 1627ntf    on5 9281   4.225   1.639   6.483  0.1009 -0.0060  0.3859
 1627ntf    on5 9282   4.274   1.407   6.551  0.7968  0.5937  0.1069
 1627ntf    fn4 9283   4.096   1.543   6.742  0.2793 -0.6831 -0.2178
 1627ntf    fn4 9284   3.957   1.596   6.587  0.1000  0.0635 -0.0210
 1627ntf    fn4 9285   3.998   1.393   6.647 -0.2581 -0.3039  0.0273
 1628ntf    cn1 9286   5.429   6.624   6.728 -0.3046 -0.4181  0.2412
 1628ntf    sn2 9287   5.346   6.783   6.696  0.0978 -0.2637 -0.0430
 1628ntf    nn3 9288   5.297   6.821   6.840 -0.2391  0.4666 -0.3507
 1628ntf    sn2 9289   5.175   6.914   6.877 -0.2990  0.2407  0.0212
 1628ntf    cn1 9290   5.071   6.785   6.952  0.1076 -0.1300 -0.0445
 1628ntf    fn4 9291   5.346   6.530   6.770 -0.7092 -0.1870 -0.0324
 1628ntf    fn4 9292   5.496   6.577   6.624 -0.2214  0.4182 -0.0936
 1628ntf    fn4 9293   5.510   6.636   6.832  0.1887  0.1901 -0.2101
 1628ntf    on5 9294   5.452   6.862   6.639 -0.3510  0.0277 -0.4838
 1628ntf    on5 9295   5.245   6.752   6.597  0.1517  0.1810 -0.2373
 1628ntf    on5 9296   5.094   6.967   6.770 -0.2390 -0.0970 -0.1951
 1628ntf    on5 9297   5.215   7.010   6.977  0.0955  0.2288 -0.1243
 1628ntf    fn4 9298   4.961   6.839   7.003 -0.0791  0.0990 -0.6723
 1628ntf    fn4 9299   5.034   6.692   6.865 -0.5853  0.1810 -0.0961
 1628ntf    fn4 9300   5.132   6.720   7.049  0.1191  0.0758  0.0862
 1629ntf    cn1 9301   1.070   2.185   1.662 -0.1911 -0.0211 -0.0697
 1629ntf    sn2 9302   1.002   2.141   1.499  0.0428  0.3575 -0.2704
 1629ntf    nn3 9303   0.927   2.279   1.484 -0.4213  0.1243 -0.1018
 1629ntf    sn2 9304   0.780   2.303   1.434 -0.4398  0.1835 -0.0178
 1629ntf    cn1 9305   0.784   2.464   1.350 -0.3619  0.2492  0.1120
 1629ntf    fn4 9306   0.979   2.180   1.758  0.1605 -0.1808  0.2530
 1629ntf    fn4 9307   1.162   2.099   1.701  0.2719  0.5022  0.0030
 1629ntf    fn4 9308   1.121   2.307   1.668 -0.1055 -0.0577 -0.0556
 1629ntf    on5 9309   1.124   2.131   1.424  0.4590  0.2128  0.4268
 1629ntf    on5 9310   0.922   2.024   1.525  0.4623  0.1489  0.0811
 1629ntf    on5 9311   0.675   2.314   1.533 -0.1611  0.2886  0.2658
 1629ntf    on5 9312   0.742   2.224   1.320 -0.0292  0.1635 -0.1406
 1629ntf    fn4 9313   0.688   2.488   1.263 -0.3464 -0.2864 -0.0512
 1629ntf    fn4 9314   0.773   2.562   1.439 -0.4153  0.5596 -0.2334
 1629ntf    fn4 9315   0.900   2.487   1.291 -0.3245  0.2807  0.1967
 1630ntf    cn1 9316   0.605   6.801   6.184  0.2169 -0.2357  0.1093
 1630ntf    sn2 9317   0.743   6.706   6.116  0.1500 -0.0799 -0.2464
 1630ntf    nn3 9318   0.835   6.704   6.244 -0.3583  0.0764  0.1223
 1630ntf    sn2 9319   0.985   6.659   6.256 -0.4136 -0.0137  0.4698
 1630ntf    cn1 9320   1.059   6.823   6.229 -0.4675 -0.0295  0.2287
 1630ntf    fn4 9321   0.492   6.778   6.119  0.1907 -0.2362  0.1539
 1630ntf    fn4 9322   0.580   6.787   6.314 -0.0502  0.4285  0.1330
 1630ntf    fn4 9323   0.613   6.930   6.158 -0.2445 -0.2645 -0.1879
 1630ntf    on5 9324   0.692   6.576   6.080  0.4016 -0.1758 -0.2645
 1630ntf    on5 9325   0.795   6.789   6.010  0.1618  0.0388 -0.1477
 1630ntf    on5 9326   1.030   6.582   6.143  0.0536  0.4288  0.3486
 1630ntf    on5 9327   1.024   6.624   6.391 -0.6201 -0.3915  0.4334
 1630ntf    fn4 9328   1.177   6.829   6.288  0.0834  0.0525 -0.8614
 1630ntf    fn4 9329   1.066   6.869   6.105  0.2108  0.4472  0.4403
 1630ntf    fn4 9330   0.981   6.909   6.292 -0.0067  0.3269  0.3182
 1631ntf    cn1 9331   2.121   0.727   2.647  0.1815  0.4299 -0.0129
 1631ntf    sn2 9332   2.283   0.781   2.584  0.3124  0.0796  0.0211
 1631ntf    nn3 9333   2.384   0.692   2.665 -0.2750  0.0361  0.7165
 1631ntf    sn2 9334   2.522   0.727   2.731  0.2457 -0.3355 -0.1481
 1631ntf    cn1 9335   2.542   0.582   2.839 -0.3552  0.0910  0.5467
 1631ntf    fn4 9336   2.023   0.805   2.605 -0.2546 -0.0652  0.0783
 1631ntf    fn4 9337   2.088   0.606   2.607 -0.7096  0.7142 -0.1452
 1631ntf    fn4 9338   2.104   0.725   2.779 -0.0199  0.5830 -0.0369
 1631ntf    on5 9339   2.279   0.756   2.442  0.6804 -0.0414  0.0315
 1631ntf    on5 9340   2.285   0.921   2.617  0.2744 -0.1234  0.9127
 1631ntf    on5 9341   2.516   0.835   2.827 -0.4078 -0.0841 -0.4649
 1631ntf    on5 9342   2.634   0.716   2.641  0.0040 -0.5142 -0.4308
 1631ntf    fn4 9343   2.664   0.575   2.891  0.1137  0.1593 -0.5136
 1631ntf    fn4 9344   2.450   0.576   2.934 -0.8300  0.0285  0.0854
 1631ntf    fn4 9345   2.530   0.476   2.761 -0.2530  0.0629  0.5690
 1632ntf    cn1 9346   3.645   6.049   0.132  0.1157  0.0081  0.1520
 1632ntf    sn2 9347   3.619   5.945  -0.015  0.2486 -0.1353  0.2287
 1632ntf    nn3 9348   3.674   5.805   0.028  0.7172 -0.0596 -0.1225
 1632ntf    sn2 9349   3.607   5.663   0.026  0.3724  0.1003 -0.0191
 1632ntf    cn1 9350   3.680   5.586  -0.122 -0.0416 -0.0993 -0.1197
 1632ntf    fn4 9351   3.738   6.002   0.214  0.2488 -0.4777 -0.2721
 1632ntf    fn4 9352   3.694   6.164   0.089 -0.6545  0.2101 -0.2001
 1632ntf    fn4 9353   3.534   6.070   0.201  0.1222  0.0926  0.1364
 1632ntf    on5 9354   3.476   5.952  -0.038  0.3228  0.2577 -0.1201
 1632ntf    on5 9355   3.697   6.011  -0.117 -0.2604 -0.3813 -0.3264
 1632ntf    on5 9356   3.465   5.655   0.002  0.4395 -0.1247 -0.3486
 1632ntf    on5 9357   3.663   5.580   0.129  0.7098  0.1568 -0.1557
 1632ntf    fn4 9358   3.634   5.631  -0.238 -0.1049 -0.1336 -0.1084
 1632ntf    fn4 9359   3.811   5.594  -0.131  0.0176 -0.7054  0.1691
 1632ntf    fn4 9360   3.663   5.455  -0.119 -0.0796 -0.0871  0.2264
 1633ntf    cn1 9361   6.741   4.364   6.084  0.4203 -0.1568  0.3097
 1633ntf    sn2 9362   6.617   4.491   6.122  0.1126 -0.3467 -0.0653
 1633ntf    nn3 9363   6.491   4.440   6.042 -0.2151 -0.0153  0.2357
 1633ntf    sn2 9364   6.440   4.478   5.898 -0.0228  0.0317  0.1793
 1633ntf    cn1 9365   6.325   4.339   5.875 -0.0099  0.0574 -0.0403
 1633ntf    fn4 9366   6.721   4.325   5.959  0.7058 -0.3109  0.3114
 1633ntf    fn4 9367   6.866   4.405   6.101  0.4810 -0.0359 -0.3789
 1633ntf    fn4 9368   6.732   4.252   6.154  0.1221  0.1212  0.7180
 1633ntf    on5 9369   6.594   4.475   6.263  0.2091 -0.0597 -0.0161
 1633ntf    on5 9370   6.669   4.617   6.076 -0.1708 -0.3083 -0.2902
 1633ntf    on5 9371   6.535   4.454   5.793 -0.3759 -0.2015 -0.0872
 1633ntf    on5 9372   6.350   4.589   5.881  0.0366  0.1411  0.5660
 1633ntf    fn4 9373   6.383   4.221   5.867  0.0485  0.0755  0.1251
 1633ntf    fn4 9374   6.243   4.327   5.979 -0.5208  0.2737 -0.4114
 1633ntf    fn4 9375   6.252   4.351   5.765  0.3744  0.2593 -0.2775
 1634ntf    cn1 9376   0.202   2.360   6.364 -0.3347 -0.3132  0.1010
 1634ntf    sn2 9377   0.086   2.439   6.250  0.0344 -0.3432 -0.2982
 1634ntf    nn3 9378  -0.048   2.372   6.296 -0.0557 -0.0312 -0.1025
 1634ntf    sn2 9379  -0.127   2.252   6.232  0.1091 -0.1101 -0.1594
 1634ntf    cn1 9380  -0.224   2.201   6.377 -0.1496 -0.4884 -0.4624
 1634ntf    fn4 9381   0.198   2.392   6.493 -0.4970  0.4493 -0.0896
 1634ntf    fn4 9382   0.192   2.228   6.357  0.0856 -0.3361 -0.0480
 1634ntf    fn4 9383   0.330   2.381   6.338 -0.4123 -0.4558 -0.4136
 1634ntf    on5 9384   0.100   2.579   6.283  0.1298 -0.5267  0.4515
 1634ntf    on5 9385   0.124   2.400   6.116  0.6220 -0.4905 -0.0864
 1634ntf    on5 9386  -0.053   2.130   6.210 -0.0083 -0.1746 -0.1962
 1634ntf    on5 9387  -0.233   2.277   6.137  0.4466 -0.2362 -0.5694
 1634ntf    fn4 9388  -0.159   2.129   6.467 -0.0909  0.0544 -0.0572
 1634ntf    fn4 9389  -0.273   2.303   6.447 -0.2006 -0.5687 -0.3807
 1634ntf    fn4 9390  -0.331   2.127   6.353 -0.2029 -0.4408 -0.3782
 1635ntf    cn1 9391   0.548   5.674   6.052 -0.3439 -0.3772  0.0718
 1635ntf    sn2 9392   0.680   5.670   6.176 -0.3001  0.1464  0.0455
 1635ntf    nn3 9393   0.660   5.811   6.242  0.0875 -0.0246  0.5421
 1635ntf    sn2 9394   0.746   5.941   6.223 -0.1871  0.1262  0.3201
 1635ntf    cn1 9395   0.884   5.905   6.335 -0.2812 -0.3646  0.2805
 1635ntf    fn4 9396   0.431   5.689   6.112  0.1452  0.3307  0.8606
 1635ntf    fn4 9397   0.569   5.776   5.970  0.3826 -0.4398  0.1747
 1635ntf    fn4 9398   0.536   5.565   5.977 -0.1187 -0.4052  0.0781
 1635ntf    on5 9399   0.652   5.555   6.259  0.5391 -0.0895  0.0133
 1635ntf    on5 9400   0.786   5.649   6.081 -0.0464  0.5825  0.2308
 1635ntf    on5 9401   0.683   6.056   6.282 -0.2952  0.0492  0.3560
 1635ntf    on5 9402   0.810   5.965   6.096  0.1564 -0.5104  0.3675
 1635ntf    fn4 9403   0.968   5.817   6.284  0.4568  0.5594 -0.1155
 1635ntf    fn4 9404   0.951   6.014   6.368 -0.9825  0.1195  0.1219
 1635ntf    fn4 9405   0.841   5.846   6.445  0.1689 -0.6989  0.2802
 1636ntf    cn1 9406   1.154   6.772   4.423 -0.1862 -0.3201  0.2155
 1636ntf    sn2 9407   1.079   6.815   4.263  0.0137 -0.0020  0.2067
 1636ntf    nn3 9408   1.006   6.682   4.227 -0.2552  0.2060 -0.0169
 1636ntf    sn2 9409   0.972   6.627   4.084 -0.0010 -0.0282  0.0109
 1636ntf    cn1 9410   1.089   6.488   4.095 -0.1450 -0.1282  0.2869
 1636ntf    fn4 9411   1.068   6.724   4.511 -0.0779 -0.1618  0.4083
 1636ntf    fn4 9412   1.243   6.677   4.395 -0.3022 -0.3847  0.0665
 1636ntf    fn4 9413   1.219   6.873   4.480  0.0284 -0.4854  0.2662
 1636ntf    on5 9414   0.997   6.929   4.295  0.4702  0.3720  0.0674
 1636ntf    on5 9415   1.196   6.846   4.185 -0.4981  0.5431 -0.3512
 1636ntf    on5 9416   1.025   6.700   3.971  0.3218 -0.4165 -0.0918
 1636ntf    on5 9417   0.837   6.575   4.076  0.0218 -0.0881  0.0148
 1636ntf    fn4 9418   1.209   6.530   4.133 -0.3140  0.4732  0.1716
 1636ntf    fn4 9419   1.050   6.399   4.185 -0.3781 -0.3259 -0.0084
 1636ntf    fn4 9420   1.106   6.421   3.983 -0.2921  0.5119 -0.1259
 1637ntf    cn1 9421   2.624   1.251   2.269  0.0433  0.0326  0.0724
 1637ntf    sn2 9422   2.549   1.417   2.257 -0.2258 -0.0794  0.2015
 1637ntf    nn3 9423   2.541   1.428   2.100 -0.2886  0.4496  0.2425
 1637ntf    sn2 9424   2.495   1.553   2.017  0.0351  0.2625 -0.2191
 1637ntf    cn1 9425   2.403   1.457   1.892 -0.2540  0.2530 -0.0010
 1637ntf    fn4 9426   2.538   1.151   2.261 -0.2842  0.3269 -0.1106
 1637ntf    fn4 9427   2.714   1.218   2.178  0.0688  0.0283  0.0987
 1637ntf    fn4 9428   2.680   1.237   2.388  0.1538 -0.3895 -0.0305
 1637ntf    on5 9429   2.426   1.396   2.329 -0.2466  0.2326  0.2557
 1637ntf    on5 9430   2.644   1.505   2.319  0.2612 -0.0031 -0.6350
 1637ntf    on5 9431   2.603   1.621   1.950  0.2594  0.0498 -0.0730
 1637ntf    on5 9432   2.391   1.634   2.075  0.2501  0.3485  0.0454
 1637ntf    fn4 9433   2.294   1.414   1.953  0.1424  0.1158  0.6297
 1637ntf    fn4 9434   2.362   1.525   1.787 -0.0801  0.5509  0.1197
 1637ntf    fn4 9435   2.471   1.351   1.850  0.0644  0.6504 -0.4940
 1638ntf    cn1 9436   0.385   6.487   4.306  0.1794  0.2908  0.3729
 1638ntf    sn2 9437   0.223   6.518   4.383 -0.1233 -0.1156 -0.0989
 1638ntf    nn3 9438   0.137   6.565   4.260 -0.0442  0.3177  0.0114
 1638ntf    sn2 9439  -0.007   6.528   4.208 -0.0384 -0.1954  0.3566
 1638ntf    cn1 9440   0.028   6.388   4.097  0.2596  0.3155 -0.1984
 1638ntf    fn4 9441   0.440   6.594   4.253  0.2150  0.0651 -0.0502
 1638ntf    fn4 9442   0.472   6.447   4.398  0.1535 -0.6448 -0.0017
 1638ntf    fn4 9443   0.369   6.403   4.205 -0.1526  0.8001 -0.0005
 1638ntf    on5 9444   0.191   6.384   4.425 -0.5697  0.1259  0.3332
 1638ntf    on5 9445   0.250   6.619   4.481 -0.0966 -0.3249  0.1104
 1638ntf    on5 9446  -0.061   6.627   4.118  0.4163 -0.2320  0.0358
 1638ntf    on5 9447  -0.096   6.470   4.306  0.1433  0.1757  0.7415
 1638ntf    fn4 9448   0.122   6.422   4.011  0.2333  0.3654 -0.2078
 1638ntf    fn4 9449   0.079   6.284   4.162  0.5302  0.3534 -0.3466
 1638ntf    fn4 9450  -0.082   6.345   4.037  0.1933 -0.2485  0.3179
 1639ntf    cn1 9451   3.761   4.185   4.043 -0.0701  0.3265 -0.3660
 1639ntf    sn2 9452   3.808   4.317   4.160 -0.1850 -0.0362  0.0943
 1639ntf    nn3 9453   3.717   4.433   4.104  0.0791  0.1563  0.0644
 1639ntf    sn2 9454   3.763   4.567   4.036  0.3694 -0.0349 -0.1164
 1639ntf    cn1 9455   3.815   4.663   4.181  0.1268  0.1565 -0.1540
 1639ntf    fn4 9456   3.794   4.064   4.084  0.4555  0.4436 -0.4301
 1639ntf    fn4 9457   3.631   4.197   4.024 -0.1609 -0.2006 -0.0750
 1639ntf    fn4 9458   3.815   4.203   3.924  0.7885 -0.6038 -0.1294
 1639ntf    on5 9459   3.750   4.275   4.285 -0.5983  0.4601  0.0771
 1639ntf    on5 9460   3.951   4.331   4.165 -0.1911  0.2590 -0.4090
 1639ntf    on5 9461   3.650   4.640   3.983  0.2845 -0.1742 -0.1297
 1639ntf    on5 9462   3.885   4.564   3.959  0.1786  0.2240 -0.4348
 1639ntf    fn4 9463   3.854   4.785   4.147 -0.2655  0.2852 -0.1402
 1639ntf    fn4 9464   3.722   4.669   4.274 -0.0773  0.5750 -0.3859
 1639ntf    fn4 9465   3.914   4.611   4.252 -0.4458 -0.0043  0.5335
 1640ntf    cn1 9466   3.377   1.565   2.334  0.3374  0.1913  0.1548
 1640ntf    sn2 9467   3.365   1.394   2.276  0.1751  0.2299  0.0737
 1640ntf    nn3 9468   3.327   1.338   2.418 -0.1975  0.4245  0.0508
 1640ntf    sn2 9469   3.232   1.215   2.439  0.0687  0.1824 -0.1591
 1640ntf    cn1 9470   3.064   1.272   2.401 -0.0861  0.1991  0.5482
 1640ntf    fn4 9471   3.262   1.620   2.369 -0.0942 -0.4712 -0.2068
 1640ntf    fn4 9472   3.456   1.592   2.437  0.0347  0.4909  0.3124
 1640ntf    fn4 9473   3.424   1.644   2.238 -0.3481 -0.0744 -0.4053
 1640ntf    on5 9474   3.255   1.395   2.183  0.1944 -0.6214  0.0321
 1640ntf    on5 9475   3.499   1.365   2.230  0.0237  0.0303 -0.2502
 1640ntf    on5 9476   3.222   1.185   2.580 -0.8965  0.0085 -0.2616
 1640ntf    on5 9477   3.265   1.107   2.348 -0.5313 -0.3856  0.2850
 1640ntf    fn4 9478   3.036   1.294   2.274  0.7492 -0.3320  0.2668
 1640ntf    fn4 9479   2.973   1.179   2.425 -0.0425 -0.1394 -0.5680
 1640ntf    fn4 9480   3.033   1.385   2.463  0.2203  0.5273  0.1143
 1641ntf    cn1 9481   0.029   2.541   1.022  0.0230  0.2497  0.1665
 1641ntf    sn2 9482   0.183   2.453   1.064 -0.1233 -0.1904 -0.2082
 1641ntf    nn3 9483   0.286   2.568   1.034 -0.7044  0.4453  0.1969
 1641ntf    sn2 9484   0.396   2.638   1.122 -0.1368 -0.0120 -0.1417
 1641ntf    cn1 9485   0.327   2.806   1.120 -0.1995 -0.0393 -0.3308
 1641ntf    fn4 9486   0.033   2.582   0.896 -0.0028 -0.4703 -0.0748
 1641ntf    fn4 9487  -0.082   2.470   1.031 -0.1678  0.4697 -0.4415
 1641ntf    fn4 9488   0.022   2.648   1.099  0.6267  0.2041  0.2935
 1641ntf    on5 9489   0.169   2.414   1.202 -0.6181 -0.2355 -0.2703
 1641ntf    on5 9490   0.187   2.354   0.959 -0.7752 -0.6448  0.1968
 1641ntf    on5 9491   0.521   2.653   1.051 -0.2918 -0.3815 -0.4949
 1641ntf    on5 9492   0.415   2.605   1.261 -0.4282 -0.5045 -0.2176
 1641ntf    fn4 9493   0.209   2.819   1.177 -0.0043 -0.5900  0.2114
 1641ntf    fn4 9494   0.416   2.884   1.180 -0.0684  0.0039 -0.5828
 1641ntf    fn4 9495   0.321   2.850   0.996  0.0724  0.1694 -0.2711
 1642ntf    cn1 9496   5.055   2.108   1.726  0.0347  0.5158  0.2025
 1642ntf    sn2 9497   5.170   1.999   1.638 -0.0890  0.3223  0.2795
 1642ntf    nn3 9498   5.190   2.071   1.500 -0.0214  0.0377  0.1379
 1642ntf    sn2 9499   5.301   2.163   1.437  0.0582  0.0123  0.2414
 1642ntf    cn1 9500   5.223   2.206   1.279  0.3283  0.0376  0.1153
 1642ntf    fn4 9501   5.109   2.226   1.752  0.4469  0.5280 -0.6586
 1642ntf    fn4 9502   4.944   2.146   1.665  0.0041  0.2090  0.0675
 1642ntf    fn4 9503   5.019   2.053   1.841  0.7544 -0.3721  0.0146
 1642ntf    on5 9504   5.286   1.997   1.724  0.2670 -0.3329 -0.1988
 1642ntf    on5 9505   5.099   1.874   1.629  0.7363 -0.1050 -0.5289
 1642ntf    on5 9506   5.417   2.089   1.397  0.0015 -0.1750  0.4237
 1642ntf    on5 9507   5.313   2.288   1.508  0.0927  0.1735 -0.0464
 1642ntf    fn4 9508   5.295   2.283   1.199 -0.5934  0.3441 -0.4373
 1642ntf    fn4 9509   5.202   2.096   1.207 -0.2539 -0.1602  0.5751
 1642ntf    fn4 9510   5.104   2.263   1.289  0.1673 -0.2363 -0.1935
 1643ntf    cn1 9511   3.968   3.469   2.697  0.4324  0.0851  0.1738
 1643ntf    sn2 9512   3.890   3.444   2.860  0.0510 -0.0414 -0.0263
 1643ntf    nn3 9513   3.793   3.567   2.859  0.3818  0.2280  0.6776
 1643ntf    sn2 9514   3.822   3.717   2.892  0.1471  0.3910  0.1532
 1643ntf    cn1 9515   3.793   3.721   3.072  0.4251  0.2952  0.2007
 1643ntf    fn4 9516   4.038   3.361   2.668  0.0560 -0.0930 -0.0820
 1643ntf    fn4 9517   3.883   3.482   2.597  0.0561 -0.6501  0.3873
 1643ntf    fn4 9518   4.056   3.567   2.694 -0.0889  0.5346 -0.8388
 1643ntf    on5 9519   3.827   3.314   2.856  0.2858 -0.1543 -0.0868
 1643ntf    on5 9520   4.001   3.454   2.951 -0.0745  0.4153  0.0762
 1643ntf    on5 9521   3.721   3.806   2.839  0.2633  0.1114 -0.5442
 1643ntf    on5 9522   3.960   3.752   2.868  0.2514  0.5525  0.9338
 1643ntf    fn4 9523   3.669   3.679   3.090  0.4060  0.1882 -0.1643
 1643ntf    fn4 9524   3.871   3.641   3.143  0.7023  0.5207  0.1559
 1643ntf    fn4 9525   3.793   3.841   3.128  0.4828  0.4016 -0.0222
 1644ntf    cn1 9526   5.292   0.877   5.819  0.2460  0.2346 -0.1186
 1644ntf    sn2 9527   5.457   0.951   5.836  0.3032  0.0778  0.0088
 1644ntf    nn3 9528   5.487   0.887   5.976 -0.5743 -0.2215  0.0692
 1644ntf    sn2 9529   5.509   0.971   6.107  0.1539 -0.2872 -0.0066
 1644ntf    cn1 9530   5.684   1.009   6.075  0.0578  0.2211  0.0731
 1644ntf    fn4 9531   5.209   0.927   5.909  0.2450  0.0906 -0.0400
 1644ntf    fn4 9532   5.246   0.899   5.696 -0.2939  0.1014  0.0558
 1644ntf    fn4 9533   5.291   0.747   5.842 -0.5316  0.1342 -0.6558
 1644ntf    on5 9534   5.526   0.875   5.735  0.2069 -0.0457  0.0356
 1644ntf    on5 9535   5.449   1.094   5.819 -0.1747  0.0314 -0.1668
 1644ntf    on5 9536   5.503   0.880   6.219  0.4810  0.0221  0.2607
 1644ntf    on5 9537   5.439   1.096   6.118  0.4765 -0.0880 -0.2210
 1644ntf    fn4 9538   5.759   0.901   6.089 -0.2990 -0.0524 -0.1074
 1644ntf    fn4 9539   5.709   1.055   5.954  0.1004 -0.6698 -0.2654
 1644ntf    fn4 9540   5.738   1.094   6.160  0.4125  0.0542  0.0147
 1645ntf    cn1 9541   3.432   4.791   4.821  0.4006  0.3005 -0.1162
 1645ntf    sn2 9542   3.297   4.912   4.836 -0.0116 -0.1651 -0.0343
 1645ntf    nn3 9543   3.180   4.812   4.866  0.5380 -0.7950  0.0415
 1645ntf    sn2 9544   3.091   4.804   4.995  0.0945  0.0455 -0.2048
 1645ntf    cn1 9545   2.971   4.935   4.961 -0.2187 -0.2318 -0.1664
 1645ntf    fn4 9546   3.402   4.693   4.738 -0.1288  0.4520 -0.1065
 1645ntf    fn4 9547   3.546   4.842   4.779  0.1750  0.8324 -0.0817
 1645ntf    fn4 9548   3.448   4.735   4.940 -0.0886 -0.6831 -0.4982
 1645ntf    on5 9549   3.330   5.007   4.939 -0.0048 -0.1176 -0.0807
 1645ntf    on5 9550   3.290   4.961   4.701 -0.5499 -0.4402 -0.1091
 1645ntf    on5 9551   3.147   4.856   5.118  0.7734 -0.2705 -0.3729
 1645ntf    on5 9552   3.009   4.685   5.002  0.0996  0.0547  0.0472
 1645ntf    fn4 9553   2.864   4.946   5.038 -0.1337  0.2813 -0.1170
 1645ntf    fn4 9554   3.030   5.053   4.955 -0.1213 -0.2883 -0.3271
 1645ntf    fn4 9555   2.917   4.924   4.840  0.1885  0.0957 -0.3806
 1646ntf    cn1 9556   6.273   6.429   4.357 -0.0028 -0.0506 -0.6205
 1646ntf    sn2 9557   6.097   6.418   4.403  0.1718 -0.3411 -0.0156
 1646ntf    nn3 9558   6.102   6.283   4.483  0.8063 -0.2428  0.1145
 1646ntf    sn2 9559   6.029   6.147   4.453 -0.0071  0.2358 -0.1106
 1646ntf    cn1 9560   6.165   6.026   4.449  0.0829  0.3432 -0.3356
 1646ntf    fn4 9561   6.347   6.406   4.464 -0.3044 -0.0203 -0.4030
 1646ntf    fn4 9562   6.309   6.338   4.269  0.6394  0.1504 -0.5659
 1646ntf    fn4 9563   6.310   6.548   4.311 -0.2147  0.3050  0.1062
 1646ntf    on5 9564   6.092   6.544   4.474 -0.2778 -0.2298 -0.2420
 1646ntf    on5 9565   6.022   6.422   4.280  0.4481  0.2525 -0.1675
 1646ntf    on5 9566   5.959   6.124   4.330  0.1497 -0.4334 -0.0787
 1646ntf    on5 9567   5.957   6.107   4.571  0.0456  0.1462 -0.1092
 1646ntf    fn4 9568   6.246   6.042   4.552  0.3878 -0.2186 -0.4859
 1646ntf    fn4 9569   6.114   5.904   4.450  0.2384  0.2784  0.0331
 1646ntf    fn4 9570   6.236   6.045   4.339 -0.1419 -0.0882 -0.5564
 1647ntf    cn1 9571   4.481   0.614   1.615 -0.2351 -0.0285 -0.3230
 1647ntf    sn2 9572   4.529   0.779   1.676 -0.1805 -0.0351 -0.3476
 1647ntf    nn3 9573   4.514   0.884   1.560  0.5928  0.2794 -0.1676
 1647ntf    sn2 9574   4.490   0.853   1.408  0.0984  0.1130 -0.0579
 1647ntf    cn1 9575   4.540   1.010   1.332  0.1483  0.1420  0.0340
 1647ntf    fn4 9576   4.511   0.517   1.700 -0.1263  0.2221 -0.0732
 1647ntf    fn4 9577   4.355   0.590   1.583 -0.2526 -0.4215  0.0230
 1647ntf    fn4 9578   4.546   0.580   1.505  0.1224  0.1260 -0.1644
 1647ntf    on5 9579   4.436   0.804   1.784  0.2502  0.1756 -0.0213
 1647ntf    on5 9580   4.666   0.761   1.715 -0.1883 -0.0879 -0.3429
 1647ntf    on5 9581   4.349   0.845   1.378  0.2027  0.0453 -0.5292
 1647ntf    on5 9582   4.581   0.757   1.350 -0.6357 -0.5707 -0.0964
 1647ntf    fn4 9583   4.523   1.017   1.201  0.1307  0.0801  0.0328
 1647ntf    fn4 9584   4.472   1.114   1.375 -0.0364  0.1812 -0.3497
 1647ntf    fn4 9585   4.668   1.037   1.354  0.1522  0.0813  0.0863
 1648ntf    cn1 9586   4.853   4.859   3.596 -0.1574 -0.3478 -0.1481
 1648ntf    sn2 9587   4.945   4.726   3.512  0.3743  0.0426 -0.1906
 1648ntf    nn3 9588   5.095   4.761   3.543  0.2388  0.6328 -0.1985
 1648ntf    sn2 9589   5.183   4.703   3.659 -0.0767  0.0846 -0.2298
 1648ntf    cn1 9590   5.289   4.580   3.578 -0.0989 -0.2042  0.1779
 1648ntf    fn4 9591   4.867   4.856   3.728 -0.4367  0.3652 -0.0978
 1648ntf    fn4 9592   4.887   4.983   3.563 -0.1519 -0.4613 -0.5745
 1648ntf    fn4 9593   4.722   4.861   3.579 -0.0795  0.6491 -0.6783
 1648ntf    on5 9594   4.890   4.601   3.558  0.3048  0.1333 -0.0236
 1648ntf    on5 9595   4.925   4.766   3.375  0.0882 -0.2380 -0.2301
 1648ntf    on5 9596   5.108   4.626   3.755  0.1489  0.0501 -0.0804
 1648ntf    on5 9597   5.263   4.808   3.718 -0.1232 -0.4008  0.7157
 1648ntf    fn4 9598   5.220   4.494   3.504  0.6200 -0.2004 -0.5100
 1648ntf    fn4 9599   5.377   4.637   3.498 -0.5294 -0.0587 -0.1987
 1648ntf    fn4 9600   5.359   4.509   3.666  0.1890  0.1626  0.2464
 1649ntf    cn1 9601   2.471   5.812   5.338 -0.0190 -0.2443 -0.0043
 1649ntf    sn2 9602   2.353   5.920   5.424 -0.1058 -0.0097 -0.4186
 1649ntf    nn3 9603   2.224   5.831   5.430  0.2645 -0.5646 -0.5655
 1649ntf    sn2 9604   2.173   5.736   5.544 -0.0555 -0.0700 -0.2927
 1649ntf    cn1 9605   2.060   5.846   5.635  0.3292 -0.1417  0.2800
 1649ntf    fn4 9606   2.426   5.768   5.222 -0.0586  0.1235 -0.1274
 1649ntf    fn4 9607   2.586   5.875   5.320 -0.4955  0.5978 -0.1308
 1649ntf    fn4 9608   2.496   5.707   5.415  0.3984 -0.2805 -0.1835
 1649ntf    on5 9609   2.417   5.947   5.550 -0.1868 -0.0886 -0.3599
 1649ntf    on5 9610   2.343   6.028   5.329  0.5717  0.1068 -0.3653
 1649ntf    on5 9611   2.271   5.705   5.645 -0.4765 -0.6845 -0.0697
 1649ntf    on5 9612   2.096   5.622   5.499  0.1557 -0.7101  0.9174
 1649ntf    fn4 9613   2.025   5.801   5.754 -0.4923 -0.7843 -0.1880
 1649ntf    fn4 9614   2.124   5.961   5.648  0.1023  0.0532 -0.2734
 1649ntf    fn4 9615   1.945   5.865   5.571  0.3426 -0.0298  0.2889
 1650ntf    cn1 9616   6.408   3.743   3.114  0.1802 -0.3482 -0.1441
 1650ntf    sn2 9617   6.255   3.829   3.068  0.0510 -0.3321  0.3173
 1650ntf    nn3 9618   6.286   3.848   2.916  0.6412 -0.4160  0.4243
 1650ntf    sn2 9619   6.359   3.973   2.855 -0.2415 -0.1081 -0.0206
 1650ntf    cn1 9620   6.457   3.888   2.727  0.1901 -0.0564  0.2713
 1650ntf    fn4 9621   6.390   3.665   3.220  0.3672 -0.1532  0.0331
 1650ntf    fn4 9622   6.448   3.659   3.019 -0.5303  0.1409 -0.8789
 1650ntf    fn4 9623   6.509   3.822   3.146  0.3529 -0.4812 -0.3504
 1650ntf    on5 9624   6.145   3.739   3.091 -0.2298 -0.0475  0.1044
 1650ntf    on5 9625   6.259   3.954   3.141 -0.1907 -0.0051 -0.2189
 1650ntf    on5 9626   6.453   4.045   2.938 -0.4011  0.0316  0.0397
 1650ntf    on5 9627   6.272   4.064   2.786 -0.4216  0.2059  0.6109
 1650ntf    fn4 9628   6.381   3.810   2.652  0.7629 -0.4581  0.1064
 1650ntf    fn4 9629   6.527   3.973   2.654  0.2602 -0.4041 -0.0697
 1650ntf    fn4 9630   6.534   3.804   2.793  0.1816 -0.0323  0.3118
 1651ntf    cn1 9631   0.467   1.572   0.966  0.1827  0.2711  0.3315
 1651ntf    sn2 9632   0.626   1.628   0.896  0.1614 -0.1675 -0.0755
 1651ntf    nn3 9633   0.577   1.760   0.828 -0.2034  0.0138  0.5232
 1651ntf    sn2 9634   0.524   1.785   0.682 -0.0153  0.2196  0.4880
 1651ntf    cn1 9635   0.680   1.819   0.597 -0.1034 -0.3515  0.0930
 1651ntf    fn4 9636   0.423   1.658   1.057  0.4011  0.2194  0.4869
 1651ntf    fn4 9637   0.375   1.561   0.872 -0.2401 -0.4527  0.8225
 1651ntf    fn4 9638   0.471   1.455   1.029  0.0460 -0.0941 -0.3265
 1651ntf    on5 9639   0.707   1.655   1.012  0.1066 -0.6114  0.0693
 1651ntf    on5 9640   0.663   1.516   0.813 -0.0087  0.1471 -0.5755
 1651ntf    on5 9641   0.451   1.908   0.668  0.1772  0.2818  0.0160
 1651ntf    on5 9642   0.465   1.671   0.616  0.1436  0.3731  0.0835
 1651ntf    fn4 9643   0.747   1.914   0.661  0.3621 -0.5216 -0.1328
 1651ntf    fn4 9644   0.762   1.715   0.590  0.2782 -0.0239 -0.3944
 1651ntf    fn4 9645   0.658   1.867   0.475  0.4273 -0.1525  0.0729
 1652ntf    cn1 9646   3.672   4.609   0.466  0.0288  0.2885 -0.2055
 1652ntf    sn2 9647   3.853   4.599   0.467  0.0141  0.0069 -0.1652
 1652ntf    nn3 9648   3.880   4.718   0.567  0.5045  0.1092 -0.4151
 1652ntf    sn2 9649   3.898   4.869   0.528 -0.1082  0.2335 -0.2205
 1652ntf    cn1 9650   4.061   4.911   0.596 -0.0599 -0.3573  0.0425
 1652ntf    fn4 9651   3.629   4.734   0.455  0.0600  0.3542  0.3718
 1652ntf    fn4 9652   3.606   4.550   0.368  0.2913 -0.2254 -0.0741
 1652ntf    fn4 9653   3.620   4.555   0.575  0.0344 -0.0902 -0.3911
 1652ntf    on5 9654   3.881   4.471   0.527  0.3145 -0.1172 -0.5638
 1652ntf    on5 9655   3.901   4.613   0.332  0.4192  0.3382  0.0078
 1652ntf    on5 9656   3.813   4.952   0.609 -0.4781 -0.3943  0.0469
 1652ntf    on5 9657   3.905   4.912   0.390  0.6277  0.2365 -0.1856
 1652ntf    fn4 9658   4.073   5.042   0.577  0.0656 -0.3872 -0.0907
 1652ntf    fn4 9659   4.072   4.878   0.723 -0.5830 -0.2100  0.1273
 1652ntf    fn4 9660   4.161   4.855   0.529  0.1416  0.2043 -0.1351
 1653ntf    cn1 9661   4.501   3.461   0.328 -0.3149  0.3636 -0.4663
 1653ntf    sn2 9662   4.405   3.520   0.470  0.0541  0.0052 -0.0645
 1653ntf    nn3 9663   4.314   3.630   0.406  0.2952  0.0539 -0.3237
 1653ntf    sn2 9664   4.339   3.783   0.382 -0.1481  0.2731  0.5748
 1653ntf    cn1 9665   4.226   3.815   0.243  0.2167 -0.6571  0.0547
 1653ntf    fn4 9666   4.420   3.413   0.235  0.0289 -0.1096 -0.5284
 1653ntf    fn4 9667   4.581   3.556   0.281  0.2473 -0.0371 -0.3390
 1653ntf    fn4 9668   4.593   3.370   0.358 -0.6136  0.2163 -0.0010
 1653ntf    on5 9669   4.313   3.414   0.504 -0.6039  0.4727 -0.3819
 1653ntf    on5 9670   4.502   3.558   0.570 -0.0206  0.1508 -0.0478
 1653ntf    on5 9671   4.474   3.806   0.337 -0.1954 -0.1090  0.2327
 1653ntf    on5 9672   4.293   3.869   0.488 -0.3681  0.1117  0.6120
 1653ntf    fn4 9673   4.254   3.739   0.138  0.3356 -0.0419 -0.3641
 1653ntf    fn4 9674   4.098   3.801   0.274  0.1694  0.1977  0.2632
 1653ntf    fn4 9675   4.242   3.939   0.200 -0.7183 -0.5439  0.0291
 1654ntf    cn1 9676   3.667   3.592   0.841  0.0462 -0.2051  0.1975
 1654ntf    sn2 9677   3.556   3.492   0.738  0.2218 -0.0844 -0.1097
 1654ntf    nn3 9678   3.580   3.364   0.826  0.2030  0.0504  0.0915
 1654ntf    sn2 9679   3.504   3.309   0.951  0.1015 -0.1900 -0.0746
 1654ntf    cn1 9680   3.637   3.314   1.075  0.2425 -0.1974 -0.2259
 1654ntf    fn4 9681   3.784   3.535   0.862  0.0708 -0.1660  0.1667
 1654ntf    fn4 9682   3.686   3.708   0.780 -0.1661 -0.7032 -0.8356
 1654ntf    fn4 9683   3.614   3.623   0.958 -0.3238 -0.1492  0.0159
 1654ntf    on5 9684   3.430   3.561   0.748  0.2858 -0.0801  0.7002
 1654ntf    on5 9685   3.619   3.485   0.608  0.3710 -0.0219 -0.0395
 1654ntf    on5 9686   3.489   3.166   0.940  0.0889 -0.1509 -0.5515
 1654ntf    on5 9687   3.393   3.390   0.996  0.1945 -0.2934  0.3535
 1654ntf    fn4 9688   3.732   3.233   1.028  0.1948 -0.3634 -0.0392
 1654ntf    fn4 9689   3.684   3.437   1.088 -0.1268 -0.0805  0.0196
 1654ntf    fn4 9690   3.594   3.274   1.194 -0.3916  0.1496 -0.3359
 1655ntf    cn1 9691   0.201   5.990   1.209 -0.1339 -0.0269  0.2609
 1655ntf    sn2 9692   0.021   5.979   1.186 -0.1037 -0.1409  0.0726
 1655ntf    nn3 9693  -0.038   6.047   1.315 -0.1738 -0.1354  0.0376
 1655ntf    sn2 9694  -0.147   5.976   1.403 -0.1583 -0.1809  0.0202
 1655ntf    cn1 9695  -0.030   5.906   1.524 -0.1557  0.1231  0.1970
 1655ntf    fn4 9696   0.251   6.111   1.227 -0.3294  0.0710  0.1516
 1655ntf    fn4 9697   0.240   5.917   1.311  0.6251 -0.1937 -0.1381
 1655ntf    fn4 9698   0.259   5.957   1.095 -0.0358 -0.6333  0.4861
 1655ntf    on5 9699  -0.006   6.061   1.070 -0.4888 -0.6145 -0.1747
 1655ntf    on5 9700   0.001   5.838   1.168 -0.6819 -0.0707  0.1365
 1655ntf    on5 9701  -0.213   5.856   1.359 -0.1283 -0.1312 -0.1621
 1655ntf    on5 9702  -0.222   6.071   1.481  0.1660  0.2486 -0.1857
 1655ntf    fn4 9703   0.056   5.821   1.471 -0.2549  0.0683  0.1222
 1655ntf    fn4 9704   0.048   5.995   1.581 -0.0353  0.0782  0.1036
 1655ntf    fn4 9705  -0.098   5.836   1.614 -0.6305  0.2500 -0.0571
 1656ntf    cn1 9706   1.333   6.234   1.146 -0.4818 -0.3672 -0.1720
 1656ntf    sn2 9707   1.379   6.101   1.031  0.2622 -0.2614 -0.0006
 1656ntf    nn3 9708   1.391   6.181   0.897 -0.3333  0.3257  0.2909
 1656ntf    sn2 9709   1.518   6.245   0.830 -0.1158 -0.0668  0.3267
 1656ntf    cn1 9710   1.556   6.119   0.704 -0.0868 -0.3253  0.5939
 1656ntf    fn4 9711   1.421   6.332   1.159 -0.5106 -0.4347  0.5590
 1656ntf    fn4 9712   1.218   6.290   1.111 -0.1356  0.3602 -0.1675
 1656ntf    fn4 9713   1.331   6.190   1.271  0.3520  0.0928  0.0105
 1656ntf    on5 9714   1.504   6.051   1.083  0.0860  0.1329  0.8190
 1656ntf    on5 9715   1.265   6.013   1.034 -0.3255  0.4970  0.1758
 1656ntf    on5 9716   1.635   6.264   0.911 -0.3147 -0.0792  0.6186
 1656ntf    on5 9717   1.482   6.361   0.753  0.3545 -0.3563 -0.3407
 1656ntf    fn4 9718   1.603   6.005   0.751  0.2251 -0.6401 -0.4511
 1656ntf    fn4 9719   1.453   6.085   0.629  0.1936  0.8761 -0.3810
 1656ntf    fn4 9720   1.646   6.170   0.621 -0.6251  0.0867  0.2576
 1657ntf    cn1 9721   4.843   2.188   0.978  0.0731  0.1724 -0.2264
 1657ntf    sn2 9722   4.720   2.287   1.069  0.2097  0.0027  0.1475
 1657ntf    nn3 9723   4.716   2.424   0.991  0.1186 -0.0485  0.0623
 1657ntf    sn2 9724   4.803   2.552   1.013 -0.0383  0.0924 -0.1337
 1657ntf    cn1 9725   4.698   2.642   1.131  0.0493  0.0670 -0.0363
 1657ntf    fn4 9726   4.805   2.193   0.851  0.4501  0.3369 -0.3333
 1657ntf    fn4 9727   4.966   2.236   0.984 -0.1262  0.6087  0.4934
 1657ntf    fn4 9728   4.855   2.063   1.019  0.1310  0.2605  0.0306
 1657ntf    on5 9729   4.601   2.208   1.051 -0.0039  0.2171  0.6078
 1657ntf    on5 9730   4.767   2.299   1.205 -0.1682  0.1659  0.2642
 1657ntf    on5 9731   4.808   2.632   0.893  0.4497 -0.2469 -0.3411
 1657ntf    on5 9732   4.929   2.524   1.079 -0.3398 -0.4268  0.2306
 1657ntf    fn4 9733   4.751   2.761   1.156  0.2549 -0.1587  0.6285
 1657ntf    fn4 9734   4.573   2.660   1.094 -0.2420 -0.7936  0.5161
 1657ntf    fn4 9735   4.693   2.577   1.246 -0.2731 -0.4584 -0.3457
 1658ntf    cn1 9736   3.327   4.744   5.642  0.2650  0.0225 -0.2504
 1658ntf    sn2 9737   3.492   4.738   5.566  0.2649  0.1499 -0.2594
 1658ntf    nn3 9738   3.566   4.848   5.649 -0.0020  0.0561  0.1069
 1658ntf    sn2 9739   3.624   4.831   5.794 -0.1619  0.1790  0.1860
 1658ntf    cn1 9740   3.498   4.920   5.889 -0.0386  0.4509  0.0942
 1658ntf    fn4 9741   3.249   4.661   5.573  0.0096 -0.0725  0.1467
 1658ntf    fn4 9742   3.321   4.707   5.769  0.9051 -0.4955 -0.3654
 1658ntf    fn4 9743   3.270   4.863   5.636  0.2133  0.0693  0.9330
 1658ntf    on5 9744   3.540   4.604   5.583  0.2032  0.2720  0.9338
 1658ntf    on5 9745   3.467   4.782   5.431  0.2035 -0.0591 -0.3160
 1658ntf    on5 9746   3.751   4.893   5.823  0.1232  0.1589 -0.9464
 1658ntf    on5 9747   3.606   4.699   5.849  0.2377  0.0569  0.0287
 1658ntf    fn4 9748   3.508   4.914   6.021 -0.1792  0.4383  0.1043
 1658ntf    fn4 9749   3.502   5.049   5.857  0.3231  0.3679 -0.2008
 1658ntf    fn4 9750   3.375   4.886   5.854 -0.0095  0.4373  0.0065
 1659ntf    cn1 9751   6.159   5.026   2.986 -0.1469 -0.2960 -0.0219
 1659ntf    sn2 9752   6.057   4.894   3.060  0.0344 -0.3520  0.1276
 1659ntf    nn3 9753   5.927   4.975   3.028  0.1995 -0.0064  0.3192
 1659ntf    sn2 9754   5.784   4.921   2.988  0.0669  0.1888  0.5297
 1659ntf    cn1 9755   5.784   4.977   2.815 -0.1999  0.0293  0.4784
 1659ntf    fn4 9756   6.289   5.006   2.987  0.0175  0.7306  0.0885
 1659ntf    fn4 9757   6.131   5.039   2.858  0.2647 -0.4115 -0.1250
 1659ntf    fn4 9758   6.129   5.141   3.043 -0.4310 -0.4349  0.1158
 1659ntf    on5 9759   6.074   4.776   2.979 -0.1260 -0.0330 -0.3768
 1659ntf    on5 9760   6.101   4.896   3.197 -0.0283 -0.0207  0.1444
 1659ntf    on5 9761   5.672   4.992   3.044 -0.5087 -0.1053 -0.2345
 1659ntf    on5 9762   5.775   4.778   2.988 -0.2373  0.2083  0.4433
 1659ntf    fn4 9763   5.894   4.953   2.746 -0.1753 -0.6402  0.7478
 1659ntf    fn4 9764   5.680   4.936   2.745  0.1050  0.3963 -0.1931
 1659ntf    fn4 9765   5.772   5.109   2.810 -0.0522  0.0253  0.0305
 1660ntf    cn1 9766   4.085   2.581   5.512 -0.0042 -0.1688  0.1978
 1660ntf    sn2 9767   4.106   2.402   5.485 -0.0385 -0.1857  0.2822
 1660ntf    nn3 9768   4.041   2.357   5.620 -1.0717  0.2452 -0.0636
 1660ntf    sn2 9769   3.986   2.214   5.652 -0.4143  0.0069  0.0070
 1660ntf    cn1 9770   3.805   2.214   5.629 -0.3755  0.0892 -0.2936
 1660ntf    fn4 9771   4.156   2.656   5.429 -0.6533 -0.4354 -0.6086
 1660ntf    fn4 9772   3.959   2.608   5.483  0.0232 -0.2857 -0.0355
 1660ntf    fn4 9773   4.113   2.616   5.636 -0.1947 -0.5856  0.3614
 1660ntf    on5 9774   4.016   2.377   5.375  0.2152  0.8862 -0.1843
 1660ntf    on5 9775   4.247   2.384   5.460  0.0134  0.4801  0.0673
 1660ntf    on5 9776   4.004   2.179   5.791 -0.0038  0.7455  0.1426
 1660ntf    on5 9777   4.022   2.110   5.559 -0.2791  0.3765 -0.3524
 1660ntf    fn4 9778   3.751   2.103   5.675  0.1853 -0.1038 -0.0828
 1660ntf    fn4 9779   3.756   2.319   5.692  0.1713  0.0544  0.2073
 1660ntf    fn4 9780   3.777   2.211   5.500  0.0501 -0.3331 -0.3800
 1661ntf    cn1 9781   6.410   2.328   1.344  0.2593 -0.0873  0.1932
 1661ntf    sn2 9782   6.334   2.486   1.295  0.0216 -0.2585  0.0127
 1661ntf    nn3 9783   6.210   2.455   1.386  0.0569 -0.1024  0.1138
 1661ntf    sn2 9784   6.077   2.378   1.352  0.0309 -0.0823  0.1699
 1661ntf    cn1 9785   5.979   2.491   1.249  0.1281 -0.1350  0.0197
 1661ntf    fn4 9786   6.339   2.224   1.305  0.2223 -0.0089  0.0512
 1661ntf    fn4 9787   6.529   2.311   1.288  0.1407  0.2744 -0.1794
 1661ntf    fn4 9788   6.422   2.320   1.475 -0.7293 -0.0635  0.2900
 1661ntf    on5 9789   6.423   2.580   1.358 -0.1594  0.0355 -0.1668
 1661ntf    on5 9790   6.327   2.477   1.151  0.3694  0.4110 -0.0465
 1661ntf    on5 9791   5.993   2.362   1.468 -0.1190  0.0012  0.0727
 1661ntf    on5 9792   6.089   2.261   1.268 -0.1462  0.0108  0.0140
 1661ntf    fn4 9793   5.948   2.601   1.316  0.1209 -0.2968  0.2797
 1661ntf    fn4 9794   6.037   2.522   1.134  0.2164 -0.6475 -0.0734
 1661ntf    fn4 9795   5.866   2.429   1.219  0.3007 -0.5693  0.2690
 1662ntf    cn1 9796   0.663   2.242   4.291 -0.2820 -0.1417 -0.2359
 1662ntf    sn2 9797   0.608   2.394   4.207  0.0058  0.1891  0.1679
 1662ntf    nn3 9798   0.744   2.457   4.162  0.1201 -0.0945  0.1174
 1662ntf    sn2 9799   0.785   2.496   4.016 -0.0553  0.2900  0.1720
 1662ntf    cn1 9800   0.854   2.662   4.045  0.0550  0.2559  0.1057
 1662ntf    fn4 9801   0.567   2.184   4.361 -0.3949  0.1916 -0.1085
 1662ntf    fn4 9802   0.709   2.149   4.208 -0.5268 -0.8097  0.3719
 1662ntf    fn4 9803   0.761   2.270   4.374 -0.0591 -0.3877 -0.4140
 1662ntf    on5 9804   0.524   2.340   4.102  0.2375  0.1414  0.0076
 1662ntf    on5 9805   0.539   2.474   4.305  0.2688 -0.3176  0.7723
 1662ntf    on5 9806   0.686   2.516   3.913 -0.2117  0.1292  0.2913
 1662ntf    on5 9807   0.904   2.427   3.972  0.1630  0.7686  0.0036
 1662ntf    fn4 9808   0.955   2.694   3.965 -0.0635  0.5337  0.0657
 1662ntf    fn4 9809   0.753   2.745   4.025 -0.1911 -0.1008 -0.1435
 1662ntf    fn4 9810   0.898   2.683   4.168  0.4492 -0.7860  0.1518
 1663ntf    cn1 9811   1.660   1.896   3.312  0.1375  0.0641 -0.2727
 1663ntf    sn2 9812   1.774   1.912   3.453 -0.2578  0.1944  0.0363
 1663ntf    nn3 9813   1.884   2.007   3.393 -0.1935  0.3802  0.4429
 1663ntf    sn2 9814   2.039   2.001   3.412 -0.1457  0.0361 -0.0189
 1663ntf    cn1 9815   2.089   1.914   3.260  0.3986 -0.0046  0.1789
 1663ntf    fn4 9816   1.635   2.013   3.256  0.3739  0.2871  0.0779
 1663ntf    fn4 9817   1.702   1.821   3.212 -0.3985 -0.3462 -0.1964
 1663ntf    fn4 9818   1.540   1.849   3.344  0.2659  0.0092  0.1386
 1663ntf    on5 9819   1.696   1.973   3.558 -0.4770 -0.5271  0.3033
 1663ntf    on5 9820   1.810   1.773   3.472  0.0986  0.2875  0.0516
 1663ntf    on5 9821   2.095   1.916   3.515  0.3309  1.0078  0.5443
 1663ntf    on5 9822   2.099   2.132   3.401  0.0299 -0.0610 -0.2211
 1663ntf    fn4 9823   2.214   1.947   3.231  0.4093 -0.0141  0.2129
 1663ntf    fn4 9824   2.084   1.782   3.260  0.2820 -0.0017 -0.1949
 1663ntf    fn4 9825   2.031   1.960   3.151  0.4425  0.2384  0.2579
 1664ntf    cn1 9826   0.327   4.502   0.920 -0.1822 -0.1118  0.1327
 1664ntf    sn2 9827   0.193   4.398   0.855 -0.2342  0.0987 -0.0983
 1664ntf    nn3 9828   0.184   4.296   0.974 -0.1906 -0.1892 -0.3401
 1664ntf    sn2 9829   0.102   4.301   1.108 -0.0488 -0.0334 -0.2590
 1664ntf    cn1 9830  -0.048   4.214   1.054 -0.1414  0.0825 -0.1891
 1664ntf    fn4 9831   0.307   4.531   1.047 -0.2006 -0.5041  0.2233
 1664ntf    fn4 9832   0.452   4.458   0.907  0.0126  0.4623  0.0420
 1664ntf    fn4 9833   0.333   4.618   0.857  0.1419 -0.2237 -0.0509
 1664ntf    on5 9834   0.091   4.500   0.847 -0.4568 -0.1721 -0.7843
 1664ntf    on5 9835   0.243   4.338   0.734  0.2150  0.5196 -0.1238
 1664ntf    on5 9836   0.050   4.429   1.151  0.4026  0.0498  0.0392
 1664ntf    on5 9837   0.156   4.222   1.216 -0.2547 -0.1553 -0.2449
 1664ntf    fn4 9838  -0.019   4.094   1.007 -0.2100  0.1028 -0.2832
 1664ntf    fn4 9839  -0.135   4.187   1.151 -0.0722  0.3135 -0.0621
 1664ntf    fn4 9840  -0.103   4.283   0.955  0.0711  0.2474 -0.1918
 1665ntf    cn1 9841   5.089   6.389   0.961  0.3891  0.1537  0.0777
 1665ntf    sn2 9842   5.216   6.513   1.002  0.2284  0.2540  0.2741
 1665ntf    nn3 9843   5.124   6.638   1.018  0.4562  0.3581  0.7992
 1665ntf    sn2 9844   5.123   6.772   0.936 -0.0057 -0.1349 -0.0133
 1665ntf    cn1 9845   5.109   6.897   1.067  0.4131  0.1968 -0.2789
 1665ntf    fn4 9846   4.987   6.398   1.044  0.2642  0.3318 -0.0937
 1665ntf    fn4 9847   5.033   6.415   0.844  0.1282  0.3270  0.2403
 1665ntf    fn4 9848   5.134   6.265   0.957  0.3273  0.1373 -0.1040
 1665ntf    on5 9849   5.267   6.460   1.126  0.1549  0.1391  0.2548
 1665ntf    on5 9850   5.305   6.499   0.889 -0.0471  0.2332  0.0594
 1665ntf    on5 9851   5.000   6.789   0.862  0.2837  0.1644 -0.4368
 1665ntf    on5 9852   5.249   6.803   0.872 -0.2466  0.0735 -0.3941
 1665ntf    fn4 9853   5.195   6.887   1.167  0.1049 -0.6087 -0.0872
 1665ntf    fn4 9854   5.107   7.019   1.017 -0.7310  0.3328  0.0589
 1665ntf    fn4 9855   4.989   6.890   1.122  0.3590  0.6392 -0.3328
 1666ntf    cn1 9856   1.735   0.197   4.186  0.4091 -0.2057  0.1051
 1666ntf    sn2 9857   1.847   0.116   4.068  0.2105 -0.0713 -0.1778
 1666ntf    nn3 9858   1.781   0.162   3.933 -0.2449 -0.1680  0.0098
 1666ntf    sn2 9859   1.844   0.155   3.790 -0.2396 -0.0170  0.0044
 1666ntf    cn1 9860   1.898   0.324   3.752 -0.2220  0.0679  0.3994
 1666ntf    fn4 9861   1.737   0.324   4.146  0.1936 -0.3401 -0.3398
 1666ntf    fn4 9862   1.614   0.144   4.185  0.5583 -0.5484 -0.0838
 1666ntf    fn4 9863   1.772   0.202   4.313  0.3540 -0.0957  0.1179
 1666ntf    on5 9864   1.971   0.181   4.102 -0.0138  0.4479 -0.3394
 1666ntf    on5 9865   1.827  -0.024   4.095  0.0065 -0.0128 -0.0259
 1666ntf    on5 9866   1.746   0.129   3.688 -0.0237 -0.6101 -0.0603
 1666ntf    on5 9867   1.968   0.081   3.785 -0.1809  0.0740  0.1129
 1666ntf    fn4 9868   1.808   0.419   3.772  0.2518  0.5059  0.4745
 1666ntf    fn4 9869   2.007   0.356   3.820  0.2139 -0.5723  0.0175
 1666ntf    fn4 9870   1.930   0.339   3.624  0.3124 -0.7585  0.4313
 1667ntf    cn1 9871   4.845   0.646   4.640 -0.4728 -0.2941 -0.2220
 1667ntf    sn2 9872   4.903   0.769   4.761 -0.0122 -0.6419 -0.0859
 1667ntf    nn3 9873   5.058   0.739   4.761  0.1286  0.0756 -0.2346
 1667ntf    sn2 9874   5.174   0.806   4.680  0.2541  0.2122  0.0566
 1667ntf    cn1 9875   5.243   0.920   4.803  0.0394 -0.0737  0.4436
 1667ntf    fn4 9876   4.862   0.521   4.680  0.2249 -0.2042 -0.2245
 1667ntf    fn4 9877   4.717   0.665   4.614 -0.3458  0.4428 -0.3302
 1667ntf    fn4 9878   4.904   0.659   4.522  0.4320 -0.1294  0.2396
 1667ntf    on5 9879   4.862   0.895   4.705  1.0156 -0.3594 -0.2366
 1667ntf    on5 9880   4.836   0.730   4.882  0.1971 -0.6558  0.0256
 1667ntf    on5 9881   5.132   0.881   4.564  0.1158 -0.2723 -0.2116
 1667ntf    on5 9882   5.286   0.716   4.662 -0.3018 -0.5423  0.3467
 1667ntf    fn4 9883   5.367   0.953   4.771 -0.2666  0.0588 -0.6531
 1667ntf    fn4 9884   5.177   1.034   4.816 -0.0087  0.0295 -0.6075
 1667ntf    fn4 9885   5.258   0.868   4.924 -0.5076  0.2591  0.6621
 1668ntf    cn1 9886   5.054   6.109   5.164  0.4179 -0.4027  0.3141
 1668ntf    sn2 9887   5.161   6.119   5.311  0.4168  0.4358  0.2635
 1668ntf    nn3 9888   5.103   6.247   5.380 -0.2697  0.3762 -0.1963
 1668ntf    sn2 9889   5.000   6.247   5.499 -0.3508  0.1002 -0.2654
 1668ntf    cn1 9890   5.095   6.237   5.654 -0.1672  0.0427 -0.3818
 1668ntf    fn4 9891   5.017   6.229   5.124  0.3868 -0.3997  0.3511
 1668ntf    fn4 9892   5.112   6.059   5.056 -0.1457  0.1292 -0.2394
 1668ntf    fn4 9893   4.943   6.043   5.192 -0.2003  0.5728  0.2022
 1668ntf    on5 9894   5.133   5.997   5.383 -1.0093  0.6524  0.0927
 1668ntf    on5 9895   5.292   6.133   5.253  0.2594 -0.0237 -0.2133
 1668ntf    on5 9896   4.908   6.137   5.511 -0.1895 -0.0161 -0.0786
 1668ntf    on5 9897   4.932   6.373   5.516  0.0280  0.2108  0.4869
 1668ntf    fn4 9898   5.130   6.359   5.691 -0.4387 -0.0141  0.0606
 1668ntf    fn4 9899   5.029   6.180   5.753  0.3211 -0.4408 -0.3285
 1668ntf    fn4 9900   5.213   6.177   5.648 -0.3067 -0.2570 -0.1782
 1669ntf    cn1 9901   1.898   0.497   0.646 -0.4582 -0.4249  0.2172
 1669ntf    sn2 9902   1.856   0.424   0.485 -0.0533  0.2274 -0.1890
 1669ntf    nn3 9903   1.752   0.523   0.422  0.0351  0.1575 -0.4461
 1669ntf    sn2 9904   1.600   0.538   0.460  0.1650 -0.4946  0.3440
 1669ntf    cn1 9905   1.526   0.410   0.355 -0.0667 -0.0924  0.0173
 1669ntf    fn4 9906   1.793   0.550   0.706 -0.2278 -0.5408  0.7297
 1669ntf    fn4 9907   1.954   0.409   0.728  0.1847 -0.1133  0.1182
 1669ntf    fn4 9908   1.982   0.598   0.633 -0.5428 -0.3298  0.4110
 1669ntf    on5 9909   1.983   0.426   0.416 -0.0206  0.4321 -0.1249
 1669ntf    on5 9910   1.803   0.294   0.517 -0.2128  0.3648  0.1061
 1669ntf    on5 9911   1.537   0.660   0.419  0.4526 -0.2861  0.5199
 1669ntf    on5 9912   1.557   0.491   0.589 -0.0580 -0.5066  0.2656
 1669ntf    fn4 9913   1.546   0.445   0.228  0.0284 -0.2150 -0.0016
 1669ntf    fn4 9914   1.573   0.287   0.369  0.1705 -0.0150 -0.1061
 1669ntf    fn4 9915   1.394   0.402   0.368 -0.0862  0.2496  0.0295
 1670ntf    cn1 9916   3.950   2.918   2.075  0.2656  0.3610  0.3281
 1670ntf    sn2 9917   3.875   3.082   2.052 -0.0732  0.2305  0.5100
 1670ntf    nn3 9918   3.908   3.129   2.198 -0.1467 -0.5319  0.7796
 1670ntf    sn2 9919   4.031   3.210   2.253 -0.1370  0.0373 -0.0653
 1670ntf    cn1 9920   3.980   3.381   2.220 -0.0551  0.1154  0.2156
 1670ntf    fn4 9921   3.947   2.841   1.967  0.2050  0.9315 -0.0830
 1670ntf    fn4 9922   4.074   2.928   2.120  0.2678 -0.1198  0.4358
 1670ntf    fn4 9923   3.890   2.848   2.169 -0.1471  0.1951 -0.0537
 1670ntf    on5 9924   3.954   3.138   1.946  0.5020 -0.0847  0.7665
 1670ntf    on5 9925   3.735   3.058   2.029  0.0810  0.0861 -0.2988
 1670ntf    on5 9926   4.154   3.210   2.177 -0.0270 -0.0284  0.1120
 1670ntf    on5 9927   4.049   3.188   2.394  0.6678  0.3241 -0.1122
 1670ntf    fn4 9928   4.068   3.472   2.261  0.3229 -0.1132 -0.0867
 1670ntf    fn4 9929   3.961   3.406   2.092 -0.2656 -0.1796  0.1891
 1670ntf    fn4 9930   3.864   3.418   2.272 -0.3630 -0.6031  0.0392
 1671ntf    cn1 9931   6.298   0.017   3.259  0.0464  0.1688  0.3725
 1671ntf    sn2 9932   6.232  -0.037   3.420  0.0226 -0.0896  0.2780
 1671ntf    nn3 9933   6.079  -0.003   3.415 -0.0528 -0.5037 -0.3526
 1671ntf    sn2 9934   5.975   0.011   3.532  0.2712  0.2755 -0.1524
 1671ntf    cn1 9935   5.954   0.192   3.539  0.3711  0.2830 -0.0427
 1671ntf    fn4 9936   6.430   0.024   3.249  0.0755 -0.0950  0.5396
 1671ntf    fn4 9937   6.256  -0.053   3.154  0.3530  0.3343  0.1391
 1671ntf    fn4 9938   6.254   0.140   3.242 -0.2075 -0.0415 -0.5283
 1671ntf    on5 9939   6.252  -0.179   3.412  0.6920  0.0361 -0.3699
 1671ntf    on5 9940   6.310   0.038   3.516 -0.3273  0.8822 -0.1777
 1671ntf    on5 9941   6.021  -0.023   3.664 -0.2928  0.1514  0.0182
 1671ntf    on5 9942   5.846  -0.039   3.491  0.0714  0.1255  0.6459
 1671ntf    fn4 9943   5.872   0.237   3.445 -0.3581 -0.3848  0.2653
 1671ntf    fn4 9944   5.912   0.229   3.659 -0.1903 -0.2832 -0.0580
 1671ntf    fn4 9945   6.067   0.259   3.527  0.5747 -0.1697 -0.7132
 1672ntf    cn1 9946   6.539   3.004   3.681  0.1672  0.0357  0.3395
 1672ntf    sn2 9947   6.706   2.934   3.658  0.1499  0.1359 -0.0895
 1672ntf    nn3 9948   6.732   2.966   3.506  0.2646 -0.2166 -0.1435
 1672ntf    sn2 9949   6.810   2.873   3.406 -0.0719 -0.5286 -0.1211
 1672ntf    cn1 9950   6.959   2.969   3.366 -0.2266 -0.1795  0.1326
 1672ntf    fn4 9951   6.535   3.133   3.653 -0.3131 -0.0013  0.2338
 1672ntf    fn4 9952   6.452   2.942   3.604 -0.4496  0.4161  0.7224
 1672ntf    fn4 9953   6.497   2.993   3.806 -0.2485  0.2284  0.2168
 1672ntf    on5 9954   6.790   3.001   3.754  0.1392 -0.1848  0.1469
 1672ntf    on5 9955   6.679   2.795   3.687 -0.1721  0.2484  0.1574
 1672ntf    on5 9956   6.750   2.874   3.275  0.3872  0.1770 -0.3335
 1672ntf    on5 9957   6.861   2.749   3.459 -0.0607 -0.6337 -0.3799
 1672ntf    fn4 9958   7.017   2.997   3.482 -1.0337  0.0755  0.4803
 1672ntf    fn4 9959   7.046   2.909   3.285 -0.0909  0.9510 -0.5866
 1672ntf    fn4 9960   6.929   3.086   3.312  1.0888  0.0694 -0.0867
 1673ntf    cn1 9961   3.372   5.035   3.115 -0.1519 -0.1752 -0.3187
 1673ntf    sn2 9962   3.450   5.027   3.279  0.2584 -0.0564 -0.5052
 1673ntf    nn3 9963   3.331   5.058   3.377  0.1862 -0.6412 -0.4036
 1673ntf    sn2 9964   3.237   4.954   3.448  0.2480 -0.4356 -0.0161
 1673ntf    cn1 9965   3.095   5.066   3.465  0.0313 -0.7167  0.0403
 1673ntf    fn4 9966   3.284   4.939   3.093 -0.0883 -0.3664  0.2593
 1673ntf    fn4 9967   3.325   5.157   3.092  0.2843  0.0723  0.0722
 1673ntf    fn4 9968   3.466   5.023   3.023  0.4219 -0.2230  0.2686
 1673ntf    on5 9969   3.495   4.890   3.284 -0.1084 -0.1683 -0.1555
 1673ntf    on5 9970   3.546   5.134   3.275 -0.1665  0.3690  0.2545
 1673ntf    on5 9971   3.280   4.927   3.583  0.2650  0.2733  0.1233
 1673ntf    on5 9972   3.189   4.850   3.361  0.0702 -0.2308 -0.1630
 1673ntf    fn4 9973   3.130   5.187   3.506  0.2219 -0.5624 -0.5708
 1673ntf    fn4 9974   3.027   5.079   3.353  0.2417 -0.3771 -0.0494
 1673ntf    fn4 9975   3.004   5.024   3.551 -0.5785  0.0937 -0.2017
 1674ntf    cn1 9976   6.277   6.204   3.350  0.0484 -0.1561 -0.1752
 1674ntf    sn2 9977   6.173   6.104   3.461  0.2495 -0.1172  0.0477
 1674ntf    nn3 9978   6.239   5.963   3.443  0.9127  0.1789  0.1127
 1674ntf    sn2 9979   6.225   5.867   3.319 -0.0741 -0.0903  0.4212
 1674ntf    cn1 9980   6.393   5.834   3.257 -0.1897  0.4370 -0.1863
 1674ntf    fn4 9981   6.264   6.155   3.228  0.1603  0.3150 -0.3780
 1674ntf    fn4 9982   6.241   6.332   3.350  0.0508 -0.1532 -0.4552
 1674ntf    fn4 9983   6.403   6.193   3.387  0.2234  0.7297 -0.4882
 1674ntf    on5 9984   6.206   6.157   3.591 -0.0423 -0.1770  0.1465
 1674ntf    on5 9985   6.037   6.114   3.416  0.2098  0.5293  0.3103
 1674ntf    on5 9986   6.173   5.930   3.200  0.2255 -0.3379  0.1587
 1674ntf    on5 9987   6.164   5.740   3.350  0.1322 -0.3428 -0.1922
 1674ntf    fn4 9988   6.472   5.810   3.360 -0.1444  0.5011 -0.2067
 1674ntf    fn4 9989   6.399   5.730   3.174  0.1003  0.6353 -0.4154
 1674ntf    fn4 9990   6.453   5.933   3.194  0.4693  0.0142 -0.2263
 1675ntf    cn1 9991   5.638   0.416   1.368 -0.2430  0.2812  0.1741
 1675ntf    sn2 9992   5.781   0.328   1.299 -0.1560  0.4451  0.1451
 1675ntf    nn3 9993   5.791   0.413   1.168 -0.4593 -0.2169 -0.3099
 1675ntf    sn2 9994   5.893   0.395   1.050 -0.0206  0.1436  0.0099
 1675ntf    cn1 9995   5.987   0.549   1.069  0.3730 -0.1173  0.1819
 1675ntf    fn4 9996   5.532   0.399   1.290 -0.2438  0.2935  0.1732
 1675ntf    fn4 9997   5.607   0.383   1.492  0.4404  0.3669  0.3672
 1675ntf    fn4 9998   5.651   0.547   1.363 -0.1671  0.2661 -0.0174
 1675ntf    on5 9999   5.885   0.357   1.395 -0.0223  0.1430  0.0922
 1675ntf    on510000   5.745   0.190   1.280  0.9345  0.1695 -0.0201
 1675ntf    on510001   5.834   0.397   0.918 -0.0709 -0.1355  0.0266
 1675ntf    on510002   6.000   0.302   1.078 -0.0002  0.1608 -0.0109
 1675ntf    fn410003   6.015   0.575   1.196 -0.0231  0.2048  0.2035
 1675ntf    fn410004   6.102   0.533   1.005  0.1252 -0.3164 -0.2188
 1675ntf    fn410005   5.925   0.652   1.015  0.2326 -0.0627  0.4420
 1676ntf    cn110006   0.059   6.005   1.873  0.1308 -0.1607  0.2928
 1676ntf    sn210007   0.131   5.841   1.905  0.1582 -0.2353 -0.1443
 1676ntf    nn310008   0.009   5.767   1.969 -0.0110  0.1836  0.0238
 1676ntf    sn210009  -0.033   5.617   1.946  0.0994  0.1413  0.0902
 1676ntf    cn110010   0.046   5.521   2.078 -0.4020 -0.1192  0.2057
 1676ntf    fn410011   0.147   6.089   1.821 -0.0527 -0.2428 -0.1503
 1676ntf    fn410012  -0.031   5.997   1.776  0.5440  0.1040 -0.1121
 1676ntf    fn410013   0.005   6.070   1.976 -0.2757 -0.3701  0.2144
 1676ntf    on510014   0.181   5.789   1.781 -0.0032 -0.8025  0.0264
 1676ntf    on510015   0.222   5.865   2.015 -0.1048 -0.1295  0.0517
 1676ntf    on510016   0.007   5.557   1.821 -0.3955  0.1458 -0.0742
 1676ntf    on510017  -0.173   5.603   1.977  0.0728 -0.4542 -0.2931
 1676ntf    fn410018   0.015   5.576   2.194 -0.1135  0.0434  0.2075
 1676ntf    fn410019  -0.003   5.399   2.069 -0.0103 -0.2516 -0.1997
 1676ntf    fn410020   0.178   5.520   2.064 -0.4205 -0.1939  0.0335
 1677ntf    cn110021   1.157   4.208   0.577  0.1486  0.0849  0.2225
 1677ntf    sn210022   1.079   4.050   0.625  0.1287 -0.0328 -0.1973
 1677ntf    nn310023   0.933   4.065   0.568 -0.1887 -0.2734  0.5504
 1677ntf    sn210024   0.828   4.177   0.601 -0.2116 -0.1516  0.0700
 1677ntf    cn110025   0.683   4.069   0.622 -0.3936  0.0794 -0.0059
 1677ntf    fn410026   1.127   4.239   0.452 -0.1696 -0.5291  0.1414
 1677ntf    fn410027   1.118   4.308   0.654  0.5414  0.3122  0.1267
 1677ntf    fn410028   1.289   4.207   0.581  0.1441  0.1216  0.4094
 1677ntf    on510029   1.149   3.952   0.546 -0.1774  0.4533 -1.0841
 1677ntf    on510030   1.094   4.041   0.768 -0.7225  0.5863 -0.0621
 1677ntf    on510031   0.810   4.264   0.488 -0.4652 -0.4997 -0.1594
 1677ntf    on510032   0.845   4.238   0.731  0.1089 -0.6144  0.2526
 1677ntf    fn410033   0.673   4.016   0.742 -0.0171 -0.1929 -0.0945
 1677ntf    fn410034   0.567   4.130   0.599 -0.2798  0.2899 -0.0283
 1677ntf    fn410035   0.692   3.969   0.536  0.2442  0.2857 -0.1839
 1678ntf    cn110036   0.533   1.041   4.508  0.4576 -0.2166  0.0735
 1678ntf    sn210037   0.654   1.128   4.612 -0.0410  0.1939  0.3133
 1678ntf    nn310038   0.681   1.243   4.508 -0.2804 -0.2077 -0.1924
 1678ntf    sn210039   0.628   1.391   4.509  0.2743 -0.0086 -0.0123
 1678ntf    cn110040   0.759   1.497   4.576  0.2070 -0.1746  0.3888
 1678ntf    fn410041   0.417   1.103   4.494  0.4467 -0.1547  0.4258
 1678ntf    fn410042   0.580   1.021   4.386  0.3517  0.1686 -0.0314
 1678ntf    fn410043   0.502   0.918   4.548 -0.0668  0.1240  0.7372
 1678ntf    on510044   0.575   1.162   4.727 -0.8928 -0.3665 -0.1013
 1678ntf    on510045   0.766   1.039   4.629  0.0839  0.4696  0.9715
 1678ntf    on510046   0.514   1.413   4.595 -0.1414 -0.0882 -0.5395
 1678ntf    on510047   0.616   1.435   4.373  0.6913 -0.6693 -0.2664
 1678ntf    fn410048   0.869   1.485   4.503  0.0285  0.2796  0.0392
 1678ntf    fn410049   0.725   1.625   4.577 -0.3299 -0.3171  0.2999
 1678ntf    fn410050   0.790   1.465   4.700  0.0158  0.0316  0.4902
 1679ntf    cn110051   2.520   5.303   3.305  0.2739 -0.2580  0.2311
 1679ntf    sn210052   2.344   5.304   3.261  0.3434 -0.5928 -0.0569
 1679ntf    nn310053   2.363   5.256   3.113  0.6228  0.0798 -0.2437
 1679ntf    sn210054   2.346   5.108   3.062 -0.0084 -0.0240  0.2541
 1679ntf    cn110055   2.178   5.115   2.992  0.0705 -0.0400  0.0615
 1679ntf    fn410056   2.596   5.393   3.244  0.3230 -0.1559  0.4423
 1679ntf    fn410057   2.555   5.322   3.431  0.5449  0.7113  0.0206
 1679ntf    fn410058   2.562   5.184   3.268 -0.2774 -0.5018  0.3807
 1679ntf    on510059   2.282   5.215   3.356 -0.0079 -0.0363  0.2453
 1679ntf    on510060   2.298   5.440   3.273 -0.1893 -0.8081  0.3700
 1679ntf    on510061   2.345   5.001   3.158 -0.3864  0.3638  0.6876
 1679ntf    on510062   2.426   5.087   2.943 -0.2342  0.4667  0.0112
 1679ntf    fn410063   2.155   5.019   2.904 -0.4393 -0.1845  0.3535
 1679ntf    fn410064   2.082   5.104   3.082  0.0977  0.3313  0.1355
 1679ntf    fn410065   2.158   5.231   2.931 -0.1242  0.3245  0.8012
 1680ntf    cn110066   3.927   3.481   5.757  0.0746 -0.3594 -0.0050
 1680ntf    sn210067   3.761   3.551   5.782  0.1918 -0.0545 -0.0867
 1680ntf    nn310068   3.780   3.703   5.745  0.3234 -0.1607 -0.4561
 1680ntf    sn210069   3.719   3.808   5.646 -0.1311 -0.2097 -0.2316
 1680ntf    cn110070   3.581   3.878   5.740  0.0394 -0.0330 -0.1149
 1680ntf    fn410071   4.018   3.541   5.831  0.2914 -0.2427 -0.3630
 1680ntf    fn410072   3.928   3.351   5.782 -0.3982 -0.3760 -0.0542
 1680ntf    fn410073   3.973   3.497   5.634 -0.0255  0.4737  0.0644
 1680ntf    on510074   3.680   3.467   5.698  0.8084 -0.1207 -0.6189
 1680ntf    on510075   3.743   3.522   5.922 -0.0761  0.1271 -0.0815
 1680ntf    on510076   3.654   3.756   5.528 -0.4321  0.4184 -0.3428
 1680ntf    on510077   3.799   3.926   5.624 -0.4605  0.1225  0.3395
 1680ntf    fn410078   3.502   3.950   5.663 -0.1145  0.2341  0.2851
 1680ntf    fn410079   3.510   3.782   5.796  0.2512 -0.0839  0.0672
 1680ntf    fn410080   3.618   3.966   5.833  0.0311 -0.1843  0.0312
 1681ntf    cn110081   0.376   3.753   0.556  0.1661 -0.1722  0.0371
 1681ntf    sn210082   0.215   3.828   0.521  0.1581 -0.2194 -0.0283
 1681ntf    nn310083   0.162   3.732   0.408 -0.5438  0.1659 -0.0328
 1681ntf    sn210084   0.038   3.637   0.396 -0.2432 -0.1795 -0.4241
 1681ntf    cn110085  -0.040   3.751   0.278 -0.1205  0.3525  0.0031
 1681ntf    fn410086   0.361   3.621   0.552  0.6628 -0.2279 -0.0947
 1681ntf    fn410087   0.457   3.794   0.459  0.4139 -0.1774  0.2417
 1681ntf    fn410088   0.435   3.785   0.669 -0.6539 -0.1720  0.4707
 1681ntf    on510089   0.151   3.830   0.650 -0.5846 -0.0670 -0.3907
 1681ntf    on510090   0.261   3.956   0.474  0.7513 -0.3575  0.1758
 1681ntf    on510091  -0.045   3.635   0.514 -0.3268 -0.1459 -0.4820
 1681ntf    on510092   0.071   3.518   0.321  0.3719 -0.1348 -0.2328
 1681ntf    fn410093  -0.167   3.714   0.270 -0.0584  0.0125  0.5356
 1681ntf    fn410094  -0.036   3.875   0.324  0.4275  0.3606 -0.0653
 1681ntf    fn410095   0.019   3.743   0.160  0.0325 -0.1734  0.1121
 1682ntf    cn110096   5.533   6.384   0.543  0.2392 -0.0671 -0.4551
 1682ntf    sn210097   5.546   6.211   0.488  0.3602 -0.2337  0.0952
 1682ntf    nn310098   5.410   6.184   0.415  0.3610 -0.2284  0.0926
 1682ntf    sn210099   5.400   6.080   0.298 -0.2421 -0.1410  0.0600
 1682ntf    cn110100   5.420   6.184   0.150 -0.6118  0.0249  0.1259
 1682ntf    fn410101   5.468   6.406   0.656 -0.0423  0.0885 -0.6450
 1682ntf    fn410102   5.658   6.419   0.571  0.3640 -0.4555 -0.5185
 1682ntf    fn410103   5.480   6.474   0.461 -0.1501 -0.2487 -0.4051
 1682ntf    on510104   5.660   6.226   0.401 -0.0999 -0.0488 -0.4850
 1682ntf    on510105   5.561   6.137   0.611  0.5360  0.2157  0.3508
 1682ntf    on510106   5.269   6.025   0.276 -0.4337  0.4276 -0.2466
 1682ntf    on510107   5.507   5.985   0.280 -0.3760 -0.2174 -0.3420
 1682ntf    fn410108   5.517   6.271   0.171  0.4919 -1.0284 -0.4869
 1682ntf    fn410109   5.449   6.121   0.038  0.2682  0.0916  0.3100
 1682ntf    fn410110   5.311   6.254   0.123 -0.3964  0.2618 -0.1328
 1683ntf    cn110111   3.511   5.147   1.288 -0.3538 -0.1432  0.2298
 1683ntf    sn210112   3.364   5.233   1.350 -0.4035  0.3074 -0.5055
 1683ntf    nn310113   3.253   5.163   1.263  0.1566 -0.5074 -0.5749
 1683ntf    sn210114   3.209   5.203   1.117 -0.2603 -0.2378 -0.3762
 1683ntf    cn110115   3.283   5.071   1.017 -0.1785 -0.3417 -0.1808
 1683ntf    fn410116   3.614   5.171   1.367 -0.1848 -0.4118  0.0939
 1683ntf    fn410117   3.488   5.017   1.292  0.1672 -0.2387  0.2547
 1683ntf    fn410118   3.545   5.177   1.164 -0.0258  0.1722  0.3946
 1683ntf    on510119   3.346   5.195   1.487 -0.2303  0.1101 -0.5387
 1683ntf    on510120   3.376   5.375   1.328  0.2775  0.3978  0.4096
 1683ntf    on510121   3.254   5.326   1.057  0.1141 -0.4961 -0.6287
 1683ntf    on510122   3.066   5.183   1.111 -0.2991 -0.0634 -0.0778
 1683ntf    fn410123   3.220   4.955   1.028  0.1881 -0.4947  0.3128
 1683ntf    fn410124   3.275   5.100   0.888 -0.4896  0.3385 -0.0149
 1683ntf    fn410125   3.411   5.050   1.040 -0.1073 -0.0531 -0.3039
 1684ntf    cn110126   1.278   1.370   1.354 -0.5216  0.0756  0.2936
 1684ntf    sn210127   1.220   1.263   1.219  0.3257 -0.1660  0.1106
 1684ntf    nn310128   1.354   1.184   1.203  0.4361 -0.0381  0.3917
 1684ntf    sn210129   1.407   1.134   1.063  0.0511 -0.2081  0.3059
 1684ntf    cn110130   1.514   1.270   1.006 -0.5088  0.0941 -0.0325
 1684ntf    fn410131   1.199   1.476   1.369 -0.1260  0.3305  0.5943
 1684ntf    fn410132   1.275   1.304   1.468  0.0224  0.0841  0.3155
 1684ntf    fn410133   1.400   1.417   1.333 -0.3843 -0.3896  0.0461
 1684ntf    on510134   1.119   1.179   1.280  0.1045 -0.1730 -0.2600
 1684ntf    on510135   1.185   1.364   1.122  0.0717 -0.3251  0.0349
 1684ntf    on510136   1.303   1.118   0.965  0.2643  0.0196  0.0393
 1684ntf    on510137   1.503   1.027   1.072  0.5688  0.2340  0.0684
 1684ntf    fn410138   1.633   1.273   1.064 -0.1365  0.0450 -0.7849
 1684ntf    fn410139   1.553   1.250   0.881 -0.2367 -0.0027  0.0668
 1684ntf    fn410140   1.462   1.391   1.013 -0.3509  0.1487  0.1823
 1685ntf    cn110141   0.375   2.915   2.759 -0.1744 -0.0116  0.4094
 1685ntf    sn210142   0.523   2.954   2.661 -0.1099 -0.5131  0.3049
 1685ntf    nn310143   0.608   3.005   2.782  0.2186 -0.1170 -0.0919
 1685ntf    sn210144   0.742   3.088   2.781  0.0914  0.0916  0.0249
 1685ntf    cn110145   0.843   3.002   2.905  0.0303 -0.0540 -0.0257
 1685ntf    fn410146   0.391   2.817   2.847  0.1368  0.3777  0.7901
 1685ntf    fn410147   0.329   3.012   2.836 -0.3020  0.1184  0.1725
 1685ntf    fn410148   0.265   2.895   2.689 -0.3793  0.3174  0.6371
 1685ntf    on510149   0.558   2.830   2.594  0.2907 -0.0225 -0.4090
 1685ntf    on510150   0.482   3.064   2.578 -0.2719 -0.4050  0.5281
 1685ntf    on510151   0.733   3.214   2.851  0.3992 -0.3103  0.7984
 1685ntf    on510152   0.819   3.086   2.660 -0.1153 -0.9538 -0.1017
 1685ntf    fn410153   0.790   3.022   3.025  0.0397  0.2777 -0.0752
 1685ntf    fn410154   0.849   2.873   2.878 -0.3748 -0.1026  0.1098
 1685ntf    fn410155   0.967   3.050   2.910  0.0600 -0.1824  0.6471
 1686ntf    cn110156   1.683   1.557   5.736 -0.3236  0.1737 -0.0030
 1686ntf    sn210157   1.729   1.411   5.834 -0.1650  0.2764  0.0753
 1686ntf    nn310158   1.686   1.449   5.980 -0.1829  0.0007  0.1429
 1686ntf    sn210159   1.715   1.365   6.109  0.3537 -0.1499 -0.0730
 1686ntf    cn110160   1.893   1.378   6.143  0.4114  0.0085 -0.4322
 1686ntf    fn410161   1.748   1.582   5.624 -0.0061  0.2023  0.1883
 1686ntf    fn410162   1.558   1.551   5.693 -0.4118  0.1192  0.2611
 1686ntf    fn410163   1.698   1.665   5.810  0.1299  0.2253 -0.1695
 1686ntf    on510164   1.644   1.305   5.783 -0.0361  0.0860  0.2521
 1686ntf    on510165   1.872   1.403   5.815 -0.1638  0.0092  0.1814
 1686ntf    on510166   1.682   1.226   6.091  0.4028 -0.1975  0.2055
 1686ntf    on510167   1.659   1.422   6.229  0.5982  0.0154 -0.0378
 1686ntf    fn410168   1.977   1.330   6.054  0.0302 -0.2567 -0.6491
 1686ntf    fn410169   1.928   1.500   6.181 -0.3503 -0.1816  0.9372
 1686ntf    fn410170   1.908   1.304   6.251  0.2025  0.3835 -0.1402
 1687ntf    cn110171   1.924   2.187   4.223  0.1116 -0.1049 -0.5977
 1687ntf    sn210172   2.040   2.048   4.228  0.0997 -0.0975 -0.1017
 1687ntf    nn310173   2.152   2.112   4.318 -0.5316  0.0962  0.5594
 1687ntf    sn210174   2.267   2.038   4.396 -0.2056 -0.1823 -0.1781
 1687ntf    cn110175   2.384   2.021   4.258  0.4655  0.3704  0.3182
 1687ntf    fn410176   1.863   2.216   4.337  0.0260  0.2109 -0.7218
 1687ntf    fn410177   1.996   2.293   4.189  0.4105 -0.1488 -0.1046
 1687ntf    fn410178   1.829   2.171   4.132 -0.4903 -0.0606  0.0150
 1687ntf    on510179   1.968   1.938   4.287 -0.0401  0.1908  0.2724
 1687ntf    on510180   2.090   2.037   4.093 -0.2858 -0.2689 -0.2302
 1687ntf    on510181   2.239   1.903   4.437  0.5959 -0.3772 -0.2723
 1687ntf    on510182   2.338   2.120   4.490 -0.2480  0.2690 -0.5312
 1687ntf    fn410183   2.392   2.140   4.201 -0.3168  0.3266  0.1049
 1687ntf    fn410184   2.510   1.988   4.285  0.3707 -0.3669 -0.0921
 1687ntf    fn410185   2.345   1.939   4.162  0.7603  0.1337  0.3982
 1688ntf    cn110186   4.197   0.114   4.404  0.2173  0.4183 -0.0561
 1688ntf    sn210187   4.136   0.246   4.296  0.0827  0.3154 -0.1059
 1688ntf    nn310188   4.015   0.309   4.374 -0.1041 -0.0681 -0.0881
 1688ntf    sn210189   4.020   0.436   4.466 -0.3990 -0.0445 -0.1055
 1688ntf    cn110190   3.846   0.481   4.493 -0.3785  0.0926 -0.2070
 1688ntf    fn410191   4.102   0.025   4.424  0.5235  0.2051  0.4863
 1688ntf    fn410192   4.298   0.056   4.342 -0.0638 -0.0257 -0.1039
 1688ntf    fn410193   4.231   0.155   4.526 -0.2437 -0.0671  0.2412
 1688ntf    on510194   4.252   0.325   4.261  0.0977  0.5482  0.4581
 1688ntf    on510195   4.077   0.175   4.185 -0.6390  0.3694  0.2361
 1688ntf    on510196   4.062   0.554   4.396  0.3146 -0.5252 -0.4907
 1688ntf    on510197   4.079   0.406   4.595  0.9480 -0.0260 -0.7073
 1688ntf    fn410198   3.776   0.379   4.540 -0.5026  0.3500  0.1741
 1688ntf    fn410199   3.832   0.584   4.575 -0.5450 -0.1913  0.1244
 1688ntf    fn410200   3.784   0.513   4.380 -0.6202 -0.3581 -0.2018
 1689ntf    cn110201   6.195   2.640   5.294  0.0489  0.0245 -0.2558
 1689ntf    sn210202   6.083   2.662   5.153 -0.3406  0.1307  0.0700
 1689ntf    nn310203   6.038   2.513   5.130  0.1373 -0.0175  0.0849
 1689ntf    sn210204   5.913   2.427   5.170  0.0319  0.1433  0.1037
 1689ntf    cn110205   5.972   2.256   5.187  0.0233  0.1091 -0.2015
 1689ntf    fn410206   6.266   2.530   5.274  0.3548  0.1464  0.1451
 1689ntf    fn410207   6.288   2.733   5.311 -0.0919  0.1235 -0.0358
 1689ntf    fn410208   6.130   2.627   5.408 -0.2096 -0.2439 -0.4339
 1689ntf    on510209   5.978   2.752   5.196 -0.4101 -0.0241  0.2226
 1689ntf    on510210   6.172   2.695   5.045 -0.4929 -1.0068 -0.4253
 1689ntf    on510211   5.820   2.417   5.059  0.7134 -0.1179 -0.4512
 1689ntf    on510212   5.861   2.462   5.300  0.2555  0.3012  0.1508
 1689ntf    fn410213   6.010   2.202   5.072  0.4738 -0.3966  0.1836
 1689ntf    fn410214   6.068   2.238   5.275 -0.7923 -0.0319  0.6773
 1689ntf    fn410215   5.872   2.181   5.233 -0.0119  0.1604 -0.1947
 1690ntf    cn110216   4.734   3.723   4.574  0.0550 -0.0352 -0.3909
 1690ntf    sn210217   4.811   3.888   4.587 -0.3615  0.1363 -0.0690
 1690ntf    nn310218   4.860   3.891   4.736 -0.0910 -0.2280 -0.1487
 1690ntf    sn210219   4.992   3.934   4.809 -0.0726 -0.0809 -0.2702
 1690ntf    cn110220   4.912   4.045   4.929  0.0094 -0.1745 -0.1284
 1690ntf    fn410221   4.727   3.699   4.444  0.0682  0.2223 -0.4406
 1690ntf    fn410222   4.808   3.630   4.631  0.1803  0.2329 -0.1082
 1690ntf    fn410223   4.615   3.722   4.632 -0.0773 -0.2878 -0.6674
 1690ntf    on510224   4.917   3.874   4.491 -0.3839 -0.3792 -0.0213
 1690ntf    on510225   4.708   3.981   4.549 -0.2495 -0.0787 -0.9298
 1690ntf    on510226   5.080   4.015   4.729  0.2294 -0.2274 -0.0884
 1690ntf    on510227   5.061   3.832   4.883  0.0005  0.3010  0.1946
 1690ntf    fn410228   5.009   4.102   4.998  0.1606 -0.5811 -0.0027
 1690ntf    fn410229   4.847   4.149   4.879  0.2154  0.1251  0.2164
 1690ntf    fn410230   4.833   3.982   5.014  0.1145 -0.2229 -0.0670
 1691ntf    cn110231   1.701   6.652   6.674  0.4258 -0.2873  0.6618
 1691ntf    sn210232   1.641   6.550   6.812 -0.2277 -0.3334  0.3495
 1691ntf    nn310233   1.514   6.629   6.862 -0.0684  0.0393  0.1713
 1691ntf    sn210234   1.509   6.748   6.964  0.2194  0.0733  0.1480
 1691ntf    cn110235   1.377   6.704   7.080 -0.0008  0.0194 -0.1204
 1691ntf    fn410236   1.795   6.591   6.604  0.1764 -0.2390  0.2806
 1691ntf    fn410237   1.610   6.685   6.583  1.1716  0.0452  0.0260
 1691ntf    fn410238   1.750   6.771   6.704  0.1961 -0.1134  0.3602
 1691ntf    on510239   1.609   6.425   6.748 -0.2721 -0.1316 -0.0240
 1691ntf    on510240   1.754   6.547   6.901  0.3533 -0.3439 -0.3834
 1691ntf    on510241   1.466   6.868   6.896 -0.1070 -0.0277  0.1763
 1691ntf    on510242   1.620   6.770   7.053  0.3020  0.0592  0.0483
 1691ntf    fn410243   1.388   6.599   7.160 -1.1218 -0.1989 -0.2314
 1691ntf    fn410244   1.358   6.813   7.153  0.8591  0.1816 -0.1314
 1691ntf    fn410245   1.264   6.673   7.018 -0.2875  0.4821  0.1625
 1692ntf    cn110246   1.532   3.920   4.113 -0.0664  0.8056  0.1900
 1692ntf    sn210247   1.375   3.937   4.202 -0.0463 -0.0422  0.3912
 1692ntf    nn310248   1.357   3.804   4.284 -0.3861  0.1136  0.5735
 1692ntf    sn210249   1.445   3.741   4.398 -0.1117  0.2239  0.4241
 1692ntf    cn110250   1.331   3.776   4.536 -0.4813  0.2461  0.1151
 1692ntf    fn410251   1.633   3.916   4.199 -0.1256 -0.3936  0.2130
 1692ntf    fn410252   1.543   3.817   4.032  0.1056  0.7285  0.3102
 1692ntf    fn410253   1.562   4.026   4.040 -0.3622  0.6958 -0.0935
 1692ntf    on510254   1.401   4.052   4.285  0.2284  0.1004  0.1097
 1692ntf    on510255   1.272   3.942   4.101 -0.4694 -0.2122  0.8064
 1692ntf    on510256   1.573   3.801   4.425  0.3017 -0.2907 -0.3724
 1692ntf    on510257   1.444   3.597   4.392  0.2762  0.2407 -0.0749
 1692ntf    fn410258   1.385   3.768   4.656  0.9057  0.2332 -0.4830
 1692ntf    fn410259   1.281   3.898   4.530 -0.0418  0.4367  0.3017
 1692ntf    fn410260   1.232   3.688   4.544 -0.2377 -0.0459 -0.0344
 1693ntf    cn110261   4.336   5.996   3.540  0.0346 -0.1337 -0.0594
 1693ntf    sn210262   4.421   6.092   3.411 -0.1750 -0.0591 -0.1429
 1693ntf    nn310263   4.479   6.206   3.501 -0.6043  0.4579 -0.5150
 1693ntf    sn210264   4.615   6.283   3.483 -0.0965 -0.3360 -0.1222
 1693ntf    cn110265   4.734   6.162   3.549  0.1770  0.0005 -0.0006
 1693ntf    fn410266   4.240   6.060   3.606 -0.1316 -0.3935 -0.0454
 1693ntf    fn410267   4.285   5.884   3.493 -0.1243  0.1063 -0.4619
 1693ntf    fn410268   4.418   5.952   3.634 -0.0631 -0.0071  0.0865
 1693ntf    on510269   4.518   5.997   3.361 -0.2297  0.1793 -0.7086
 1693ntf    on510270   4.314   6.134   3.324 -0.0166  0.3262 -0.1539
 1693ntf    on510271   4.628   6.396   3.570  0.2644 -0.3624 -0.1386
 1693ntf    on510272   4.658   6.293   3.345  0.5018 -0.0033  0.0850
 1693ntf    fn410273   4.848   6.227   3.569  0.1140  0.1095  0.0065
 1693ntf    fn410274   4.694   6.118   3.667  0.1913  0.2224  0.0893
 1693ntf    fn410275   4.778   6.061   3.476 -0.3662 -0.3805  0.1956
 1694ntf    cn110276   5.350   5.180   5.985 -0.2124 -0.3094 -0.0320
 1694ntf    sn210277   5.252   5.062   5.887 -0.0941 -0.1333 -0.3632
 1694ntf    nn310278   5.108   5.064   5.951  0.2697  0.1666  0.4634
 1694ntf    sn210279   4.995   5.167   5.914  0.0063 -0.3226 -0.1160
 1694ntf    cn110280   4.897   5.086   5.785  0.0553 -0.4608 -0.0681
 1694ntf    fn410281   5.355   5.151   6.115  0.1809  0.4205  0.1184
 1694ntf    fn410282   5.477   5.201   5.954  0.0175 -0.2852  0.8867
 1694ntf    fn410283   5.298   5.301   5.982  0.1107 -0.1785 -0.3562
 1694ntf    on510284   5.261   5.115   5.753  0.3209  0.0614 -0.2603
 1694ntf    on510285   5.314   4.935   5.913 -0.2639 -0.1262  0.1040
 1694ntf    on510286   5.039   5.292   5.857  0.1702  0.0177  0.7381
 1694ntf    on510287   4.905   5.184   6.026 -0.4638 -1.0221 -0.3833
 1694ntf    fn410288   4.808   5.166   5.729  0.2931  0.0673  0.3010
 1694ntf    fn410289   4.969   5.042   5.683  0.3619  0.1084 -0.1020
 1694ntf    fn410290   4.834   4.980   5.832 -0.5135 -0.0768  0.0506
 1695ntf    cn110291   6.211   2.469   3.278 -0.1286  0.1155 -0.2489
 1695ntf    sn210292   6.048   2.492   3.200 -0.1093  0.2500 -0.2495
 1695ntf    nn310293   5.955   2.410   3.296  0.1941 -0.3759 -0.4881
 1695ntf    sn210294   5.826   2.334   3.249 -0.1341 -0.2407  0.1750
 1695ntf    cn110295   5.704   2.461   3.296 -0.2116 -0.2359 -0.0370
 1695ntf    fn410296   6.297   2.562   3.241  0.1946 -0.1221 -0.0979
 1695ntf    fn410297   6.200   2.476   3.410 -0.4404 -0.7183 -0.2218
 1695ntf    fn410298   6.260   2.349   3.252  0.2000  0.0920  0.4471
 1695ntf    on510299   6.031   2.635   3.214  0.4932  0.3227 -0.2352
 1695ntf    on510300   6.061   2.442   3.066 -0.5650 -0.2616 -0.1042
 1695ntf    on510301   5.788   2.229   3.340 -0.2940  0.0716  0.4706
 1695ntf    on510302   5.811   2.312   3.107  0.2969  0.2964  0.0420
 1695ntf    fn410303   5.728   2.581   3.247  0.0423 -0.2480  0.0554
 1695ntf    fn410304   5.587   2.419   3.250 -0.3304  0.4037 -0.3273
 1695ntf    fn410305   5.688   2.461   3.427 -0.1038  0.2908 -0.0207
 1696ntf    cn110306   6.204   4.541   0.927  0.5241 -0.0584  0.1837
 1696ntf    sn210307   6.340   4.535   0.806  0.1082 -0.2103 -0.2806
 1696ntf    nn310308   6.313   4.661   0.717  0.0786 -0.1216 -0.1457
 1696ntf    sn210309   6.230   4.675   0.585  0.3585 -0.0211 -0.3102
 1696ntf    cn110310   6.354   4.660   0.452  0.2206 -0.3050 -0.4075
 1696ntf    fn410311   6.083   4.524   0.874  0.3030 -0.6664  0.8758
 1696ntf    fn410312   6.209   4.435   1.005  0.5065 -0.3869 -0.2583
 1696ntf    fn410313   6.200   4.655   0.995  0.0574 -0.2020  0.4021
 1696ntf    on510314   6.461   4.536   0.884  0.1999 -0.0775 -0.4250
 1696ntf    on510315   6.309   4.405   0.752  0.0954 -0.2424 -0.1963
 1696ntf    on510316   6.175   4.807   0.568  0.2007 -0.0722 -0.1865
 1696ntf    on510317   6.137   4.571   0.550  0.2733  0.0452 -0.2800
 1696ntf    fn410318   6.447   4.753   0.468 -0.0700  0.0202 -0.5675
 1696ntf    fn410319   6.416   4.544   0.445  0.3083 -0.2949  0.1457
 1696ntf    fn410320   6.301   4.680   0.333 -0.2922  0.3121 -0.0819
 1697ntf    cn110321   6.165   3.630   0.150 -0.1566 -0.2236  0.4516
 1697ntf    sn210322   6.125   3.457   0.110 -0.0231 -0.1600  0.0429
 1697ntf    nn310323   6.167   3.383   0.241 -0.0580 -0.1075  0.0838
 1697ntf    sn210324   6.107   3.247   0.290 -0.1568 -0.1534 -0.1693
 1697ntf    cn110325   6.177   3.232   0.456 -0.2729  0.1888 -0.0897
 1697ntf    fn410326   6.092   3.678   0.249 -0.2769 -0.2623  0.3819
 1697ntf    fn410327   6.292   3.651   0.180 -0.0760 -0.2686  0.1439
 1697ntf    fn410328   6.139   3.708   0.047  0.1384 -0.0202  0.5312
 1697ntf    on510329   5.984   3.454   0.077  0.0560 -1.2039 -0.2404
 1697ntf    on510330   6.216   3.411   0.008 -0.5700 -0.3036 -0.3865
 1697ntf    on510331   6.170   3.138   0.220  0.0300 -0.2532  0.1553
 1697ntf    on510332   5.964   3.237   0.309 -0.1042 -1.0346 -0.1689
 1697ntf    fn410333   6.122   3.329   0.527  0.2348  0.0895  0.4496
 1697ntf    fn410334   6.151   3.119   0.519 -0.0023 -0.0427 -0.3928
 1697ntf    fn410335   6.307   3.247   0.474 -0.2678 -0.3618  0.3680
 1698ntf    cn110336   5.726   1.870   5.277  0.2653  0.2520 -0.3043
 1698ntf    sn210337   5.548   1.903   5.267  0.1963  0.0177  0.1638
 1698ntf    nn310338   5.477   1.776   5.327  0.2695 -0.2466 -0.3037
 1698ntf    sn210339   5.422   1.761   5.474  0.1015 -0.0406 -0.3441
 1698ntf    cn110340   5.248   1.804   5.446  0.0382 -0.0776  0.0005
 1698ntf    fn410341   5.779   1.874   5.398  0.1213  0.8300 -0.2552
 1698ntf    fn410342   5.760   1.754   5.224 -0.0189 -0.1937  0.4865
 1698ntf    fn410343   5.788   1.962   5.204  0.3691  0.5805  0.1910
 1698ntf    on510344   5.536   2.017   5.356 -0.4764 -0.3962  0.6199
 1698ntf    on510345   5.520   1.928   5.128 -0.1625  0.7213  0.3568
 1698ntf    on510346   5.470   1.848   5.578  0.3777 -0.2147 -0.3250
 1698ntf    on510347   5.425   1.619   5.503  0.3081 -0.0008 -0.1729
 1698ntf    fn410348   5.177   1.804   5.558 -0.1224 -0.3901 -0.0998
 1698ntf    fn410349   5.232   1.918   5.380 -0.0000 -0.3372 -0.4413
 1698ntf    fn410350   5.192   1.717   5.365  0.3283 -0.1673 -0.1020
 1699ntf    cn110351   2.220   0.606   3.756 -0.6492 -0.1539 -0.0932
 1699ntf    sn210352   2.238   0.691   3.597 -0.1574 -0.0799  0.0024
 1699ntf    nn310353   2.122   0.797   3.600 -0.0202  0.0846 -0.3672
 1699ntf    sn210354   2.106   0.940   3.662  0.0530 -0.1722  0.2526
 1699ntf    cn110355   1.955   0.910   3.759  0.1054 -0.2587  0.3078
 1699ntf    fn410356   2.238   0.681   3.864  0.8397 -0.4878 -0.0863
 1699ntf    fn410357   2.097   0.557   3.767 -0.8091  0.2254 -0.1846
 1699ntf    fn410358   2.301   0.503   3.775  0.0970  0.4936  0.2548
 1699ntf    on510359   2.368   0.754   3.603 -0.0011 -0.3226 -0.6948
 1699ntf    on510360   2.226   0.586   3.499  0.0236  0.1520 -0.2705
 1699ntf    on510361   2.070   1.040   3.565 -0.0532 -0.2239  0.2380
 1699ntf    on510362   2.211   0.970   3.756 -0.3222 -0.3752  0.7420
 1699ntf    fn410363   1.910   1.021   3.817 -0.3606  0.1166 -0.7547
 1699ntf    fn410364   1.853   0.878   3.681  0.4088 -0.0742 -0.1667
 1699ntf    fn410365   1.955   0.815   3.851  0.0489  0.0942  0.6769
 1700ntf    cn110366   0.554   2.356   2.326 -0.2460  0.2305 -0.1353
 1700ntf    sn210367   0.709   2.267   2.360 -0.3402  0.1003 -0.0447
 1700ntf    nn310368   0.698   2.142   2.266 -0.0914 -0.0160  0.0813
 1700ntf    sn210369   0.816   2.082   2.181 -0.0667  0.0932  0.0377
 1700ntf    cn110370   0.766   2.122   2.011  0.0266  0.0085 -0.0100
 1700ntf    fn410371   0.573   2.486   2.334  0.3580  0.1326  0.0609
 1700ntf    fn410372   0.497   2.323   2.211 -0.1405 -0.6886  0.0689
 1700ntf    fn410373   0.454   2.332   2.410 -0.2347 -0.5216 -0.3289
 1700ntf    on510374   0.806   2.366   2.320  0.0354 -0.2201  0.0586
 1700ntf    on510375   0.699   2.230   2.499 -0.6497 -0.3432 -0.1842
 1700ntf    on510376   0.816   1.938   2.170 -0.4812  0.1282 -0.4706
 1700ntf    on510377   0.945   2.140   2.209 -0.0792  0.0481  0.1902
 1700ntf    fn410378   0.842   2.065   1.919  0.0539  0.1615 -0.0824
 1700ntf    fn410379   0.642   2.082   1.988  0.1532 -0.5608  0.3000
 1700ntf    fn410380   0.771   2.252   1.984  0.3730  0.1122  0.5412
 1701ntf    cn110381   1.047   2.967   3.708 -0.5127  0.4205 -0.0550
 1701ntf    sn210382   0.883   2.960   3.631 -0.3319 -0.1237 -0.3929
 1701ntf    nn310383   0.902   2.820   3.561 -0.2682 -0.3705  0.1120
 1701ntf    sn210384   0.852   2.776   3.419 -0.3348  0.2167 -0.0517
 1701ntf    cn110385   0.969   2.848   3.301  0.1421  0.2268  0.4250
 1701ntf    fn410386   1.074   3.081   3.771 -0.0054  0.1391  0.2470
 1701ntf    fn410387   1.067   2.874   3.800  0.2840  0.1978 -0.4424
 1701ntf    fn410388   1.135   2.946   3.612 -0.2853 -0.0750  0.2601
 1701ntf    on510389   0.798   2.962   3.748 -0.1409  0.6665 -0.2625
 1701ntf    on510390   0.879   3.075   3.545  0.2029  0.0163 -0.2326
 1701ntf    on510391   0.721   2.823   3.381 -0.1234  0.3096 -0.6797
 1701ntf    on510392   0.865   2.632   3.412 -0.3383  0.2150 -0.0274
 1701ntf    fn410393   0.955   2.979   3.290 -0.1958  0.1642  0.0887
 1701ntf    fn410394   1.097   2.835   3.335  0.3992 -0.0877 -0.6071
 1701ntf    fn410395   0.965   2.794   3.180  0.3177  0.8108  0.1536
 1702ntf    cn110396   5.315   5.937   1.082  0.0692  0.1762 -0.2005
 1702ntf    sn210397   5.245   5.778   1.135 -0.0758  0.2536 -0.1580
 1702ntf    nn310398   5.318   5.673   1.043  0.1614  0.3364 -0.0660
 1702ntf    sn210399   5.261   5.595   0.919 -0.0001 -0.0456  0.2451
 1702ntf    cn110400   5.169   5.467   1.010 -0.0185  0.0253  0.3280
 1702ntf    fn410401   5.318   5.932   0.950 -0.0695 -0.2081 -0.1876
 1702ntf    fn410402   5.246   6.045   1.116 -0.4723 -0.1284 -0.3200
 1702ntf    fn410403   5.441   5.948   1.120  0.0169  0.1693 -0.0218
 1702ntf    on510404   5.301   5.768   1.267 -0.1043  0.3204 -0.1411
 1702ntf    on510405   5.103   5.796   1.117 -0.1421 -0.2640 -0.1805
 1702ntf    on510406   5.366   5.527   0.848  0.4115 -0.0486  0.8415
 1702ntf    on510407   5.155   5.651   0.838  0.5079 -0.0257 -0.4153
 1702ntf    fn410408   5.245   5.397   1.092  0.2935 -0.0279 -0.0027
 1702ntf    fn410409   5.069   5.523   1.076 -0.1441 -0.3010  0.4155
 1702ntf    fn410410   5.112   5.377   0.932  0.0116 -0.1789  0.5423
 1703ntf    cn110411   2.696   0.462   4.032 -0.0143  0.0710 -0.3485
 1703ntf    sn210412   2.716   0.282   4.045  0.0549  0.0812 -0.3148
 1703ntf    nn310413   2.865   0.272   4.095 -0.0666  0.1376  0.0616
 1703ntf    sn210414   2.939   0.175   4.193 -0.3246  0.0958  0.2187
 1703ntf    cn110415   3.061   0.288   4.265  0.1699 -0.1398 -0.2368
 1703ntf    fn410416   2.696   0.524   4.149  0.1599  0.1604 -0.3964
 1703ntf    fn410417   2.796   0.517   3.965  0.4826 -0.4996 -0.0751
 1703ntf    fn410418   2.588   0.492   3.961  0.1304  0.0427 -0.5823
 1703ntf    on510419   2.618   0.244   4.144  0.0448  0.3496 -0.2213
 1703ntf    on510420   2.696   0.243   3.908  0.1178  0.0560 -0.3169
 1703ntf    on510421   3.017   0.078   4.119  0.1947  0.3155  0.4714
 1703ntf    on510422   2.856   0.131   4.302 -0.4208  0.3650  0.2547
 1703ntf    fn410423   3.162   0.233   4.331 -0.1688 -0.1503  0.2833
 1703ntf    fn410424   3.106   0.379   4.180 -0.0496 -0.0323 -0.2373
 1703ntf    fn410425   3.007   0.359   4.363  0.1000 -0.0207 -0.3620
 1704ntf    cn110426   5.860   4.092   1.920 -0.4370  0.0893  0.2519
 1704ntf    sn210427   5.890   4.001   2.075 -0.0994 -0.3512 -0.0708
 1704ntf    nn310428   6.005   4.091   2.133  0.0851 -0.4427 -0.2945
 1704ntf    sn210429   6.088   4.051   2.260  0.1138 -0.1805 -0.2306
 1704ntf    cn110430   6.246   4.023   2.175  0.3855  0.1770  0.1491
 1704ntf    fn410431   5.782   4.024   1.838  0.0759  0.3670 -0.4661
 1704ntf    fn410432   5.801   4.210   1.937  0.0591  0.4058 -0.2005
 1704ntf    fn410433   5.975   4.113   1.859 -0.3631 -0.3058  0.2522
 1704ntf    on510434   5.761   4.015   2.138 -0.2042  0.2708 -0.4135
 1704ntf    on510435   5.926   3.868   2.035  0.3259 -0.1775 -0.2736
 1704ntf    on510436   6.051   3.925   2.318  0.4195 -0.0126  0.3404
 1704ntf    on510437   6.115   4.168   2.340 -0.0359 -0.3263  0.0334
 1704ntf    fn410438   6.282   4.130   2.106 -0.4596  0.4060  0.0476
 1704ntf    fn410439   6.348   4.009   2.258  0.1407 -0.2157  0.3877
 1704ntf    fn410440   6.235   3.924   2.087 -0.1591  0.0836  0.3166
 1705ntf    cn110441   6.742   0.131   1.014 -0.3663 -0.4865  0.2359
 1705ntf    sn210442   6.882   0.057   1.103 -0.1480 -0.2995  0.0500
 1705ntf    nn310443   6.824   0.090   1.246  0.0960  0.1067  0.0562
 1705ntf    sn210444   6.813   0.010   1.380 -0.2898 -0.1000 -0.0977
 1705ntf    cn110445   6.633   0.013   1.403 -0.3382 -0.1374 -0.4685
 1705ntf    fn410446   6.703   0.248   1.062 -0.1449 -0.2531 -0.1457
 1705ntf    fn410447   6.778   0.147   0.888  0.5114  0.5846  0.6077
 1705ntf    fn410448   6.635   0.053   1.011 -0.6900 -0.0298 -0.1900
 1705ntf    on510449   6.869  -0.077   1.051 -0.7924 -0.1461 -0.1974
 1705ntf    on510450   6.999   0.130   1.060 -0.4267  0.4329  0.5132
 1705ntf    on510451   6.865   0.084   1.492 -0.3123  0.1353 -0.2440
 1705ntf    on510452   6.851  -0.130   1.375 -0.5337 -0.1709  0.0383
 1705ntf    fn410453   6.590   0.138   1.395 -0.1062 -0.0537 -0.4192
 1705ntf    fn410454   6.571  -0.058   1.310 -0.1528 -0.6346 -0.2157
 1705ntf    fn410455   6.590  -0.034   1.518  0.0832  0.1934 -0.1709
 1706ntf    cn110456   2.632   1.199   4.409 -0.0815  0.0040 -0.0999
 1706ntf    sn210457   2.665   1.023   4.436 -0.1408 -0.0146 -0.1495
 1706ntf    nn310458   2.589   0.957   4.315  0.1738 -0.5503 -0.0567
 1706ntf    sn210459   2.542   0.807   4.307 -0.3140 -0.3953 -0.0738
 1706ntf    cn110460   2.533   0.785   4.127  0.3953  0.1647 -0.1795
 1706ntf    fn410461   2.506   1.217   4.372 -0.1422 -0.1910  0.0137
 1706ntf    fn410462   2.659   1.276   4.513 -0.4141 -0.7462  0.5475
 1706ntf    fn410463   2.707   1.251   4.312  0.0886 -0.2369 -0.0986
 1706ntf    on510464   2.809   1.025   4.427 -0.1437 -0.0766 -0.2139
 1706ntf    on510465   2.611   1.009   4.569 -0.1684 -0.1727 -0.1763
 1706ntf    on510466   2.405   0.786   4.349 -0.2501  0.0970  0.3937
 1706ntf    on510467   2.647   0.720   4.353 -0.3807 -0.2538  0.3450
 1706ntf    fn410468   2.652   0.768   4.070  0.6322 -0.3302  0.4584
 1706ntf    fn410469   2.464   0.678   4.091  0.3418 -0.0829  0.6538
 1706ntf    fn410470   2.469   0.886   4.071  0.0669  0.4811  0.7502
 1707ntf    cn110471   6.493   5.652   2.354 -0.1893 -0.1604  0.2627
 1707ntf    sn210472   6.466   5.569   2.513 -0.1474  0.2980  0.5103
 1707ntf    nn310473   6.345   5.649   2.574 -0.5724  0.7406 -0.8946
 1707ntf    sn210474   6.349   5.782   2.656  0.0549  0.1242  0.0984
 1707ntf    cn110475   6.389   5.715   2.820 -0.4313 -0.1451  0.1073
 1707ntf    fn410476   6.397   5.619   2.269  0.1491  0.0237 -0.1922
 1707ntf    fn410477   6.500   5.784   2.365  0.6047 -0.1721 -0.0334
 1707ntf    fn410478   6.607   5.625   2.292 -0.3093  0.2174 -0.1342
 1707ntf    on510479   6.435   5.433   2.479  0.4228  0.4279 -0.5687
 1707ntf    on510480   6.591   5.585   2.584  0.3362  1.1556 -0.5144
 1707ntf    on510481   6.223   5.848   2.675 -0.2513 -0.4108 -0.0635
 1707ntf    on510482   6.462   5.866   2.623 -0.0127  0.1417 -0.0950
 1707ntf    fn410483   6.407   5.810   2.910  0.3089 -0.1125 -0.0633
 1707ntf    fn410484   6.291   5.643   2.872 -0.1551 -0.7056 -0.1394
 1707ntf    fn410485   6.494   5.636   2.835 -0.4632 -0.1351  0.3873
 1708ntf    cn110486   6.538   2.467   3.141 -0.5795 -0.4921 -0.0573
 1708ntf    sn210487   6.651   2.353   3.057  0.0846  0.1789 -0.0798
 1708ntf    nn310488   6.700   2.451   2.944 -0.2878  0.1922 -0.2316
 1708ntf    sn210489   6.797   2.421   2.825 -0.0143  0.2859 -0.0350
 1708ntf    cn110490   6.684   2.417   2.682 -0.1581 -0.2085  0.0880
 1708ntf    fn410491   6.459   2.520   3.049  0.1775  0.1297 -0.3538
 1708ntf    fn410492   6.469   2.405   3.236 -0.1740 -0.3837  0.3128
 1708ntf    fn410493   6.602   2.561   3.208 -0.5053 -0.7227  0.1983
 1708ntf    on510494   6.759   2.319   3.146 -0.0238  0.2913  0.0951
 1708ntf    on510495   6.562   2.248   3.016  0.0832  0.1140  0.0935
 1708ntf    on510496   6.858   2.290   2.823 -0.2567  0.1663  0.2924
 1708ntf    on510497   6.893   2.522   2.791  0.3685 -0.1651 -0.3159
 1708ntf    fn410498   6.741   2.462   2.571  0.2234 -0.1905  0.2893
 1708ntf    fn410499   6.638   2.298   2.648  0.1269 -0.1466 -0.5226
 1708ntf    fn410500   6.579   2.493   2.707 -0.1268 -0.0924 -0.1339
 1709ntf    cn110501   2.839   3.420   2.926  0.0018  0.4152 -0.3044
 1709ntf    sn210502   2.760   3.522   3.053 -0.0604 -0.1840  0.1398
 1709ntf    nn310503   2.827   3.464   3.182 -0.3805  0.2130  0.4921
 1709ntf    sn210504   2.777   3.337   3.261 -0.1803 -0.0727  0.1650
 1709ntf    cn110505   2.673   3.419   3.386 -0.2948  0.0170  0.0103
 1709ntf    fn410506   2.846   3.293   2.961 -0.5778  0.4718  0.0362
 1709ntf    fn410507   2.793   3.433   2.802 -0.1942 -0.1192 -0.2899
 1709ntf    fn410508   2.966   3.455   2.915  0.1402 -0.0882 -0.3164
 1709ntf    on510509   2.800   3.656   3.016  0.2827 -0.2609  0.2349
 1709ntf    on510510   2.619   3.493   3.046 -0.1058  0.2058 -0.6949
 1709ntf    on510511   2.886   3.276   3.334  0.1651  0.2369 -0.0852
 1709ntf    on510512   2.693   3.240   3.198  0.0399 -0.2878  0.2012
 1709ntf    fn410513   2.622   3.342   3.481 -0.1478 -0.1931 -0.0810
 1709ntf    fn410514   2.735   3.515   3.452 -0.2651 -0.2752  0.4063
 1709ntf    fn410515   2.576   3.481   3.321  0.0206  0.0454 -0.4369
 1710ntf    cn110516   4.005   0.296   0.512 -0.3262  0.1257 -0.1911
 1710ntf    sn210517   4.068   0.466   0.505  0.3615 -0.1183 -0.0317
 1710ntf    nn310518   4.123   0.476   0.652 -0.1570  0.1709  0.1439
 1710ntf    sn210519   4.042   0.495   0.785 -0.3315 -0.1960  0.0931
 1710ntf    cn110520   4.079   0.670   0.820 -0.1143 -0.2947  0.3604
 1710ntf    fn410521   3.895   0.285   0.439 -0.0097 -0.3818 -0.6097
 1710ntf    fn410522   4.086   0.205   0.459 -0.2848 -0.1674  0.3734
 1710ntf    fn410523   3.973   0.257   0.634 -0.1557  0.7285  0.0498
 1710ntf    on510524   4.176   0.458   0.410  0.5717 -0.0906  0.2042
 1710ntf    on510525   3.954   0.552   0.484  0.2276 -0.2644  0.0939
 1710ntf    on510526   4.102   0.414   0.887  0.0959  0.0970  0.0795
 1710ntf    on510527   3.898   0.490   0.777 -0.3569  0.3067  0.1863
 1710ntf    fn410528   4.209   0.693   0.818 -0.0635 -0.5822  0.2198
 1710ntf    fn410529   4.028   0.754   0.731 -0.2240 -0.8058 -0.0652
 1710ntf    fn410530   4.020   0.710   0.932 -0.9207  0.7312 -0.4110
 1711ntf    cn110531   5.740   5.943   3.990  0.1947  0.1073 -0.0274
 1711ntf    sn210532   5.672   6.099   3.924 -0.2715 -0.0286  0.1232
 1711ntf    nn310533   5.659   6.073   3.770  0.0912 -1.1267  0.2661
 1711ntf    sn210534   5.532   6.024   3.692 -0.0727 -0.2418 -0.0358
 1711ntf    cn110535   5.472   6.180   3.620  0.0100 -0.2052 -0.0241
 1711ntf    fn410536   5.859   5.918   3.937 -0.0633 -0.1988 -0.4746
 1711ntf    fn410537   5.752   5.942   4.121  0.0900 -0.1615 -0.0181
 1711ntf    fn410538   5.667   5.836   3.960  0.3837 -0.2120  0.6546
 1711ntf    on510539   5.542   6.122   3.982 -0.4392  0.5952 -0.4926
 1711ntf    on510540   5.771   6.199   3.957  0.4401 -0.4681 -0.6332
 1711ntf    on510541   5.426   5.968   3.773  0.1405  0.0754  0.4715
 1711ntf    on510542   5.562   5.942   3.578 -0.1682  0.0805 -0.2960
 1711ntf    fn410543   5.535   6.217   3.510 -0.6418 -0.2888 -0.4301
 1711ntf    fn410544   5.343   6.184   3.595  0.0224  0.2608 -0.0167
 1711ntf    fn410545   5.507   6.274   3.706  0.4304 -0.4374  0.0651
 1712ntf    cn110546   1.640   4.415   1.201 -0.2345 -0.3822 -0.2114
 1712ntf    sn210547   1.781   4.494   1.119 -0.2828 -0.0551  0.0173
 1712ntf    nn310548   1.721   4.492   0.974  0.4276  0.1800 -0.2862
 1712ntf    sn210549   1.748   4.397   0.852  0.2250 -0.1593 -0.0682
 1712ntf    cn110550   1.643   4.477   0.727  0.1604 -0.1199  0.0116
 1712ntf    fn410551   1.652   4.416   1.333  0.6785 -0.4063 -0.2904
 1712ntf    fn410552   1.527   4.481   1.181 -0.3363 -0.4680  0.0775
 1712ntf    fn410553   1.613   4.293   1.159  0.0799 -0.4694 -0.1545
 1712ntf    on510554   1.788   4.626   1.177  0.0881  0.1201 -0.4103
 1712ntf    on510555   1.892   4.406   1.144  0.1254  0.4226 -0.0758
 1712ntf    on510556   1.686   4.268   0.868  0.7008 -0.4254 -0.3242
 1712ntf    on510557   1.880   4.397   0.794  0.1347  0.1258 -0.2718
 1712ntf    fn410558   1.524   4.509   0.775  0.2284 -0.1927  0.2306
 1712ntf    fn410559   1.695   4.579   0.661  0.0655 -0.2799 -0.3156
 1712ntf    fn410560   1.620   4.392   0.628 -0.1557 -0.0705  0.0418
 1713ntf    cn110561   0.162   2.373   5.029  0.2884 -0.3198 -0.2186
 1713ntf    sn210562  -0.015   2.399   5.061  0.3021 -0.2085 -0.2330
 1713ntf    nn310563  -0.005   2.479   5.196  0.2250 -0.3570 -0.1394
 1713ntf    sn210564   0.008   2.419   5.341  0.2088  0.1946  0.0906
 1713ntf    cn110565  -0.145   2.464   5.429  0.2469  0.2498  0.1283
 1713ntf    fn410566   0.243   2.473   5.055  0.0478 -0.0109 -0.6393
 1713ntf    fn410567   0.206   2.274   5.105  0.5158  0.0402  0.1159
 1713ntf    fn410568   0.187   2.338   4.904 -0.4729 -0.0595 -0.4513
 1713ntf    on510569  -0.051   2.481   4.948 -0.3530  0.7054  0.6225
 1713ntf    on510570  -0.073   2.267   5.061  0.2211 -0.1731 -0.1839
 1713ntf    on510571   0.109   2.496   5.410  0.4644  0.6524 -0.7788
 1713ntf    on510572   0.006   2.276   5.361  0.6701  0.1161 -0.3984
 1713ntf    fn410573  -0.146   2.593   5.459  0.8588  0.3397 -0.2134
 1713ntf    fn410574  -0.254   2.439   5.359  0.2618  0.2800  0.0935
 1713ntf    fn410575  -0.148   2.392   5.540 -0.4070  0.2124  0.0863
 1714ntf    cn110576   1.555   1.950   2.562 -0.1270  0.4964  0.0998
 1714ntf    sn210577   1.577   2.002   2.389  0.0144 -0.0022 -0.0325
 1714ntf    nn310578   1.682   2.117   2.412  0.1108 -0.0417 -0.2762
 1714ntf    sn210579   1.707   2.238   2.315  0.0040 -0.1348 -0.4214
 1714ntf    cn110580   1.587   2.355   2.386 -0.0165 -0.5490  0.2362
 1714ntf    fn410581   1.511   1.825   2.567  0.1137  0.3961 -0.2972
 1714ntf    fn410582   1.668   1.955   2.630  0.1593  0.3335 -0.3681
 1714ntf    fn410583   1.474   2.036   2.622 -0.2300  0.5336 -0.0912
 1714ntf    on510584   1.627   1.884   2.323 -0.2188  0.2105 -0.5949
 1714ntf    on510585   1.446   2.046   2.349 -0.0926 -0.9154 -0.7184
 1714ntf    on510586   1.673   2.213   2.178 -0.0578  0.0115 -0.4340
 1714ntf    on510587   1.834   2.304   2.337  0.0055 -0.4482  0.5772
 1714ntf    fn410588   1.466   2.340   2.335  0.0157  0.2651 -0.1021
 1714ntf    fn410589   1.580   2.334   2.517  0.5382 -0.2862  0.3134
 1714ntf    fn410590   1.614   2.484   2.369 -0.2576 -0.5188  0.0843
 1715ntf    cn110591   3.411   4.120   5.300 -0.1662 -0.3943  0.2999
 1715ntf    sn210592   3.299   4.103   5.158  0.1425  0.1228 -0.0067
 1715ntf    nn310593   3.405   4.100   5.042 -0.4769  0.0581 -0.5810
 1715ntf    sn210594   3.458   3.982   4.952  0.0876 -0.2754  0.1713
 1715ntf    cn110595   3.311   3.965   4.847  0.1272 -0.0105  0.0724
 1715ntf    fn410596   3.364   4.158   5.418 -0.5173 -0.1978  0.0996
 1715ntf    fn410597   3.484   4.012   5.323  0.0945 -0.1961  0.4031
 1715ntf    fn410598   3.496   4.218   5.274  0.5112 -0.9999  0.2001
 1715ntf    on510599   3.234   3.977   5.183 -0.2270  0.4960  0.9289
 1715ntf    on510600   3.222   4.224   5.154 -0.0684 -0.0227 -0.4150
 1715ntf    on510601   3.491   3.865   5.029  0.1782  0.0124  0.5774
 1715ntf    on510602   3.553   4.027   4.854  0.3415  0.2757  0.6635
 1715ntf    fn410603   3.290   4.072   4.771  0.0977 -0.1159 -0.0683
 1715ntf    fn410604   3.309   3.867   4.758 -0.0134  0.1029 -0.0495
 1715ntf    fn410605   3.200   3.950   4.917 -0.0551 -0.2004 -0.2514
 1716ntf    cn110606   4.206   3.009   6.184  0.0328  0.2659 -0.3181
 1716ntf    sn210607   4.104   3.104   6.068 -0.2078  0.2434 -0.1252
 1716ntf    nn310608   4.167   3.048   5.936 -0.1514  0.3961 -0.1634
 1716ntf    sn210609   4.123   2.927   5.846 -0.5563  0.2843  0.1844
 1716ntf    cn110610   4.138   3.013   5.686 -0.1528  0.0361  0.0884
 1716ntf    fn410611   4.330   3.055   6.192 -0.0867  0.4803  0.2925
 1716ntf    fn410612   4.160   3.003   6.308  0.0694 -0.4359 -0.3343
 1716ntf    fn410613   4.225   2.882   6.149 -0.3153  0.0786  0.1540
 1716ntf    on510614   3.970   3.061   6.100 -0.1810  0.5449  0.4141
 1716ntf    on510615   4.138   3.241   6.100 -0.0384 -0.1016  1.2276
 1716ntf    on510616   3.985   2.886   5.844 -0.3206 -0.5203  0.0989
 1716ntf    on510617   4.219   2.821   5.833 -1.2855 -0.4291  0.5607
 1716ntf    fn410618   4.262   3.047   5.655 -0.0717 -0.2338  0.1152
 1716ntf    fn410619   4.096   2.939   5.585  0.7041 -0.1783 -0.1186
 1716ntf    fn410620   4.067   3.124   5.679 -0.1362  0.0128 -0.4820
 1717ntf    cn110621   5.457   5.688   6.815  0.1198 -0.0977 -0.1126
 1717ntf    sn210622   5.510   5.554   6.704 -0.2032 -0.1513 -0.2040
 1717ntf    nn310623   5.612   5.629   6.611 -0.0619  0.0274  0.0940
 1717ntf    sn210624   5.767   5.651   6.621 -0.0000 -0.2841 -0.1638
 1717ntf    cn110625   5.820   5.491   6.554 -0.0101 -0.4979  0.3327
 1717ntf    fn410626   5.342   5.657   6.873 -0.0434 -0.3692 -0.5740
 1717ntf    fn410627   5.539   5.698   6.918 -0.3636 -0.2007  0.2884
 1717ntf    fn410628   5.444   5.810   6.766  0.1591 -0.1614 -0.2817
 1717ntf    on510629   5.576   5.452   6.781  0.1289  0.0025 -0.2845
 1717ntf    on510630   5.388   5.514   6.638 -0.2697  0.0527 -0.2058
 1717ntf    on510631   5.826   5.655   6.753 -0.4936 -0.3459  0.0613
 1717ntf    on510632   5.813   5.748   6.524 -0.0075  0.1100  0.2210
 1717ntf    fn410633   5.950   5.490   6.529 -0.0358 -0.1750  0.1815
 1717ntf    fn410634   5.804   5.397   6.645 -0.0652 -0.5357  0.2848
 1717ntf    fn410635   5.754   5.459   6.444 -0.2980  0.0065  0.3583
 1718ntf    cn110636   1.507   2.948   5.484  0.4492 -0.2118 -0.0532
 1718ntf    sn210637   1.638   3.046   5.563  0.1273  0.3794 -0.2403
 1718ntf    nn310638   1.566   3.087   5.696  0.1688 -0.5322  0.0717
 1718ntf    sn210639   1.543   3.012   5.832  0.1361  0.1198  0.4328
 1718ntf    cn110640   1.645   3.116   5.941  0.0412  0.3780  0.2731
 1718ntf    fn410641   1.555   2.898   5.371 -0.1687  0.3694 -0.5846
 1718ntf    fn410642   1.450   2.851   5.553 -0.0522  0.4227  0.4346
 1718ntf    fn410643   1.403   3.018   5.442  0.2341 -0.7804 -0.4834
 1718ntf    on510644   1.749   2.955   5.580  0.1262  0.3809 -0.2243
 1718ntf    on510645   1.648   3.159   5.475  0.9442  0.5283  0.0391
 1718ntf    on510646   1.600   2.879   5.833 -0.0757  0.0249 -0.0434
 1718ntf    on510647   1.411   3.035   5.884 -0.1684 -0.0993 -0.2320
 1718ntf    fn410648   1.600   3.241   5.949  0.2512  0.4733  0.0118
 1718ntf    fn410649   1.644   3.065   6.062 -0.1109 -0.2758 -0.0015
 1718ntf    fn410650   1.771   3.120   5.901 -0.1957 -0.1471 -0.5439
 1719ntf    cn110651   2.245   6.796   3.054  0.4088  0.1679  0.1905
 1719ntf    sn210652   2.298   6.864   2.893  0.0169 -0.0353 -0.0252
 1719ntf    nn310653   2.267   6.729   2.818  0.2493 -0.2394  0.2396
 1719ntf    sn210654   2.344   6.677   2.692 -0.1105 -0.1853 -0.0054
 1719ntf    cn110655   2.469   6.567   2.765  0.0850  0.0172 -0.0347
 1719ntf    fn410656   2.156   6.700   3.035 -0.1594  0.6803  0.2210
 1719ntf    fn410657   2.352   6.751   3.117  0.4094 -0.1248 -0.0155
 1719ntf    fn410658   2.194   6.890   3.132 -0.0067  0.0831  0.0255
 1719ntf    on510659   2.215   6.978   2.864  0.1615  0.0087 -0.2624
 1719ntf    on510660   2.436   6.897   2.915 -0.0460  0.2721 -0.0913
 1719ntf    on510661   2.415   6.780   2.620  0.3457 -0.2133  0.3987
 1719ntf    on510662   2.260   6.598   2.606 -0.2960 -0.0481  0.0494
 1719ntf    fn410663   2.530   6.503   2.666  0.1121 -0.1522  0.0928
 1719ntf    fn410664   2.568   6.628   2.829  0.4182 -0.2305 -0.3084
 1719ntf    fn410665   2.421   6.481   2.852  0.7451 -0.4698 -0.1460
 1720ntf    cn110666   0.736   2.132   5.896 -0.3557 -0.0775 -0.1429
 1720ntf    sn210667   0.729   1.964   5.963 -0.1730  0.0497  0.2005
 1720ntf    nn310668   0.606   1.899   5.888 -0.0099 -0.4552  0.3686
 1720ntf    sn210669   0.602   1.855   5.738  0.1372  0.0676  0.2110
 1720ntf    cn110670   0.611   1.677   5.772  0.2265  0.0443  0.0689
 1720ntf    fn410671   0.799   2.220   5.972  0.0944 -0.5567  0.0373
 1720ntf    fn410672   0.793   2.129   5.776  0.4273 -0.8247  0.2391
 1720ntf    fn410673   0.616   2.186   5.878 -0.2358  0.1018 -0.4149
 1720ntf    on510674   0.856   1.906   5.928 -0.4003 -0.1042 -0.4046
 1720ntf    on510675   0.708   1.983   6.104 -0.2758  0.3098  0.1492
 1720ntf    on510676   0.713   1.882   5.650 -0.1518  0.0964 -0.1482
 1720ntf    on510677   0.474   1.871   5.674  0.4775  0.2933 -0.4278
 1720ntf    fn410678   0.720   1.638   5.836  0.2858 -0.5387 -0.3753
 1720ntf    fn410679   0.511   1.639   5.850  0.0027  0.4272 -0.0285
 1720ntf    fn410680   0.604   1.603   5.662  0.2613 -0.1055  0.1674
 1721ntf    cn110681   1.882   0.897   0.883  0.0694 -0.1425  0.0758
 1721ntf    sn210682   1.976   0.957   0.739 -0.0002  0.1012  0.1313
 1721ntf    nn310683   2.120   0.912   0.781  0.0229  0.2513  0.2160
 1721ntf    sn210684   2.258   0.951   0.717 -0.0055 -0.1216 -0.0764
 1721ntf    cn110685   2.269   0.819   0.591  0.1485 -0.0700 -0.1172
 1721ntf    fn410686   1.753   0.923   0.869  0.1449  0.1666 -0.0562
 1721ntf    fn410687   1.905   0.768   0.895 -0.0947 -0.2197 -0.4063
 1721ntf    fn410688   1.924   0.958   0.993 -0.1608  0.2667 -0.0601
 1721ntf    on510689   1.918   0.884   0.629 -0.8845  0.3134  0.4534
 1721ntf    on510690   1.961   1.100   0.751 -0.0844  0.0877  0.1852
 1721ntf    on510691   2.359   0.919   0.815 -0.3991 -0.0956  0.3406
 1721ntf    on510692   2.265   1.068   0.633 -0.1363 -0.4158 -0.5028
 1721ntf    fn410693   2.271   0.705   0.657  0.2540  0.0122  0.0235
 1721ntf    fn410694   2.174   0.809   0.500 -0.1006  0.1643  0.1162
 1721ntf    fn410695   2.379   0.832   0.518 -0.0388  0.0430 -0.3795
 1722ntf    cn110696   5.897   6.133   6.533 -0.1369 -0.0719  0.1025
 1722ntf    sn210697   5.896   6.314   6.557 -0.4017 -0.0615  0.0140
 1722ntf    nn310698   6.014   6.357   6.463  0.0640 -0.5214  0.3765
 1722ntf    sn210699   6.168   6.352   6.489  0.1384 -0.2312  0.0004
 1722ntf    cn110700   6.185   6.520   6.557 -0.2335 -0.1672 -0.0665
 1722ntf    fn410701   5.928   6.101   6.408  0.4718  0.1179  0.1967
 1722ntf    fn410702   5.990   6.073   6.605 -0.0802 -0.2553 -0.1214
 1722ntf    fn410703   5.786   6.074   6.572 -0.3704  0.1434 -0.2304
 1722ntf    on510704   5.765   6.353   6.512 -0.1196  0.7323 -0.1305
 1722ntf    on510705   5.928   6.328   6.697  0.3136 -0.1131 -0.1386
 1722ntf    on510706   6.245   6.359   6.367  0.1752  0.1498  0.0438
 1722ntf    on510707   6.213   6.266   6.596  0.2198 -0.5212 -0.2683
 1722ntf    fn410708   6.310   6.554   6.582 -0.2836 -0.1853  0.2063
 1722ntf    fn410709   6.131   6.607   6.472 -0.1479  0.5486  0.6038
 1722ntf    fn410710   6.119   6.529   6.671  0.4514 -0.7396  0.3790
 1723ntf    cn110711   6.414   0.820   3.086  0.1873  0.0192  0.0840
 1723ntf    sn210712   6.530   0.712   3.176  0.0688  0.0158  0.2328
 1723ntf    nn310713   6.440   0.693   3.303 -0.1325 -0.0968  0.0741
 1723ntf    sn210714   6.434   0.782   3.432 -0.4333 -0.1585  0.1058
 1723ntf    cn110715   6.259   0.773   3.480 -0.4029 -0.0109  0.2452
 1723ntf    fn410716   6.470   0.856   2.972 -0.2795  0.1732 -0.0996
 1723ntf    fn410717   6.307   0.751   3.048  0.1685  0.2409 -0.2612
 1723ntf    fn410718   6.362   0.919   3.156 -0.1697 -0.2114  0.1476
 1723ntf    on510719   6.533   0.595   3.092 -0.4068  0.1677 -0.0015
 1723ntf    on510720   6.649   0.791   3.195 -0.0762  0.2036  0.3670
 1723ntf    on510721   6.445   0.924   3.406 -0.1619 -0.2340 -0.1986
 1723ntf    on510722   6.511   0.724   3.539  0.5034  0.1004 -0.4117
 1723ntf    fn410723   6.182   0.789   3.374 -0.4438  0.1371  0.2974
 1723ntf    fn410724   6.231   0.655   3.534 -0.0428  0.1028  0.6855
 1723ntf    fn410725   6.216   0.866   3.563 -1.0449 -0.0997  0.0178
 1724ntf    cn110726   4.318   5.803   4.327  0.0094 -0.0036  0.1777
 1724ntf    sn210727   4.136   5.809   4.333  0.0142  0.3643  0.0012
 1724ntf    nn310728   4.135   5.958   4.382 -0.1100  0.3375  0.0811
 1724ntf    sn210729   4.135   6.085   4.290  0.2925  0.3484  0.0939
 1724ntf    cn110730   3.962   6.119   4.247  0.3121  0.6263  0.2324
 1724ntf    fn410731   4.376   5.811   4.445  0.2650  0.2214  0.0395
 1724ntf    fn410732   4.375   5.695   4.275 -0.0340  0.2882 -0.4881
 1724ntf    fn410733   4.362   5.911   4.263  0.6174 -0.5992 -0.4263
 1724ntf    on510734   4.088   5.767   4.203 -0.5000  0.2251  0.2345
 1724ntf    on510735   4.109   5.726   4.448  0.2383  0.1853 -0.0726
 1724ntf    on510736   4.183   6.056   4.157 -0.0599  0.1142  0.0178
 1724ntf    on510737   4.182   6.210   4.345  0.3168  0.2444  0.3083
 1724ntf    fn410738   3.916   6.042   4.151  0.0840  0.3988  0.5212
 1724ntf    fn410739   3.875   6.114   4.347 -0.1139 -0.5996 -0.1866
 1724ntf    fn410740   3.944   6.246   4.213 -0.1283  0.5402  0.1377
 1725ntf    cn110741   6.633   1.620   3.580  0.2628  0.3303 -0.3644
 1725ntf    sn210742   6.534   1.710   3.458 -0.1593  0.2796 -0.0630
 1725ntf    nn310743   6.389   1.656   3.486 -0.2963  0.2884 -0.7284
 1725ntf    sn210744   6.282   1.721   3.582  0.1914 -0.0115  0.0225
 1725ntf    cn110745   6.165   1.584   3.606  0.1481 -0.0088 -0.1719
 1725ntf    fn410746   6.754   1.668   3.602  0.4513 -0.2968  0.0198
 1725ntf    fn410747   6.566   1.637   3.693  0.2301 -0.0490 -0.3255
 1725ntf    fn410748   6.641   1.489   3.562  0.1695  0.2567  0.0983
 1725ntf    on510749   6.545   1.849   3.496  0.3226  0.2305 -0.0288
 1725ntf    on510750   6.588   1.676   3.329  0.1887  0.1531  0.1167
 1725ntf    on510751   6.201   1.827   3.528 -0.0113 -0.0255  0.2990
 1725ntf    on510752   6.329   1.748   3.716 -0.5853 -0.2018  0.3392
 1725ntf    fn410753   6.061   1.640   3.666  0.2936  0.3255 -0.2314
 1725ntf    fn410754   6.120   1.541   3.489 -0.1015 -0.5565  0.1217
 1725ntf    fn410755   6.217   1.481   3.671  0.5655  0.3778  0.1170
 1726ntf    cn110756   6.821   2.934   0.954 -0.4088  0.0748 -0.0743
 1726ntf    sn210757   6.656   2.924   0.877 -0.3670  0.0283 -0.1579
 1726ntf    nn310758   6.594   3.066   0.905 -0.0551  0.1969 -0.3225
 1726ntf    sn210759   6.665   3.204   0.885  0.5389 -0.0793 -0.1745
 1726ntf    cn110760   6.544   3.302   0.790  0.1258 -0.2648  0.1579
 1726ntf    fn410761   6.811   2.983   1.077 -0.7394 -0.6114  0.1781
 1726ntf    fn410762   6.886   2.821   0.976 -0.5121  0.0998  0.3744
 1726ntf    fn410763   6.912   3.006   0.892 -0.0619 -0.3085 -0.0115
 1726ntf    on510764   6.672   2.900   0.736  0.0720 -0.1745 -0.0752
 1726ntf    on510765   6.596   2.820   0.958 -0.3106 -0.1198 -0.3045
 1726ntf    on510766   6.777   3.208   0.795  0.7039 -0.5687  0.0094
 1726ntf    on510767   6.667   3.284   1.005 -0.8698 -0.3421  0.0403
 1726ntf    fn410768   6.506   3.239   0.680  0.1992 -0.0564  0.0119
 1726ntf    fn410769   6.432   3.328   0.856  0.0265 -0.2187 -0.0292
 1726ntf    fn410770   6.590   3.418   0.747 -0.3901  0.0684  0.4903
 1727ntf    cn110771   5.082   6.296   6.159 -0.2754  0.0389  0.0668
 1727ntf    sn210772   5.115   6.473   6.135  0.2806 -0.0204  0.3936
 1727ntf    nn310773   5.028   6.507   6.009  0.1901 -0.4036  0.3508
 1727ntf    sn210774   4.891   6.580   5.990  0.3154 -0.1712  0.3337
 1727ntf    cn110775   4.914   6.666   5.831 -0.0342 -0.2168  0.2573
 1727ntf    fn410776   5.133   6.245   6.270 -0.4800 -0.0739  0.1092
 1727ntf    fn410777   4.954   6.263   6.147 -0.1389 -0.5512  0.1891
 1727ntf    fn410778   5.139   6.223   6.064  0.0502  0.0989  0.2170
 1727ntf    on510779   5.084   6.533   6.262  0.2986 -0.2823  0.5235
 1727ntf    on510780   5.254   6.468   6.096  0.0519  0.1094 -0.4616
 1727ntf    on510781   4.872   6.688   6.083  0.1020 -0.0832  0.1896
 1727ntf    on510782   4.784   6.485   5.972  0.0716  0.0572  0.5805
 1727ntf    fn410783   4.981   6.779   5.844 -0.1844 -0.0592 -0.3352
 1727ntf    fn410784   4.982   6.584   5.752  0.0399 -0.4856  0.5945
 1727ntf    fn410785   4.799   6.691   5.770  0.0641 -0.5770 -0.0824
 1728ntf    cn110786   1.445   5.346   3.005  0.0295  0.3122  0.0753
 1728ntf    sn210787   1.351   5.466   3.104  0.1334  0.4130  0.0514
 1728ntf    nn310788   1.474   5.495   3.198  0.6840 -0.1164 -0.4930
 1728ntf    sn210789   1.507   5.621   3.285 -0.3009 -0.1890  0.0021
 1728ntf    cn110790   1.537   5.542   3.446  0.1796  0.0760  0.0443
 1728ntf    fn410791   1.557   5.406   2.966  0.0509  0.1431 -0.1274
 1728ntf    fn410792   1.487   5.249   3.086  0.7444  0.0443 -0.5981
 1728ntf    fn410793   1.375   5.290   2.907  0.4006 -0.0678  0.0222
 1728ntf    on510794   1.317   5.566   3.006  0.3325 -0.0540 -0.5003
 1728ntf    on510795   1.248   5.394   3.173  0.8908 -0.2064  0.5574
 1728ntf    on510796   1.396   5.711   3.306  0.1401  0.4430 -0.3589
 1728ntf    on510797   1.635   5.673   3.245 -0.3109 -0.1750 -0.0121
 1728ntf    fn410798   1.652   5.477   3.446  0.2693  0.2364  0.0725
 1728ntf    fn410799   1.549   5.623   3.549 -0.4072  0.0855  0.1109
 1728ntf    fn410800   1.444   5.449   3.464 -0.2524  0.3224 -0.8538
 1729ntf    cn110801   4.688   3.758   6.289  0.3367 -0.1806 -0.3807
 1729ntf    sn210802   4.519   3.780   6.227  0.2634  0.2046 -0.0460
 1729ntf    nn310803   4.449   3.692   6.337  0.0582  0.6740  0.2013
 1729ntf    sn210804   4.352   3.736   6.452 -0.3727  0.0805  0.0715
 1729ntf    cn110805   4.465   3.815   6.571 -0.2638 -0.3719  0.2701
 1729ntf    fn410806   4.785   3.779   6.202  0.5554  0.6632  0.0588
 1729ntf    fn410807   4.717   3.831   6.395  0.1909  0.1581 -0.5738
 1729ntf    fn410808   4.699   3.630   6.322 -0.4932 -0.1680 -0.0407
 1729ntf    on510809   4.480   3.919   6.225 -0.5136  0.0002  0.2754
 1729ntf    on510810   4.521   3.721   6.096 -0.2424 -0.5604  0.2802
 1729ntf    on510811   4.313   3.626   6.537 -0.1866  0.1036  0.1868
 1729ntf    on510812   4.248   3.833   6.428 -0.6116 -0.3289 -0.5684
 1729ntf    fn410813   4.565   3.733   6.600  0.3737  0.1970 -0.2811
 1729ntf    fn410814   4.519   3.929   6.531 -0.3210 -0.4158  0.0663
 1729ntf    fn410815   4.411   3.851   6.686  0.3258  0.0736  0.4137
 1730ntf    cn110816   1.562   1.328   0.117 -0.2154  0.0479 -0.3021
 1730ntf    sn210817   1.569   1.349   0.298 -0.1803 -0.1583 -0.2791
 1730ntf    nn310818   1.672   1.467   0.309  0.2198 -0.5071 -0.2585
 1730ntf    sn210819   1.827   1.446   0.325  0.2601  0.1215  0.1840
 1730ntf    cn110820   1.873   1.619   0.294  0.5882  0.0035  0.0050
 1730ntf    fn410821   1.670   1.273   0.063 -0.3322 -0.1758 -0.3119
 1730ntf    fn410822   1.464   1.248   0.079 -0.1116 -0.0411 -0.3842
 1730ntf    fn410823   1.553   1.445   0.056  0.4116  0.0845 -0.3377
 1730ntf    on510824   1.435   1.389   0.330 -0.0163 -0.1229  0.3667
 1730ntf    on510825   1.604   1.216   0.343  0.6580  0.0918 -0.1842
 1730ntf    on510826   1.892   1.385   0.212 -0.2229  0.5958 -0.3577
 1730ntf    on510827   1.873   1.425   0.460  0.2875 -0.1385  0.1336
 1730ntf    fn410828   2.002   1.642   0.311  0.4901  0.2235  0.4791
 1730ntf    fn410829   1.846   1.652   0.168  0.2914  0.3539  0.1553
 1730ntf    fn410830   1.804   1.700   0.373  0.1728 -0.5817  0.2519
 1731ntf    cn110831   2.455   6.390   1.726 -0.0611  0.0244 -0.1792
 1731ntf    sn210832   2.494   6.567   1.716 -0.2068  0.0498 -0.3042
 1731ntf    nn310833   2.355   6.637   1.734 -0.2237 -0.0727  0.0497
 1731ntf    sn210834   2.311   6.759   1.822  0.4264  0.2283 -0.0353
 1731ntf    cn110835   2.205   6.675   1.943  0.2244  0.0183 -0.3555
 1731ntf    fn410836   2.381   6.348   1.625 -0.4503  0.4137 -0.0582
 1731ntf    fn410837   2.561   6.310   1.727 -0.0519  0.0390  0.0044
 1731ntf    fn410838   2.387   6.361   1.836 -0.0081 -0.1207 -0.1844
 1731ntf    on510839   2.578   6.585   1.831  0.0780  0.0599 -0.5118
 1731ntf    on510840   2.554   6.578   1.585  0.3352  0.2795 -0.0414
 1731ntf    on510841   2.219   6.841   1.746 -0.1505 -0.2312  0.1643
 1731ntf    on510842   2.405   6.836   1.899  0.3847 -0.0490  0.2966
 1731ntf    fn410843   2.110   6.590   1.908 -0.2148  0.2436  0.2649
 1731ntf    fn410844   2.274   6.599   2.026 -0.1918  0.0406  0.0198
 1731ntf    fn410845   2.142   6.767   2.014 -0.0856 -0.3302 -0.1726
 1732ntf    cn110846   2.346   1.756   4.853 -0.3380 -0.1206  0.5127
 1732ntf    sn210847   2.436   1.603   4.891  0.0062 -0.0714 -0.0854
 1732ntf    nn310848   2.517   1.663   5.011 -0.3395  0.1353  0.0449
 1732ntf    sn210849   2.659   1.623   5.064 -0.3990 -0.4234 -0.2121
 1732ntf    cn110850   2.763   1.763   5.013 -0.0748 -0.5815  0.0155
 1732ntf    fn410851   2.279   1.746   4.739  0.3607 -0.0428  0.0928
 1732ntf    fn410852   2.264   1.787   4.952 -0.6808  0.2686  0.1098
 1732ntf    fn410853   2.424   1.862   4.839 -0.5849  0.0047  0.0622
 1732ntf    on510854   2.333   1.511   4.932  0.1775 -0.5122 -0.6261
 1732ntf    on510855   2.507   1.562   4.772 -0.3365  0.5990 -0.5303
 1732ntf    on510856   2.723   1.516   4.991 -0.0840 -0.2360 -0.2129
 1732ntf    on510857   2.665   1.629   5.208 -0.0056  0.3368 -0.2535
 1732ntf    fn410858   2.886   1.761   5.062 -0.2018 -0.2762  0.3544
 1732ntf    fn410859   2.757   1.781   4.882  0.0695  0.1413  0.1030
 1732ntf    fn410860   2.723   1.879   5.064  1.0388 -0.0286 -0.3192
 1733ntf    cn110861   0.397   5.033   0.493  0.1274 -0.6114  0.0170
 1733ntf    sn210862   0.400   5.075   0.316  0.1605 -0.0756  0.1397
 1733ntf    nn310863   0.352   4.942   0.246 -0.1774  0.1323 -0.0265
 1733ntf    sn210864   0.213   4.909   0.180 -0.2254  0.1919  0.0440
 1733ntf    cn110865   0.262   4.761   0.087  0.0998  0.2086  0.1871
 1733ntf    fn410866   0.471   5.120   0.560  0.0486 -0.5738  0.0552
 1733ntf    fn410867   0.275   5.026   0.544 -0.0378  0.0030 -0.2758
 1733ntf    fn410868   0.457   4.919   0.523  0.1731 -0.5543  0.1431
 1733ntf    on510869   0.311   5.188   0.316  0.4673  0.1660  0.2093
 1733ntf    on510870   0.538   5.093   0.280  0.0631 -0.2142 -0.3187
 1733ntf    on510871   0.174   5.007   0.081 -0.5967 -0.0702 -0.0710
 1733ntf    on510872   0.117   4.864   0.278 -0.3127 -0.5238 -0.3638
 1733ntf    fn410873   0.297   4.794  -0.036  0.1680  0.1504  0.1902
 1733ntf    fn410874   0.366   4.692   0.133 -0.0745  0.0509  0.3505
 1733ntf    fn410875   0.161   4.675   0.087  0.3248 -0.0575  0.2362
 1734ntf    cn110876   2.461   6.697   4.995 -0.4104  0.2195  0.6449
 1734ntf    sn210877   2.592   6.702   5.121  0.0830 -0.0719  0.1449
 1734ntf    nn310878   2.655   6.843   5.094 -0.2971 -0.0121 -0.4482
 1734ntf    sn210879   2.765   6.879   4.988 -0.0131  0.3716 -0.0304
 1734ntf    cn110880   2.844   7.018   5.074 -0.3342  0.2273  0.5025
 1734ntf    fn410881   2.508   6.731   4.876  0.6855 -0.5185  0.8529
 1734ntf    fn410882   2.414   6.574   4.983  0.0699  0.0536  0.4469
 1734ntf    fn410883   2.358   6.775   5.022 -0.7881 -0.2586  0.5935
 1734ntf    on510884   2.527   6.709   5.249  0.5192 -0.0525  0.3670
 1734ntf    on510885   2.675   6.586   5.097  0.1931 -0.0614  0.4667
 1734ntf    on510886   2.706   6.938   4.871  0.2507  0.0673 -0.3216
 1734ntf    on510887   2.877   6.790   4.970  0.3151  0.7088  0.3256
 1734ntf    fn410888   2.950   7.067   5.012 -0.1284 -0.7189  0.0944
 1734ntf    fn410889   2.761   7.121   5.088 -0.3925  0.3356 -0.5586
 1734ntf    fn410890   2.886   6.980   5.193  0.0829 -0.0264  0.2740
 1735ntf    cn110891   1.232   0.549   1.305 -0.1451  0.0594 -0.1604
 1735ntf    sn210892   1.366   0.555   1.181 -0.0181 -0.0378 -0.0274
 1735ntf    nn310893   1.386   0.401   1.158 -0.3207 -0.0732 -0.0558
 1735ntf    sn210894   1.312   0.303   1.060 -0.2598 -0.2870  0.1112
 1735ntf    cn110895   1.305   0.159   1.171 -0.0262 -0.0857  0.3877
 1735ntf    fn410896   1.278   0.471   1.401  0.1893 -0.0539 -0.4100
 1735ntf    fn410897   1.194   0.664   1.358 -0.2103 -0.0661  0.0643
 1735ntf    fn410898   1.122   0.488   1.264 -0.2294  0.0768  0.0381
 1735ntf    on510899   1.295   0.623   1.076 -0.5628 -0.2197  0.2175
 1735ntf    on510900   1.480   0.619   1.241 -0.3626  0.1712  0.4165
 1735ntf    on510901   1.400   0.248   0.959 -0.4492  0.3576 -0.4106
 1735ntf    on510902   1.174   0.323   1.026 -0.0614  0.3628 -0.3373
 1735ntf    fn410903   1.244   0.191   1.284  0.1449  0.4060  0.3455
 1735ntf    fn410904   1.232   0.060   1.123 -0.3222  0.1736  0.3053
 1735ntf    fn410905   1.424   0.111   1.204  0.1065 -0.0647 -0.0509
 1736ntf    cn110906   6.551   5.647   0.557 -0.2555  0.2847  0.5533
 1736ntf    sn210907   6.458   5.568   0.422 -0.0397  0.3923  0.3389
 1736ntf    nn310908   6.409   5.689   0.335 -0.2213 -0.2858 -0.5115
 1736ntf    sn210909   6.461   5.758   0.203  0.1377  0.1119 -0.1656
 1736ntf    cn110910   6.527   5.914   0.269  0.0452  0.1224 -0.0977
 1736ntf    fn410911   6.497   5.761   0.597 -0.1930  0.7944 -0.7671
 1736ntf    fn410912   6.569   5.563   0.657  0.9795 -0.6762 -0.4414
 1736ntf    fn410913   6.673   5.673   0.513 -0.3942 -0.3018 -0.1931
 1736ntf    on510914   6.561   5.486   0.364 -0.2880  0.6367 -0.4481
 1736ntf    on510915   6.348   5.507   0.494 -0.1943  0.1628 -0.0855
 1736ntf    on510916   6.349   5.806   0.126  0.0877  0.6466  0.2321
 1736ntf    on510917   6.571   5.697   0.133 -0.0490  0.1185 -0.4640
 1736ntf    fn410918   6.434   5.982   0.335 -0.0821  0.3442 -0.5009
 1736ntf    fn410919   6.618   5.890   0.361 -0.5248  0.0716  0.4612
 1736ntf    fn410920   6.565   5.995   0.172  0.1792  0.1879  0.0093
 1737ntf    cn110921   4.215   5.690   2.578  0.2996  0.1279 -0.0217
 1737ntf    sn210922   4.322   5.837   2.583  0.3972  0.0575 -0.0187
 1737ntf    nn310923   4.439   5.791   2.676  0.4932  0.4734  0.0647
 1737ntf    sn210924   4.589   5.755   2.643  0.3216 -0.3015  0.1111
 1737ntf    cn110925   4.610   5.618   2.761 -0.1623 -0.3649  0.1280
 1737ntf    fn410926   4.134   5.673   2.682 -0.2591  0.6267 -0.3718
 1737ntf    fn410927   4.139   5.689   2.470  0.2609 -0.1731  0.0061
 1737ntf    fn410928   4.278   5.575   2.561 -0.0392 -0.1437  0.5202
 1737ntf    on510929   4.347   5.863   2.443  0.1970 -0.3558 -0.1341
 1737ntf    on510930   4.237   5.933   2.649  0.1051 -0.0716 -0.2051
 1737ntf    on510931   4.684   5.855   2.686 -0.0193 -0.1943  0.6321
 1737ntf    on510932   4.599   5.689   2.516  0.4879 -0.0688  0.0026
 1737ntf    fn410933   4.736   5.583   2.782  0.0761  0.2433 -0.2350
 1737ntf    fn410934   4.552   5.646   2.876 -0.5677  0.5067 -0.2759
 1737ntf    fn410935   4.548   5.510   2.717 -0.2366  0.0137 -0.7244
 1738ntf    cn110936   0.642   0.661   6.742 -0.1663  0.3297 -0.4407
 1738ntf    sn210937   0.713   0.499   6.700 -0.2101  0.0884  0.4041
 1738ntf    nn310938   0.578   0.437   6.651  0.1918 -0.5535  0.0924
 1738ntf    sn210939   0.565   0.326   6.540 -0.1009 -0.1312 -0.3011
 1738ntf    cn110940   0.514   0.431   6.401 -0.0392  0.0897 -0.1573
 1738ntf    fn410941   0.735   0.738   6.795 -0.5883  0.4864  0.0760
 1738ntf    fn410942   0.603   0.724   6.632 -0.4165  0.5590 -0.2204
 1738ntf    fn410943   0.530   0.659   6.812  0.2094  0.5694  0.1737
 1738ntf    on510944   0.809   0.534   6.598 -0.2986  0.0234  0.2978
 1738ntf    on510945   0.763   0.444   6.824 -0.2644 -0.6845  0.0878
 1738ntf    on510946   0.453   0.240   6.570  0.1331 -0.1742  0.4837
 1738ntf    on510947   0.685   0.263   6.490 -0.0359  0.3824 -0.8006
 1738ntf    fn410948   0.388   0.468   6.416 -0.1715 -0.4626  0.1168
 1738ntf    fn410949   0.594   0.535   6.385 -0.0793  0.0912 -0.3464
 1738ntf    fn410950   0.507   0.362   6.289 -0.3685 -0.0305 -0.0644
 1739ntf    cn110951   5.580   1.626   1.444 -0.1682 -0.0453 -0.0273
 1739ntf    sn210952   5.682   1.629   1.595 -0.1999 -0.4028  0.0027
 1739ntf    nn310953   5.822   1.653   1.527 -0.5795 -0.1264 -0.6928
 1739ntf    sn210954   5.905   1.543   1.453  0.1464 -0.2231  0.2487
 1739ntf    cn110955   6.040   1.531   1.574  0.0761  0.0583  0.3575
 1739ntf    fn410956   5.455   1.597   1.475 -0.3165  0.5251 -0.0725
 1739ntf    fn410957   5.582   1.751   1.400  0.3120 -0.0729 -0.0860
 1739ntf    fn410958   5.626   1.545   1.350 -0.0577  0.1509 -0.1431
 1739ntf    on510959   5.643   1.743   1.674 -0.3229  0.0948 -0.7603
 1739ntf    on510960   5.659   1.502   1.660 -0.2507 -0.2004  0.3835
 1739ntf    on510961   5.960   1.594   1.329 -0.1143  0.1711  0.2950
 1739ntf    on510962   5.844   1.413   1.450 -0.5792  0.1334 -0.9487
 1739ntf    fn410963   6.006   1.494   1.696 -0.3750 -0.3078  0.1240
 1739ntf    fn410964   6.125   1.440   1.527 -0.2645  0.0161 -0.1815
 1739ntf    fn410965   6.105   1.645   1.587  0.1221  0.1260 -0.4267
 1740ntf    cn110966   1.015   5.323   4.413  0.7498 -0.2387 -0.2207
 1740ntf    sn210967   0.965   5.476   4.329  0.3612 -0.3655 -0.2227
 1740ntf    nn310968   0.862   5.430   4.220  0.3355  0.0040 -0.3565
 1740ntf    sn210969   0.784   5.526   4.123 -0.1327  0.1960  0.2109
 1740ntf    cn110970   0.626   5.438   4.143 -0.0030 -0.1673 -0.3548
 1740ntf    fn410971   1.075   5.238   4.332  0.8269 -0.3129 -0.0880
 1740ntf    fn410972   1.113   5.337   4.502  0.3123 -0.3694  0.2840
 1740ntf    fn410973   0.918   5.260   4.477  0.2729  0.1919 -0.5209
 1740ntf    on510974   0.913   5.557   4.436 -0.7445  0.1722 -1.1538
 1740ntf    on510975   1.087   5.528   4.272  0.3273 -0.1668 -0.1127
 1740ntf    on510976   0.808   5.517   3.981 -0.3198  0.0000  0.1899
 1740ntf    on510977   0.744   5.657   4.167 -0.1462  0.3455 -0.2460
 1740ntf    fn410978   0.588   5.436   4.269  0.0328 -0.6042 -0.3480
 1740ntf    fn410979   0.526   5.493   4.075 -0.4382 -0.5938 -0.0727
 1740ntf    fn410980   0.649   5.312   4.107  0.7484 -0.2079  0.2637
 1741ntf    cn110981   1.297   4.189   3.819 -0.1013  0.1667  0.2460
 1741ntf    sn210982   1.358   4.204   3.648 -0.3335  0.1557  0.1619
 1741ntf    nn310983   1.502   4.260   3.677 -0.1227 -0.2288 -0.1342
 1741ntf    sn210984   1.581   4.371   3.598 -0.1654  0.1918  0.4097
 1741ntf    cn110985   1.721   4.266   3.549 -0.4957  0.0653 -0.2792
 1741ntf    fn410986   1.168   4.159   3.822 -0.0077 -0.2027  0.5764
 1741ntf    fn410987   1.363   4.093   3.881 -0.1370 -0.1087 -0.1361
 1741ntf    fn410988   1.309   4.302   3.887 -0.2211  0.4490 -0.1933
 1741ntf    on510989   1.358   4.067   3.602 -0.1687  0.0785  0.3908
 1741ntf    on510990   1.259   4.294   3.593 -0.3468  0.2762  0.3833
 1741ntf    on510991   1.632   4.472   3.687 -0.1258 -0.2358  0.8821
 1741ntf    on510992   1.518   4.407   3.474  0.5509 -0.2267 -0.0845
 1741ntf    fn410993   1.785   4.219   3.655 -0.3408 -0.2570 -0.5115
 1741ntf    fn410994   1.690   4.166   3.469 -0.1826  0.1672 -0.5321
 1741ntf    fn410995   1.810   4.341   3.486  0.7074 -0.8084  0.3289
 1742ntf    cn110996   1.688   0.112   5.848 -0.1297 -0.0181 -0.4358
 1742ntf    sn210997   1.632   0.182   6.007  0.3075  0.1713 -0.3644
 1742ntf    nn310998   1.613   0.333   5.970  0.1969  0.2577  0.0538
 1742ntf    sn210999   1.488   0.392   5.896  0.0695  0.0583  0.1093
 1742ntf    cn111000   1.444   0.527   6.009  0.0934  0.0850  0.0868
 1742ntf    fn411001   1.808   0.146   5.806  0.0498  0.2146  0.2573
 1742ntf    fn411002   1.690  -0.020   5.860  0.0392  0.0029 -0.2146
 1742ntf    fn411003   1.599   0.136   5.754  0.0777  0.1778 -0.5805
 1742ntf    on511004   1.507   0.117   6.038  0.4777 -0.0413 -0.1185
 1742ntf    on511005   1.747   0.164   6.092 -0.2245  0.4846  0.4283
 1742ntf    on511006   1.369   0.312   5.875  0.0150  0.1947 -0.1098
 1742ntf    on511007   1.529   0.465   5.778  0.2672 -0.5231 -0.1866
 1742ntf    fn411008   1.313   0.542   6.022  0.1176  0.3730  0.0034
 1742ntf    fn411009   1.488   0.490   6.128 -0.1531  0.0439  0.1666
 1742ntf    fn411010   1.500   0.645   5.989  0.5574 -0.1273  0.1148
 1743ntf    cn111011   5.534   1.126   3.761  0.6733 -0.0606  0.0398
 1743ntf    sn211012   5.466   1.036   3.618 -0.2504  0.3049  0.2472
 1743ntf    nn311013   5.345   1.126   3.574 -0.2520 -0.1387 -0.6813
 1743ntf    sn211014   5.203   1.132   3.641  0.2015 -0.1676  0.2994
 1743ntf    cn111015   5.215   1.298   3.715  0.3853 -0.0224 -0.0574
 1743ntf    fn411016   5.643   1.061   3.800  0.2506 -0.2574  0.9075
 1743ntf    fn411017   5.557   1.255   3.740 -0.5221  0.1645  0.0577
 1743ntf    fn411018   5.462   1.116   3.871  0.2625 -0.3080 -0.2465
 1743ntf    on511019   5.571   1.060   3.522  0.0240  0.3444  0.5561
 1743ntf    on511020   5.437   0.899   3.654 -0.4442  0.2196 -0.2209
 1743ntf    on511021   5.191   1.051   3.760  0.7666  0.6354  0.9189
 1743ntf    on511022   5.087   1.151   3.557  0.2990  0.2549  0.2559
 1743ntf    fn411023   5.228   1.388   3.618 -0.0754  0.0641 -0.0437
 1743ntf    fn411024   5.102   1.322   3.780  0.1226 -0.1748 -0.4518
 1743ntf    fn411025   5.309   1.330   3.802 -0.2305  0.0420  0.5917
 1744ntf    cn111026   4.948   4.460   5.042 -0.3149  0.3426  0.5370
 1744ntf    sn211027   4.959   4.576   4.902  0.2750 -0.0759  0.2343
 1744ntf    nn311028   5.046   4.690   4.965  0.1454  0.2819 -0.2390
 1744ntf    sn211029   4.994   4.811   5.050 -0.4665 -0.1390 -0.0126
 1744ntf    cn111030   4.930   4.934   4.931  0.0470 -0.0817 -0.2300
 1744ntf    fn411031   4.839   4.384   5.033 -0.1480  0.1262  0.3228
 1744ntf    fn411032   5.054   4.381   5.049 -0.4146  0.1433 -0.1068
 1744ntf    fn411033   4.938   4.523   5.158 -0.0902  0.1563  0.6596
 1744ntf    on511034   5.038   4.498   4.810  0.0677 -0.3031  0.2477
 1744ntf    on511035   4.824   4.613   4.867  0.8523  0.5173 -1.4283
 1744ntf    on511036   5.108   4.875   5.112 -0.7093  0.0558  0.2374
 1744ntf    on511037   4.881   4.785   5.136 -0.4720 -0.0104  0.0194
 1744ntf    fn411038   4.841   4.882   4.849  0.4623 -0.1253 -0.6612
 1744ntf    fn411039   4.879   5.037   4.996  0.6264 -0.2050  0.4429
 1744ntf    fn411040   5.034   4.981   4.865  0.0172  0.1799 -0.0884
 1745ntf    cn111041   1.363   3.933   6.652 -0.1487 -0.5094 -0.0433
 1745ntf    sn211042   1.298   4.023   6.797  0.5111 -0.1217  0.0148
 1745ntf    nn311043   1.386   3.949   6.904 -0.4631 -0.5592  0.5265
 1745ntf    sn211044   1.481   3.998   7.020  0.1200  0.1348 -0.2327
 1745ntf    cn111045   1.361   3.994   7.156  0.3523 -0.2538 -0.0375
 1745ntf    fn411046   1.495   3.943   6.653 -0.1780 -0.0314 -0.4435
 1745ntf    fn411047   1.330   3.805   6.662  0.5825 -0.7157 -0.2296
 1745ntf    fn411048   1.307   3.980   6.542  0.1828  0.5197  0.2153
 1745ntf    on511049   1.327   4.163   6.781 -0.6406  0.0787 -0.3809
 1745ntf    on511050   1.160   3.985   6.805  0.2847  0.6564 -0.1401
 1745ntf    on511051   1.528   4.134   7.009  0.1891  0.0681 -0.8547
 1745ntf    on511052   1.577   3.896   7.054 -0.1192 -0.0598 -0.1348
 1745ntf    fn411053   1.426   4.001   7.272  0.2463 -0.1885  0.0182
 1745ntf    fn411054   1.267   4.085   7.142  0.2588 -0.3728 -0.1787
 1745ntf    fn411055   1.303   3.876   7.164  0.0321 -0.1114 -0.2763
 1746ntf    cn111056   0.659   2.680   1.771  0.4350  0.0487  0.1266
 1746ntf    sn211057   0.565   2.834   1.793 -0.2221 -0.3769  0.3134
 1746ntf    nn311058   0.662   2.923   1.879 -0.2562  0.1909 -0.2304
 1746ntf    sn211059   0.786   3.007   1.833 -0.1446  0.0239 -0.2378
 1746ntf    cn111060   0.714   3.167   1.783 -0.1446  0.1245  0.0858
 1746ntf    fn411061   0.787   2.702   1.747  0.3299 -0.1377 -0.6033
 1746ntf    fn411062   0.664   2.610   1.884 -0.0556 -0.2867 -0.0591
 1746ntf    fn411063   0.611   2.596   1.681  0.1592 -0.1314  0.4392
 1746ntf    on511064   0.536   2.876   1.658 -0.6137 -0.5009  0.3569
 1746ntf    on511065   0.458   2.802   1.884 -0.2175  0.0469  0.4711
 1746ntf    on511066   0.858   2.959   1.718 -0.2208 -0.1625 -0.2068
 1746ntf    on511067   0.875   3.042   1.940  0.4535  0.3329 -0.8258
 1746ntf    fn411068   0.607   3.140   1.711  0.3085 -0.6313 -0.3051
 1746ntf    fn411069   0.682   3.235   1.893 -0.3220 -0.1535  0.2065
 1746ntf    fn411070   0.797   3.244   1.715 -0.3072 -0.1041 -0.3676
 1747ntf    cn111071   2.063   1.880   1.654  0.0470  0.5348  0.4941
 1747ntf    sn211072   1.980   1.986   1.532  0.2259 -0.0802 -0.1719
 1747ntf    nn311073   2.073   2.112   1.528  0.1593 -0.0364 -0.3714
 1747ntf    sn211074   2.181   2.158   1.424 -0.0661 -0.2064 -0.6793
 1747ntf    cn111075   2.300   2.228   1.541 -0.2085 -0.5394 -0.3340
 1747ntf    fn411076   2.174   1.822   1.609 -0.5630 -0.2153 -0.0698
 1747ntf    fn411077   2.097   1.956   1.756  0.0018  0.4113  0.6006
 1747ntf    fn411078   1.980   1.786   1.694  0.1952  0.2776  0.2000
 1747ntf    on511079   1.971   1.904   1.414  0.1801  0.0245 -0.2410
 1747ntf    on511080   1.856   2.009   1.602  0.3558 -0.0625  0.0516
 1747ntf    on511081   2.145   2.274   1.346 -0.5045  0.0144 -0.1503
 1747ntf    on511082   2.271   2.060   1.367 -0.0704 -0.4651 -0.2471
 1747ntf    fn411083   2.236   2.314   1.618  0.5762 -0.0606 -0.2018
 1747ntf    fn411084   2.345   2.137   1.626  0.2316 -0.2526 -0.2543
 1747ntf    fn411085   2.394   2.292   1.474 -0.1189 -0.3115  0.0039
 1748ntf    cn111086   0.659   0.871   2.068  0.3312 -0.0432  0.1917
 1748ntf    sn211087   0.763   0.875   1.919 -0.1033  0.2059 -0.1054
 1748ntf    nn311088   0.829   0.734   1.938 -0.6493 -0.0764 -0.2918
 1748ntf    sn211089   0.865   0.626   1.830 -0.0041 -0.1276 -0.0319
 1748ntf    cn111090   0.707   0.537   1.813 -0.1120  0.1413 -0.4620
 1748ntf    fn411091   0.705   0.796   2.167 -0.0916 -0.6175 -0.0432
 1748ntf    fn411092   0.635   0.990   2.120  0.8226  0.1786 -0.0846
 1748ntf    fn411093   0.543   0.815   2.040  0.2952 -0.0891  0.4279
 1748ntf    on511094   0.681   0.880   1.800  0.1183 -0.2586 -0.2765
 1748ntf    on511095   0.850   0.988   1.938 -0.1962  0.2625 -0.0125
 1748ntf    on511096   0.949   0.526   1.890 -0.5546 -0.6016 -0.0367
 1748ntf    on511097   0.914   0.666   1.700 -0.2293  0.0721 -0.0566
 1748ntf    fn411098   0.646   0.525   1.930  0.9300 -0.2579  0.0459
 1748ntf    fn411099   0.621   0.593   1.729 -0.6711 -0.2517 -0.1576
 1748ntf    fn411100   0.727   0.417   1.762 -0.1287  0.1616 -0.5162
 1749ntf    cn111101   0.705   6.763   0.588 -0.1543  0.4845 -0.1401
 1749ntf    sn211102   0.569   6.875   0.540 -0.1938  0.3241 -0.4047
 1749ntf    nn311103   0.537   6.945   0.677  0.5015 -0.3551  0.1126
 1749ntf    sn211104   0.554   7.097   0.713 -0.1626 -0.2810  0.1171
 1749ntf    cn111105   0.389   7.168   0.682 -0.1910 -0.1923  0.4651
 1749ntf    fn411106   0.663   6.653   0.649  0.1923  0.3206 -0.1956
 1749ntf    fn411107   0.774   6.724   0.482 -0.2186 -0.4976  0.1689
 1749ntf    fn411108   0.788   6.822   0.672  0.1688  0.2708 -0.3090
 1749ntf    on511109   0.623   6.958   0.435  0.1093  0.3911 -0.1964
 1749ntf    on511110   0.470   6.776   0.507  0.1690 -0.0849 -0.2847
 1749ntf    on511111   0.638   7.185   0.636  0.1889 -0.2743  0.5057
 1749ntf    on511112   0.563   7.107   0.857 -0.5380 -0.4393  0.1536
 1749ntf    fn411113   0.337   7.129   0.567  0.8516 -0.3902  0.0453
 1749ntf    fn411114   0.307   7.126   0.777 -0.4878 -0.0749  0.2587
 1749ntf    fn411115   0.387   7.299   0.694 -0.0280 -0.1050 -0.3886
 1750ntf    cn111116   1.163   0.965   2.314  0.2842 -0.2627 -0.0196
 1750ntf    sn211117   1.122   1.066   2.459  0.1392  0.1541 -0.3482
 1750ntf    nn311118   1.115   0.950   2.565 -0.0839  0.0576 -0.4687
 1750ntf    sn211119   0.992   0.876   2.628  0.3892 -0.3746 -0.0489
 1750ntf    cn111120   1.044   0.880   2.802 -0.2569 -0.3868  0.1473
 1750ntf    fn411121   1.134   1.023   2.199 -0.2947  0.2568  0.3852
 1750ntf    fn411122   1.293   0.943   2.319  0.2639 -0.3802  0.0014
 1750ntf    fn411123   1.107   0.846   2.303  0.0954 -0.1747 -0.0144
 1750ntf    on511124   1.236   1.153   2.474  0.2868 -0.1478  0.3249
 1750ntf    on511125   0.998   1.128   2.419 -0.0287  0.2171  0.2598
 1750ntf    on511126   0.992   0.738   2.586 -0.3590 -0.1378 -0.8718
 1750ntf    on511127   0.867   0.948   2.623  0.4008 -0.3491  0.0304
 1750ntf    fn411128   0.952   0.848   2.892 -0.5234 -0.1517 -0.0386
 1750ntf    fn411129   1.138   0.787   2.812 -0.1886 -0.3196  0.1280
 1750ntf    fn411130   1.100   0.989   2.853 -0.3229 -0.3446  0.1302
 1751ntf    cn111131   0.842   3.501   3.805  0.1046 -0.4660  0.2279
 1751ntf    sn211132   0.737   3.600   3.915 -0.0311 -0.0192 -0.3023
 1751ntf    nn311133   0.769   3.741   3.854  0.2988  0.1249  0.1989
 1751ntf    sn211134   0.680   3.869   3.868  0.3492  0.1840 -0.0088
 1751ntf    cn111135   0.570   3.861   3.723 -0.0068  0.0787  0.2635
 1751ntf    fn411136   0.827   3.371   3.822 -1.1778 -0.3600 -0.0591
 1751ntf    fn411137   0.824   3.537   3.679 -0.1522 -0.4243  0.2768
 1751ntf    fn411138   0.969   3.530   3.833  0.1070 -0.1201 -0.1341
 1751ntf    on511139   0.605   3.548   3.884  0.0111 -0.2105 -0.1599
 1751ntf    on511140   0.788   3.568   4.045  0.0181  0.5838 -0.1709
 1751ntf    on511141   0.751   3.993   3.848  0.0550  0.3827  0.1579
 1751ntf    on511142   0.594   3.858   3.984  0.0690  0.0984 -0.2230
 1751ntf    fn411143   0.511   3.745   3.705 -0.1477  0.2293 -0.2628
 1751ntf    fn411144   0.483   3.961   3.719 -0.4236 -0.2909  0.1047
 1751ntf    fn411145   0.640   3.888   3.614 -0.0390  0.3434  0.3062
 1752ntf    cn111146   4.519   6.111   1.780 -0.0936  0.2168 -0.0165
 1752ntf    sn211147   4.468   6.182   1.940  0.0351 -0.1294  0.1817
 1752ntf    nn311148   4.371   6.291   1.881  0.2759  0.3737  0.7060
 1752ntf    sn211149   4.386   6.447   1.875 -0.0550  0.3877  0.1485
 1752ntf    cn111150   4.314   6.493   2.036 -0.2488 -0.0060  0.1749
 1752ntf    fn411151   4.607   6.012   1.788 -0.1942  0.1635  0.5214
 1752ntf    fn411152   4.421   6.076   1.699  0.1139  0.1983 -0.2631
 1752ntf    fn411153   4.600   6.190   1.711 -0.1829 -0.0296 -0.4071
 1752ntf    on511154   4.391   6.083   2.010 -0.1325 -0.1812 -0.0720
 1752ntf    on511155   4.591   6.230   1.999  0.2047 -0.2852 -0.0409
 1752ntf    on511156   4.297   6.498   1.774  0.3377 -0.0101 -0.4000
 1752ntf    on511157   4.524   6.487   1.877 -0.0425  0.3416  0.1942
 1752ntf    fn411158   4.366   6.417   2.132  0.4006 -0.1065 -0.2530
 1752ntf    fn411159   4.330   6.619   2.073  0.3209 -0.0034 -0.0630
 1752ntf    fn411160   4.184   6.469   2.038 -0.2643  0.0422 -0.2035
 1753ntf    cn111161   5.084   2.593   4.747  0.2193 -0.1688  0.1185
 1753ntf    sn211162   5.223   2.502   4.672  0.3567  0.0871  0.0626
 1753ntf    nn311163   5.216   2.355   4.727  0.1308  0.0010 -0.1963
 1753ntf    sn211164   5.160   2.232   4.647 -0.1789  0.0907 -0.1209
 1753ntf    cn111165   5.293   2.180   4.534 -0.1913  0.3123 -0.2384
 1753ntf    fn411166   4.969   2.555   4.694  0.4438 -0.5974 -0.0648
 1753ntf    fn411167   5.083   2.575   4.878 -0.2953 -0.2908  0.0999
 1753ntf    fn411168   5.097   2.722   4.723 -0.6106 -0.1759 -0.4054
 1753ntf    on511169   5.194   2.521   4.532 -0.3334 -0.5580  0.1113
 1753ntf    on511170   5.337   2.571   4.728  0.3663 -0.0029  0.1549
 1753ntf    on511171   5.045   2.257   4.563 -0.3320 -0.3449 -0.0410
 1753ntf    on511172   5.149   2.111   4.723  0.1358 -0.0049 -0.2237
 1753ntf    fn411173   5.306   2.268   4.436 -0.3386  0.9757  0.3282
 1753ntf    fn411174   5.414   2.177   4.589 -0.0794 -0.2790 -0.5111
 1753ntf    fn411175   5.280   2.059   4.484  0.1095  0.1252  0.1325
 1754ntf    cn111176   2.180   5.797   1.541  0.1085 -0.1750 -0.2470
 1754ntf    sn211177   2.092   5.778   1.383 -0.0338 -0.0331 -0.1844
 1754ntf    nn311178   2.120   5.627   1.352  0.0727  0.0361 -0.4294
 1754ntf    sn211179   2.127   5.555   1.213  0.1149 -0.4897 -0.1578
 1754ntf    cn111180   1.958   5.572   1.149  0.0834  0.1177  0.0819
 1754ntf    fn411181   2.133   5.714   1.632  0.4054  0.3797  0.4194
 1754ntf    fn411182   2.310   5.773   1.527  0.1301  0.1317 -0.6074
 1754ntf    fn411183   2.170   5.918   1.593  0.0150 -0.2102 -0.1858
 1754ntf    on511184   1.955   5.799   1.424  0.0816 -0.1676  0.2718
 1754ntf    on511185   2.155   5.879   1.302  0.2958 -0.1455 -0.0712
 1754ntf    on511186   2.139   5.413   1.238 -0.6084 -0.4568  0.4162
 1754ntf    on511187   2.226   5.610   1.124  0.3749 -0.1346  0.3485
 1754ntf    fn411188   1.920   5.695   1.117 -0.2282  0.0279  0.0955
 1754ntf    fn411189   1.955   5.497   1.040  0.4047 -0.6333  0.5832
 1754ntf    fn411190   1.867   5.521   1.231 -0.5478  0.5065 -0.3624
 1755ntf    cn111191   6.195   4.650   4.697  0.4678  0.0792  0.3107
 1755ntf    sn211192   6.051   4.575   4.617  0.4605 -0.0508  0.4444
 1755ntf    nn311193   5.967   4.708   4.622  0.0447 -0.3155  0.5584
 1755ntf    sn211194   5.821   4.740   4.670 -0.0429 -0.0129  0.0959
 1755ntf    cn111195   5.859   4.809   4.834 -0.0605 -0.3297  0.2340
 1755ntf    fn411196   6.289   4.558   4.710  0.1253 -0.3644 -0.3133
 1755ntf    fn411197   6.242   4.759   4.638  0.4654 -0.5242 -0.8212
 1755ntf    fn411198   6.171   4.688   4.822 -0.0288 -0.2479  0.3147
 1755ntf    on511199   6.101   4.539   4.486  0.1092  0.1074  0.2645
 1755ntf    on511200   6.007   4.465   4.699  0.7773 -0.6965 -0.2453
 1755ntf    on511201   5.747   4.618   4.694  0.4880 -0.3217  0.1973
 1755ntf    on511202   5.752   4.839   4.592 -0.0093 -0.1088 -0.0571
 1755ntf    fn411203   5.753   4.852   4.900  0.1456  0.0637  0.3105
 1755ntf    fn411204   5.925   4.723   4.911  0.8356 -0.1027 -0.2699
 1755ntf    fn411205   5.940   4.912   4.819 -0.1322 -0.3352 -0.2101
 1756ntf    cn111206   5.332   2.896   0.220  0.1410  0.0349  0.0444
 1756ntf    sn211207   5.263   2.918   0.054 -0.2685 -0.0178  0.2059
 1756ntf    nn311208   5.179   2.789   0.022  0.3550 -0.2151 -0.6818
 1756ntf    sn211209   5.024   2.769   0.038  0.3224  0.1969 -0.4635
 1756ntf    cn111210   4.965   2.803  -0.130 -0.1914 -0.0882 -0.3432
 1756ntf    fn411211   5.422   2.987   0.255 -0.1373  0.1575  0.4530
 1756ntf    fn411212   5.239   2.895   0.314  0.2997  0.2092  0.2037
 1756ntf    fn411213   5.393   2.778   0.226 -0.3202 -0.1987  0.1950
 1756ntf    on511214   5.187   3.040   0.067 -0.3883 -0.0723  0.0290
 1756ntf    on511215   5.382   2.926  -0.027 -0.2520  0.4207  0.2725
 1756ntf    on511216   4.956   2.864   0.123 -0.1334 -0.0214 -0.5843
 1756ntf    on511217   4.981   2.632   0.051  0.2023  0.2761  0.0081
 1756ntf    fn411218   4.835   2.809  -0.152 -0.2240  0.3648 -0.0542
 1756ntf    fn411219   5.011   2.920  -0.172  0.3547 -0.3938 -0.6032
 1756ntf    fn411220   5.021   2.709  -0.205  0.6795  0.2885 -0.1814
 1757ntf    cn111221   4.516   4.896   5.907  0.2052 -0.3870  0.3170
 1757ntf    sn211222   4.395   4.774   5.847  0.0269 -0.0387 -0.0307
 1757ntf    nn311223   4.422   4.671   5.962 -0.6017 -0.2355 -0.0522
 1757ntf    sn211224   4.347   4.647   6.097 -0.1200  0.4627  0.3496
 1757ntf    cn111225   4.340   4.467   6.071  0.1232  0.4869  0.1202
 1757ntf    fn411226   4.552   4.981   5.812  0.2586 -0.5045  0.2297
 1757ntf    fn411227   4.468   4.970   6.005  0.5487  0.6292 -0.2717
 1757ntf    fn411228   4.630   4.840   5.945  0.3030 -0.0835  0.4773
 1757ntf    on511229   4.267   4.840   5.856  0.4117  0.6762  0.2809
 1757ntf    on511230   4.441   4.728   5.718  0.0728 -0.9542  0.3064
 1757ntf    on511231   4.209   4.689   6.109 -0.1343  0.3939  0.4252
 1757ntf    on511232   4.434   4.670   6.209  0.7114  0.1918 -0.2335
 1757ntf    fn411233   4.322   4.397   6.182  0.4971  0.3735  0.1140
 1757ntf    fn411234   4.240   4.434   5.991 -0.1876  0.7338  0.4052
 1757ntf    fn411235   4.447   4.412   6.016  0.0131  0.3294  0.0645
 1758ntf    cn111236   4.660   0.379   5.713  0.1195  0.1305  0.0547
 1758ntf    sn211237   4.764   0.265   5.809  0.3316  0.2021 -0.0877
 1758ntf    nn311238   4.906   0.296   5.749  0.0329  0.2674 -0.7709
 1758ntf    sn211239   5.023   0.375   5.817 -0.0505 -0.1245 -0.1581
 1758ntf    cn111240   5.147   0.361   5.685  0.2691 -0.0298  0.1290
 1758ntf    fn411241   4.698   0.506   5.709 -0.5234  0.3223 -0.0244
 1758ntf    fn411242   4.644   0.345   5.586  0.2556 -0.0703  0.0907
 1758ntf    fn411243   4.539   0.394   5.764  0.1224  0.0611  0.0809
 1758ntf    on511244   4.725   0.312   5.940  0.3961  0.0652 -0.0192
 1758ntf    on511245   4.720   0.133   5.771 -0.1740  0.3322  0.0378
 1758ntf    on511246   5.081   0.309   5.931 -0.4985 -0.7370 -0.2837
 1758ntf    on511247   4.996   0.516   5.832  0.0264 -0.0941 -0.3031
 1758ntf    fn411248   5.170   0.234   5.656 -0.1867 -0.0497 -0.1471
 1758ntf    fn411249   5.095   0.414   5.575 -0.2608 -0.4331  0.1778
 1758ntf    fn411250   5.259   0.426   5.709  0.1436  0.3206 -0.2214
 1759ntf    cn111251   6.793   6.362   0.703 -0.1549  0.0547 -0.3625
 1759ntf    sn211252   6.799   6.312   0.528 -0.0135 -0.1011 -0.3132
 1759ntf    nn311253   6.783   6.446   0.448  0.5522  0.1110 -0.0789
 1759ntf    sn211254   6.651   6.518   0.403  0.5607  0.0190 -0.2518
 1759ntf    cn111255   6.642   6.477   0.226 -0.4169 -0.0039 -0.1994
 1759ntf    fn411256   6.886   6.451   0.735 -0.1945 -0.0553  0.0553
 1759ntf    fn411257   6.678   6.420   0.734 -0.0898  0.0251 -0.0603
 1759ntf    fn411258   6.813   6.258   0.782  0.2418  0.2791 -0.1612
 1759ntf    on511259   6.934   6.263   0.511 -0.1509 -0.3641 -0.6446
 1759ntf    on511260   6.702   6.207   0.518  0.1872 -0.2352 -0.8631
 1759ntf    on511261   6.679   6.660   0.401  0.3538  0.0586 -0.2995
 1759ntf    on511262   6.527   6.479   0.466  1.0289  0.0129  0.6920
 1759ntf    fn411263   6.761   6.498   0.173 -0.4237 -0.3990 -0.3731
 1759ntf    fn411264   6.620   6.347   0.216  0.5404 -0.1469 -0.5044
 1759ntf    fn411265   6.549   6.530   0.149 -0.5005 -0.1128 -0.1745
 1760ntf    cn111266   3.371   2.534   0.083  0.1416  0.3581  0.2910
 1760ntf    sn211267   3.461   2.496   0.236  0.0389 -0.0345  0.2532
 1760ntf    nn311268   3.369   2.380   0.289 -0.2578  0.0097 -0.1601
 1760ntf    sn211269   3.408   2.229   0.302 -0.0423  0.0790  0.0018
 1760ntf    cn111270   3.370   2.170   0.134 -0.0875  0.0210  0.0322
 1760ntf    fn411271   3.394   2.441  -0.009  0.4787  0.6214  0.1014
 1760ntf    fn411272   3.240   2.549   0.096 -0.0029 -0.3301 -0.3225
 1760ntf    fn411273   3.405   2.649   0.026 -0.0651  0.2326 -0.0862
 1760ntf    on511274   3.592   2.459   0.189 -0.0044  0.2479 -0.0957
 1760ntf    on511275   3.447   2.619   0.309 -0.3851  0.1589 -0.1483
 1760ntf    on511276   3.312   2.160   0.385 -0.0653  0.3123  0.1706
 1760ntf    on511277   3.545   2.191   0.325 -0.1887 -0.1251  0.5540
 1760ntf    fn411278   3.249   2.212   0.101  0.1696  0.6456 -0.1409
 1760ntf    fn411279   3.456   2.217   0.046 -0.0972  0.4789  0.2642
 1760ntf    fn411280   3.368   2.038   0.125 -0.2086  0.0207  0.0641
 1761ntf    cn111281   3.605   4.404   2.310  0.1596  0.2088 -0.1922
 1761ntf    sn211282   3.595   4.339   2.480 -0.1560  0.0520 -0.2681
 1761ntf    nn311283   3.606   4.471   2.564  0.4615 -0.3670  0.3192
 1761ntf    sn211284   3.684   4.505   2.696  0.0653  0.1396  0.4267
 1761ntf    cn111285   3.584   4.643   2.760 -0.2058 -0.0009  0.3057
 1761ntf    fn411286   3.701   4.495   2.303  0.3045  0.0825  0.1247
 1761ntf    fn411287   3.625   4.309   2.221  0.0128  0.0263 -0.0318
 1761ntf    fn411288   3.494   4.463   2.267 -0.1133 -0.0326  0.1717
 1761ntf    on511289   3.464   4.280   2.487 -0.3654  0.5546  0.1666
 1761ntf    on511290   3.710   4.252   2.485  0.1535  0.4629 -0.1530
 1761ntf    on511291   3.807   4.578   2.679  0.1157  0.0048  0.2019
 1761ntf    on511292   3.686   4.409   2.804  0.2304 -0.1387  0.1768
 1761ntf    fn411293   3.647   4.711   2.854  0.3322  0.2799 -0.2518
 1761ntf    fn411294   3.558   4.729   2.663  0.3776 -0.6152 -0.4059
 1761ntf    fn411295   3.471   4.602   2.814 -0.4956  0.5864  0.1574
 1762ntf    cn111296   6.596   0.374   6.157  0.0256  0.0517  0.1187
 1762ntf    sn211297   6.438   0.334   6.078  0.1333 -0.0592 -0.0429
 1762ntf    nn311298   6.485   0.225   5.975  0.2551  0.0201 -0.0697
 1762ntf    sn211299   6.504   0.072   6.005 -0.2223 -0.0509 -0.1248
 1762ntf    cn111300   6.620   0.030   5.871  0.1863  0.3851  0.0904
 1762ntf    fn411301   6.632   0.285   6.248 -0.4427 -0.1937  0.0618
 1762ntf    fn411302   6.703   0.393   6.081 -0.1860  0.0230 -0.1861
 1762ntf    fn411303   6.588   0.487   6.226 -0.4408 -0.0275  0.1931
 1762ntf    on511304   6.366   0.285   6.193 -0.1250  0.0058 -0.1759
 1762ntf    on511305   6.407   0.460   6.015 -0.3031 -0.1152  0.0509
 1762ntf    on511306   6.388  -0.011   5.985 -0.2179 -0.0982  0.0458
 1762ntf    on511307   6.580   0.038   6.122  0.2518  0.9196 -0.1443
 1762ntf    fn411308   6.707   0.126   5.843  0.1504  0.4472  0.1892
 1762ntf    fn411309   6.680  -0.087   5.889  0.3820  0.5391  0.4427
 1762ntf    fn411310   6.551   0.024   5.759 -0.2105  0.7146  0.3130
 1763ntf    cn111311   2.629   2.791   0.749 -0.0502 -0.2272  0.1736
 1763ntf    sn211312   2.600   2.620   0.803  0.0081 -0.4100 -0.3646
 1763ntf    nn311313   2.724   2.587   0.894 -0.2100  0.0102  0.0930
 1763ntf    sn211314   2.730   2.596   1.050  0.1111 -0.2188  0.0939
 1763ntf    cn111315   2.670   2.434   1.107 -0.3081 -0.0219  0.2173
 1763ntf    fn411316   2.694   2.850   0.848 -0.1829  0.1272  0.0510
 1763ntf    fn411317   2.716   2.795   0.649 -0.1397 -0.3702  0.0901
 1763ntf    fn411318   2.529   2.873   0.719  0.1007 -0.0210  0.2265
 1763ntf    on511319   2.472   2.624   0.869  0.1784  0.1824 -0.0578
 1763ntf    on511320   2.607   2.541   0.683  0.6221  0.6155 -1.0177
 1763ntf    on511321   2.635   2.685   1.112  0.0251  0.0878 -0.4775
 1763ntf    on511322   2.864   2.607   1.104  0.2688  0.6139 -0.4493
 1763ntf    fn411323   2.544   2.423   1.069 -0.4674  0.3015  0.6486
 1763ntf    fn411324   2.733   2.325   1.066  0.3082  0.2719  0.3653
 1763ntf    fn411325   2.675   2.425   1.239 -0.2612 -0.2722  0.1994
 1764ntf    cn111326   6.112   2.934   4.249  0.3714 -0.5508 -0.4739
 1764ntf    sn211327   6.064   2.989   4.082  0.2197  0.3789 -0.1293
 1764ntf    nn311328   5.937   3.073   4.119  0.4789  0.6903  0.0584
 1764ntf    sn211329   5.787   3.064   4.075  0.5114  0.4007  0.0060
 1764ntf    cn111330   5.689   3.136   4.210  0.3433  0.2873 -0.0545
 1764ntf    fn411331   6.221   2.859   4.248  0.5884 -0.2399 -0.1482
 1764ntf    fn411332   6.127   3.035   4.332 -0.2782 -0.4705 -0.4479
 1764ntf    fn411333   6.026   2.852   4.308 -0.3639  0.4513 -0.1384
 1764ntf    on511334   6.184   3.058   4.040  0.3958 -0.0321 -0.3084
 1764ntf    on511335   6.041   2.861   4.018 -0.0033  0.3966 -0.0828
 1764ntf    on511336   5.733   2.930   4.068  0.8985  0.2376  0.0804
 1764ntf    on511337   5.756   3.148   3.962 -0.0496  0.1636 -0.0212
 1764ntf    fn411338   5.561   3.136   4.178  0.2301 -0.8577  0.3598
 1764ntf    fn411339   5.691   3.075   4.327 -0.1604  0.0475 -0.1673
 1764ntf    fn411340   5.719   3.263   4.230  0.5474  0.1987  0.2022
 1765ntf    cn111341   6.379   4.597   4.061 -0.0593 -0.2194 -0.4052
 1765ntf    sn211342   6.552   4.548   4.035  0.0164 -0.2174  0.0853
 1765ntf    nn311343   6.572   4.550   3.879 -0.2298 -0.1346  0.0540
 1765ntf    sn211344   6.654   4.654   3.795  0.0335 -0.3052  0.0962
 1765ntf    cn111345   6.818   4.576   3.798 -0.1000 -0.5746  0.4147
 1765ntf    fn411346   6.350   4.596   4.190 -0.1016 -0.0898 -0.4131
 1765ntf    fn411347   6.358   4.721   4.019  0.3451 -0.1618 -0.4419
 1765ntf    fn411348   6.293   4.525   3.991 -0.0458 -0.5236 -0.1103
 1765ntf    on511349   6.633   4.634   4.118  0.4416  0.2683 -0.8204
 1765ntf    on511350   6.554   4.408   4.069 -0.6538 -0.3299 -0.3144
 1765ntf    on511351   6.679   4.786   3.846  0.4763 -0.3463 -0.0140
 1765ntf    on511352   6.611   4.642   3.658  0.0635 -0.5661  0.1092
 1765ntf    fn411353   6.909   4.654   3.743 -0.7895 -0.2918 -0.3436
 1765ntf    fn411354   6.854   4.533   3.918 -0.2581 -0.1388  0.6214
 1765ntf    fn411355   6.818   4.466   3.724 -0.1636 -0.1543 -0.2165
 1766ntf    cn111356   1.729   5.163   2.143 -0.2856  0.2767  0.0276
 1766ntf    sn211357   1.888   5.097   2.083 -0.3900 -0.0403  0.1000
 1766ntf    nn311358   1.862   4.946   2.050 -0.6973  0.0987 -0.2954
 1766ntf    sn211359   1.817   4.835   2.152 -0.2593 -0.0494 -0.2622
 1766ntf    cn111360   1.975   4.747   2.164 -0.4148 -0.2908  0.0241
 1766ntf    fn411361   1.706   5.138   2.271  0.0777 -0.6303 -0.0746
 1766ntf    fn411362   1.717   5.293   2.119  0.4340  0.3891  0.2468
 1766ntf    fn411363   1.629   5.105   2.079 -0.3053 -0.0759  0.3754
 1766ntf    on511364   1.919   5.170   1.963 -0.4289 -0.1759  0.0070
 1766ntf    on511365   1.993   5.117   2.180  0.3208 -0.2016 -0.6330
 1766ntf    on511366   1.724   4.745   2.089 -0.5001  0.2875 -0.3920
 1766ntf    on511367   1.786   4.871   2.288 -0.1305 -0.3176 -0.1616
 1766ntf    fn411368   1.974   4.627   2.221 -0.0372 -0.5960 -0.5996
 1766ntf    fn411369   2.029   4.726   2.045 -0.0416  0.4242  0.0648
 1766ntf    fn411370   2.070   4.816   2.225 -0.5558  0.1538 -0.2609
 1767ntf    cn111371   1.794   2.387   3.908  0.0493 -0.0485  0.2544
 1767ntf    sn211372   1.734   2.334   3.745 -0.1229 -0.0772  0.3273
 1767ntf    nn311373   1.607   2.425   3.726 -0.2513 -0.4566 -0.7112
 1767ntf    sn211374   1.580   2.560   3.651 -0.2114 -0.0316  0.0256
 1767ntf    cn111375   1.467   2.522   3.513 -0.2879 -0.1711  0.1257
 1767ntf    fn411376   1.832   2.513   3.920  0.2736 -0.1105  0.2098
 1767ntf    fn411377   1.697   2.374   3.997  0.1584  0.6307  0.4819
 1767ntf    fn411378   1.899   2.318   3.949  0.4177  0.1009 -0.4205
 1767ntf    on511379   1.846   2.355   3.657  0.0011 -0.6730  0.3373
 1767ntf    on511380   1.698   2.197   3.774  0.7134 -0.3207  0.2472
 1767ntf    on511381   1.692   2.626   3.590 -0.3082  0.0064 -0.1126
 1767ntf    on511382   1.497   2.643   3.734 -0.3344  0.4842 -0.6057
 1767ntf    fn411383   1.503   2.431   3.424 -0.6442 -0.0435 -0.1475
 1767ntf    fn411384   1.357   2.470   3.563 -0.2079  0.1594  0.6552
 1767ntf    fn411385   1.426   2.624   3.440  0.6996 -0.0159 -0.2372
 1768ntf    cn111386   5.156   5.210   3.553  0.2146  0.0937  0.0905
 1768ntf    sn211387   5.054   5.240   3.406  0.1042 -0.0541  0.1374
 1768ntf    nn311388   5.132   5.363   3.347 -0.1410 -0.1476 -0.3885
 1768ntf    sn211389   5.240   5.365   3.234  0.1401 -0.1220 -0.1210
 1768ntf    cn111390   5.143   5.384   3.081  0.1956 -0.1112 -0.1546
 1768ntf    fn411391   5.164   5.079   3.572  0.5815  0.1351  0.2458
 1768ntf    fn411392   5.281   5.251   3.536  0.0741  0.5792  0.1965
 1768ntf    fn411393   5.109   5.254   3.669 -0.4236  0.1005 -0.1666
 1768ntf    on511394   5.066   5.117   3.332 -0.8448  0.2729 -0.5732
 1768ntf    on511395   4.923   5.279   3.452  0.3837  1.1893 -0.0793
 1768ntf    on511396   5.320   5.247   3.216  0.1994 -0.0245 -0.5143
 1768ntf    on511397   5.317   5.487   3.224 -0.2515  0.1525  0.2028
 1768ntf    fn411398   5.040   5.464   3.099  0.0713 -0.2815 -0.0958
 1768ntf    fn411399   5.217   5.446   2.991 -0.0502 -0.1014 -0.3501
 1768ntf    fn411400   5.104   5.266   3.035  0.1207 -0.1473  0.0020
 1769ntf    cn111401   6.029   0.800   4.039 -0.0674  0.4163  0.3463
 1769ntf    sn211402   6.142   0.911   4.128  0.2265  0.3366  0.0736
 1769ntf    nn311403   6.220   0.805   4.213  0.1079  0.8528  0.8316
 1769ntf    sn211404   6.184   0.746   4.355  0.0093 -0.1248  0.4112
 1769ntf    cn111405   6.211   0.570   4.321 -0.3853 -0.1477  0.2075
 1769ntf    fn411406   5.953   0.735   4.126 -0.0142 -0.0524  0.0463
 1769ntf    fn411407   5.949   0.866   3.956 -0.2275 -0.5469 -0.2832
 1769ntf    fn411408   6.095   0.706   3.973  0.1631  0.5980  0.3162
 1769ntf    on511409   6.220   0.967   4.020  0.8195  0.4700  0.5702
 1769ntf    on511410   6.063   1.009   4.197 -0.1915 -0.1359  0.2730
 1769ntf    on511411   6.044   0.761   4.387  0.0103  0.3660  0.1907
 1769ntf    on511412   6.277   0.781   4.459  0.0593  0.5030  0.1626
 1769ntf    fn411413   6.175   0.503   4.429 -0.5823  0.2750  0.4032
 1769ntf    fn411414   6.137   0.530   4.219 -0.2259 -0.8795  0.3740
 1769ntf    fn411415   6.333   0.536   4.282 -0.2427  0.1808  0.3693
 1770ntf    cn111416   0.963   1.335   5.999 -0.3355  0.1512  0.2278
 1770ntf    sn211417   0.960   1.154   6.014  0.0746  0.1415  0.2018
 1770ntf    nn311418   0.804   1.137   6.006  0.1271 -0.1500 -0.3000
 1770ntf    sn211419   0.732   0.999   6.029 -0.3494  0.1160 -0.1725
 1770ntf    cn111420   0.656   1.033   6.190  0.0012 -0.0539  0.0299
 1770ntf    fn411421   0.904   1.374   5.887 -0.1225  0.0350  0.0750
 1770ntf    fn411422   0.889   1.398   6.089  0.1088  0.0424  0.6771
 1770ntf    fn411423   1.085   1.387   5.994 -0.1480 -0.2926  0.1592
 1770ntf    on511424   1.035   1.117   5.896  0.1135 -0.2844  0.3567
 1770ntf    on511425   1.017   1.137   6.145 -0.7073  0.0245  0.5285
 1770ntf    on511426   0.811   0.879   6.041 -0.4539  0.0695  0.0528
 1770ntf    on511427   0.613   0.996   5.949 -0.7119  0.2484  0.3593
 1770ntf    fn411428   0.618   0.917   6.242 -0.1132  0.0714  0.2257
 1770ntf    fn411429   0.747   1.084   6.271  0.1958 -0.2610 -0.0565
 1770ntf    fn411430   0.553   1.115   6.180 -0.3208 -0.5029 -0.3686
 1771ntf    cn111431   3.564   0.101   6.679 -0.0152  0.1979 -0.1220
 1771ntf    sn211432   3.687   0.157   6.558  0.0282  0.2554 -0.0520
 1771ntf    nn311433   3.650   0.310   6.565 -0.2072  0.1872  0.1929
 1771ntf    sn211434   3.737   0.434   6.604 -0.1093  0.0850  0.2962
 1771ntf    cn111435   3.653   0.561   6.506 -0.2030 -0.2355 -0.0423
 1771ntf    fn411436   3.568  -0.030   6.662  0.6331  0.1148  0.6193
 1771ntf    fn411437   3.585   0.137   6.805 -0.4836  0.0041  0.0106
 1771ntf    fn411438   3.440   0.136   6.651 -0.1616 -0.3382 -0.1565
 1771ntf    on511439   3.814   0.116   6.611  0.0269  0.0125 -0.2329
 1771ntf    on511440   3.650   0.104   6.429  0.3266  0.8290 -0.3780
 1771ntf    on511441   3.871   0.435   6.551 -0.2072  0.7393  0.0572
 1771ntf    on511442   3.716   0.459   6.744  0.3329 -0.1349  0.4058
 1771ntf    fn411443   3.662   0.553   6.374  0.3661 -0.4738  0.0090
 1771ntf    fn411444   3.527   0.580   6.544 -0.2315 -0.1956 -0.1563
 1771ntf    fn411445   3.713   0.677   6.525 -0.1141 -0.2034 -0.5111
 1772ntf    cn111446   0.283   3.856   5.612  0.0975 -0.2306 -0.5416
 1772ntf    sn211447   0.194   4.008   5.566  0.3029  0.0391 -0.0502
 1772ntf    nn311448   0.299   4.121   5.538  0.0568  0.2509 -0.1082
 1772ntf    sn211449   0.348   4.168   5.396 -0.0362 -0.0656 -0.2450
 1772ntf    cn111450   0.231   4.305   5.372  0.0850  0.1275  0.2678
 1772ntf    fn411451   0.340   3.874   5.730 -0.4854  0.0990 -0.3046
 1772ntf    fn411452   0.203   3.751   5.621 -0.3430  0.1162 -0.3784
 1772ntf    fn411453   0.376   3.837   5.520  0.2899  0.1413 -0.4255
 1772ntf    on511454   0.112   3.967   5.455  0.1923  0.4931 -0.1365
 1772ntf    on511455   0.124   4.046   5.686  0.6745  0.0644  0.1627
 1772ntf    on511456   0.330   4.070   5.292 -0.4398 -0.6036  0.3203
 1772ntf    on511457   0.478   4.229   5.401  0.0958 -0.3325 -0.3936
 1772ntf    fn411458   0.103   4.272   5.375  0.1704 -0.2552 -0.3155
 1772ntf    fn411459   0.240   4.390   5.474 -0.1566 -0.3026  0.6481
 1772ntf    fn411460   0.262   4.379   5.267 -0.3528  0.2400  0.2177
 1773ntf    cn111461   3.012   3.388   5.462 -0.1422  0.0442 -0.4619
 1773ntf    sn211462   3.142   3.274   5.518 -0.0590  0.3962  0.0662
 1773ntf    nn311463   3.192   3.213   5.382  0.0794  0.5082  0.0662
 1773ntf    sn211464   3.160   3.082   5.302  0.3243  0.3106  0.2911
 1773ntf    cn111465   3.076   3.154   5.158  0.1244 -0.2796  0.1086
 1773ntf    fn411466   3.051   3.477   5.371 -0.2621  0.6535  0.0764
 1773ntf    fn411467   2.910   3.324   5.408 -0.0909 -0.3389 -0.1006
 1773ntf    fn411468   2.961   3.456   5.563  0.0336 -0.2647 -0.1653
 1773ntf    on511469   3.244   3.358   5.575  0.1084 -0.0355  0.4085
 1773ntf    on511470   3.080   3.179   5.606 -0.3412  0.0005 -0.5548
 1773ntf    on511471   3.066   2.998   5.371  0.1453  0.0291 -0.2856
 1773ntf    on511472   3.275   3.013   5.249 -0.0849  0.2715 -0.5603
 1773ntf    fn411473   2.974   3.225   5.204  0.5049  0.4715 -0.1826
 1773ntf    fn411474   3.153   3.244   5.099 -0.2920  0.0055 -0.0020
 1773ntf    fn411475   3.026   3.071   5.068 -0.5577  0.5013 -0.2495
 1774ntf    cn111476   5.268   1.373   0.621 -0.0988  0.1433 -0.0839
 1774ntf    sn211477   5.376   1.267   0.722 -0.0347  0.1068 -0.1910
 1774ntf    nn311478   5.479   1.213   0.617 -0.2800  0.0595 -0.4064
 1774ntf    sn211479   5.636   1.224   0.615 -0.2598 -0.1716  0.0090
 1774ntf    cn111480   5.683   1.074   0.707 -0.1806  0.0034  0.2563
 1774ntf    fn411481   5.333   1.477   0.573 -0.1249  0.0813 -0.2520
 1774ntf    fn411482   5.209   1.320   0.515  0.0683  0.2346 -0.2226
 1774ntf    fn411483   5.168   1.421   0.694  0.0305  0.2564  0.0207
 1774ntf    on511484   5.437   1.361   0.813 -0.2542  0.5054 -0.4530
 1774ntf    on511485   5.295   1.168   0.789  0.4121  0.0172  0.2245
 1774ntf    on511486   5.702   1.333   0.682 -0.2066  0.0234 -0.3580
 1774ntf    on511487   5.685   1.194   0.483  0.0018  0.2147  0.0179
 1774ntf    fn411488   5.809   1.037   0.695 -0.3798 -0.5775 -0.1190
 1774ntf    fn411489   5.659   1.088   0.836  0.2936  0.1850  0.3245
 1774ntf    fn411490   5.606   0.970   0.677  0.5765 -0.5034  0.0539
 1775ntf    cn111491   0.595   4.978   6.120  0.1290  0.0238 -0.0211
 1775ntf    sn211492   0.417   4.952   6.093  0.0589  0.2569  0.2075
 1775ntf    nn311493   0.366   4.895   6.231 -0.0283 -0.0468  0.0498
 1775ntf    sn211494   0.231   4.924   6.306 -0.2290  0.6035 -0.5504
 1775ntf    cn111495   0.189   4.754   6.354  0.4632  0.6190  0.1271
 1775ntf    fn411496   0.658   5.043   6.024 -0.0988  0.1882 -0.0620
 1775ntf    fn411497   0.612   5.042   6.235 -0.1867  0.0230  0.0267
 1775ntf    fn411498   0.662   4.865   6.132  0.3751  0.1903  0.1859
 1775ntf    on511499   0.372   5.084   6.058 -1.0370 -0.3375 -0.7171
 1775ntf    on511500   0.407   4.857   5.985 -0.3516 -0.0188  0.4856
 1775ntf    on511501   0.119   4.964   6.224 -0.3426  0.1601 -0.6148
 1775ntf    on511502   0.249   4.988   6.434  0.4591  0.2472 -0.4616
 1775ntf    fn411503   0.139   4.680   6.257  0.0202 -0.1843  0.9492
 1775ntf    fn411504   0.282   4.679   6.411 -0.0549 -0.1791 -0.0609
 1775ntf    fn411505   0.089   4.763   6.441 -0.0666 -0.4139 -0.3546
 1776ntf    cn111506   4.457   1.446   1.121 -0.3092 -0.2215 -0.1080
 1776ntf    sn211507   4.602   1.491   1.221 -0.4914  0.2564 -0.0532
 1776ntf    nn311508   4.525   1.555   1.341  0.2120  0.6065  0.2201
 1776ntf    sn211509   4.551   1.550   1.496  0.2022 -0.0004  0.2061
 1776ntf    cn111510   4.422   1.438   1.557 -0.1141  0.3071  0.1050
 1776ntf    fn411511   4.362   1.538   1.128  0.2893  0.3628  0.6316
 1776ntf    fn411512   4.487   1.441   0.993  0.0857  0.1994 -0.0365
 1776ntf    fn411513   4.403   1.331   1.159 -0.2531  0.0023  0.6644
 1776ntf    on511514   4.662   1.361   1.243 -0.4855  0.2443 -0.1382
 1776ntf    on511515   4.665   1.588   1.135 -0.3877  0.5089  0.3068
 1776ntf    on511516   4.522   1.673   1.565 -0.8801 -0.2202  0.1544
 1776ntf    on511517   4.678   1.490   1.530  0.4505  0.2590 -0.2391
 1776ntf    fn411518   4.301   1.465   1.510 -0.0432  0.4634  0.0111
 1776ntf    fn411519   4.451   1.313   1.523 -0.0766  0.2505  0.3460
 1776ntf    fn411520   4.409   1.434   1.688  0.0275 -0.2575  0.1047
 1777ntf    cn111521   4.689   2.489   2.310 -0.2793  0.0102  0.1133
 1777ntf    sn211522   4.840   2.586   2.278 -0.2794 -0.0667 -0.1225
 1777ntf    nn311523   4.794   2.728   2.327 -0.1362 -0.1663  0.3069
 1777ntf    sn211524   4.808   2.782   2.473  0.1159  0.1652  0.1619
 1777ntf    cn111525   4.968   2.869   2.477  0.3437 -0.2414 -0.1093
 1777ntf    fn411526   4.654   2.475   2.437 -0.0143  0.4654  0.2381
 1777ntf    fn411527   4.594   2.550   2.242  0.4808  0.8514 -0.2221
 1777ntf    fn411528   4.696   2.363   2.268 -0.1494  0.1404 -0.2568
 1777ntf    on511529   4.949   2.520   2.344  0.2047  0.7992 -0.0434
 1777ntf    on511530   4.842   2.590   2.134  0.0742 -0.4221 -0.1268
 1777ntf    on511531   4.827   2.684   2.577  0.2362 -0.1306 -0.1366
 1777ntf    on511532   4.720   2.894   2.497 -0.2198 -0.0096 -0.2360
 1777ntf    fn411533   4.994   2.939   2.586  0.3812  0.3750 -0.5105
 1777ntf    fn411534   5.059   2.774   2.486  0.4635 -0.1450 -0.2979
 1777ntf    fn411535   4.989   2.939   2.367 -0.3546 -0.1665 -0.2001
 1778ntf    cn111536   1.486   0.439   4.762 -0.3719 -0.1374  0.3303
 1778ntf    sn211537   1.550   0.546   4.895 -0.3250 -0.0033  0.2004
 1778ntf    nn311538   1.480   0.682   4.860 -0.0521  0.0111 -0.3046
 1778ntf    sn211539   1.539   0.827   4.861  0.0422 -0.0288 -0.1338
 1778ntf    cn111540   1.416   0.928   4.949  0.1352  0.1760 -0.2390
 1778ntf    fn411541   1.491   0.497   4.643 -0.1217 -0.1459  0.3368
 1778ntf    fn411542   1.561   0.330   4.758  0.2704  0.2965  0.3567
 1778ntf    fn411543   1.361   0.403   4.788 -0.6773  0.8380  0.2569
 1778ntf    on511544   1.485   0.489   5.010 -0.3224  0.1501  0.2767
 1778ntf    on511545   1.694   0.549   4.882 -0.3644  0.2229 -0.2183
 1778ntf    on511546   1.539   0.894   4.733 -0.1894  0.6122  0.1949
 1778ntf    on511547   1.658   0.842   4.942  0.4377  0.0678 -0.7267
 1778ntf    fn411548   1.385   0.874   5.066  0.5101  0.3284 -0.0675
 1778ntf    fn411549   1.469   1.047   4.971  0.2680 -0.0240  0.5644
 1778ntf    fn411550   1.300   0.942   4.886 -0.2538 -0.2298  0.3709
 1779ntf    cn111551   0.563   6.612   1.616  0.4139 -0.2393  0.4975
 1779ntf    sn211552   0.639   6.717   1.744 -0.0199  0.3079  0.3084
 1779ntf    nn311553   0.530   6.829   1.762 -0.2155  0.1790 -0.0737
 1779ntf    sn211554   0.433   6.867   1.879 -0.2307  0.2880 -0.1213
 1779ntf    cn111555   0.444   7.048   1.891 -0.1191  0.2816 -0.1274
 1779ntf    fn411556   0.552   6.687   1.508  0.4617 -0.1482  0.5548
 1779ntf    fn411557   0.636   6.505   1.588 -0.0669 -0.4506  0.0439
 1779ntf    fn411558   0.444   6.570   1.656  0.1020  0.2551  0.1030
 1779ntf    on511559   0.652   6.625   1.855  0.1992  0.2647  0.2459
 1779ntf    on511560   0.762   6.769   1.691 -0.0022 -0.6840 -0.6587
 1779ntf    on511561   0.479   6.825   2.009 -0.0523  0.4501 -0.1324
 1779ntf    on511562   0.294   6.858   1.841 -0.2558 -0.7302  0.1746
 1779ntf    fn411563   0.409   7.096   1.772  0.1763 -0.0960 -0.3684
 1779ntf    fn411564   0.353   7.093   1.976  0.0605  0.1219  0.1495
 1779ntf    fn411565   0.561   7.102   1.921  0.0931 -0.4616  0.4013
 1780ntf    cn111566   4.381   1.698   3.265  0.3942 -0.1079  0.2124
 1780ntf    sn211567   4.426   1.827   3.385  0.1821  0.2276 -0.0665
 1780ntf    nn311568   4.415   1.959   3.301  0.4772  0.3210  0.0400
 1780ntf    sn211569   4.386   2.102   3.359  0.1779  0.1886  0.2180
 1780ntf    cn111570   4.304   2.178   3.215 -0.1855 -0.1836  0.2256
 1780ntf    fn411571   4.375   1.573   3.310 -0.3306 -0.0428  0.3130
 1780ntf    fn411572   4.254   1.713   3.230  0.4964  0.1319 -0.0625
 1780ntf    fn411573   4.445   1.694   3.150 -0.2180 -0.3493 -0.1260
 1780ntf    on511574   4.330   1.807   3.491  0.7954 -0.2439  0.4064
 1780ntf    on511575   4.565   1.795   3.407  0.2906  0.3299 -0.5839
 1780ntf    on511576   4.501   2.185   3.382  0.3400 -0.1392  0.5939
 1780ntf    on511577   4.282   2.105   3.458 -0.1332 -0.3832 -0.0818
 1780ntf    fn411578   4.187   2.124   3.189 -0.0276 -0.6679  0.5018
 1780ntf    fn411579   4.286   2.307   3.234  0.2818 -0.0519 -0.2205
 1780ntf    fn411580   4.379   2.162   3.107  0.1738 -0.4997  0.5190
 1781ntf    cn111581   4.156   1.876   0.024 -0.2449  0.1959 -0.1226
 1781ntf    sn211582   4.158   2.051  -0.024 -0.0302  0.2286  0.0039
 1781ntf    nn311583   4.296   2.096   0.035 -0.0187 -0.5973  0.6292
 1781ntf    sn211584   4.441   2.070  -0.019 -0.1296  0.1645 -0.0702
 1781ntf    cn111585   4.505   2.238  -0.046  0.2683  0.0376  0.0812
 1781ntf    fn411586   4.245   1.807  -0.046 -0.0471 -0.4161  0.7214
 1781ntf    fn411587   4.189   1.858   0.151 -0.0418 -0.0961 -0.2144
 1781ntf    fn411588   4.044   1.810  -0.000  0.0117 -0.2931  0.0033
 1781ntf    on511589   4.154   2.057  -0.168 -0.1418 -0.0221 -0.0045
 1781ntf    on511590   4.047   2.099   0.054 -0.0859 -0.4415  0.3421
 1781ntf    on511591   4.441   2.024  -0.156 -0.2014  0.8590 -0.3037
 1781ntf    on511592   4.534   2.007   0.072 -0.4612 -0.0199  0.1444
 1781ntf    fn411593   4.516   2.304   0.067  0.3600 -0.0530  0.1256
 1781ntf    fn411594   4.625   2.234  -0.103  0.5187 -0.1287  0.6179
 1781ntf    fn411595   4.422   2.311  -0.119 -0.0661 -0.9891 -0.5978
 1782ntf    cn111596   5.033   0.899   6.798  0.2622  0.0687 -0.1513
 1782ntf    sn211597   5.145   0.974   6.675  0.1589  0.3081 -0.1001
 1782ntf    nn311598   5.065   1.103   6.637 -0.5017 -0.1538 -0.3011
 1782ntf    sn211599   5.074   1.205   6.518 -0.0808  0.0351 -0.1073
 1782ntf    cn111600   5.168   1.329   6.613 -0.1026 -0.2179  0.2503
 1782ntf    fn411601   5.020   0.981   6.901 -0.2057 -0.4849  0.2308
 1782ntf    fn411602   4.910   0.874   6.756  0.2454 -0.0807 -0.0132
 1782ntf    fn411603   5.081   0.787   6.849  0.3458  0.0906 -0.1810
 1782ntf    on511604   5.265   1.004   6.748  0.0730  0.1224  0.1199
 1782ntf    on511605   5.145   0.881   6.565  0.0260  0.3591 -0.1432
 1782ntf    on511606   4.946   1.267   6.494 -0.1973  0.0398  0.4940
 1782ntf    on511607   5.169   1.177   6.413 -0.1747  0.3274 -0.2701
 1782ntf    fn411608   5.265   1.278   6.687  0.3492 -0.2432 -0.3531
 1782ntf    fn411609   5.214   1.425   6.534  0.0399  0.1062  0.7250
 1782ntf    fn411610   5.086   1.388   6.698  0.4964  0.4509  0.3757
 1783ntf    cn111611   1.126   6.106   2.314  0.0140  0.1127 -0.0151
 1783ntf    sn211612   1.012   6.235   2.376 -0.1154 -0.0158  0.0140
 1783ntf    nn311613   0.999   6.196   2.527  0.2256  0.4374  0.1604
 1783ntf    sn211614   1.089   6.234   2.651  0.1694  0.2075  0.2716
 1783ntf    cn111615   1.113   6.071   2.728  0.2840  0.0598 -0.0757
 1783ntf    fn411616   1.074   5.985   2.318 -0.4780  0.3227  0.1805
 1783ntf    fn411617   1.163   6.131   2.189 -0.4016  0.2206 -0.1201
 1783ntf    fn411618   1.237   6.108   2.385  0.2642 -0.3550 -0.3863
 1783ntf    on511619   1.076   6.362   2.357 -0.8875  0.2964 -0.5477
 1783ntf    on511620   0.891   6.211   2.301  0.3235 -0.9331 -0.4276
 1783ntf    on511621   1.014   6.312   2.746 -0.5728  0.1362 -0.2391
 1783ntf    on511622   1.227   6.269   2.632  0.2282 -0.2411 -0.1398
 1783ntf    fn411623   1.228   6.016   2.693  0.2673  0.1093 -0.2121
 1783ntf    fn411624   1.113   6.069   2.860 -0.0360 -0.1557 -0.0773
 1783ntf    fn411625   1.026   5.975   2.699  0.4753 -0.1197 -0.0611
 1784ntf    cn111626   2.759   4.746   0.170  0.0487 -0.0761  0.2033
 1784ntf    sn211627   2.702   4.618   0.286  0.0447 -0.0349  0.2472
 1784ntf    nn311628   2.802   4.641   0.404  0.1585  0.0384  0.1364
 1784ntf    sn211629   2.791   4.730   0.533  0.3438 -0.0869  0.2404
 1784ntf    cn111630   2.729   4.621   0.663  0.0763 -0.1804  0.0351
 1784ntf    fn411631   2.713   4.735   0.047  0.6435  0.6125 -0.0899
 1784ntf    fn411632   2.741   4.870   0.211 -0.0961  0.1019 -0.3924
 1784ntf    fn411633   2.888   4.719   0.153 -0.0719 -0.4313 -0.1575
 1784ntf    on511634   2.562   4.650   0.305  0.0137  0.0711 -0.1468
 1784ntf    on511635   2.730   4.494   0.217  0.2375 -0.1442  0.5213
 1784ntf    on511636   2.696   4.838   0.522  0.4530 -0.0519 -0.4602
 1784ntf    on511637   2.927   4.763   0.569  0.1308  0.4479  0.5557
 1784ntf    fn411638   2.735   4.690   0.776 -0.5078  0.1104 -0.1060
 1784ntf    fn411639   2.599   4.597   0.647  0.0836  0.1576 -0.5479
 1784ntf    fn411640   2.797   4.508   0.677 -0.1002 -0.2795  0.1084
 1785ntf    cn111641   3.128   2.290   3.201  0.2287  0.3655  0.2046
 1785ntf    sn211642   3.092   2.460   3.146 -0.0067  0.2940  0.1412
 1785ntf    nn311643   2.976   2.450   3.040  0.1866  0.4343 -0.0824
 1785ntf    sn211644   2.997   2.448   2.884 -0.0793  0.0980 -0.1131
 1785ntf    cn111645   3.025   2.623   2.842  0.1015  0.0169 -0.3289
 1785ntf    fn411646   3.105   2.206   3.102  0.2991  0.2635  0.2745
 1785ntf    fn411647   3.253   2.267   3.240 -0.0920 -0.4908  0.7328
 1785ntf    fn411648   3.060   2.242   3.303  0.4579 -0.1171  0.1341
 1785ntf    on511649   3.044   2.519   3.268 -0.7749  0.1480 -0.0807
 1785ntf    on511650   3.216   2.499   3.084  0.0644 -0.2352 -0.0537
 1785ntf    on511651   2.872   2.419   2.817 -0.1050  0.4561 -0.2261
 1785ntf    on511652   3.107   2.373   2.832 -0.3658 -0.3764 -0.0403
 1785ntf    fn411653   3.067   2.688   2.950  0.0083 -0.0808 -0.2333
 1785ntf    fn411654   3.116   2.642   2.748 -0.0766  0.6819 -0.3729
 1785ntf    fn411655   2.912   2.681   2.807 -0.3176 -0.6803 -0.1567
 1786ntf    cn111656   3.018   2.241   4.004 -0.1846 -0.1237  0.0094
 1786ntf    sn211657   2.985   2.390   4.102 -0.0625  0.0340 -0.1909
 1786ntf    nn311658   2.834   2.410   4.064 -0.1186 -0.0102  0.0095
 1786ntf    sn211659   2.710   2.446   4.155 -0.1142  0.2319 -0.0785
 1786ntf    cn111660   2.702   2.621   4.106  0.5971  0.1587 -0.4853
 1786ntf    fn411661   2.960   2.247   3.885  0.0937 -1.1741 -0.1915
 1786ntf    fn411662   3.147   2.220   3.988 -0.2224 -0.1148 -0.3078
 1786ntf    fn411663   2.968   2.134   4.065  0.0504 -0.3847 -0.2547
 1786ntf    on511664   3.000   2.341   4.236  0.1633 -0.3347 -0.3490
 1786ntf    on511665   3.074   2.486   4.041 -0.6600  0.0896 -1.0054
 1786ntf    on511666   2.730   2.454   4.297 -0.1785 -0.5502 -0.0229
 1786ntf    on511667   2.589   2.385   4.107 -0.1848  0.6650 -0.4582
 1786ntf    fn411668   2.819   2.682   4.104  0.7120 -0.0468 -0.0663
 1786ntf    fn411669   2.640   2.639   3.991  0.2352  0.0109 -0.3175
 1786ntf    fn411670   2.631   2.696   4.189  0.1045 -0.7309 -0.0918
 1787ntf    cn111671   4.981   2.074   4.088  0.5785 -0.0405 -0.1170
 1787ntf    sn211672   5.007   2.056   3.909 -0.2089 -0.0259 -0.2374
 1787ntf    nn311673   4.881   1.983   3.850 -0.1467  0.0699 -0.4946
 1787ntf    sn211674   4.858   1.831   3.817  0.1827 -0.0442 -0.2171
 1787ntf    cn111675   4.677   1.810   3.814  0.1601  0.1375 -0.1803
 1787ntf    fn411676   4.970   1.958   4.151 -0.2299  0.0334 -0.1040
 1787ntf    fn411677   5.077   2.147   4.143  0.2263  0.2087  0.1747
 1787ntf    fn411678   4.861   2.130   4.102  0.2812 -0.7071  0.0067
 1787ntf    on511679   5.019   2.196   3.874  0.4094  0.1153  0.4996
 1787ntf    on511680   5.126   1.975   3.901 -0.6162 -0.7003  0.4375
 1787ntf    on511681   4.888   1.730   3.915  0.0520  0.1239 -0.0035
 1787ntf    on511682   4.888   1.803   3.679  0.3302  0.3020 -0.2576
 1787ntf    fn411683   4.612   1.842   3.924  0.4601 -0.0134  0.0430
 1787ntf    fn411684   4.620   1.878   3.716 -0.1234  0.2682  0.0764
 1787ntf    fn411685   4.640   1.684   3.798  0.7183 -0.0965  0.3052
 1788ntf    cn111686   2.447   2.785   3.073 -0.2187  0.0490 -0.1100
 1788ntf    sn211687   2.302   2.687   3.024 -0.1531 -0.0059 -0.1957
 1788ntf    nn311688   2.348   2.616   2.892  0.1039 -0.5242  0.1687
 1788ntf    sn211689   2.276   2.622   2.753  0.2268 -0.0426  0.1223
 1788ntf    cn111690   2.329   2.787   2.700  0.0809 -0.1052 -0.2266
 1788ntf    fn411691   2.490   2.854   2.968  0.0042 -0.1296 -0.1372
 1788ntf    fn411692   2.424   2.868   3.173  0.1289 -0.0472  0.0514
 1788ntf    fn411693   2.555   2.714   3.101 -0.2341  0.0071 -0.1569
 1788ntf    on511694   2.281   2.583   3.121 -0.2745 -0.2304 -0.4630
 1788ntf    on511695   2.203   2.793   3.020 -0.3132 -0.1376  0.1900
 1788ntf    on511696   2.131   2.625   2.759  0.2379  0.4553  0.1197
 1788ntf    on511697   2.333   2.533   2.655 -0.1449 -0.2146  0.0575
 1788ntf    fn411698   2.456   2.788   2.662  0.1511 -0.0251  0.0087
 1788ntf    fn411699   2.260   2.844   2.603 -0.0497 -0.1989 -0.1883
 1788ntf    fn411700   2.321   2.870   2.803  0.0064 -0.6020  0.1742
 1789ntf    cn111701   0.455   1.813   1.861 -0.1851 -0.3631 -0.4360
 1789ntf    sn211702   0.493   1.643   1.914 -0.0842 -0.2919 -0.2797
 1789ntf    nn311703   0.460   1.547   1.795 -0.5811 -0.9921  0.4061
 1789ntf    sn211704   0.566   1.484   1.697 -0.1166 -0.4182  0.5281
 1789ntf    cn111705   0.583   1.322   1.779  0.1616 -0.4065  0.4939
 1789ntf    fn411706   0.328   1.836   1.832 -0.3582 -0.2877  0.3576
 1789ntf    fn411707   0.485   1.908   1.949 -0.2435 -0.2989 -0.4851
 1789ntf    fn411708   0.527   1.841   1.754 -0.0684  0.7101 -0.0885
 1789ntf    on511709   0.631   1.648   1.955 -0.2623  0.0493  0.3073
 1789ntf    on511710   0.401   1.631   2.025  0.5845  0.0969  0.3260
 1789ntf    on511711   0.698   1.539   1.688 -0.5466  0.5309 -0.2349
 1789ntf    on511712   0.500   1.447   1.574  0.1796 -0.1003  0.2736
 1789ntf    fn411713   0.694   1.262   1.741 -0.0560 -0.5032  0.0100
 1789ntf    fn411714   0.599   1.333   1.910  0.0483 -0.4478  0.5114
 1789ntf    fn411715   0.482   1.240   1.756  0.1135 -0.1722 -0.1522
 1790ntf    cn111716   3.598   4.919   6.579  0.3222  0.0606  0.0056
 1790ntf    sn211717   3.438   4.834   6.565  0.3465 -0.0806  0.5981
 1790ntf    nn311718   3.338   4.930   6.639  0.0265 -0.0537  0.1302
 1790ntf    sn211719   3.201   4.991   6.592  0.0155 -0.1745  0.0055
 1790ntf    cn111720   3.117   5.000   6.752  0.1315 -0.3549  0.0769
 1790ntf    fn411721   3.602   5.023   6.496 -0.1686  0.1372  0.0756
 1790ntf    fn411722   3.622   4.964   6.701  0.1201 -0.0245  0.0763
 1790ntf    fn411723   3.703   4.844   6.548  0.3354  0.2678 -0.4630
 1790ntf    on511724   3.422   4.831   6.422 -0.0230  0.5145  0.6221
 1790ntf    on511725   3.463   4.716   6.645  0.5587  0.0602  0.7428
 1790ntf    on511726   3.122   4.904   6.508  0.2312 -0.4808  0.1193
 1790ntf    on511727   3.218   5.130   6.558  0.4369 -0.1196  0.4323
 1790ntf    fn411728   3.072   4.880   6.786 -0.2990 -0.1973  0.0770
 1790ntf    fn411729   3.193   5.052   6.847  0.1717  0.5812 -0.4632
 1790ntf    fn411730   3.013   5.081   6.741  0.2042 -0.3280 -0.4052
 1791ntf    cn111731   0.265   1.329   6.179  0.1405 -0.3847  0.1767
 1791ntf    sn211732   0.193   1.430   6.311  0.0113 -0.0522 -0.1478
 1791ntf    nn311733   0.162   1.315   6.413  0.1715  0.2676  0.2657
 1791ntf    sn211734   0.021   1.252   6.443  0.2025  0.1333  0.1290
 1791ntf    cn111735  -0.005   1.306   6.615 -0.2518  0.0450  0.0880
 1791ntf    fn411736   0.369   1.258   6.222  0.1942 -0.2490  0.2691
 1791ntf    fn411737   0.170   1.254   6.126  0.3457 -0.4344 -0.1246
 1791ntf    fn411738   0.315   1.401   6.080 -0.5885  0.4111  0.3764
 1791ntf    on511739   0.307   1.506   6.358 -0.2190 -0.0263  0.3698
 1791ntf    on511740   0.085   1.502   6.248 -0.0187 -0.0413 -0.0837
 1791ntf    on511741   0.037   1.110   6.460 -0.2648  0.0721  0.0707
 1791ntf    on511742  -0.092   1.303   6.368  0.4730  0.6739  0.0830
 1791ntf    fn411743  -0.119   1.257   6.663 -0.0997 -0.0152  0.3900
 1791ntf    fn411744   0.086   1.267   6.703  0.2959 -0.1662 -0.5601
 1791ntf    fn411745  -0.019   1.437   6.625 -0.0268  0.1146 -0.4927
 1792ntf    cn111746   0.139   0.864   2.232 -0.3709 -0.1099 -0.0600
 1792ntf    sn211747  -0.033   0.823   2.189 -0.4242  0.1312 -0.0807
 1792ntf    nn311748  -0.040   0.666   2.190 -0.8745  0.1514  0.0307
 1792ntf    sn211749  -0.063   0.568   2.311 -0.3749 -0.0085 -0.0032
 1792ntf    cn111750  -0.244   0.558   2.326 -0.3770 -0.1528 -0.1074
 1792ntf    fn411751   0.166   0.993   2.219  0.0109 -0.2220 -0.4007
 1792ntf    fn411752   0.175   0.835   2.356  0.2933 -0.4757 -0.3363
 1792ntf    fn411753   0.229   0.802   2.157  0.1070  0.0669  0.3590
 1792ntf    on511754  -0.125   0.882   2.283 -0.0146 -0.4341  0.7009
 1792ntf    on511755  -0.034   0.880   2.057  0.5969 -0.2247 -0.2502
 1792ntf    on511756  -0.026   0.615   2.442 -0.6924  0.0805  0.0559
 1792ntf    on511757  -0.023   0.433   2.278 -0.2479  0.1077 -0.3289
 1792ntf    fn411758  -0.296   0.676   2.358 -0.2353 -0.2194  0.3790
 1792ntf    fn411759  -0.304   0.510   2.219 -0.2341  0.0857 -0.2957
 1792ntf    fn411760  -0.282   0.480   2.425  0.8787 -0.2335  0.3311
 1793ntf    cn111761   0.024   4.615   5.385 -0.3357  0.4109 -0.0293
 1793ntf    sn211762   0.053   4.683   5.219 -0.2040  0.1886 -0.0985
 1793ntf    nn311763  -0.087   4.665   5.150 -0.3860 -0.2451  0.3816
 1793ntf    sn211764  -0.121   4.570   5.030  0.1394  0.4210 -0.2996
 1793ntf    cn111765  -0.148   4.697   4.902 -0.1176 -0.1246 -0.7904
 1793ntf    fn411766  -0.087   4.668   5.434 -0.2238  0.4720  0.1622
 1793ntf    fn411767   0.000   4.485   5.385  0.2133  0.3075  0.1404
 1793ntf    fn411768   0.120   4.643   5.473  0.1491 -0.4783 -0.2683
 1793ntf    on511769   0.096   4.820   5.238 -0.1927  0.1466  0.1766
 1793ntf    on511770   0.164   4.608   5.165 -0.0377  0.1259  0.3293
 1793ntf    on511771  -0.251   4.511   5.047  0.1992  0.2110 -0.5559
 1793ntf    on511772  -0.020   4.481   4.980 -0.1030 -0.0489  0.0404
 1793ntf    fn411773  -0.204   4.652   4.791 -0.1074 -0.4630 -0.6590
 1793ntf    fn411774  -0.238   4.787   4.939  0.3271  0.0264 -0.0603
 1793ntf    fn411775  -0.034   4.754   4.866 -0.1159  0.6355  0.3621
 1794ntf    cn111776   2.703   5.194   6.644 -0.4308 -0.1070  0.7201
 1794ntf    sn211777   2.766   5.358   6.597 -0.2962 -0.3995 -0.1271
 1794ntf    nn311778   2.660   5.384   6.483 -0.0969 -0.1195 -0.2499
 1794ntf    sn211779   2.627   5.518   6.408 -0.0763  0.0011 -0.0433
 1794ntf    cn111780   2.480   5.577   6.497  0.1349  0.5258 -0.0377
 1794ntf    fn411781   2.724   5.106   6.548 -0.2761  0.5560  0.1342
 1794ntf    fn411782   2.775   5.145   6.744 -0.0049  0.4955  0.7127
 1794ntf    fn411783   2.573   5.202   6.671 -0.4641  0.5148  0.3987
 1794ntf    on511784   2.742   5.444   6.710 -0.0744 -0.3235 -0.1380
 1794ntf    on511785   2.902   5.335   6.557 -0.2342 -0.2022 -0.0312
 1794ntf    on511786   2.593   5.493   6.270  0.6577 -0.3123 -0.1725
 1794ntf    on511787   2.727   5.620   6.427 -0.6543  0.5240  0.2253
 1794ntf    fn411788   2.498   5.630   6.616 -0.4087  0.5404  0.0397
 1794ntf    fn411789   2.427   5.677   6.428 -0.5340 -0.0391 -0.3573
 1794ntf    fn411790   2.389   5.481   6.508  0.0865  0.5735 -0.0197
 1795ntf    cn111791   3.897   2.357   2.755 -0.1385 -0.1033 -0.0738
 1795ntf    sn211792   3.905   2.522   2.832  0.1111 -0.1325 -0.0374
 1795ntf    nn311793   4.059   2.525   2.862  0.0880 -0.3118  0.1012
 1795ntf    sn211794   4.134   2.650   2.920 -0.5191  0.0918  0.0269
 1795ntf    cn111795   4.172   2.585   3.086 -0.2558  0.0815 -0.0369
 1795ntf    fn411796   3.927   2.265   2.845  0.2161  0.0230 -0.0629
 1795ntf    fn411797   3.775   2.335   2.709 -0.0042  0.4655 -0.7251
 1795ntf    fn411798   3.978   2.342   2.652  0.3223  0.1074  0.2549
 1795ntf    on511799   3.865   2.601   2.718  0.1595 -0.0917 -0.0264
 1795ntf    on511800   3.816   2.505   2.943  0.0492  0.8472  0.0728
 1795ntf    on511801   4.053   2.768   2.939 -0.2244  0.2779  0.1386
 1795ntf    on511802   4.260   2.666   2.852 -0.2514 -0.5036  0.3768
 1795ntf    fn411803   4.187   2.685   3.171 -0.4404 -0.2418  0.3799
 1795ntf    fn411804   4.063   2.513   3.111 -0.1700 -0.0853 -0.1359
 1795ntf    fn411805   4.275   2.502   3.088  0.0044  0.4052  0.0491
 1796ntf    cn111806   4.274   5.738   5.711 -0.2949  0.0060  0.1271
 1796ntf    sn211807   4.440   5.709   5.642 -0.3490  0.3128 -0.1369
 1796ntf    nn311808   4.416   5.571   5.572 -0.5165  0.3403 -0.1355
 1796ntf    sn211809   4.443   5.525   5.424 -0.0861  0.0654  0.0257
 1796ntf    cn111810   4.489   5.351   5.445 -0.0052  0.0794 -0.0359
 1796ntf    fn411811   4.262   5.845   5.788  0.0322 -0.2006  0.4669
 1796ntf    fn411812   4.192   5.760   5.609  0.0025 -0.2576 -0.1667
 1796ntf    fn411813   4.221   5.636   5.777 -0.5847  0.0537 -0.0251
 1796ntf    on511814   4.473   5.824   5.562  0.3350  0.4469  0.3329
 1796ntf    on511815   4.516   5.691   5.764  0.2487 -0.1473 -0.5716
 1796ntf    on511816   4.552   5.595   5.360  0.1510 -0.2295  0.1087
 1796ntf    on511817   4.316   5.527   5.357  0.0919 -0.2775 -0.3227
 1796ntf    fn411818   4.396   5.282   5.509  0.2330 -0.1002  0.1194
 1796ntf    fn411819   4.522   5.299   5.327 -0.3792 -0.2302 -0.0089
 1796ntf    fn411820   4.594   5.348   5.524 -0.1060  0.2903  0.1073
 1797ntf    cn111821   3.508   6.513   0.153 -0.1657 -0.2079 -0.0244
 1797ntf    sn211822   3.544   6.461   0.323  0.2295  0.1949  0.0143
 1797ntf    nn311823   3.640   6.576   0.370  0.1628  0.1831  0.1798
 1797ntf    sn211824   3.701   6.591   0.515  0.1509 -0.1291  0.2173
 1797ntf    cn111825   3.640   6.750   0.579 -0.1459 -0.0902 -0.1491
 1797ntf    fn411826   3.426   6.430   0.090 -0.2744 -0.3709  0.3346
 1797ntf    fn411827   3.448   6.631   0.154 -0.0329 -0.1381 -0.2937
 1797ntf    fn411828   3.625   6.526   0.093 -0.2474  0.4282 -0.0564
 1797ntf    on511829   3.414   6.463   0.385  0.5766  0.3195  0.7522
 1797ntf    on511830   3.605   6.331   0.309  0.0367  0.0872  0.1740
 1797ntf    on511831   3.842   6.619   0.512  0.0819  0.3037  0.9477
 1797ntf    on511832   3.659   6.488   0.606 -0.4050 -0.1534 -0.0592
 1797ntf    fn411833   3.654   6.846   0.490  0.2076  0.2812  0.3066
 1797ntf    fn411834   3.513   6.742   0.614 -0.0748  0.0032  0.1366
 1797ntf    fn411835   3.711   6.787   0.685 -0.3207 -0.1986  0.0068
 1798ntf    cn111836   1.892   2.536   5.195  0.1184 -0.2217  0.2344
 1798ntf    sn211837   1.967   2.378   5.144  0.0605 -0.1654 -0.0295
 1798ntf    nn311838   2.119   2.415   5.129  0.0284 -0.0729 -0.1333
 1798ntf    sn211839   2.217   2.418   5.006 -0.0470 -0.0762 -0.1936
 1798ntf    cn111840   2.276   2.246   5.002 -0.3821 -0.1989  0.0557
 1798ntf    fn411841   1.760   2.521   5.190  0.0664  0.3082 -0.0755
 1798ntf    fn411842   1.939   2.568   5.314 -0.1531  0.1605  0.2410
 1798ntf    fn411843   1.922   2.634   5.111 -0.5884 -0.1987 -0.0049
 1798ntf    on511844   1.953   2.289   5.256  0.1183 -0.0770  0.0482
 1798ntf    on511845   1.894   2.354   5.022  0.1632  0.5295 -0.2358
 1798ntf    on511846   2.341   2.487   5.033  0.0280 -0.1281 -0.4058
 1798ntf    on511847   2.158   2.431   4.876  0.0450 -0.3524 -0.2634
 1798ntf    fn411848   2.359   2.229   4.900 -0.1853  0.8670  0.0316
 1798ntf    fn411849   2.343   2.209   5.111  0.8223  0.3302 -0.4867
 1798ntf    fn411850   2.181   2.156   4.982 -0.3224 -0.2508  0.0060
 1799ntf    cn111851   5.611   2.333   6.336  0.2312 -0.3415 -0.0694
 1799ntf    sn211852   5.721   2.465   6.276  0.1613 -0.1655  0.1830
 1799ntf    nn311853   5.835   2.471   6.383  0.1419 -0.3679  0.2157
 1799ntf    sn211854   5.986   2.515   6.372  0.0122 -0.0310 -0.2470
 1799ntf    cn111855   6.078   2.359   6.361  0.4360  0.1877  0.1953
 1799ntf    fn411856   5.669   2.217   6.359  0.2887 -0.3964 -0.4904
 1799ntf    fn411857   5.551   2.373   6.447  0.2868  0.1587 -0.2162
 1799ntf    fn411858   5.517   2.308   6.247  0.2863 -0.1769 -0.1755
 1799ntf    on511859   5.762   2.415   6.147  0.1394 -0.9446  0.4758
 1799ntf    on511860   5.631   2.578   6.283 -0.4530 -0.6801  0.7377
 1799ntf    on511861   6.028   2.573   6.497  0.0555 -0.4908 -0.0465
 1799ntf    on511862   6.028   2.587   6.255 -0.3303  0.2635 -0.1923
 1799ntf    fn411863   6.209   2.373   6.379  0.5649 -0.2664 -0.3665
 1799ntf    fn411864   6.034   2.274   6.452  0.3033  0.5957  0.5199
 1799ntf    fn411865   6.055   2.294   6.249 -0.1591  0.2422  0.2827
 1800ntf    cn111866   1.643   2.046   5.592 -0.0230  0.7820  0.1450
 1800ntf    sn211867   1.596   2.064   5.766 -0.2283 -0.0217  0.1794
 1800ntf    nn311868   1.523   2.203   5.769 -0.1082  0.0534 -0.2814
 1800ntf    sn211869   1.489   2.289   5.896  0.1328 -0.2248 -0.0266
 1800ntf    cn111870   1.313   2.322   5.867  0.0716 -0.4297  0.1092
 1800ntf    fn411871   1.539   2.063   5.512 -0.0250  0.0795 -0.0172
 1800ntf    fn411872   1.732   2.138   5.560  0.7695 -0.0258 -0.0483
 1800ntf    fn411873   1.696   1.928   5.560 -0.2711  0.6488  0.2219
 1800ntf    on511874   1.504   1.954   5.773 -0.5422  0.2479  0.3260
 1800ntf    on511875   1.727   2.063   5.827 -0.2334  0.0748  0.1924
 1800ntf    on511876   1.542   2.423   5.892  0.0557 -0.1591  0.8851
 1800ntf    on511877   1.479   2.225   6.025  0.3284  0.0343  0.1190
 1800ntf    fn411878   1.259   2.397   5.962 -0.3376 -0.4276 -0.1199
 1800ntf    fn411879   1.301   2.401   5.762 -0.1840 -0.5656  0.0356
 1800ntf    fn411880   1.244   2.210   5.854 -0.4000 -0.1508  0.1974
 1801ntf    cn111881   4.521   6.660   4.748 -0.3669  0.4247 -0.1486
 1801ntf    sn211882   4.495   6.482   4.774  0.1841  0.3316 -0.2173
 1801ntf    nn311883   4.623   6.422   4.706  0.2371  0.4872 -0.2562
 1801ntf    sn211884   4.765   6.389   4.764  0.0329  0.0046 -0.0272
 1801ntf    cn111885   4.870   6.458   4.632 -0.4605  0.1988 -0.3201
 1801ntf    fn411886   4.641   6.705   4.783 -0.3824  0.3909 -0.0510
 1801ntf    fn411887   4.510   6.697   4.622 -0.4205 -0.3515 -0.3728
 1801ntf    fn411888   4.429   6.728   4.815 -0.3270  0.1661  0.1740
 1801ntf    on511889   4.479   6.459   4.915 -0.2452 -0.1309 -0.3384
 1801ntf    on511890   4.373   6.454   4.701  0.2779 -0.2725 -0.1429
 1801ntf    on511891   4.807   6.251   4.763 -0.4482 -0.1403 -0.4259
 1801ntf    on511892   4.803   6.470   4.878 -0.0684 -0.4272  0.3189
 1801ntf    fn411893   4.844   6.398   4.517 -0.4451 -0.1851 -0.1283
 1801ntf    fn411894   4.848   6.588   4.620 -0.2155  0.3019  0.2775
 1801ntf    fn411895   4.999   6.443   4.657 -0.6129 -0.2512  0.2296
 1802ntf    cn111896   3.609   3.129   6.530 -0.3416 -0.6288  0.5793
 1802ntf    sn211897   3.636   3.267   6.646  0.0308 -0.0146 -0.2234
 1802ntf    nn311898   3.746   3.216   6.745  0.1060  0.1208 -0.2379
 1802ntf    sn211899   3.746   3.193   6.901 -0.0391  0.0357 -0.2501
 1802ntf    cn111900   3.788   3.016   6.906 -0.5772 -0.0987 -0.4120
 1802ntf    fn411901   3.587   3.018   6.597  0.3177 -0.8920  0.3714
 1802ntf    fn411902   3.510   3.157   6.447  0.2694 -0.4468 -0.1072
 1802ntf    fn411903   3.721   3.107   6.462 -0.2165  0.3310  0.4579
 1802ntf    on511904   3.690   3.376   6.568  0.5885 -0.5749 -0.6261
 1802ntf    on511905   3.507   3.288   6.706 -0.0211 -0.2217 -0.2602
 1802ntf    on511906   3.621   3.191   6.972  0.2207 -0.5286  0.1976
 1802ntf    on511907   3.859   3.252   6.967 -0.0981 -0.2002  0.0621
 1802ntf    fn411908   3.907   2.994   6.852 -0.3387  0.1468  0.0015
 1802ntf    fn411909   3.778   2.972   7.031  0.3725 -0.0890 -0.3264
 1802ntf    fn411910   3.705   2.939   6.837 -0.3838 -0.0958 -0.6475
 1803ntf    cn111911   6.519   3.123   6.621 -0.1485  0.1945 -0.5021
 1803ntf    sn211912   6.621   2.976   6.651 -0.0461  0.2973 -0.3439
 1803ntf    nn311913   6.509   2.867   6.666  0.2066  0.1175  0.2735
 1803ntf    sn211914   6.417   2.827   6.786 -0.2229  0.3891  0.0363
 1803ntf    cn111915   6.499   2.684   6.862 -0.2496  0.3253 -0.0546
 1803ntf    fn411916   6.446   3.142   6.730 -0.0504 -0.2926 -0.3517
 1803ntf    fn411917   6.593   3.230   6.598  0.0382  0.1502 -0.1180
 1803ntf    fn411918   6.432   3.102   6.523 -0.7928 -0.5217  0.2109
 1803ntf    on511919   6.693   2.963   6.526  0.6837  0.0773  0.0932
 1803ntf    on511920   6.697   2.996   6.772 -0.0954 -0.2733 -0.2146
 1803ntf    on511921   6.294   2.772   6.734  0.4787 -0.6475 -0.5559
 1803ntf    on511922   6.408   2.923   6.893  0.3452  0.0770  0.3662
 1803ntf    fn411923   6.419   2.638   6.957  0.9911 -0.0877  0.8249
 1803ntf    fn411924   6.524   2.584   6.779 -0.4219  0.1316  0.1276
 1803ntf    fn411925   6.610   2.722   6.924 -0.4017  0.3682  0.1930
 1804ntf    cn111926   5.379   2.079   6.532  0.0705  0.1437  0.1445
 1804ntf    sn211927   5.469   2.023   6.680  0.1775  0.3084  0.1425
 1804ntf    nn311928   5.448   1.868   6.666  0.5902  0.2693 -0.0523
 1804ntf    sn211929   5.418   1.766   6.782  0.2621  0.0661 -0.3132
 1804ntf    cn111930   5.290   1.668   6.698 -0.1770  0.0298  0.3923
 1804ntf    fn411931   5.326   2.199   6.548 -0.2140 -0.0126  0.3717
 1804ntf    fn411932   5.458   2.090   6.426 -0.0091  0.7631  0.1454
 1804ntf    fn411933   5.277   2.002   6.499  0.0320  0.2670 -0.0235
 1804ntf    on511934   5.606   2.062   6.660  0.1347  0.3840 -0.0080
 1804ntf    on511935   5.385   2.088   6.777  0.1601 -0.1471  0.4376
 1804ntf    on511936   5.351   1.816   6.900  0.2119 -0.6908 -0.0193
 1804ntf    on511937   5.528   1.673   6.792  0.5521  0.4198 -0.1977
 1804ntf    fn411938   5.326   1.620   6.580  0.0121  0.1902  0.3854
 1804ntf    fn411939   5.256   1.563   6.772 -0.0916  0.1721  0.6355
 1804ntf    fn411940   5.177   1.737   6.687 -0.0567  0.2391  0.4648
 1805ntf    cn111941   2.355   0.266   6.451  0.0868 -0.0579  0.0005
 1805ntf    sn211942   2.184   0.326   6.463  0.0221 -0.2568  0.0716
 1805ntf    nn311943   2.195   0.460   6.383  0.3837 -0.0472  0.4645
 1805ntf    sn211944   2.242   0.600   6.437  0.3493  0.0757  0.1785
 1805ntf    cn111945   2.085   0.672   6.493  0.2428  0.0076 -0.0292
 1805ntf    fn411946   2.389   0.180   6.545  0.0139  0.1302  0.1987
 1805ntf    fn411947   2.371   0.206   6.334 -0.4202 -0.1822 -0.0073
 1805ntf    fn411948   2.447   0.361   6.461  0.2346 -0.1971 -0.0228
 1805ntf    on511949   2.099   0.234   6.392 -0.2261 -0.0275  0.0716
 1805ntf    on511950   2.156   0.331   6.605  0.0385 -0.3692  0.0791
 1805ntf    on511951   2.285   0.692   6.334 -0.8955  0.3976 -0.0705
 1805ntf    on511952   2.317   0.604   6.559  0.3243  0.1629  0.1908
 1805ntf    fn411953   2.096   0.800   6.525 -0.2522  0.0057  0.1644
 1805ntf    fn411954   1.993   0.666   6.398 -0.0548 -0.1191  0.2642
 1805ntf    fn411955   2.029   0.608   6.595  0.8508  0.3825  0.5463
 1806ntf    cn111956   2.825   5.660   3.501  0.1285  0.4301  0.0497
 1806ntf    sn211957   2.765   5.663   3.673 -0.0989 -0.2062 -0.0165
 1806ntf    nn311958   2.887   5.742   3.730 -0.3173  0.3833 -0.3579
 1806ntf    sn211959   2.892   5.846   3.848 -0.5168  0.1196 -0.1145
 1806ntf    cn111960   2.862   6.010   3.775 -0.0381  0.2197 -0.0905
 1806ntf    fn411961   2.838   5.782   3.452  0.3044  0.1866 -0.5132
 1806ntf    fn411962   2.947   5.609   3.497  0.1179  0.4229 -0.2348
 1806ntf    fn411963   2.760   5.585   3.413  0.2929 -0.4384  0.6552
 1806ntf    on511964   2.642   5.737   3.660  0.1412  0.1332 -0.3673
 1806ntf    on511965   2.763   5.524   3.713  0.1563 -0.1270  0.2692
 1806ntf    on511966   3.029   5.855   3.891 -0.5735 -0.5406  0.2063
 1806ntf    on511967   2.797   5.823   3.954 -0.0006 -0.4510  0.2307
 1806ntf    fn411968   2.958   6.043   3.691  0.6580  0.4002  0.7612
 1806ntf    fn411969   2.750   6.031   3.708 -0.1986 -0.5673 -0.0787
 1806ntf    fn411970   2.860   6.104   3.868  0.1935  0.0445  0.0924
 1807ntf    cn111971   5.931   1.302   3.014  0.1570  0.1987  0.0798
 1807ntf    sn211972   6.011   1.138   3.016 -0.0212  0.1007 -0.5808
 1807ntf    nn311973   5.894   1.053   2.954  0.1848 -0.5185 -0.1300
 1807ntf    sn211974   5.889   0.952   2.834 -0.1369 -0.0613 -0.5080
 1807ntf    cn111975   5.855   0.803   2.934 -0.0457  0.2323 -0.0375
 1807ntf    fn411976   5.861   1.311   3.126 -0.0016  0.1363 -0.0138
 1807ntf    fn411977   6.018   1.402   3.019  0.0782  0.2630  0.1568
 1807ntf    fn411978   5.853   1.322   2.909 -0.1715 -0.2631  0.2340
 1807ntf    on511979   6.119   1.165   2.925  0.0593  0.3054 -0.4261
 1807ntf    on511980   6.040   1.107   3.154  0.0029 -0.3250 -0.6806
 1807ntf    on511981   6.004   0.929   2.750 -0.2203 -0.2798 -0.5629
 1807ntf    on511982   5.764   0.979   2.767 -0.4571  0.0873  0.1357
 1807ntf    fn411983   5.809   0.707   2.856  0.5070  0.3396 -0.5076
 1807ntf    fn411984   5.959   0.756   3.000 -0.4152 -0.5709 -0.0210
 1807ntf    fn411985   5.765   0.835   3.026 -0.4098  0.0051 -0.3102
 1808ntf    cn111986   3.697   5.301   3.951 -0.6693 -0.0431 -0.3717
 1808ntf    sn211987   3.640   5.151   4.036 -0.2480 -0.1005 -0.1921
 1808ntf    nn311988   3.584   5.213   4.169  0.1589  1.2080 -0.6167
 1808ntf    sn211989   3.436   5.243   4.213 -0.0308 -0.3928 -0.1137
 1808ntf    cn111990   3.457   5.408   4.288  0.3138 -0.4110 -0.1711
 1808ntf    fn411991   3.755   5.277   3.834  0.0032  0.9755 -0.2659
 1808ntf    fn411992   3.599   5.385   3.921 -0.6223  0.1776  0.0858
 1808ntf    fn411993   3.782   5.376   4.019 -0.4389 -0.3673 -0.2979
 1808ntf    on511994   3.542   5.103   3.943 -0.8127  0.6227  0.0169
 1808ntf    on511995   3.770   5.093   4.057  0.0404  0.5367 -0.1710
 1808ntf    on511996   3.386   5.164   4.323  0.0687  0.1045  0.2919
 1808ntf    on511997   3.350   5.271   4.102 -0.1794  0.3495  0.1799
 1808ntf    fn411998   3.447   5.497   4.191 -0.8377 -0.1908  0.1414
 1808ntf    fn411999   3.366   5.444   4.376  0.0817  0.3964 -0.7353
 1808ntf    fn412000   3.577   5.429   4.340  0.0124 -0.2707  0.4621
 1809ntf    cn112001   1.254   3.686   2.366 -0.5939 -0.2943 -0.0889
 1809ntf    sn212002   1.205   3.657   2.539  0.2003 -0.2717  0.1436
 1809ntf    nn312003   1.124   3.788   2.567  0.2680 -0.2385  0.1865
 1809ntf    sn212004   1.193   3.909   2.639 -0.0864  0.1319 -0.0898
 1809ntf    cn112005   1.064   4.035   2.613 -0.2616 -0.0298 -0.0098
 1809ntf    fn412006   1.374   3.740   2.360 -0.6262 -0.2627 -0.4430
 1809ntf    fn412007   1.258   3.576   2.293  0.1052 -0.3537  0.0320
 1809ntf    fn412008   1.169   3.769   2.309 -0.1715 -0.1821 -0.5553
 1809ntf    on512009   1.125   3.538   2.523 -0.2630 -0.0132  0.5146
 1809ntf    on512010   1.325   3.635   2.616  0.4591 -0.2289 -0.2422
 1809ntf    on512011   1.310   3.958   2.571 -0.1826 -0.3699 -0.6217
 1809ntf    on512012   1.189   3.895   2.783  0.3854 -0.6970 -0.1556
 1809ntf    fn412013   1.057   4.066   2.485 -0.2357 -0.1159 -0.0321
 1809ntf    fn412014   0.941   3.997   2.642 -0.1351 -0.5200 -0.1081
 1809ntf    fn412015   1.099   4.147   2.676  0.3291 -0.2435  0.0566
 1810ntf    cn112016   4.606   0.047   1.754 -0.2449  0.1931 -0.0386
 1810ntf    sn212017   4.784   0.026   1.786 -0.3331  0.0279  0.3518
 1810ntf    nn312018   4.843   0.136   1.690 -0.1430  0.0184  0.4577
 1810ntf    sn212019   4.974   0.115   1.606 -0.3629  0.0416  0.1028
 1810ntf    cn112020   4.925   0.040   1.448  0.1437 -0.1332  0.0254
 1810ntf    fn412021   4.564   0.168   1.721 -0.0799  0.2663  0.0199
 1810ntf    fn412022   4.565  -0.029   1.653  0.5767 -0.3103  0.0028
 1810ntf    fn412023   4.528   0.004   1.852 -0.4323  0.4840 -0.0598
 1810ntf    on512024   4.784   0.066   1.924 -0.2149  0.6199  0.1834
 1810ntf    on512025   4.806  -0.112   1.751  0.2346  0.1785  0.0993
 1810ntf    on512026   5.066   0.020   1.665 -0.5597 -0.4595 -0.3955
 1810ntf    on512027   5.031   0.241   1.566  0.1252 -0.1435  0.2102
 1810ntf    fn412028   4.841  -0.059   1.476 -0.1839  0.1645  0.0988
 1810ntf    fn412029   4.852   0.120   1.372  0.6628  0.5979  0.2892
 1810ntf    fn412030   5.028  -0.011   1.383  0.2196 -0.0574  0.0852
 1811ntf    cn112031   0.432   3.317   6.553  0.1518 -0.0271 -0.0001
 1811ntf    sn212032   0.433   3.490   6.498 -0.0259 -0.0874 -0.1950
 1811ntf    nn312033   0.318   3.493   6.390 -0.0168  0.1139 -0.1995
 1811ntf    sn212034   0.320   3.433   6.245 -0.0485 -0.4761  0.0448
 1811ntf    cn112035   0.241   3.567   6.150  0.1939 -0.0224  0.4801
 1811ntf    fn412036   0.313   3.261   6.568  0.0790 -0.0185 -0.5289
 1811ntf    fn412037   0.504   3.236   6.476  0.1483  0.2143 -0.2580
 1811ntf    fn412038   0.480   3.305   6.676  0.5212  0.2890 -0.1115
 1811ntf    on512039   0.386   3.557   6.616  0.6248 -0.0237  0.0300
 1811ntf    on512040   0.565   3.521   6.449 -0.0449 -0.5302 -0.5351
 1811ntf    on512041   0.227   3.325   6.221 -0.2642 -0.2291 -0.2253
 1811ntf    on512042   0.450   3.418   6.185  0.2889  0.2255  0.5809
 1811ntf    fn412043   0.201   3.536   6.028 -0.2533  0.0507  0.6092
 1811ntf    fn412044   0.136   3.610   6.218 -0.1813  0.4019 -0.3643
 1811ntf    fn412045   0.324   3.669   6.136  0.2431 -0.0800  0.3552
 1812ntf    cn112046   0.246   0.593   5.645  0.3449  0.0138 -0.4907
 1812ntf    sn212047   0.395   0.543   5.735  0.1188 -0.2768 -0.2793
 1812ntf    nn312048   0.442   0.428   5.640  0.0247 -0.0140 -0.6431
 1812ntf    sn212049   0.588   0.375   5.616  0.0895 -0.1303  0.0051
 1812ntf    cn112050   0.554   0.197   5.618 -0.1196 -0.0922 -0.2155
 1812ntf    fn412051   0.278   0.658   5.534 -0.0580  0.4148 -0.3782
 1812ntf    fn412052   0.159   0.498   5.614  0.2972 -0.0047 -0.3018
 1812ntf    fn412053   0.184   0.687   5.714 -0.1236 -0.7151  0.0880
 1812ntf    on512054   0.479   0.660   5.731 -0.4755  0.1632 -0.0648
 1812ntf    on512055   0.341   0.512   5.866  0.1060  0.1978 -0.1707
 1812ntf    on512056   0.684   0.391   5.723  0.3083 -0.3999 -0.1491
 1812ntf    on512057   0.628   0.402   5.480 -0.1632 -0.3382 -0.1120
 1812ntf    fn412058   0.658   0.125   5.579 -0.0740 -0.0184 -0.2298
 1812ntf    fn412059   0.519   0.157   5.739 -0.1201  0.0705 -0.1625
 1812ntf    fn412060   0.455   0.165   5.535 -0.4284 -0.4909  0.3021
 1813ntf    cn112061   3.381   4.060   6.022 -0.2627 -0.0754  0.0249
 1813ntf    sn212062   3.278   4.077   6.171 -0.1554 -0.1570  0.1097
 1813ntf    nn312063   3.215   3.934   6.185  0.3427 -0.3786  0.1032
 1813ntf    sn212064   3.074   3.890   6.131  0.0208  0.6252  0.1059
 1813ntf    cn112065   2.964   3.948   6.263 -0.3041  0.1455  0.0460
 1813ntf    fn412066   3.462   3.956   6.028 -0.8566 -0.5367  0.1963
 1813ntf    fn412067   3.302   4.036   5.919 -0.0572  0.1529 -0.1870
 1813ntf    fn412068   3.456   4.165   5.992 -0.3462 -0.1792 -0.5633
 1813ntf    on512069   3.378   4.093   6.273  0.0017 -0.4101 -0.0061
 1813ntf    on512070   3.196   4.195   6.150  0.5371  0.2659 -0.2479
 1813ntf    on512071   3.073   3.747   6.145  0.1297  0.6271  0.1345
 1813ntf    on512072   3.024   3.956   6.012  0.1027  0.5764  0.0436
 1813ntf    fn412073   2.845   3.890   6.268 -0.0436 -0.3696  0.3732
 1813ntf    fn412074   3.019   3.912   6.378  0.2747  0.6653 -0.0678
 1813ntf    fn412075   2.953   4.079   6.268 -0.4574  0.1296  0.1412
 1814ntf    cn112076   0.808   0.189   5.214  0.0963 -0.6550 -0.5402
 1814ntf    sn212077   0.680   0.179   5.086 -0.3146  0.2395 -0.2102
 1814ntf    nn312078   0.758   0.239   4.963  0.1015  0.0114 -0.0576
 1814ntf    sn212079   0.721   0.365   4.877  0.1315 -0.0680 -0.1876
 1814ntf    cn112080   0.691   0.294   4.712 -0.1051 -0.0956 -0.1331
 1814ntf    fn412081   0.766   0.156   5.336  0.2115 -0.5023 -0.4586
 1814ntf    fn412082   0.910   0.110   5.186  0.4691 -0.3776  0.0146
 1814ntf    fn412083   0.853   0.313   5.225 -0.3565 -0.5612  0.3725
 1814ntf    on512084   0.653   0.039   5.064  0.0110  0.1590 -0.0912
 1814ntf    on512085   0.575   0.262   5.140 -0.1110  0.4981 -0.2075
 1814ntf    on512086   0.841   0.440   4.850  0.2674 -0.3232 -0.3014
 1814ntf    on512087   0.597   0.432   4.908  0.7110  0.8164  0.2709
 1814ntf    fn412088   0.812   0.280   4.658  0.2438 -0.1949  0.6516
 1814ntf    fn412089   0.633   0.175   4.710  0.4349 -0.3679  0.0030
 1814ntf    fn412090   0.623   0.369   4.628  0.1740  0.6944  0.3376
 1815ntf    cn112091   0.936   1.358   2.907  0.3168  0.2658 -0.4206
 1815ntf    sn212092   0.882   1.480   2.784 -0.0415  0.3248 -0.2054
 1815ntf    nn312093   0.801   1.583   2.870 -0.0466 -0.2047  0.4275
 1815ntf    sn212094   0.808   1.739   2.855 -0.3169 -0.2091  0.2374
 1815ntf    cn112095   0.671   1.794   2.960  0.0663  0.4145  0.4183
 1815ntf    fn412096   1.025   1.269   2.867 -0.0556 -0.5164  0.4537
 1815ntf    fn412097   0.987   1.412   3.017 -0.1024  0.0723 -0.1303
 1815ntf    fn412098   0.834   1.289   2.955  0.3615  0.1463 -0.4983
 1815ntf    on512099   1.009   1.527   2.734  0.4774 -0.2299  0.5648
 1815ntf    on512100   0.801   1.403   2.693  0.2164 -0.4277  0.1986
 1815ntf    on512101   0.771   1.785   2.724 -0.2105 -0.0646  0.2569
 1815ntf    on512102   0.922   1.801   2.920 -0.5741  0.0476  0.4463
 1815ntf    fn412103   0.619   1.688   3.019 -0.0218  0.0545 -0.2951
 1815ntf    fn412104   0.711   1.881   3.051 -0.3454  0.5779  0.4477
 1815ntf    fn412105   0.571   1.851   2.894 -0.1685  0.1916  0.5771
 1816ntf    cn112106   5.160   1.961   2.962 -0.3621  0.1385  0.2260
 1816ntf    sn212107   5.234   1.916   3.121  0.2753 -0.0214 -0.1126
 1816ntf    nn312108   5.134   1.799   3.155  0.3045 -0.0623 -0.1682
 1816ntf    sn212109   5.149   1.644   3.132  0.4202 -0.0626 -0.0940
 1816ntf    cn112110   5.189   1.585   3.299 -0.2346  0.3865  0.2293
 1816ntf    fn412111   5.132   1.858   2.884  0.2444 -0.0390  0.2328
 1816ntf    fn412112   5.045   2.024   2.980 -0.3566  0.1924  0.0800
 1816ntf    fn412113   5.231   2.044   2.887 -0.4876  0.1804  0.1539
 1816ntf    on512114   5.370   1.870   3.101  0.3265  0.1941 -0.2590
 1816ntf    on512115   5.214   2.039   3.193  0.4531  0.0071 -0.1100
 1816ntf    on512116   5.260   1.606   3.049  0.4880 -0.0936  0.0102
 1816ntf    on512117   5.020   1.586   3.102  0.2344  0.3388 -0.0847
 1816ntf    fn412118   5.295   1.646   3.349  0.4835 -0.3015 -0.4319
 1816ntf    fn412119   5.091   1.610   3.384  0.2442  0.2003  0.8425
 1816ntf    fn412120   5.212   1.455   3.307  0.3864  0.5046  0.4530
 1817ntf    cn112121   1.915   6.007   2.543  0.2674  0.1992  0.1926
 1817ntf    sn212122   1.862   5.856   2.630  0.0132  0.0728 -0.1796
 1817ntf    nn312123   1.971   5.758   2.574 -0.5977 -0.6845 -0.0546
 1817ntf    sn212124   1.986   5.694   2.431  0.4364 -0.2320 -0.1568
 1817ntf    cn112125   1.903   5.537   2.471  0.1355 -0.1605 -0.4918
 1817ntf    fn412126   1.871   6.115   2.606 -0.0633  0.0651  0.1950
 1817ntf    fn412127   2.045   6.005   2.519  0.2760  0.0175  0.2536
 1817ntf    fn412128   1.852   6.014   2.427 -0.1053  0.0817  0.3841
 1817ntf    on512129   1.887   5.902   2.765  0.1832  0.2221 -0.2601
 1817ntf    on512130   1.724   5.827   2.600 -0.1070 -0.0012  0.4278
 1817ntf    on512131   2.119   5.655   2.392  0.4271 -0.0506 -0.3710
 1817ntf    on512132   1.912   5.758   2.325  0.3128  0.4836  0.3555
 1817ntf    fn412133   1.964   5.453   2.554  0.1324  0.2008 -0.1204
 1817ntf    fn412134   1.783   5.560   2.522  0.5560 -0.2227  0.5609
 1817ntf    fn412135   1.894   5.463   2.362  0.0670 -0.5927 -0.1934
 1818ntf    cn112136   3.068   2.347   5.206  0.0871  0.1611  0.2528
 1818ntf    sn212137   3.055   2.329   5.386 -0.1495  0.2593  0.2458
 1818ntf    nn312138   3.187   2.399   5.433  0.1247 -0.4050  0.4706
 1818ntf    sn212139   3.207   2.539   5.500 -0.0770 -0.0797 -0.1420
 1818ntf    cn112140   3.274   2.491   5.662 -0.3392 -0.1855 -0.0656
 1818ntf    fn412141   3.074   2.473   5.167  0.1236  0.1830  0.3290
 1818ntf    fn412142   3.175   2.284   5.161  0.2173  0.0520  0.7110
 1818ntf    fn412143   2.963   2.294   5.144 -0.1954  0.3821  0.5367
 1818ntf    on512144   2.923   2.378   5.419 -0.0073  0.5759  0.3501
 1818ntf    on512145   3.083   2.189   5.404  0.8250  0.3664 -0.3517
 1818ntf    on512146   3.087   2.614   5.527 -0.2111 -0.4654  0.3547
 1818ntf    on512147   3.314   2.619   5.446 -0.6016  0.3782 -0.5167
 1818ntf    fn412148   3.396   2.442   5.648 -0.1014  0.3664  0.0504
 1818ntf    fn412149   3.291   2.591   5.748  0.2669 -0.3662  0.0227
 1818ntf    fn412150   3.213   2.394   5.729 -0.3581 -0.2357 -0.1550
 1819ntf    cn112151   4.077   1.886   4.383  0.1812  0.1372  0.3737
 1819ntf    sn212152   4.041   1.853   4.208 -0.3683  0.1638  0.4806
 1819ntf    nn312153   3.892   1.803   4.222 -0.2237 -0.4663 -0.1711
 1819ntf    sn212154   3.758   1.871   4.179 -0.0802 -0.0073  0.1017
 1819ntf    cn112155   3.755   1.820   4.005  0.1598 -0.0247  0.1034
 1819ntf    fn412156   3.973   1.856   4.458 -0.0008  0.1346  0.1217
 1819ntf    fn412157   4.177   1.814   4.430  0.2352 -0.0658 -0.0473
 1819ntf    fn412158   4.112   2.013   4.395 -0.1047  0.2111  0.4329
 1819ntf    on512159   4.049   1.982   4.145  0.5201  0.0192  0.2886
 1819ntf    on512160   4.131   1.746   4.172  0.1917  0.5688  0.6676
 1819ntf    on512161   3.758   2.016   4.178  0.1732 -0.0074 -0.0007
 1819ntf    on512162   3.642   1.804   4.233  0.0876 -0.3899 -0.0099
 1819ntf    fn412163   3.858   1.871   3.940 -0.1123  0.4099  0.0140
 1819ntf    fn412164   3.762   1.688   3.990  0.2187 -0.0357  0.2283
 1819ntf    fn412165   3.645   1.860   3.944  0.3792  1.0469  0.3970
 1820ntf    cn112166   1.435   5.393   1.274  0.1686 -0.0721  0.0783
 1820ntf    sn212167   1.524   5.242   1.225  0.0790 -0.1684  0.2123
 1820ntf    nn312168   1.606   5.220   1.357  0.2888 -0.2685  0.0657
 1820ntf    sn212169   1.577   5.123   1.478  0.2049 -0.0364  0.2332
 1820ntf    cn112170   1.708   4.998   1.460  0.1255 -0.0037 -0.6238
 1820ntf    fn412171   1.375   5.440   1.166 -0.2101 -0.1414  0.2581
 1820ntf    fn412172   1.343   5.370   1.366 -0.2766 -0.2687 -0.4130
 1820ntf    fn412173   1.526   5.480   1.314  0.5696 -0.1527 -0.6364
 1820ntf    on512174   1.411   5.158   1.195  0.2546 -0.3776  0.1393
 1820ntf    on512175   1.610   5.282   1.117  0.2623  0.2422  0.5080
 1820ntf    on512176   1.460   5.040   1.474 -0.2738  0.6488 -0.3356
 1820ntf    on512177   1.609   5.183   1.605  0.0212  0.5480  0.0077
 1820ntf    fn412178   1.736   4.933   1.572 -0.1573  0.2087 -0.4263
 1820ntf    fn412179   1.697   4.915   1.357 -0.3490 -0.6156 -0.0864
 1820ntf    fn412180   1.816   5.067   1.425 -0.1021  0.7529  0.1223
 1821ntf    cn112181   3.549   0.527   1.912  0.0532  0.3413 -0.2841
 1821ntf    sn212182   3.704   0.466   1.838  0.1753  0.1605  0.1191
 1821ntf    nn312183   3.733   0.603   1.767  0.1286  0.2335  0.2400
 1821ntf    sn212184   3.810   0.727   1.825  0.2704  0.1889  0.1483
 1821ntf    cn112185   3.980   0.667   1.803  0.0743 -0.3986  0.2082
 1821ntf    fn412186   3.452   0.535   1.822 -0.1019  0.5891 -0.0973
 1821ntf    fn412187   3.508   0.438   2.001  0.0756  0.1891 -0.4236
 1821ntf    fn412188   3.554   0.637   1.985 -0.1667 -0.0076  0.2635
 1821ntf    on512189   3.781   0.438   1.957  0.5575  0.6150 -0.0199
 1821ntf    on512190   3.659   0.355   1.758  0.3226  0.1342  0.0728
 1821ntf    on512191   3.800   0.755   1.967 -0.5982 -0.0926  0.1498
 1821ntf    on512192   3.788   0.841   1.740 -0.0481  0.2643  0.3260
 1821ntf    fn412193   4.011   0.554   1.863  0.5503  0.1976  1.1080
 1821ntf    fn412194   4.003   0.640   1.676 -0.2595  0.0157  0.0570
 1821ntf    fn412195   4.063   0.757   1.853 -0.3265  0.1003 -0.0185
 1822ntf    cn112196   2.852   3.111   3.953  0.0651 -0.2624  0.2529
 1822ntf    sn212197   2.697   3.177   3.884  0.0623 -0.5155  0.0181
 1822ntf    nn312198   2.610   3.047   3.873  0.2813 -0.6873  0.3186
 1822ntf    sn212199   2.459   3.022   3.909  0.1890 -0.0091  0.4073
 1822ntf    cn112200   2.410   2.905   3.779 -0.0831  0.2878  0.2416
 1822ntf    fn412201   2.932   3.210   3.988  0.0707  0.0088 -0.5208
 1822ntf    fn412202   2.832   3.040   4.063  1.0034 -0.4254  0.3205
 1822ntf    fn412203   2.914   3.035   3.865 -0.1420  0.1911 -0.2881
 1822ntf    on512204   2.660   3.276   3.982  0.3692 -0.3127 -0.0669
 1822ntf    on512205   2.736   3.225   3.754  0.5598  0.7648  0.6249
 1822ntf    on512206   2.362   3.127   3.894 -0.2844 -0.4692  0.2324
 1822ntf    on512207   2.442   2.941   4.027  0.0392 -0.2590  0.2158
 1822ntf    fn412208   2.438   2.965   3.664  0.4847 -0.2823  0.0758
 1822ntf    fn412209   2.471   2.788   3.778 -0.6026  0.0153 -0.3229
 1822ntf    fn412210   2.282   2.871   3.779  0.0487 -0.2152  0.1308
 1823ntf    cn112211   3.622   2.972   3.711 -0.4078 -0.2823 -0.1992
 1823ntf    sn212212   3.590   3.041   3.546  0.1553  0.0432 -0.1751
 1823ntf    nn312213   3.433   3.049   3.543  0.1516  0.0676  0.1095
 1823ntf    sn212214   3.347   3.175   3.582  0.1335  0.0879  0.0040
 1823ntf    cn112215   3.340   3.264   3.424 -0.4027  0.5518  0.2859
 1823ntf    fn412216   3.750   2.947   3.732 -0.4428 -0.2622  0.0342
 1823ntf    fn412217   3.590   3.050   3.813 -0.4186 -0.4866 -0.0454
 1823ntf    fn412218   3.547   2.864   3.727 -0.0216 -0.5049  0.1091
 1823ntf    on512219   3.663   3.165   3.553  0.0118  0.0752  0.9286
 1823ntf    on512220   3.635   2.938   3.456  0.0464 -0.3100  0.1766
 1823ntf    on512221   3.399   3.273   3.674  0.8344  0.0174 -0.3089
 1823ntf    on512222   3.210   3.135   3.597  0.1957  0.1855  0.8666
 1823ntf    fn412223   3.459   3.307   3.385 -0.1759 -0.1994  0.1397
 1823ntf    fn412224   3.279   3.184   3.337 -0.1726  0.1954  0.4505
 1823ntf    fn412225   3.259   3.368   3.432 -0.7987  0.2406  0.3415
 1824ntf    cn112226   4.321   1.042   3.838 -0.2397  0.0522 -0.2488
 1824ntf    sn212227   4.237   1.138   3.967 -0.1048  0.0932 -0.1906
 1824ntf    nn312228   4.355   1.191   4.056  0.0683 -0.1121 -0.2980
 1824ntf    sn212229   4.438   1.116   4.166 -0.2181 -0.0667 -0.0507
 1824ntf    cn112230   4.353   1.159   4.321 -0.1707 -0.2474  0.0262
 1824ntf    fn412231   4.402   1.116   3.763 -0.3371  0.4089 -0.0048
 1824ntf    fn412232   4.406   0.954   3.888 -0.2786  0.1100 -0.0814
 1824ntf    fn412233   4.246   0.979   3.749 -0.4437  0.1808 -0.1700
 1824ntf    on512234   4.174   1.245   3.893  0.5788  0.2979 -0.4832
 1824ntf    on512235   4.145   1.043   4.025  0.3080 -0.2347 -0.0695
 1824ntf    on512236   4.569   1.174   4.183 -0.2992  0.0349  0.2426
 1824ntf    on512237   4.429   0.972   4.165 -0.1275 -0.0697 -0.7210
 1824ntf    fn412238   4.428   1.133   4.426 -0.0164 -0.1986 -0.0702
 1824ntf    fn412239   4.319   1.287   4.329  0.5723 -0.0243 -0.3214
 1824ntf    fn412240   4.243   1.087   4.331 -0.3625  0.0098 -0.1929
 1825ntf    cn112241   3.385   1.922   2.473 -0.0918 -0.1630  0.3141
 1825ntf    sn212242   3.470   2.083   2.462 -0.3101 -0.0558  0.1812
 1825ntf    nn312243   3.542   2.080   2.323 -0.6056 -0.4808  0.0349
 1825ntf    sn212244   3.497   2.144   2.187 -0.1281 -0.1726  0.0188
 1825ntf    cn112245   3.565   2.311   2.205  0.2345 -0.3239  0.0492
 1825ntf    fn412246   3.261   1.920   2.428  0.0541 -0.0588 -0.0970
 1825ntf    fn412247   3.445   1.823   2.410  0.2883  0.3567 -0.1536
 1825ntf    fn412248   3.367   1.885   2.599 -0.2708  0.3071  0.4282
 1825ntf    on512249   3.369   2.184   2.479 -0.2897  0.0054 -0.0525
 1825ntf    on512250   3.572   2.075   2.564  0.2266  0.0355 -0.3451
 1825ntf    on512251   3.355   2.155   2.163 -0.2194 -0.8617  0.2301
 1825ntf    on512252   3.571   2.092   2.075 -0.3626 -0.4883  0.0069
 1825ntf    fn412253   3.686   2.309   2.259  0.2423  0.8665  0.1204
 1825ntf    fn412254   3.576   2.367   2.086 -0.1916 -0.5629 -0.1005
 1825ntf    fn412255   3.489   2.388   2.282  0.5391  0.7403 -0.6933
 1826ntf    cn112256   3.071   0.791   6.278 -0.0038 -0.0189 -0.4150
 1826ntf    sn212257   3.159   0.641   6.330  0.4133  0.2363 -0.3763
 1826ntf    nn312258   3.032   0.556   6.366  0.6290  0.1745  0.2515
 1826ntf    sn212259   2.988   0.493   6.503 -0.0323  0.0561 -0.0107
 1826ntf    cn112260   2.886   0.349   6.459  0.2447  0.0079 -0.5024
 1826ntf    fn412261   2.981   0.824   6.369 -0.0174 -0.0452 -0.4191
 1826ntf    fn412262   3.142   0.903   6.267 -0.0510  0.0269 -0.2571
 1826ntf    fn412263   3.010   0.775   6.162  0.4340 -0.1831 -0.6249
 1826ntf    on512264   3.226   0.601   6.209  0.3816 -0.4169 -0.1867
 1826ntf    on512265   3.243   0.691   6.436 -0.0733  0.1438  0.0596
 1826ntf    on512266   2.909   0.578   6.588  0.1424  0.2007  0.0081
 1826ntf    on512267   3.104   0.435   6.567  0.5103  0.3002 -0.7545
 1826ntf    fn412268   2.954   0.264   6.383  0.2089 -0.2534 -0.2481
 1826ntf    fn412269   2.849   0.273   6.562  0.4023 -0.1696 -0.5750
 1826ntf    fn412270   2.776   0.389   6.398 -0.1714  0.0584  0.2565
 1827ntf    cn112271   6.333   5.006   6.320 -0.3230 -0.3964  0.3073
 1827ntf    sn212272   6.257   5.164   6.370 -0.0644 -0.1400 -0.0961
 1827ntf    nn312273   6.163   5.119   6.488 -0.0535  0.1427  0.0204
 1827ntf    sn212274   6.204   5.103   6.639  0.0996 -0.0505 -0.0426
 1827ntf    cn112275   6.131   5.245   6.724  0.2310 -0.1011  0.1546
 1827ntf    fn412276   6.425   5.019   6.226 -0.0509 -0.2840  0.5871
 1827ntf    fn412277   6.393   4.956   6.426 -0.4184 -0.8038  0.1684
 1827ntf    fn412278   6.245   4.915   6.282 -0.3981  0.1124 -0.7994
 1827ntf    on512279   6.369   5.245   6.411 -0.2650 -0.1946  0.5799
 1827ntf    on512280   6.183   5.197   6.252  0.1281  0.2482 -0.1088
 1827ntf    on512281   6.344   5.115   6.673  0.2151 -0.3457 -0.3927
 1827ntf    on512282   6.139   4.987   6.695  0.5845 -0.1888  0.2376
 1827ntf    fn412283   6.169   5.242   6.851 -0.1001 -0.9701  0.2409
 1827ntf    fn412284   6.165   5.363   6.674 -0.1603  0.0489  0.2386
 1827ntf    fn412285   5.999   5.236   6.724  0.1651  0.7785  0.3610
 1828ntf    cn112286   4.366   4.949   2.602 -0.4695  0.3397 -0.3810
 1828ntf    sn212287   4.369   4.989   2.780 -0.4168  0.0480 -0.3157
 1828ntf    nn312288   4.334   4.847   2.837  0.2568  0.0283  0.0598
 1828ntf    sn212289   4.396   4.777   2.963 -0.0165 -0.0210  0.1690
 1828ntf    cn112290   4.276   4.831   3.088 -0.2837  0.3515 -0.2457
 1828ntf    fn412291   4.443   4.843   2.587 -0.6263  0.1093  0.3869
 1828ntf    fn412292   4.246   4.918   2.556 -0.4432  0.0617 -0.2615
 1828ntf    fn412293   4.421   5.048   2.533 -0.3377  0.3841 -0.2146
 1828ntf    on512294   4.504   5.038   2.791 -0.6848  0.7249  0.0298
 1828ntf    on512295   4.259   5.081   2.799 -0.5271 -0.2258  0.3986
 1828ntf    on512296   4.519   4.823   3.023 -0.0708 -0.4858  0.6402
 1828ntf    on512297   4.373   4.636   2.949  0.0150 -0.0496  0.4107
 1828ntf    fn412298   4.280   4.760   3.199 -0.5454  0.3189 -0.2577
 1828ntf    fn412299   4.307   4.953   3.128  0.2855  0.0771  0.1639
 1828ntf    fn412300   4.151   4.821   3.045 -0.3945 -0.3098  0.2225
 1829ntf    cn112301   3.507   4.115   6.762 -0.0600 -0.0681  0.2327
 1829ntf    sn212302   3.496   3.986   6.891  0.5039  0.0085  0.3600
 1829ntf    nn312303   3.350   3.999   6.947  0.3305  0.2526 -0.1419
 1829ntf    sn212304   3.312   4.092   7.067  0.2812  0.1687 -0.0925
 1829ntf    cn112305   3.357   3.980   7.203  0.2834  0.0592 -0.1846
 1829ntf    fn412306   3.479   4.233   6.815  0.2260 -0.2393  0.7711
 1829ntf    fn412307   3.628   4.117   6.709 -0.1395  0.4104  0.0712
 1829ntf    fn412308   3.423   4.100   6.661  0.5831 -0.5010 -0.2480
 1829ntf    on512309   3.518   3.864   6.817  0.1148  0.1925 -0.0655
 1829ntf    on512310   3.602   4.019   6.983  0.1333 -0.0059  0.7942
 1829ntf    on512311   3.171   4.113   7.092  0.2888 -0.3025  0.3721
 1829ntf    on512312   3.398   4.206   7.087  0.4304  0.0708 -0.1805
 1829ntf    fn412313   3.264   3.986   7.297  0.2745  0.3684 -0.2117
 1829ntf    fn412314   3.359   3.856   7.155 -0.2304  0.0216 -0.1156
 1829ntf    fn412315   3.471   4.000   7.267  0.3433 -0.1670 -0.2171
 1830ntf    cn112316   0.445   1.020   1.407 -0.1557 -0.1783  0.2132
 1830ntf    sn212317   0.321   0.897   1.359 -0.0893 -0.0694 -0.2414
 1830ntf    nn312318   0.407   0.790   1.283 -0.1231 -0.4881  0.2968
 1830ntf    sn212319   0.484   0.668   1.342  0.4787 -0.1406  0.2345
 1830ntf    cn112320   0.656   0.710   1.302  0.4094 -0.0636  0.0183
 1830ntf    fn412321   0.478   1.107   1.313  0.5985 -0.4577  0.2139
 1830ntf    fn412322   0.393   1.093   1.505  0.2267  0.2478  0.1058
 1830ntf    fn412323   0.558   0.974   1.460 -0.0711 -0.0368  0.1561
 1830ntf    on512324   0.259   0.848   1.480  0.5076  0.1185  0.1450
 1830ntf    on512325   0.239   0.971   1.266 -0.2358  0.3028  0.1785
 1830ntf    on512326   0.470   0.545   1.268  0.0155 -0.1811  0.3885
 1830ntf    on512327   0.494   0.646   1.485  0.1425 -0.2313  0.2442
 1830ntf    fn412328   0.691   0.832   1.340 -0.1114 -0.0091  0.3350
 1830ntf    fn412329   0.746   0.633   1.362  0.5590  0.3705  0.3628
 1830ntf    fn412330   0.691   0.711   1.174 -0.0240 -0.5369 -0.1063
 1831ntf    cn112331   5.290   0.478   5.233  0.1408  0.2298  0.3658
 1831ntf    sn212332   5.442   0.398   5.291  0.0006 -0.0766  0.3104
 1831ntf    nn312333   5.393   0.267   5.363  0.8569 -0.5332  0.0761
 1831ntf    sn212334   5.347   0.143   5.278 -0.3595 -0.0275 -0.0236
 1831ntf    cn112335   5.377   0.025   5.413  0.2316 -0.1407 -0.2499
 1831ntf    fn412336   5.312   0.587   5.160  0.3820  0.1402  0.3039
 1831ntf    fn412337   5.219   0.405   5.149  0.0736 -0.0033  0.6285
 1831ntf    fn412338   5.212   0.515   5.333  0.0120  0.2217  0.2675
 1831ntf    on512339   5.524   0.378   5.174 -0.0523  0.7145  0.1314
 1831ntf    on512340   5.492   0.490   5.390  0.0799  0.0814  0.1233
 1831ntf    on512341   5.434   0.093   5.174 -0.4146 -0.1066 -0.0314
 1831ntf    on512342   5.205   0.149   5.253 -0.4114 -0.6618  0.1041
 1831ntf    fn412343   5.504   0.018   5.448  0.3483 -0.7901 -0.7740
 1831ntf    fn412344   5.303   0.056   5.518  0.3113  1.0934 -0.5475
 1831ntf    fn412345   5.343  -0.098   5.376  0.3196 -0.5261  0.9225
 1832ntf    cn112346   6.313   3.981   5.916  0.1524  0.1440  0.0714
 1832ntf    sn212347   6.303   3.859   5.782  0.1130 -0.0190  0.2234
 1832ntf    nn312348   6.313   3.954   5.657  0.1165 -0.4327 -0.0938
 1832ntf    sn212349   6.212   3.970   5.537  0.3770 -0.4032 -0.3088
 1832ntf    cn112350   6.169   4.146   5.544  0.1035 -0.4832  0.0113
 1832ntf    fn412351   6.252   3.941   6.026  0.2127 -0.2253 -0.0280
 1832ntf    fn412352   6.437   4.014   5.948  0.3168 -0.0131 -0.3918
 1832ntf    fn412353   6.245   4.091   5.888 -0.2786 -0.1423 -0.0308
 1832ntf    on512354   6.420   3.778   5.805 -0.0235 -0.2559  0.0987
 1832ntf    on512355   6.174   3.799   5.808 -0.2761  0.6924 -0.0425
 1832ntf    on512356   6.078   3.921   5.553  0.4428 -0.3276  0.5214
 1832ntf    on512357   6.274   3.954   5.408 -0.2093 -0.4065 -0.5925
 1832ntf    fn412358   6.107   4.175   5.658  0.1738 -0.7116  0.1080
 1832ntf    fn412359   6.279   4.220   5.540 -0.4814  0.3980 -0.2342
 1832ntf    fn412360   6.089   4.185   5.447  0.4006 -0.4674 -0.2282
 1833ntf    cn112361   1.814   1.368   4.336  0.0427 -0.0954  0.0894
 1833ntf    sn212362   1.943   1.475   4.267 -0.1686  0.0289 -0.1152
 1833ntf    nn312363   1.889   1.494   4.121 -0.6506  0.2641  0.0925
 1833ntf    sn212364   1.888   1.379   4.014  0.1055  0.2458  0.1002
 1833ntf    cn112365   1.970   1.477   3.884 -0.3752  0.4956 -0.0180
 1833ntf    fn412366   1.777   1.275   4.249  0.3871 -0.3109  0.1706
 1833ntf    fn412367   1.851   1.309   4.448  0.2352  0.4180  0.2990
 1833ntf    fn412368   1.709   1.445   4.361 -0.1575 -0.2695 -0.2093
 1833ntf    on512369   1.921   1.600   4.335 -0.6013  0.0558 -0.3021
 1833ntf    on512370   2.066   1.403   4.287 -0.0967  0.2287  0.1700
 1833ntf    on512371   1.760   1.345   3.956  0.1204 -0.1045  0.2723
 1833ntf    on512372   1.988   1.277   4.032  0.0728  0.1895 -0.0307
 1833ntf    fn412373   1.936   1.605   3.882  0.0562  0.6244  0.6760
 1833ntf    fn412374   2.101   1.466   3.882 -0.4315 -0.2508  0.0983
 1833ntf    fn412375   1.931   1.432   3.766 -0.0209 -0.2145  0.1310
 1834ntf    cn112376   3.347   0.243   3.457 -0.3170 -0.4400  0.1980
 1834ntf    sn212377   3.485   0.258   3.574 -0.0531  0.1464 -0.1843
 1834ntf    nn312378   3.556   0.118   3.570 -0.7920 -0.2375  0.0532
 1834ntf    sn212379   3.625   0.037   3.685 -0.1542  0.1626 -0.0408
 1834ntf    cn112380   3.764  -0.035   3.593 -0.4176 -0.1625 -0.1886
 1834ntf    fn412381   3.379   0.187   3.342  0.3492 -0.2377  0.2808
 1834ntf    fn412382   3.249   0.174   3.513 -0.6781 -0.0924 -0.0025
 1834ntf    fn412383   3.298   0.360   3.419  0.1320 -0.1847  0.4004
 1834ntf    on512384   3.566   0.365   3.520  0.8871 -0.3465  0.2197
 1834ntf    on512385   3.421   0.288   3.699 -0.0600  0.4659 -0.2631
 1834ntf    on512386   3.549  -0.076   3.733 -0.0849  0.2977  0.3895
 1834ntf    on512387   3.694   0.109   3.789  0.4568 -0.7632  0.2098
 1834ntf    fn412388   3.840   0.050   3.526 -0.2231  0.0084  0.2459
 1834ntf    fn412389   3.851  -0.094   3.673  0.1466  0.1228 -0.5795
 1834ntf    fn412390   3.716  -0.121   3.504 -0.0832 -0.2260 -0.3116
 1835ntf    cn112391   2.918   6.246   5.514  0.2010  0.1493 -0.3619
 1835ntf    sn212392   3.086   6.231   5.582  0.0424  0.0403  0.0090
 1835ntf    nn312393   3.144   6.121   5.486  0.1009  0.2163 -0.1574
 1835ntf    sn212394   3.296   6.102   5.453 -0.0017  0.0584 -0.5510
 1835ntf    cn112395   3.298   6.170   5.285 -0.0720  0.0303 -0.5622
 1835ntf    fn412396   2.846   6.137   5.533  0.6100  0.0333  0.5737
 1835ntf    fn412397   2.855   6.344   5.577  0.2843 -0.1701  0.2269
 1835ntf    fn412398   2.915   6.258   5.382 -0.4079  0.1585 -0.3498
 1835ntf    on512399   3.136   6.365   5.561 -0.0229  0.1059  0.2640
 1835ntf    on512400   3.065   6.191   5.719 -0.2466  0.2329  0.0206
 1835ntf    on512401   3.319   5.962   5.426 -0.1537 -0.1012  0.1233
 1835ntf    on512402   3.390   6.180   5.530 -0.4161 -0.1068  0.1372
 1835ntf    fn412403   3.269   6.299   5.293 -0.3732 -0.0738  0.0639
 1835ntf    fn412404   3.418   6.155   5.232 -0.0030 -0.0179 -0.3932
 1835ntf    fn412405   3.211   6.108   5.206 -0.3018 -0.7790  0.3031
 1836ntf    cn112406   2.117   0.177   0.944 -0.2437 -0.0677 -0.3686
 1836ntf    sn212407   2.193   0.118   1.098 -0.2533  0.5895 -0.1107
 1836ntf    nn312408   2.181  -0.038   1.089 -0.0657  0.5556  0.1927
 1836ntf    sn212409   2.269  -0.133   0.999 -0.6720 -0.2059  0.4002
 1836ntf    cn112410   2.373  -0.214   1.125 -0.2769 -0.0129  0.1960
 1836ntf    fn412411   2.009   0.107   0.911 -0.1007 -0.5750  0.2101
 1836ntf    fn412412   2.080   0.303   0.962  0.1201 -0.0662  0.4018
 1836ntf    fn412413   2.196   0.167   0.839  0.0819 -0.1806 -0.1133
 1836ntf    on512414   2.331   0.161   1.099  0.0511 -0.3818  0.3171
 1836ntf    on512415   2.104   0.166   1.202 -0.7097  0.2755 -0.3557
 1836ntf    on512416   2.356  -0.078   0.899 -0.3026 -0.4422  0.5913
 1836ntf    on512417   2.199  -0.254   0.960 -0.3216 -0.2416 -0.1129
 1836ntf    fn412418   2.444  -0.124   1.192 -0.3341  0.2046 -0.0334
 1836ntf    fn412419   2.294  -0.288   1.200 -0.3169 -0.1155  0.0523
 1836ntf    fn412420   2.464  -0.295   1.074 -0.4769 -0.1048 -0.0178
 1837ntf    cn112421   4.914   1.635   4.852  0.2958 -0.2327  0.0827
 1837ntf    sn212422   4.734   1.644   4.881  0.2520 -0.1624 -0.2096
 1837ntf    nn312423   4.689   1.673   4.733 -0.3645  0.5225  0.1072
 1837ntf    sn212424   4.652   1.566   4.624  0.0985  0.3231  0.1424
 1837ntf    cn112425   4.471   1.568   4.644  0.1151 -0.1182  0.3375
 1837ntf    fn412426   4.938   1.535   4.770  0.1515  0.0056 -0.2536
 1837ntf    fn412427   4.961   1.743   4.792 -0.6609  0.0158 -0.2472
 1837ntf    fn412428   4.991   1.613   4.957  0.1548 -0.2861  0.1747
 1837ntf    on512429   4.702   1.513   4.930  0.0326  0.0542  0.2288
 1837ntf    on512430   4.710   1.755   4.970 -0.3013 -0.4702  0.0247
 1837ntf    on512431   4.688   1.428   4.644  0.2054  0.2980 -0.2127
 1837ntf    on512432   4.665   1.616   4.489 -0.4179  0.7500  0.2475
 1837ntf    fn412433   4.409   1.504   4.546  0.5069 -0.2255  0.1566
 1837ntf    fn412434   4.427   1.521   4.759 -0.2857 -0.2065  0.1508
 1837ntf    fn412435   4.429   1.693   4.637  0.4440 -0.0289 -0.1136
 1838ntf    cn112436   1.725   3.908   5.573  0.1775  0.4035  0.1843
 1838ntf    sn212437   1.808   3.889   5.412 -0.1283  0.4418  0.0210
 1838ntf    nn312438   1.690   3.874   5.309 -0.3357 -0.1230  0.3357
 1838ntf    sn212439   1.612   3.740   5.281 -0.1549 -0.1364 -0.1219
 1838ntf    cn112440   1.460   3.816   5.217 -0.0214  0.2457  0.0072
 1838ntf    fn412441   1.646   3.809   5.611 -0.0610  0.7143  0.5022
 1838ntf    fn412442   1.821   3.920   5.662  0.5176  0.1165 -0.1412
 1838ntf    fn412443   1.657   4.020   5.594  0.3019  0.5387 -0.1309
 1838ntf    on512444   1.884   4.010   5.395  0.2783  0.2524  0.4694
 1838ntf    on512445   1.886   3.768   5.421 -0.1968  0.3431 -0.7039
 1838ntf    on512446   1.557   3.679   5.400 -0.4398  0.3184 -0.0136
 1838ntf    on512447   1.660   3.653   5.177  0.6764 -0.2651  0.3616
 1838ntf    fn412448   1.475   3.885   5.106  0.0507 -0.5264 -0.4702
 1838ntf    fn412449   1.372   3.718   5.201  0.3915 -0.1111 -0.0679
 1838ntf    fn412450   1.392   3.890   5.304 -0.2862  0.0726 -0.0479
 1839ntf    cn112451   2.143   3.000   0.911 -0.1223 -0.4484  0.0528
 1839ntf    sn212452   2.246   3.106   1.016  0.1029 -0.5176 -0.0978
 1839ntf    nn312453   2.328   3.193   0.914  0.0183 -0.0989  0.1886
 1839ntf    sn212454   2.433   3.306   0.947 -0.3240  0.2060  0.2370
 1839ntf    cn112455   2.330   3.455   0.940 -0.1864  0.2864 -0.1104
 1839ntf    fn412456   2.214   2.954   0.809  0.7162  0.2932  0.2938
 1839ntf    fn412457   2.102   2.893   0.976 -0.2846 -0.7552 -0.5411
 1839ntf    fn412458   2.039   3.064   0.859  0.3404  0.2013 -0.0839
 1839ntf    on512459   2.144   3.178   1.088  0.1538 -0.3738 -0.1689
 1839ntf    on512460   2.325   3.007   1.086  0.1515 -0.5867 -0.2497
 1839ntf    on512461   2.530   3.330   0.843  0.1071  0.4828  0.7015
 1839ntf    on512462   2.488   3.300   1.080 -0.5553 -0.1000  0.3198
 1839ntf    fn412463   2.214   3.440   1.002  0.1874 -0.2185  0.4735
 1839ntf    fn412464   2.385   3.560   0.999  0.3624 -0.0003 -0.1048
 1839ntf    fn412465   2.312   3.488   0.813 -0.4980  0.3829 -0.0447
 1840ntf    cn112466   4.536   4.988   1.899  0.2418 -0.1155 -0.0151
 1840ntf    sn212467   4.577   5.159   1.942 -0.0796 -0.0037 -0.1498
 1840ntf    nn312468   4.529   5.230   1.811  0.4723  0.3872 -0.1455
 1840ntf    sn212469   4.619   5.277   1.691  0.2651  0.0963 -0.4167
 1840ntf    cn112470   4.677   5.430   1.769 -0.0372  0.2071 -0.4095
 1840ntf    fn412471   4.550   4.970   1.769 -0.1458  0.3469 -0.1195
 1840ntf    fn412472   4.615   4.897   1.956  0.3302 -0.1996 -0.2710
 1840ntf    fn412473   4.408   4.965   1.919  0.1449  0.4338  0.0116
 1840ntf    on512474   4.497   5.192   2.057  0.1452 -0.3688  0.1131
 1840ntf    on512475   4.721   5.159   1.960 -0.1160  0.2430  0.1521
 1840ntf    on512476   4.544   5.327   1.579  0.0454  0.1528 -0.2432
 1840ntf    on512477   4.734   5.195   1.661  0.2349 -0.1290  0.0716
 1840ntf    fn412478   4.583   5.521   1.784  0.1270  0.2802  0.2035
 1840ntf    fn412479   4.749   5.429   1.880 -0.4500  0.1480 -0.1399
 1840ntf    fn412480   4.754   5.482   1.675  0.0552  0.2272 -0.3235
 1841ntf    cn112481   1.570   3.066   1.666 -0.2287  0.1623  0.0695
 1841ntf    sn212482   1.543   2.906   1.585  0.1541  0.0914  0.0773
 1841ntf    nn312483   1.567   2.815   1.711 -0.3854 -0.0179  0.1061
 1841ntf    sn212484   1.476   2.692   1.742 -0.2944 -0.0548  0.2276
 1841ntf    cn112485   1.537   2.566   1.625  0.2115  0.4681 -0.0725
 1841ntf    fn412486   1.469   3.121   1.730 -0.4338  0.2278 -0.3063
 1841ntf    fn412487   1.663   3.064   1.760 -0.0589 -0.0822 -0.1028
 1841ntf    fn412488   1.610   3.159   1.580 -0.3849  0.1615 -0.0052
 1841ntf    on512489   1.408   2.913   1.533  0.4105 -0.4046 -0.6688
 1841ntf    on512490   1.649   2.890   1.488  0.0205  0.3786 -0.1182
 1841ntf    on512491   1.336   2.706   1.709 -0.1815  0.6339  0.0313
 1841ntf    on512492   1.499   2.630   1.870 -0.2845 -0.2902  0.1124
 1841ntf    fn412493   1.451   2.467   1.610 -0.5985  1.0704  0.5253
 1841ntf    fn412494   1.542   2.616   1.503 -0.0480 -0.0640 -0.3014
 1841ntf    fn412495   1.657   2.519   1.656  0.0144 -0.0953 -0.1598
 1842ntf    cn112496   1.738   5.149   3.440 -0.1664  0.3785  0.1527
 1842ntf    sn212497   1.730   5.014   3.562 -0.1365  0.2890  0.0558
 1842ntf    nn312498   1.644   5.085   3.672 -0.3876 -0.3062  0.2483
 1842ntf    sn212499   1.490   5.112   3.655 -0.3056 -0.0227 -0.0646
 1842ntf    cn112500   1.487   5.265   3.754  0.1249  0.0643 -0.1835
 1842ntf    fn412501   1.840   5.132   3.358 -0.1392 -0.0622  0.2746
 1842ntf    fn412502   1.629   5.157   3.365 -0.0201 -0.5239 -0.1629
 1842ntf    fn412503   1.763   5.266   3.497  0.2487  0.1683  0.4090
 1842ntf    on512504   1.672   4.909   3.482 -0.5534  0.3771  0.2413
 1842ntf    on512505   1.867   4.998   3.605 -0.2982  0.1822  0.5329
 1842ntf    on512506   1.407   5.025   3.735 -0.1796 -0.2832 -0.2168
 1842ntf    on512507   1.436   5.151   3.527  0.3634 -0.2243 -0.4101
 1842ntf    fn412508   1.359   5.295   3.773  0.2175  0.3774 -0.0515
 1842ntf    fn412509   1.534   5.247   3.876 -0.5113 -0.2762  0.0208
 1842ntf    fn412510   1.556   5.363   3.699 -0.4502  0.5289 -0.0942
 1843ntf    cn112511   1.054   3.598   5.344  0.6355 -0.4946 -0.2825
 1843ntf    sn212512   1.034   3.599   5.164  0.0870  0.1217 -0.2240
 1843ntf    nn312513   1.130   3.715   5.119  0.2083  0.0107 -0.2528
 1843ntf    sn212514   1.094   3.841   5.032 -0.4691  0.0477  0.0704
 1843ntf    cn112515   1.209   3.808   4.895 -0.2269  0.2850  0.2155
 1843ntf    fn412516   1.027   3.716   5.398  0.0852 -0.8641  0.2532
 1843ntf    fn412517   0.974   3.516   5.410  0.2847  0.0500 -0.0213
 1843ntf    fn412518   1.170   3.561   5.395  0.6199 -0.4901 -0.2437
 1843ntf    on512519   1.088   3.471   5.122  0.0766 -0.1212  0.4837
 1843ntf    on512520   0.895   3.626   5.137 -0.0201 -0.0210  0.1780
 1843ntf    on512521   1.142   3.966   5.087  0.0381  0.1665 -0.6276
 1843ntf    on512522   0.963   3.847   4.973 -0.5566 -0.4673  0.2032
 1843ntf    fn412523   1.203   3.683   4.851  0.1854  0.1856  0.4382
 1843ntf    fn412524   1.195   3.890   4.793 -0.2809  0.2876  0.2249
 1843ntf    fn412525   1.333   3.814   4.940 -0.2819  0.1864  0.3821
 1844ntf    cn112526   4.650   3.225   5.682 -0.3423  0.2390  0.0006
 1844ntf    sn212527   4.745   3.347   5.587  0.0441  0.1182  0.2312
 1844ntf    nn312528   4.862   3.248   5.550  0.1960  0.2483  0.3577
 1844ntf    sn212529   5.007   3.303   5.527  0.1897  0.0849 -0.0763
 1844ntf    cn112530   5.038   3.202   5.379 -0.2777 -0.1389 -0.0215
 1844ntf    fn412531   4.721   3.163   5.775 -0.3946 -0.3249 -0.3329
 1844ntf    fn412532   4.539   3.273   5.735 -0.2130  0.4860  0.0462
 1844ntf    fn412533   4.596   3.125   5.615 -0.5096  0.1798  0.2188
 1844ntf    on512534   4.667   3.396   5.477 -0.0550  0.0930  0.2902
 1844ntf    on512535   4.780   3.447   5.685 -0.1298  0.2505  0.1571
 1844ntf    on512536   5.100   3.258   5.627 -0.0521 -0.2728 -0.0126
 1844ntf    on512537   5.009   3.435   5.467 -0.0788  0.0992 -0.0563
 1844ntf    fn412538   4.956   3.222   5.277 -0.4705 -0.6888  0.0182
 1844ntf    fn412539   5.162   3.209   5.335 -0.2758 -0.2834 -0.0414
 1844ntf    fn412540   5.036   3.071   5.401  0.2414 -0.1786 -0.2057
 1845ntf    cn112541   4.773   3.554   4.083 -0.1703 -0.2409 -0.1371
 1845ntf    sn212542   4.883   3.536   3.939  0.0660 -0.0274  0.0160
 1845ntf    nn312543   4.976   3.424   3.999  0.0185  0.0511  0.2383
 1845ntf    sn212544   5.124   3.397   3.953 -0.0973 -0.0088 -0.1016
 1845ntf    cn112545   5.198   3.436   4.114  0.2434 -0.0880 -0.2370
 1845ntf    fn412546   4.829   3.593   4.196 -0.2359 -0.1058 -0.1515
 1845ntf    fn412547   4.694   3.657   4.057  0.3458  0.0955 -0.3951
 1845ntf    fn412548   4.688   3.454   4.098 -0.4479 -0.0402 -0.3742
 1845ntf    on512549   4.797   3.492   3.832  0.1170 -0.1176  0.0112
 1845ntf    on512550   4.945   3.666   3.933  0.2719 -0.1083  0.3502
 1845ntf    on512551   5.192   3.495   3.872 -0.0329 -0.1004 -0.1599
 1845ntf    on512552   5.160   3.258   3.939 -0.0831 -0.1113  0.8963
 1845ntf    fn412553   5.182   3.560   4.158  0.1898 -0.1625 -0.0459
 1845ntf    fn412554   5.144   3.358   4.207  0.1551  0.2248 -0.0214
 1845ntf    fn412555   5.328   3.412   4.113  0.1665 -0.5350  0.0693
 1846ntf    cn112556   4.736   0.610   6.752 -0.3041  0.3874  0.3332
 1846ntf    sn212557   4.571   0.631   6.678 -0.2223  0.1171  0.0691
 1846ntf    nn312558   4.606   0.557   6.544  0.1632  0.2154  0.1136
 1846ntf    sn212559   4.590   0.597   6.394  0.1292  0.2819  0.1348
 1846ntf    cn112560   4.450   0.492   6.345  0.3482 -0.1086  0.3411
 1846ntf    fn412561   4.754   0.482   6.778 -0.4696  0.2999  0.0254
 1846ntf    fn412562   4.829   0.647   6.665 -0.7343 -0.3058 -0.4395
 1846ntf    fn412563   4.747   0.685   6.860  0.4432 -0.0473  0.5600
 1846ntf    on512564   4.483   0.543   6.751  0.0598  0.0496  0.3283
 1846ntf    on512565   4.540   0.771   6.667 -0.4027  0.0180 -0.7040
 1846ntf    on512566   4.694   0.558   6.301 -0.1491  0.0676 -0.0886
 1846ntf    on512567   4.540   0.732   6.378 -0.5315  0.1052  0.6923
 1846ntf    fn412568   4.420   0.488   6.217 -0.2586  0.1904  0.4706
 1846ntf    fn412569   4.458   0.367   6.387 -0.2846 -0.2903 -0.0770
 1846ntf    fn412570   4.344   0.542   6.407  0.0988 -0.2210  0.0039
 1847ntf    cn112571   5.690   2.393   2.106 -0.3704 -0.1506  0.0075
 1847ntf    sn212572   5.689   2.220   2.162  0.0987 -0.2308 -0.2293
 1847ntf    nn312573   5.579   2.228   2.274  0.3846 -0.1295  0.0437
 1847ntf    sn212574   5.589   2.235   2.430  0.0632  0.0629  0.0563
 1847ntf    cn112575   5.573   2.058   2.467  0.0868  0.0082 -0.1922
 1847ntf    fn412576   5.724   2.399   1.978 -0.2133 -0.3101  0.0407
 1847ntf    fn412577   5.569   2.448   2.105 -0.2056  0.2122 -0.6551
 1847ntf    fn412578   5.763   2.469   2.186 -0.2446 -0.1222 -0.1345
 1847ntf    on512579   5.647   2.150   2.042 -0.1170  0.0421 -0.3151
 1847ntf    on512580   5.822   2.204   2.213 -0.2988 -0.4288  0.7579
 1847ntf    on512581   5.472   2.294   2.491 -0.1139 -0.7363  0.5028
 1847ntf    on512582   5.716   2.274   2.486  0.1132  0.1948 -0.1497
 1847ntf    fn412583   5.576   2.040   2.598  0.1021  0.4515 -0.1290
 1847ntf    fn412584   5.457   2.008   2.428  0.0140 -0.0720  0.1205
 1847ntf    fn412585   5.673   1.989   2.415 -0.2491 -0.4591 -0.2310
 1848ntf    cn112586   6.415   2.874   5.675 -0.5103 -0.4555  0.1194
 1848ntf    sn212587   6.496   2.935   5.826 -0.3047  0.0705 -0.2018
 1848ntf    nn312588   6.534   3.084   5.796  0.2916 -0.1125 -0.3760
 1848ntf    sn212589   6.652   3.181   5.833 -0.1590  0.2191  0.2235
 1848ntf    cn112590   6.764   3.165   5.690 -0.1605  0.5997  0.1805
 1848ntf    fn412591   6.321   2.957   5.635  0.2624  0.1848 -0.4003
 1848ntf    fn412592   6.502   2.842   5.580 -0.2051 -0.2967  0.3426
 1848ntf    fn412593   6.353   2.760   5.700 -0.9015 -0.2172  0.2317
 1848ntf    on512594   6.396   2.914   5.927 -0.0056  0.3155  0.1481
 1848ntf    on512595   6.608   2.844   5.835 -0.3301  0.0739  0.1341
 1848ntf    on512596   6.729   3.138   5.947 -0.3399 -0.3016  0.1510
 1848ntf    on512597   6.627   3.323   5.831 -0.3549  0.1791 -0.2329
 1848ntf    fn412598   6.824   3.047   5.690  0.3992  0.8820  0.2528
 1848ntf    fn412599   6.693   3.178   5.579  0.2265  0.6403 -0.0670
 1848ntf    fn412600   6.863   3.253   5.686  0.4393 -0.0706  0.2113
 1849ntf    cn112601   2.370   3.265   1.894  0.2860  0.4041  0.0460
 1849ntf    sn212602   2.432   3.095   1.905 -0.0832  0.2635 -0.0438
 1849ntf    nn312603   2.296   3.021   1.878 -0.0563  0.2963 -0.2713
 1849ntf    sn212604   2.293   2.875   1.821  0.6249  0.2654 -0.2397
 1849ntf    cn112605   2.217   2.796   1.966  0.3258  0.3860 -0.3287
 1849ntf    fn412606   2.461   3.347   1.945 -0.0626  0.6172  0.3301
 1849ntf    fn412607   2.340   3.306   1.772  0.2302  0.1921 -0.0119
 1849ntf    fn412608   2.255   3.274   1.958  0.0955  0.0602 -0.2476
 1849ntf    on512609   2.539   3.102   1.808 -0.1976  0.0535 -0.1874
 1849ntf    on512610   2.471   3.075   2.042 -0.5266 -0.2668  0.0076
 1849ntf    on512611   2.416   2.802   1.806  0.2755 -0.4352  0.2564
 1849ntf    on512612   2.195   2.844   1.719  0.2478 -0.7037  0.4035
 1849ntf    fn412613   2.097   2.844   1.992  0.1949 -0.2000  0.1691
 1849ntf    fn412614   2.210   2.664   1.959  0.0498  0.3733  0.1705
 1849ntf    fn412615   2.293   2.824   2.071 -0.1381 -0.1449  0.1517
 1850ntf    cn112616   1.319   2.405   5.101  0.2784  0.0833  0.0924
 1850ntf    sn212617   1.174   2.334   5.017  0.3086 -0.0184  0.1261
 1850ntf    nn312618   1.062   2.438   5.049  0.0361 -0.4747  0.6698
 1850ntf    sn212619   1.026   2.578   4.987  0.1492 -0.5939  0.3355
 1850ntf    cn112620   1.038   2.675   5.140  0.2896 -0.1104  0.0204
 1850ntf    fn412621   1.370   2.512   5.043  0.6043 -0.0488  0.1328
 1850ntf    fn412622   1.290   2.437   5.226 -0.5538 -0.2580 -0.0038
 1850ntf    fn412623   1.417   2.317   5.112  0.0396 -0.1912  0.0612
 1850ntf    on512624   1.214   2.322   4.879  0.2751  0.0545  0.1105
 1850ntf    on512625   1.146   2.210   5.086 -0.2064 -0.0849 -0.1977
 1850ntf    on512626   0.886   2.584   4.952  0.3667 -0.3764 -0.5367
 1850ntf    on512627   1.123   2.640   4.901 -0.5032  0.3347  0.2468
 1850ntf    fn412628   0.924   2.664   5.206 -0.0157  0.5921 -0.3734
 1850ntf    fn412629   1.141   2.634   5.211  0.4983 -0.6223 -0.5646
 1850ntf    fn412630   1.059   2.802   5.112  0.2011 -0.1177 -0.0803
 1851ntf    cn112631   1.995   3.262   3.077 -0.3526  0.0100 -0.0183
 1851ntf    sn212632   1.896   3.347   3.204 -0.0114 -0.0287  0.2764
 1851ntf    nn312633   1.827   3.463   3.124  0.2111 -0.1708 -0.1242
 1851ntf    sn212634   1.884   3.598   3.068 -0.2891  0.0839 -0.0288
 1851ntf    cn112635   1.825   3.708   3.200 -0.3360 -0.1146  0.1164
 1851ntf    fn412636   2.071   3.351   3.014 -0.2316 -0.1048 -0.0340
 1851ntf    fn412637   2.077   3.179   3.139  0.0496  0.7274  0.4291
 1851ntf    fn412638   1.930   3.201   2.980 -0.0986  0.8379 -0.7217
 1851ntf    on512639   1.805   3.246   3.251  0.0071  0.1346  0.6620
 1851ntf    on512640   1.999   3.396   3.292  0.0662  0.1707  0.0766
 1851ntf    on512641   1.817   3.650   2.952  0.1795  0.3746 -0.1759
 1851ntf    on512642   2.026   3.622   3.079 -0.3777  0.3215  0.6276
 1851ntf    fn412643   1.694   3.699   3.215 -0.3594  0.2503  0.1552
 1851ntf    fn412644   1.878   3.681   3.318 -0.0093  0.3036  0.0685
 1851ntf    fn412645   1.870   3.830   3.173  0.2963 -0.2796  0.4281
 1852ntf    cn112646   0.185   1.999   4.796 -0.4732 -0.0788  0.1488
 1852ntf    sn212647   0.322   1.888   4.841 -0.0060  0.4000 -0.0700
 1852ntf    nn312648   0.451   1.971   4.808  0.2952  0.0279  0.1629
 1852ntf    sn212649   0.545   1.979   4.682  0.0625 -0.0379 -0.0162
 1852ntf    cn112650   0.685   1.873   4.727  0.0684 -0.0912 -0.1611
 1852ntf    fn412651   0.200   2.034   4.669  0.2931  0.2195  0.3137
 1852ntf    fn412652   0.066   1.943   4.803 -0.2297 -0.5972  0.2022
 1852ntf    fn412653   0.180   2.104   4.876 -0.2582 -0.3594  0.5343
 1852ntf    on512654   0.310   1.863   4.982 -0.1982  0.0471 -0.1464
 1852ntf    on512655   0.313   1.770   4.758 -0.2152  0.6562 -0.4117
 1852ntf    on512656   0.599   2.112   4.684 -0.1552  0.0471  0.5403
 1852ntf    on512657   0.494   1.927   4.557 -0.0336  0.0359 -0.0080
 1852ntf    fn412658   0.739   1.917   4.839 -0.5330 -0.0289  0.1036
 1852ntf    fn412659   0.650   1.749   4.758  0.0965 -0.0349  0.0938
 1852ntf    fn412660   0.777   1.868   4.631  0.0522  0.0034 -0.1819
 1853ntf    cn112661   2.413   2.698   0.221 -0.0245  0.1208  0.1712
 1853ntf    sn212662   2.595   2.702   0.221 -0.0254  0.1788  0.1256
 1853ntf    nn312663   2.614   2.742   0.071 -0.2080 -0.0126  0.0507
 1853ntf    sn212664   2.733   2.819   0.003 -0.0930 -0.0396  0.2207
 1853ntf    cn112665   2.820   2.690  -0.092 -0.0277  0.1122  0.0733
 1853ntf    fn412666   2.357   2.636   0.324 -0.4137  0.2245  0.0241
 1853ntf    fn412667   2.356   2.817   0.226  0.2810  0.2974 -0.4752
 1853ntf    fn412668   2.362   2.630   0.120  0.2766  0.1775 -0.0211
 1853ntf    on512669   2.645   2.801   0.313  0.5179 -0.2442  0.2918
 1853ntf    on512670   2.621   2.561   0.238 -0.5561  0.0526 -0.0959
 1853ntf    on512671   2.834   2.864   0.095 -0.1814  0.1274  0.2351
 1853ntf    on512672   2.690   2.895  -0.111  0.5271 -0.0362 -0.0143
 1853ntf    fn412673   2.875   2.604  -0.008 -0.9275 -0.4333  0.1212
 1853ntf    fn412674   2.741   2.623  -0.174  0.0685  0.3948 -0.2503
 1853ntf    fn412675   2.910   2.747  -0.170  0.1576  0.4105  0.5003
 1854ntf    cn112676   0.078   1.350   3.908  0.0378  0.2749 -0.2630
 1854ntf    sn212677  -0.006   1.280   4.053  0.1535  0.1136 -0.2730
 1854ntf    nn312678   0.088   1.326   4.170  0.2264  0.2966 -0.4026
 1854ntf    sn212679   0.059   1.361   4.321 -0.0011 -0.1980 -0.3309
 1854ntf    cn112680   0.231   1.338   4.376 -0.0583  0.3139  0.0635
 1854ntf    fn412681   0.066   1.481   3.894 -0.0052  0.2522 -0.4542
 1854ntf    fn412682   0.206   1.316   3.907 -0.1791 -0.6148  0.4601
 1854ntf    fn412683   0.021   1.302   3.798 -0.2102  0.3230 -0.1551
 1854ntf    on512684  -0.141   1.331   4.051 -0.1418 -0.5990  0.6262
 1854ntf    on512685   0.005   1.138   4.030  0.1343  0.0307  0.2029
 1854ntf    on512686  -0.017   1.257   4.385  0.0311  0.0242  0.0715
 1854ntf    on512687   0.025   1.497   4.353 -0.4099 -0.3397 -0.1600
 1854ntf    fn412688   0.242   1.341   4.508  0.0072 -0.2574  0.0751
 1854ntf    fn412689   0.280   1.223   4.333 -0.1606  0.1785  0.3110
 1854ntf    fn412690   0.318   1.431   4.338 -0.0828  0.1973 -0.2789
 1855ntf    cn112691   4.876   0.438   2.260  0.0351 -0.0296 -0.0003
 1855ntf    sn212692   4.796   0.600   2.247  0.1710  0.0441  0.0806
 1855ntf    nn312693   4.646   0.555   2.235  0.2843 -0.3605  0.1795
 1855ntf    sn212694   4.525   0.637   2.292  0.2253 -0.0550 -0.3771
 1855ntf    cn112695   4.431   0.661   2.138 -0.2375 -0.0336 -0.0959
 1855ntf    fn412696   5.004   0.447   2.294  0.0053 -0.5216  0.2630
 1855ntf    fn412697   4.825   0.353   2.347 -0.0083  0.1549  0.1553
 1855ntf    fn412698   4.880   0.379   2.141  0.6808 -0.4098  0.2038
 1855ntf    on512699   4.828   0.678   2.364  0.4833  0.0383 -0.0000
 1855ntf    on512700   4.849   0.649   2.122  0.3527  0.0408  0.1567
 1855ntf    on512701   4.550   0.773   2.333 -0.4926  0.0108 -0.1383
 1855ntf    on512702   4.431   0.562   2.371 -0.4259  0.2120 -0.8853
 1855ntf    fn412703   4.493   0.736   2.047 -0.0695 -0.2238 -0.1409
 1855ntf    fn412704   4.404   0.544   2.083  0.7954 -0.1570 -0.3781
 1855ntf    fn412705   4.318   0.724   2.167 -0.2736 -0.0865 -0.1219
 1856ntf    cn112706   0.225   3.728   4.730  0.0006 -0.2760  0.3140
 1856ntf    sn212707   0.203   3.892   4.654 -0.0006 -0.4025  0.0389
 1856ntf    nn312708   0.353   3.938   4.653  0.0259 -0.4868 -0.7326
 1856ntf    sn212709   0.444   4.007   4.545  0.1540  0.3473 -0.1067
 1856ntf    cn112710   0.417   4.184   4.575 -0.1649  0.3294 -0.2812
 1856ntf    fn412711   0.288   3.639   4.655 -0.2580 -0.5004  0.3642
 1856ntf    fn412712   0.297   3.739   4.841  0.2042  0.3778  0.1242
 1856ntf    fn412713   0.106   3.680   4.758 -0.3221 -0.0370 -0.5964
 1856ntf    on512714   0.147   3.856   4.526  0.1871 -0.1534 -0.1136
 1856ntf    on512715   0.119   3.956   4.752  0.1477 -0.2400  0.0614
 1856ntf    on512716   0.414   3.985   4.406 -0.1579  0.4122 -0.0493
 1856ntf    on512717   0.583   3.991   4.580  0.1177 -0.1966 -0.2044
 1856ntf    fn412718   0.292   4.227   4.561 -0.1715  0.3290 -0.2257
 1856ntf    fn412719   0.453   4.218   4.698  0.2326 -0.9434 -0.0306
 1856ntf    fn412720   0.492   4.259   4.496  0.5053 -0.4107 -0.3576
 1857ntf    cn112721   4.261   6.216   6.253  0.0972  0.1999  0.0311
 1857ntf    sn212722   4.133   6.345   6.262  0.1359  0.2427 -0.0309
 1857ntf    nn312723   4.064   6.322   6.123 -0.3379  0.2047  0.2066
 1857ntf    sn212724   3.972   6.201   6.083  0.1181  0.0026 -0.2324
 1857ntf    cn112725   3.816   6.281   6.037  0.0895 -0.0441 -0.2136
 1857ntf    fn412726   4.337   6.229   6.145 -0.0623 -0.5942 -0.1836
 1857ntf    fn412727   4.346   6.217   6.354 -0.1662  0.3098  0.2522
 1857ntf    fn412728   4.207   6.096   6.249  0.2555  0.1511 -0.7712
 1857ntf    on512729   4.050   6.318   6.377 -0.2623  0.6558 -0.2176
 1857ntf    on512730   4.206   6.468   6.272  0.3112  0.1722 -0.4237
 1857ntf    on512731   3.932   6.105   6.182  0.3020  0.1979  0.0318
 1857ntf    on512732   4.013   6.149   5.954 -0.1879 -0.4423 -0.1496
 1857ntf    fn412733   3.729   6.192   5.993  0.2156 -0.1762 -0.1957
 1857ntf    fn412734   3.755   6.350   6.133  0.1941 -0.0566 -0.1377
 1857ntf    fn412735   3.831   6.370   5.941  0.6759  0.1149  0.0248
 1858ntf    cn112736   5.681   5.711   2.632  0.1462  0.0751  0.0495
 1858ntf    sn212737   5.838   5.623   2.658 -0.0540 -0.2636  0.1153
 1858ntf    nn312738   5.815   5.522   2.776  0.0381 -0.1770  0.2075
 1858ntf    sn212739   5.820   5.549   2.930  0.3999 -0.4437  0.2421
 1858ntf    cn112740   5.859   5.379   2.985  0.4738 -0.4259  0.2443
 1858ntf    fn412741   5.692   5.812   2.547 -0.3149 -0.1652 -0.2957
 1858ntf    fn412742   5.589   5.630   2.584  0.2985  0.0002 -0.1175
 1858ntf    fn412743   5.638   5.753   2.750  0.2021 -0.1662  0.1549
 1858ntf    on512744   5.865   5.547   2.539  0.0657 -0.0861  0.0271
 1858ntf    on512745   5.935   5.727   2.683  0.2676 -0.4834 -0.2123
 1858ntf    on512746   5.696   5.584   2.994  0.3899  0.2419 -0.1540
 1858ntf    on512747   5.935   5.622   2.976  0.4023  0.1307 -0.6595
 1858ntf    fn412748   5.959   5.371   3.071  0.7281 -0.5356 -0.0563
 1858ntf    fn412749   5.750   5.323   3.034  0.2469 -0.6223 -0.4663
 1858ntf    fn412750   5.896   5.305   2.882 -0.4352  0.3093 -0.6395
 1859ntf    cn112751   0.349   5.256   3.374  0.1144  0.0304  0.3698
 1859ntf    sn212752   0.456   5.156   3.267 -0.2655 -0.1489  0.1551
 1859ntf    nn312753   0.598   5.200   3.317 -0.3910 -0.0526  0.4273
 1859ntf    sn212754   0.697   5.130   3.417  0.1223 -0.0250 -0.0585
 1859ntf    cn112755   0.835   5.074   3.312 -0.0733 -0.3765 -0.1310
 1859ntf    fn412756   0.366   5.385   3.350  0.1225 -0.0827 -0.2316
 1859ntf    fn412757   0.222   5.221   3.361  0.0794  0.3130 -0.0786
 1859ntf    fn412758   0.378   5.252   3.503  0.1496 -0.0078  0.3609
 1859ntf    on512759   0.420   5.019   3.293 -1.1633  0.1526  0.5387
 1859ntf    on512760   0.426   5.213   3.138 -0.2501  0.5994  0.4778
 1859ntf    on512761   0.649   5.011   3.483 -0.4248  0.3430  0.2124
 1859ntf    on512762   0.758   5.232   3.498 -0.1536 -0.0069  0.1254
 1859ntf    fn412763   0.940   5.034   3.382  0.0013  0.3695  0.1975
 1859ntf    fn412764   0.809   4.977   3.227 -0.4881 -0.3723 -0.0108
 1859ntf    fn412765   0.871   5.180   3.241  0.0013 -0.2612  0.0775
 1860ntf    cn112766   5.981   6.590   0.584 -0.0608  0.2118 -0.2190
 1860ntf    sn212767   5.959   6.749   0.669  0.0694  0.2619 -0.2791
 1860ntf    nn312768   5.916   6.852   0.558 -0.1922  0.1231 -0.3079
 1860ntf    sn212769   6.012   6.928   0.459 -0.2598  0.3754 -0.1802
 1860ntf    cn112770   6.032   7.086   0.546  0.3752 -0.0732  0.5009
 1860ntf    fn412771   6.084   6.587   0.501  0.1087  0.0603 -0.0044
 1860ntf    fn412772   6.005   6.496   0.674 -0.3061  0.1226 -0.2476
 1860ntf    fn412773   5.872   6.545   0.523 -0.1464 -0.4861  0.4315
 1860ntf    on512774   5.843   6.737   0.754  0.0118  0.4886 -0.3243
 1860ntf    on512775   6.085   6.772   0.735 -0.0744  0.1318  0.0411
 1860ntf    on512776   5.950   6.958   0.332  0.3295  0.1506 -0.5270
 1860ntf    on512777   6.145   6.873   0.452 -0.5280 -0.3941  0.5543
 1860ntf    fn412778   6.089   7.090   0.665  0.6856  0.1640  0.3445
 1860ntf    fn412779   6.104   7.164   0.467 -0.4717 -0.1221 -0.3351
 1860ntf    fn412780   5.921   7.155   0.571  0.7173  0.7055 -0.1007
 1861ntf    cn112781   3.356   4.299   0.920  0.2956  0.2383  0.1556
 1861ntf    sn212782   3.401   4.424   1.044 -0.2186  0.3639  0.2196
 1861ntf    nn312783   3.453   4.333   1.161 -0.2416 -0.1127 -0.1392
 1861ntf    sn212784   3.587   4.351   1.240 -0.2898 -0.1049 -0.0587
 1861ntf    cn112785   3.504   4.390   1.397 -0.4503  0.3366 -0.2529
 1861ntf    fn412786   3.327   4.356   0.804 -0.0613  0.0617  0.1560
 1861ntf    fn412787   3.455   4.214   0.899 -0.1318 -0.2759  0.1836
 1861ntf    fn412788   3.249   4.229   0.956  0.4759 -0.2035 -0.1605
 1861ntf    on512789   3.508   4.491   0.974  0.2109 -0.1726  0.3569
 1861ntf    on512790   3.287   4.506   1.076 -0.2851  0.3443  0.0347
 1861ntf    on512791   3.672   4.465   1.218 -0.4387  0.0529  0.1823
 1861ntf    on512792   3.657   4.230   1.276 -0.3453 -0.0227  0.3279
 1861ntf    fn412793   3.591   4.430   1.488  0.1744 -0.4549 -0.4873
 1861ntf    fn412794   3.412   4.484   1.378 -0.2384  0.4830 -0.5576
 1861ntf    fn412795   3.438   4.286   1.445  0.0328  0.0355 -0.2391
 1862ntf    cn112796   2.362   6.083   2.641  0.0974 -0.3009 -0.0098
 1862ntf    sn212797   2.376   6.027   2.813  0.0436  0.1873  0.1538
 1862ntf    nn312798   2.469   6.142   2.868 -0.0013  0.4955 -0.4108
 1862ntf    sn212799   2.570   6.139   2.988 -0.3892  0.0816 -0.0934
 1862ntf    cn112800   2.695   6.253   2.924  0.0831 -0.1684  0.3735
 1862ntf    fn412801   2.284   6.005   2.567  0.2971 -0.6216  0.1199
 1862ntf    fn412802   2.308   6.204   2.632 -0.7221 -0.6923 -0.5092
 1862ntf    fn412803   2.477   6.083   2.576  0.4202  0.2445  0.5552
 1862ntf    on512804   2.241   6.046   2.861 -0.1617  0.0022 -0.3502
 1862ntf    on512805   2.435   5.897   2.796  0.7835  0.5267  0.0690
 1862ntf    on512806   2.650   6.019   2.991 -0.2229  0.1928 -0.1130
 1862ntf    on512807   2.537   6.196   3.116  0.0536  0.0585  0.0325
 1862ntf    fn412808   2.773   6.203   2.830 -0.1245 -0.3689  0.3081
 1862ntf    fn412809   2.652   6.372   2.885  0.4101 -0.2242 -0.1739
 1862ntf    fn412810   2.786   6.278   3.016 -0.3042  0.8765  0.4877
 1863ntf    cn112811   3.002   5.901   0.642 -0.0393  0.3160  0.0898
 1863ntf    sn212812   2.990   6.068   0.712 -0.0425  0.2338  0.2886
 1863ntf    nn312813   2.974   6.146   0.576  0.2837  0.4050  0.3466
 1863ntf    sn212814   2.925   6.293   0.556  0.2262  0.3686  0.2180
 1863ntf    cn112815   2.755   6.252   0.509  0.3749 -0.0587  0.0527
 1863ntf    fn412816   3.019   5.807   0.734 -0.1253  0.0380 -0.1787
 1863ntf    fn412817   2.894   5.866   0.574  0.1649 -0.2978  0.0710
 1863ntf    fn412818   3.107   5.888   0.563  0.1730  0.5204  0.3382
 1863ntf    on512819   2.864   6.063   0.783 -0.0313  0.0675  0.2975
 1863ntf    on512820   3.106   6.097   0.792  0.3383  0.6084 -0.3929
 1863ntf    on512821   2.997   6.357   0.448  0.1066 -0.4509 -0.3539
 1863ntf    on512822   2.909   6.368   0.678 -0.4488  0.3516  0.1395
 1863ntf    fn412823   2.749   6.175   0.402 -0.1514 -0.1315  0.1285
 1863ntf    fn412824   2.689   6.195   0.609 -0.0641  0.0382 -0.1804
 1863ntf    fn412825   2.678   6.354   0.476 -0.0103 -0.2381  0.3865
 1864ntf    cn112826   0.378   0.096   2.752  0.3066  0.4363  0.3716
 1864ntf    sn212827   0.488   0.240   2.753  0.1277  0.5769 -0.0213
 1864ntf    nn312828   0.513   0.261   2.599  0.0050  0.2122 -0.0916
 1864ntf    sn212829   0.651   0.237   2.527  0.0611 -0.0966  0.1184
 1864ntf    cn112830   0.595   0.249   2.355 -0.3817 -0.1181  0.2592
 1864ntf    fn412831   0.249   0.115   2.727  0.3903 -0.2524 -0.6764
 1864ntf    fn412832   0.419   0.012   2.658 -0.0256  0.4187  0.2402
 1864ntf    fn412833   0.380   0.028   2.865  0.3000  0.2632  0.2695
 1864ntf    on512834   0.401   0.338   2.813 -0.0315 -0.0709  0.8241
 1864ntf    on512835   0.599   0.194   2.832 -0.3181 -0.0593  0.2432
 1864ntf    on512836   0.703   0.103   2.537  0.2720 -0.0112  0.1662
 1864ntf    on512837   0.743   0.347   2.530 -0.1784  0.0964  0.5932
 1864ntf    fn412838   0.507   0.155   2.325 -0.0930 -0.3578  0.1661
 1864ntf    fn412839   0.539   0.367   2.334 -0.6867 -0.3511 -0.2563
 1864ntf    fn412840   0.693   0.240   2.266 -0.2680  0.8152  0.2810
 1865ntf    cn112841   3.970   5.066   1.150 -0.1961 -0.1257  0.0146
 1865ntf    sn212842   4.125   4.985   1.198  0.0545  0.1808 -0.2724
 1865ntf    nn312843   4.197   5.008   1.060 -0.1110  0.0752 -0.3775
 1865ntf    sn212844   4.349   5.048   1.046 -0.1673  0.3564 -0.2088
 1865ntf    cn112845   4.394   4.991   0.879  0.1749  0.0001  0.0052
 1865ntf    fn412846   4.006   5.166   1.071  0.0846 -0.0991  0.1782
 1865ntf    fn412847   3.892   4.988   1.076  0.0979 -0.1347 -0.2892
 1865ntf    fn412848   3.900   5.118   1.249 -0.1008  0.5286 -0.2547
 1865ntf    on512849   4.175   5.074   1.299  0.6135 -0.4278 -0.0029
 1865ntf    on512850   4.086   4.850   1.230 -0.0935  0.3338  0.1956
 1865ntf    on512851   4.445   4.975   1.125  0.3597  0.4663 -0.7404
 1865ntf    on512852   4.369   5.190   1.034  0.1467  0.2580 -0.8641
 1865ntf    fn412853   4.310   5.039   0.789  0.6425  0.2109 -0.3199
 1865ntf    fn412854   4.514   5.029   0.839  0.2715 -0.1843  0.1148
 1865ntf    fn412855   4.394   4.858   0.872 -0.4509 -0.0345  0.5079
 1866ntf    cn112856   2.451   4.636   1.629  0.0817  0.4635 -0.0722
 1866ntf    sn212857   2.413   4.724   1.474  0.0657  0.1172 -0.2667
 1866ntf    nn312858   2.439   4.614   1.365 -0.1262  0.2423 -0.4385
 1866ntf    sn212859   2.576   4.586   1.293 -0.0342  0.2829 -0.2806
 1866ntf    cn112860   2.543   4.698   1.154 -0.0465  0.0245 -0.4883
 1866ntf    fn412861   2.398   4.514   1.621  0.5292  0.2261  0.4918
 1866ntf    fn412862   2.580   4.638   1.656  0.1376 -0.0821 -0.2857
 1866ntf    fn412863   2.390   4.695   1.731 -0.5213 -0.0665 -0.1162
 1866ntf    on512864   2.272   4.749   1.486 -0.0670 -0.7652  0.1213
 1866ntf    on512865   2.495   4.842   1.468  0.0430  0.0992 -0.9918
 1866ntf    on512866   2.576   4.456   1.229  0.1539  0.0084  0.2698
 1866ntf    on512867   2.695   4.629   1.362 -0.0884 -0.4379  0.2801
 1866ntf    fn412868   2.644   4.683   1.071  0.0087  0.7576 -0.5634
 1866ntf    fn412869   2.431   4.667   1.089 -0.0843 -0.1448 -0.3405
 1866ntf    fn412870   2.530   4.826   1.186  0.0852  0.0685 -0.6106
 1867ntf    cn112871   5.384   4.390   2.115 -0.2716 -0.1521  0.3339
 1867ntf    sn212872   5.406   4.440   1.942 -0.1744 -0.3053  0.3025
 1867ntf    nn312873   5.265   4.501   1.908  0.1098 -0.0650 -0.4683
 1867ntf    sn212874   5.144   4.422   1.847 -0.0021 -0.0994 -0.2040
 1867ntf    cn112875   5.178   4.434   1.669 -0.4065 -0.4238 -0.3061
 1867ntf    fn412876   5.485   4.323   2.167 -0.2313 -0.1685  0.2339
 1867ntf    fn412877   5.355   4.491   2.196 -0.2108  0.2134 -0.1013
 1867ntf    fn412878   5.276   4.313   2.123 -0.4327  0.0827  0.4706
 1867ntf    on512879   5.517   4.531   1.958 -0.2245 -0.3119  0.7024
 1867ntf    on512880   5.434   4.318   1.869 -0.0831 -0.2278  0.2068
 1867ntf    on512881   5.015   4.485   1.861  0.0023 -0.0691 -0.3024
 1867ntf    on512882   5.155   4.280   1.870  0.2539 -0.0211  0.1650
 1867ntf    fn412883   5.192   4.560   1.630  0.3551 -0.2754  0.4103
 1867ntf    fn412884   5.288   4.366   1.640  0.0851  0.3369 -0.2740
 1867ntf    fn412885   5.088   4.375   1.592  0.0757 -0.7416 -0.6360
 1868ntf    cn112886   5.740   1.169   4.890 -0.2497 -0.6633 -0.5254
 1868ntf    sn212887   5.751   1.246   5.054 -0.3098 -0.1021 -0.7819
 1868ntf    nn312888   5.782   1.119   5.140 -0.3139  0.3994 -0.0324
 1868ntf    sn212889   5.759   1.109   5.295  0.3003  0.2882  0.0544
 1868ntf    cn112890   5.919   1.158   5.367  0.3206  0.2358  0.0452
 1868ntf    fn412891   5.635   1.089   4.885 -0.5432 -0.2996 -0.2143
 1868ntf    fn412892   5.728   1.262   4.795  0.5714  0.2171  0.2122
 1868ntf    fn412893   5.848   1.098   4.863 -0.2420 -0.6926 -0.4182
 1868ntf    on512894   5.859   1.340   5.034 -0.0329 -0.2279  0.0869
 1868ntf    on512895   5.620   1.304   5.073 -0.0740 -0.0458  0.8240
 1868ntf    on512896   5.738   0.973   5.340 -0.0030  0.5176  0.6167
 1868ntf    on512897   5.671   1.210   5.347 -0.0809 -0.0491  0.0690
 1868ntf    fn412898   5.962   1.278   5.331 -0.9783  0.5037 -0.6940
 1868ntf    fn412899   5.912   1.143   5.498 -0.0417 -0.3447 -0.0355
 1868ntf    fn412900   6.015   1.077   5.326  0.3016  0.2457 -0.0208
 1869ntf    cn112901   5.297   0.064   3.086  0.2210  0.5996  0.3592
 1869ntf    sn212902   5.369   0.139   3.235 -0.0139  0.1022  0.7255
 1869ntf    nn312903   5.293   0.059   3.347 -0.2714 -0.3636  0.2233
 1869ntf    sn212904   5.320  -0.083   3.407  0.2839 -0.2933  0.1461
 1869ntf    cn112905   5.155  -0.158   3.390  0.3905 -0.4269 -0.3130
 1869ntf    fn412906   5.363   0.104   2.978  0.1267  0.4809  0.2571
 1869ntf    fn412907   5.309  -0.068   3.087 -0.3556  0.5276 -0.6703
 1869ntf    fn412908   5.170   0.097   3.072  0.1884  0.2895 -0.0951
 1869ntf    on512909   5.512   0.121   3.234 -0.0181  0.0676 -0.0353
 1869ntf    on512910   5.325   0.276   3.230 -0.1419  0.0312 -0.1456
 1869ntf    on512911   5.344  -0.087   3.549 -0.2138  0.2405  0.2486
 1869ntf    on512912   5.406  -0.170   3.331  0.1961 -0.2667  0.0123
 1869ntf    fn412913   5.159  -0.288   3.412 -0.8730 -0.4317 -0.0530
 1869ntf    fn412914   5.060  -0.100   3.461  0.5418  0.1229 -0.5507
 1869ntf    fn412915   5.116  -0.144   3.264  0.5776 -0.2163 -0.3475
 1870ntf    cn112916   2.136   1.023   1.216 -0.1771 -0.2080  0.3490
 1870ntf    sn212917   2.167   1.112   1.372 -0.0035  0.1754  0.0963
 1870ntf    nn312918   2.282   1.212   1.332  0.2627 -0.1336  0.0838
 1870ntf    sn212919   2.436   1.183   1.331  0.2535 -0.1854 -0.3383
 1870ntf    cn112920   2.475   1.232   1.502 -0.1357 -0.1196 -0.2669
 1870ntf    fn412921   2.071   1.092   1.124  0.4247 -0.1515 -0.0365
 1870ntf    fn412922   2.252   0.986   1.164 -0.0100  0.4056  0.2758
 1870ntf    fn412923   2.070   0.910   1.228 -0.0969 -0.2855  0.0642
 1870ntf    on512924   2.047   1.189   1.392 -0.5726 -0.6612 -0.0940
 1870ntf    on512925   2.207   1.004   1.458 -0.7309 -0.2421 -0.0841
 1870ntf    on512926   2.503   1.286   1.255 -0.0867  0.4527  0.2187
 1870ntf    on512927   2.468   1.044   1.313 -0.5091 -0.3933 -0.1128
 1870ntf    fn412928   2.377   1.210   1.588  0.2565  0.0735  0.2347
 1870ntf    fn412929   2.577   1.164   1.551 -0.0890  0.1176 -0.0303
 1870ntf    fn412930   2.503   1.360   1.520  0.0012 -0.0922 -0.6683
 1871ntf    cn112931   4.299   5.585   6.501  0.0115 -0.0127  0.0042
 1871ntf    sn212932   4.325   5.405   6.495 -0.6105 -0.1105  0.2290
 1871ntf    nn312933   4.391   5.368   6.632 -0.2745  0.8804  0.3422
 1871ntf    sn212934   4.326   5.332   6.770  0.0145  0.0207  0.2586
 1871ntf    cn112935   4.320   5.150   6.766 -0.1886  0.0406 -0.3799
 1871ntf    fn412936   4.247   5.646   6.396  0.7582 -0.2474 -0.5108
 1871ntf    fn412937   4.228   5.625   6.605  0.0447 -0.2024  0.1003
 1871ntf    fn412938   4.416   5.645   6.514 -0.0916  0.3512 -0.6637
 1871ntf    on512939   4.192   5.354   6.474 -0.3798 -0.6396  0.0565
 1871ntf    on512940   4.420   5.392   6.388 -0.3945 -0.3082  0.4427
 1871ntf    on512941   4.187   5.370   6.783 -0.1505 -0.2478 -0.6665
 1871ntf    on512942   4.420   5.350   6.878  0.0520  0.0424  0.2218
 1871ntf    fn412943   4.422   5.096   6.701 -0.0323 -0.2291  0.0884
 1871ntf    fn412944   4.312   5.087   6.882  0.0581  0.3046 -0.2193
 1871ntf    fn412945   4.215   5.103   6.700 -0.4225  0.2333 -0.1456
 1872ntf    cn112946   5.575   3.814   4.016 -0.2920 -0.0225 -0.0789
 1872ntf    sn212947   5.502   3.929   4.136 -0.0143 -0.1575  0.2203
 1872ntf    nn312948   5.609   3.924   4.251  0.2112  0.8470  0.0702
 1872ntf    sn212949   5.586   3.911   4.406  0.0122 -0.4375 -0.0555
 1872ntf    cn112950   5.621   3.735   4.436  0.2774 -0.3754  0.0020
 1872ntf    fn412951   5.694   3.850   3.972 -0.1326 -0.0056  0.3606
 1872ntf    fn412952   5.589   3.696   4.074  0.7312  0.1690  0.0777
 1872ntf    fn412953   5.500   3.791   3.909  0.3161  0.0080 -0.5157
 1872ntf    on512954   5.493   4.061   4.079 -1.4354 -0.0670  0.6094
 1872ntf    on512955   5.376   3.867   4.169 -0.2588  0.1841 -0.0617
 1872ntf    on512956   5.451   3.927   4.454  0.1296  0.2804  0.0444
 1872ntf    on512957   5.690   3.989   4.468  0.0583  0.0690 -0.7598
 1872ntf    fn412958   5.613   3.700   4.564 -0.5805  0.0076  0.0581
 1872ntf    fn412959   5.527   3.669   4.370  0.1287  0.2232 -0.3889
 1872ntf    fn412960   5.748   3.706   4.411  0.4322 -0.2543  0.6217
 1873ntf    cn112961   2.194   4.795   5.335  0.2956 -0.1658  0.4751
 1873ntf    sn212962   2.208   4.614   5.339 -0.1767 -0.2198 -0.1785
 1873ntf    nn312963   2.136   4.565   5.208 -0.2645  0.4340 -0.3773
 1873ntf    sn212964   2.196   4.512   5.073 -0.1324 -0.0288 -0.1390
 1873ntf    cn112965   2.179   4.332   5.082  0.5250 -0.0691  0.3798
 1873ntf    fn412966   2.072   4.831   5.300  0.4132 -0.1481  0.0725
 1873ntf    fn412967   2.216   4.851   5.453  0.6142  0.3081  0.1964
 1873ntf    fn412968   2.272   4.851   5.244 -0.2979 -0.6174 -0.3202
 1873ntf    on512969   2.350   4.587   5.347 -0.1879 -0.4358 -0.6510
 1873ntf    on512970   2.132   4.589   5.459  0.0354 -0.5214 -0.1046
 1873ntf    on512971   2.340   4.524   5.063 -0.0807 -0.3120  0.2622
 1873ntf    on512972   2.116   4.562   4.964  0.1955  0.6441 -0.0790
 1873ntf    fn412973   2.200   4.286   5.204  0.7620 -0.4098  0.2136
 1873ntf    fn412974   2.055   4.299   5.053  0.5292 -0.4282  0.7658
 1873ntf    fn412975   2.266   4.268   5.004  0.3283 -0.1630  0.2371
 1874ntf    cn112976   4.069   1.164   3.219  0.2715  0.0508  0.0802
 1874ntf    sn212977   4.170   1.013   3.228  0.2915  0.0455 -0.2233
 1874ntf    nn312978   4.254   1.046   3.357 -0.0016  0.7339 -0.2036
 1874ntf    sn212979   4.387   1.129   3.370  0.1213  0.5247 -0.1127
 1874ntf    cn112980   4.317   1.257   3.479 -0.2546  0.2532 -0.0324
 1874ntf    fn412981   4.010   1.180   3.336  0.3409 -0.4992  0.1917
 1874ntf    fn412982   4.140   1.276   3.211 -0.2398  0.3593 -0.1806
 1874ntf    fn412983   3.979   1.163   3.122 -0.0132 -0.5910  0.3439
 1874ntf    on512984   4.070   0.912   3.250  0.0665  0.3100 -0.0165
 1874ntf    on512985   4.241   1.005   3.102  0.3778  0.1415 -0.1808
 1874ntf    on512986   4.437   1.199   3.254  0.0956  0.2035 -0.3195
 1874ntf    on512987   4.492   1.066   3.445 -0.6047 -0.1815  0.3359
 1874ntf    fn412988   4.406   1.347   3.517  0.2795 -0.3456  0.1504
 1874ntf    fn412989   4.217   1.320   3.419 -0.2728  0.5995  0.3604
 1874ntf    fn412990   4.258   1.210   3.588 -0.5506 -0.1185 -0.3490
 1875ntf    cn112991   2.572   6.282   3.829  0.4119  0.1622  0.5509
 1875ntf    sn212992   2.399   6.334   3.848  0.2055 -0.2643 -0.1105
 1875ntf    nn312993   2.328   6.199   3.815  0.0865 -0.2166 -0.0506
 1875ntf    sn212994   2.292   6.143   3.672 -0.0962  0.0834 -0.1219
 1875ntf    cn112995   2.113   6.165   3.696 -0.1188 -0.1997 -0.0341
 1875ntf    fn412996   2.599   6.238   3.707  0.2704  0.5276  0.3870
 1875ntf    fn412997   2.652   6.385   3.851  0.6562  0.1204 -0.0917
 1875ntf    fn412998   2.608   6.188   3.915  0.1082 -0.3443  0.1287
 1875ntf    on512999   2.389   6.358   3.990 -0.0161  0.1501 -0.1929
 1875ntf    on513000   2.384   6.446   3.758  0.0552 -0.7101 -0.6468
 1875ntf    on513001   2.299   6.000   3.661 -0.6262  0.0574 -0.1685
 1875ntf    on513002   2.320   6.229   3.560 -0.1491  0.2548 -0.0033
 1875ntf    fn413003   2.091   6.283   3.752  0.1594 -0.1181 -0.0951
 1875ntf    fn413004   2.050   6.174   3.580 -0.0122  0.9613 -0.0064
 1875ntf    fn413005   2.054   6.073   3.772  0.0550 -0.2700  0.0179
 1876ntf    cn113006   3.876   3.615   4.338  0.1814  0.0027 -0.4221
 1876ntf    sn213007   3.994   3.615   4.200  0.4155  0.0333 -0.2233
 1876ntf    nn313008   3.906   3.523   4.107  0.1896 -0.1168  0.1399
 1876ntf    sn213009   3.940   3.412   4.002  0.0159  0.0418 -0.0831
 1876ntf    cn113010   3.941   3.272   4.117 -0.1755  0.0508 -0.0692
 1876ntf    fn413011   3.750   3.641   4.305 -0.1230 -0.6665  0.1952
 1876ntf    fn413012   3.884   3.495   4.393  0.4721  0.2266  0.0267
 1876ntf    fn413013   3.909   3.702   4.432 -0.0109  0.0038 -0.3550
 1876ntf    on513014   3.991   3.756   4.170  0.7473  0.0247 -0.2988
 1876ntf    on513015   4.113   3.557   4.258 -0.0471 -0.5704  0.1374
 1876ntf    on513016   4.073   3.422   3.946 -0.0332  0.4889 -0.1209
 1876ntf    on513017   3.832   3.373   3.915  0.0511 -0.5519  0.1378
 1876ntf    fn413018   4.053   3.272   4.187 -0.1659  0.1098 -0.0850
 1876ntf    fn413019   3.844   3.275   4.207 -0.2162  0.7678 -0.1368
 1876ntf    fn413020   3.931   3.153   4.058 -0.1342  0.0835 -0.1423
 1877ntf    cn113021   4.417   0.661   3.578  0.0966 -0.0298  0.1346
 1877ntf    sn213022   4.485   0.509   3.650  0.5058  0.1768  0.1849
 1877ntf    nn313023   4.476   0.408   3.531  0.3394  0.3642  0.0393
 1877ntf    sn213024   4.368   0.296   3.506  0.2574  0.5455 -0.4378
 1877ntf    cn113025   4.441   0.173   3.618 -0.3050  0.6769  0.0812
 1877ntf    fn413026   4.299   0.639   3.522  0.2312  0.0997 -0.2022
 1877ntf    fn413027   4.393   0.762   3.661  0.3350 -0.0833  0.2710
 1877ntf    fn413028   4.493   0.711   3.482  0.2829 -0.3942  0.0925
 1877ntf    on513029   4.626   0.535   3.669  0.6436 -0.4570  0.0528
 1877ntf    on513030   4.404   0.484   3.767 -0.0772  0.1650 -0.2209
 1877ntf    on513031   4.371   0.233   3.377  0.1214 -0.1477 -0.1063
 1877ntf    on513032   4.236   0.315   3.562  0.4904 -0.1479  0.3667
 1877ntf    fn413033   4.544   0.107   3.568 -0.4714  0.4922 -0.0214
 1877ntf    fn413034   4.480   0.214   3.737  0.0480 -0.1269  0.2492
 1877ntf    fn413035   4.357   0.075   3.645 -0.4799  0.7935 -0.0373
 1878ntf    cn113036   2.661   5.221   1.982 -0.3298  0.0389 -0.1351
 1878ntf    sn213037   2.735   5.362   1.895  0.2832 -0.2137 -0.0244
 1878ntf    nn313038   2.758   5.458   2.016  0.1228 -0.3865  0.1433
 1878ntf    sn213039   2.865   5.572   2.033 -0.1199 -0.0881 -0.3062
 1878ntf    cn113040   2.992   5.487   2.132 -0.1778  0.2140  0.0304
 1878ntf    fn413041   2.743   5.184   2.079 -0.0900  0.0726 -0.3239
 1878ntf    fn413042   2.545   5.256   2.036 -0.3615 -0.3292  0.0431
 1878ntf    fn413043   2.625   5.118   1.908 -0.0854  0.2942 -0.6106
 1878ntf    on513044   2.849   5.304   1.828  0.2330  0.0379 -0.3334
 1878ntf    on513045   2.625   5.397   1.809 -0.1823 -0.0024  0.6566
 1878ntf    on513046   2.826   5.681   2.118  0.3208 -0.1192 -0.0577
 1878ntf    on513047   2.924   5.604   1.906  0.2089 -0.3313 -0.2177
 1878ntf    fn413048   3.091   5.567   2.171 -0.1643 -0.0672  0.5875
 1878ntf    fn413049   2.962   5.425   2.245 -0.1064 -0.4513 -0.3094
 1878ntf    fn413050   3.039   5.383   2.065 -0.5219 -0.2447  0.4916
 1879ntf    cn113051   2.263   3.809   5.873 -0.3387 -0.2606  0.2416
 1879ntf    sn213052   2.299   3.631   5.889  0.0092 -0.1818  0.3479
 1879ntf    nn313053   2.229   3.578   5.759  0.2872  0.3845 -0.0370
 1879ntf    sn213054   2.284   3.520   5.624 -0.0404  0.4429 -0.1976
 1879ntf    cn113055   2.293   3.341   5.654  0.0450  0.5083  0.1688
 1879ntf    fn413056   2.305   3.872   5.765  0.1391  0.4640  0.8356
 1879ntf    fn413057   2.136   3.843   5.891 -0.2660  0.3082 -0.2763
 1879ntf    fn413058   2.328   3.859   5.977 -0.1860  0.0802 -0.0164
 1879ntf    on513059   2.442   3.614   5.881  0.0662  0.2280  0.4609
 1879ntf    on513060   2.242   3.587   6.014  0.0574 -0.1078  0.3956
 1879ntf    on513061   2.416   3.556   5.578  0.0414 -0.1647 -0.4492
 1879ntf    on513062   2.186   3.530   5.519  0.0791  0.1880 -0.3357
 1879ntf    fn413063   2.173   3.285   5.664  0.3792 -0.2504 -0.0133
 1879ntf    fn413064   2.357   3.275   5.559 -0.0435  0.6598  0.0050
 1879ntf    fn413065   2.350   3.304   5.768  0.0868  0.0849  0.0149
 1880ntf    cn113066   1.633   2.873   2.546 -0.2041 -0.0580 -0.1501
 1880ntf    sn213067   1.741   3.012   2.503 -0.2179  0.0300  0.1004
 1880ntf    nn313068   1.637   3.125   2.473 -0.6034 -0.1711  0.6564
 1880ntf    sn213069   1.493   3.120   2.411 -0.2391  0.1288 -0.2383
 1880ntf    cn113070   1.496   3.283   2.333  0.3000  0.2260 -0.0176
 1880ntf    fn413071   1.544   2.900   2.640  0.0945  0.1548  0.0702
 1880ntf    fn413072   1.575   2.822   2.438 -0.0158  0.1672 -0.3564
 1880ntf    fn413073   1.707   2.772   2.589 -0.3498 -0.2566 -0.3608
 1880ntf    on513074   1.813   3.037   2.626  0.1039  0.5707 -0.1952
 1880ntf    on513075   1.820   2.964   2.393  0.7761 -0.4717  1.0071
 1880ntf    on513076   1.389   3.132   2.510 -0.0316 -0.3917  0.0484
 1880ntf    on513077   1.468   3.024   2.306 -0.3504 -0.0410 -0.0592
 1880ntf    fn413078   1.375   3.323   2.298  0.0338 -0.4714  0.1048
 1880ntf    fn413079   1.546   3.383   2.404 -0.0423  0.2224  0.2256
 1880ntf    fn413080   1.568   3.287   2.222  0.2492  0.4903 -0.0424
 1881ntf    cn113081   5.875   3.406   1.180  0.1805  0.1406  0.0392
 1881ntf    sn213082   6.007   3.294   1.235  0.0275 -0.0451  0.0311
 1881ntf    nn313083   5.978   3.308   1.388  0.2649  0.0906  0.0642
 1881ntf    sn213084   6.042   3.220   1.501  0.2304 -0.1813 -0.1292
 1881ntf    cn113085   5.886   3.166   1.578  0.0975  0.2219 -0.1138
 1881ntf    fn413086   5.883   3.529   1.228  0.3412  0.0601  0.2174
 1881ntf    fn413087   5.872   3.414   1.048 -0.1684 -0.3277  0.0158
 1881ntf    fn413088   5.757   3.359   1.217  0.1112 -0.0392 -0.3997
 1881ntf    on513089   5.966   3.168   1.178 -0.7146 -0.0685  0.6169
 1881ntf    on513090   6.131   3.356   1.194 -0.3354  0.7462  0.1041
 1881ntf    on513091   6.103   3.306   1.599  0.0708 -0.2869  0.0641
 1881ntf    on513092   6.110   3.097   1.469  0.4746 -0.0158 -0.2480
 1881ntf    fn413093   5.797   3.121   1.491 -0.0500  0.1415  0.0772
 1881ntf    fn413094   5.901   3.070   1.668  0.3689  0.3220 -0.0489
 1881ntf    fn413095   5.837   3.271   1.641 -0.6389 -0.0690 -0.1934
 1882ntf    cn113096   3.491   4.770   2.185  0.0978 -0.2459  0.0766
 1882ntf    sn213097   3.556   4.896   2.072 -0.2824 -0.2472 -0.1454
 1882ntf    nn313098   3.598   4.810   1.947 -0.5716 -1.3630  0.5110
 1882ntf    sn213099   3.511   4.782   1.819 -0.0451 -0.0873 -0.1466
 1882ntf    cn113100   3.517   4.601   1.807 -0.0352 -0.1033  0.0789
 1882ntf    fn413101   3.441   4.827   2.294  0.1819 -0.3657  0.1777
 1882ntf    fn413102   3.403   4.691   2.126 -0.0628  0.2118 -0.3057
 1882ntf    fn413103   3.595   4.703   2.231  0.2812  0.0035  0.0292
 1882ntf    on513104   3.456   4.999   2.054 -0.1277 -0.0554  0.0840
 1882ntf    on513105   3.671   4.942   2.146  0.0863 -0.7100 -0.4275
 1882ntf    on513106   3.571   4.818   1.693  0.2213  0.3923  0.1134
 1882ntf    on513107   3.370   4.809   1.833 -0.0770 -0.0663 -0.5123
 1882ntf    fn413108   3.439   4.550   1.901  0.2700  0.2115  0.5073
 1882ntf    fn413109   3.469   4.558   1.691  0.3532  0.5936 -0.3449
 1882ntf    fn413110   3.635   4.543   1.822  0.3756  0.5010 -0.7112
 1883ntf    cn113111   2.714   1.426   3.789  0.0363  0.0773 -0.2586
 1883ntf    sn213112   2.782   1.586   3.843  0.1172 -0.0657  0.0640
 1883ntf    nn313113   2.743   1.584   3.995  0.4087  0.3446  0.1463
 1883ntf    sn213114   2.814   1.525   4.122 -0.2319 -0.1583  0.2779
 1883ntf    cn113115   2.883   1.686   4.172  0.2520 -0.2235 -0.1725
 1883ntf    fn413116   2.768   1.388   3.675 -0.3207  0.1537 -0.4515
 1883ntf    fn413117   2.744   1.323   3.866 -0.1517 -0.3835 -0.7979
 1883ntf    fn413118   2.584   1.432   3.768 -0.0156  0.2892  0.1032
 1883ntf    on513119   2.923   1.589   3.813  0.0984 -0.4016 -0.0608
 1883ntf    on513120   2.701   1.683   3.774 -0.0413  0.0052  0.3473
 1883ntf    on513121   2.934   1.448   4.100 -0.2081 -0.0124 -0.1042
 1883ntf    on513122   2.727   1.498   4.234 -0.1866 -1.0164  0.1095
 1883ntf    fn413123   2.976   1.719   4.084  0.2638 -0.2768 -0.1806
 1883ntf    fn413124   2.784   1.772   4.155  0.0216 -0.4889 -0.1862
 1883ntf    fn413125   2.934   1.690   4.294  0.1864  0.4655 -0.1632
 1884ntf    cn113126   1.398   2.353   6.509 -0.3528  0.2463 -0.3068
 1884ntf    sn213127   1.319   2.500   6.583  0.1137  0.1608  0.3760
 1884ntf    nn313128   1.165   2.469   6.591  0.2464 -0.4616  0.6474
 1884ntf    sn213129   1.104   2.332   6.636  0.0737 -0.5195  0.2437
 1884ntf    cn113130   0.964   2.403   6.728  0.2102  0.2199 -0.1139
 1884ntf    fn413131   1.397   2.248   6.589 -0.1224  0.2161 -0.3430
 1884ntf    fn413132   1.335   2.318   6.399  0.0246  0.1408 -0.4912
 1884ntf    fn413133   1.525   2.371   6.478 -0.1721  0.0825  0.3120
 1884ntf    on513134   1.391   2.526   6.705  0.4196 -0.6983  0.3903
 1884ntf    on513135   1.332   2.595   6.476 -0.3486 -0.2510 -0.0537
 1884ntf    on513136   1.173   2.253   6.735  0.6385 -0.1487  0.1448
 1884ntf    on513137   1.045   2.253   6.531  0.1387 -0.2556  0.0079
 1884ntf    fn413138   1.004   2.466   6.837  0.1339 -0.1954  0.1555
 1884ntf    fn413139   0.903   2.491   6.649 -0.3270  0.0493  0.1059
 1884ntf    fn413140   0.872   2.315   6.765  0.4648  0.0909  0.2157
 1885ntf    cn113141   0.824   6.335   1.073  0.1145  0.1680 -0.2664
 1885ntf    sn213142   0.662   6.252   1.059  0.1850 -0.0285  0.0509
 1885ntf    nn313143   0.642   6.203   1.206 -0.3923 -0.3355 -0.1277
 1885ntf    sn213144   0.652   6.059   1.267 -0.3509 -0.2010  0.1855
 1885ntf    cn113145   0.600   6.097   1.437 -0.1834  0.0277  0.1862
 1885ntf    fn413146   0.926   6.264   1.029  0.2764  0.1343  0.1585
 1885ntf    fn413147   0.816   6.445   1.000  0.1307  0.2494 -0.1469
 1885ntf    fn413148   0.853   6.376   1.196 -0.4859 -0.7033  0.1836
 1885ntf    on513149   0.570   6.355   1.017 -0.0790 -0.3707 -0.2188
 1885ntf    on513150   0.688   6.151   0.959  0.0405  0.0429 -0.0591
 1885ntf    on513151   0.786   6.016   1.301  0.0979 -0.0289 -1.3206
 1885ntf    on513152   0.554   5.963   1.223 -0.5030 -0.1685  0.4505
 1885ntf    fn413153   0.471   6.124   1.448 -0.2366  0.1150 -0.6325
 1885ntf    fn413154   0.605   5.995   1.522 -0.0104  0.2106  0.3976
 1885ntf    fn413155   0.673   6.194   1.490  0.2217 -0.3105  0.2468
 1886ntf    cn113156   4.976   4.359   4.223 -0.0326 -0.0495  0.3727
 1886ntf    sn213157   4.955   4.192   4.155  0.2077 -0.0906  0.4009
 1886ntf    nn313158   4.818   4.202   4.079  0.4462 -0.6408 -0.1110
 1886ntf    sn213159   4.671   4.190   4.134  0.4386  0.4412  0.1292
 1886ntf    cn113160   4.640   4.033   4.049  0.3165  0.4654  0.1284
 1886ntf    fn413161   5.001   4.443   4.124 -0.1762 -0.3525  0.0756
 1886ntf    fn413162   4.864   4.394   4.285 -0.5161 -0.3494 -0.3117
 1886ntf    fn413163   5.077   4.356   4.308  0.1642 -0.1490  0.1385
 1886ntf    on513164   5.067   4.180   4.065 -0.2054  0.5533 -0.2017
 1886ntf    on513165   4.958   4.096   4.262 -0.0519 -0.5035  0.0419
 1886ntf    on513166   4.583   4.289   4.078 -0.1758  0.0874  0.4711
 1886ntf    on513167   4.646   4.155   4.271  0.0181 -0.1149 -0.0865
 1886ntf    fn413168   4.519   3.989   4.079  0.4888 -0.1389 -0.0385
 1886ntf    fn413169   4.641   4.040   3.917  0.3721 -0.4217  0.0714
 1886ntf    fn413170   4.722   3.935   4.084  0.2974  0.3906 -0.0333
 1887ntf    cn113171   4.401   4.120   5.166  0.4136  0.3847 -0.3287
 1887ntf    sn213172   4.323   4.172   5.322  0.2306 -0.2278 -0.2111
 1887ntf    nn313173   4.304   4.034   5.394  0.1256 -0.1379 -0.0664
 1887ntf    sn213174   4.365   3.975   5.526  0.5795  0.2527 -0.1020
 1887ntf    cn113175   4.395   3.802   5.479  0.3671  0.2029 -0.0528
 1887ntf    fn413176   4.384   4.203   5.065 -0.4420  0.3294 -0.2410
 1887ntf    fn413177   4.532   4.110   5.182  0.4500  0.5706 -0.5118
 1887ntf    fn413178   4.351   4.006   5.121 -0.1343  0.1615  0.7938
 1887ntf    on513179   4.425   4.255   5.382  0.0555 -0.0138 -0.2079
 1887ntf    on513180   4.199   4.233   5.281  0.2490 -0.3178 -0.4004
 1887ntf    on513181   4.264   3.955   5.627  0.5098 -0.2773 -0.2753
 1887ntf    on513182   4.498   4.022   5.557  0.4423  0.3680  0.3093
 1887ntf    fn413183   4.499   3.789   5.398  0.4226 -0.0999  0.0645
 1887ntf    fn413184   4.424   3.730   5.586  0.0562 -0.0901 -0.1621
 1887ntf    fn413185   4.290   3.753   5.414  0.4097 -0.1269  0.1246
 1888ntf    cn113186   4.992   3.983   6.409  0.0333  0.1320  0.1816
 1888ntf    sn213187   5.067   3.849   6.506 -0.1231  0.0754  0.2249
 1888ntf    nn313188   5.190   3.816   6.413 -0.0550 -0.0669  0.3661
 1888ntf    sn213189   5.343   3.846   6.437 -0.0238 -0.0460  0.1447
 1888ntf    cn113190   5.420   3.756   6.299  0.3309 -0.2790  0.4945
 1888ntf    fn413191   5.069   4.090   6.421  0.0328  0.1357  0.1527
 1888ntf    fn413192   4.976   3.962   6.280  0.2557  0.6582  0.0666
 1888ntf    fn413193   4.880   4.033   6.460  0.1834  0.3095  0.3426
 1888ntf    on513194   5.099   3.907   6.633  0.4219 -0.2767  0.2536
 1888ntf    on513195   4.972   3.741   6.499  0.3506 -0.3369  0.0880
 1888ntf    on513196   5.383   3.780   6.559 -0.1351 -0.6094 -0.1183
 1888ntf    on513197   5.375   3.984   6.416 -0.0674 -0.0771 -0.1349
 1888ntf    fn413198   5.397   3.626   6.292 -0.0362 -0.1632 -0.5981
 1888ntf    fn413199   5.386   3.807   6.182 -0.0508 -0.4335  0.5390
 1888ntf    fn413200   5.553   3.763   6.303  0.3206  0.5260 -0.2849
 1889ntf    cn113201   3.058   0.744   5.677 -0.2941 -0.3612  0.4405
 1889ntf    sn213202   2.950   0.828   5.557 -0.0358  0.0812  0.5121
 1889ntf    nn313203   2.888   0.928   5.661 -0.3152 -0.0407  0.4645
 1889ntf    sn213204   2.938   1.073   5.695 -0.2315  0.0715 -0.1237
 1889ntf    cn113205   2.825   1.164   5.585 -0.3083  0.1520  0.0208
 1889ntf    fn413206   3.128   0.649   5.619 -0.2743 -0.1468  0.1105
 1889ntf    fn413207   3.144   0.827   5.735  0.1005 -0.2913 -0.2401
 1889ntf    fn413208   2.975   0.684   5.761 -0.5826  0.0672  0.4693
 1889ntf    on513209   3.042   0.880   5.460  0.3316 -0.3786  0.6088
 1889ntf    on513210   2.860   0.724   5.512 -0.0664  0.2276  0.2377
 1889ntf    on513211   3.073   1.110   5.662 -0.2946  0.7158  0.3235
 1889ntf    on513212   2.898   1.124   5.824 -0.3726 -0.5726  0.0904
 1889ntf    fn413213   2.828   1.294   5.610 -0.0766  0.1027  0.2477
 1889ntf    fn413214   2.849   1.150   5.455 -0.1380 -0.8558  0.1515
 1889ntf    fn413215   2.702   1.119   5.602 -0.1604 -0.3593 -0.2430
 1890ntf    cn113216   4.529   2.343   4.098 -0.3586 -0.5307 -0.0999
 1890ntf    sn213217   4.393   2.325   4.217 -0.2694 -0.2186  0.0520
 1890ntf    nn313218   4.347   2.475   4.216 -0.4179 -0.2646 -0.0265
 1890ntf    sn213219   4.224   2.547   4.151  0.0962  0.5756 -0.0876
 1890ntf    cn113220   4.098   2.527   4.281 -0.0065  0.3981 -0.2135
 1890ntf    fn413221   4.591   2.230   4.073  0.1681 -0.2951  0.1395
 1890ntf    fn413222   4.484   2.389   3.982 -0.2078 -0.0254  0.0399
 1890ntf    fn413223   4.621   2.431   4.133 -0.5240 -0.5586  0.4121
 1890ntf    on513224   4.302   2.229   4.160 -0.5393  0.1107 -0.0739
 1890ntf    on513225   4.463   2.290   4.338 -0.0591 -0.6300 -0.1863
 1890ntf    on513226   4.176   2.476   4.034  0.0519  0.1288  0.1994
 1890ntf    on513227   4.237   2.690   4.137 -0.4505  0.6470  0.1000
 1890ntf    fn413228   4.111   2.615   4.378 -0.5001 -0.2352  0.4361
 1890ntf    fn413229   3.974   2.550   4.241 -0.1358  0.3903  0.1791
 1890ntf    fn413230   4.105   2.407   4.338 -0.3407  0.6364  0.3399
 1891ntf    cn113231   5.143   0.351   2.834 -0.1191  0.0608 -0.0486
 1891ntf    sn213232   5.209   0.509   2.771  0.0479  0.0403  0.0738
 1891ntf    nn313233   5.150   0.601   2.884  0.1207  0.1940 -0.0133
 1891ntf    sn213234   5.196   0.641   3.029 -0.1063  0.2895  0.0331
 1891ntf    cn113235   5.231   0.816   2.994 -0.1676  0.2158 -0.4049
 1891ntf    fn413236   5.204   0.323   2.948 -0.1577 -0.4091 -0.1425
 1891ntf    fn413237   5.012   0.355   2.850 -0.0893  0.5840  0.0878
 1891ntf    fn413238   5.181   0.251   2.756 -0.0579 -0.1151  0.2055
 1891ntf    on513239   5.353   0.496   2.771  0.0140 -0.3374  0.0081
 1891ntf    on513240   5.140   0.529   2.646  0.2081  0.6367  0.0789
 1891ntf    on513241   5.323   0.585   3.068 -0.2323 -0.1003 -0.1085
 1891ntf    on513242   5.086   0.645   3.121  0.3869  0.8484  0.6103
 1891ntf    fn413243   5.332   0.838   2.911  0.2124 -0.0516 -0.0163
 1891ntf    fn413244   5.122   0.866   2.938 -0.3969 -0.0658 -0.2090
 1891ntf    fn413245   5.253   0.886   3.104  0.1781 -0.6313  0.0734
 1892ntf    cn113246   6.444   0.690   1.435  0.2118 -0.0561 -0.0432
 1892ntf    sn213247   6.317   0.669   1.563 -0.0410  0.2839 -0.2363
 1892ntf    nn313248   6.398   0.753   1.668 -0.0446  0.6803 -0.5511
 1892ntf    sn213249   6.331   0.849   1.773 -0.0303  0.1036 -0.0059
 1892ntf    cn113250   6.401   0.775   1.923 -0.1211 -0.1009 -0.0644
 1892ntf    fn413251   6.459   0.820   1.416 -0.0230 -0.0705 -0.3245
 1892ntf    fn413252   6.569   0.662   1.468  0.1529  0.1972  0.4108
 1892ntf    fn413253   6.421   0.632   1.319 -0.3891  0.2437 -0.0793
 1892ntf    on513254   6.203   0.721   1.493  0.0548  0.3287 -0.3585
 1892ntf    on513255   6.326   0.528   1.592  0.0534  0.2486 -0.4373
 1892ntf    on513256   6.189   0.833   1.794 -0.0702  0.2306 -0.1750
 1892ntf    on513257   6.383   0.984   1.773  0.0720  0.0631  0.2070
 1892ntf    fn413258   6.522   0.818   1.955 -0.0118 -0.2939 -0.2140
 1892ntf    fn413259   6.324   0.807   2.025 -0.0089  0.5618 -0.1811
 1892ntf    fn413260   6.407   0.644   1.901 -0.5116  0.0055 -0.8305
 1893ntf    cn113261   5.171   6.133   1.964 -0.4526  0.0890  0.0118
 1893ntf    sn213262   4.999   6.073   1.955 -0.3522 -0.1900 -0.0408
 1893ntf    nn313263   5.008   5.968   1.839  0.0168  0.0008 -0.1895
 1893ntf    sn213264   5.036   5.813   1.839  0.1859  0.0299  0.3066
 1893ntf    cn113265   4.863   5.762   1.820  0.1875  0.1385 -0.0213
 1893ntf    fn413266   5.182   6.227   2.058 -0.3819  0.0778  0.0147
 1893ntf    fn413267   5.251   6.037   2.007 -0.2103  0.2037 -0.1849
 1893ntf    fn413268   5.218   6.168   1.846  0.2050 -0.3650  0.1359
 1893ntf    on513269   4.974   6.012   2.083 -0.5538 -0.4920 -0.2249
 1893ntf    on513270   4.931   6.197   1.927  0.4604  0.2893  0.0686
 1893ntf    on513271   5.092   5.762   1.961  0.7434  0.1008  0.0846
 1893ntf    on513272   5.094   5.774   1.713  0.0709 -0.4651  0.4079
 1893ntf    fn413273   4.815   5.820   1.712  0.2171  0.0246 -0.0955
 1893ntf    fn413274   4.846   5.632   1.807  0.2742  0.1458 -0.2036
 1893ntf    fn413275   4.791   5.815   1.918  0.0013 -0.3451  0.1068
 1894ntf    cn113276   6.025   0.596   0.042 -0.2766 -0.1770 -0.1088
 1894ntf    sn213277   5.889   0.562  -0.074 -0.0332  0.1210 -0.4853
 1894ntf    nn313278   5.903   0.686  -0.169  0.0107  0.3853 -0.1367
 1894ntf    sn213279   5.966   0.699  -0.312  0.3228 -0.1606 -0.0529
 1894ntf    cn113280   5.855   0.823  -0.386  0.5768 -0.1555 -0.4249
 1894ntf    fn413281   5.994   0.707   0.108  0.3017  0.2444 -0.5387
 1894ntf    fn413282   6.053   0.503   0.132 -0.2240  0.4015  0.4803
 1894ntf    fn413283   6.140   0.629  -0.014 -0.1235  0.2527  0.4506
 1894ntf    on513284   5.916   0.430  -0.125  0.1020 -0.2901  0.6098
 1894ntf    on513285   5.777   0.573   0.017  0.1023 -0.6804 -0.2092
 1894ntf    on513286   5.926   0.593  -0.401  0.6132  0.2174 -0.6442
 1894ntf    on513287   6.100   0.754  -0.313  0.2579 -0.0039 -0.2779
 1894ntf    fn413288   5.874   0.943  -0.334 -0.0915 -0.0335 -0.4520
 1894ntf    fn413289   5.887   0.843  -0.513 -0.2813 -0.7207 -0.7342
 1894ntf    fn413290   5.728   0.787  -0.387  0.6845 -0.5559 -0.1539
 1895ntf    cn113291   2.770   4.978   3.953 -0.2217 -0.0305 -0.0795
 1895ntf    sn213292   2.699   5.050   4.104 -0.2642 -0.2454  0.0036
 1895ntf    nn313293   2.547   5.025   4.075 -0.2545 -0.1195 -0.1620
 1895ntf    sn213294   2.414   5.096   4.120 -0.0009  0.1453  0.1842
 1895ntf    cn113295   2.350   4.961   4.223  0.2466 -0.0522  0.0816
 1895ntf    fn413296   2.897   4.944   3.970 -0.0951  0.0263 -0.8729
 1895ntf    fn413297   2.707   4.866   3.920 -0.0598 -0.1284 -0.0594
 1895ntf    fn413298   2.770   5.065   3.853 -0.2131  0.0662  0.0049
 1895ntf    on513299   2.746   4.968   4.213  0.2796  0.2761  0.1693
 1895ntf    on513300   2.745   5.187   4.097  0.3021 -0.4346 -0.0878
 1895ntf    on513301   2.310   5.119   4.023  0.2177  0.3026 -0.0131
 1895ntf    on513302   2.432   5.209   4.207 -0.2671  0.3712 -0.0491
 1895ntf    fn413303   2.417   4.936   4.334  0.0009 -0.0234  0.2366
 1895ntf    fn413304   2.230   4.999   4.265 -0.0228 -0.2718 -0.4814
 1895ntf    fn413305   2.337   4.849   4.154  0.1274 -0.0485  0.0984
 1896ntf    cn113306   5.891   5.413   3.802  0.3777  0.0971  0.2604
 1896ntf    sn213307   5.763   5.285   3.799 -0.0320  0.5101 -0.1606
 1896ntf    nn313308   5.852   5.165   3.847  0.2545  0.3992 -0.9588
 1896ntf    sn213309   5.906   5.036   3.775  0.1144 -0.3294  0.2180
 1896ntf    cn113310   6.058   5.014   3.873  0.2739 -0.4077 -0.0478
 1896ntf    fn413311   5.847   5.538   3.801  0.7466  0.2341  0.7398
 1896ntf    fn413312   5.955   5.398   3.916  0.2460  0.1270  0.3377
 1896ntf    fn413313   5.985   5.410   3.708  0.1997  0.5286  0.0629
 1896ntf    on513314   5.668   5.320   3.902 -0.2865 -0.3130 -0.1073
 1896ntf    on513315   5.713   5.283   3.664  0.5140 -0.4801 -0.3563
 1896ntf    on513316   5.958   5.058   3.643 -0.0794 -0.4625  0.1197
 1896ntf    on513317   5.824   4.919   3.796 -0.1893 -0.2247 -0.3627
 1896ntf    fn413318   6.141   5.116   3.859 -0.6800  0.4077  0.1069
 1896ntf    fn413319   6.024   5.003   4.000 -0.3517 -0.1266 -0.1829
 1896ntf    fn413320   6.123   4.903   3.844  0.3569 -0.3467 -0.0953
 1897ntf    cn113321   6.145   6.424   2.010 -0.1643 -0.9073  0.0914
 1897ntf    sn213322   6.271   6.384   1.885  0.0842  0.2151 -0.0283
 1897ntf    nn313323   6.178   6.388   1.759  0.2403  0.0188 -0.1494
 1897ntf    sn213324   6.154   6.502   1.655 -0.0169  0.3617  0.2819
 1897ntf    cn113325   6.280   6.457   1.531  0.1240 -0.1039  0.5934
 1897ntf    fn413326   6.082   6.540   1.994  0.5067 -0.4856  0.4316
 1897ntf    fn413327   6.051   6.332   2.017 -0.6864 -0.4062 -0.2334
 1897ntf    fn413328   6.212   6.428   2.124 -0.2649 -0.0585  0.1279
 1897ntf    on513329   6.376   6.483   1.902  0.1624  0.1161  0.0748
 1897ntf    on513330   6.303   6.246   1.910 -0.6766  0.1497  0.6071
 1897ntf    on513331   6.194   6.633   1.700  0.0862  0.5442 -0.3296
 1897ntf    on513332   6.029   6.501   1.582 -0.2822  0.6098  0.7284
 1897ntf    fn413333   6.339   6.339   1.546 -0.2383 -0.3934 -0.2279
 1897ntf    fn413334   6.227   6.467   1.411  0.7893  0.3454  0.3336
 1897ntf    fn413335   6.381   6.541   1.529  0.0154  0.0147 -0.5120
 1898ntf    cn113336   5.860   2.172   3.966 -0.2404 -0.0561  0.1374
 1898ntf    sn213337   5.738   2.116   4.089 -0.1857 -0.2463  0.1050
 1898ntf    nn313338   5.840   2.075   4.201  0.2730  0.4154 -0.0657
 1898ntf    sn213339   5.882   2.159   4.327  0.2005  0.1648  0.1260
 1898ntf    cn113340   5.719   2.157   4.408 -0.1160  0.5778 -0.4894
 1898ntf    fn413341   5.940   2.263   4.017  0.0899 -0.1928 -0.1318
 1898ntf    fn413342   5.944   2.080   3.922 -0.4776  0.0602 -0.5780
 1898ntf    fn413343   5.802   2.224   3.859 -0.5873  0.0588  0.3797
 1898ntf    on513344   5.652   2.227   4.122  0.8681  0.5728  0.1366
 1898ntf    on513345   5.678   1.998   4.032 -0.4597 -0.4454  0.7924
 1898ntf    on513346   5.913   2.295   4.291 -0.2067  0.3373  0.4138
 1898ntf    on513347   5.969   2.090   4.419 -0.3688 -0.2405  0.3675
 1898ntf    fn413348   5.645   2.260   4.372  0.0077  0.8053 -0.1035
 1898ntf    fn413349   5.653   2.044   4.387  0.4102  0.1962 -0.1393
 1898ntf    fn413350   5.732   2.163   4.539  0.3318  0.2359 -0.5143
 1899ntf    cn113351   1.964   4.637   2.803  0.2181 -0.1011  0.0311
 1899ntf    sn213352   2.016   4.482   2.881  0.0681 -0.0949  0.1430
 1899ntf    nn313353   1.883   4.405   2.912  0.0180 -0.0781 -0.0327
 1899ntf    sn213354   1.746   4.465   2.960 -0.0871 -0.1827 -0.2002
 1899ntf    cn113355   1.712   4.348   3.094  0.4922 -0.0265  0.0869
 1899ntf    fn413356   1.925   4.738   2.879  0.3200  0.0115 -0.0639
 1899ntf    fn413357   2.053   4.694   2.723 -0.2358  0.2265 -0.2441
 1899ntf    fn413358   1.858   4.613   2.728  0.3863  0.3596 -0.3641
 1899ntf    on513359   2.098   4.426   2.777  0.8029 -0.1455  0.7398
 1899ntf    on513360   2.088   4.523   2.999 -0.1224  0.2369  0.1440
 1899ntf    on513361   1.637   4.443   2.869 -0.4698  0.2600  0.1437
 1899ntf    on513362   1.748   4.594   3.024 -0.5644 -0.1730 -0.2034
 1899ntf    fn413363   1.692   4.226   3.047 -0.0855  0.1509 -0.1338
 1899ntf    fn413364   1.812   4.336   3.181  0.5757  0.1108  0.0089
 1899ntf    fn413365   1.609   4.387   3.168  0.5297  0.6496 -0.2152
 1900ntf    cn113366   3.059   6.497   6.489  0.0739 -0.0945  0.2180
 1900ntf    sn213367   3.028   6.319   6.508  0.0715 -0.0930  0.2346
 1900ntf    nn313368   3.133   6.265   6.404 -0.2251  0.2730 -0.2583
 1900ntf    sn213369   3.112   6.259   6.248  0.3356 -0.0296 -0.3243
 1900ntf    cn113370   3.067   6.085   6.216  0.0105 -0.0602  0.2788
 1900ntf    fn413371   3.183   6.520   6.527 -0.0045 -0.2276  0.5598
 1900ntf    fn413372   3.033   6.549   6.370  0.4802 -0.3903 -0.0013
 1900ntf    fn413373   2.980   6.565   6.572 -0.1508  0.2624 -0.2839
 1900ntf    on513374   3.062   6.285   6.643 -0.7189 -0.6449  0.3035
 1900ntf    on513375   2.888   6.297   6.480  0.1437  0.1973 -0.3887
 1900ntf    on513376   3.237   6.286   6.181  0.3146  1.0759  0.0564
 1900ntf    on513377   2.993   6.327   6.204  0.0121 -0.0813  0.4532
 1900ntf    fn413378   3.082   6.053   6.089 -0.3947  0.1654  0.1742
 1900ntf    fn413379   3.151   6.008   6.283  0.3877  0.0697 -0.0395
 1900ntf    fn413380   2.951   6.052   6.269  0.1069  0.0550  0.5653
 1901ntf    cn113381   1.752   1.673   0.828 -0.2750  0.2017 -0.1702
 1901ntf    sn213382   1.902   1.727   0.914 -0.2332 -0.2692  0.0583
 1901ntf    nn313383   1.959   1.808   0.792  0.5235 -0.0967  0.5236
 1901ntf    sn213384   2.100   1.796   0.724  0.0183 -0.1651 -0.5249
 1901ntf    cn113385   2.193   1.921   0.818  0.0038 -0.5506  0.0122
 1901ntf    fn413386   1.769   1.640   0.701 -0.3580 -0.1151 -0.1000
 1901ntf    fn413387   1.698   1.571   0.892 -0.1764  0.0192 -0.3737
 1901ntf    fn413388   1.668   1.775   0.825 -0.1817  0.2822 -0.0508
 1901ntf    on513389   1.860   1.802   1.030 -0.2101 -0.1462 -0.0122
 1901ntf    on513390   1.967   1.602   0.943  0.1552 -0.0726  0.0429
 1901ntf    on513391   2.101   1.843   0.588 -0.2529  0.3847 -0.3395
 1901ntf    on513392   2.177   1.675   0.745  0.4018  0.0420 -0.7340
 1901ntf    fn413393   2.173   1.922   0.948  0.3684 -0.1742  0.0668
 1901ntf    fn413394   2.323   1.904   0.804  0.1156 -0.2431  0.6407
 1901ntf    fn413395   2.164   2.043   0.777 -0.2862 -0.5887  0.1007
 1902ntf    cn113396   5.546   5.199   0.678 -0.3913 -0.2391 -0.0807
 1902ntf    sn213397   5.627   5.172   0.518 -0.2457  0.0757 -0.0605
 1902ntf    nn313398   5.517   5.093   0.439 -0.1119  0.0026 -0.1748
 1902ntf    sn213399   5.511   4.943   0.392  0.2001  0.0623 -0.4124
 1902ntf    cn113400   5.345   4.901   0.454  0.1474  0.2316 -0.4368
 1902ntf    fn413401   5.434   5.268   0.658  0.0689  0.3319 -0.7171
 1902ntf    fn413402   5.518   5.084   0.737 -0.7279 -0.0688  0.0964
 1902ntf    fn413403   5.625   5.266   0.760 -0.7299 -0.2564  0.2658
 1902ntf    on513404   5.635   5.311   0.479  0.3852 -0.0012 -0.2191
 1902ntf    on513405   5.750   5.111   0.562 -0.0952  0.2880 -0.1817
 1902ntf    on513406   5.601   4.852   0.458 -0.2095 -0.2773 -0.3173
 1902ntf    on513407   5.505   4.932   0.249 -0.1882  0.1482 -0.4032
 1902ntf    fn413408   5.329   4.943   0.579 -0.1459 -0.5697 -0.2000
 1902ntf    fn413409   5.246   4.956   0.386 -0.2772  0.0521  0.0329
 1902ntf    fn413410   5.326   4.770   0.457  0.4923  0.1813 -0.3980
 1903ntf    cn113411   1.579   4.081   2.033  0.0981 -0.0937  0.1231
 1903ntf    sn213412   1.692   4.182   1.933  0.0218  0.0408  0.1742
 1903ntf    nn313413   1.819   4.206   2.023  0.0142 -0.2293  0.2568
 1903ntf    sn213414   1.845   4.324   2.123  0.0610 -0.1037  0.0970
 1903ntf    cn113415   2.021   4.303   2.162  0.1377 -0.0312 -0.2053
 1903ntf    fn413416   1.633   3.961   2.052 -0.0419 -0.0238  1.0431
 1903ntf    fn413417   1.558   4.139   2.150  0.5154  0.2894  0.0134
 1903ntf    fn413418   1.461   4.060   1.979  0.0710 -0.0237  0.1546
 1903ntf    on513419   1.724   4.097   1.821 -0.3167  0.1962 -0.0439
 1903ntf    on513420   1.613   4.300   1.904  0.9858  0.6577  0.0127
 1903ntf    on513421   1.768   4.316   2.245 -0.4838 -0.2296 -0.2504
 1903ntf    on513422   1.852   4.455   2.062  0.3805 -0.0980  0.1435
 1903ntf    fn413423   2.095   4.358   2.066  0.0403 -0.4481 -0.5211
 1903ntf    fn413424   2.056   4.360   2.276 -0.1702  0.1929 -0.2227
 1903ntf    fn413425   2.054   4.175   2.165 -0.4911 -0.2040 -0.5059
 1904ntf    cn113426   3.889   2.263   4.848  0.0245  0.1454  0.0511
 1904ntf    sn213427   3.937   2.361   4.702 -0.1454  0.1076 -0.0310
 1904ntf    nn313428   3.860   2.494   4.733  0.1079  0.1545  0.4054
 1904ntf    sn213429   3.767   2.589   4.649  0.4104  0.0887 -0.0032
 1904ntf    cn113430   3.878   2.733   4.648 -0.0158  0.4183  0.0106
 1904ntf    fn413431   3.877   2.339   4.956 -0.0796 -0.2207  0.2963
 1904ntf    fn413432   3.770   2.205   4.847 -0.0179  0.2334 -0.0558
 1904ntf    fn413433   3.983   2.176   4.878 -0.3238 -0.1573  0.2694
 1904ntf    on513434   4.077   2.383   4.730 -0.0384 -0.5142 -0.0646
 1904ntf    on513435   3.902   2.285   4.585  0.3097 -0.0348 -0.0783
 1904ntf    on513436   3.653   2.630   4.726  0.2692  0.1460 -0.2428
 1904ntf    on513437   3.749   2.554   4.510  0.2212  0.2939 -0.0293
 1904ntf    fn413438   3.911   2.773   4.770  0.0017  0.5374 -0.0332
 1904ntf    fn413439   3.987   2.714   4.576  0.0583  0.3493  0.1382
 1904ntf    fn413440   3.817   2.834   4.588  0.0044  0.2462 -0.3007
 1905ntf    cn113441   5.516   3.673   1.640 -0.1660  0.3015 -0.0112
 1905ntf    sn213442   5.459   3.655   1.469 -0.1364  0.0678  0.0037
 1905ntf    nn313443   5.312   3.709   1.486 -0.1257  0.0557  0.1311
 1905ntf    sn213444   5.191   3.683   1.390  0.2907 -0.2502 -0.3207
 1905ntf    cn113445   5.082   3.573   1.485  0.3194 -0.0478 -0.0522
 1905ntf    fn413446   5.647   3.675   1.659 -0.1631 -0.4314  0.0469
 1905ntf    fn413447   5.478   3.793   1.681 -0.6311 -0.0164  0.4962
 1905ntf    fn413448   5.468   3.590   1.731 -0.0961  0.2566 -0.0153
 1905ntf    on513449   5.550   3.734   1.390  0.3247 -0.1680  0.2973
 1905ntf    on513450   5.463   3.512   1.452 -0.0627  0.0595  0.0900
 1905ntf    on513451   5.214   3.621   1.262 -0.3630  0.2422 -0.6856
 1905ntf    on513452   5.110   3.803   1.391  0.4574 -0.1407 -0.0872
 1905ntf    fn413453   5.069   3.608   1.612 -0.1457 -0.8246  0.1216
 1905ntf    fn413454   4.956   3.565   1.445  0.0671 -0.2425  0.7589
 1905ntf    fn413455   5.130   3.450   1.487  0.0836 -0.1416 -0.2311
 1906ntf    cn113456   4.734   2.397   5.423 -0.0822  0.2419  0.3522
 1906ntf    sn213457   4.743   2.306   5.266  0.0885  0.1514  0.4134
 1906ntf    nn313458   4.736   2.438   5.180 -0.1729 -0.5091 -0.5932
 1906ntf    sn213459   4.846   2.521   5.106 -0.0173  0.0225  0.2237
 1906ntf    cn113460   4.796   2.683   5.172  0.1207  0.2232 -0.1581
 1906ntf    fn413461   4.854   2.437   5.459  0.0496  0.2091 -0.0495
 1906ntf    fn413462   4.656   2.504   5.420 -0.3784  0.0264  0.2319
 1906ntf    fn413463   4.682   2.322   5.519 -0.0664 -0.0465  0.1372
 1906ntf    on513464   4.868   2.235   5.266 -0.6412 -1.1512  0.6451
 1906ntf    on513465   4.617   2.235   5.265  0.1122  0.1155 -0.1079
 1906ntf    on513466   4.817   2.516   4.965 -0.5334  0.0692  0.3276
 1906ntf    on513467   4.977   2.506   5.164 -0.0743  0.3177  0.4284
 1906ntf    fn413468   4.871   2.786   5.137  0.2805  0.2637  0.3054
 1906ntf    fn413469   4.676   2.720   5.128  0.3404  0.3663 -0.6376
 1906ntf    fn413470   4.782   2.684   5.303 -0.5432 -0.0512 -0.2215
 1907ntf    cn113471   3.337   5.695   6.020 -0.2424  0.2311  0.0243
 1907ntf    sn213472   3.350   5.514   6.008 -0.4119  0.2002  0.3218
 1907ntf    nn313473   3.501   5.500   6.049 -0.3349 -1.2154 -0.3808
 1907ntf    sn213474   3.636   5.464   5.977  0.0248  0.1287 -0.3953
 1907ntf    cn113475   3.721   5.624   5.961 -0.1335  0.2722  0.1613
 1907ntf    fn413476   3.227   5.735   5.959 -0.2622  0.2551  0.0753
 1907ntf    fn413477   3.334   5.747   6.141 -0.4878 -0.1691  0.1925
 1907ntf    fn413478   3.431   5.763   5.955  0.0305  0.0188  0.1950
 1907ntf    on513479   3.265   5.456   6.109 -0.2565  0.1716  0.4369
 1907ntf    on513480   3.315   5.490   5.871 -0.4747  0.2975  0.3210
 1907ntf    on513481   3.621   5.415   5.843 -0.7406  0.0005 -0.2647
 1907ntf    on513482   3.724   5.388   6.063 -0.2085  0.1407 -0.1436
 1907ntf    fn413483   3.826   5.614   5.881  0.0458  0.6952  0.3391
 1907ntf    fn413484   3.646   5.723   5.913 -0.2797  0.1545  0.1471
 1907ntf    fn413485   3.763   5.672   6.077  0.5180 -0.1685  0.1094
 1908ntf    cn113486   3.531   1.558   6.673 -0.0300 -0.3352 -0.1910
 1908ntf    sn213487   3.552   1.379   6.699 -0.1390 -0.2727  0.3543
 1908ntf    nn313488   3.404   1.344   6.738 -0.4570  0.1532 -0.4344
 1908ntf    sn213489   3.321   1.216   6.700  0.0568 -0.2160 -0.3178
 1908ntf    cn113490   3.224   1.291   6.567 -0.2378  0.0222  0.0290
 1908ntf    fn413491   3.451   1.574   6.569 -0.1380 -0.8725 -0.1929
 1908ntf    fn413492   3.490   1.629   6.777  0.2672 -0.1082 -0.2298
 1908ntf    fn413493   3.641   1.620   6.635 -0.2289  0.4146  0.4287
 1908ntf    on513494   3.599   1.336   6.569 -0.0637  0.5909  0.0907
 1908ntf    on513495   3.635   1.364   6.815  0.0950  0.3381  0.2717
 1908ntf    on513496   3.230   1.181   6.806 -0.3108 -0.4308 -0.7027
 1908ntf    on513497   3.387   1.107   6.633  0.5283 -0.1385  0.0125
 1908ntf    fn413498   3.296   1.367   6.486 -0.1567  0.5229  0.5713
 1908ntf    fn413499   3.162   1.199   6.494  0.1345 -0.2436  0.0448
 1908ntf    fn413500   3.126   1.370   6.609 -0.1071  0.3783 -0.3309
 1909ntf    cn113501   6.347   4.022   6.732  0.1333 -0.1274 -0.3386
 1909ntf    sn213502   6.321   4.191   6.795 -0.2763 -0.3349  0.0500
 1909ntf    nn313503   6.167   4.181   6.823 -0.2786 -0.3165  0.0442
 1909ntf    sn213504   6.038   4.239   6.754 -0.0375  0.0624 -0.0870
 1909ntf    cn113505   6.045   4.411   6.811  0.3014 -0.0527  0.2229
 1909ntf    fn413506   6.470   4.000   6.688  0.1706 -0.0557 -0.2692
 1909ntf    fn413507   6.320   3.935   6.827  0.2235 -0.0464 -0.2379
 1909ntf    fn413508   6.272   3.983   6.630  0.1224 -0.4939 -0.1907
 1909ntf    on513509   6.402   4.194   6.914 -0.6755 -0.4866  0.3301
 1909ntf    on513510   6.362   4.272   6.683  0.4389 -0.7513  0.0044
 1909ntf    on513511   5.927   4.172   6.816 -0.0397 -0.4159 -0.5983
 1909ntf    on513512   6.049   4.246   6.610  0.8129 -0.2668 -0.0473
 1909ntf    fn413513   5.959   4.436   6.909  0.0404 -0.1225  0.0127
 1909ntf    fn413514   6.164   4.452   6.853  0.5340 -0.4865 -0.0073
 1909ntf    fn413515   6.016   4.493   6.712  0.0820 -0.4592 -0.0514
 1910ntf    cn113516   0.665   5.566   0.458 -0.0386 -0.1716  0.0087
 1910ntf    sn213517   0.661   5.743   0.498  0.1840 -0.1892  0.1066
 1910ntf    nn313518   0.661   5.799   0.351 -0.1016  0.6330  0.4126
 1910ntf    sn213519   0.544   5.852   0.261  0.1155  0.2102 -0.1271
 1910ntf    cn113520   0.618   5.858   0.096  0.5584  0.0889  0.0661
 1910ntf    fn413521   0.554   5.528   0.395  0.0525 -0.3231 -0.0614
 1910ntf    fn413522   0.768   5.537   0.380 -0.0165  0.0584 -0.0469
 1910ntf    fn413523   0.671   5.498   0.572  0.0058  0.0954  0.1660
 1910ntf    on513524   0.541   5.742   0.577  0.3273 -0.4890  0.3236
 1910ntf    on513525   0.787   5.760   0.567  0.4766 -0.0389 -0.4554
 1910ntf    on513526   0.519   5.993   0.281  0.1833  0.2672 -0.4442
 1910ntf    on513527   0.430   5.765   0.245 -0.2623  0.7152 -0.2186
 1910ntf    fn413528   0.719   5.943   0.079  0.1066  0.5658 -0.2612
 1910ntf    fn413529   0.668   5.739   0.068  0.3595 -0.0696  0.3968
 1910ntf    fn413530   0.527   5.889   0.005 -0.2807 -0.3623  0.7504
 1911ntf    cn113531   1.189   6.341   4.744 -0.2157 -0.1310 -0.1188
 1911ntf    sn213532   1.124   6.205   4.845 -0.2683 -0.0488 -0.0429
 1911ntf    nn313533   0.972   6.192   4.808 -0.2917  0.4567 -0.1293
 1911ntf    sn213534   0.902   6.082   4.720 -0.0752  0.1347  0.1004
 1911ntf    cn113535   0.738   6.103   4.795  0.1018  0.2678  0.4552
 1911ntf    fn413536   1.317   6.364   4.767 -0.2726  0.1006 -0.0269
 1911ntf    fn413537   1.177   6.325   4.613  0.6871  0.1430 -0.2428
 1911ntf    fn413538   1.128   6.456   4.768 -0.6073 -0.4615  0.5037
 1911ntf    on513539   1.212   6.096   4.813  0.2244  0.2832  0.1789
 1911ntf    on513540   1.140   6.266   4.975 -0.1216 -0.2754  0.0455
 1911ntf    on513541   0.946   5.947   4.745 -0.4618 -0.0137 -0.0164
 1911ntf    on513542   0.893   6.125   4.582 -0.5832 -0.0628  0.0693
 1911ntf    fn413543   0.756   6.084   4.925  0.4574  0.0756  0.3803
 1911ntf    fn413544   0.688   6.224   4.779 -0.8879 -0.2064 -0.1520
 1911ntf    fn413545   0.641   6.018   4.761  0.2159  0.2028  0.2876
 1912ntf    cn113546   6.423   1.606   1.000 -0.0535 -0.4472 -0.0490
 1912ntf    sn213547   6.570   1.669   0.914 -0.0076 -0.1289  0.2599
 1912ntf    nn313548   6.679   1.563   0.953 -0.0569 -0.1147  0.4396
 1912ntf    sn213549   6.764   1.472   0.857 -0.0959 -0.0243  0.3192
 1912ntf    cn113550   6.900   1.585   0.813 -0.3053  0.2379  0.3456
 1912ntf    fn413551   6.398   1.482   0.964 -0.2059 -0.4069 -0.0806
 1912ntf    fn413552   6.425   1.607   1.133  0.1999  0.3895 -0.0490
 1912ntf    fn413553   6.314   1.677   0.979  0.2990  0.3098  0.5977
 1912ntf    on513554   6.528   1.678   0.777  0.7133 -0.6682 -0.0041
 1912ntf    on513555   6.597   1.795   0.981  0.3127 -0.2751  0.4089
 1912ntf    on513556   6.704   1.429   0.733 -0.0005 -0.2170  0.3403
 1912ntf    on513557   6.835   1.371   0.930  0.1956  0.0332  0.1181
 1912ntf    fn413558   6.854   1.696   0.757 -0.4838  0.1534  0.3247
 1912ntf    fn413559   6.970   1.630   0.915  0.3221  0.4651 -0.1832
 1912ntf    fn413560   6.996   1.540   0.734 -0.4053  0.3742  0.1456
 1913ntf    cn113561   1.540   6.717   3.119 -0.0995  0.5061 -0.0848
 1913ntf    sn213562   1.571   6.540   3.096 -0.3486  0.4567 -0.0351
 1913ntf    nn313563   1.442   6.471   3.153 -0.0149 -0.2823 -0.1646
 1913ntf    sn213564   1.414   6.411   3.296  0.0072  0.0262 -0.0313
 1913ntf    cn113565   1.357   6.245   3.251  0.2229 -0.2658  0.7538
 1913ntf    fn413566   1.426   6.759   3.067 -0.5279 -0.3196  0.1801
 1913ntf    fn413567   1.524   6.738   3.249 -0.4432 -0.2655  0.0009
 1913ntf    fn413568   1.640   6.796   3.083  0.0730  0.2766 -0.1129
 1913ntf    on513569   1.570   6.529   2.953  0.3986  0.3788 -0.0394
 1913ntf    on513570   1.690   6.513   3.173 -0.3756 -0.1670 -0.2057
 1913ntf    on513571   1.292   6.460   3.355 -0.2509 -0.3910 -0.2147
 1913ntf    on513572   1.531   6.390   3.377 -0.0900  0.5312  0.2428
 1913ntf    fn413573   1.308   6.172   3.349  0.4587 -0.0917  0.9997
 1913ntf    fn413574   1.262   6.246   3.159  0.7190  0.2088  0.2380
 1913ntf    fn413575   1.461   6.177   3.203 -0.1886 -0.0527 -0.4860
 1914ntf    cn113576   5.102   5.250   0.449 -0.1012  0.5340 -0.6494
 1914ntf    sn213577   4.935   5.307   0.493 -0.0741  0.1462 -0.0196
 1914ntf    nn313578   4.944   5.271   0.645  0.0321 -0.0341 -0.0676
 1914ntf    sn213579   4.878   5.152   0.723  0.1801 -0.1976 -0.1906
 1914ntf    cn113580   4.797   5.245   0.857 -0.1944 -0.5159 -0.1953
 1914ntf    fn413581   5.112   5.263   0.318 -0.1983 -0.6640 -0.7871
 1914ntf    fn413582   5.204   5.304   0.515 -0.1034  0.0922 -0.2777
 1914ntf    fn413583   5.110   5.119   0.465  0.4799  0.6778  0.3299
 1914ntf    on513584   4.935   5.447   0.460  0.2657  0.2248  0.3002
 1914ntf    on513585   4.849   5.228   0.409  0.1542 -0.1520  0.0261
 1914ntf    on513586   4.973   5.069   0.792 -0.2343 -0.1911  0.4011
 1914ntf    on513587   4.767   5.090   0.656  0.0223  0.0255 -0.1374
 1914ntf    fn413588   4.878   5.289   0.952 -0.2262  0.0047 -0.4058
 1914ntf    fn413589   4.729   5.352   0.818  0.0385 -0.3480 -0.1388
 1914ntf    fn413590   4.708   5.171   0.921 -0.1449  0.1163  0.6176
 1915ntf    cn113591   0.889   6.257   3.422  0.0370  0.3166  0.0545
 1915ntf    sn213592   0.869   6.235   3.601 -0.1988 -0.2548 -0.0398
 1915ntf    nn313593   0.805   6.092   3.610 -0.4886 -0.1029  0.3058
 1915ntf    sn213594   0.854   5.953   3.663 -0.1601 -0.0789  0.0672
 1915ntf    cn113595   0.862   5.842   3.520 -0.1399  0.2107 -0.1570
 1915ntf    fn413596   0.871   6.384   3.388 -0.1370  0.4802  0.7464
 1915ntf    fn413597   1.012   6.231   3.379 -0.2058  0.0199 -0.4765
 1915ntf    fn413598   0.814   6.182   3.343 -0.3713  0.2408  0.5127
 1915ntf    on513599   1.004   6.249   3.649 -0.3050  0.1068  0.1514
 1915ntf    on513600   0.783   6.339   3.650 -0.1703 -0.0410 -0.4398
 1915ntf    on513601   0.748   5.891   3.737 -0.3519 -0.1481 -0.2657
 1915ntf    on513602   0.987   5.947   3.720 -0.2173  0.2833  0.2454
 1915ntf    fn413603   0.944   5.740   3.538  0.1768  0.5525  0.3615
 1915ntf    fn413604   0.744   5.799   3.480  0.3705 -1.1578 -0.2409
 1915ntf    fn413605   0.907   5.904   3.412 -0.4645  0.4705 -0.1446
 1916ntf    cn113606   6.533   3.758   3.913 -0.0620  0.1837  0.0668
 1916ntf    sn213607   6.377   3.668   3.942  0.0147  0.1474  0.3749
 1916ntf    nn313608   6.302   3.795   3.995 -0.1486  0.1878  0.0492
 1916ntf    sn213609   6.261   3.833   4.142 -0.0539  0.1063  0.0967
 1916ntf    cn113610   6.082   3.807   4.122 -0.0189 -0.0091 -0.0764
 1916ntf    fn413611   6.531   3.811   3.792 -0.5661  0.2270  0.0924
 1916ntf    fn413612   6.548   3.862   3.994  0.2121 -0.0863  0.3673
 1916ntf    fn413613   6.640   3.683   3.934 -0.2314 -0.0153  0.2319
 1916ntf    on513614   6.320   3.624   3.817 -0.4177  0.1950  0.5568
 1916ntf    on513615   6.409   3.561   4.034 -0.1070 -0.0903  0.1428
 1916ntf    on513616   6.287   3.971   4.174 -0.1588  0.1061  0.1830
 1916ntf    on513617   6.295   3.734   4.241  0.4845 -0.1279 -0.3124
 1916ntf    fn413618   6.061   3.680   4.091 -0.1848  0.1198 -0.5004
 1916ntf    fn413619   6.006   3.840   4.225 -0.2600 -0.2167 -0.1872
 1916ntf    fn413620   6.037   3.878   4.020  0.0459 -0.1477 -0.2012
 1917ntf    cn113621   3.983   2.425   0.784  0.0683 -0.1240  0.1425
 1917ntf    sn213622   3.926   2.569   0.878  0.0487  0.1649 -0.3085
 1917ntf    nn313623   3.954   2.520   1.025 -0.5195  0.3864 -0.1251
 1917ntf    sn213624   3.859   2.435   1.118 -0.0323  0.3647  0.3524
 1917ntf    cn113625   3.976   2.313   1.186  0.1850  0.2472 -0.2208
 1917ntf    fn413626   3.898   2.324   0.796 -0.2487  0.0724 -0.4013
 1917ntf    fn413627   3.994   2.443   0.653 -0.2341  0.5029  0.1993
 1917ntf    fn413628   4.105   2.391   0.824  0.2804  0.4165 -0.0316
 1917ntf    on513629   4.014   2.678   0.842 -0.5802  0.6859 -0.2892
 1917ntf    on513630   3.787   2.590   0.847 -0.0120 -0.6136 -0.5731
 1917ntf    on513631   3.768   2.350   1.046  0.5748  0.5130 -0.6200
 1917ntf    on513632   3.805   2.500   1.235 -0.1595 -0.5140  0.7861
 1917ntf    fn413633   3.928   2.281   1.305  0.2104  0.4059 -0.1674
 1917ntf    fn413634   3.991   2.209   1.107 -0.1952  0.3218 -0.3959
 1917ntf    fn413635   4.099   2.352   1.213  0.3233 -0.0055 -0.4820
 1918ntf    cn113636   2.482   4.064   0.444 -0.2227 -0.0200  0.2014
 1918ntf    sn213637   2.322   4.100   0.523 -0.0963  0.1795  0.3662
 1918ntf    nn313638   2.243   3.970   0.485 -0.1119  0.2553  0.1342
 1918ntf    sn213639   2.231   3.828   0.552  0.0296  0.0058 -0.3613
 1918ntf    cn113640   2.060   3.851   0.610  0.2963  0.2489  0.3277
 1918ntf    fn413641   2.530   3.948   0.486 -0.3666 -0.2377 -0.2303
 1918ntf    fn413642   2.474   4.062   0.312  0.0081 -0.0804  0.1889
 1918ntf    fn413643   2.576   4.155   0.465  0.1011 -0.2390 -0.2900
 1918ntf    on513644   2.363   4.123   0.659 -0.4698  0.3590  0.4489
 1918ntf    on513645   2.268   4.212   0.449 -0.2152 -0.0825  0.0532
 1918ntf    on513646   2.311   3.820   0.671  0.1340 -0.0962 -0.4382
 1918ntf    on513647   2.224   3.715   0.463  0.7866  0.0206 -0.4448
 1918ntf    fn413648   2.053   3.962   0.682 -0.1207  0.2342  0.3092
 1918ntf    fn413649   1.979   3.869   0.507  0.2686 -0.5401  0.2106
 1918ntf    fn413650   2.017   3.747   0.678 -0.4269  0.2882 -0.0633
 1919ntf    cn113651   3.446   0.859   5.006  0.0308 -0.0069  0.0870
 1919ntf    sn213652   3.323   0.767   4.909 -0.0096  0.0105  0.1209
 1919ntf    nn313653   3.426   0.686   4.821 -0.8673 -0.5884 -0.3465
 1919ntf    sn213654   3.491   0.731   4.685  0.2076 -0.1528  0.2966
 1919ntf    cn113655   3.403   0.614   4.577 -0.1450  0.2648  0.1266
 1919ntf    fn413656   3.385   0.942   5.090  0.3103  0.1660  0.1203
 1919ntf    fn413657   3.524   0.783   5.081  0.0934  0.1111  0.1416
 1919ntf    fn413658   3.527   0.924   4.925 -0.0081  0.5292  0.4651
 1919ntf    on513659   3.267   0.681   5.010  0.2953 -0.0988  0.1996
 1919ntf    on513660   3.242   0.871   4.850 -0.6507 -0.0849  0.8286
 1919ntf    on513661   3.629   0.690   4.676  0.1676 -0.2436  0.0894
 1919ntf    on513662   3.451   0.860   4.634 -0.0369 -0.2561  0.2268
 1919ntf    fn413663   3.273   0.626   4.599 -0.2670 -0.2157 -0.3021
 1919ntf    fn413664   3.418   0.639   4.448  0.1076  0.4047  0.1843
 1919ntf    fn413665   3.445   0.490   4.597  0.3437  0.4059 -0.0092
 1920ntf    cn113666   3.928   5.405   2.075  0.1964  0.0628  0.0891
 1920ntf    sn213667   3.946   5.524   1.939  0.1563 -0.1612 -0.1124
 1920ntf    nn313668   3.860   5.643   1.993  0.0516 -0.4054  0.2573
 1920ntf    sn213669   3.709   5.681   1.974  0.1269 -0.1400  0.1921
 1920ntf    cn113670   3.729   5.835   1.878 -0.0648 -0.1555  0.1263
 1920ntf    fn413671   3.983   5.454   2.185 -0.6820  0.3169  0.4259
 1920ntf    fn413672   3.800   5.384   2.102  0.0905  0.2730 -0.2356
 1920ntf    fn413673   3.987   5.290   2.045 -0.3019 -0.1751  0.0089
 1920ntf    on513674   4.087   5.557   1.933  0.1701 -0.0611  0.6650
 1920ntf    on513675   3.898   5.450   1.824 -0.1589 -0.1235 -0.0054
 1920ntf    on513676   3.646   5.729   2.094  0.0440  0.5395 -0.1115
 1920ntf    on513677   3.631   5.594   1.889  0.2125  0.0793 -0.1126
 1920ntf    fn413678   3.609   5.886   1.856 -0.0764 -0.2594 -0.0546
 1920ntf    fn413679   3.795   5.932   1.938  0.6258 -0.5790  0.0593
 1920ntf    fn413680   3.785   5.813   1.760 -0.1218 -0.3566  0.1357
 1921ntf    cn113681   6.298   1.196   0.941 -0.1182  0.1238  0.3363
 1921ntf    sn213682   6.209   1.049   0.882 -0.2662  0.3299  0.0410
 1921ntf    nn313683   6.226   1.073   0.728 -0.4346  0.0220 -0.0279
 1921ntf    sn213684   6.136   1.127   0.612 -0.2226  0.2852 -0.0724
 1921ntf    cn113685   6.260   1.248   0.556  0.1000 -0.1057 -0.2070
 1921ntf    fn413686   6.301   1.201   1.073  0.1685 -0.8309  0.3756
 1921ntf    fn413687   6.423   1.210   0.899 -0.2041 -0.4901 -0.1426
 1921ntf    fn413688   6.239   1.303   0.891  0.5452  0.4551  0.2468
 1921ntf    on513689   6.287   0.940   0.937  0.0204  0.4374 -0.1543
 1921ntf    on513690   6.073   1.057   0.930 -0.2057 -0.5681  0.3953
 1921ntf    on513691   6.021   1.209   0.642 -0.4066 -0.0738  0.2158
 1921ntf    on513692   6.119   1.027   0.509 -0.2154 -0.1653  0.3611
 1921ntf    fn413693   6.298   1.329   0.654  0.1710 -0.4358  0.0403
 1921ntf    fn413694   6.371   1.189   0.514 -0.3416 -0.6676 -0.6061
 1921ntf    fn413695   6.213   1.326   0.460  0.1831  0.5499  0.2819
 1922ntf    cn113696   1.903   0.021   4.754  0.3161 -0.0040 -0.2138
 1922ntf    sn213697   1.788  -0.119   4.742  0.2677  0.0222 -0.0676
 1922ntf    nn313698   1.656  -0.042   4.778  0.4849  0.3419  0.0428
 1922ntf    sn213699   1.589  -0.029   4.920  0.1288  0.0483 -0.0967
 1922ntf    cn113700   1.460  -0.157   4.920  0.2476 -0.0720 -0.1974
 1922ntf    fn413701   2.030  -0.014   4.755  0.2053 -0.4205 -0.4939
 1922ntf    fn413702   1.888   0.099   4.649 -0.3901  0.0328 -0.0910
 1922ntf    fn413703   1.890   0.088   4.868 -0.0608 -0.3477 -0.0516
 1922ntf    on513704   1.802  -0.147   4.601 -0.3751 -0.0867 -0.1142
 1922ntf    on513705   1.843  -0.213   4.837 -0.0683 -0.2553 -0.1438
 1922ntf    on513706   1.518   0.097   4.914 -0.3403 -0.2177 -0.1650
 1922ntf    on513707   1.673  -0.055   5.034  0.6689  0.5808 -0.3673
 1922ntf    fn413708   1.355  -0.143   4.842  0.1396  0.0579 -0.0309
 1922ntf    fn413709   1.503  -0.279   4.894  0.2432 -0.2227  0.4627
 1922ntf    fn413710   1.396  -0.162   5.036 -0.4422  0.2486 -0.5581
 1923ntf    cn113711   1.384   2.638   3.106  0.2028  0.2574 -0.0061
 1923ntf    sn213712   1.470   2.490   3.042 -0.4502 -0.2724  0.3296
 1923ntf    nn313713   1.384   2.469   2.913 -0.1834  0.7264 -0.0188
 1923ntf    sn213714   1.267   2.366   2.894  0.5002  0.0021 -0.3158
 1923ntf    cn113715   1.342   2.201   2.872  0.3622 -0.1674  0.4454
 1923ntf    fn413716   1.375   2.724   3.006 -0.5711 -0.1514 -0.2994
 1923ntf    fn413717   1.261   2.615   3.148  0.2175 -0.4100 -0.3038
 1923ntf    fn413718   1.453   2.684   3.209 -0.0564  0.2178  0.1867
 1923ntf    on513719   1.605   2.530   3.013 -0.5084  0.1599  0.6253
 1923ntf    on513720   1.458   2.379   3.134 -0.0938 -0.4916  0.1122
 1923ntf    on513721   1.198   2.387   2.769  0.3963  0.6577 -0.1474
 1923ntf    on513722   1.177   2.349   3.005  0.2597  0.3478 -0.4573
 1923ntf    fn413723   1.448   2.182   2.949  0.8023 -0.4722 -0.2276
 1923ntf    fn413724   1.257   2.104   2.898  0.5361 -0.5956 -0.5327
 1923ntf    fn413725   1.382   2.192   2.746  0.3891 -0.4009  0.4712
 1924ntf    cn113726   5.835   6.757   5.685  0.1583  0.1365  0.2931
 1924ntf    sn213727   5.721   6.790   5.822  0.0163  0.2463  0.1483
 1924ntf    nn313728   5.808   6.887   5.910  0.1138  0.5096 -0.2373
 1924ntf    sn213729   5.833   6.875   6.064  0.2779 -0.3055 -0.3226
 1924ntf    cn113730   5.850   7.054   6.093 -0.0200 -0.3451  0.1110
 1924ntf    fn413731   5.822   6.651   5.607 -0.3041  0.0441  0.4914
 1924ntf    fn413732   5.857   6.861   5.607 -0.2850  0.2581  0.3291
 1924ntf    fn413733   5.955   6.742   5.739 -0.1531 -0.5065  0.8235
 1924ntf    on513734   5.612   6.854   5.752  0.1481  0.3273  0.0177
 1924ntf    on513735   5.696   6.660   5.880 -0.6924  0.0832 -0.5092
 1924ntf    on513736   5.965   6.822   6.088  0.0068 -0.7237  0.2677
 1924ntf    on513737   5.730   6.834   6.156  0.6380  0.4106  0.4233
 1924ntf    fn413738   5.739   7.126   6.090  0.1049 -0.1727 -0.7432
 1924ntf    fn413739   5.903   7.074   6.213  0.5548  0.0163 -0.1989
 1924ntf    fn413740   5.936   7.099   6.003  0.2412  0.1552  0.6064
 1925ntf    cn113741   5.156   5.034   2.499  0.1930 -0.5685 -0.3099
 1925ntf    sn213742   5.184   5.193   2.415 -0.1064 -0.1612  0.3570
 1925ntf    nn313743   5.225   5.280   2.539 -0.2825  0.4388 -0.0057
 1925ntf    sn213744   5.233   5.437   2.546  0.1058  0.4207 -0.0556
 1925ntf    cn113745   5.070   5.488   2.608 -0.1462 -0.0129 -0.3489
 1925ntf    fn413746   5.059   5.041   2.589  0.4818  0.0406 -0.0458
 1925ntf    fn413747   5.108   4.945   2.413  0.0660 -0.9620  0.1595
 1925ntf    fn413748   5.256   4.972   2.559 -0.1772 -0.5058  0.3762
 1925ntf    on513749   5.297   5.159   2.333 -0.2939 -0.2280  0.1226
 1925ntf    on513750   5.056   5.226   2.357 -0.2045 -0.1139  0.5959
 1925ntf    on513751   5.261   5.508   2.424 -0.4854  0.0166 -0.4319
 1925ntf    on513752   5.323   5.469   2.654 -0.1798  0.3821  0.1935
 1925ntf    fn413753   4.977   5.444   2.526  0.2851  0.1334 -0.9241
 1925ntf    fn413754   5.047   5.436   2.727  0.1141 -0.1028 -0.3364
 1925ntf    fn413755   5.055   5.620   2.605  0.1684  0.0347  0.0096
 1926ntf    cn113756   1.146   5.292   1.717  0.5955  0.0042  0.2683
 1926ntf    sn213757   1.215   5.377   1.862  0.3043  0.2234  0.2780
 1926ntf    nn313758   1.259   5.512   1.794  0.0384  0.0107 -0.3205
 1926ntf    sn213759   1.174   5.643   1.778 -0.0637 -0.0267 -0.0877
 1926ntf    cn113760   1.263   5.760   1.884 -0.1544 -0.1671  0.1454
 1926ntf    fn413761   1.117   5.168   1.754 -0.5649  0.1260 -0.2139
 1926ntf    fn413762   1.034   5.347   1.675  0.1564 -0.4782  0.7963
 1926ntf    fn413763   1.227   5.280   1.612 -0.0065 -0.3672 -0.1597
 1926ntf    on513764   1.104   5.380   1.954 -0.1945 -0.4538 -0.2862
 1926ntf    on513765   1.326   5.292   1.897  0.4672  0.4803  0.3852
 1926ntf    on513766   1.038   5.652   1.826 -0.1992 -0.3529 -0.4037
 1926ntf    on513767   1.192   5.704   1.649 -0.1213 -0.4906 -0.3179
 1926ntf    fn413768   1.223   5.751   2.010 -0.0502  0.1012  0.1982
 1926ntf    fn413769   1.394   5.739   1.885 -0.0738  0.2754 -0.5855
 1926ntf    fn413770   1.239   5.884   1.845  0.4288 -0.0782  0.0573
 1927ntf    cn113771   5.450   0.960   1.727 -0.2958  0.0514 -0.3443
 1927ntf    sn213772   5.405   1.042   1.572  0.1337  0.4684 -0.2513
 1927ntf    nn313773   5.435   0.928   1.469 -0.4940  0.2697 -0.2232
 1927ntf    sn213774   5.349   0.801   1.438  0.0465 -0.1256 -0.1250
 1927ntf    cn113775   5.231   0.855   1.311  0.1651  0.0764 -0.1497
 1927ntf    fn413776   5.566   0.896   1.724 -0.4361 -0.2236  0.0090
 1927ntf    fn413777   5.468   1.055   1.817 -0.1871 -0.3498  0.0670
 1927ntf    fn413778   5.356   0.880   1.776 -0.2518  0.1674 -0.0654
 1927ntf    on513779   5.264   1.066   1.590  0.0153 -0.1862 -0.2955
 1927ntf    on513780   5.490   1.159   1.572  0.5330  0.1789  0.1364
 1927ntf    on513781   5.266   0.756   1.547  0.0993 -1.0887 -0.4764
 1927ntf    on513782   5.426   0.699   1.371  0.2405  0.0460 -0.1658
 1927ntf    fn413783   5.147   0.758   1.278 -0.0355  0.2893 -0.2728
 1927ntf    fn413784   5.152   0.956   1.344 -0.2988 -0.2067 -0.3799
 1927ntf    fn413785   5.288   0.892   1.197  0.3943  0.3707  0.0589
 1928ntf    cn113786   5.967   0.095   2.494  0.1759 -0.0352 -0.1019
 1928ntf    sn213787   6.091   0.225   2.466  0.0998  0.0316 -0.1314
 1928ntf    nn313788   6.231   0.166   2.505 -0.0826 -0.2362  0.1273
 1928ntf    sn213789   6.287   0.123   2.645  0.3863  0.1889  0.0740
 1928ntf    cn113790   6.411   0.253   2.673 -0.1031  0.6123  0.2728
 1928ntf    fn413791   5.984   0.029   2.608 -0.0527  0.6017  0.3068
 1928ntf    fn413792   5.851   0.157   2.507  0.0507 -0.4258  0.7415
 1928ntf    fn413793   5.951  -0.001   2.404 -0.2319  0.0281 -0.0987
 1928ntf    on513794   6.079   0.242   2.323  0.0652 -0.1763 -0.1539
 1928ntf    on513795   6.056   0.341   2.544  0.8059  0.1720 -0.0224
 1928ntf    on513796   6.360  -0.002   2.641 -0.0300 -0.0372 -0.6996
 1928ntf    on513797   6.189   0.148   2.748  0.0926  0.3192 -0.2347
 1928ntf    fn413798   6.357   0.372   2.649 -0.5312  0.3548 -0.0608
 1928ntf    fn413799   6.450   0.259   2.799  0.2005 -0.2395  0.2255
 1928ntf    fn413800   6.517   0.246   2.594 -0.4481  0.4385 -0.1810
 1929ntf    cn113801   5.947   6.054   0.856 -0.1659  0.1144  0.2447
 1929ntf    sn213802   6.085   6.142   0.935  0.0449 -0.0013  0.0065
 1929ntf    nn313803   6.122   6.027   1.036  0.2992  0.1618  0.0989
 1929ntf    sn213804   6.096   6.020   1.190  0.2104  0.0925  0.0809
 1929ntf    cn113805   6.253   6.091   1.248  0.2480  0.2825 -0.2561
 1929ntf    fn413806   5.891   6.115   0.752  0.0420 -0.0843  0.0184
 1929ntf    fn413807   5.990   5.940   0.804 -0.3167  0.0428  0.2754
 1929ntf    fn413808   5.844   6.030   0.936 -0.0987  0.0146  0.2999
 1929ntf    on513809   6.176   6.145   0.823  0.0714  0.4475  0.0380
 1929ntf    on513810   6.027   6.264   0.985 -0.2747 -0.1472 -0.0046
 1929ntf    on513811   6.104   5.885   1.241 -0.4939 -0.2277 -0.6443
 1929ntf    on513812   5.986   6.102   1.234 -0.3880 -0.5628 -0.1717
 1929ntf    fn413813   6.270   6.209   1.191  0.3194  0.1596 -0.4932
 1929ntf    fn413814   6.249   6.124   1.376  0.6803  0.0170 -0.1718
 1929ntf    fn413815   6.359   6.017   1.218 -0.3786 -0.7600  0.0722
 1930ntf    cn113816   4.366   5.479   3.530 -0.2466  0.2761  0.2152
 1930ntf    sn213817   4.227   5.379   3.590 -0.1226  0.1525  0.2954
 1930ntf    nn313818   4.114   5.477   3.638 -0.1217  0.1458  0.3114
 1930ntf    sn213819   3.987   5.529   3.562 -0.0881 -0.2570 -0.0241
 1930ntf    cn113820   3.855   5.431   3.637 -0.3523  0.3508  0.3127
 1930ntf    fn413821   4.325   5.568   3.440 -0.4107 -0.0605 -0.0447
 1930ntf    fn413822   4.428   5.549   3.623  0.0033  0.1711  0.1262
 1930ntf    fn413823   4.450   5.405   3.459 -0.6372 -0.4535  0.5017
 1930ntf    on513824   4.198   5.300   3.472 -0.3117  1.0287 -0.2584
 1930ntf    on513825   4.281   5.308   3.703  0.0005 -0.1834  0.0283
 1930ntf    on513826   3.983   5.490   3.423  0.1040  0.0031 -0.1050
 1930ntf    on513827   3.957   5.669   3.583  0.2897 -0.1971  0.1263
 1930ntf    fn413828   3.826   5.471   3.760  0.6272  0.1842  0.6086
 1930ntf    fn413829   3.745   5.433   3.564 -0.0180  0.0328 -0.2075
 1930ntf    fn413830   3.881   5.301   3.636  0.3614  0.4943 -0.1085
 1931ntf    cn113831   4.140   4.934   5.062  0.3200  0.4752 -0.2520
 1931ntf    sn213832   4.030   4.832   4.959  0.3568  0.0418  0.1342
 1931ntf    nn313833   4.138   4.789   4.854 -0.0024  0.1556 -0.2832
 1931ntf    sn213834   4.202   4.646   4.842 -0.0635  0.1308 -0.3109
 1931ntf    cn113835   4.242   4.637   4.665  0.1614  0.0312 -0.2550
 1931ntf    fn413836   4.093   4.987   5.174  0.1388 -0.4254  0.1153
 1931ntf    fn413837   4.251   4.870   5.095  0.1871  0.0698 -0.5892
 1931ntf    fn413838   4.194   5.028   4.986  0.7316  0.1510 -0.3675
 1931ntf    on513839   3.981   4.733   5.052  0.2682  0.3368  0.4004
 1931ntf    on513840   3.934   4.922   4.902  0.3751  0.0218  0.0732
 1931ntf    on513841   4.110   4.537   4.863  0.6648 -0.3988  0.1914
 1931ntf    on513842   4.333   4.626   4.899 -0.4225  0.0126  0.4966
 1931ntf    fn413843   4.134   4.628   4.590  0.2697 -0.9911 -0.2935
 1931ntf    fn413844   4.306   4.747   4.630 -0.4948  0.5077  0.0234
 1931ntf    fn413845   4.323   4.539   4.630  0.1229 -0.0496 -0.1224
 1932ntf    cn113846   5.730   0.964   2.257 -0.0512  0.2337 -0.3072
 1932ntf    sn213847   5.867   0.857   2.203  0.0768  0.1598  0.1563
 1932ntf    nn313848   5.807   0.769   2.088  0.0661 -0.3166  0.5238
 1932ntf    sn213849   5.690   0.665   2.101 -0.0755 -0.2108  0.1443
 1932ntf    cn113850   5.580   0.710   1.965 -0.2228 -0.3408  0.2198
 1932ntf    fn413851   5.766   1.034   2.363  0.2004 -0.3587  0.0080
 1932ntf    fn413852   5.670   1.037   2.165 -0.1087  0.5847  0.0078
 1932ntf    fn413853   5.628   0.893   2.304  0.0820  0.2235 -0.0300
 1932ntf    on513854   5.961   0.953   2.150  0.0282  0.5052  0.6902
 1932ntf    on513855   5.907   0.787   2.322  0.3573  0.0535  0.0008
 1932ntf    on513856   5.609   0.662   2.220  0.2411  0.1310  0.3713
 1932ntf    on513857   5.737   0.532   2.073  0.0155 -0.2279  0.3728
 1932ntf    fn413858   5.520   0.824   1.998 -0.0941 -0.2281  0.0647
 1932ntf    fn413859   5.639   0.719   1.847 -0.0882 -0.6358  0.2652
 1932ntf    fn413860   5.481   0.623   1.953 -0.2839 -0.2007 -0.3294
 1933ntf    cn113861   6.691   0.345   4.191 -0.3162  0.0382 -0.1066
 1933ntf    sn213862   6.832   0.413   4.099 -0.1357  0.2396  0.3115
 1933ntf    nn313863   6.953   0.359   4.182  0.2534  0.1172 -0.3287
 1933ntf    sn213864   7.047   0.428   4.287  0.0462 -0.2009  0.0679
 1933ntf    cn113865   7.126   0.284   4.365 -0.1902 -0.2318  0.2528
 1933ntf    fn413866   6.581   0.410   4.158 -0.0610  0.2996 -0.4481
 1933ntf    fn413867   6.669   0.215   4.182 -0.9494  0.1154  0.2543
 1933ntf    fn413868   6.710   0.367   4.321 -0.0077 -0.2764 -0.0953
 1933ntf    on513869   6.817   0.355   3.967  1.0238  0.3429  0.1216
 1933ntf    on513870   6.816   0.556   4.099  0.2207  0.2794  0.3081
 1933ntf    on513871   6.976   0.486   4.399 -0.3468 -0.2276 -0.1660
 1933ntf    on513872   7.161   0.492   4.227 -0.3819 -0.1294 -0.6866
 1933ntf    fn413873   7.202   0.312   4.470 -0.3207  0.2187  0.2319
 1933ntf    fn413874   7.032   0.202   4.408 -0.4310  0.0483  0.2703
 1933ntf    fn413875   7.202   0.212   4.284 -0.5497  0.3182 -0.5888
 1934ntf    cn113876   1.265   1.591   3.853  0.0953 -0.3844 -0.1143
 1934ntf    sn213877   1.132   1.469   3.837 -0.1051 -0.1441 -0.2934
 1934ntf    nn313878   1.083   1.497   3.691 -0.0244 -0.1841 -0.3285
 1934ntf    sn213879   1.108   1.409   3.563  0.1853 -0.1179 -0.3325
 1934ntf    cn113880   0.938   1.348   3.544  0.0553  0.0931  0.1274
 1934ntf    fn413881   1.367   1.568   3.772  0.2075  0.0665 -0.1090
 1934ntf    fn413882   1.222   1.713   3.825 -0.4243 -0.6250 -0.3692
 1934ntf    fn413883   1.325   1.594   3.971  0.4539  0.7852 -0.3074
 1934ntf    on513884   1.213   1.353   3.863  0.4232  0.2697 -0.0688
 1934ntf    on513885   1.034   1.521   3.930  0.4000  0.1668  0.0719
 1934ntf    on513886   1.184   1.287   3.565 -0.3928 -0.4799 -0.2575
 1934ntf    on513887   1.125   1.497   3.450  0.1165 -0.3054 -0.4887
 1934ntf    fn413888   0.917   1.280   3.433  0.3174  0.6824 -0.2890
 1934ntf    fn413889   0.904   1.270   3.646 -0.3192  0.1874  0.0749
 1934ntf    fn413890   0.854   1.450   3.545 -0.2223 -0.1317  0.0172
 1935ntf    cn113891   1.300   1.028   6.723 -0.3947  0.1285  0.0599
 1935ntf    sn213892   1.371   0.862   6.744  0.3710  0.4321 -0.1046
 1935ntf    nn313893   1.457   0.849   6.613  0.6308 -0.1099  0.1178
 1935ntf    sn213894   1.428   0.765   6.484 -0.2278  0.1269  0.1546
 1935ntf    cn113895   1.472   0.602   6.551 -0.1565  0.0530 -0.0705
 1935ntf    fn413896   1.213   1.048   6.820  0.1406  0.3629  0.4969
 1935ntf    fn413897   1.386   1.128   6.732  0.3707 -0.5335  0.1683
 1935ntf    fn413898   1.230   1.037   6.611 -0.2634 -0.0870 -0.0395
 1935ntf    on513899   1.444   0.877   6.867  0.0324 -0.0850  0.1607
 1935ntf    on513900   1.255   0.777   6.745  0.2396  0.6110 -0.1362
 1935ntf    on513901   1.531   0.787   6.386 -0.0753 -0.0432  0.2764
 1935ntf    on513902   1.290   0.763   6.441 -0.3944 -0.6263  0.7152
 1935ntf    fn413903   1.376   0.544   6.621  0.4266 -0.2516  0.4947
 1935ntf    fn413904   1.493   0.515   6.454 -0.5652 -0.1256  0.0021
 1935ntf    fn413905   1.578   0.606   6.630 -0.5684 -0.0824  0.4946
 1936ntf    cn113906   4.123   4.285   6.671 -0.0283  0.3431 -0.0551
 1936ntf    sn213907   4.059   4.446   6.615  0.0204  0.2236 -0.4611
 1936ntf    nn313908   3.971   4.403   6.492 -0.0019 -0.3337 -0.2543
 1936ntf    sn213909   3.858   4.478   6.413  0.2309  0.2466 -0.0433
 1936ntf    cn113910   3.974   4.524   6.280  0.2052  0.1041 -0.1163
 1936ntf    fn413911   4.027   4.221   6.735  0.2833  0.0743  0.1426
 1936ntf    fn413912   4.151   4.202   6.572  0.1228  0.2059  0.1013
 1936ntf    fn413913   4.226   4.291   6.753 -0.3568  0.3627  0.3550
 1936ntf    on513914   3.992   4.493   6.733  0.3789 -0.1317 -0.1125
 1936ntf    on513915   4.175   4.523   6.579  0.1335  0.3514  0.1660
 1936ntf    on513916   3.817   4.604   6.471  0.4370  0.3303 -0.0768
 1936ntf    on513917   3.757   4.399   6.348  0.2871  0.1621 -0.0278
 1936ntf    fn413918   3.914   4.572   6.172 -0.3299 -0.1738  0.0548
 1936ntf    fn413919   4.049   4.623   6.327  0.4762 -0.4145  0.5602
 1936ntf    fn413920   4.057   4.427   6.249 -0.2683 -0.3202 -0.0740
 1937ntf    cn113921   2.032   0.440   4.829  0.1625  0.1678  0.1922
 1937ntf    sn213922   2.204   0.470   4.779  0.0858  0.2966  0.0067
 1937ntf    nn313923   2.253   0.553   4.902 -0.4293 -0.0585  0.4571
 1937ntf    sn213924   2.341   0.508   5.024  0.4606  0.1074 -0.1174
 1937ntf    cn113925   2.264   0.627   5.137 -0.0958 -0.0762 -0.3033
 1937ntf    fn413926   2.020   0.384   4.948 -0.2131 -0.3960 -0.1093
 1937ntf    fn413927   1.977   0.560   4.839  0.1366  0.1536  0.2238
 1937ntf    fn413928   1.969   0.367   4.739 -0.0160  0.2542  0.2449
 1937ntf    on513929   2.239   0.330   4.770 -0.1836  0.1956  0.4883
 1937ntf    on513930   2.179   0.544   4.657  0.8523 -0.2141 -0.4660
 1937ntf    on513931   2.482   0.542   5.022  0.3011  0.8174  0.3205
 1937ntf    on513932   2.312   0.382   5.087 -0.1314  0.4964  0.3873
 1937ntf    fn413933   2.136   0.591   5.138 -0.3452  0.7953 -0.0313
 1937ntf    fn413934   2.300   0.623   5.264  0.2620 -0.3865 -0.4129
 1937ntf    fn413935   2.265   0.751   5.091  0.8237 -0.0602 -0.2491
 1938ntf    cn113936   6.705   3.797   1.417 -0.3716  0.2003 -0.3478
 1938ntf    sn213937   6.719   3.934   1.536  0.0267 -0.2361  0.1117
 1938ntf    nn313938   6.662   3.866   1.665 -0.1551  0.2031  0.2636
 1938ntf    sn213939   6.525   3.894   1.737 -0.2607 -0.2364  0.2360
 1938ntf    cn113940   6.449   3.729   1.728 -0.2080 -0.2607  0.2332
 1938ntf    fn413941   6.586   3.741   1.428 -0.3302  0.2956  0.6441
 1938ntf    fn413942   6.717   3.834   1.290  0.0638 -0.2319 -0.4365
 1938ntf    fn413943   6.803   3.712   1.440 -0.6240  0.2869  1.1130
 1938ntf    on513944   6.861   3.948   1.555 -0.0415  0.1951  0.3220
 1938ntf    on513945   6.642   4.044   1.482 -0.2908 -0.4723  0.0802
 1938ntf    on513946   6.424   3.970   1.669  0.2396  0.4622  0.2676
 1938ntf    on513947   6.553   3.926   1.875 -0.4115  0.1208  0.1838
 1938ntf    fn413948   6.513   3.621   1.770 -0.2207 -0.2994  0.1531
 1938ntf    fn413949   6.340   3.728   1.802 -0.1639 -0.0919  0.3009
 1938ntf    fn413950   6.416   3.702   1.603 -0.1736  0.2777  0.1045
 1939ntf    cn113951   0.910   4.707   2.414  0.1240  0.1706 -0.2019
 1939ntf    sn213952   1.039   4.659   2.534 -0.0135  0.0385 -0.1067
 1939ntf    nn313953   1.073   4.801   2.592  0.5194 -0.2432  0.2798
 1939ntf    sn213954   1.001   4.881   2.705 -0.0443 -0.0179 -0.2320
 1939ntf    cn113955   1.144   4.903   2.815  0.0129  0.3349 -0.3756
 1939ntf    fn413956   0.813   4.773   2.474 -0.0073 -0.2150  0.0143
 1939ntf    fn413957   0.951   4.795   2.325 -0.0352 -0.2282 -0.6694
 1939ntf    fn413958   0.854   4.606   2.350  0.3220 -0.1424  0.1105
 1939ntf    on513959   0.970   4.570   2.625  0.7810 -0.4616  0.0145
 1939ntf    on513960   1.151   4.608   2.459 -0.2957  0.0077 -0.5104
 1939ntf    on513961   0.904   4.809   2.783 -0.1792 -0.0267 -0.4064
 1939ntf    on513962   0.977   5.020   2.671 -0.2497 -0.0493 -0.2139
 1939ntf    fn413963   1.103   4.959   2.928  0.1823 -0.1752 -0.0605
 1939ntf    fn413964   1.199   4.789   2.851 -0.4302  0.3316  0.3241
 1939ntf    fn413965   1.235   4.987   2.767  0.5124  0.2598  0.4195
 1940ntf    cn113966   0.305   3.275   5.136  0.1859  0.1517 -0.1135
 1940ntf    sn213967   0.359   3.237   5.305 -0.0466  0.3839  0.0142
 1940ntf    nn313968   0.447   3.366   5.321  0.1434  0.2820 -0.1967
 1940ntf    sn213969   0.574   3.370   5.414 -0.0144 -0.1808  0.0440
 1940ntf    cn113970   0.695   3.319   5.288 -0.0894  0.3390 -0.2431
 1940ntf    fn413971   0.221   3.377   5.133  0.2429  0.1983 -0.1535
 1940ntf    fn413972   0.407   3.315   5.060  0.0313  0.2512 -0.2696
 1940ntf    fn413973   0.243   3.178   5.072  0.2756  0.0557 -0.0551
 1940ntf    on513974   0.237   3.231   5.383  0.0173  0.3998  0.1156
 1940ntf    on513975   0.426   3.111   5.284  0.2461  0.5634 -0.1331
 1940ntf    on513976   0.600   3.272   5.516 -0.2440 -0.4281 -0.1329
 1940ntf    on513977   0.618   3.503   5.446  0.1032 -0.0798 -0.5251
 1940ntf    fn413978   0.693   3.402   5.185  0.4688  0.0148 -0.5172
 1940ntf    fn413979   0.821   3.318   5.327 -0.2805  0.5629  0.4021
 1940ntf    fn413980   0.669   3.199   5.237 -0.1348  0.3373 -0.2166
 1941ntf    cn113981   2.843   5.124   5.762 -0.2172 -0.0636 -0.1708
 1941ntf    sn213982   2.811   5.146   5.584 -0.3018  0.3050 -0.1115
 1941ntf    nn313983   2.905   5.268   5.555  0.3720 -0.2992 -0.4929
 1941ntf    sn213984   2.870   5.419   5.579  0.3472 -0.4130  0.2114
 1941ntf    cn113985   2.819   5.484   5.417  0.3648  0.1045  0.4102
 1941ntf    fn413986   2.821   5.227   5.843 -0.1447 -0.3177  0.1754
 1941ntf    fn413987   2.778   5.022   5.817  0.1720 -0.0111  0.3981
 1941ntf    fn413988   2.967   5.087   5.792 -0.0234  0.5740 -0.1766
 1941ntf    on513989   2.846   5.020   5.524  0.0613  0.2012  0.3129
 1941ntf    on513990   2.670   5.176   5.582 -0.3551  0.0424 -0.4434
 1941ntf    on513991   2.992   5.490   5.606  0.1518 -0.2166  0.5858
 1941ntf    on513992   2.762   5.446   5.671  0.0460 -0.2106 -0.1979
 1941ntf    fn413993   2.905   5.470   5.318  0.2857  0.0342  0.3510
 1941ntf    fn413994   2.715   5.421   5.364  0.6524 -0.0057 -0.0211
 1941ntf    fn413995   2.781   5.610   5.410 -0.3729 -0.1358 -0.1010
 1942ntf    cn113996   0.075   5.604   6.022  0.0328  0.2795 -0.4160
 1942ntf    sn213997  -0.105   5.626   6.038  0.0366  0.1873 -0.2417
 1942ntf    nn313998  -0.111   5.689   6.182 -0.3579  0.3422 -0.3260
 1942ntf    sn213999  -0.193   5.626   6.300  0.1232  0.1211 -0.1092
 1942ntf    cn114000  -0.096   5.693   6.438  0.3137  0.0969 -0.2318
 1942ntf    fn414001   0.111   5.550   5.907  0.0244 -0.4079 -0.1006
 1942ntf    fn414002   0.119   5.729   6.026  0.1100  0.2402  0.0844
 1942ntf    fn414003   0.119   5.540   6.129  0.0939  0.1437 -0.5222
 1942ntf    on514004  -0.131   5.718   5.930 -0.1955 -0.0406 -0.3797
 1942ntf    on514005  -0.162   5.494   6.023 -0.4081  0.3673 -0.1509
 1942ntf    on514006  -0.187   5.485   6.328 -0.7264  0.1130  0.0664
 1942ntf    on514007  -0.319   5.692   6.325 -0.0682 -0.1500 -0.3535
 1942ntf    fn414008  -0.092   5.825   6.443 -0.3091  0.1047  0.1545
 1942ntf    fn414009  -0.146   5.655   6.554  0.1311  0.2814 -0.2510
 1942ntf    fn414010   0.032   5.657   6.436  0.1545 -0.4763 -0.3004
 1943ntf    cn114011   4.692   2.192   2.519  0.3056 -0.0561  0.2020
 1943ntf    sn214012   4.704   2.017   2.566  0.1536 -0.1109  0.0338
 1943ntf    nn314013   4.569   1.985   2.640 -0.0085  0.2524 -0.1040
 1943ntf    sn214014   4.436   1.927   2.582 -0.0076 -0.2370  0.3780
 1943ntf    cn114015   4.334   2.047   2.673  0.0682  0.1267 -0.0139
 1943ntf    fn414016   4.802   2.222   2.452 -0.3374  0.4113 -0.6569
 1943ntf    fn414017   4.597   2.217   2.430 -0.0278 -0.3390  0.4731
 1943ntf    fn414018   4.673   2.281   2.615 -0.3255  0.8112 -0.7060
 1943ntf    on514019   4.731   1.950   2.441 -0.5332 -0.5619  0.1218
 1943ntf    on514020   4.811   2.025   2.662  0.2355 -0.2751 -0.0423
 1943ntf    on514021   4.403   1.794   2.627  0.0762 -0.3599  0.0819
 1943ntf    on514022   4.419   1.962   2.443 -0.7315 -0.3792  0.4268
 1943ntf    fn414023   4.209   2.054   2.632  0.3222  0.4600 -0.7419
 1943ntf    fn414024   4.321   2.028   2.803  0.1474 -0.4926 -0.0926
 1943ntf    fn414025   4.373   2.173   2.660  0.2434  0.0879  0.1314
 1944ntf    cn114026   3.092   5.885   1.088  0.2288 -0.1445  0.1502
 1944ntf    sn214027   3.064   5.878   1.267 -0.2181  0.2484  0.0971
 1944ntf    nn314028   3.004   6.021   1.294 -0.3668  0.1398  0.3503
 1944ntf    sn214029   2.869   6.061   1.362 -0.5258  0.3910 -0.1041
 1944ntf    cn114030   2.738   5.999   1.252 -0.0145 -0.4905 -0.2276
 1944ntf    fn414031   3.158   5.778   1.045  0.4736  0.1938 -0.3192
 1944ntf    fn414032   2.976   5.893   1.025  0.2323  0.2216  0.1887
 1944ntf    fn414033   3.172   5.983   1.049  0.2404 -0.0616  0.3810
 1944ntf    on514034   2.982   5.762   1.289  0.3789 -0.3034 -0.5402
 1944ntf    on514035   3.195   5.879   1.327 -0.0523 -0.2657 -0.2569
 1944ntf    on514036   2.855   6.204   1.369 -0.4958  0.3889 -0.0157
 1944ntf    on514037   2.847   5.985   1.483 -0.1954  0.1894 -0.1710
 1944ntf    fn414038   2.713   5.871   1.276 -0.3396 -0.1914  1.1083
 1944ntf    fn414039   2.624   6.060   1.280  0.5570  0.3279  0.3555
 1944ntf    fn414040   2.773   6.021   1.126  0.3398  0.6940  0.0636
 1945ntf    cn114041   1.172   3.708   1.396 -0.0113  0.0691  0.3986
 1945ntf    sn214042   1.308   3.764   1.289 -0.2600  0.1807  0.1424
 1945ntf    nn314043   1.414   3.661   1.341  0.2980  0.6709 -0.0090
 1945ntf    sn214044   1.512   3.659   1.463 -0.0636  0.0352  0.2782
 1945ntf    cn114045   1.519   3.479   1.485 -0.0159 -0.0552 -0.4537
 1945ntf    fn414046   1.060   3.754   1.345  0.4659  0.2858 -0.4681
 1945ntf    fn414047   1.156   3.577   1.401 -0.2174  0.0771 -0.0438
 1945ntf    fn414048   1.187   3.758   1.518  0.2614  0.4655  0.2063
 1945ntf    on514049   1.264   3.736   1.154 -0.2032  0.8264 -0.0170
 1945ntf    on514050   1.327   3.902   1.327  0.0865  0.2748 -0.3584
 1945ntf    on514051   1.454   3.695   1.590  0.4753  0.2074  0.4819
 1945ntf    on514052   1.649   3.691   1.432 -0.1706  0.2783  0.0570
 1945ntf    fn414053   1.581   3.435   1.594 -0.3671 -0.5012 -0.4301
 1945ntf    fn414054   1.396   3.431   1.496  0.0990 -0.0676  1.0338
 1945ntf    fn414055   1.569   3.420   1.378  0.3780  0.4504 -0.5519
 1946ntf    cn114056   5.276   3.814   0.331  0.2591 -0.0642  0.1566
 1946ntf    sn214057   5.329   3.969   0.252 -0.1071 -0.0115  0.0113
 1946ntf    nn314058   5.382   4.040   0.382 -0.1884  0.2829 -0.1155
 1946ntf    sn214059   5.465   4.173   0.384  0.2584  0.0094 -0.1523
 1946ntf    cn114060   5.379   4.259   0.520  0.0271 -0.3156 -0.0921
 1946ntf    fn414061   5.149   3.820   0.370  0.1670 -0.5486 -0.0597
 1946ntf    fn414062   5.278   3.714   0.244 -0.2186  0.5734 -0.6018
 1946ntf    fn414063   5.356   3.781   0.431  0.1456  0.0268  0.2792
 1946ntf    on514064   5.428   3.930   0.155  0.1571 -0.3083  0.3953
 1946ntf    on514065   5.207   4.031   0.206  0.1976  0.4856 -0.1328
 1946ntf    on514066   5.443   4.263   0.274  1.0389  0.3048 -0.0712
 1946ntf    on514067   5.598   4.158   0.438 -0.0162  0.4713  0.6755
 1946ntf    fn414068   5.250   4.283   0.504  0.1555  0.2870 -0.2421
 1946ntf    fn414069   5.388   4.195   0.635  0.1399 -0.7701 -0.3489
 1946ntf    fn414070   5.428   4.381   0.536  0.6789 -0.6137  0.2318
 1947ntf    cn114071   2.574   2.331   5.775 -0.2453  0.1025  0.1267
 1947ntf    sn214072   2.574   2.499   5.846 -0.0364  0.1259  0.0736
 1947ntf    nn314073   2.497   2.574   5.732 -0.0966 -0.1933 -0.0979
 1947ntf    sn214074   2.521   2.716   5.670 -0.1968 -0.2793 -0.3344
 1947ntf    cn114075   2.382   2.812   5.736  0.4888  0.4388  0.0851
 1947ntf    fn414076   2.636   2.332   5.658  0.2641 -0.4322  0.3847
 1947ntf    fn414077   2.637   2.240   5.848  0.1978 -0.0333 -0.4262
 1947ntf    fn414078   2.450   2.291   5.755 -0.3392  0.1886  0.5250
 1947ntf    on514079   2.493   2.489   5.965  0.0864 -0.2887  0.1249
 1947ntf    on514080   2.715   2.526   5.850 -0.0843  0.3559  0.1986
 1947ntf    on514081   2.497   2.722   5.528 -0.8046  0.2746 -0.2136
 1947ntf    on514082   2.632   2.794   5.719 -0.2086 -0.4079 -0.1054
 1947ntf    fn414083   2.270   2.760   5.688  0.6383 -0.2907  0.5161
 1947ntf    fn414084   2.369   2.810   5.868  0.6318  0.2259  0.0974
 1947ntf    fn414085   2.377   2.937   5.695  0.1722  0.4452  0.1415
 1948ntf    cn114086   6.754   4.831   1.876  0.4649 -0.1565 -0.0940
 1948ntf    sn214087   6.838   4.766   1.729  0.0253 -0.1087 -0.3667
 1948ntf    nn314088   6.930   4.891   1.702  0.6075 -0.4420  0.0558
 1948ntf    sn214089   6.920   4.994   1.584  0.0334 -0.1472  0.3575
 1948ntf    cn114090   7.080   5.079   1.598  0.1611 -0.3804  0.3180
 1948ntf    fn414091   6.844   4.875   1.962  0.4439  0.4917 -0.4064
 1948ntf    fn414092   6.670   4.929   1.846  0.7522  0.1103 -0.0223
 1948ntf    fn414093   6.675   4.746   1.941  0.1401 -0.1394 -0.4661
 1948ntf    on514094   6.913   4.654   1.778  0.3500  0.0498 -0.4955
 1948ntf    on514095   6.728   4.743   1.638 -0.0582 -0.4659 -0.1748
 1948ntf    on514096   6.830   5.102   1.615  0.2094  0.1232 -0.0651
 1948ntf    on514097   6.921   4.947   1.448 -0.0969  1.1324 -0.1033
 1948ntf    fn414098   7.080   5.136   1.717 -0.1329  0.0088  0.1315
 1948ntf    fn414099   7.179   4.991   1.608  0.3092 -0.3576 -0.8038
 1948ntf    fn414100   7.112   5.170   1.507 -0.4059 -0.4762  0.0196
 1949ntf    cn114101   4.041   5.959   1.011  0.1037 -0.1459  0.1881
 1949ntf    sn214102   3.867   6.008   1.028  0.1651  0.1345  0.0324
 1949ntf    nn314103   3.859   6.045   1.181  0.5576 -0.0741  0.1055
 1949ntf    sn214104   3.862   5.952   1.307  0.1084 -0.1099  0.0908
 1949ntf    cn114105   3.690   5.972   1.364  0.3367  0.6228  0.5387
 1949ntf    fn414106   4.053   5.837   1.061 -0.1704 -0.3205 -0.1648
 1949ntf    fn414107   4.069   5.946   0.882 -0.1151  0.2411  0.0979
 1949ntf    fn414108   4.131   6.042   1.060 -0.3049  0.2719  0.2416
 1949ntf    on514109   3.862   6.115   0.932  0.2987 -0.0899 -0.2249
 1949ntf    on514110   3.801   5.887   0.983 -0.2027  0.2315  0.3023
 1949ntf    on514111   3.937   6.014   1.413  0.1923  0.1767 -0.1355
 1949ntf    on514112   3.884   5.812   1.280 -0.3513 -0.2032  0.1826
 1949ntf    fn414113   3.662   6.091   1.414 -0.4100  0.6154  0.1627
 1949ntf    fn414114   3.607   5.953   1.263  0.6323 -0.3309  0.4619
 1949ntf    fn414115   3.662   5.874   1.448 -0.2433 -0.1031 -0.4637
 1950ntf    cn114116   3.531   0.854   3.804  0.1455  0.0994  0.2014
 1950ntf    sn214117   3.559   1.027   3.851 -0.0491  0.1914 -0.0175
 1950ntf    nn314118   3.522   1.018   4.003 -0.2335 -0.6168 -0.1073
 1950ntf    sn214119   3.382   1.024   4.074 -0.1217  0.0833  0.0584
 1950ntf    cn114120   3.359   1.195   4.131 -0.0230  0.0797  0.1095
 1950ntf    fn414121   3.494   0.836   3.678  0.3649  0.0142  0.1490
 1950ntf    fn414122   3.634   0.775   3.831  0.2638  0.1010 -0.2276
 1950ntf    fn414123   3.427   0.787   3.852  0.2443 -0.1930  0.0142
 1950ntf    on514124   3.699   1.049   3.821 -0.1033  0.1630 -0.2927
 1950ntf    on514125   3.467   1.113   3.781  0.4151  0.1827 -0.6512
 1950ntf    on514126   3.375   0.941   4.191 -0.0885  0.4153  0.2977
 1950ntf    on514127   3.269   0.999   3.988 -0.2125  0.3027  0.1127
 1950ntf    fn414128   3.272   1.206   4.230 -0.3704 -0.8629 -0.0857
 1950ntf    fn414129   3.476   1.243   4.169 -0.2847  0.6409  0.2164
 1950ntf    fn414130   3.313   1.282   4.043 -0.4579 -0.4435 -0.1881
 1951ntf    cn114131   4.283   5.683   4.834  0.0095  0.2419  0.0421
 1951ntf    sn214132   4.407   5.719   4.961  0.0405 -0.3350  0.1827
 1951ntf    nn314133   4.506   5.609   4.909  0.4107  0.3066 -0.4993
 1951ntf    sn214134   4.625   5.532   4.978 -0.1015 -0.1557 -0.1220
 1951ntf    cn114135   4.544   5.373   5.008  0.0920 -0.2016  0.1626
 1951ntf    fn414136   4.320   5.707   4.709  0.0619 -0.0847 -0.0069
 1951ntf    fn414137   4.260   5.552   4.838  0.0876  0.2412  0.5493
 1951ntf    fn414138   4.167   5.740   4.863 -0.2360 -0.3783  0.3148
 1951ntf    on514139   4.463   5.849   4.932 -0.6939  0.0166  0.3186
 1951ntf    on514140   4.343   5.692   5.087  0.3787 -0.0502  0.4193
 1951ntf    on514141   4.673   5.584   5.103 -0.0818 -0.3311 -0.0560
 1951ntf    on514142   4.719   5.499   4.873  0.0058 -0.1534 -0.0262
 1951ntf    fn414143   4.629   5.282   5.052  0.2785  0.0423  0.3018
 1951ntf    fn414144   4.444   5.381   5.095  0.4289 -0.0596  0.5370
 1951ntf    fn414145   4.490   5.331   4.894 -0.1065  0.2391  0.0932
 1952ntf    cn114146   4.841   3.574   3.400  0.1513 -0.2615 -0.2472
 1952ntf    sn214147   4.824   3.753   3.428  0.1148 -0.2644 -0.2503
 1952ntf    nn314148   4.927   3.814   3.326  0.1353  0.3174  0.1181
 1952ntf    sn214149   5.036   3.925   3.346  0.3448  0.1338 -0.0110
 1952ntf    cn114150   5.164   3.796   3.353 -0.0713 -0.2907 -0.1174
 1952ntf    fn414151   4.822   3.525   3.278 -0.1367  0.3996 -0.4699
 1952ntf    fn414152   4.965   3.547   3.437  0.5361  0.1555 -1.2004
 1952ntf    fn414153   4.765   3.498   3.477 -0.2365 -0.1336 -0.5007
 1952ntf    on514154   4.689   3.795   3.396 -0.0194 -0.0553  0.5819
 1952ntf    on514155   4.863   3.772   3.565  0.4117 -0.3663 -0.3210
 1952ntf    on514156   5.054   4.000   3.467 -0.0059  0.2404 -0.0235
 1952ntf    on514157   5.059   3.997   3.223  0.1308 -0.0177 -0.1416
 1952ntf    fn414158   5.279   3.849   3.393 -0.0048 -0.3932 -0.1728
 1952ntf    fn414159   5.132   3.697   3.435 -0.6373 -0.0325 -0.0185
 1952ntf    fn414160   5.183   3.737   3.237  0.1436 -0.3533 -0.0508
 1953ntf    cn114161   4.730   5.867   6.687  0.2208  0.0998  0.1338
 1953ntf    sn214162   4.872   5.846   6.575  0.1329  0.2229  0.0006
 1953ntf    nn314163   4.812   5.821   6.432 -0.4492  0.4219  0.2065
 1953ntf    sn214164   4.852   5.892   6.298 -0.2467 -0.0383  0.0210
 1953ntf    cn114165   4.729   6.027   6.303 -0.1752  0.0383 -0.2603
 1953ntf    fn414166   4.665   5.752   6.698  0.3292 -0.0011 -0.2700
 1953ntf    fn414167   4.767   5.899   6.810 -0.0733  0.1209  0.2163
 1953ntf    fn414168   4.648   5.961   6.643  0.4697  0.2736  0.0373
 1953ntf    on514169   4.941   5.970   6.602  0.6030  0.0208 -0.2764
 1953ntf    on514170   4.938   5.730   6.627  0.3944  0.5173  0.3237
 1953ntf    on514171   4.811   5.822   6.178  1.0546 -0.4482 -0.1936
 1953ntf    on514172   4.979   5.960   6.296 -0.0971 -0.3059  0.4108
 1953ntf    fn414173   4.606   5.991   6.273  0.0728 -0.3729 -0.8135
 1953ntf    fn414174   4.719   6.080   6.424 -0.3737 -0.2070 -0.1669
 1953ntf    fn414175   4.766   6.117   6.214 -0.2699  0.3347  0.0001
 1954ntf    cn114176   5.857   4.840   1.925 -0.3252  0.0841  0.2691
 1954ntf    sn214177   6.019   4.902   1.981 -0.2309 -0.0517  0.1451
 1954ntf    nn314178   5.977   4.949   2.125 -0.5022  0.0839  0.0231
 1954ntf    sn214179   6.039   4.904   2.263 -0.4685  0.2647  0.0671
 1954ntf    cn114180   5.916   4.976   2.376 -0.0540  0.2368  0.5381
 1954ntf    fn414181   5.768   4.933   1.896  0.1441  0.5007  0.1489
 1954ntf    fn414182   5.870   4.748   1.831  0.1250  0.1822  0.2334
 1954ntf    fn414183   5.790   4.780   2.022 -0.0956 -0.0834  0.3250
 1954ntf    on514184   6.101   4.783   1.977  0.0704  0.1572  0.1658
 1954ntf    on514185   6.056   5.007   1.891  0.3506 -0.3184  0.0660
 1954ntf    on514186   6.162   4.964   2.307 -0.5090  0.2197  0.2425
 1954ntf    on514187   6.022   4.763   2.283  0.8351  0.0110 -0.5098
 1954ntf    fn414188   5.792   4.936   2.355 -0.0314  0.5619 -0.2511
 1954ntf    fn414189   5.938   4.940   2.501  0.6768 -0.3477  0.2495
 1954ntf    fn414190   5.914   5.108   2.382 -0.3005  0.2789 -0.3624
 1955ntf    cn114191   1.542   0.080   1.707  0.1087  0.7123  0.2785
 1955ntf    sn214192   1.503   0.059   1.530  0.4793  0.0181  0.2760
 1955ntf    nn314193   1.395  -0.054   1.547  0.1828  0.2551 -0.0229
 1955ntf    sn214194   1.419  -0.207   1.571 -0.2858  0.1755 -0.0634
 1955ntf    cn114195   1.412  -0.273   1.401 -0.3688  0.1299 -0.0423
 1955ntf    fn414196   1.569  -0.037   1.762  0.3393  0.2837 -0.7234
 1955ntf    fn414197   1.642   0.162   1.732  0.3582  0.3799  0.3810
 1955ntf    fn414198   1.435   0.128   1.768 -0.3718  0.1714 -0.1224
 1955ntf    on514199   1.448   0.186   1.491  0.5967  0.0725  0.2858
 1955ntf    on514200   1.622   0.025   1.456  0.3998 -0.3165  0.2988
 1955ntf    on514201   1.304  -0.268   1.633 -0.2405 -0.1326 -0.2798
 1955ntf    on514202   1.547  -0.250   1.620 -0.3858  0.0872  0.1226
 1955ntf    fn414203   1.445  -0.400   1.390  0.1026  0.2267  0.2450
 1955ntf    fn414204   1.287  -0.267   1.358 -0.2546  0.0689 -0.3834
 1955ntf    fn414205   1.492  -0.201   1.324  0.1604 -0.4206 -0.0096
 1956ntf    cn114206   4.041   2.049   1.493  0.4272  0.1739 -0.3341
 1956ntf    sn214207   3.887   1.966   1.445  0.1418  0.3626  0.2380
 1956ntf    nn314208   3.945   1.849   1.357  0.1015  0.2427  0.3706
 1956ntf    sn214209   3.908   1.697   1.372 -0.1558  0.2644 -0.0245
 1956ntf    cn114210   3.981   1.630   1.220  0.1580 -0.0652  0.2708
 1956ntf    fn414211   4.086   2.147   1.416  0.5535  0.1298 -0.3165
 1956ntf    fn414212   4.039   2.094   1.618  0.2693 -0.3167 -0.1564
 1956ntf    fn414213   4.137   1.958   1.493 -0.3096 -0.6053 -0.1945
 1956ntf    on514214   3.820   1.942   1.570 -0.6805  0.3976 -0.1860
 1956ntf    on514215   3.834   2.063   1.353  0.7242  0.1838 -0.2999
 1956ntf    on514216   3.767   1.668   1.364 -0.1305  0.0349  0.3299
 1956ntf    on514217   3.983   1.626   1.473  0.1573 -0.5889 -0.8387
 1956ntf    fn414218   3.954   1.713   1.121 -0.1717 -0.2744  0.1857
 1956ntf    fn414219   4.113   1.627   1.232  0.1414  0.4447  0.5987
 1956ntf    fn414220   3.935   1.510   1.188  0.9200 -0.3003  0.0226
 1957ntf    cn114221   4.290   3.217   1.427 -0.3389 -0.2091  0.1477
 1957ntf    sn214222   4.122   3.271   1.385 -0.2571  0.3246  0.5105
 1957ntf    nn314223   4.153   3.392   1.290  0.7103 -0.3355 -0.0272
 1957ntf    sn214224   4.181   3.388   1.135 -0.0604  0.2776 -0.1922
 1957ntf    cn114225   4.009   3.389   1.075 -0.1621 -0.0413  0.0876
 1957ntf    fn414226   4.370   3.177   1.329 -0.3196 -0.1621  0.1445
 1957ntf    fn414227   4.362   3.309   1.489  0.2059 -0.1977 -0.4979
 1957ntf    fn414228   4.279   3.113   1.509  0.2639 -0.2351  0.2007
 1957ntf    on514229   4.061   3.153   1.330  0.3064 -0.0425  0.6672
 1957ntf    on514230   4.070   3.327   1.508 -0.2896  0.1093  0.5958
 1957ntf    on514231   4.244   3.265   1.094 -0.2135 -0.0645  0.5659
 1957ntf    on514232   4.242   3.510   1.090  1.0246 -0.1341  0.1267
 1957ntf    fn414233   4.002   3.306   0.972  0.1029  0.3474 -0.2468
 1957ntf    fn414234   3.915   3.358   1.162 -0.0996  0.4055  0.3192
 1957ntf    fn414235   3.965   3.505   1.028 -0.0666  0.0293  0.1708
 1958ntf    cn114236   5.241   5.385   4.466 -0.2503  0.0780 -0.1264
 1958ntf    sn214237   5.271   5.259   4.339 -0.2644  0.0589 -0.1116
 1958ntf    nn314238   5.356   5.155   4.422 -0.5083  0.0994  0.1913
 1958ntf    sn214239   5.319   5.023   4.499 -0.1774 -0.1491 -0.0727
 1958ntf    cn114240   5.413   5.062   4.649 -0.1470  0.1618 -0.1707
 1958ntf    fn414241   5.175   5.492   4.423  0.0520  0.1670 -0.3721
 1958ntf    fn414242   5.188   5.327   4.573  0.3636 -0.1730  0.0434
 1958ntf    fn414243   5.356   5.430   4.513 -0.0819 -0.6051  0.1158
 1958ntf    on514244   5.143   5.211   4.294 -0.2588 -0.2651  0.2094
 1958ntf    on514245   5.361   5.331   4.253 -0.1252  0.5635  0.4494
 1958ntf    on514246   5.391   4.906   4.457  0.2720  0.0000  0.2787
 1958ntf    on514247   5.186   5.014   4.555 -0.2990 -0.3557 -0.3871
 1958ntf    fn414248   5.423   4.952   4.723  0.8562  0.1703 -0.2819
 1958ntf    fn414249   5.534   5.105   4.620 -0.0134 -0.2309 -0.2091
 1958ntf    fn414250   5.360   5.156   4.725 -0.1763  0.2599 -0.3140
 1959ntf    cn114251   4.859   2.969   1.354 -0.1762 -0.2392  0.0171
 1959ntf    sn214252   5.014   3.051   1.401  0.0428 -0.4000 -0.4184
 1959ntf    nn314253   5.020   3.043   1.558 -0.2824 -0.0087 -0.3857
 1959ntf    sn214254   5.096   2.941   1.650 -0.3586  0.2309 -0.0522
 1959ntf    cn114255   5.260   3.018   1.665 -0.2300 -0.0329 -0.0978
 1959ntf    fn414256   4.816   2.996   1.232 -0.2576  0.3585  0.1714
 1959ntf    fn414257   4.876   2.839   1.373 -0.1518 -0.1775  0.4236
 1959ntf    fn414258   4.761   3.007   1.435 -0.1666  0.1165 -0.1352
 1959ntf    on514259   5.117   2.983   1.326  0.0473 -0.4495 -0.3672
 1959ntf    on514260   4.976   3.184   1.359  0.1886 -0.3696 -0.4543
 1959ntf    on514261   5.122   2.812   1.592 -0.5262 -0.0978  0.6046
 1959ntf    on514262   5.029   2.944   1.777  0.7908 -0.0623  0.5775
 1959ntf    fn414263   5.255   3.148   1.688  0.4502  0.1274 -0.7881
 1959ntf    fn414264   5.330   2.965   1.764  0.1253  0.0671 -0.2901
 1959ntf    fn414265   5.326   3.001   1.552 -0.0109  0.8661 -0.1157
 1960ntf    cn114266   4.952   0.889   0.482  0.2319 -0.2422 -0.5275
 1960ntf    sn214267   5.070   0.777   0.564  0.1842 -0.0312 -0.1678
 1960ntf    nn314268   4.985   0.645   0.573 -0.4878  0.4170  0.1525
 1960ntf    sn214269   4.922   0.580   0.701  0.1162  0.0408  0.2606
 1960ntf    cn114270   5.064   0.517   0.796 -0.0670 -0.1471  0.4133
 1960ntf    fn414271   5.002   1.011   0.477 -0.0529 -0.1001 -0.0286
 1960ntf    fn414272   4.923   0.852   0.359 -0.0845 -0.0460 -0.5125
 1960ntf    fn414273   4.839   0.888   0.551  0.3338 -0.4611 -0.3629
 1960ntf    on514274   5.179   0.771   0.470  0.2025  0.1056 -0.1550
 1960ntf    on514275   5.093   0.833   0.695 -0.0286 -0.4028  0.0325
 1960ntf    on514276   4.846   0.460   0.673 -0.1539  0.3349 -0.2687
 1960ntf    on514277   4.864   0.671   0.796  0.4558  0.9296 -0.3651
 1960ntf    fn414278   5.160   0.452   0.732 -0.6436 -0.6191  0.0226
 1960ntf    fn414279   5.127   0.608   0.869  0.1957  0.5151 -0.6133
 1960ntf    fn414280   5.019   0.427   0.882 -0.1957 -0.5120 -0.0323
 1961ntf    cn114281   0.338   5.192   2.145 -0.0981 -0.2236  0.1158
 1961ntf    sn214282   0.514   5.151   2.165 -0.0169  0.1060  0.0819
 1961ntf    nn314283   0.517   5.025   2.071 -0.5544 -0.2980  0.6003
 1961ntf    sn214284   0.526   4.872   2.101 -0.0720 -0.3841  0.0415
 1961ntf    cn114285   0.701   4.848   2.058  0.1026 -0.1385  0.6033
 1961ntf    fn414286   0.314   5.240   2.024 -0.5580 -0.0261  0.2860
 1961ntf    fn414287   0.257   5.088   2.155 -0.5352 -0.0110 -1.0721
 1961ntf    fn414288   0.295   5.285   2.229 -0.3839  0.3030 -0.6068
 1961ntf    on514289   0.580   5.264   2.104 -0.5180  0.3814  0.0422
 1961ntf    on514290   0.537   5.129   2.305 -0.3161  0.3885  0.1766
 1961ntf    on514291   0.465   4.790   1.999 -0.1815 -0.3366  0.0684
 1961ntf    on514292   0.517   4.828   2.238 -0.1492 -0.5573 -0.0183
 1961ntf    fn414293   0.773   4.940   2.120  0.6334 -0.0620 -0.1133
 1961ntf    fn414294   0.745   4.729   2.094 -0.0915 -0.4170 -0.0484
 1961ntf    fn414295   0.729   4.868   1.930 -0.2398 -0.3785  0.4899
 1962ntf    cn114296   5.009   6.576   2.973  0.5294  0.0506 -0.2243
 1962ntf    sn214297   5.071   6.506   2.817  0.0128 -0.1301 -0.3484
 1962ntf    nn314298   4.947   6.514   2.720 -0.2076 -0.2426 -0.0767
 1962ntf    sn214299   4.852   6.401   2.668  0.1563 -0.4979 -0.1829
 1962ntf    cn114300   4.854   6.452   2.493 -0.2840 -0.1193 -0.0795
 1962ntf    fn414301   4.948   6.692   2.958 -0.4916 -0.4564 -0.0781
 1962ntf    fn414302   4.920   6.506   3.041 -0.0236  0.7906 -0.1758
 1962ntf    fn414303   5.103   6.607   3.061 -0.0036 -0.6159  0.5942
 1962ntf    on514304   5.176   6.597   2.780 -0.2590  0.4346  0.2399
 1962ntf    on514305   5.117   6.376   2.856 -0.3441 -0.1799 -0.0879
 1962ntf    on514306   4.715   6.420   2.708  0.2286  0.2580 -0.2793
 1962ntf    on514307   4.915   6.271   2.664  0.1297 -0.5235  0.2253
 1962ntf    fn414308   4.971   6.420   2.439 -0.1709 -0.1549  0.1844
 1962ntf    fn414309   4.763   6.390   2.419 -0.4378 -0.1892  0.1669
 1962ntf    fn414310   4.833   6.581   2.477  0.0397 -0.0017  0.4200
 1963ntf    cn114311   2.129   3.766   1.142 -0.0260  0.1282 -0.2446
 1963ntf    sn214312   2.172   3.864   1.289 -0.0150  0.1406 -0.2561
 1963ntf    nn314313   2.323   3.827   1.309  0.0067  0.1055 -0.4882
 1963ntf    sn214314   2.392   3.701   1.374 -0.0518  0.3888  0.1268
 1963ntf    cn114315   2.435   3.756   1.542 -0.1353 -0.2969  0.3741
 1963ntf    fn414316   2.194   3.803   1.033 -0.2119 -0.0681 -0.4215
 1963ntf    fn414317   2.139   3.636   1.164  0.5718  0.1971 -0.1158
 1963ntf    fn414318   2.000   3.779   1.115 -0.0432 -0.2845 -0.3616
 1963ntf    on514319   2.166   3.998   1.236  0.4089  0.3221  0.1468
 1963ntf    on514320   2.079   3.821   1.391 -0.2231  0.3380 -0.3610
 1963ntf    on514321   2.526   3.681   1.324 -0.0822  0.0621  0.1752
 1963ntf    on514322   2.304   3.588   1.391  0.2420  0.1132 -0.1566
 1963ntf    fn414323   2.467   3.655   1.622 -0.6458 -0.8157 -0.0653
 1963ntf    fn414324   2.543   3.832   1.548 -0.3377  0.0054  0.1747
 1963ntf    fn414325   2.338   3.821   1.603  0.0750  0.0784  0.3075
 1964ntf    cn114326   1.246   1.784   4.411  0.0639 -0.0256 -0.0939
 1964ntf    sn214327   1.387   1.866   4.330 -0.0174  0.2843  0.0729
 1964ntf    nn314328   1.304   1.960   4.237 -0.3504 -0.2139 -0.1379
 1964ntf    sn214329   1.264   2.110   4.263  0.2403 -0.0546 -0.1430
 1964ntf    cn114330   1.403   2.210   4.201  0.3211 -0.1034 -0.0394
 1964ntf    fn414331   1.185   1.852   4.508 -0.4164  0.0136 -0.4204
 1964ntf    fn414332   1.147   1.767   4.325 -0.6721  1.0474  0.5011
 1964ntf    fn414333   1.277   1.666   4.462  0.5156 -0.0807 -0.4943
 1964ntf    on514334   1.458   1.935   4.435  0.1786  0.2325 -0.0262
 1964ntf    on514335   1.456   1.756   4.268  0.0737  0.2066  0.3082
 1964ntf    on514336   1.264   2.149   4.401  0.2738  0.1651 -0.2054
 1964ntf    on514337   1.152   2.150   4.181  0.0478 -0.3391 -0.0178
 1964ntf    fn414338   1.423   2.195   4.071  0.8413  0.4595 -0.0288
 1964ntf    fn414339   1.393   2.338   4.230 -0.3359 -0.1820  0.0968
 1964ntf    fn414340   1.509   2.164   4.266  0.3334 -0.0578 -0.0273
 1965ntf    cn114341   4.558   6.660   3.881  0.0028  0.0468 -0.2918
 1965ntf    sn214342   4.485   6.738   4.029 -0.1532 -0.0600 -0.3115
 1965ntf    nn314343   4.571   6.677   4.145 -0.2445  0.4140  0.0076
 1965ntf    sn214344   4.708   6.728   4.204 -0.0280 -0.4087  0.2341
 1965ntf    cn114345   4.837   6.677   4.088 -0.1051  0.3845 -0.2086
 1965ntf    fn414346   4.677   6.709   3.853  0.0575  0.1449  0.1133
 1965ntf    fn414347   4.581   6.531   3.895 -0.6496 -0.0542 -0.0865
 1965ntf    fn414348   4.480   6.674   3.774 -0.3277 -0.0388 -0.0647
 1965ntf    on514349   4.494   6.878   3.997  0.1669  0.0513  0.2558
 1965ntf    on514350   4.354   6.679   4.037 -0.0148 -0.2836  0.3781
 1965ntf    on514351   4.738   6.662   4.329 -0.2145  0.4683  0.7470
 1965ntf    on514352   4.723   6.871   4.214  0.1161 -0.4667  0.9035
 1965ntf    fn414353   4.955   6.672   4.147  0.0168 -0.0516 -0.4785
 1965ntf    fn414354   4.817   6.552   4.047 -0.4226  0.2588  0.3291
 1965ntf    fn414355   4.845   6.755   3.981  0.2661  0.1801 -0.3346
 1966ntf    cn114356   1.979   6.151   1.998 -0.3023 -0.3182 -0.1639
 1966ntf    sn214357   1.835   6.233   2.072 -0.3703 -0.1783 -0.4519
 1966ntf    nn314358   1.725   6.131   2.026 -0.5231 -0.3112  0.1942
 1966ntf    sn214359   1.640   6.141   1.894 -0.2258  0.1317  0.0340
 1966ntf    cn114360   1.591   5.967   1.879  0.2019  0.0443 -0.3701
 1966ntf    fn414361   1.983   6.026   2.042 -0.4605 -0.3250 -0.1663
 1966ntf    fn414362   1.967   6.147   1.867 -1.2643 -0.0849 -0.0938
 1966ntf    fn414363   2.093   6.209   2.032 -0.2893 -0.2803 -0.2749
 1966ntf    on514364   1.846   6.221   2.215 -0.8100  0.7210 -0.3342
 1966ntf    on514365   1.835   6.365   2.014 -0.8695  0.1981  0.3854
 1966ntf    on514366   1.713   6.171   1.774 -0.5542  0.0482 -0.1864
 1966ntf    on514367   1.512   6.205   1.909 -0.2164  0.1798 -0.0952
 1966ntf    fn414368   1.691   5.884   1.903 -0.0163 -0.0403  0.2772
 1966ntf    fn414369   1.495   5.941   1.967 -0.0605  0.3876 -0.5531
 1966ntf    fn414370   1.555   5.928   1.758 -0.5180  0.0659 -0.1718
 1967ntf    cn114371   0.522   6.320   3.308  0.1652  0.3285 -0.0294
 1967ntf    sn214372   0.431   6.165   3.286 -0.0570  0.4596 -0.0310
 1967ntf    nn314373   0.294   6.231   3.246  0.0937  0.4824 -0.5239
 1967ntf    sn214374   0.173   6.229   3.347  0.4009  0.2706 -0.1546
 1967ntf    cn114375   0.133   6.053   3.333  0.0572  0.3090  0.3372
 1967ntf    fn414376   0.444   6.421   3.342 -0.4185 -0.0457 -0.2465
 1967ntf    fn414377   0.617   6.311   3.400 -0.0994 -0.1282  0.1985
 1967ntf    fn414378   0.587   6.356   3.198 -0.0015  0.2106 -0.1672
 1967ntf    on514379   0.508   6.110   3.177  0.0794  0.1138  0.2404
 1967ntf    on514380   0.443   6.103   3.415  0.0685  0.1479 -0.1909
 1967ntf    on514381   0.064   6.292   3.275  0.0404 -0.2857 -0.1021
 1967ntf    on514382   0.197   6.271   3.483  0.0378 -0.3182  0.0937
 1967ntf    fn414383   0.127   6.006   3.210 -0.2860  0.1035  0.4288
 1967ntf    fn414384   0.228   5.977   3.387 -0.3088 -0.2739  0.1769
 1967ntf    fn414385   0.018   6.021   3.391 -0.1318 -0.4672 -0.4502
 1968ntf    cn114386   2.918   6.564   3.509  0.1749 -0.2489 -0.3091
 1968ntf    sn214387   3.030   6.674   3.417 -0.1643 -0.0668 -0.5087
 1968ntf    nn314388   2.965   6.813   3.449 -0.4573 -0.3292  0.0612
 1968ntf    sn214389   2.895   6.915   3.352 -0.0332 -0.0729  0.0214
 1968ntf    cn114390   2.719   6.910   3.395 -0.0878  0.2138 -0.1688
 1968ntf    fn414391   2.822   6.543   3.420 -0.2140 -0.3354  0.1271
 1968ntf    fn414392   2.973   6.448   3.541  0.5055  0.1008  0.4261
 1968ntf    fn414393   2.858   6.611   3.617  0.2010 -0.2336 -0.3017
 1968ntf    on514394   3.155   6.655   3.487 -0.2061  0.1064 -0.3866
 1968ntf    on514395   3.022   6.635   3.279 -0.1503  0.3022 -0.6123
 1968ntf    on514396   2.902   6.884   3.211  0.3141  0.2052 -0.0232
 1968ntf    on514397   2.926   7.052   3.380 -0.2404 -0.1508  0.6380
 1968ntf    fn414398   2.685   6.977   3.505 -0.3032 -0.1736  0.0023
 1968ntf    fn414399   2.653   6.966   3.295 -0.3230  0.3628  0.0673
 1968ntf    fn414400   2.678   6.786   3.413 -0.2457  0.3273  0.2775
 1969ntf    cn114401   2.795   1.921   6.258 -0.2060  0.2571 -0.3625
 1969ntf    sn214402   2.947   1.834   6.306 -0.1920  0.2399 -0.4375
 1969ntf    nn314403   2.905   1.808   6.455 -0.1413  0.4029 -0.3946
 1969ntf    sn214404   2.940   1.876   6.592  0.1515 -0.2102 -0.1563
 1969ntf    cn114405   3.027   1.739   6.674  0.4034 -0.0450 -0.1434
 1969ntf    fn414406   2.694   1.836   6.250 -0.1535  0.1978 -0.4034
 1969ntf    fn414407   2.755   2.018   6.339 -0.2371  0.0665 -0.1480
 1969ntf    fn414408   2.823   1.970   6.138 -0.2167 -0.1198 -0.5207
 1969ntf    on514409   2.945   1.709   6.233 -0.0573  0.0154 -0.0629
 1969ntf    on514410   3.051   1.930   6.279 -0.3206  0.4561 -0.1766
 1969ntf    on514411   2.822   1.889   6.674  0.2395  0.2414 -0.0981
 1969ntf    on514412   3.038   1.981   6.577  0.0607 -0.0231  0.5240
 1969ntf    fn414413   3.048   1.763   6.802 -0.4635 -0.2816  0.0502
 1969ntf    fn414414   2.950   1.631   6.672  0.2787  0.0388  0.0246
 1969ntf    fn414415   3.142   1.691   6.629  0.3938  0.4071 -0.6570
 1970ntf    cn114416   1.145   4.912   5.549 -0.2359  0.3588 -0.2885
 1970ntf    sn214417   1.014   4.801   5.490 -0.0424 -0.0439  0.0340
 1970ntf    nn314418   1.052   4.791   5.338  0.0429 -0.2751  0.0692
 1970ntf    sn214419   1.128   4.680   5.258  0.4065 -0.0577  0.1100
 1970ntf    cn114420   0.985   4.591   5.188  0.3654  0.2205 -0.1608
 1970ntf    fn414421   1.264   4.853   5.549 -0.1325  0.5667 -0.4742
 1970ntf    fn414422   1.148   5.021   5.475 -0.2534  0.4362 -0.1748
 1970ntf    fn414423   1.124   4.944   5.676 -0.0886 -0.3943 -0.0634
 1970ntf    on514424   1.032   4.674   5.556 -0.5415 -0.2411 -0.2079
 1970ntf    on514425   0.890   4.873   5.506 -0.0055 -0.0074  0.1556
 1970ntf    on514426   1.199   4.577   5.330  0.2529 -0.1442  0.1387
 1970ntf    on514427   1.187   4.743   5.143 -0.5087  0.1633 -0.2441
 1970ntf    fn414428   0.912   4.675   5.117 -0.1128 -0.0743 -0.0192
 1970ntf    fn414429   1.025   4.503   5.099 -0.2597 -0.3280  0.0931
 1970ntf    fn414430   0.908   4.522   5.270  0.4600 -0.1511 -0.3851
 1971ntf    cn114431   4.826   5.860   4.267 -0.1814  0.2443 -0.4617
 1971ntf    sn214432   4.881   5.695   4.215 -0.0235  0.0499  0.3189
 1971ntf    nn314433   4.973   5.739   4.096 -0.2628 -0.1382  0.0624
 1971ntf    sn214434   4.936   5.811   3.961  0.3000  0.2878  0.1262
 1971ntf    cn114435   5.023   5.690   3.858  0.0154  0.1277  0.0719
 1971ntf    fn414436   4.773   5.924   4.164 -0.5600  0.4932 -0.1144
 1971ntf    fn414437   4.738   5.867   4.364 -0.3082 -0.3416 -0.5308
 1971ntf    fn414438   4.932   5.925   4.311  0.0034 -0.4650  0.1505
 1971ntf    on514439   4.964   5.643   4.321 -0.1242 -0.2438  0.2538
 1971ntf    on514440   4.758   5.626   4.185  0.4175 -0.7084  0.2304
 1971ntf    on514441   4.997   5.940   3.943 -0.4827  0.5747 -0.5218
 1971ntf    on514442   4.800   5.789   3.916  0.2171  0.3170  0.3596
 1971ntf    fn414443   4.986   5.565   3.880  0.0412  0.0980 -0.0508
 1971ntf    fn414444   5.009   5.715   3.728 -0.4993  0.2544  0.1491
 1971ntf    fn414445   5.153   5.688   3.882  0.0355 -0.5777 -0.0559
 1972ntf    cn114446   5.191   1.971   6.099 -0.2275  0.0445 -0.2354
 1972ntf    sn214447   5.015   2.015   6.111 -0.2029  0.1097 -0.1047
 1972ntf    nn314448   4.975   1.949   5.974 -0.4073 -0.0281  0.0216
 1972ntf    sn214449   4.841   1.952   5.892 -0.3136  0.0584 -0.1296
 1972ntf    cn114450   4.891   2.084   5.777 -0.0116  0.0706  0.0141
 1972ntf    fn414451   5.265   2.025   6.194 -0.7120  0.0344  0.1534
 1972ntf    fn414452   5.219   1.842   6.114  0.0091  0.1263  0.0334
 1972ntf    fn414453   5.240   2.004   5.981  0.2456 -0.2742 -0.1332
 1972ntf    on514454   4.971   1.941   6.226 -0.1159  0.2788  0.0387
 1972ntf    on514455   5.015   2.159   6.113  0.2636  0.1070  0.2083
 1972ntf    on514456   4.729   2.005   5.966 -0.0774  0.1572  0.1563
 1972ntf    on514457   4.817   1.837   5.807 -0.2011  0.1207 -0.2450
 1972ntf    fn414458   4.928   2.192   5.844  0.3271  0.1576 -0.3097
 1972ntf    fn414459   4.994   2.042   5.705  0.0612 -0.4025  0.3864
 1972ntf    fn414460   4.800   2.124   5.690 -0.2444  0.2816  0.3522
 1973ntf    cn114461   1.169   0.330   3.059 -0.2395 -0.2403 -0.0550
 1973ntf    sn214462   1.152   0.268   3.229  0.2269  0.1114  0.1224
 1973ntf    nn314463   1.050   0.373   3.285 -0.1321 -0.2506  0.1563
 1973ntf    sn214464   1.032   0.422   3.433 -0.0024  0.0747  0.0663
 1973ntf    cn114465   0.896   0.318   3.494 -0.0734  0.1702  0.0709
 1973ntf    fn414466   1.155   0.461   3.055 -0.4829 -0.2451  0.4877
 1973ntf    fn414467   1.290   0.301   3.016  0.0531 -0.1298  0.6685
 1973ntf    fn414468   1.085   0.279   2.971 -0.4023 -0.1875  0.0682
 1973ntf    on514469   1.079   0.144   3.210  0.2202  0.0673  0.4173
 1973ntf    on514470   1.281   0.272   3.292  0.0010  1.0818  0.5401
 1973ntf    on514471   0.990   0.559   3.444 -0.2467  0.0750 -0.8688
 1973ntf    on514472   1.142   0.393   3.522  0.1221  0.1254 -0.0710
 1973ntf    fn414473   0.910   0.195   3.446  0.1194  0.1968  0.0584
 1973ntf    fn414474   0.884   0.311   3.626  0.5246 -0.5943  0.0905
 1973ntf    fn414475   0.781   0.364   3.448 -0.1485 -0.0101  0.0766
 1974ntf    cn114476   1.021   2.074   0.410 -0.0726 -0.0553  0.0233
 1974ntf    sn214477   1.188   2.132   0.452 -0.2527  0.1537  0.4584
 1974ntf    nn314478   1.250   2.000   0.511 -0.5658 -0.0990  0.2290
 1974ntf    sn214479   1.347   1.974   0.632 -0.0576  0.3826 -0.0705
 1974ntf    cn114480   1.492   1.907   0.544 -0.1420 -0.0773  0.1401
 1974ntf    fn414481   0.956   2.034   0.518 -0.2103  0.1683  0.0228
 1974ntf    fn414482   0.942   2.170   0.366  0.3041  0.4105  0.3441
 1974ntf    fn414483   1.026   1.977   0.320 -0.3448 -0.2252  0.1912
 1974ntf    on514484   1.244   2.163   0.323  0.0392 -0.4273  0.4390
 1974ntf    on514485   1.163   2.235   0.549  0.3110  0.2730  0.4847
 1974ntf    on514486   1.309   1.864   0.716  0.1972 -0.2262 -0.7403
 1974ntf    on514487   1.400   2.088   0.703  0.1426 -0.0878  0.5440
 1974ntf    fn414488   1.595   1.877   0.622  0.5895  0.2767 -0.6772
 1974ntf    fn414489   1.466   1.796   0.476 -0.3908 -0.2790  0.5570
 1974ntf    fn414490   1.543   1.992   0.457 -0.3881 -0.0397  0.0298
 1975ntf    cn114491   1.715   1.523   2.916 -0.1068 -0.4547 -0.0351
 1975ntf    sn214492   1.824   1.452   2.789  0.3394  0.0758  0.0475
 1975ntf    nn314493   1.902   1.342   2.870  0.0229  0.2905  0.6506
 1975ntf    sn214494   1.845   1.198   2.898 -0.4433  0.2614 -0.3871
 1975ntf    cn114495   1.920   1.100   2.765  0.0603  0.0623  0.0413
 1975ntf    fn414496   1.627   1.435   2.961 -0.0234 -0.5118  0.0166
 1975ntf    fn414497   1.782   1.580   3.015  0.1625 -0.0932 -0.4221
 1975ntf    fn414498   1.648   1.627   2.868 -0.6556 -0.8683 -0.1730
 1975ntf    on514499   1.739   1.399   2.686 -0.2410  0.3477  0.3785
 1975ntf    on514500   1.918   1.558   2.763  0.1304  0.0876 -0.6597
 1975ntf    on514501   1.705   1.170   2.880 -0.4205 -0.1804  0.1041
 1975ntf    on514502   1.914   1.160   3.019  0.4328  0.2896 -0.8703
 1975ntf    fn414503   1.878   1.148   2.650  0.0286 -0.3417 -0.1156
 1975ntf    fn414504   2.053   1.100   2.767  0.0693 -1.1972  0.4750
 1975ntf    fn414505   1.876   0.976   2.760  0.2001  0.0217 -0.2088
 1976ntf    cn114506   2.303   3.783   4.714  0.3641 -0.1902 -0.2151
 1976ntf    sn214507   2.221   3.626   4.756  0.1887 -0.0957 -0.2015
 1976ntf    nn314508   2.257   3.540   4.630 -0.1943 -0.5879  0.0238
 1976ntf    sn214509   2.378   3.444   4.599  0.0901 -0.1835 -0.1362
 1976ntf    cn114510   2.292   3.283   4.603 -0.3676  0.0553 -0.2695
 1976ntf    fn414511   2.311   3.873   4.811 -0.5889 -0.5004  0.1547
 1976ntf    fn414512   2.426   3.759   4.670  0.3518  0.5293 -0.6610
 1976ntf    fn414513   2.241   3.844   4.614  0.1140  0.7159  0.4773
 1976ntf    on514514   2.282   3.585   4.880  0.8940  0.3141 -0.4053
 1976ntf    on514515   2.083   3.666   4.758  0.2671  0.2012 -0.4605
 1976ntf    on514516   2.475   3.432   4.705 -0.4703 -0.0248  0.4051
 1976ntf    on514517   2.431   3.452   4.465  0.0019  0.2384 -0.1468
 1976ntf    fn414518   2.369   3.177   4.615 -0.4527 -0.0246 -0.4352
 1976ntf    fn414519   2.220   3.272   4.714  0.0988 -0.1942  0.0125
 1976ntf    fn414520   2.203   3.275   4.506  0.0220 -0.0503 -0.6225
 1977ntf    cn114521   6.134   5.168   1.142  0.1770  0.2060  0.2167
 1977ntf    sn214522   6.311   5.188   1.177  0.2603  0.0944 -0.1326
 1977ntf    nn314523   6.309   5.338   1.225  0.4028  0.0435  0.0353
 1977ntf    sn214524   6.318   5.466   1.135 -0.0152  0.1549  0.1514
 1977ntf    cn114525   6.489   5.457   1.074 -0.1561  0.1565 -0.2497
 1977ntf    fn414526   6.110   5.203   1.017  0.4086 -0.4447 -0.0137
 1977ntf    fn414527   6.072   5.053   1.163  0.2685  0.1328  0.0890
 1977ntf    fn414528   6.066   5.258   1.211 -0.3621 -0.0331  0.0007
 1977ntf    on514529   6.347   5.105   1.290 -0.5328  0.4893  0.4229
 1977ntf    on514530   6.385   5.164   1.056 -0.0766 -0.0868 -0.3024
 1977ntf    on514531   6.317   5.588   1.212  0.0530  0.1109  0.2211
 1977ntf    on514532   6.235   5.461   1.017 -0.0490  0.4201  0.1632
 1977ntf    fn414533   6.506   5.367   0.979  0.3557 -0.7001  0.6349
 1977ntf    fn414534   6.522   5.574   1.022  0.3114  0.2455  0.2395
 1977ntf    fn414535   6.575   5.426   1.170  0.4080 -0.0345 -0.8066
 1978ntf    cn114536   0.569   5.337   0.792  0.3310 -0.1244  0.0902
 1978ntf    sn214537   0.514   5.232   0.930 -0.3140 -0.1323 -0.1687
 1978ntf    nn314538   0.551   5.311   1.060 -0.3539 -0.0702 -0.1957
 1978ntf    sn214539   0.690   5.310   1.134 -0.4560 -0.1509 -0.0025
 1978ntf    cn114540   0.685   5.151   1.221  0.2358 -0.1626  0.0200
 1978ntf    fn414541   0.474   5.416   0.746  0.1765 -0.3773 -0.0298
 1978ntf    fn414542   0.667   5.415   0.834  0.3996 -0.5181  0.6809
 1978ntf    fn414543   0.612   5.270   0.687  0.1196  0.0428 -0.1033
 1978ntf    on514544   0.372   5.240   0.909 -0.2921  0.3283 -0.1398
 1978ntf    on514545   0.575   5.103   0.906 -0.2451 -0.1224 -0.0500
 1978ntf    on514546   0.702   5.410   1.237  0.1489 -0.1557 -0.0637
 1978ntf    on514547   0.799   5.296   1.041 -0.1105  0.3696  0.3231
 1978ntf    fn414548   0.701   5.047   1.141 -0.3785 -0.3667  0.1584
 1978ntf    fn414549   0.781   5.139   1.312 -0.0902  0.0922  0.4021
 1978ntf    fn414550   0.570   5.126   1.283 -0.0525  0.2591 -0.3411
 1979ntf    cn114551   1.715   5.013   4.805  0.0543 -0.1158  0.0846
 1979ntf    sn214552   1.753   5.173   4.882 -0.3209 -0.0774  0.1960
 1979ntf    nn314553   1.616   5.250   4.876 -0.1165  0.2715 -0.0847
 1979ntf    sn214554   1.562   5.356   4.774 -0.1384  0.2835 -0.0608
 1979ntf    cn114555   1.641   5.505   4.842  0.4109  0.0583 -0.1983
 1979ntf    fn414556   1.810   4.922   4.815  0.0515 -0.1760 -0.3958
 1979ntf    fn414557   1.612   4.956   4.866  0.2418 -0.4519  0.0907
 1979ntf    fn414558   1.684   5.030   4.678 -0.2142  0.3879  0.2139
 1979ntf    on514559   1.793   5.137   5.016  0.4969 -0.6521 -0.1905
 1979ntf    on514560   1.858   5.233   4.803 -0.8703  0.6764  0.0260
 1979ntf    on514561   1.422   5.388   4.787 -0.2040 -0.2060  0.4839
 1979ntf    on514562   1.621   5.345   4.643  0.0171  0.3788  0.0015
 1979ntf    fn414563   1.772   5.505   4.824  0.4505 -0.5972  0.0680
 1979ntf    fn414564   1.591   5.614   4.785  0.1182 -0.1708 -0.3830
 1979ntf    fn414565   1.619   5.515   4.972  0.3096 -0.1178 -0.2018
 1980ntf    cn114566   3.897   5.838   0.589 -0.0574 -0.1297 -0.2672
 1980ntf    sn214567   3.899   5.672   0.662  0.0513  0.0263  0.0830
 1980ntf    nn314568   4.045   5.682   0.720  0.2681 -0.4741 -0.3648
 1980ntf    sn214569   4.183   5.619   0.680  0.4929 -0.1732 -0.0667
 1980ntf    cn114570   4.296   5.761   0.672  0.0256  0.2061  0.0270
 1980ntf    fn414571   3.781   5.870   0.533 -0.0660  0.0346 -0.1563
 1980ntf    fn414572   3.922   5.934   0.676 -0.0194 -0.0180 -0.4022
 1980ntf    fn414573   3.991   5.850   0.497  0.1008 -0.1549 -0.1078
 1980ntf    on514574   3.796   5.664   0.763  0.1028 -1.1836  0.0570
 1980ntf    on514575   3.892   5.574   0.556  1.0872  0.1633 -0.1262
 1980ntf    on514576   4.190   5.559   0.549  0.9503 -0.4110  0.0647
 1980ntf    on514577   4.242   5.545   0.789  1.1537  0.5059  0.0468
 1980ntf    fn414578   4.313   5.808   0.795 -0.0473  0.5670 -0.0993
 1980ntf    fn414579   4.417   5.730   0.628 -0.1235 -0.4766  0.0964
 1980ntf    fn414580   4.249   5.857   0.594 -0.1318  0.5273  0.5065
 1981ntf    cn114581   3.404   0.765   1.467 -0.0320  0.3160 -0.1147
 1981ntf    sn214582   3.494   0.894   1.376  0.4449  0.1028  0.0515
 1981ntf    nn314583   3.468   1.008   1.480  0.4481  0.3088 -0.1718
 1981ntf    sn214584   3.376   1.136   1.481  0.0313  0.0098 -0.0456
 1981ntf    cn114585   3.493   1.273   1.459 -0.3252  0.3289  0.0271
 1981ntf    fn414586   3.463   0.647   1.459  0.6827  0.6672 -0.1974
 1981ntf    fn414587   3.390   0.790   1.596 -0.0990 -0.1211 -0.0390
 1981ntf    fn414588   3.285   0.746   1.414 -0.2341  0.4033  0.3054
 1981ntf    on514589   3.632   0.850   1.377  0.3364 -0.2354  0.1347
 1981ntf    on514590   3.433   0.909   1.246 -0.4541 -0.3361  0.4170
 1981ntf    on514591   3.325   1.159   1.614  0.4361  0.5881  0.0121
 1981ntf    on514592   3.281   1.139   1.373 -0.1852 -0.3576  0.1297
 1981ntf    fn414593   3.601   1.254   1.533  0.0135  0.0948 -0.5118
 1981ntf    fn414594   3.537   1.280   1.334 -0.0760  0.4712  0.1219
 1981ntf    fn414595   3.446   1.394   1.483  0.2413  0.6210 -0.2900
 1982ntf    cn114596   0.322   4.025   6.447  0.3503  0.2221  0.1253
 1982ntf    sn214597   0.307   4.015   6.628 -0.1256 -0.0273  0.0754
 1982ntf    nn314598   0.303   4.168   6.665 -0.3737 -0.2118  0.8267
 1982ntf    sn214599   0.421   4.267   6.692 -0.3168 -0.1205  0.2525
 1982ntf    cn114600   0.379   4.405   6.581 -0.0215 -0.1514  0.1035
 1982ntf    fn414601   0.432   4.088   6.411 -0.2046  0.6524 -0.8373
 1982ntf    fn414602   0.311   3.912   6.378 -0.1524  0.0216  0.5237
 1982ntf    fn414603   0.226   4.103   6.402  0.0300 -0.3372 -0.1753
 1982ntf    on514604   0.181   3.947   6.642  0.0314 -0.2264  0.5422
 1982ntf    on514605   0.427   3.952   6.677  0.3369  0.5126 -0.3537
 1982ntf    on514606   0.547   4.234   6.632 -0.3952  0.4277 -0.2305
 1982ntf    on514607   0.418   4.319   6.827  0.1384 -0.1666  0.2822
 1982ntf    fn414608   0.471   4.500   6.576 -0.3553  0.1598 -0.1644
 1982ntf    fn414609   0.362   4.362   6.457 -0.3185 -0.0125  0.0951
 1982ntf    fn414610   0.271   4.464   6.630  0.1405  0.0413  0.2306
 1983ntf    cn114611   4.852   4.340   1.194 -0.2906 -0.0457 -0.1790
 1983ntf    sn214612   4.994   4.288   1.092 -0.0710 -0.6087  0.4101
 1983ntf    nn314613   4.919   4.267   0.955 -0.1165  0.3163  0.2905
 1983ntf    sn214614   4.926   4.364   0.832  0.2715  0.3075  0.3040
 1983ntf    cn114615   5.096   4.337   0.774  0.1807 -0.0163  0.1886
 1983ntf    fn414616   4.878   4.335   1.323 -0.2039 -0.1268 -0.1989
 1983ntf    fn414617   4.813   4.464   1.170  0.0634 -0.0028 -0.5430
 1983ntf    fn414618   4.743   4.269   1.169 -0.4030 -0.1248  0.5333
 1983ntf    on514619   5.083   4.400   1.107 -0.2267 -0.4184 -0.0594
 1983ntf    on514620   5.038   4.165   1.154 -0.0676 -0.6172  0.3904
 1983ntf    on514621   4.903   4.504   0.859 -1.2957  0.1838 -0.3027
 1983ntf    on514622   4.848   4.306   0.725 -0.2009 -0.1262  0.8815
 1983ntf    fn414623   5.148   4.441   0.710  0.1748  0.0394  0.2757
 1983ntf    fn414624   5.179   4.304   0.872  0.3020 -0.5479 -0.0836
 1983ntf    fn414625   5.103   4.234   0.690 -0.0911  0.5844 -0.5785
 1984ntf    cn114626   3.687   2.642   3.738 -0.5904 -0.1075  0.1387
 1984ntf    sn214627   3.569   2.506   3.712 -0.3450 -0.2851 -0.0443
 1984ntf    nn314628   3.618   2.404   3.820  0.0896  0.2019  0.2202
 1984ntf    sn214629   3.587   2.393   3.974  0.0829 -0.3688  0.1801
 1984ntf    cn114630   3.435   2.293   3.981 -0.1156 -0.1454 -0.7893
 1984ntf    fn414631   3.688   2.731   3.641  0.2365 -0.2959 -0.0354
 1984ntf    fn414632   3.664   2.698   3.856 -0.5865 -0.0937  0.1328
 1984ntf    fn414633   3.811   2.598   3.750 -0.3425  0.4438 -0.3560
 1984ntf    on514634   3.440   2.566   3.736 -0.3473  0.2492 -1.2977
 1984ntf    on514635   3.599   2.467   3.576  0.2728  1.1318 -0.3378
 1984ntf    on514636   3.544   2.516   4.037  0.0323 -0.3423  0.0950
 1984ntf    on514637   3.686   2.316   4.045  0.0890  0.0032  0.5775
 1984ntf    fn414638   3.446   2.182   3.909  0.1305 -0.1150 -0.7985
 1984ntf    fn414639   3.395   2.262   4.103  0.0452  0.3917 -0.5994
 1984ntf    fn414640   3.334   2.356   3.923 -0.1574  0.5668  0.0417
 1985ntf    cn114641   5.348   2.504   3.777  0.3248  0.3058  0.0197
 1985ntf    sn214642   5.252   2.565   3.635 -0.1039  0.0109  0.1812
 1985ntf    nn314643   5.147   2.656   3.708 -0.6955 -0.4880 -0.0373
 1985ntf    sn214644   5.092   2.796   3.663  0.0301 -0.0649  0.3754
 1985ntf    cn114645   4.915   2.758   3.671  0.0243 -0.1321 -0.0354
 1985ntf    fn414646   5.440   2.412   3.751  0.0704 -0.0019  0.1933
 1985ntf    fn414647   5.405   2.602   3.844 -0.0677  0.5209  0.0422
 1985ntf    fn414648   5.268   2.441   3.862 -0.1199  0.0274 -0.5959
 1985ntf    on514649   5.351   2.630   3.553 -0.3899 -0.0454 -0.2171
 1985ntf    on514650   5.194   2.444   3.582  0.1979 -0.1993  0.3297
 1985ntf    on514651   5.114   2.828   3.524 -0.2149  0.6480  0.4984
 1985ntf    on514652   5.118   2.897   3.762 -0.4584  0.0331  0.4031
 1985ntf    fn414653   4.877   2.732   3.795  0.4586 -0.3158  0.0574
 1985ntf    fn414654   4.842   2.858   3.622  0.1846  0.1612  0.3222
 1985ntf    fn414655   4.884   2.648   3.605  0.0622 -0.4426  0.4673
 1986ntf    cn114656   4.172   1.284   4.772 -0.2789 -0.4566 -0.1555
 1986ntf    sn214657   4.044   1.212   4.880 -0.1001 -0.1814  0.2408
 1986ntf    nn314658   3.923   1.205   4.781  0.0385 -0.3687  0.0845
 1986ntf    sn214659   3.831   1.323   4.735 -0.1311 -0.5365 -0.0080
 1986ntf    cn114660   3.708   1.317   4.868  0.1388 -0.4738  0.2437
 1986ntf    fn414661   4.293   1.260   4.820 -0.1430 -0.4355 -0.4856
 1986ntf    fn414662   4.173   1.223   4.654  0.0635 -0.8005  0.0229
 1986ntf    fn414663   4.162   1.414   4.756  0.4869 -0.3720  0.0300
 1986ntf    on514664   4.097   1.080   4.903  0.4220 -0.1145 -0.5168
 1986ntf    on514665   4.027   1.301   4.993 -0.1753 -0.4112  0.4113
 1986ntf    on514666   3.748   1.287   4.622 -0.6607  0.4888  0.0450
 1986ntf    on514667   3.882   1.457   4.745 -0.2609 -0.4649 -0.2860
 1986ntf    fn414668   3.621   1.417   4.871  0.8355  0.1349  0.2550
 1986ntf    fn414669   3.635   1.206   4.871 -0.2716 -0.2143 -0.0292
 1986ntf    fn414670   3.768   1.315   4.986 -0.1000  0.2401  0.3811
 1987ntf    cn114671   6.762   1.560   1.823  0.2631  0.1614 -0.1207
 1987ntf    sn214672   6.736   1.643   1.663 -0.0000  0.1174 -0.1002
 1987ntf    nn314673   6.662   1.523   1.593 -0.1876  0.3196 -0.2533
 1987ntf    sn214674   6.507   1.504   1.585 -0.2104  0.2600  0.2789
 1987ntf    cn114675   6.479   1.600   1.433  0.1794 -0.4460 -0.2436
 1987ntf    fn414676   6.650   1.517   1.877  0.4879 -0.3827 -0.0856
 1987ntf    fn414677   6.842   1.456   1.810  0.1157  0.0109  0.1766
 1987ntf    fn414678   6.807   1.647   1.912 -0.0424  0.4362 -0.2311
 1987ntf    on514679   6.649   1.755   1.692 -0.4383 -0.1778 -0.2588
 1987ntf    on514680   6.871   1.666   1.618 -0.0357 -0.4477 -0.5090
 1987ntf    on514681   6.426   1.570   1.685 -0.5689  0.3253 -0.0543
 1987ntf    on514682   6.469   1.367   1.560 -0.1627  0.3131 -0.0864
 1987ntf    fn414683   6.534   1.547   1.326  0.7744 -0.0655 -0.1304
 1987ntf    fn414684   6.348   1.617   1.425  0.1942  0.0951  0.4825
 1987ntf    fn414685   6.528   1.722   1.446 -0.0625 -0.3286 -0.4358
 1988ntf    cn114686   6.123   6.335   2.781 -0.3976  0.4002  0.2660
 1988ntf    sn214687   6.041   6.211   2.675  0.1715  0.0958  0.1767
 1988ntf    nn314688   5.890   6.248   2.693 -0.0119 -0.1973 -0.7514
 1988ntf    sn214689   5.754   6.173   2.667 -0.1425 -0.3274  0.2688
 1988ntf    cn114690   5.700   6.176   2.841  0.0789 -0.3630  0.3386
 1988ntf    fn414691   6.090   6.306   2.905 -0.0431  0.2888  0.3348
 1988ntf    fn414692   6.255   6.343   2.774 -0.3770  0.1469  0.3783
 1988ntf    fn414693   6.084   6.460   2.760 -0.0394  0.3788 -0.5851
 1988ntf    on514694   6.084   6.231   2.539 -0.3121 -0.4142 -0.0516
 1988ntf    on514695   6.077   6.088   2.741 -0.1814 -0.1830 -0.1494
 1988ntf    on514696   5.778   6.034   2.638 -0.1490 -0.1795 -0.4664
 1988ntf    on514697   5.659   6.249   2.589  0.5320  0.1073 -0.1327
 1988ntf    fn414698   5.771   6.098   2.920  0.1287 -0.1109  0.5434
 1988ntf    fn414699   5.703   6.299   2.890 -0.6645 -0.2194  0.0416
 1988ntf    fn414700   5.577   6.130   2.858 -0.1351 -0.0437 -0.2715
 1989ntf    cn114701   2.966   4.159   1.788  0.2191  0.1540  0.2408
 1989ntf    sn214702   2.818   4.263   1.779 -0.0827 -0.3183 -0.3415
 1989ntf    nn314703   2.817   4.300   1.932 -0.4169 -0.5897 -0.2782
 1989ntf    sn214704   2.708   4.267   2.040 -0.3804 -0.0373 -0.0709
 1989ntf    cn114705   2.613   4.422   2.031 -0.5208 -0.1022  0.2630
 1989ntf    fn414706   3.076   4.232   1.774  0.2409  0.1947  0.5943
 1989ntf    fn414707   2.976   4.089   1.901 -0.1940 -0.2510  0.0273
 1989ntf    fn414708   2.974   4.076   1.685 -0.2884 -0.2518  0.5221
 1989ntf    on514709   2.857   4.374   1.696  0.1055  0.2115  0.4363
 1989ntf    on514710   2.712   4.174   1.739 -0.4411 -0.2089  0.3421
 1989ntf    on514711   2.763   4.280   2.172  0.6290 -0.2739 -0.4606
 1989ntf    on514712   2.613   4.161   2.014 -0.0327 -0.2072 -0.6561
 1989ntf    fn414713   2.575   4.447   1.906 -0.1526 -0.0304  0.1656
 1989ntf    fn414714   2.501   4.408   2.099 -0.6008 -0.6909  0.0192
 1989ntf    fn414715   2.675   4.526   2.083  0.2755 -0.4159 -0.0389
 1990ntf    cn114716   4.625   2.972   4.725 -0.1480 -0.2491  0.1256
 1990ntf    sn214717   4.691   3.098   4.612 -0.1916 -0.1775  0.1796
 1990ntf    nn314718   4.630   3.062   4.472  0.1604  0.1299 -0.0558
 1990ntf    sn214719   4.693   3.023   4.333  0.0769 -0.2523  0.0120
 1990ntf    cn114720   4.767   3.183   4.290 -0.3246  0.0077  0.2756
 1990ntf    fn414721   4.628   2.849   4.675  0.5795 -0.2697  0.2005
 1990ntf    fn414722   4.693   2.951   4.836  0.2090 -0.7731 -0.1864
 1990ntf    fn414723   4.501   2.995   4.764  0.0630 -0.2775  0.8186
 1990ntf    on514724   4.654   3.225   4.670 -0.1492 -0.1384  0.1204
 1990ntf    on514725   4.834   3.079   4.619 -0.1833 -0.2567 -0.1825
 1990ntf    on514726   4.595   2.998   4.230  0.3054 -0.1151 -0.2373
 1990ntf    on514727   4.809   2.939   4.343  0.0578 -0.3837 -0.8004
 1990ntf    fn414728   4.848   3.178   4.185 -0.0074  0.5093  0.4896
 1990ntf    fn414729   4.675   3.274   4.263 -0.1317  0.1282  0.0118
 1990ntf    fn414730   4.837   3.239   4.388  0.2614 -0.0168 -0.1242
 1991ntf    cn114731   4.354   2.657   6.419  0.3090 -0.2463  0.4247
 1991ntf    sn214732   4.521   2.720   6.453  0.1728  0.3789 -0.0353
 1991ntf    nn314733   4.582   2.732   6.309  0.0614 -0.1346 -0.1267
 1991ntf    sn214734   4.613   2.621   6.203 -0.0660 -0.1660 -0.1311
 1991ntf    cn114735   4.779   2.669   6.145  0.0338 -0.0757  0.2308
 1991ntf    fn414736   4.349   2.569   6.320 -0.3578  0.5086 -0.2299
 1991ntf    fn414737   4.295   2.594   6.520  0.0534 -0.1374  0.3460
 1991ntf    fn414738   4.279   2.762   6.389  0.4984 -0.0598  0.6029
 1991ntf    on514739   4.479   2.846   6.509  0.0491  0.2807  0.0943
 1991ntf    on514740   4.576   2.620   6.541  0.1548  0.2996 -0.1141
 1991ntf    on514741   4.537   2.626   6.081  0.3651  0.1104 -0.3910
 1991ntf    on514742   4.638   2.491   6.262 -0.0082 -0.3101 -0.4703
 1991ntf    fn414743   4.771   2.783   6.080 -0.4467 -0.4054 -0.2924
 1991ntf    fn414744   4.863   2.690   6.246 -0.3874 -0.2923  0.6323
 1991ntf    fn414745   4.826   2.584   6.056  0.3488  0.3464 -0.0110
 1992ntf    cn114746   1.405   4.573   6.036  0.0278 -0.1581 -0.0301
 1992ntf    sn214747   1.581   4.563   5.994  0.0509  0.3126 -0.0519
 1992ntf    nn314748   1.569   4.536   5.840  0.1399  0.4688 -0.0869
 1992ntf    sn214749   1.681   4.533   5.730 -0.1629 -0.0515 -0.3859
 1992ntf    cn114750   1.666   4.357   5.689 -0.2034 -0.2258  0.3576
 1992ntf    fn414751   1.332   4.474   5.987 -0.2155 -0.1134  0.2320
 1992ntf    fn414752   1.386   4.563   6.167 -0.2026  0.1683 -0.0354
 1992ntf    fn414753   1.349   4.686   5.995  0.3602  0.0505  0.0872
 1992ntf    on514754   1.614   4.701   6.022 -0.6590  0.5039 -0.1401
 1992ntf    on514755   1.627   4.454   6.077  0.0175  0.1446 -0.2545
 1992ntf    on514756   1.812   4.553   5.786 -0.3009  0.0985 -0.1115
 1992ntf    on514757   1.643   4.604   5.610 -0.3085 -0.0871 -0.3612
 1992ntf    fn414758   1.684   4.279   5.794 -0.1061 -0.6089  0.0612
 1992ntf    fn414759   1.556   4.325   5.624 -0.2335  0.5314  0.0222
 1992ntf    fn414760   1.763   4.313   5.610 -0.3828 -0.0702  0.0470
 1993ntf    cn114761   1.147   4.072   5.956  0.1073  0.1762 -0.5076
 1993ntf    sn214762   0.986   4.040   5.880 -0.0772 -0.2470  0.0549
 1993ntf    nn314763   0.908   4.166   5.931  0.1621 -0.1044  0.0712
 1993ntf    sn214764   0.783   4.160   6.026 -0.0186 -0.0670 -0.1631
 1993ntf    cn114765   0.648   4.136   5.906  0.2806 -0.0539 -0.5047
 1993ntf    fn414766   1.234   3.976   5.929 -0.2622 -0.1324 -0.5899
 1993ntf    fn414767   1.199   4.188   5.919  0.1477  0.4950  0.5118
 1993ntf    fn414768   1.136   4.080   6.088 -0.1797 -0.2715 -0.5040
 1993ntf    on514769   1.010   4.035   5.738 -0.2595  0.6085 -0.0079
 1993ntf    on514770   0.942   3.913   5.933 -0.3242 -0.0475  0.3274
 1993ntf    on514771   0.753   4.291   6.079 -0.1010 -0.1051 -0.1166
 1993ntf    on514772   0.769   4.047   6.114 -0.1727  0.0739 -0.0058
 1993ntf    fn414773   0.538   4.117   5.978  0.6326 -0.3418 -0.0404
 1993ntf    fn414774   0.624   4.245   5.834 -0.0482  0.2356  0.0305
 1993ntf    fn414775   0.657   4.034   5.823 -0.1751 -0.4882 -0.0286
 1994ntf    cn114776   4.995   3.611   2.298  0.1271 -0.3257 -0.0521
 1994ntf    sn214777   4.971   3.633   2.119 -0.4434 -0.1425  0.0448
 1994ntf    nn314778   4.841   3.545   2.107 -0.3786 -0.1952 -0.2813
 1994ntf    sn214779   4.697   3.606   2.116 -0.1982  0.2157 -0.1422
 1994ntf    cn114780   4.683   3.656   1.942 -0.1332  0.0988 -0.1803
 1994ntf    fn414781   5.117   3.650   2.334 -0.2355  0.2299  0.5979
 1994ntf    fn414782   4.905   3.672   2.373 -0.1058 -0.6244 -0.0894
 1994ntf    fn414783   4.995   3.484   2.334 -0.0638 -0.3538 -0.1503
 1994ntf    on514784   4.968   3.775   2.095  0.4531 -0.2422 -0.7121
 1994ntf    on514785   5.083   3.574   2.050 -0.3190  0.1016  0.0396
 1994ntf    on514786   4.671   3.723   2.197 -0.4352  0.1776 -0.1615
 1994ntf    on514787   4.602   3.497   2.124  0.1498 -0.0578  0.2677
 1994ntf    fn414788   4.782   3.733   1.900 -0.4765  0.4390 -0.3689
 1994ntf    fn414789   4.686   3.547   1.866  0.2168  0.3746 -0.5713
 1994ntf    fn414790   4.573   3.720   1.909 -0.2377 -0.0393 -0.1004
 1995ntf    cn114791   4.068   1.552   2.489 -0.5129  0.3346 -0.7939
 1995ntf    sn214792   4.070   1.386   2.414 -0.0825 -0.0238  0.0033
 1995ntf    nn314793   4.156   1.407   2.285  0.1768  0.2660  0.2229
 1995ntf    sn214794   4.289   1.487   2.259  0.1504  0.2958  0.1798
 1995ntf    cn114795   4.358   1.381   2.129  0.0110  0.0114  0.3375
 1995ntf    fn414796   3.984   1.562   2.591 -0.0370 -0.0929 -0.3513
 1995ntf    fn414797   4.190   1.579   2.531 -0.5875 -0.2519 -0.1964
 1995ntf    fn414798   4.028   1.638   2.396  0.0806  0.6888 -0.7237
 1995ntf    on514799   4.128   1.300   2.515  0.1381  0.3608  0.2101
 1995ntf    on514800   3.930   1.360   2.390 -0.1932  0.0518  0.5390
 1995ntf    on514801   4.385   1.479   2.366 -0.2209 -0.2810  0.4703
 1995ntf    on514802   4.268   1.617   2.199 -0.9017 -0.1781 -0.5138
 1995ntf    fn414803   4.277   1.364   2.026  0.6518 -0.2955 -0.1180
 1995ntf    fn414804   4.473   1.426   2.082 -0.1799 -0.0654 -0.2108
 1995ntf    fn414805   4.382   1.259   2.175  0.0591 -0.2027 -0.2507
 1996ntf    cn114806   6.385   0.118   5.304  0.4606  0.0671  0.0360
 1996ntf    sn214807   6.391  -0.008   5.173 -0.1175  0.1787 -0.0990
 1996ntf    nn314808   6.431   0.086   5.053 -0.2837 -0.0232 -0.3144
 1996ntf    sn214809   6.542   0.051   4.948 -0.1126  0.3052 -0.2465
 1996ntf    cn114810   6.686   0.147   5.003  0.2621 -0.4303  0.0745
 1996ntf    fn414811   6.345   0.061   5.416  0.4854  0.4406  0.2347
 1996ntf    fn414812   6.503   0.174   5.326  0.3342  0.1900  0.3963
 1996ntf    fn414813   6.294   0.212   5.289 -0.1203 -0.4390  0.3530
 1996ntf    on514814   6.496  -0.095   5.221 -0.1534  0.3507  0.2880
 1996ntf    on514815   6.259  -0.064   5.155  0.0032 -0.0970 -0.1357
 1996ntf    on514816   6.513   0.115   4.822 -0.2939  0.3406 -0.1863
 1996ntf    on514817   6.597  -0.082   4.939  0.3487  0.4832 -0.0556
 1996ntf    fn414818   6.720   0.121   5.128 -0.0744  0.1269  0.2855
 1996ntf    fn414819   6.789   0.127   4.923  0.0146 -0.1948 -0.3058
 1996ntf    fn414820   6.667   0.278   4.997 -0.8718 -0.6239 -0.8294
 1997ntf    cn114821   4.395   6.084   0.814 -0.0837  0.0486 -0.1349
 1997ntf    sn214822   4.512   6.223   0.828 -0.1132  0.1003 -0.3928
 1997ntf    nn314823   4.598   6.165   0.946  0.1382  0.4116 -0.4233
 1997ntf    sn214824   4.617   6.239   1.084  0.2137 -0.0269 -0.1968
 1997ntf    cn114825   4.756   6.140   1.147  0.1806  0.3188  0.4237
 1997ntf    fn414826   4.453   5.967   0.790 -0.5875 -0.2789  0.2286
 1997ntf    fn414827   4.338   6.057   0.930 -0.0289  0.1345 -0.0877
 1997ntf    fn414828   4.298   6.105   0.726 -0.3068  0.3666  0.1806
 1997ntf    on514829   4.585   6.213   0.704  0.5610  0.2813 -0.0106
 1997ntf    on514830   4.427   6.338   0.850 -0.4512 -0.1720 -0.2558
 1997ntf    on514831   4.503   6.222   1.171  0.3838 -0.5561 -0.0730
 1997ntf    on514832   4.664   6.374   1.070 -0.7389  0.3226 -0.1286
 1997ntf    fn414833   4.771   6.148   1.278 -0.3994 -0.1621  0.5228
 1997ntf    fn414834   4.730   6.012   1.127  0.3526  0.2761  0.4773
 1997ntf    fn414835   4.872   6.163   1.087  0.0046  0.2662  0.0593
 1998ntf    cn114836   5.992   4.160   3.589 -0.3112  0.0534 -0.5524
 1998ntf    sn214837   5.889   4.310   3.578 -0.2358  0.1589  0.1165
 1998ntf    nn314838   5.756   4.260   3.511 -0.0430  0.1379 -0.2530
 1998ntf    sn214839   5.608   4.263   3.564 -0.0158 -0.1906 -0.1519
 1998ntf    cn114840   5.580   4.084   3.553 -0.0234 -0.2010  0.0371
 1998ntf    fn414841   6.112   4.175   3.644 -0.6661  0.1313  0.2137
 1998ntf    fn414842   5.927   4.068   3.657 -0.2090  0.0167 -0.5029
 1998ntf    fn414843   6.019   4.103   3.473  0.2626 -0.1167 -0.3418
 1998ntf    on514844   5.876   4.359   3.713 -0.5455 -0.1112  0.1864
 1998ntf    on514845   5.966   4.390   3.486 -0.4541  0.0836 -0.1349
 1998ntf    on514846   5.516   4.309   3.463 -0.0256  0.4799  0.1514
 1998ntf    on514847   5.586   4.289   3.704  0.0715 -0.7085 -0.0430
 1998ntf    fn414848   5.603   4.035   3.433  0.2493  0.1153 -0.0431
 1998ntf    fn414849   5.664   4.025   3.636 -0.1443 -0.2985  0.0904
 1998ntf    fn414850   5.459   4.041   3.584 -0.1335  0.2642  0.2754
 1999ntf    cn114851   6.589   3.697   4.955 -0.2770 -0.1239 -0.5075
 1999ntf    sn214852   6.435   3.643   5.035 -0.0219 -0.2370 -0.0902
 1999ntf    nn314853   6.440   3.489   5.002 -0.7125 -0.4349  0.7015
 1999ntf    sn214854   6.383   3.419   4.874 -0.0103  0.0496  0.1143
 1999ntf    cn114855   6.219   3.363   4.929 -0.2723  0.5271 -0.1724
 1999ntf    fn414856   6.587   3.693   4.823  0.4915  0.5375 -0.5426
 1999ntf    fn414857   6.628   3.814   5.002  0.3312 -0.3640 -0.4012
 1999ntf    fn414858   6.685   3.620   5.003 -0.8124 -0.0117  0.7914
 1999ntf    on514859   6.467   3.674   5.172  0.2126  0.6125 -0.3355
 1999ntf    on514860   6.326   3.716   4.975  0.2356  0.4939  0.3216
 1999ntf    on514861   6.451   3.293   4.854  0.1619  0.1862 -0.1662
 1999ntf    on514862   6.357   3.502   4.759 -0.2727 -0.1909 -0.0036
 1999ntf    fn414863   6.139   3.361   4.824  0.3137 -0.3546 -0.6174
 1999ntf    fn414864   6.220   3.248   4.994 -0.6303  0.4407 -0.3158
 1999ntf    fn414865   6.166   3.451   5.012  0.3532  0.3564  0.4147
 2000ntf    cn114866   6.031   1.779   4.992  0.3138 -0.4425  0.3493
 2000ntf    sn214867   6.200   1.823   4.941  0.0811 -0.1073 -0.1372
 2000ntf    nn314868   6.246   1.702   4.853  0.2362 -0.1148 -0.0455
 2000ntf    sn214869   6.390   1.655   4.813  0.3548  0.0372  0.2037
 2000ntf    cn114870   6.401   1.510   4.922 -0.4868 -0.0031  0.2389
 2000ntf    fn414871   5.982   1.866   5.078 -0.2339  0.4392 -0.8154
 2000ntf    fn414872   5.944   1.772   4.892  0.0539 -0.0825  0.5526
 2000ntf    fn414873   6.030   1.661   5.052 -0.0749 -0.2626  0.6979
 2000ntf    on514874   6.182   1.946   4.867 -0.2360  0.0733  0.2350
 2000ntf    on514875   6.266   1.838   5.068 -0.0734  0.6100 -0.1358
 2000ntf    on514876   6.494   1.747   4.853  0.6012 -0.2170  0.1522
 2000ntf    on514877   6.395   1.594   4.683  0.0880  0.0155  0.2032
 2000ntf    fn414878   6.515   1.450   4.893 -0.2399  0.4993  0.1525
 2000ntf    fn414879   6.395   1.544   5.050 -0.3287 -0.0920  0.2696
 2000ntf    fn414880   6.301   1.428   4.896 -0.3190 -0.0852 -0.1581
 2001ntf    cn114881   1.651   6.108   5.661  0.1792 -0.2871 -0.0503
 2001ntf    sn214882   1.637   6.288   5.641  0.0704 -0.2874  0.0203
 2001ntf    nn314883   1.503   6.294   5.560  0.4157  0.0662 -0.5337
 2001ntf    sn214884   1.413   6.421   5.542  0.2542  0.0267 -0.0181
 2001ntf    cn114885   1.395   6.418   5.361 -0.1699  0.6265  0.0099
 2001ntf    fn414886   1.759   6.077   5.731  0.0046 -0.3579  0.1923
 2001ntf    fn414887   1.543   6.058   5.719  0.1621 -0.4096 -0.1860
 2001ntf    fn414888   1.663   6.046   5.545 -0.2023 -0.0868 -0.1990
 2001ntf    on514889   1.635   6.339   5.776 -0.2232 -0.6413  0.1507
 2001ntf    on514890   1.752   6.311   5.557  0.0325 -0.5181 -0.0951
 2001ntf    on514891   1.473   6.550   5.564  0.4768 -0.0737 -0.0324
 2001ntf    on514892   1.276   6.404   5.585 -0.0534  0.1482 -0.9192
 2001ntf    fn414893   1.344   6.531   5.316  0.2433  0.8695  0.1498
 2001ntf    fn414894   1.511   6.395   5.303 -0.1685  0.0619  0.2251
 2001ntf    fn414895   1.316   6.318   5.325  0.2051  0.3615 -0.0857
 2002ntf    cn114896   1.627   5.745   3.892 -0.1703  0.1118  0.0692
 2002ntf    sn214897   1.744   5.877   3.934  0.0366 -0.0689  0.0642
 2002ntf    nn314898   1.707   5.902   4.085 -0.0714 -0.0875  0.0410
 2002ntf    sn214899   1.596   5.995   4.145  0.0585  0.2849 -0.2845
 2002ntf    cn114900   1.674   6.038   4.304 -0.1195 -0.0685 -0.1000
 2002ntf    fn414901   1.502   5.787   3.897 -0.1195  0.3078 -0.3345
 2002ntf    fn414902   1.644   5.689   3.774  0.0158  0.0912  0.1052
 2002ntf    fn414903   1.630   5.647   3.981  0.2841 -0.3831 -0.4800
 2002ntf    on514904   1.870   5.809   3.918 -0.0044 -0.0581 -0.3033
 2002ntf    on514905   1.706   5.982   3.842  0.2254 -0.0060  0.0561
 2002ntf    on514906   1.473   5.934   4.190  0.4624 -0.4571 -0.1552
 2002ntf    on514907   1.586   6.127   4.088 -0.2866  0.3332 -0.1168
 2002ntf    fn414908   1.607   6.127   4.374  0.2838 -0.0233  0.2318
 2002ntf    fn414909   1.705   5.933   4.379 -0.1023  0.2438  0.3317
 2002ntf    fn414910   1.794   6.092   4.293  0.1146 -0.5577 -0.0065
 2003ntf    cn114911   1.019   4.920   6.361 -0.0271  0.3090 -0.0192
 2003ntf    sn214912   1.113   4.832   6.490 -0.1367  0.3750  0.1072
 2003ntf    nn314913   1.145   4.945   6.594  0.1925  0.2884  0.1020
 2003ntf    sn214914   1.066   4.974   6.727 -0.1379 -0.1114 -0.0076
 2003ntf    cn114915   1.091   5.154   6.726 -0.0976 -0.1171  0.0830
 2003ntf    fn414916   1.046   4.876   6.240 -0.0546  0.1190  0.0429
 2003ntf    fn414917   0.888   4.917   6.383 -0.0301 -0.3744 -0.1126
 2003ntf    fn414918   1.051   5.048   6.357  0.6659  0.1514  0.3412
 2003ntf    on514919   1.025   4.726   6.530  0.3942 -0.1968 -0.2160
 2003ntf    on514920   1.235   4.792   6.425 -0.3323 -0.2054  0.0931
 2003ntf    on514921   1.145   4.936   6.841  0.4698 -0.9484 -0.6900
 2003ntf    on514922   0.922   4.964   6.724 -0.1614  0.0499  0.5444
 2003ntf    fn414923   1.027   5.198   6.620  0.1883  0.7743  0.2758
 2003ntf    fn414924   1.039   5.208   6.835  0.1044  0.0552  0.0939
 2003ntf    fn414925   1.216   5.195   6.707 -0.0844 -0.0011  0.4058
 2004ntf    cn114926   2.903   1.582   0.654  0.1473  0.1802  0.1357
 2004ntf    sn214927   2.915   1.613   0.476  0.0229  0.1775  0.1270
 2004ntf    nn314928   2.761   1.610   0.446  0.2302 -0.1391 -0.9536
 2004ntf    sn214929   2.657   1.727   0.436  0.0737 -0.1996 -0.0656
 2004ntf    cn114930   2.602   1.715   0.264 -0.3765 -0.1501  0.0729
 2004ntf    fn414931   2.864   1.459   0.685  0.1128 -0.1370 -1.1081
 2004ntf    fn414932   3.021   1.602   0.710  0.1721 -0.0144  0.1567
 2004ntf    fn414933   2.811   1.655   0.714 -0.1874  0.2921 -0.5059
 2004ntf    on514934   2.974   1.744   0.477  0.0563  0.1606  0.2445
 2004ntf    on514935   2.995   1.506   0.422  0.0387 -0.0984  0.6947
 2004ntf    on514936   2.707   1.863   0.446 -0.2520 -0.0694 -0.2069
 2004ntf    on514937   2.543   1.700   0.521 -0.0789  0.0843 -0.1775
 2004ntf    fn414938   2.696   1.712   0.171 -0.2473  0.1394  0.1933
 2004ntf    fn414939   2.536   1.604   0.235  0.4235 -0.4691 -0.5930
 2004ntf    fn414940   2.529   1.820   0.229 -0.0022 -0.1278 -0.6682
 2005ntf    cn114941   4.389   1.154   5.825 -0.3692 -0.0140 -0.1411
 2005ntf    sn214942   4.570   1.152   5.819 -0.3525  0.1459  0.2842
 2005ntf    nn314943   4.592   1.180   5.666  0.4283 -0.3487  0.3007
 2005ntf    sn214944   4.707   1.256   5.591 -0.0727 -0.1540 -0.2713
 2005ntf    cn114945   4.653   1.429   5.593  0.0651 -0.1125 -0.1574
 2005ntf    fn414946   4.337   1.266   5.777 -0.1650  0.1609  0.0460
 2005ntf    fn414947   4.340   1.049   5.761  0.4677  0.1891 -1.1373
 2005ntf    fn414948   4.350   1.130   5.949  0.3908 -0.1165  0.0803
 2005ntf    on514949   4.601   1.259   5.911  0.0842 -0.0343  0.3524
 2005ntf    on514950   4.603   1.016   5.856  0.2635  0.2111 -0.0167
 2005ntf    on514951   4.697   1.228   5.449 -0.1714 -0.1613 -0.2631
 2005ntf    on514952   4.833   1.255   5.660 -0.1861 -0.0666 -0.0646
 2005ntf    fn414953   4.572   1.450   5.490 -0.1541  0.0673  0.0497
 2005ntf    fn414954   4.582   1.460   5.700  0.1337 -0.1341 -0.1058
 2005ntf    fn414955   4.751   1.518   5.584 -0.2307  0.2194 -0.1092
 2006ntf    cn114956   3.191   4.147   3.250 -0.3288 -0.0428  0.3266
 2006ntf    sn214957   3.248   4.073   3.406 -0.1247 -0.2809  0.1394
 2006ntf    nn314958   3.116   4.023   3.473 -0.1386 -0.7642 -0.2421
 2006ntf    sn214959   3.091   4.004   3.627  0.0556  0.1130 -0.0971
 2006ntf    cn114960   3.004   4.152   3.684  0.1949  0.0104  0.3945
 2006ntf    fn414961   3.176   4.277   3.269  0.6036  0.1694 -0.3123
 2006ntf    fn414962   3.278   4.125   3.153 -0.9678  0.0503 -0.2788
 2006ntf    fn414963   3.080   4.092   3.203  0.0111 -0.5387  0.0879
 2006ntf    on514964   3.344   3.976   3.358  0.2526  0.2472 -0.1809
 2006ntf    on514965   3.307   4.184   3.476  0.2008 -0.2309 -0.2079
 2006ntf    on514966   3.205   3.994   3.716 -0.1629  0.0753  0.1783
 2006ntf    on514967   2.986   3.905   3.638  0.2513 -0.0953 -0.0775
 2006ntf    fn414968   2.872   4.146   3.671  0.2124  0.0787  0.1766
 2006ntf    fn414969   3.022   4.178   3.812 -0.2649  0.5972  0.3496
 2006ntf    fn414970   3.054   4.258   3.622 -0.6072  0.0175 -0.2567
 2007ntf    cn114971   4.479   0.565   5.446  0.1665  0.4017  0.1722
 2007ntf    sn214972   4.396   0.596   5.288  0.2538  0.1577  0.0791
 2007ntf    nn314973   4.310   0.465   5.286  0.4832 -0.0004  0.5194
 2007ntf    sn214974   4.351   0.319   5.246  0.2867  0.0468  0.1338
 2007ntf    cn114975   4.321   0.316   5.067  0.1528 -0.2600  0.1596
 2007ntf    fn414976   4.563   0.660   5.484  0.0815  0.3680  0.4471
 2007ntf    fn414977   4.395   0.541   5.546  0.3522  0.3066  0.3080
 2007ntf    fn414978   4.550   0.455   5.430 -0.4193 -0.0075  0.3562
 2007ntf    on514979   4.314   0.711   5.317 -0.2321 -0.0658 -0.3772
 2007ntf    on514980   4.501   0.615   5.190  0.2220 -0.2133 -0.0296
 2007ntf    on514981   4.262   0.216   5.295  0.4216 -0.1069  0.0590
 2007ntf    on514982   4.493   0.293   5.252  0.2257 -0.4242 -0.3981
 2007ntf    fn414983   4.383   0.218   5.003  0.4752  0.0395  0.0094
 2007ntf    fn414984   4.193   0.301   5.037  0.1234  0.0310  0.1353
 2007ntf    fn414985   4.359   0.431   5.013  0.1528 -0.2954  0.0843
 2008ntf    cn114986   0.353   0.915   3.472  0.1678  0.1112  0.3623
 2008ntf    sn214987   0.369   0.871   3.647  0.2562 -0.2232  0.2712
 2008ntf    nn314988   0.496   0.949   3.695 -0.0634  0.4711  0.0121
 2008ntf    sn214989   0.635   0.895   3.745 -0.2264 -0.0488 -0.0860
 2008ntf    cn114990   0.741   1.040   3.714 -0.2792 -0.0277 -0.1672
 2008ntf    fn414991   0.229   0.905   3.427  0.2577  0.3146  0.0646
 2008ntf    fn414992   0.394   1.036   3.437 -0.0391  0.1337  0.1926
 2008ntf    fn414993   0.430   0.837   3.398 -0.8121 -0.5069 -0.0260
 2008ntf    on514994   0.245   0.920   3.702 -0.3549 -0.7385 -0.6254
 2008ntf    on514995   0.381   0.728   3.631 -0.0841 -0.3224  0.8577
 2008ntf    on514996   0.699   0.798   3.660  0.4493  0.2970  0.0139
 2008ntf    on514997   0.635   0.871   3.887 -0.0329 -0.6547 -0.1874
 2008ntf    fn414998   0.725   1.145   3.793 -0.1053 -0.6222  0.6736
 2008ntf    fn414999   0.867   1.002   3.727 -0.2047  0.0616 -0.6272
 2008ntf    fn415000   0.737   1.088   3.591  0.0895 -0.1895 -0.2432
 2009ntf    cn115001   3.236   6.808   5.445 -0.5741 -0.4313 -0.1853
 2009ntf    sn215002   3.249   6.942   5.568  0.1515 -0.2823 -0.4176
 2009ntf    nn315003   3.375   6.889   5.644 -0.2856 -0.9072 -0.1198
 2009ntf    sn215004   3.414   6.907   5.796 -0.3700  0.1218 -0.2148
 2009ntf    cn115005   3.591   6.935   5.766 -0.3370  0.0408 -0.0909
 2009ntf    fn415006   3.245   6.689   5.501 -0.5423 -0.4905 -0.3157
 2009ntf    fn415007   3.118   6.816   5.387 -0.0405  0.9479 -1.1548
 2009ntf    fn415008   3.330   6.813   5.352 -0.5036 -0.7624 -0.1341
 2009ntf    on515009   3.281   7.061   5.492 -0.5950  0.1404 -0.0807
 2009ntf    on515010   3.122   6.932   5.635  0.0542  0.6059 -0.4603
 2009ntf    on515011   3.409   6.788   5.876  0.4816  0.3069  0.1198
 2009ntf    on515012   3.384   7.032   5.861 -0.0668 -0.3122  0.7748
 2009ntf    fn415013   3.661   6.832   5.722  0.2594  0.1901  0.4929
 2009ntf    fn415014   3.612   7.031   5.677  0.0143  0.4682  0.4440
 2009ntf    fn415015   3.653   6.984   5.872 -0.1067 -0.0054 -0.2036
 2010ntf    cn115016   6.582   0.462   0.113 -0.1729 -0.1025  0.3394
 2010ntf    sn215017   6.712   0.585   0.144 -0.1626 -0.0280  0.0010
 2010ntf    nn315018   6.696   0.617   0.297 -0.1215  0.0382 -0.0082
 2010ntf    sn215019   6.783   0.567   0.418  0.1474  0.3052 -0.0924
 2010ntf    cn115020   6.669   0.583   0.558  0.1227  0.1290 -0.0917
 2010ntf    fn415021   6.459   0.511   0.122 -0.4426 -0.5148 -0.9485
 2010ntf    fn415022   6.597   0.410  -0.007  0.4441  0.2966  0.2426
 2010ntf    fn415023   6.580   0.361   0.198 -0.2608  0.2144  0.7191
 2010ntf    on515024   6.830   0.515   0.102 -0.0555  0.3351 -0.3034
 2010ntf    on515025   6.674   0.694   0.057 -0.0351 -0.2199 -0.2965
 2010ntf    on515026   6.893   0.652   0.455  0.2569  0.5046 -0.8559
 2010ntf    on515027   6.807   0.425   0.412 -0.0120  0.2822 -0.2014
 2010ntf    fn415028   6.551   0.528   0.535  0.3038  0.0385 -0.8450
 2010ntf    fn415029   6.722   0.531   0.667  0.1207 -0.1052 -0.2007
 2010ntf    fn415030   6.639   0.709   0.587 -0.0116  0.0581  0.0786
 2011ntf    cn115031   2.170   0.731   1.756  0.3088  0.1114  0.0419
 2011ntf    sn215032   2.158   0.742   1.937  0.0580 -0.3448  0.0544
 2011ntf    nn315033   2.034   0.649   1.964  0.0969 -0.3462  0.2317
 2011ntf    sn215034   1.886   0.684   1.999  0.0920 -0.2888  0.1519
 2011ntf    cn115035   1.916   0.685   2.178 -0.3263  0.1476  0.2232
 2011ntf    fn415036   2.267   0.804   1.702  0.0034  0.8080  0.4187
 2011ntf    fn415037   2.192   0.606   1.719 -0.3052 -0.1655  0.5795
 2011ntf    fn415038   2.061   0.772   1.694  0.7602  0.4810 -0.5205
 2011ntf    on515039   2.283   0.685   1.979  0.0627 -0.2236  0.2073
 2011ntf    on515040   2.134   0.883   1.957  0.0404 -0.2983 -0.3013
 2011ntf    on515041   1.790   0.578   1.976 -0.2204 -0.0359  0.2750
 2011ntf    on515042   1.842   0.820   1.980  0.7135 -0.1401 -0.2517
 2011ntf    fn415043   1.979   0.573   2.209  0.0070  0.2730  0.0110
 2011ntf    fn415044   2.007   0.773   2.217 -0.3308  0.3899 -0.3015
 2011ntf    fn415045   1.813   0.687   2.261 -0.3701  0.1660  0.1688
 2012ntf    cn115046   3.211   3.275   4.430  0.1035 -0.1400 -0.2255
 2012ntf    sn215047   3.342   3.337   4.540 -0.3394  0.2528  0.0849
 2012ntf    nn315048   3.383   3.470   4.469 -0.2520  0.2709  0.1696
 2012ntf    sn215049   3.298   3.602   4.462 -0.0446  0.3981 -0.0122
 2012ntf    cn115050   3.340   3.656   4.294  0.1779 -0.3186 -0.1939
 2012ntf    fn415051   3.163   3.156   4.462  0.0790 -0.1304 -0.2255
 2012ntf    fn415052   3.100   3.347   4.436  0.0794 -0.2305  0.5489
 2012ntf    fn415053   3.249   3.276   4.304 -0.0074 -0.4839 -0.2616
 2012ntf    on515054   3.277   3.348   4.669 -0.1309  0.0579  0.2074
 2012ntf    on515055   3.440   3.232   4.529  0.0117  0.5788  0.1051
 2012ntf    on515056   3.346   3.712   4.542  0.3239  0.1553  0.1032
 2012ntf    on515057   3.156   3.578   4.451 -0.0306  0.1173  0.3882
 2012ntf    fn415058   3.306   3.569   4.200  0.0739  0.2370 -0.6815
 2012ntf    fn415059   3.278   3.772   4.277  0.3280 -0.1986  0.0884
 2012ntf    fn415060   3.469   3.668   4.272  0.0944  0.2087 -0.4214
 2013ntf    cn115061   0.947   3.786   2.968  0.0782 -0.0997  0.0282
 2013ntf    sn215062   0.804   3.736   3.069  0.2010  0.3088  0.4132
 2013ntf    nn315063   0.688   3.832   3.023 -0.3892 -0.2663  0.6756
 2013ntf    sn215064   0.681   3.989   3.026 -0.0158 -0.2268 -0.2025
 2013ntf    cn115065   0.643   4.024   2.852  0.1536 -0.1122 -0.2171
 2013ntf    fn415066   1.035   3.833   3.055 -0.1180 -0.4226  0.4047
 2013ntf    fn415067   1.014   3.702   2.892  0.6135  0.4793 -0.1535
 2013ntf    fn415068   0.916   3.883   2.883  0.1936 -0.1211 -0.0377
 2013ntf    on515069   0.781   3.602   3.018  0.1895  0.4853 -0.0526
 2013ntf    on515070   0.831   3.741   3.210 -0.3346 -0.4158  0.5504
 2013ntf    on515071   0.804   4.061   3.047 -0.4295  0.5081 -0.2820
 2013ntf    on515072   0.570   4.034   3.105 -0.3319 -0.4885 -0.4903
 2013ntf    fn415073   0.513   4.008   2.829  0.1241 -0.3108  0.0734
 2013ntf    fn415074   0.675   4.147   2.817 -0.3298  0.0849  0.0184
 2013ntf    fn415075   0.713   3.943   2.774  0.0493 -0.2697 -0.1484
 2014ntf    cn115076   0.053   0.149   3.250 -0.0053 -0.5601 -0.0228
 2014ntf    sn215077   0.137   0.045   3.374  0.1025 -0.2024  0.2054
 2014ntf    nn315078   0.268   0.130   3.390  0.2173 -0.3808  0.2083
 2014ntf    sn215079   0.371   0.142   3.508  0.2514 -0.0187  0.1416
 2014ntf    cn115080   0.517   0.068   3.428  0.1246  0.1315 -0.2293
 2014ntf    fn415081  -0.062   0.096   3.212  0.2021 -0.6213 -0.5793
 2014ntf    fn415082   0.039   0.275   3.288  0.2570 -0.6708  0.4552
 2014ntf    fn415083   0.125   0.158   3.139 -0.1887 -0.1380 -0.1078
 2014ntf    on515084   0.047   0.045   3.487  0.5293 -0.2620  0.5477
 2014ntf    on515085   0.150  -0.080   3.304 -0.4538 -0.1392 -0.0186
 2014ntf    on515086   0.348   0.057   3.622  0.4231  0.3885  0.4823
 2014ntf    on515087   0.417   0.278   3.522 -0.1097  0.1417 -0.2253
 2014ntf    fn415088   0.545   0.125   3.312  0.3750 -0.0354 -0.2514
 2014ntf    fn415089   0.619   0.079   3.511 -0.0137 -0.6415  0.0456
 2014ntf    fn415090   0.496  -0.059   3.400 -0.2281  0.0222  0.5062
 2015ntf    cn115091   5.956   2.310   0.426  0.2569  0.3264 -0.0666
 2015ntf    sn215092   6.135   2.337   0.439  0.2551  0.2765  0.0540
 2015ntf    nn315093   6.185   2.197   0.491 -0.2465  0.1462  0.1937
 2015ntf    sn215094   6.168   2.059   0.420  0.3738  0.2060 -0.0816
 2015ntf    cn115095   6.309   1.968   0.489  0.1867 -0.0681 -0.0558
 2015ntf    fn415096   5.904   2.267   0.539  0.0331  0.1846 -0.2220
 2015ntf    fn415097   5.891   2.424   0.407  0.1115  0.3125  0.3296
 2015ntf    fn415098   5.921   2.224   0.331 -0.1118  0.3845  0.0124
 2015ntf    on515099   6.161   2.375   0.302  0.0808  0.1746 -0.0074
 2015ntf    on515100   6.148   2.443   0.536  0.3550  0.1051  0.2289
 2015ntf    on515101   6.195   2.073   0.279  0.4971 -0.2127 -0.1023
 2015ntf    on515102   6.053   1.985   0.468  0.0906  0.7552  0.1001
 2015ntf    fn415103   6.323   1.844   0.444 -0.0743  0.0419 -0.4470
 2015ntf    fn415104   6.426   2.022   0.460  0.2842 -0.2462  0.0082
 2015ntf    fn415105   6.311   1.963   0.621  0.2758 -0.6599 -0.0765
 2016ntf    cn115106   5.031   4.233   6.079  0.0173  0.1830 -0.3118
 2016ntf    sn215107   5.103   4.258   5.914  0.2301  0.0649 -0.2361
 2016ntf    nn315108   5.196   4.376   5.960  0.3813 -0.2791  0.3526
 2016ntf    sn215109   5.161   4.529   5.957  0.0462 -0.3541  0.3916
 2016ntf    cn115110   5.115   4.563   5.784 -0.3714 -0.2226  0.5282
 2016ntf    fn415111   4.960   4.121   6.083 -0.1463  0.3116  0.6804
 2016ntf    fn415112   5.123   4.216   6.172 -0.3840  0.3139  0.1098
 2016ntf    fn415113   4.959   4.333   6.127 -0.1773 -0.5355  0.9335
 2016ntf    on515114   5.171   4.133   5.891 -0.0044 -0.1643  0.3048
 2016ntf    on515115   4.993   4.285   5.825  0.1209 -0.3019 -0.2111
 2016ntf    on515116   5.278   4.608   5.985 -0.0685 -0.1326  0.2531
 2016ntf    on515117   5.040   4.569   6.024 -0.3335  0.1749 -0.5767
 2016ntf    fn415118   4.985   4.576   5.764 -0.2862 -0.3187 -0.1130
 2016ntf    fn415119   5.161   4.681   5.744 -0.2492 -0.4692 -0.0656
 2016ntf    fn415120   5.164   4.470   5.703 -0.3989  0.4715 -0.2995
 2017ntf    cn115121   6.072   3.347   3.242  0.0168  0.1434 -0.0391
 2017ntf    sn215122   6.008   3.184   3.292 -0.0737  0.2136  0.0740
 2017ntf    nn315123   5.943   3.212   3.432 -0.5629 -0.0873 -0.0924
 2017ntf    sn215124   5.796   3.264   3.451 -0.3492  0.4171  0.2155
 2017ntf    cn115125   5.700   3.110   3.440  0.0612  0.1638  0.1984
 2017ntf    fn415126   5.995   3.454   3.260  0.0503  0.1903 -0.1708
 2017ntf    fn415127   6.181   3.374   3.313 -0.3258  0.1839  0.4781
 2017ntf    fn415128   6.109   3.343   3.115 -0.0036  0.4616 -0.0560
 2017ntf    on515129   5.928   3.153   3.177 -0.0376 -0.0488  0.1198
 2017ntf    on515130   6.128   3.107   3.310 -0.1436  0.0950  0.0322
 2017ntf    on515131   5.738   3.339   3.342 -0.3045 -0.1633 -0.2140
 2017ntf    on515132   5.777   3.318   3.583  0.4129 -0.1777  0.5722
 2017ntf    fn415133   5.569   3.123   3.427  0.0777 -0.0706 -0.2306
 2017ntf    fn415134   5.738   3.049   3.329 -0.7232 -0.3342  0.1935
 2017ntf    fn415135   5.721   3.023   3.537  0.2273  0.0412  0.0541
 2018ntf    cn115136   2.890   2.833   4.534  0.2548 -0.2624  0.1927
 2018ntf    sn215137   2.717   2.799   4.578  0.1490 -0.0823 -0.0792
 2018ntf    nn315138   2.697   2.908   4.690  0.5154  0.0886 -0.1778
 2018ntf    sn215139   2.730   2.893   4.843  0.1894 -0.0577 -0.1208
 2018ntf    cn115140   2.580   2.825   4.919  0.2033  0.1722  0.1135
 2018ntf    fn415141   2.906   2.842   4.403 -0.4017  0.0106  0.1291
 2018ntf    fn415142   2.937   2.940   4.596  0.1691  0.1523 -0.4492
 2018ntf    fn415143   2.964   2.729   4.571  0.5294 -0.2148 -0.2124
 2018ntf    on515144   2.648   2.829   4.455  0.1179 -0.3859 -0.1367
 2018ntf    on515145   2.708   2.665   4.631 -0.2983  0.0310  0.1307
 2018ntf    on515146   2.738   3.023   4.905 -0.0870  0.0944 -0.4025
 2018ntf    on515147   2.829   2.792   4.870  0.0379 -0.1638  0.0442
 2018ntf    fn415148   2.499   2.927   4.948  0.1564  0.1780 -0.0402
 2018ntf    fn415149   2.509   2.747   4.840  0.2080  0.6394 -0.3564
 2018ntf    fn415150   2.605   2.758   5.031  0.6456  0.3130  0.1014
 2019ntf    cn115151   3.143   6.160   2.626  0.0088 -0.1413 -0.2338
 2019ntf    sn215152   3.177   6.322   2.550 -0.2628  0.0282  0.0044
 2019ntf    nn315153   3.334   6.319   2.559 -0.2996  0.0823  0.7729
 2019ntf    sn215154   3.425   6.429   2.624 -0.0354  0.3100  0.0350
 2019ntf    cn115155   3.464   6.519   2.471  0.7189  0.6381  0.4144
 2019ntf    fn415156   3.224   6.066   2.581  0.0497  0.0227 -0.5062
 2019ntf    fn415157   3.156   6.161   2.758 -0.0472  0.3299 -0.2274
 2019ntf    fn415158   3.024   6.108   2.605 -0.1092 -0.0333  0.1726
 2019ntf    on515159   3.138   6.308   2.412 -0.3677 -0.0953  0.0465
 2019ntf    on515160   3.092   6.412   2.624  0.2380  0.0789  0.5295
 2019ntf    on515161   3.556   6.392   2.671 -0.1338 -0.0731  0.0106
 2019ntf    on515162   3.356   6.530   2.700  0.2246  0.3625  0.2029
 2019ntf    fn415163   3.527   6.450   2.378 -0.5251  0.4361 -0.3090
 2019ntf    fn415164   3.352   6.564   2.416  0.6661 -0.1434 -0.1300
 2019ntf    fn415165   3.531   6.629   2.502  0.1105  1.0040  0.4671
 2020ntf    cn115166   0.577   5.089   4.256  0.1701  0.4615  0.2853
 2020ntf    sn215167   0.471   5.094   4.404 -0.0162  0.1467  0.1634
 2020ntf    nn315168   0.348   5.007   4.360  0.4244 -0.3260 -0.1359
 2020ntf    sn215169   0.291   4.874   4.422  0.3739 -0.0297  0.4612
 2020ntf    cn115170   0.113   4.903   4.396  0.4396 -0.0171  0.0112
 2020ntf    fn415171   0.519   5.132   4.145  0.0261  0.2228  0.2673
 2020ntf    fn415172   0.681   5.168   4.277  0.1983  0.6342 -0.4915
 2020ntf    fn415173   0.623   4.968   4.229  0.3925  0.5760  0.1438
 2020ntf    on515174   0.557   5.049   4.510  0.0657  0.3020  0.1642
 2020ntf    on515175   0.432   5.233   4.410 -0.2550  0.0959 -0.1815
 2020ntf    on515176   0.291   4.859   4.565  0.1529 -0.3449  0.4285
 2020ntf    on515177   0.314   4.755   4.344 -0.2930  0.2790 -0.2206
 2020ntf    fn415178   0.067   4.895   4.272  0.1363 -0.2437  0.1370
 2020ntf    fn415179   0.043   4.809   4.457  0.0313  0.3067  0.0421
 2020ntf    fn415180   0.075   5.023   4.435  0.5149 -0.0068  0.0537
 2021ntf    cn115181   3.174   0.391   2.055 -0.3597  0.4015  0.4149
 2021ntf    sn215182   3.142   0.481   2.210 -0.0015 -0.1659  0.8241
 2021ntf    nn315183   3.156   0.363   2.312  0.3536 -0.9203 -0.0814
 2021ntf    sn215184   3.058   0.311   2.423  0.1481 -0.0957  0.1270
 2021ntf    cn115185   3.029   0.457   2.528 -0.3264 -0.3325  0.3322
 2021ntf    fn415186   3.286   0.320   2.061 -0.3438  0.4114  0.2425
 2021ntf    fn415187   3.082   0.301   2.026  0.9034 -0.6531 -0.4529
 2021ntf    fn415188   3.192   0.475   1.954  0.6372 -0.1969  0.0760
 2021ntf    on515189   3.239   0.588   2.217  0.2359 -0.3731  0.7371
 2021ntf    on515190   3.006   0.528   2.199  0.0748 -0.0489  0.3407
 2021ntf    on515191   3.130   0.218   2.506 -0.0668  0.0279  0.4541
 2021ntf    on515192   2.928   0.263   2.382  0.1839 -0.5979  0.5827
 2021ntf    fn415193   2.971   0.425   2.642 -0.0925 -0.4724  0.4132
 2021ntf    fn415194   3.139   0.527   2.555 -0.2087 -0.4365  0.1285
 2021ntf    fn415195   2.946   0.544   2.473 -0.1115 -0.1240  0.3362
 2022ntf    cn115196   0.669   4.648   1.294 -0.0851 -0.3068  0.0493
 2022ntf    sn215197   0.845   4.608   1.313 -0.0433 -0.0926  0.1182
 2022ntf    nn315198   0.880   4.677   1.449  0.0751 -0.1255  0.1043
 2022ntf    sn215199   0.887   4.605   1.588 -0.1852  0.0895  0.2303
 2022ntf    cn115200   0.799   4.730   1.686 -0.3016  0.4783 -0.3660
 2022ntf    fn415201   0.621   4.633   1.172 -0.0357 -0.0633  0.0011
 2022ntf    fn415202   0.588   4.574   1.369 -0.0519 -0.0590  0.3293
 2022ntf    fn415203   0.652   4.776   1.322  0.2111 -0.2757  0.0901
 2022ntf    on515204   0.840   4.464   1.308  0.0171 -0.1122  0.6379
 2022ntf    on515205   0.909   4.674   1.202 -0.2312 -0.1948 -0.0525
 2022ntf    on515206   1.019   4.592   1.647 -0.0158 -0.4002 -0.2466
 2022ntf    on515207   0.798   4.493   1.606  0.2349 -0.2923 -0.0139
 2022ntf    fn415208   0.873   4.832   1.726  0.3195  0.0472 -0.4015
 2022ntf    fn415209   0.689   4.776   1.629 -0.6511 -0.2665 -0.3049
 2022ntf    fn415210   0.749   4.679   1.798 -0.2927  0.4646 -0.3684
 2023ntf    cn115211   0.959   1.413   6.682 -0.3353  0.4213 -0.1724
 2023ntf    sn215212   1.004   1.547   6.568  0.1910  0.2776 -0.1344
 2023ntf    nn315213   0.892   1.651   6.605 -0.0168  0.0327 -0.0695
 2023ntf    sn215214   0.899   1.774   6.703  0.0857 -0.3795  0.4427
 2023ntf    cn115215   0.781   1.717   6.828 -0.2947 -0.1870  0.1704
 2023ntf    fn415216   0.839   1.359   6.667 -0.0121 -0.3655  0.0277
 2023ntf    fn415217   1.045   1.314   6.674 -0.2266  0.5165 -0.1806
 2023ntf    fn415218   0.960   1.463   6.805  0.6329 -0.1367  0.0509
 2023ntf    on515219   1.140   1.582   6.600  0.2446 -0.1225  0.0830
 2023ntf    on515220   0.981   1.491   6.437 -0.1151  0.0533  0.0149
 2023ntf    on515221   0.835   1.894   6.657  0.3453 -0.5363 -0.3465
 2023ntf    on515222   1.021   1.789   6.780  0.0815 -0.1055  0.3940
 2023ntf    fn415223   0.675   1.663   6.770 -0.1744  0.2215 -0.4346
 2023ntf    fn415224   0.838   1.627   6.906  0.4407 -0.2053 -0.3905
 2023ntf    fn415225   0.733   1.816   6.903 -0.1819  0.3689 -0.4873
 2024ntf    cn115226   4.063   3.753   1.893  0.1624  0.2404 -0.0933
 2024ntf    sn215227   3.943   3.879   1.945 -0.1855 -0.1032 -0.0557
 2024ntf    nn315228   3.884   3.812   2.074 -0.1604  0.0687  0.0457
 2024ntf    sn215229   3.733   3.781   2.105 -0.1513  0.1356  0.1570
 2024ntf    cn115230   3.685   3.951   2.148 -0.4165  0.0479  0.2091
 2024ntf    fn415231   4.002   3.650   1.838 -0.4113  0.2309  0.5472
 2024ntf    fn415232   4.139   3.802   1.797 -0.0424  0.6835 -0.0343
 2024ntf    fn415233   4.137   3.709   1.993 -0.2294 -0.5589 -0.1484
 2024ntf    on515234   4.028   3.989   1.985  0.2810 -0.4973  0.0425
 2024ntf    on515235   3.851   3.908   1.838 -0.2390 -0.3238 -0.0689
 2024ntf    on515236   3.728   3.720   2.236  0.1799 -0.0327  0.0941
 2024ntf    on515237   3.658   3.722   1.997  0.0931  0.2509 -0.0774
 2024ntf    fn415238   3.557   3.954   2.183 -0.4094  0.4093  0.2055
 2024ntf    fn415239   3.761   3.998   2.246 -0.0489  0.3090 -0.1970
 2024ntf    fn415240   3.706   4.035   2.048  0.6097 -0.7426 -0.2602
 2025ntf    cn115241   4.368   6.517   6.698 -0.1582 -0.1403  0.2602
 2025ntf    sn215242   4.338   6.564   6.872 -0.0382  0.2551  0.1764
 2025ntf    nn315243   4.246   6.445   6.916  0.2359  0.0180  0.1114
 2025ntf    sn215244   4.277   6.341   7.030  0.0700 -0.1405  0.0133
 2025ntf    cn115245   4.188   6.402   7.177 -0.2251 -0.3026 -0.0971
 2025ntf    fn415246   4.456   6.421   6.677 -0.0572  0.0512 -0.2137
 2025ntf    fn415247   4.256   6.492   6.632 -0.2556  0.5110  0.1692
 2025ntf    fn415248   4.422   6.617   6.631 -0.2059 -0.0837  0.3062
 2025ntf    on515249   4.465   6.574   6.938  0.2046 -0.5818 -0.1409
 2025ntf    on515250   4.265   6.687   6.853  0.0285  0.2534 -0.0977
 2025ntf    on515251   4.413   6.315   7.070  0.1418 -0.1363 -0.2294
 2025ntf    on515252   4.203   6.220   7.005 -0.1218  0.0411 -0.3066
 2025ntf    fn415253   4.059   6.381   7.192 -0.4093  0.5894 -0.3916
 2025ntf    fn415254   4.244   6.363   7.291 -0.5158  0.0428  0.1638
 2025ntf    fn415255   4.199   6.533   7.183 -0.3574 -0.3066  0.2681
 2026ntf    cn115256   2.837   3.797   2.297 -0.3477 -0.3904  0.0136
 2026ntf    sn215257   2.942   3.707   2.416 -0.0480 -0.2109 -0.1149
 2026ntf    nn315258   3.008   3.829   2.490 -0.3195  0.0495 -0.2938
 2026ntf    sn215259   2.972   3.883   2.633  0.0885 -0.0714 -0.1419
 2026ntf    cn115260   3.070   3.779   2.745  0.5938 -0.0505 -0.5599
 2026ntf    fn415261   2.760   3.718   2.224 -0.4932 -0.1046 -0.1423
 2026ntf    fn415262   2.756   3.890   2.344  0.2932  0.2187 -0.0669
 2026ntf    fn415263   2.909   3.862   2.207 -0.2154  0.1441  0.5045
 2026ntf    on515264   2.843   3.623   2.477 -0.3058  0.2153  0.0596
 2026ntf    on515265   3.035   3.643   2.327 -0.1515 -0.3694 -0.1083
 2026ntf    on515266   2.835   3.864   2.672  0.1828 -0.0489  0.2059
 2026ntf    on515267   3.028   4.012   2.667  0.2310 -0.0262 -0.5398
 2026ntf    fn415268   3.046   3.653   2.713  0.5344 -0.0536 -0.5047
 2026ntf    fn415269   3.200   3.798   2.729  0.7254 -0.1866  0.2955
 2026ntf    fn415270   3.048   3.795   2.875 -0.6621 -0.3916 -0.7145
 2027ntf    cn115271   5.412   6.474   4.990 -0.0689 -0.4493 -0.2895
 2027ntf    sn215272   5.550   6.549   4.899 -0.0421  0.1256  0.2251
 2027ntf    nn315273   5.575   6.453   4.778 -0.0376  0.6034 -0.1566
 2027ntf    sn215274   5.512   6.463   4.634 -0.3893 -0.0257 -0.0546
 2027ntf    cn115275   5.655   6.512   4.534 -0.0668 -0.0847  0.3714
 2027ntf    fn415276   5.419   6.342   4.983 -0.2041 -0.4781  0.1122
 2027ntf    fn415277   5.408   6.515   5.115 -0.0230  0.0226 -0.4432
 2027ntf    fn415278   5.296   6.504   4.933 -0.2520 -0.5348  0.0363
 2027ntf    on515279   5.500   6.679   4.861  0.2809  0.0683 -0.3997
 2027ntf    on515280   5.664   6.545   4.987  0.0813 -0.1745  0.0533
 2027ntf    on515281   5.413   6.567   4.617 -1.0816 -0.5290  0.8237
 2027ntf    on515282   5.472   6.333   4.588 -0.5020  0.1033 -0.3239
 2027ntf    fn415283   5.619   6.518   4.407 -0.0996 -0.2250  0.3742
 2027ntf    fn415284   5.721   6.622   4.568  0.4639 -0.3319  0.1561
 2027ntf    fn415285   5.749   6.418   4.538  0.5487  0.4796 -0.3540
 2028ntf    cn115286   1.968   3.175   4.809  0.1223 -0.1456 -0.4180
 2028ntf    sn215287   1.800   3.107   4.799 -0.0449  0.2223 -0.1363
 2028ntf    nn315288   1.825   2.995   4.691 -0.5106 -0.0950  0.0792
 2028ntf    sn215289   1.801   3.008   4.537  0.2437 -0.1661 -0.0492
 2028ntf    cn115290   1.627   2.956   4.525  0.2091  0.0201 -0.3874
 2028ntf    fn415291   2.011   3.199   4.686  0.2056  0.0127 -0.3592
 2028ntf    fn415292   1.978   3.289   4.876 -0.2459 -0.0796 -0.4775
 2028ntf    fn415293   2.060   3.104   4.872 -0.0682  0.4926  0.5931
 2028ntf    on515294   1.783   3.049   4.930  0.0351  0.0678 -0.1938
 2028ntf    on515295   1.718   3.219   4.765  0.3651  0.6234  0.1775
 2028ntf    on515296   1.864   2.902   4.462 -0.2144 -0.2286 -0.3520
 2028ntf    on515297   1.798   3.144   4.488 -0.3648 -0.4649 -0.8639
 2028ntf    fn415298   1.601   2.904   4.406 -0.3214 -0.1246 -0.2097
 2028ntf    fn415299   1.592   2.869   4.618 -0.7247  0.2628 -0.5094
 2028ntf    fn415300   1.550   3.061   4.545 -0.0625 -0.2050 -0.2508
 2029ntf    cn115301   3.966   0.590   5.467 -0.0664  0.1714 -0.0167
 2029ntf    sn215302   3.872   0.482   5.579  0.0284  0.1261  0.0200
 2029ntf    nn315303   3.910   0.540   5.719 -0.4605  0.0386  0.1928
 2029ntf    sn215304   3.857   0.670   5.790  0.0684  0.2704  0.1674
 2029ntf    cn115305   3.862   0.637   5.968 -0.4860 -0.1971  0.0997
 2029ntf    fn415306   3.958   0.550   5.341  0.0072  0.1519 -0.0159
 2029ntf    fn415307   3.923   0.715   5.463 -0.0775  0.1950  0.6917
 2029ntf    fn415308   4.096   0.580   5.490 -0.1096  0.3105  0.2920
 2029ntf    on515309   3.734   0.505   5.541 -0.0863  0.0654  0.3988
 2029ntf    on515310   3.918   0.349   5.545 -0.0871  0.1991 -0.4343
 2029ntf    on515311   3.718   0.700   5.768  0.0143  0.1165  0.3028
 2029ntf    on515312   3.955   0.776   5.779  0.3102  0.0556  0.2322
 2029ntf    fn415313   3.767   0.554   6.006 -0.4715 -0.2978 -0.0837
 2029ntf    fn415314   3.970   0.572   6.008 -0.2072  0.0355 -0.2660
 2029ntf    fn415315   3.859   0.743   6.048 -0.5852 -0.0883 -0.0466
 2030ntf    cn115316   5.921   3.858   1.137 -0.1772 -0.1132 -0.1584
 2030ntf    sn215317   6.052   3.884   1.013  0.1925 -0.1795  0.2185
 2030ntf    nn315318   5.993   3.823   0.881  0.1843  0.3528 -0.0238
 2030ntf    sn215319   6.071   3.789   0.749  0.1652  0.3073 -0.0232
 2030ntf    cn115320   6.023   3.617   0.712  0.0955  0.3663 -0.2069
 2030ntf    fn415321   5.812   3.933   1.120 -0.1887 -0.0503  0.1860
 2030ntf    fn415322   5.871   3.736   1.130 -0.3186 -0.0773  0.2228
 2030ntf    fn415323   5.955   3.880   1.262  0.2284 -0.2795 -0.2402
 2030ntf    on515324   6.057   4.028   1.009 -0.2719 -0.1759 -0.3618
 2030ntf    on515325   6.162   3.809   1.069 -0.1122 -0.1996  0.8075
 2030ntf    on515326   6.214   3.795   0.757  0.1786  0.5521 -0.4240
 2030ntf    on515327   6.010   3.858   0.638 -0.1030 -0.4772 -0.3751
 2030ntf    fn415328   5.894   3.605   0.686  0.2130 -0.5204 -0.4101
 2030ntf    fn415329   6.078   3.574   0.600  0.1885 -0.1653  0.0389
 2030ntf    fn415330   6.045   3.533   0.812 -0.2538  0.2655 -0.2117
 2031ntf    cn115331   1.079   4.165   4.598  0.3386  0.2379  0.3038
 2031ntf    sn215332   0.948   4.285   4.635 -0.0769 -0.1015 -0.0655
 2031ntf    nn315333   1.042   4.396   4.694 -0.7874  0.3709  0.2030
 2031ntf    sn215334   1.078   4.537   4.635  0.1872  0.0507  0.0077
 2031ntf    cn115335   1.240   4.504   4.559 -0.0254  0.4051 -0.6094
 2031ntf    fn415336   1.160   4.140   4.700  0.8330  0.5637 -0.0041
 2031ntf    fn415337   1.038   4.045   4.562  0.0746  0.5383 -0.4091
 2031ntf    fn415338   1.154   4.208   4.498 -0.1493  0.0869 -0.1292
 2031ntf    on515339   0.887   4.307   4.506  0.7616 -0.0162 -0.4534
 2031ntf    on515340   0.869   4.219   4.736 -0.3312  0.1582 -0.0914
 2031ntf    on515341   1.101   4.638   4.736  0.1296  0.5463 -0.4690
 2031ntf    on515342   1.003   4.585   4.522  0.4244  1.1571  0.3028
 2031ntf    fn415343   1.333   4.467   4.646 -0.2597  0.5320 -0.3050
 2031ntf    fn415344   1.241   4.404   4.472  0.3105  0.1279 -0.2943
 2031ntf    fn415345   1.291   4.608   4.496  0.3341  0.4140 -0.3083
 2032ntf    cn115346   2.103   4.023   6.359  0.1117  0.3621  0.1882
 2032ntf    sn215347   2.021   3.920   6.484 -0.1104  0.1049 -0.1682
 2032ntf    nn315348   2.061   3.988   6.620 -0.3398  0.4578 -0.2765
 2032ntf    sn215349   2.193   3.969   6.702 -0.3727  0.0721 -0.3103
 2032ntf    cn115350   2.133   3.842   6.817  0.4401 -0.0296  0.0121
 2032ntf    fn415351   2.232   4.039   6.383  0.1799  0.3931 -0.2030
 2032ntf    fn415352   2.086   3.983   6.234  0.3438 -0.1878  0.3270
 2032ntf    fn415353   2.057   4.146   6.378  0.2595  0.3572  0.5760
 2032ntf    on515354   1.878   3.935   6.469 -0.1983 -0.2585  0.2590
 2032ntf    on515355   2.073   3.789   6.451 -0.6699 -0.1030 -0.2515
 2032ntf    on515356   2.227   4.080   6.787  0.3073 -0.0835 -0.3695
 2032ntf    on515357   2.312   3.916   6.641 -0.0449  0.6775 -0.2053
 2032ntf    fn415358   2.070   3.747   6.749 -0.2955  0.2343  0.3059
 2032ntf    fn415359   2.234   3.782   6.877  0.6373  0.2235 -0.0661
 2032ntf    fn415360   2.043   3.876   6.908  0.4061  0.0549 -0.0524
 2033ntf    cn115361   5.501   3.847   2.525 -0.3746  0.4177  0.0933
 2033ntf    sn215362   5.505   3.772   2.690  0.2764 -0.1078 -0.1606
 2033ntf    nn315363   5.372   3.689   2.693  0.2274 -0.0141  0.5685
 2033ntf    sn215364   5.328   3.596   2.811 -0.2345 -0.1638  0.2833
 2033ntf    cn115365   5.363   3.430   2.746 -0.2131 -0.0246 -0.0600
 2033ntf    fn415366   5.494   3.761   2.425 -0.6684  0.2086  0.2918
 2033ntf    fn415367   5.396   3.927   2.513 -0.1455  0.7454  0.2651
 2033ntf    fn415368   5.608   3.922   2.508 -0.0962 -0.0470 -0.2240
 2033ntf    on515369   5.620   3.684   2.688 -0.0320 -0.5039 -0.5496
 2033ntf    on515370   5.512   3.885   2.779 -0.5760  0.1331 -0.4011
 2033ntf    on515371   5.185   3.584   2.827 -0.2915 -0.0357 -0.1200
 2033ntf    on515372   5.417   3.596   2.925  0.1473  0.7086 -0.0083
 2033ntf    fn415373   5.308   3.333   2.817  0.1757 -0.1720  0.0399
 2033ntf    fn415374   5.305   3.415   2.627 -0.6342  0.3771  0.0918
 2033ntf    fn415375   5.491   3.402   2.730 -0.2689 -0.0571 -0.4799
 2034ntf    cn115376   3.609   1.639   0.436 -0.2871  0.0182  0.6752
 2034ntf    sn215377   3.649   1.511   0.558 -0.1317 -0.2299  0.3641
 2034ntf    nn315378   3.799   1.550   0.581 -0.1942  0.3154 -0.1384
 2034ntf    sn215379   3.858   1.635   0.699  0.2786  0.3054 -0.3661
 2034ntf    cn115380   3.970   1.519   0.782 -0.3058  0.2492  0.3467
 2034ntf    fn415381   3.478   1.638   0.413 -0.2667 -0.6165  0.5702
 2034ntf    fn415382   3.640   1.761   0.476  0.8580 -0.3092  0.8004
 2034ntf    fn415383   3.672   1.622   0.322 -0.1371  0.5491  0.6770
 2034ntf    on515384   3.560   1.532   0.669  0.3532  0.3477  0.6504
 2034ntf    on515385   3.640   1.389   0.481  0.2566 -0.1890  0.2547
 2034ntf    on515386   3.770   1.675   0.805 -0.0201 -0.5141 -0.2970
 2034ntf    on515387   3.949   1.729   0.637 -0.0378  0.6484 -0.3083
 2034ntf    fn415388   3.902   1.419   0.835 -0.4168  0.2820  0.2666
 2034ntf    fn415389   4.054   1.456   0.701 -0.5064 -0.2342  0.5130
 2034ntf    fn415390   4.043   1.572   0.879 -0.3282  0.3036  0.3339
 2035ntf    cn115391   2.696   5.309   0.307 -0.0099 -0.2554  0.1245
 2035ntf    sn215392   2.844   5.400   0.359 -0.1550 -0.1406  0.3344
 2035ntf    nn315393   2.836   5.361   0.511 -0.1478 -0.1845  0.3235
 2035ntf    sn215394   2.765   5.442   0.625 -0.5222  0.1364 -0.1377
 2035ntf    cn115395   2.883   5.571   0.674  0.2521 -0.6178 -0.0046
 2035ntf    fn415396   2.706   5.178   0.326 -0.4389 -0.2433  0.4536
 2035ntf    fn415397   2.588   5.353   0.371 -0.4528 -0.1923 -0.6486
 2035ntf    fn415398   2.675   5.328   0.177  0.6802  0.0084  0.0513
 2035ntf    on515399   2.958   5.331   0.304 -0.1426  0.0237  0.1539
 2035ntf    on515400   2.826   5.537   0.318  0.4708 -0.2779 -0.4132
 2035ntf    on515401   2.740   5.369   0.747 -0.2506 -0.0217 -0.1751
 2035ntf    on515402   2.654   5.524   0.583 -0.0674  0.4949 -0.6508
 2035ntf    fn415403   2.998   5.528   0.723  0.2539 -0.3859  0.1958
 2035ntf    fn415404   2.912   5.642   0.567 -0.3370 -0.9258 -0.3750
 2035ntf    fn415405   2.825   5.647   0.765  0.1672 -0.3512 -0.2791
 2036ntf    cn115406   5.792   4.347   1.124  0.0298 -0.1396 -0.1826
 2036ntf    sn215407   5.740   4.485   1.231  0.2017 -0.0311 -0.2397
 2036ntf    nn315408   5.865   4.510   1.323  0.0965  0.2608 -0.1740
 2036ntf    sn215409   5.920   4.644   1.383 -0.2924  0.4382 -0.2142
 2036ntf    cn115410   6.011   4.713   1.241  0.5249 -0.1770  0.0048
 2036ntf    fn415411   5.813   4.236   1.193  0.2821  0.0663  0.0722
 2036ntf    fn415412   5.714   4.321   1.021 -0.1827 -0.2529  0.0058
 2036ntf    fn415413   5.913   4.376   1.079  0.1015  0.2543  0.2509
 2036ntf    on515414   5.717   4.592   1.136  0.0892 -0.0324 -0.2139
 2036ntf    on515415   5.629   4.420   1.295 -0.0561  0.1959 -0.4561
 2036ntf    on515416   6.025   4.612   1.476  0.0156  0.4113 -0.5671
 2036ntf    on515417   5.823   4.744   1.423 -0.6172 -0.0718  0.2786
 2036ntf    fn415418   6.108   4.794   1.279  0.1339  0.2515  0.0959
 2036ntf    fn415419   6.051   4.623   1.152 -0.2060 -0.6838  0.1722
 2036ntf    fn415420   5.928   4.788   1.169  0.2805 -0.4169  0.0315
 2037ntf    cn115421   2.608   5.064   2.577 -0.0255  0.0188  0.2426
 2037ntf    sn215422   2.701   4.931   2.493  0.1136  0.1384  0.2069
 2037ntf    nn315423   2.816   4.910   2.597  0.3786  0.4407 -0.0241
 2037ntf    sn215424   2.871   4.773   2.652 -0.0755  0.2503 -0.0385
 2037ntf    cn115425   3.033   4.764   2.569 -0.3660  0.3097 -0.6206
 2037ntf    fn415426   2.662   5.181   2.548 -0.3585 -0.0241 -0.5976
 2037ntf    fn415427   2.484   5.072   2.532 -0.0223 -0.5336  0.1268
 2037ntf    fn415428   2.598   5.055   2.708  0.0460 -0.3734  0.2226
 2037ntf    on515429   2.599   4.829   2.489  0.2627  0.0060 -0.2056
 2037ntf    on515430   2.740   4.989   2.367  0.4192 -0.1586  0.1642
 2037ntf    on515431   2.803   4.653   2.611  0.0376  0.2233 -0.1490
 2037ntf    on515432   2.903   4.787   2.792 -0.5199 -0.1415  0.1023
 2037ntf    fn415433   3.016   4.722   2.445 -0.1020 -0.1686 -0.4961
 2037ntf    fn415434   3.085   4.886   2.564 -0.3582  0.3208 -0.3274
 2037ntf    fn415435   3.120   4.685   2.630 -0.4789  0.6398 -0.0228
 2038ntf    cn115436   6.669   3.021   1.954 -0.0262  0.2503 -0.1761
 2038ntf    sn215437   6.767   3.052   1.803  0.1788 -0.3332 -0.1627
 2038ntf    nn315438   6.795   3.205   1.825  0.2870 -0.2828 -0.6519
 2038ntf    sn215439   6.727   3.337   1.775  0.3052 -0.0778 -0.1371
 2038ntf    cn115440   6.767   3.345   1.598  0.2055  0.1827 -0.1486
 2038ntf    fn415441   6.645   2.894   1.980  0.7406  0.0887 -0.2285
 2038ntf    fn415442   6.725   3.072   2.062  0.2526  0.3407 -0.3601
 2038ntf    fn415443   6.550   3.080   1.952 -0.3447 -0.3812  0.1928
 2038ntf    on515444   6.883   2.968   1.821  0.2493 -0.2005  0.0013
 2038ntf    on515445   6.672   3.024   1.698 -0.4386 -0.0797  0.3230
 2038ntf    on515446   6.788   3.450   1.840 -0.1837  0.0711  0.0681
 2038ntf    on515447   6.583   3.331   1.768  0.2679  0.3307  0.2930
 2038ntf    fn415448   6.886   3.291   1.573  0.0437 -0.5360  0.6100
 2038ntf    fn415449   6.682   3.266   1.536  0.1410  0.0582  0.0965
 2038ntf    fn415450   6.755   3.466   1.546  0.0883  0.1629 -0.1676
 2039ntf    cn115451   1.950   3.172   6.316  0.0569  0.2244 -0.0688
 2039ntf    sn215452   1.983   3.025   6.417  0.2005  0.2708 -0.0467
 2039ntf    nn315453   1.838   3.001   6.473  0.3365  0.2594  0.3048
 2039ntf    sn215454   1.772   3.066   6.600 -0.3106 -0.2932  0.2612
 2039ntf    cn115455   1.847   2.962   6.729 -0.1006 -0.4156  0.0422
 2039ntf    fn415456   1.906   3.278   6.383  0.2802  0.1849  0.1418
 2039ntf    fn415457   2.057   3.216   6.251  0.3114  0.2617  0.3735
 2039ntf    fn415458   1.865   3.154   6.217 -0.4549 -0.3615  0.4687
 2039ntf    on515459   2.017   2.922   6.323 -0.2187 -0.5951  0.7274
 2039ntf    on515460   2.083   3.069   6.511  0.4889 -0.8152  0.1682
 2039ntf    on515461   1.631   3.039   6.611 -0.3639 -0.3029 -0.4198
 2039ntf    on515462   1.811   3.201   6.634  0.2343 -0.1752 -0.7896
 2039ntf    fn415463   1.839   3.021   6.847 -0.4662  0.1200 -0.2489
 2039ntf    fn415464   1.786   2.846   6.747 -0.4523 -0.1983  0.2632
 2039ntf    fn415465   1.974   2.936   6.700 -0.2244 -0.7245 -0.2298
 2040ntf    cn115466   2.402   3.539   2.344 -0.1910 -0.1033  0.3661
 2040ntf    sn215467   2.223   3.573   2.340 -0.1294  0.2038  0.2391
 2040ntf    nn315468   2.225   3.719   2.280 -0.1511  0.2378  0.3222
 2040ntf    sn215469   2.222   3.857   2.354  0.5514  0.3263  0.1894
 2040ntf    cn115470   2.042   3.885   2.355  0.4075 -0.5757  0.0556
 2040ntf    fn415471   2.452   3.568   2.225 -0.5484  0.2276  0.2951
 2040ntf    fn415472   2.464   3.618   2.430  0.7179 -0.0752 -0.3060
 2040ntf    fn415473   2.428   3.412   2.372  0.4344 -0.0837 -0.0959
 2040ntf    on515474   2.157   3.483   2.249 -0.1497  0.0902  0.3663
 2040ntf    on515475   2.195   3.569   2.481  0.1695 -0.2625  0.2872
 2040ntf    on515476   2.268   3.970   2.277 -0.0833  0.1513 -0.4589
 2040ntf    on515477   2.251   3.858   2.495 -0.5764  0.0821  0.4344
 2040ntf    fn415478   2.008   4.010   2.380  1.0040 -0.3748 -0.1136
 2040ntf    fn415479   1.990   3.847   2.239  0.3092  0.1691 -0.1466
 2040ntf    fn415480   1.991   3.816   2.456 -0.1561 -0.2811 -0.0240
 2041ntf    cn115481   0.874   4.845   4.128 -0.1908  0.2678 -0.1019
 2041ntf    sn215482   0.812   4.677   4.095 -0.0755  0.2497 -0.2285
 2041ntf    nn315483   0.884   4.645   3.960  0.4368  0.5413 -0.0243
 2041ntf    sn215484   0.836   4.655   3.811 -0.1048 -0.3270  0.0850
 2041ntf    cn115485   0.967   4.756   3.735 -0.0999 -0.6988 -0.4119
 2041ntf    fn415486   1.004   4.850   4.110 -0.2212  0.0352 -0.3878
 2041ntf    fn415487   0.819   4.929   4.042  0.6291  0.4825 -0.4143
 2041ntf    fn415488   0.847   4.887   4.251 -0.6984  0.3871 -0.2509
 2041ntf    on515489   0.859   4.603   4.209 -0.1124  0.2390 -0.2195
 2041ntf    on515490   0.668   4.683   4.083 -0.1572 -0.4792  0.3334
 2041ntf    on515491   0.719   4.734   3.783 -0.0719 -0.3752 -0.2000
 2041ntf    on515492   0.858   4.534   3.735  0.5024  0.0758 -0.3933
 2041ntf    fn415493   1.078   4.708   3.788  0.1663 -0.1666 -0.4827
 2041ntf    fn415494   0.968   4.744   3.604  0.0119 -0.0797 -0.4715
 2041ntf    fn415495   0.943   4.881   3.772 -0.6853 -0.8439 -0.2981
 2042ntf    cn115496   3.938   0.618   2.780 -0.1921 -0.5028 -0.2386
 2042ntf    sn215497   3.764   0.622   2.834 -0.2237 -0.0816 -0.3655
 2042ntf    nn315498   3.726   0.470   2.823  0.6245 -0.3555  0.3214
 2042ntf    sn215499   3.582   0.411   2.842  0.2719  0.4051  0.0606
 2042ntf    cn115500   3.535   0.377   2.670 -0.2724 -0.4379  0.3697
 2042ntf    fn415501   3.948   0.577   2.655 -0.0249  0.1283 -0.4380
 2042ntf    fn415502   3.990   0.740   2.780 -0.1570 -0.5143 -0.8210
 2042ntf    fn415503   4.015   0.542   2.856 -0.3614 -0.3551  0.0846
 2042ntf    on515504   3.764   0.664   2.972 -0.2635 -0.1541 -0.3435
 2042ntf    on515505   3.698   0.704   2.736 -0.0091  0.4130 -0.1033
 2042ntf    on515506   3.481   0.504   2.887  0.0323  0.3555 -0.3677
 2042ntf    on515507   3.584   0.284   2.910  0.3753  0.2611 -0.2113
 2042ntf    fn415508   3.419   0.319   2.643 -0.3868 -0.3581  0.6877
 2042ntf    fn415509   3.525   0.484   2.593 -0.1352 -0.8598 -0.2404
 2042ntf    fn415510   3.626   0.301   2.612 -0.0994  0.2523 -0.2726
 2043ntf    cn115511   1.419   5.520   0.189 -0.0675  0.0092 -0.1202
 2043ntf    sn215512   1.411   5.681   0.274  0.2442  0.0708 -0.2053
 2043ntf    nn315513   1.560   5.702   0.320  0.0886  0.5409  0.0876
 2043ntf    sn215514   1.685   5.775   0.258  0.2226  0.0360 -0.2461
 2043ntf    cn115515   1.727   5.887   0.395 -0.3056  0.2886 -0.2874
 2043ntf    fn415516   1.303   5.500   0.129  0.0780 -0.2366 -0.3207
 2043ntf    fn415517   1.523   5.506   0.108  0.2429  0.1739  0.2471
 2043ntf    fn415518   1.422   5.432   0.288  0.1242  0.2321  0.0740
 2043ntf    on515519   1.362   5.771   0.173 -0.9416 -0.1183  0.1902
 2043ntf    on515520   1.318   5.656   0.381  0.4289 -0.0352 -0.0669
 2043ntf    on515521   1.652   5.858   0.145  0.3686 -0.0636 -0.3610
 2043ntf    on515522   1.800   5.690   0.245 -0.1652 -0.4876 -0.2779
 2043ntf    fn415523   1.625   5.963   0.432 -0.1882  0.2686  0.0886
 2043ntf    fn415524   1.769   5.825   0.505 -0.5818  0.3653 -0.1382
 2043ntf    fn415525   1.821   5.976   0.366  0.5575 -0.5778 -0.2014
 2044ntf    cn115526   0.547   6.145   5.212 -0.1480  0.0004 -0.1467
 2044ntf    sn215527   0.637   6.278   5.297 -0.2715  0.0950 -0.1635
 2044ntf    nn315528   0.518   6.339   5.379 -0.0305 -0.0629  0.3084
 2044ntf    sn215529   0.418   6.447   5.327  0.2614  0.0175 -0.0936
 2044ntf    cn115530   0.492   6.607   5.375  0.0537  0.0993 -0.0427
 2044ntf    fn415531   0.506   6.048   5.292  0.2237  0.1750  0.2606
 2044ntf    fn415532   0.450   6.198   5.140 -0.3740 -0.4845 -0.1998
 2044ntf    fn415533   0.632   6.091   5.127 -0.2410 -0.0495 -0.2082
 2044ntf    on515534   0.725   6.206   5.387 -0.0819 -0.1667 -0.5526
 2044ntf    on515535   0.692   6.352   5.186 -0.5064  0.6693  0.1008
 2044ntf    on515536   0.301   6.443   5.413  0.1907  0.2097 -0.1813
 2044ntf    on515537   0.396   6.461   5.185 -0.9685 -0.1823  0.0605
 2044ntf    fn415538   0.410   6.706   5.344 -0.1930  0.0253  0.3669
 2044ntf    fn415539   0.516   6.616   5.504 -0.4195 -0.7583  0.1163
 2044ntf    fn415540   0.610   6.628   5.320  0.0984 -0.0271  0.0044
 2045ntf    cn115541   4.084   3.524   4.705  0.1535  0.4571  0.4085
 2045ntf    sn215542   4.138   3.418   4.843  0.2163 -0.4119 -0.2710
 2045ntf    nn315543   4.046   3.294   4.815 -0.0812 -0.1278 -0.5692
 2045ntf    sn215544   4.031   3.163   4.901  0.0114  0.2143 -0.0237
 2045ntf    cn115545   3.885   3.217   4.995 -0.1375 -0.0288 -0.1148
 2045ntf    fn415546   3.955   3.551   4.717  0.0530  0.1017  0.1472
 2045ntf    fn415547   4.156   3.635   4.701  0.0880  0.5203  0.8729
 2045ntf    fn415548   4.087   3.468   4.585  0.3440  0.2750  0.4978
 2045ntf    on515549   4.274   3.389   4.804  0.4275 -0.1365  0.2477
 2045ntf    on515550   4.117   3.491   4.966  0.5188 -0.2289 -0.3254
 2045ntf    on515551   4.128   3.141   5.004  0.1335 -0.0992 -0.2047
 2045ntf    on515552   3.980   3.047   4.832  0.1884  0.3885 -0.4530
 2045ntf    fn415553   3.843   3.121   5.076  0.1173  0.1094  0.1823
 2045ntf    fn415554   3.918   3.321   5.069 -0.2274 -0.1916  0.1555
 2045ntf    fn415555   3.791   3.247   4.907  0.1287  0.0810 -0.3635
 2046ntf    cn115556   5.784   3.486   4.995  0.3405  0.0009  0.0541
 2046ntf    sn215557   5.702   3.328   5.030  0.0589  0.1681  0.1493
 2046ntf    nn315558   5.563   3.348   4.960  0.0308 -0.2012  0.1005
 2046ntf    sn215559   5.476   3.245   4.879  0.0738 -0.0846 -0.0911
 2046ntf    cn115560   5.574   3.252   4.726  0.0379  0.1114 -0.1056
 2046ntf    fn415561   5.721   3.592   5.043 -0.2512 -0.2684 -0.1156
 2046ntf    fn415562   5.904   3.496   5.050  0.1045  0.0718  0.5560
 2046ntf    fn415563   5.785   3.507   4.864 -0.1239 -0.3710 -0.0130
 2046ntf    on515564   5.788   3.236   4.962  0.1040  0.1957  0.1696
 2046ntf    on515565   5.692   3.328   5.174  0.3237 -0.1206  0.1698
 2046ntf    on515566   5.349   3.306   4.848 -0.1252 -0.4425  0.0175
 2046ntf    on515567   5.478   3.107   4.918  0.0375  0.0320  0.3220
 2046ntf    fn415568   5.511   3.178   4.637  0.3142  0.0446 -0.2471
 2046ntf    fn415569   5.588   3.375   4.679  0.4679  0.0989 -0.0193
 2046ntf    fn415570   5.688   3.185   4.727 -0.0824 -0.0968 -0.4046
 2047ntf    cn115571   5.137   1.903   0.315  0.1090 -0.4353 -0.0293
 2047ntf    sn215572   5.039   1.913   0.467 -0.0315 -0.0299 -0.1464
 2047ntf    nn315573   5.147   1.839   0.554 -0.0961 -0.2705 -0.2694
 2047ntf    sn215574   5.242   1.886   0.670 -0.0162 -0.3268 -0.3125
 2047ntf    cn115575   5.154   1.810   0.809  0.0340  0.4812  0.1696
 2047ntf    fn415576   5.174   1.779   0.285  0.1289 -0.4247 -0.0486
 2047ntf    fn415577   5.071   1.949   0.210  0.0585 -0.4447 -0.0014
 2047ntf    fn415578   5.246   1.977   0.328  0.0577 -0.4281  0.3716
 2047ntf    on515579   5.031   2.056   0.481 -0.0280 -0.1206  0.8819
 2047ntf    on515580   4.920   1.835   0.445 -0.5308  0.7121 -0.1006
 2047ntf    on515581   5.242   2.028   0.699 -0.7409 -0.3445 -0.2183
 2047ntf    on515582   5.367   1.815   0.680 -0.0108 -0.2470  0.1686
 2047ntf    fn415583   5.033   1.864   0.817 -0.0523  0.2382  0.5449
 2047ntf    fn415584   5.127   1.681   0.796 -0.0651  0.5121  0.0620
 2047ntf    fn415585   5.214   1.821   0.926  0.4321  0.0328  0.0096
 2048ntf    cn115586   4.086   0.112   1.639 -0.3834 -0.0151  0.2969
 2048ntf    sn215587   3.974   0.085   1.498  0.2418 -0.2058 -0.1651
 2048ntf    nn315588   4.078  -0.008   1.425  0.3733 -0.3450  0.1973
 2048ntf    sn215589   4.149   0.008   1.286 -0.1609  0.0921 -0.0310
 2048ntf    cn115590   4.023  -0.039   1.165 -0.3173 -0.1448  0.2235
 2048ntf    fn415591   4.030   0.179   1.739 -0.5799  0.1153  0.1007
 2048ntf    fn415592   4.135  -0.002   1.684  0.3987  0.1699 -0.0833
 2048ntf    fn415593   4.190   0.183   1.599 -0.3435 -0.0550  0.3305
 2048ntf    on515594   3.857   0.027   1.559  0.0263  0.5943  0.1973
 2048ntf    on515595   3.966   0.217   1.441 -0.1926 -0.1506  0.0237
 2048ntf    on515596   4.251  -0.091   1.263 -0.0818  0.1548  0.0449
 2048ntf    on515597   4.195   0.141   1.254 -0.3957  0.0550 -0.5226
 2048ntf    fn415598   3.973  -0.153   1.210  0.0709 -0.4908 -0.2124
 2048ntf    fn415599   3.921   0.045   1.154  0.0167  0.2624  0.2240
 2048ntf    fn415600   4.072  -0.068   1.046 -0.7882  0.4028 -0.1111
 2049ntf    cn115601   4.333   4.585   1.753  0.2213  0.0659  0.3901
 2049ntf    sn215602   4.361   4.549   1.929  0.0935  0.0357  0.4043
 2049ntf    nn315603   4.216   4.592   1.971 -0.1398  0.1401 -0.4821
 2049ntf    sn215604   4.155   4.735   1.993 -0.1080  0.0876 -0.0295
 2049ntf    cn115605   3.976   4.703   2.005 -0.0967  0.0287 -0.0077
 2049ntf    fn415606   4.210   4.558   1.712  0.4844 -0.2002 -0.2472
 2049ntf    fn415607   4.362   4.708   1.716 -0.6275 -0.0224 -0.6204
 2049ntf    fn415608   4.408   4.504   1.680 -0.0910  0.1704 -0.0513
 2049ntf    on515609   4.381   4.406   1.927  0.5583  0.0983  0.4540
 2049ntf    on515610   4.476   4.627   1.967  0.1441 -0.1638  0.6628
 2049ntf    on515611   4.176   4.821   1.879  0.6958  0.2565  0.2436
 2049ntf    on515612   4.193   4.791   2.120 -0.1752 -0.0488  0.0511
 2049ntf    fn415613   3.931   4.636   1.900 -0.2147 -0.1948  0.1856
 2049ntf    fn415614   3.946   4.634   2.113  0.2871 -0.2421 -0.0712
 2049ntf    fn415615   3.906   4.816   2.010  0.4375  0.3938 -0.6169
 2050ntf    cn115616   2.844   4.585   4.214 -0.4196  0.2461  0.1001
 2050ntf    sn215617   2.848   4.404   4.195  0.1356  0.2782 -0.0985
 2050ntf    nn315618   2.990   4.390   4.130  0.0522  0.9639 -0.4382
 2050ntf    sn215619   3.121   4.343   4.201 -0.5240 -0.0907 -0.0652
 2050ntf    cn115620   3.235   4.406   4.075  0.0355  0.3442  0.6482
 2050ntf    fn415621   2.962   4.624   4.259 -0.4009 -0.3894  0.6144
 2050ntf    fn415622   2.817   4.662   4.110  0.2925  0.1479 -0.1603
 2050ntf    fn415623   2.749   4.626   4.297 -0.5605 -0.0226  0.0722
 2050ntf    on515624   2.826   4.355   4.328 -0.5366 -0.0791 -0.3405
 2050ntf    on515625   2.736   4.381   4.107 -0.0266  0.4922  0.0488
 2050ntf    on515626   3.149   4.201   4.205 -0.3229 -0.0526 -0.1060
 2050ntf    on515627   3.145   4.423   4.319 -0.0615 -1.3711  0.7394
 2050ntf    fn415628   3.363   4.382   4.098  0.0872  0.3749  0.4024
 2050ntf    fn415629   3.218   4.351   3.956  0.0357 -0.1480  0.8732
 2050ntf    fn415630   3.231   4.538   4.064  0.1992  0.2867 -0.1964
 2051ntf    cn115631   4.133   0.230   2.605 -0.0116  0.2560  0.2066
 2051ntf    sn215632   4.120   0.052   2.638 -0.0499  0.2155 -0.0297
 2051ntf    nn315633   4.024   0.013   2.519 -0.3782  0.1041  0.2693
 2051ntf    sn215634   3.957  -0.122   2.475 -0.3569  0.0983  0.2560
 2051ntf    cn115635   4.085  -0.193   2.367 -0.4247  0.1642  0.1312
 2051ntf    fn415636   4.012   0.282   2.588  0.1082  0.5675  0.3092
 2051ntf    fn415637   4.185   0.302   2.703  0.2744  0.1998  0.0970
 2051ntf    fn415638   4.195   0.264   2.493 -0.1062 -0.1525  0.0302
 2051ntf    on515639   4.257   0.011   2.621 -0.0718  0.2223 -0.2348
 2051ntf    on515640   4.066   0.042   2.771 -0.5507  0.0530 -0.2410
 2051ntf    on515641   3.843  -0.094   2.391 -0.2602 -0.9552 -0.2433
 2051ntf    on515642   3.947  -0.221   2.579  0.1831 -0.1728  0.0534
 2051ntf    fn415643   4.198  -0.225   2.429 -0.5736  0.0784  0.3614
 2051ntf    fn415644   4.051  -0.305   2.306  0.0522  0.0480  0.0703
 2051ntf    fn415645   4.113  -0.108   2.270  0.0870 -0.3218 -0.1589
 2052ntf    cn115646   2.942   0.654   0.559  0.3703 -0.2932  0.3100
 2052ntf    sn215647   3.076   0.739   0.648  0.2346  0.1533  0.0890
 2052ntf    nn315648   3.173   0.782   0.533 -0.1209  0.0310 -0.2610
 2052ntf    sn215649   3.301   0.706   0.482  0.1239 -0.0420  0.4480
 2052ntf    cn115650   3.428   0.760   0.600  0.2727 -0.0606  0.2967
 2052ntf    fn415651   2.988   0.543   0.502 -0.0062 -0.2871 -0.0060
 2052ntf    fn415652   2.847   0.613   0.642 -0.4257  0.3038 -0.2960
 2052ntf    fn415653   2.881   0.727   0.467  0.0287 -0.2002  0.6105
 2052ntf    on515654   2.998   0.852   0.693  0.1567 -0.0362  0.4395
 2052ntf    on515655   3.136   0.648   0.743 -0.2224 -0.1264  0.1145
 2052ntf    on515656   3.356   0.767   0.363  0.0573  0.0960  0.4870
 2052ntf    on515657   3.301   0.562   0.487  0.3625 -0.0428  0.4373
 2052ntf    fn415658   3.543   0.695   0.590  0.2130 -0.0959 -0.1963
 2052ntf    fn415659   3.451   0.890   0.585  0.0441 -0.0245  0.2551
 2052ntf    fn415660   3.375   0.753   0.721  0.2171  0.0440  0.2786
 2053ntf    cn115661   5.427   3.112   5.702 -0.1365 -0.1762  0.4805
 2053ntf    sn215662   5.527   2.961   5.718  0.2587  0.0496  0.1797
 2053ntf    nn315663   5.444   2.862   5.629 -0.4490  0.6987  0.1079
 2053ntf    sn215664   5.332   2.768   5.686  0.0722  0.0160  0.0177
 2053ntf    cn115665   5.205   2.792   5.559  0.0767 -0.2704 -0.0411
 2053ntf    fn415666   5.379   3.117   5.578  0.1567  0.0798  0.3739
 2053ntf    fn415667   5.318   3.122   5.776 -0.3921 -0.1748  0.1060
 2053ntf    fn415668   5.490   3.227   5.723 -0.0370 -0.0097 -0.6205
 2053ntf    on515669   5.644   3.005   5.646 -0.1138  0.3936 -0.2259
 2053ntf    on515670   5.541   2.929   5.858  0.3649 -0.4817  0.0495
 2053ntf    on515671   5.264   2.819   5.803 -0.8348  0.2662 -0.6117
 2053ntf    on515672   5.364   2.628   5.687  0.0642  0.0141  0.5795
 2053ntf    fn415673   5.149   2.912   5.562  0.0623 -0.2738 -0.1451
 2053ntf    fn415674   5.250   2.776   5.436  0.0423 -0.0873 -0.0768
 2053ntf    fn415675   5.107   2.702   5.557 -0.3012  0.1394 -0.1504
 2054ntf    cn115676   4.500   4.270   0.874 -0.3427  0.1638 -0.3771
 2054ntf    sn215677   4.339   4.215   0.939 -0.1068  0.1575  0.2085
 2054ntf    nn315678   4.378   4.090   1.024 -0.2224 -0.3629 -0.4944
 2054ntf    sn215679   4.314   4.044   1.161  0.1045  0.1654 -0.1628
 2054ntf    cn115680   4.448   4.102   1.270  0.2278 -0.0437 -0.2022
 2054ntf    fn415681   4.557   4.184   0.791  0.2695  0.1398  0.0652
 2054ntf    fn415682   4.493   4.387   0.813  0.4107  0.4743  0.1183
 2054ntf    fn415683   4.587   4.293   0.971 -0.6794 -0.9196  0.1949
 2054ntf    on515684   4.292   4.328   1.016 -0.1606  0.1931  0.1240
 2054ntf    on515685   4.268   4.179   0.819  0.0449  0.1361  0.1244
 2054ntf    on515686   4.310   3.901   1.173 -0.4369  0.2341  0.5018
 2054ntf    on515687   4.198   4.119   1.201 -0.3155 -0.4881 -0.1434
 2054ntf    fn415688   4.429   4.071   1.397 -0.0273 -0.0881 -0.2494
 2054ntf    fn415689   4.564   4.050   1.235  0.4169 -0.3053  0.7839
 2054ntf    fn415690   4.468   4.233   1.270 -0.1639  0.0180  0.0287
 2055ntf    cn115691   2.226   6.483   5.901 -0.1621 -0.0324  0.1476
 2055ntf    sn215692   2.353   6.570   5.804 -0.1973 -0.0403  0.0936
 2055ntf    nn315693   2.360   6.710   5.874  0.2612  0.0304 -0.0921
 2055ntf    sn215694   2.487   6.789   5.921  0.0864  0.0982  0.2665
 2055ntf    cn115695   2.455   6.955   5.856 -0.0661 -0.1139 -0.2018
 2055ntf    fn415696   2.203   6.359   5.860 -0.0039  0.1490 -0.5081
 2055ntf    fn415697   2.254   6.478   6.030  0.0766 -0.1329  0.0918
 2055ntf    fn415698   2.114   6.550   5.879 -0.0280  0.1055 -0.1237
 2055ntf    on515699   2.468   6.486   5.830 -0.3604 -0.1996  0.3095
 2055ntf    on515700   2.294   6.569   5.673  0.0167 -0.2230 -0.0022
 2055ntf    on515701   2.613   6.756   5.859 -0.0195  0.0510  0.0779
 2055ntf    on515702   2.488   6.805   6.064  0.0682 -0.4970  0.3368
 2055ntf    fn415703   2.455   6.965   5.724  0.0941 -0.3850 -0.2216
 2055ntf    fn415704   2.346   7.018   5.898  0.3307  0.0945  0.5244
 2055ntf    fn415705   2.557   7.029   5.896  0.0335 -0.4336  0.1261
 2056ntf    cn115706   0.491   3.063   0.211 -0.5662  0.5355 -0.3458
 2056ntf    sn215707   0.665   3.027   0.253 -0.8249 -0.0655  0.2273
 2056ntf    nn315708   0.710   2.965   0.117 -0.6103 -0.3067  0.4087
 2056ntf    sn215709   0.731   2.812   0.086 -0.1654 -0.2234  0.2890
 2056ntf    cn115710   0.707   2.806  -0.094 -0.0315 -0.0883  0.2661
 2056ntf    fn415711   0.433   2.947   0.183  0.1229  0.2321 -0.5451
 2056ntf    fn415712   0.427   3.121   0.312 -0.2428 -0.0399  0.1985
 2056ntf    fn415713   0.475   3.140   0.105 -0.0878  0.9056 -0.1545
 2056ntf    on515714   0.719   3.158   0.281 -0.4048 -0.3287  0.6426
 2056ntf    on515715   0.656   2.929   0.358  0.1451 -0.3161  0.0785
 2056ntf    on515716   0.630   2.725   0.141 -0.2240 -0.3437 -0.0082
 2056ntf    on515717   0.870   2.777   0.101 -0.1594 -0.3429 -0.0329
 2056ntf    fn415718   0.740   2.918  -0.156  0.1322 -0.3648 -0.1556
 2056ntf    fn415719   0.785   2.713  -0.147 -0.1662  0.0454 -0.1701
 2056ntf    fn415720   0.582   2.774  -0.125  0.0177  0.0258 -0.0508
 2057ntf    cn115721   3.138   3.170   2.768 -0.0565  0.0317 -0.2607
 2057ntf    sn215722   3.242   3.050   2.679 -0.1470 -0.0648 -0.2371
 2057ntf    nn315723   3.161   3.054   2.544 -0.1336  0.5335 -0.2291
 2057ntf    sn215724   3.211   3.057   2.395  0.2198  0.1154 -0.1211
 2057ntf    cn115725   3.197   3.234   2.359  0.0105  0.2194  0.4636
 2057ntf    fn415726   3.125   3.285   2.704 -0.2837  0.2960  0.2597
 2057ntf    fn415727   3.013   3.126   2.775 -0.1288  0.3009  0.1267
 2057ntf    fn415728   3.179   3.180   2.893 -0.0775  0.0567 -0.2561
 2057ntf    on515729   3.376   3.102   2.670  0.0512 -0.5871 -0.3535
 2057ntf    on515730   3.230   2.937   2.767  0.4407  0.5076  0.5871
 2057ntf    on515731   3.120   2.989   2.306 -0.2774 -0.1760  0.6041
 2057ntf    on515732   3.352   3.030   2.380  0.3425  0.4089  0.4920
 2057ntf    fn415733   3.077   3.289   2.368  0.0411  0.3634  0.0046
 2057ntf    fn415734   3.282   3.304   2.433  0.1899 -0.1739  0.6345
 2057ntf    fn415735   3.234   3.253   2.234  0.0835  0.0408  0.4578
 2058ntf    cn115736   1.549   2.393   0.897 -0.4445 -0.3798  0.1472
 2058ntf    sn215737   1.531   2.555   0.976  0.1565 -0.2398  0.0000
 2058ntf    nn315738   1.675   2.585   1.031  0.0746  0.0180  0.0793
 2058ntf    sn215739   1.781   2.671   0.954  0.0301 -0.1467 -0.1669
 2058ntf    cn115740   1.729   2.839   1.001  0.1274 -0.0864 -0.2745
 2058ntf    fn415741   1.439   2.334   0.850 -0.4623 -0.0619 -0.2168
 2058ntf    fn415742   1.625   2.404   0.789 -0.5118  0.2093  0.1578
 2058ntf    fn415743   1.603   2.303   0.977  0.2333 -0.5139 -0.4499
 2058ntf    on515744   1.476   2.652   0.885  0.1446 -0.4098 -0.1734
 2058ntf    on515745   1.438   2.530   1.084  0.5214  0.1674  0.4157
 2058ntf    on515746   1.778   2.663   0.810 -0.1992  0.2287 -0.1843
 2058ntf    on515747   1.909   2.653   1.018 -0.0381 -0.0012  0.0108
 2058ntf    fn415748   1.603   2.866   0.971  0.0648 -0.0476  0.0205
 2058ntf    fn415749   1.747   2.851   1.131 -0.2309  0.0842 -0.2389
 2058ntf    fn415750   1.804   2.929   0.941  0.1095  0.2562  0.2182
 2059ntf    cn115751   1.136   1.491   5.044  0.1881  0.2079 -0.0070
 2059ntf    sn215752   1.111   1.426   5.211 -0.1284  0.0636 -0.1116
 2059ntf    nn315753   1.161   1.279   5.184  0.0431  0.0923  0.0461
 2059ntf    sn215754   1.118   1.148   5.258 -0.0271  0.1036  0.0261
 2059ntf    cn115755   1.013   1.065   5.136  0.1485  0.4040 -0.3290
 2059ntf    fn415756   1.257   1.460   4.998  0.0569 -0.4592  0.0931
 2059ntf    fn415757   1.053   1.445   4.952  0.1674  0.3034 -0.0360
 2059ntf    fn415758   1.129   1.623   5.042 -0.5052  0.1680 -0.3553
 2059ntf    on515759   1.202   1.501   5.293 -0.1841 -0.5883  0.5642
 2059ntf    on515760   0.968   1.440   5.226 -0.1890 -0.0173 -0.5966
 2059ntf    on515761   1.028   1.163   5.370 -0.1795  0.2917 -0.1214
 2059ntf    on515762   1.227   1.053   5.267  0.0228  0.1693  0.1243
 2059ntf    fn415763   0.939   0.971   5.193  0.1600  0.8166  0.3627
 2059ntf    fn415764   0.926   1.150   5.084 -0.2950  0.2384  0.1437
 2059ntf    fn415765   1.078   1.020   5.029  0.0682 -0.2758 -0.0954
 2060ntf    cn115766   1.519   0.200   2.171 -0.4141 -0.0126 -0.0742
 2060ntf    sn215767   1.559   0.130   2.334  0.0184 -0.3275 -0.3136
 2060ntf    nn315768   1.492   0.242   2.421  0.5535  0.1571 -0.5126
 2060ntf    sn215769   1.556   0.302   2.551  0.3585 -0.3645 -0.1713
 2060ntf    cn115770   1.621   0.458   2.483  0.0334 -0.0286  0.2849
 2060ntf    fn415771   1.578   0.129   2.076  0.0358  0.0513  0.1540
 2060ntf    fn415772   1.387   0.194   2.162 -0.4268  0.0721  0.0535
 2060ntf    fn415773   1.552   0.326   2.147 -0.3909  0.1673  0.8645
 2060ntf    on515774   1.497   0.001   2.345  0.1797 -0.3869 -0.0915
 2060ntf    on515775   1.703   0.128   2.321  0.1170  0.7303  0.4919
 2060ntf    on515776   1.669   0.235   2.611 -0.1221 -0.6568  0.4171
 2060ntf    on515777   1.460   0.342   2.650 -0.2495 -0.1857 -0.8214
 2060ntf    fn415778   1.540   0.525   2.404 -0.0776 -0.2786  0.1882
 2060ntf    fn415779   1.666   0.539   2.578  0.0496 -0.2317  0.4524
 2060ntf    fn415780   1.730   0.426   2.414 -0.0384  0.2355  0.0506
 2061ntf    cn115781   6.039   5.275   5.219  0.2736 -0.3228  0.0380
 2061ntf    sn215782   6.103   5.248   5.387  0.0481  0.2420  0.2133
 2061ntf    nn315783   6.255   5.284   5.378  0.1377 -0.1572  0.1324
 2061ntf    sn215784   6.376   5.195   5.333  0.2578 -0.0980  0.3329
 2061ntf    cn115785   6.417   5.106   5.486 -0.5469 -0.4962  0.3190
 2061ntf    fn415786   5.908   5.257   5.221  0.2032  0.1406 -0.2414
 2061ntf    fn415787   6.062   5.396   5.171  0.2549 -0.0353  0.7555
 2061ntf    fn415788   6.095   5.193   5.131 -0.2986 -0.2513 -0.3997
 2061ntf    on515789   6.042   5.348   5.471  0.1678 -0.0272  0.6240
 2061ntf    on515790   6.080   5.111   5.425 -0.5223  0.3070  0.1201
 2061ntf    on515791   6.488   5.284   5.311  0.1736  0.0118  0.3532
 2061ntf    on515792   6.352   5.092   5.234  0.2018  0.1695  0.0671
 2061ntf    fn415793   6.542   5.065   5.479 -0.2844  0.3423 -0.0495
 2061ntf    fn415794   6.400   5.181   5.594  0.2465  0.3428 -0.1319
 2061ntf    fn415795   6.336   5.004   5.511  0.3868 -1.3627 -0.1450
 2062ntf    cn115796   3.792   1.569   5.714  0.0992  0.1496 -0.1781
 2062ntf    sn215797   3.619   1.579   5.662 -0.0215 -0.0399  0.1807
 2062ntf    nn315798   3.610   1.437   5.596  0.0087  0.2129 -0.3751
 2062ntf    sn215799   3.631   1.394   5.446  0.0962 -0.2467 -0.2329
 2062ntf    cn115800   3.463   1.410   5.378  0.0959 -0.0603 -0.1893
 2062ntf    fn415801   3.838   1.453   5.759 -0.2275  0.0067 -0.2131
 2062ntf    fn415802   3.869   1.592   5.609  0.4325  0.0988  0.0509
 2062ntf    fn415803   3.828   1.662   5.801  0.2065  0.0844 -0.1514
 2062ntf    on515804   3.549   1.572   5.788 -0.1337  0.4542  0.1489
 2062ntf    on515805   3.607   1.694   5.575 -0.2307  0.1428  0.4461
 2062ntf    on515806   3.654   1.252   5.445 -0.2934 -0.3128 -0.0511
 2062ntf    on515807   3.708   1.477   5.357  0.1426 -0.0426 -0.0037
 2062ntf    fn415808   3.478   1.390   5.248 -0.0094  0.1203 -0.2303
 2062ntf    fn415809   3.372   1.327   5.425  0.0333 -0.0873 -0.3584
 2062ntf    fn415810   3.419   1.535   5.386  0.0071 -0.1003 -0.0469
 2063ntf    cn115811   4.030   5.323   5.160  0.0752  0.0178  0.1669
 2063ntf    sn215812   3.946   5.484   5.164  0.1754  0.0849 -0.3825
 2063ntf    nn315813   3.915   5.495   5.011 -0.0702 -0.0462 -0.3417
 2063ntf    sn215814   3.780   5.450   4.944 -0.3423  0.5240 -0.1858
 2063ntf    cn115815   3.846   5.380   4.789 -0.0054  0.0652  0.1623
 2063ntf    fn415816   4.092   5.295   5.274 -0.2355  0.5596  0.4763
 2063ntf    fn415817   3.954   5.218   5.132 -0.1352  0.0302  0.6603
 2063ntf    fn415818   4.127   5.318   5.071  0.0252 -0.1885  0.1236
 2063ntf    on515819   3.839   5.464   5.259  0.8229 -0.3081  0.2790
 2063ntf    on515820   4.044   5.583   5.202  0.0104  0.0620  0.1177
 2063ntf    on515821   3.698   5.561   4.903 -0.0477  0.7985 -0.0367
 2063ntf    on515822   3.713   5.334   4.998  0.3039 -0.1195 -0.7302
 2063ntf    fn415823   3.916   5.461   4.712 -0.2125 -0.1073 -0.2084
 2063ntf    fn415824   3.925   5.279   4.822 -0.3224 -0.3821 -0.4396
 2063ntf    fn415825   3.745   5.339   4.714 -0.5059  0.8868  0.3772
 2064ntf    cn115826   5.697   2.441   0.942 -0.4929  0.0210  0.3121
 2064ntf    sn215827   5.654   2.617   0.934  0.3025  0.1961 -0.2722
 2064ntf    nn315828   5.676   2.639   0.780  0.3066  0.2575 -0.2631
 2064ntf    sn215829   5.573   2.641   0.662 -0.0878 -0.2372  0.0680
 2064ntf    cn115830   5.535   2.818   0.656  0.0036 -0.2284 -0.3005
 2064ntf    fn415831   5.604   2.368   0.882  0.3465 -0.6619 -0.1821
 2064ntf    fn415832   5.814   2.414   0.886 -0.5368  0.1855  0.1419
 2064ntf    fn415833   5.701   2.394   1.066  0.2351  0.0813  0.3164
 2064ntf    on515834   5.518   2.632   0.981  0.2122 -0.5261 -0.2978
 2064ntf    on515835   5.757   2.688   1.007  0.0248  0.5366 -0.2067
 2064ntf    on515836   5.447   2.572   0.676  0.0782 -0.5372  0.1157
 2064ntf    on515837   5.638   2.613   0.536  0.0809 -0.7122  0.2576
 2064ntf    fn415838   5.636   2.903   0.653 -0.1691 -0.0071  0.0385
 2064ntf    fn415839   5.466   2.855   0.549 -0.1030  0.2936 -0.0584
 2064ntf    fn415840   5.455   2.856   0.755  0.6958  0.6338 -0.0624
 2065ntf    cn115841   2.088   5.880   0.506  0.0674 -0.0412  0.1332
 2065ntf    sn215842   2.105   6.031   0.607  0.2760  0.0679 -0.0629
 2065ntf    nn315843   2.175   6.124   0.503 -0.2273  0.6421  0.1096
 2065ntf    sn215844   2.316   6.194   0.506  0.0322  0.1592 -0.5815
 2065ntf    cn115845   2.385   6.145   0.345  0.4427  0.1875 -0.4149
 2065ntf    fn415846   2.029   5.904   0.390 -0.1458  0.3513  0.3202
 2065ntf    fn415847   2.210   5.839   0.475  0.0793  0.2623 -0.2309
 2065ntf    fn415848   2.033   5.779   0.571  0.1900  0.2340  0.6783
 2065ntf    on515849   1.967   6.066   0.633  0.1265 -0.1665 -0.5339
 2065ntf    on515850   2.191   5.988   0.715  0.2730 -0.5932 -0.3144
 2065ntf    on515851   2.412   6.133   0.595 -0.0328  0.0432 -0.5907
 2065ntf    on515852   2.310   6.338   0.498  0.4579  0.2232  0.1860
 2065ntf    fn415853   2.324   6.192   0.237 -0.5141 -0.0978 -0.0116
 2065ntf    fn415854   2.511   6.178   0.322  0.6610 -0.2178  0.1948
 2065ntf    fn415855   2.374   6.014   0.328  0.0165  0.1636  0.0274
 2066ntf    cn115856   3.597   1.419   3.228  0.0203 -0.0614  0.3218
 2066ntf    sn215857   3.709   1.518   3.332  0.3722  0.1996 -0.2998
 2066ntf    nn315858   3.772   1.618   3.228  0.5931  0.1820 -0.1829
 2066ntf    sn215859   3.708   1.753   3.181 -0.2513 -0.2187 -0.1989
 2066ntf    cn115860   3.792   1.870   3.292  0.1288 -0.2500 -0.4513
 2066ntf    fn415861   3.523   1.341   3.305 -0.6595  0.7047  0.4611
 2066ntf    fn415862   3.512   1.485   3.152 -0.0653 -0.5580 -0.0173
 2066ntf    fn415863   3.670   1.345   3.145 -0.3416 -0.5306  0.4176
 2066ntf    on515864   3.624   1.569   3.436 -0.1429 -0.1596 -0.5431
 2066ntf    on515865   3.812   1.425   3.372  0.6727  0.6230 -0.0810
 2066ntf    on515866   3.568   1.763   3.216 -0.1834 -0.3761  0.1184
 2066ntf    on515867   3.754   1.786   3.049 -0.1594 -0.2496 -0.1744
 2066ntf    fn415868   3.923   1.857   3.279  0.1992 -0.5519  0.4782
 2066ntf    fn415869   3.769   1.998   3.266  0.9277 -0.0526 -0.2183
 2066ntf    fn415870   3.766   1.846   3.419  0.0142  0.0843 -0.4112
 2067ntf    cn115871   2.214   0.564   5.571 -0.0245  0.0504  0.4963
 2067ntf    sn215872   2.085   0.660   5.655 -0.2734  0.0504  0.1151
 2067ntf    nn315873   2.048   0.768   5.547 -0.1062 -0.1764 -0.1715
 2067ntf    sn215874   2.091   0.918   5.535  0.0094 -0.1645  0.3762
 2067ntf    cn115875   1.983   1.001   5.655 -0.2524  0.1726 -0.0905
 2067ntf    fn415876   2.314   0.641   5.531 -0.0601  0.0075  0.3243
 2067ntf    fn415877   2.272   0.474   5.649  0.6227  0.2895  0.2943
 2067ntf    fn415878   2.171   0.502   5.462  0.2832 -0.2913  0.5669
 2067ntf    on515879   1.976   0.568   5.675 -0.1748 -0.1299 -0.1796
 2067ntf    on515880   2.141   0.702   5.781 -0.5723  0.0916  0.2347
 2067ntf    on515881   2.049   0.980   5.412  0.2850 -0.6666  0.0292
 2067ntf    on515882   2.227   0.947   5.574  0.3230 -0.8751 -0.1752
 2067ntf    fn415883   1.855   1.000   5.620 -0.3532  0.5692  0.2562
 2067ntf    fn415884   1.986   0.933   5.768 -0.4348  0.0047 -0.1868
 2067ntf    fn415885   2.008   1.130   5.676 -0.0039  0.1888 -0.4935
 2068ntf    cn115886   3.488   6.552   2.103 -0.2153 -0.0884  0.7614
 2068ntf    sn215887   3.408   6.394   2.065 -0.1619  0.0764 -0.0556
 2068ntf    nn315888   3.508   6.346   1.954 -0.3433 -0.2276 -0.0901
 2068ntf    sn215889   3.511   6.381   1.801 -0.0990  0.2183  0.0131
 2068ntf    cn115890   3.519   6.217   1.723 -0.1728  0.1230  0.2052
 2068ntf    fn415891   3.480   6.635   2.000 -0.1508 -0.3442  0.5524
 2068ntf    fn415892   3.439   6.609   2.212  0.4574  0.1792  0.9314
 2068ntf    fn415893   3.619   6.539   2.115 -0.2062 -0.7909 -0.0594
 2068ntf    on515894   3.429   6.315   2.184  0.4484  0.5202  0.1343
 2068ntf    on515895   3.272   6.418   2.024 -0.0963  0.0797 -0.2723
 2068ntf    on515896   3.637   6.441   1.765 -0.1844  0.5862  0.3241
 2068ntf    on515897   3.391   6.435   1.743 -0.0165  0.6981  0.2889
 2068ntf    fn415898   3.424   6.136   1.769  0.5155 -0.5151  0.5155
 2068ntf    fn415899   3.504   6.219   1.591  0.2946 -0.0773  0.1463
 2068ntf    fn415900   3.636   6.157   1.738 -0.0553  0.2413 -0.2235
 2069ntf    cn115901   6.711   1.017   4.814 -0.5618 -0.2881  0.0852
 2069ntf    sn215902   6.828   0.880   4.838 -0.3211 -0.1388 -0.2336
 2069ntf    nn315903   6.749   0.801   4.948 -0.5484  0.2127 -0.1432
 2069ntf    sn215904   6.686   0.862   5.079  0.1536  0.1882  0.2126
 2069ntf    cn115905   6.756   0.742   5.196  0.5677  0.6603  0.4515
 2069ntf    fn415906   6.583   0.990   4.831 -0.7301  0.1539 -0.4424
 2069ntf    fn415907   6.736   1.128   4.882  0.1067 -0.0423 -0.5445
 2069ntf    fn415908   6.719   1.053   4.687  0.2931  0.7270  0.4038
 2069ntf    on515909   6.840   0.813   4.711 -1.1668 -0.3370 -0.2128
 2069ntf    on515910   6.945   0.948   4.890 -0.2388 -0.4024 -0.0738
 2069ntf    on515911   6.546   0.829   5.078  0.2449 -0.2188  0.9188
 2069ntf    on515912   6.733   0.987   5.133 -0.4396  0.4584  0.1134
 2069ntf    fn415913   6.704   0.745   5.317 -0.2164 -0.5269  0.1569
 2069ntf    fn415914   6.739   0.620   5.148  0.1880  0.7622  0.3259
 2069ntf    fn415915   6.885   0.767   5.215  0.7640  0.1905 -0.2139
 2070ntf    cn115916   0.531   0.902   0.282  0.4939  0.1735 -0.7984
 2070ntf    sn215917   0.444   1.038   0.366  0.1332 -0.3754 -0.2737
 2070ntf    nn315918   0.555   1.148   0.377 -0.2128 -0.0444 -0.0488
 2070ntf    sn215919   0.549   1.300   0.340  0.1697  0.0397  0.2340
 2070ntf    cn115920   0.596   1.299   0.164  0.3141  0.1783  0.2707
 2070ntf    fn415921   0.554   0.919   0.153  0.4080  0.0682 -0.8284
 2070ntf    fn415922   0.644   0.874   0.344 -0.0783  0.0093  0.2051
 2070ntf    fn415923   0.452   0.795   0.285  0.3409  0.3049  0.6496
 2070ntf    on515924   0.339   1.080   0.276 -0.5906 -1.0188  0.2507
 2070ntf    on515925   0.398   0.983   0.491 -0.5975  0.1163 -0.3228
 2070ntf    on515926   0.655   1.367   0.413  0.1681  0.4276 -0.1157
 2070ntf    on515927   0.425   1.373   0.346  0.3829  0.4116  0.2173
 2070ntf    fn415928   0.709   1.232   0.154  0.2483  0.1617 -0.3970
 2070ntf    fn415929   0.512   1.235   0.084  0.3743  0.6174 -0.1495
 2070ntf    fn415930   0.611   1.416   0.104  0.0744 -0.0149 -0.1681
 2071ntf    cn115931   3.395   6.622   4.676 -0.2158 -0.3356  0.2837
 2071ntf    sn215932   3.559   6.678   4.731 -0.1003 -0.3280 -0.0693
 2071ntf    nn315933   3.570   6.598   4.865 -0.3972 -0.7475 -0.2929
 2071ntf    sn215934   3.560   6.652   5.012 -0.1875 -0.3869 -0.4084
 2071ntf    cn115935   3.495   6.503   5.094  0.1745 -0.1826  0.2550
 2071ntf    fn415936   3.303   6.632   4.771  0.2422  0.2298  0.6821
 2071ntf    fn415937   3.348   6.691   4.574  0.1507 -0.1813  0.2169
 2071ntf    fn415938   3.395   6.494   4.646  0.1997 -0.1027 -0.7432
 2071ntf    on515939   3.652   6.624   4.635 -0.1525  0.0529 -0.3384
 2071ntf    on515940   3.543   6.821   4.749  0.7092 -0.3318  0.7287
 2071ntf    on515941   3.455   6.745   5.044  0.0482 -0.1704 -0.2586
 2071ntf    on515942   3.685   6.672   5.082 -0.2078  0.3701 -0.5781
 2071ntf    fn415943   3.371   6.478   5.057  0.1117 -0.1524  0.4444
 2071ntf    fn415944   3.560   6.389   5.075  0.1149 -0.1546 -0.1145
 2071ntf    fn415945   3.477   6.513   5.225  0.5264 -0.3898  0.3234
 2072ntf    cn115946   5.858   5.561   2.066  0.2448  0.0942 -0.0950
 2072ntf    sn215947   5.822   5.541   1.889 -0.2172  0.0992 -0.0022
 2072ntf    nn315948   5.749   5.677   1.861  0.0845  0.2606 -0.0165
 2072ntf    sn215949   5.801   5.819   1.820 -0.0972  0.2715 -0.2145
 2072ntf    cn115950   5.735   5.908   1.964  0.2566  0.0692  0.0733
 2072ntf    fn415951   5.936   5.666   2.087 -0.2081  0.4036  0.0465
 2072ntf    fn415952   5.746   5.579   2.133  0.2137 -0.0884 -0.0964
 2072ntf    fn415953   5.922   5.454   2.113  0.1057 -0.1634 -0.4845
 2072ntf    on515954   5.950   5.532   1.823 -0.2362  0.0073 -0.0265
 2072ntf    on515955   5.739   5.424   1.881  0.0124 -0.0888  0.3656
 2072ntf    on515956   5.730   5.880   1.710  0.0643  0.9516  0.0487
 2072ntf    on515957   5.940   5.854   1.838  0.1213 -0.2940 -0.7706
 2072ntf    fn415958   5.792   6.028   1.969 -0.7747  0.5708 -0.1141
 2072ntf    fn415959   5.605   5.929   1.952  0.2359  0.2121  0.5107
 2072ntf    fn415960   5.760   5.847   2.079  0.7443 -0.4020 -0.2781
 2073ntf    cn115961   1.402   3.209   6.293 -0.1779 -0.1897  0.0286
 2073ntf    sn215962   1.259   3.322   6.288  0.1887  0.2806  0.1182
 2073ntf    nn315963   1.324   3.465   6.290  0.2353  0.2573  0.2967
 2073ntf    sn215964   1.310   3.579   6.397 -0.0296  0.1974  0.3266
 2073ntf    cn115965   1.132   3.616   6.382 -0.0960 -0.2333  0.0354
 2073ntf    fn415966   1.354   3.090   6.324  0.6767 -0.5286  0.0867
 2073ntf    fn415967   1.482   3.200   6.188 -0.3585  0.1351 -0.1380
 2073ntf    fn415968   1.484   3.230   6.395 -0.3097  0.2872  0.0382
 2073ntf    on515969   1.192   3.306   6.161  0.2000  0.4302  0.0934
 2073ntf    on515970   1.179   3.284   6.401 -0.1628 -0.0613 -0.2442
 2073ntf    on515971   1.376   3.698   6.348 -0.0890  0.0303 -0.1661
 2073ntf    on515972   1.324   3.526   6.530  0.3849 -0.5301 -0.0041
 2073ntf    fn415973   1.061   3.513   6.424 -0.4675 -0.0818 -0.2194
 2073ntf    fn415974   1.099   3.724   6.450 -0.2960 -0.2887  0.0253
 2073ntf    fn415975   1.092   3.626   6.256  0.7533  0.0711 -0.2188
 2074ntf    cn115976   2.423   2.166   1.936  0.3189 -0.0028 -0.0028
 2074ntf    sn215977   2.505   2.051   2.050  0.0958 -0.0237  0.1372
 2074ntf    nn315978   2.578   2.161   2.135 -0.3304  0.2637  0.1354
 2074ntf    sn215979   2.732   2.180   2.159 -0.2853  0.1878 -0.0989
 2074ntf    cn115980   2.779   2.277   2.012  0.1781 -0.0852 -0.1330
 2074ntf    fn415981   2.313   2.107   1.891  0.2250 -0.0323  0.2611
 2074ntf    fn415982   2.374   2.271   2.001 -0.2983 -0.1940 -0.1551
 2074ntf    fn415983   2.485   2.207   1.827  0.4988 -0.2666  0.0005
 2074ntf    on515984   2.394   1.985   2.115  0.1331 -0.6051 -0.3845
 2074ntf    on515985   2.581   1.974   1.955 -0.2419  0.0468 -0.1907
 2074ntf    on515986   2.812   2.060   2.149 -0.1860  0.1607  0.9522
 2074ntf    on515987   2.757   2.271   2.267 -0.2134  0.2439 -0.1628
 2074ntf    fn415988   2.910   2.292   1.998  0.1736 -0.2571 -0.3756
 2074ntf    fn415989   2.732   2.227   1.899 -0.3152  0.6380 -0.2500
 2074ntf    fn415990   2.735   2.401   2.015  0.0851 -0.1097 -0.4650
 2075ntf    cn115991   2.049   5.509   5.970 -0.2560  0.4471  0.4026
 2075ntf    sn215992   1.988   5.339   5.993 -0.3127  0.3833 -0.2048
 2075ntf    nn315993   1.898   5.343   6.121  0.3976  0.5774  0.2976
 2075ntf    sn215994   1.900   5.247   6.245  0.0286 -0.1065 -0.2194
 2075ntf    cn115995   2.020   5.336   6.349 -0.2422 -0.1607  0.1407
 2075ntf    fn415996   1.956   5.590   5.923 -0.4351  0.2153  0.3563
 2075ntf    fn415997   2.103   5.557   6.081  0.2869  0.1340  0.2800
 2075ntf    fn415998   2.146   5.530   5.882 -0.1797  0.1792  0.4208
 2075ntf    on515999   1.913   5.310   5.873  0.3083 -0.0020 -0.5108
 2075ntf    on516000   2.114   5.270   6.010 -0.3239  0.2570 -0.6184
 2075ntf    on516001   1.963   5.118   6.233  0.2500 -0.0824  0.6072
 2075ntf    on516002   1.781   5.257   6.326  0.3250  0.6852  0.1185
 2075ntf    fn416003   2.134   5.346   6.284 -0.3591 -0.1801 -0.0713
 2075ntf    fn416004   1.988   5.457   6.393  0.2142  0.0726 -0.1548
 2075ntf    fn416005   2.044   5.272   6.462 -0.4343 -0.1520  0.1867
 2076ntf    cn116006   0.047   3.161   4.422 -0.0899 -0.1230 -0.0887
 2076ntf    sn216007   0.141   3.006   4.410  0.0974 -0.0243  0.0974
 2076ntf    nn316008   0.244   3.019   4.527  0.2475  0.5303 -0.0921
 2076ntf    sn216009   0.246   2.980   4.679  0.0245 -0.0495 -0.2379
 2076ntf    cn116010   0.362   3.097   4.756  0.1905 -0.0419 -0.5004
 2076ntf    fn416011  -0.045   3.171   4.326 -0.3566 -0.3356  0.1416
 2076ntf    fn416012  -0.017   3.169   4.538  0.1229  0.4117 -0.0079
 2076ntf    fn416013   0.124   3.266   4.400 -0.1978 -0.0198  0.0228
 2076ntf    on516014   0.045   2.898   4.413 -0.3762  0.3351 -1.1459
 2076ntf    on516015   0.203   3.021   4.280  0.5845  0.3814  0.3720
 2076ntf    on516016   0.305   2.850   4.699 -0.0438 -0.1621 -0.7515
 2076ntf    on516017   0.121   2.999   4.749 -0.0467 -0.4701 -0.2460
 2076ntf    fn416018   0.484   3.094   4.704  0.2274  0.2405 -0.4291
 2076ntf    fn416019   0.323   3.217   4.718 -0.1112 -0.1139 -0.4229
 2076ntf    fn416020   0.368   3.100   4.888 -0.0171  0.1882 -0.4964
 2077ntf    cn116021   5.880   5.638   5.065  0.1453  0.3051  0.1499
 2077ntf    sn216022   5.962   5.765   4.964 -0.0879  0.1466 -0.2381
 2077ntf    nn316023   5.921   5.895   5.040  0.0093  0.1236 -0.1459
 2077ntf    sn216024   5.999   5.968   5.155  0.2452  0.2579 -0.3920
 2077ntf    cn116025   6.112   6.067   5.051  0.6061  0.3397  0.0702
 2077ntf    fn416026   5.893   5.515   5.018  0.7180  0.3329  0.2310
 2077ntf    fn416027   5.932   5.629   5.187  0.2253 -0.5868  0.0572
 2077ntf    fn416028   5.752   5.669   5.080  0.1489  0.2884  0.2155
 2077ntf    on516029   6.102   5.731   4.966 -0.1372 -0.0555 -0.1582
 2077ntf    on516030   5.887   5.752   4.841 -0.1634  0.0924 -0.1861
 2077ntf    on516031   6.081   5.892   5.246 -0.3273 -0.0887 -0.1644
 2077ntf    on516032   5.916   6.069   5.216  0.6875  0.4424 -0.0807
 2077ntf    fn416033   6.140   6.000   4.940 -0.2172 -0.2620  0.2122
 2077ntf    fn416034   6.053   6.179   5.014  0.3823  0.3107  0.3348
 2077ntf    fn416035   6.227   6.096   5.109  0.3849  0.2438  0.5623
 2078ntf    cn116036   5.960   1.695   2.584 -0.0294  0.2422  0.2015
 2078ntf    sn216037   6.058   1.801   2.473 -0.1154  0.1654  0.0513
 2078ntf    nn316038   6.179   1.826   2.569 -0.3074 -0.1091  0.3658
 2078ntf    sn216039   6.318   1.752   2.570 -0.2577 -0.0200  0.1169
 2078ntf    cn116040   6.324   1.709   2.747  0.0655 -0.4175  0.0085
 2078ntf    fn416041   5.918   1.759   2.691 -0.0616  0.2601  0.1778
 2078ntf    fn416042   5.851   1.651   2.523 -0.1605  0.7615  0.0542
 2078ntf    fn416043   6.027   1.596   2.641  0.2668  0.4965  0.2955
 2078ntf    on516044   6.087   1.728   2.352  0.5065 -0.0264  0.3144
 2078ntf    on516045   5.983   1.923   2.458  0.0055  0.3275  0.7243
 2078ntf    on516046   6.436   1.835   2.563 -0.1633 -0.1013  0.6844
 2078ntf    on516047   6.322   1.626   2.502  0.3490  0.0229  0.0666
 2078ntf    fn416048   6.220   1.634   2.780 -0.4734  0.1989 -0.2516
 2078ntf    fn416049   6.434   1.642   2.777  0.4741  0.3637  0.2848
 2078ntf    fn416050   6.327   1.819   2.819 -0.0574 -0.1340 -0.4151
 2079ntf    cn116051   0.635   0.958   3.029 -0.0002  0.2767  0.0306
 2079ntf    sn216052   0.523   1.041   2.912 -0.0131  0.0554 -0.1145
 2079ntf    nn316053   0.466   1.165   2.990 -0.1576 -0.3649  0.4563
 2079ntf    sn216054   0.334   1.170   3.076 -0.3842  0.0905  0.0850
 2079ntf    cn116055   0.225   1.249   2.953  0.0712 -0.1482 -0.4778
 2079ntf    fn416056   0.721   1.053   3.065  0.5742 -0.1340 -0.2346
 2079ntf    fn416057   0.578   0.920   3.142  0.1002  0.1607  0.0429
 2079ntf    fn416058   0.692   0.845   2.990 -0.1715  0.2888 -0.2557
 2079ntf    on516059   0.617   1.088   2.814  0.5744 -0.1476  0.3451
 2079ntf    on516060   0.434   0.938   2.865 -0.0760  0.0146  0.0907
 2079ntf    on516061   0.340   1.275   3.175 -0.6032  0.2613 -0.0818
 2079ntf    on516062   0.273   1.041   3.097  0.1898 -0.3393 -0.8300
 2079ntf    fn416063   0.104   1.268   3.003  0.1649  0.2786 -0.4102
 2079ntf    fn416064   0.279   1.359   2.904  0.7880 -0.2098  0.1528
 2079ntf    fn416065   0.207   1.171   2.848  0.1286 -0.8385  0.0159
 2080ntf    cn116066   1.863   1.452   4.757  0.2143  0.4998  0.1365
 2080ntf    sn216067   1.795   1.614   4.804 -0.4256  0.2407  0.1133
 2080ntf    nn316068   1.726   1.580   4.941  0.6921 -0.6007  0.4852
 2080ntf    sn216069   1.794   1.584   5.083  0.5183  0.0058  0.5526
 2080ntf    cn116070   1.765   1.755   5.136  0.1809  0.1585 -0.1061
 2080ntf    fn416071   1.770   1.360   4.736  0.4639  0.3524 -0.3510
 2080ntf    fn416072   1.941   1.456   4.649  0.4335 -0.6318  0.2377
 2080ntf    fn416073   1.948   1.404   4.846 -0.0604  0.2536  0.2641
 2080ntf    on516074   1.919   1.688   4.813 -0.0710 -0.2749 -0.4886
 2080ntf    on516075   1.706   1.644   4.695  0.1887  1.2199 -0.1245
 2080ntf    on516076   1.934   1.552   5.074  0.4169 -0.2332 -0.2570
 2080ntf    on516077   1.720   1.513   5.184 -0.3909 -0.4812 -0.4288
 2080ntf    fn416078   1.644   1.795   5.099  0.1399 -0.1414 -0.2985
 2080ntf    fn416079   1.782   1.778   5.266  0.0266  0.1485 -0.0840
 2080ntf    fn416080   1.845   1.841   5.076 -0.0023  0.1963 -0.2968
 2081ntf    cn116081   3.135   0.102   1.375  0.2133 -0.0374 -0.0449
 2081ntf    sn216082   3.124   0.101   1.193  0.3320 -0.3434 -0.0500
 2081ntf    nn316083   3.241   0.001   1.161  0.5596 -0.1016  0.0222
 2081ntf    sn216084   3.237  -0.143   1.100 -0.0163 -0.2308  0.3590
 2081ntf    cn116085   3.361  -0.137   0.967 -0.3652  0.3843  0.0592
 2081ntf    fn416086   3.250   0.149   1.420  0.1551  0.0154  0.0506
 2081ntf    fn416087   3.046   0.183   1.430  0.2950  0.3452 -0.4659
 2081ntf    fn416088   3.112  -0.011   1.439  0.6135  0.0635  0.2822
 2081ntf    on516089   2.986   0.065   1.174  0.0415  0.4431  0.5190
 2081ntf    on516090   3.154   0.240   1.168 -0.4059 -0.1476  0.1395
 2081ntf    on516091   3.108  -0.173   1.042  0.1355  0.5838 -0.4155
 2081ntf    on516092   3.289  -0.235   1.198  0.6806 -0.0441  0.1701
 2081ntf    fn416093   3.326  -0.041   0.883 -0.0731  0.1899 -0.2861
 2081ntf    fn416094   3.486  -0.107   0.997 -0.1762 -0.1659 -0.1604
 2081ntf    fn416095   3.363  -0.251   0.899 -0.5049  0.4587 -0.0710
 2082ntf    cn116096   6.154   1.836   6.075 -0.2126 -0.2568 -0.1461
 2082ntf    sn216097   6.018   1.717   6.098 -0.3085 -0.1184  0.0120
 2082ntf    nn316098   5.893   1.812   6.092 -0.1843  0.0470  0.0243
 2082ntf    sn216099   5.828   1.878   5.966 -0.0607 -0.0429 -0.0870
 2082ntf    cn116100   5.651   1.853   6.000 -0.1052  0.4957  0.0840
 2082ntf    fn416101   6.161   1.934   6.164 -0.4830  0.0974 -0.5092
 2082ntf    fn416102   6.274   1.781   6.077 -0.4070 -0.6790  0.0266
 2082ntf    fn416103   6.143   1.908   5.965 -0.2082  0.1220  0.1001
 2082ntf    on516104   6.036   1.628   5.986  0.0456  0.0074 -0.0335
 2082ntf    on516105   6.037   1.673   6.234  0.4055 -0.0796 -0.0677
 2082ntf    on516106   5.856   1.805   5.845  0.1388  0.3066 -0.2550
 2082ntf    on516107   5.841   2.022   5.964  0.5065 -0.0834  0.4655
 2082ntf    fn416108   5.576   1.950   5.951 -0.1252  0.2315 -0.4176
 2082ntf    fn416109   5.614   1.737   5.948  0.6772  0.2303  0.1052
 2082ntf    fn416110   5.629   1.847   6.130 -0.4653  0.4898  0.0244
 2083ntf    cn116111   2.431   3.955   3.936  0.1207 -0.2029 -0.1058
 2083ntf    sn216112   2.300   3.829   3.941  0.2470 -0.3324 -0.0655
 2083ntf    nn316113   2.189   3.903   4.023  0.1456 -0.2692 -0.2594
 2083ntf    sn216114   2.067   3.832   4.092 -0.0216  0.0832 -0.1919
 2083ntf    cn116115   2.129   3.784   4.256 -0.0181 -0.2086 -0.2774
 2083ntf    fn416116   2.391   4.073   3.891  0.2700 -0.1257 -0.0376
 2083ntf    fn416117   2.492   3.969   4.053 -0.0251  0.3536 -0.0929
 2083ntf    fn416118   2.527   3.918   3.853  0.0992  0.6846 -0.5346
 2083ntf    on516119   2.264   3.791   3.807 -0.2607  0.0365 -0.0350
 2083ntf    on516120   2.365   3.731   4.026  0.2696 -0.5347 -0.3139
 2083ntf    on516121   2.016   3.712   4.031  0.4955 -0.1230 -0.2166
 2083ntf    on516122   1.957   3.921   4.122  0.2238  0.4157 -0.2737
 2083ntf    fn416123   2.176   3.881   4.333  0.2699 -0.6789  0.1465
 2083ntf    fn416124   2.033   3.726   4.327  0.1645 -0.2491 -0.0646
 2083ntf    fn416125   2.226   3.694   4.253 -0.1637 -0.3797  0.1444
 2084ntf    cn116126   5.613   4.325   5.207 -0.1547  0.1687 -0.1020
 2084ntf    sn216127   5.665   4.152   5.190  0.1823  0.2426  0.1683
 2084ntf    nn316128   5.525   4.082   5.178  0.2813  0.0219  0.3049
 2084ntf    sn216129   5.449   3.990   5.280 -0.0609 -0.5189 -0.4299
 2084ntf    cn116130   5.280   4.048   5.252  0.0828 -0.0129 -0.2487
 2084ntf    fn416131   5.529   4.342   5.309  0.3316 -0.0555  0.3424
 2084ntf    fn416132   5.710   4.414   5.220  0.1668 -0.2331  0.2762
 2084ntf    fn416133   5.553   4.356   5.094  0.2185  0.0086 -0.3444
 2084ntf    on516134   5.739   4.154   5.066 -0.1782  0.1998 -0.0470
 2084ntf    on516135   5.745   4.111   5.303  0.4700 -0.3568 -0.2497
 2084ntf    on516136   5.481   4.025   5.416  0.3170 -0.4642 -0.5306
 2084ntf    on516137   5.452   3.853   5.234 -0.2348 -0.4946 -0.5131
 2084ntf    fn416138   5.246   4.058   5.124 -0.3839  0.0604 -0.1236
 2084ntf    fn416139   5.188   3.971   5.307 -0.0285  0.1793 -0.1644
 2084ntf    fn416140   5.264   4.173   5.294 -0.6238 -0.2674  0.2561
 2085ntf    cn116141   5.701   5.704   6.048 -0.3177  0.0900  0.2543
 2085ntf    sn216142   5.775   5.705   5.881 -0.2211  0.2165  0.2979
 2085ntf    nn316143   5.877   5.823   5.874  0.1251 -0.1198 -0.4062
 2085ntf    sn216144   5.857   5.971   5.824  0.1196 -0.1091 -0.3736
 2085ntf    cn116145   5.933   5.964   5.659  0.6562  0.3810 -0.1505
 2085ntf    fn416146   5.639   5.588   6.060 -0.3158  0.1268  0.6290
 2085ntf    fn416147   5.775   5.717   6.156 -0.3409  0.4099  0.2323
 2085ntf    fn416148   5.607   5.796   6.057 -0.0359  0.3623  0.4245
 2085ntf    on516149   5.845   5.579   5.872 -0.1612  0.2307  0.5550
 2085ntf    on516150   5.661   5.713   5.793  0.0095 -0.0922 -0.0281
 2085ntf    on516151   5.941   6.062   5.898  0.0354 -0.4563  0.1542
 2085ntf    on516152   5.725   6.018   5.790  0.1705  0.1057 -0.2765
 2085ntf    fn416153   5.910   5.845   5.606  0.1628 -0.0295  0.9493
 2085ntf    fn416154   5.874   6.046   5.573  0.2507 -0.0832 -0.3171
 2085ntf    fn416155   6.063   5.982   5.647  0.7384 -0.1689 -0.0793
 2086ntf    cn116156   2.861   6.176   4.359  0.0620  0.2049  0.1180
 2086ntf    sn216157   2.811   6.089   4.510  0.0497  0.0637  0.0333
 2086ntf    nn316158   2.927   5.985   4.530  0.3818  0.3565 -0.3613
 2086ntf    sn216159   3.050   5.985   4.627  0.1990  0.0539 -0.1273
 2086ntf    cn116160   2.972   5.910   4.773 -0.0467  0.1065 -0.2309
 2086ntf    fn416161   2.909   6.097   4.264  0.1665  0.4890 -0.0675
 2086ntf    fn416162   2.760   6.243   4.307  0.0979 -0.0731 -0.3183
 2086ntf    fn416163   2.962   6.255   4.390 -0.1582  0.5113  0.0537
 2086ntf    on516164   2.807   6.190   4.613  0.2503  0.1931 -0.0847
 2086ntf    on516165   2.682   6.030   4.481  0.1483  0.0035 -0.2816
 2086ntf    on516166   3.106   6.111   4.667  0.2060 -0.0436  0.1743
 2086ntf    on516167   3.140   5.878   4.590 -0.3196 -0.4807  0.1358
 2086ntf    fn416168   2.902   5.799   4.757 -0.2596  0.1734  0.2390
 2086ntf    fn416169   3.067   5.884   4.861 -0.2064 -0.6451 -0.2772
 2086ntf    fn416170   2.885   5.992   4.830  0.1525  0.0258  0.1935
 2087ntf    cn116171   2.072   4.457   6.600 -0.0252  0.3274 -0.0314
 2087ntf    sn216172   1.916   4.549   6.613 -0.2004 -0.0071  0.2598
 2087ntf    nn316173   1.973   4.663   6.705  0.8519  0.0833 -0.4842
 2087ntf    sn216174   2.006   4.809   6.659  0.1136  0.3527 -0.1736
 2087ntf    cn116175   1.844   4.891   6.653  0.0486  0.2341 -0.0329
 2087ntf    fn416176   2.179   4.534   6.588 -0.1206  0.3667 -0.6821
 2087ntf    fn416177   2.089   4.391   6.713 -0.6052  0.5206  0.1707
 2087ntf    fn416178   2.063   4.379   6.494  0.8856  0.5933 -0.3107
 2087ntf    on516179   1.879   4.591   6.480  0.0384 -0.1386  0.1527
 2087ntf    on516180   1.819   4.472   6.687 -0.1544 -0.3640 -0.0501
 2087ntf    on516181   2.053   4.826   6.524  0.1653  0.5112 -0.1373
 2087ntf    on516182   2.090   4.880   6.752  0.0629 -0.1034  0.2242
 2087ntf    fn416183   1.786   4.865   6.537  0.5105  0.7659 -0.3838
 2087ntf    fn416184   1.759   4.852   6.747 -0.0460 -0.1470 -0.2720
 2087ntf    fn416185   1.853   5.023   6.652  0.5032  0.2045  0.1068
 2088ntf    cn116186   5.648   2.809   2.362 -0.0261  0.1735  0.1550
 2088ntf    sn216187   5.783   2.905   2.436  0.2175 -0.1375  0.1192
 2088ntf    nn316188   5.697   3.035   2.458  0.3945 -0.0452  0.2636
 2088ntf    sn216189   5.655   3.118   2.585  0.1072  0.0638  0.0961
 2088ntf    cn116190   5.477   3.125   2.547  0.2177  0.0411 -0.4325
 2088ntf    fn416191   5.629   2.698   2.432 -0.1080  0.2176  0.2030
 2088ntf    fn416192   5.535   2.873   2.338 -0.1591 -0.0984  0.0561
 2088ntf    fn416193   5.687   2.755   2.248  0.5082  0.2886  0.2785
 2088ntf    on516194   5.837   2.835   2.550  0.5133 -0.1645 -0.0369
 2088ntf    on516195   5.872   2.919   2.324 -0.0015  0.1874 -0.0180
 2088ntf    on516196   5.700   3.254   2.569 -0.1632  0.1656  0.1871
 2088ntf    on516197   5.675   3.049   2.709 -0.1933 -0.6813 -0.2655
 2088ntf    fn416198   5.446   3.223   2.464  0.3422  0.1814 -0.3138
 2088ntf    fn416199   5.429   3.017   2.488 -0.4666  0.1468 -0.0676
 2088ntf    fn416200   5.403   3.138   2.655  0.6431 -0.0077 -0.1348
 2089ntf    cn116201   4.513   5.286   4.140  0.1769  0.3320 -0.2973
 2089ntf    sn216202   4.477   5.123   4.211  0.0820  0.3295 -0.3509
 2089ntf    nn316203   4.413   5.052   4.086  0.3007 -0.2754 -0.1275
 2089ntf    sn216204   4.463   4.922   4.015  0.1259 -0.3133 -0.1834
 2089ntf    cn116205   4.368   4.918   3.860  0.2369  0.1297 -0.2656
 2089ntf    fn416206   4.575   5.281   4.023  0.0763 -0.2300 -0.3316
 2089ntf    fn416207   4.401   5.355   4.127 -0.0139  0.0695 -0.0425
 2089ntf    fn416208   4.590   5.361   4.218 -0.1166  0.3668 -0.0408
 2089ntf    on516209   4.605   5.075   4.256 -0.0970  0.4038  0.2539
 2089ntf    on516210   4.382   5.148   4.316  0.7140  0.2608  0.2423
 2089ntf    on516211   4.434   4.794   4.074  0.0145  0.1420  0.7659
 2089ntf    on516212   4.596   4.941   3.961  0.0700 -0.4057 -0.3564
 2089ntf    fn416213   4.244   4.873   3.864  0.5267 -0.6273  0.4607
 2089ntf    fn416214   4.354   5.043   3.820  0.0922  0.1136 -0.2666
 2089ntf    fn416215   4.421   4.842   3.765  0.1749  0.1983 -0.3555
 2090ntf    cn116216   3.027   3.527   1.718  0.0312  0.3550 -0.1410
 2090ntf    sn216217   3.101   3.531   1.552  0.1385  0.1120 -0.1000
 2090ntf    nn316218   3.124   3.378   1.529 -0.1494 -0.0003  0.3392
 2090ntf    sn216219   3.229   3.285   1.599 -0.1085  0.0327  0.3217
 2090ntf    cn116220   3.351   3.255   1.467 -0.3435  0.3109  0.0417
 2090ntf    fn416221   3.111   3.474   1.806  0.0561  0.4407 -0.1130
 2090ntf    fn416222   3.007   3.648   1.768 -1.0959  0.1998 -0.1977
 2090ntf    fn416223   2.912   3.462   1.717  0.1611  0.1297 -0.4744
 2090ntf    on516224   2.997   3.589   1.471  0.1900  0.6124  0.1824
 2090ntf    on516225   3.222   3.607   1.572  0.3656 -0.2061 -0.2628
 2090ntf    on516226   3.173   3.155   1.626  0.4961 -0.3790 -0.3428
 2090ntf    on516227   3.307   3.348   1.702  0.0957  0.2284  0.0517
 2090ntf    fn416228   3.376   3.368   1.402  0.3175  0.1206 -0.0374
 2090ntf    fn416229   3.460   3.198   1.514 -0.2349  0.2712 -0.2578
 2090ntf    fn416230   3.308   3.169   1.376  0.0187 -0.2659  0.4174
 2091ntf    cn116231   3.436   5.309   2.804  0.3082 -0.2114  0.4536
 2091ntf    sn216232   3.391   5.485   2.821 -0.0922 -0.2835  0.1509
 2091ntf    nn316233   3.272   5.483   2.719 -0.1988 -0.3006  0.2768
 2091ntf    sn216234   3.116   5.495   2.734 -0.2482 -0.2484 -0.2633
 2091ntf    cn116235   3.057   5.438   2.572 -0.2011 -0.1642 -0.3101
 2091ntf    fn416236   3.548   5.288   2.871  0.2952 -0.6426  0.3389
 2091ntf    fn416237   3.346   5.219   2.840 -0.2058 -0.1445 -0.6141
 2091ntf    fn416238   3.463   5.282   2.677  0.6593 -0.3538  0.5567
 2091ntf    on516239   3.344   5.511   2.954  0.2133 -0.2718  0.2579
 2091ntf    on516240   3.508   5.552   2.769 -0.2993 -0.1199 -0.1051
 2091ntf    on516241   3.068   5.631   2.747 -0.2973 -0.2345 -0.5819
 2091ntf    on516242   3.059   5.399   2.824 -0.5172  0.2066  0.0585
 2091ntf    fn416243   2.925   5.437   2.564 -0.2005  0.5776 -0.5164
 2091ntf    fn416244   3.103   5.506   2.468  0.1774 -0.0485 -0.0666
 2091ntf    fn416245   3.094   5.312   2.557 -0.0628 -0.2256  0.5248
 2092ntf    cn116246   1.888   3.232   4.114  0.0766 -0.1309  0.2373
 2092ntf    sn216247   1.712   3.192   4.086  0.1889 -0.2397 -0.3242
 2092ntf    nn316248   1.683   3.285   3.964  0.1823  0.3206  0.1012
 2092ntf    sn216249   1.546   3.351   3.927  0.0112  0.0985  0.3385
 2092ntf    cn116250   1.555   3.507   4.021  0.1715  0.5939 -0.4830
 2092ntf    fn416251   1.905   3.357   4.153 -0.0759  0.0504 -0.2742
 2092ntf    fn416252   1.950   3.148   4.195  0.3607 -0.0210  0.1342
 2092ntf    fn416253   1.959   3.223   4.003  0.2582 -0.2299  0.3625
 2092ntf    on516254   1.712   3.053   4.048 -0.5418 -0.3635  0.1269
 2092ntf    on516255   1.656   3.218   4.217  0.1847 -0.3777 -0.2979
 2092ntf    on516256   1.427   3.287   3.975 -0.3017  0.5450  0.1723
 2092ntf    on516257   1.539   3.399   3.791  0.3545 -0.0844  0.2550
 2092ntf    fn416258   1.463   3.591   3.977 -0.0646  0.5836 -0.0139
 2092ntf    fn416259   1.535   3.479   4.149  0.0059  0.0582 -0.6209
 2092ntf    fn416260   1.666   3.577   4.011  0.0943  0.8056  0.0866
 2093ntf    cn116261   2.730   0.344   0.490 -0.0026 -0.0932 -0.0138
 2093ntf    sn216262   2.815   0.193   0.436  0.0481 -0.0779  0.0230
 2093ntf    nn316263   2.751   0.177   0.294  0.0519  0.1349 -0.0026
 2093ntf    sn216264   2.620   0.095   0.270 -0.1258  0.4273 -0.0426
 2093ntf    cn116265   2.681  -0.072   0.230 -0.6029  0.2079  0.1409
 2093ntf    fn416266   2.722   0.436   0.395 -0.5487  0.1307  0.2410
 2093ntf    fn416267   2.604   0.322   0.523 -0.0336 -0.1250 -0.1520
 2093ntf    fn416268   2.802   0.397   0.588  0.3305 -0.0111 -0.3016
 2093ntf    on516269   2.952   0.236   0.426 -0.1195  0.3390 -0.5138
 2093ntf    on516270   2.787   0.098   0.541  0.5896 -0.3495 -0.0737
 2093ntf    on516271   2.548   0.134   0.151 -0.5236 -0.1461  0.0019
 2093ntf    on516272   2.540   0.073   0.388  0.1585 -0.1120  0.0568
 2093ntf    fn416273   2.774  -0.069   0.137 -0.6049 -0.1578  0.1251
 2093ntf    fn416274   2.730  -0.128   0.340 -0.1680  0.5923  0.1425
 2093ntf    fn416275   2.591  -0.160   0.188 -0.3226  0.1791 -0.4045
 2094ntf    cn116276   2.818   3.266   0.363  0.0407 -0.0375 -0.2872
 2094ntf    sn216277   2.844   3.433   0.296 -0.1567 -0.0610 -0.4252
 2094ntf    nn316278   2.776   3.410   0.157 -0.1407 -0.6000 -0.3481
 2094ntf    sn216279   2.829   3.454   0.016  0.2762 -0.1165 -0.0395
 2094ntf    cn116280   2.926   3.308  -0.031  0.3430  0.0129 -0.3105
 2094ntf    fn416281   2.839   3.179   0.265  0.6129 -0.1078 -0.1042
 2094ntf    fn416282   2.911   3.239   0.452  0.3759 -0.0984 -0.6527
 2094ntf    fn416283   2.701   3.230   0.414  0.1373  0.0867  0.0207
 2094ntf    on516284   2.784   3.517   0.396  0.4258 -0.2726  0.1129
 2094ntf    on516285   2.988   3.437   0.295 -0.1647  0.3258 -0.1725
 2094ntf    on516286   2.936   3.551   0.012  0.2522 -0.0420  0.9268
 2094ntf    on516287   2.723   3.459  -0.081  0.4160  0.1773 -0.1785
 2094ntf    fn416288   2.996   3.318  -0.142  0.6261 -0.5488 -0.1913
 2094ntf    fn416289   3.011   3.269   0.063  0.2981 -0.2121 -0.3619
 2094ntf    fn416290   2.848   3.204  -0.056 -0.0634  0.2774 -0.1555
 2095ntf    cn116291   2.286   1.031   6.420  0.2562  0.0002  0.1588
 2095ntf    sn216292   2.342   1.196   6.367  0.1148 -0.0455 -0.1348
 2095ntf    nn316293   2.461   1.219   6.467 -0.3132 -0.1860  0.4111
 2095ntf    sn216294   2.471   1.333   6.575 -0.0466 -0.0482  0.2420
 2095ntf    cn116295   2.440   1.235   6.725  0.1739 -0.3209  0.1112
 2095ntf    fn416296   2.227   1.032   6.539  0.1714 -0.3803  0.1208
 2095ntf    fn416297   2.200   0.979   6.334  0.4381  0.5609 -0.3679
 2095ntf    fn416298   2.392   0.954   6.439  0.2812 -0.0397 -0.1481
 2095ntf    on516299   2.381   1.166   6.232  0.2930  0.1796 -0.1329
 2095ntf    on516300   2.229   1.284   6.386 -0.3957 -0.6462 -0.3495
 2095ntf    on516301   2.372   1.437   6.581 -0.3268 -0.3381  0.7305
 2095ntf    on516302   2.603   1.386   6.597  0.2029 -0.2493 -0.7378
 2095ntf    fn416303   2.321   1.176   6.721 -0.1643  0.3564 -0.0028
 2095ntf    fn416304   2.528   1.141   6.752 -0.1995 -0.5347  0.6121
 2095ntf    fn416305   2.445   1.312   6.833 -0.1636  0.4612 -0.4194
 2096ntf    cn116306   4.655   4.099   2.535  0.0034 -0.5245 -0.1058
 2096ntf    sn216307   4.529   4.152   2.654  0.2880  0.2280 -0.1296
 2096ntf    nn316308   4.595   4.109   2.790 -0.3104 -0.3757 -0.0216
 2096ntf    sn216309   4.523   4.052   2.917 -0.3309  0.1658  0.2130
 2096ntf    cn116310   4.546   3.876   2.877 -0.0861  0.2156  0.1344
 2096ntf    fn416311   4.773   4.153   2.559 -0.0351 -0.6061  0.2719
 2096ntf    fn416312   4.665   3.968   2.548  0.3884 -0.4924 -0.0713
 2096ntf    fn416313   4.616   4.128   2.412 -0.4362 -0.1116  0.1276
 2096ntf    on516314   4.529   4.295   2.636 -0.6056  0.2255 -0.2160
 2096ntf    on516315   4.406   4.085   2.618 -0.0262  0.3946  0.6017
 2096ntf    on516316   4.380   4.070   2.926 -0.4448 -0.5448 -0.0711
 2096ntf    on516317   4.602   4.055   3.038  0.6861 -0.4927 -0.4207
 2096ntf    fn416318   4.466   3.798   2.948  0.1487  0.3726  0.5777
 2096ntf    fn416319   4.514   3.850   2.752  0.9753 -0.2144 -0.0644
 2096ntf    fn416320   4.665   3.820   2.894 -0.1507  0.0868  0.1653
 2097ntf    cn116321   5.679   3.370   6.070 -0.0730 -0.3581  0.5076
 2097ntf    sn216322   5.846   3.358   6.143  0.0295 -0.0365  0.3284
 2097ntf    nn316323   5.874   3.510   6.168 -0.3442  0.0653  0.1429
 2097ntf    sn216324   5.925   3.618   6.066 -0.0232  0.0477  0.2837
 2097ntf    cn116325   5.796   3.740   6.103  0.2009  0.4982 -0.3975
 2097ntf    fn416326   5.584   3.400   6.157 -0.7767 -0.3560 -0.2508
 2097ntf    fn416327   5.673   3.465   5.978  0.1186 -0.3493  0.5023
 2097ntf    fn416328   5.636   3.260   6.010  0.8511 -0.4565 -0.0035
 2097ntf    on516329   5.813   3.287   6.264 -0.7883  0.1590  0.2308
 2097ntf    on516330   5.924   3.283   6.047  0.4532 -0.0595  0.6894
 2097ntf    on516331   5.889   3.590   5.929  0.3066  0.2964  0.1459
 2097ntf    on516332   6.050   3.682   6.098 -0.1390  0.5946 -0.3332
 2097ntf    fn416333   5.672   3.694   6.100  0.3839  0.0053 -0.3849
 2097ntf    fn416334   5.816   3.782   6.227 -0.0011 -0.3244 -0.0776
 2097ntf    fn416335   5.799   3.848   6.027  0.1786  0.6244 -0.2216
 2098ntf    cn116336   6.628   4.738   2.721  0.1667 -0.1690  0.1506
 2098ntf    sn216337   6.770   4.754   2.834  0.1494  0.0874  0.1376
 2098ntf    nn316338   6.710   4.686   2.961  0.3612  0.0661  0.2268
 2098ntf    sn216339   6.651   4.755   3.089 -0.1721  0.1056 -0.0375
 2098ntf    cn116340   6.794   4.789   3.196 -0.0405 -0.3767 -0.0578
 2098ntf    fn416341   6.513   4.780   2.772 -0.0273  0.0467 -0.4622
 2098ntf    fn416342   6.646   4.808   2.610 -0.5785 -0.2396 -0.0184
 2098ntf    fn416343   6.608   4.612   2.686 -0.4023 -0.2092  0.5938
 2098ntf    on516344   6.868   4.673   2.765  0.1759 -0.0182  0.3007
 2098ntf    on516345   6.795   4.896   2.838 -0.2243  0.1535  0.1257
 2098ntf    on516346   6.577   4.657   3.166 -0.0385  0.1923  0.2045
 2098ntf    on516347   6.586   4.884   3.080 -0.3070  0.0469  0.0962
 2098ntf    fn416348   6.898   4.835   3.127 -0.3941  0.1894 -0.2263
 2098ntf    fn416349   6.764   4.888   3.278  0.2474 -0.2169 -0.1440
 2098ntf    fn416350   6.836   4.691   3.273 -0.3516 -0.3816  0.1067
 2099ntf    cn116351   2.735   5.414   5.038  0.1489  0.4049 -0.2593
 2099ntf    sn216352   2.686   5.424   4.863 -0.1400 -0.0170 -0.2039
 2099ntf    nn316353   2.603   5.292   4.850 -0.8871  0.3994  0.2471
 2099ntf    sn216354   2.493   5.271   4.739 -0.3271 -0.0643 -0.2299
 2099ntf    cn116355   2.559   5.126   4.652  0.1356  0.0523 -0.0802
 2099ntf    fn416356   2.634   5.422   5.123  0.3004  0.5672 -0.0937
 2099ntf    fn416357   2.796   5.300   5.070 -0.5987 -0.0891 -0.5737
 2099ntf    fn416358   2.816   5.513   5.072  0.6061  0.0641 -0.3327
 2099ntf    on516359   2.607   5.545   4.864 -0.0621  0.0338  0.2215
 2099ntf    on516360   2.815   5.419   4.799  0.1751 -0.3514  0.4461
 2099ntf    on516361   2.485   5.371   4.635 -0.5520 -0.1163 -0.2621
 2099ntf    on516362   2.368   5.228   4.795 -0.1040 -0.6493 -0.1815
 2099ntf    fn416363   2.686   5.135   4.618 -0.1228  0.0429 -1.0761
 2099ntf    fn416364   2.550   5.018   4.727  0.4095  0.3020  0.3113
 2099ntf    fn416365   2.489   5.103   4.541 -0.5758 -0.5714  0.4863
 2100ntf    cn116366   4.536   2.471   0.724 -0.1720  0.0696 -0.1068
 2100ntf    sn216367   4.413   2.481   0.590 -0.3071 -0.3852 -0.0203
 2100ntf    nn316368   4.368   2.629   0.619 -0.3598 -0.3091 -0.4839
 2100ntf    sn216369   4.427   2.757   0.549 -0.3972 -0.1581 -0.2418
 2100ntf    cn116370   4.358   2.753   0.380 -0.1370  0.0852 -0.3539
 2100ntf    fn416371   4.642   2.543   0.692  0.2451 -0.3339  0.3496
 2100ntf    fn416372   4.492   2.518   0.839 -0.7886  0.8361 -0.6425
 2100ntf    fn416373   4.576   2.346   0.739 -0.5391 -0.0279  0.0542
 2100ntf    on516374   4.488   2.449   0.471 -0.3220 -0.2953 -0.0541
 2100ntf    on516375   4.310   2.390   0.631 -0.9183  0.5480  0.5634
 2100ntf    on516376   4.569   2.761   0.527 -0.3579  0.2148  0.0676
 2100ntf    on516377   4.363   2.875   0.600 -0.4594 -0.2317 -0.1488
 2100ntf    fn416378   4.440   2.815   0.296 -0.5984  0.2288 -0.6984
 2100ntf    fn416379   4.350   2.630   0.332 -0.5266 -0.0518  0.0557
 2100ntf    fn416380   4.237   2.804   0.368 -0.0705  0.2042 -0.5243
 2101ntf    cn116381   3.006   2.960   6.408  0.1925  0.5265 -0.2015
 2101ntf    sn216382   3.071   3.014   6.247  0.2385 -0.0778 -0.3912
 2101ntf    nn316383   2.952   2.973   6.153  0.0987 -0.4176 -0.0638
 2101ntf    sn216384   2.913   2.848   6.066 -0.1289 -0.5034  0.1570
 2101ntf    cn116385   2.748   2.810   6.131 -0.2589  0.2306  0.2725
 2101ntf    fn416386   2.902   3.026   6.454 -0.1581  0.3623 -0.7524
 2101ntf    fn416387   2.962   2.835   6.396  0.4750  0.3696  0.3602
 2101ntf    fn416388   3.099   2.959   6.502 -0.1356  0.4339  0.1256
 2101ntf    on516389   3.078   3.158   6.256  0.3220 -0.0846 -0.3518
 2101ntf    on516390   3.196   2.944   6.238  0.3115 -0.0176  0.1224
 2101ntf    on516391   2.994   2.733   6.095 -0.5440 -0.8419 -0.0249
 2101ntf    on516392   2.889   2.869   5.925 -0.4019 -0.1402  0.2562
 2101ntf    fn416393   2.672   2.914   6.158 -0.0854  0.3866  0.1594
 2101ntf    fn416394   2.678   2.735   6.047 -0.4204  0.4640  0.1976
 2101ntf    fn416395   2.751   2.737   6.242  0.0863 -0.3969 -0.1388
 2102ntf    cn116396   0.335   2.026   3.342  0.2932  0.3530 -0.2829
 2102ntf    sn216397   0.490   2.021   3.436  0.0832  0.0481  0.0483
 2102ntf    nn316398   0.518   1.867   3.450 -0.0727 -0.0128 -0.3140
 2102ntf    sn216399   0.444   1.757   3.534  0.0165  0.1261 -0.0523
 2102ntf    cn116400   0.575   1.708   3.650 -0.2393  0.0623  0.2096
 2102ntf    fn416401   0.324   1.932   3.249 -0.8861  0.4814 -0.2936
 2102ntf    fn416402   0.227   2.001   3.414  0.0103  0.4529 -0.6655
 2102ntf    fn416403   0.305   2.145   3.292  0.3506  0.3719 -0.2714
 2102ntf    on516404   0.591   2.083   3.354  0.3448  0.3011  0.5595
 2102ntf    on516405   0.472   2.081   3.566 -0.0376  0.3856 -0.1238
 2102ntf    on516406   0.431   1.637   3.455 -0.5585 -0.2039  0.5363
 2102ntf    on516407   0.326   1.782   3.613 -0.3521 -0.4237 -0.4239
 2102ntf    fn416408   0.681   1.658   3.590 -0.0548 -0.0045  0.5892
 2102ntf    fn416409   0.612   1.812   3.722  0.2911 -0.0138  0.0479
 2102ntf    fn416410   0.517   1.629   3.739 -0.0151 -0.1945  0.1289
 2103ntf    cn116411   0.093   5.524   3.866 -0.3399  0.0673  0.1482
 2103ntf    sn216412  -0.077   5.501   3.806 -0.3086 -0.3160  0.2024
 2103ntf    nn316413  -0.065   5.544   3.655 -0.3664 -0.0810  0.2639
 2103ntf    sn216414  -0.056   5.458   3.523 -0.4149  0.0345  0.1855
 2103ntf    cn116415   0.117   5.496   3.482 -0.2926 -0.2881  0.4007
 2103ntf    fn416416   0.129   5.463   3.978  0.2806  0.4002  0.1360
 2103ntf    fn416417   0.183   5.478   3.780 -0.2315 -0.3941  0.5072
 2103ntf    fn416418   0.130   5.650   3.876 -0.6650  0.1772 -0.0106
 2103ntf    on516419  -0.104   5.362   3.832  0.3706 -0.4616  0.1571
 2103ntf    on516420  -0.158   5.594   3.879 -0.8066 -0.1678 -0.5242
 2103ntf    on516421  -0.138   5.503   3.413 -0.1700 -0.6018 -0.2537
 2103ntf    on516422  -0.052   5.318   3.554 -0.0968  0.0641  0.2762
 2103ntf    fn416423   0.147   5.454   3.361 -0.0985  1.0059 -0.0165
 2103ntf    fn416424   0.141   5.626   3.475  0.0728 -0.3513  0.4479
 2103ntf    fn416425   0.196   5.437   3.570  0.1342 -0.5726 -0.1738
 2104ntf    cn116426   2.193   1.652   5.739 -0.0842 -0.3451  0.1237
 2104ntf    sn216427   2.340   1.730   5.667 -0.3827 -0.0357 -0.1516
 2104ntf    nn316428   2.419   1.745   5.802 -0.5022  0.3042 -0.1174
 2104ntf    sn216429   2.525   1.853   5.842 -0.0961 -0.2028  0.1951
 2104ntf    cn116430   2.432   1.967   5.950  0.4805  0.3045  0.1652
 2104ntf    fn416431   2.178   1.690   5.865 -0.2279 -0.4044  0.1249
 2104ntf    fn416432   2.080   1.677   5.675 -0.0688 -0.2628  0.1284
 2104ntf    fn416433   2.200   1.520   5.735  0.0586 -0.3314 -0.0714
 2104ntf    on516434   2.390   1.629   5.577  0.6285  0.3022  0.0230
 2104ntf    on516435   2.286   1.849   5.605 -0.7977 -0.2156 -0.1364
 2104ntf    on516436   2.568   1.930   5.728 -0.3843 -0.3544 -0.0168
 2104ntf    on516437   2.625   1.791   5.925  0.2462 -0.1229 -0.1568
 2104ntf    fn416438   2.342   2.036   5.882  0.3441  0.2882  0.3264
 2104ntf    fn416439   2.368   1.904   6.048  0.7644 -0.1029  0.0911
 2104ntf    fn416440   2.508   2.062   6.001  0.4984  0.2608  0.2194
 2105ntf    cn116441   6.094   0.304   4.791 -0.4564  0.2135 -0.1873
 2105ntf    sn216442   6.126   0.460   4.879 -0.1221  0.0358  0.0094
 2105ntf    nn316443   6.026   0.549   4.798 -0.1155  0.2818  0.2712
 2105ntf    sn216444   5.936   0.671   4.840 -0.3166  0.1247  0.3009
 2105ntf    cn116445   5.781   0.579   4.865  0.1148 -0.3687  1.2193
 2105ntf    fn416446   6.165   0.209   4.849  0.3598  0.9670  0.0836
 2105ntf    fn416447   5.968   0.268   4.803 -0.3060 -0.3012 -0.1061
 2105ntf    fn416448   6.125   0.312   4.662  0.6946 -0.0418  0.0624
 2105ntf    on516449   6.078   0.424   5.010  0.4932  0.2774  0.3041
 2105ntf    on516450   6.265   0.490   4.858  0.0521 -0.6469  0.1617
 2105ntf    on516451   5.910   0.749   4.722  0.1447 -0.1255  0.0320
 2105ntf    on516452   5.959   0.735   4.968  0.2969  0.0560  0.2277
 2105ntf    fn416453   5.781   0.482   4.775  0.2201  0.3021  0.4759
 2105ntf    fn416454   5.790   0.518   4.982  0.2285 -0.6584  1.0592
 2105ntf    fn416455   5.661   0.635   4.866  0.2387 -0.0567  0.0068
 2106ntf    cn116456   4.343   1.493   0.120  0.1035  0.1833 -0.0503
 2106ntf    sn216457   4.503   1.467   0.201  0.0503  0.1224  0.0367
 2106ntf    nn316458   4.469   1.332   0.273 -0.4878  0.2900  0.0995
 2106ntf    sn216459   4.452   1.298   0.425  0.3623 -0.0078  0.1325
 2106ntf    cn116460   4.532   1.135   0.427 -0.1694 -0.2802 -0.6269
 2106ntf    fn416461   4.237   1.465   0.194  0.1758 -0.1288 -0.0622
 2106ntf    fn416462   4.339   1.615   0.070 -0.1174  0.1471 -0.1256
 2106ntf    fn416463   4.324   1.413   0.015  0.0080 -0.5765  0.5376
 2106ntf    on516464   4.592   1.457   0.089 -0.3752 -0.0714 -0.2852
 2106ntf    on516465   4.517   1.580   0.290  1.1317 -0.1320  0.1979
 2106ntf    on516466   4.315   1.266   0.457  0.5694 -0.9262  0.1270
 2106ntf    on516467   4.524   1.380   0.519  0.0395  0.2996  0.1164
 2106ntf    fn416468   4.529   1.075   0.545  0.4138 -0.0417 -0.4900
 2106ntf    fn416469   4.464   1.055   0.345 -0.4746 -0.1904 -0.4640
 2106ntf    fn416470   4.658   1.143   0.389 -0.0049  0.1832  0.0072
 2107ntf    cn116471   4.897   3.335   0.758  0.2397 -0.0217  0.2666
 2107ntf    sn216472   5.002   3.460   0.678 -0.2255  0.1466 -0.0887
 2107ntf    nn316473   5.133   3.404   0.744 -0.0712  0.3799 -0.1952
 2107ntf    sn216474   5.273   3.388   0.674 -0.1245  0.0735 -0.2333
 2107ntf    cn116475   5.365   3.540   0.714 -0.3250  0.1099  0.0950
 2107ntf    fn416476   4.767   3.342   0.733  0.3080  0.2610 -0.0209
 2107ntf    fn416477   4.929   3.212   0.720 -0.4605 -0.0910 -0.1200
 2107ntf    fn416478   4.909   3.330   0.889 -0.1539 -0.5543  0.2866
 2107ntf    on516479   4.981   3.438   0.537  0.4771  0.3705 -0.2324
 2107ntf    on516480   4.961   3.583   0.742 -0.0228 -0.0260  0.3817
 2107ntf    on516481   5.273   3.382   0.530  0.2093  0.2712 -0.2427
 2107ntf    on516482   5.351   3.293   0.750  0.1088  0.0305 -0.5237
 2107ntf    fn416483   5.363   3.568   0.843  0.1939 -0.1625  0.1668
 2107ntf    fn416484   5.489   3.521   0.674 -0.2335  0.2632  0.3073
 2107ntf    fn416485   5.316   3.645   0.650 -0.6485 -0.4250 -0.5520
 2108ntf    cn116486   6.726   3.614   3.573  0.2863  0.0366 -0.0614
 2108ntf    sn216487   6.871   3.621   3.464  0.3788  0.0462  0.0638
 2108ntf    nn316488   6.845   3.749   3.377 -0.1242 -0.0290  0.1021
 2108ntf    sn216489   6.886   3.897   3.411 -0.0542  0.0099 -0.1512
 2108ntf    cn116490   7.063   3.914   3.378 -0.0044  0.2619  0.2458
 2108ntf    fn416491   6.709   3.497   3.632  0.4998 -0.2449 -0.5500
 2108ntf    fn416492   6.725   3.702   3.671 -0.1023  0.2467 -0.2478
 2108ntf    fn416493   6.617   3.633   3.500  0.3771  0.0194 -0.2029
 2108ntf    on516494   6.982   3.625   3.557  0.3295  0.1768  0.1170
 2108ntf    on516495   6.848   3.497   3.395 -0.3338  0.0118  0.3549
 2108ntf    on516496   6.880   3.930   3.551 -0.5873  0.3728 -0.2571
 2108ntf    on516497   6.828   3.990   3.317  0.2153  0.1799 -0.1492
 2108ntf    fn416498   7.088   4.043   3.396  0.2599  0.2565 -0.0626
 2108ntf    fn416499   7.149   3.851   3.456  0.0142  0.2960  0.2533
 2108ntf    fn416500   7.091   3.868   3.257  0.3174  1.0269  0.0216
 2109ntf    cn116501   5.640   4.974   5.784  0.2378  0.1811 -0.0576
 2109ntf    sn216502   5.644   4.792   5.776  0.0746  0.1811 -0.1395
 2109ntf    nn316503   5.614   4.777   5.623 -0.0621 -0.6206 -0.0403
 2109ntf    sn216504   5.705   4.702   5.519  0.2499 -0.3836  0.0579
 2109ntf    cn116505   5.612   4.735   5.367 -0.0561  0.0064  0.3284
 2109ntf    fn416506   5.737   5.032   5.715  0.3141  0.1834  0.0520
 2109ntf    fn416507   5.527   5.016   5.729  0.2768  0.0067 -0.2724
 2109ntf    fn416508   5.641   5.025   5.906 -0.2173  0.1638 -0.0440
 2109ntf    on516509   5.777   4.756   5.817 -0.1171 -0.6108 -0.1958
 2109ntf    on516510   5.540   4.744   5.865  0.5903 -0.3434  0.1832
 2109ntf    on516511   5.699   4.558   5.527  0.4148 -0.4372 -0.7230
 2109ntf    on516512   5.835   4.761   5.505 -0.0362  0.1568 -0.3415
 2109ntf    fn416513   5.644   4.642   5.278 -0.8587 -0.0083  0.0449
 2109ntf    fn416514   5.480   4.745   5.376 -0.0735  0.1172 -0.0106
 2109ntf    fn416515   5.638   4.851   5.308 -0.1053  0.0353  0.3623
 2110ntf    cn116516   6.782   1.660   2.336 -0.0108  0.0901  0.0601
 2110ntf    sn216517   6.897   1.522   2.362  0.0313  0.1393  0.1357
 2110ntf    nn316518   6.918   1.535   2.517 -0.4957  0.0322  0.2155
 2110ntf    sn216519   7.012   1.632   2.596 -0.1585  0.1451 -0.3151
 2110ntf    cn116520   6.946   1.630   2.766 -0.2438 -0.3031 -0.3542
 2110ntf    fn416521   6.835   1.780   2.355  0.7663 -0.2238 -0.0908
 2110ntf    fn416522   6.731   1.661   2.214 -0.1991 -0.1271  0.1355
 2110ntf    fn416523   6.679   1.647   2.418  0.4379 -0.2040  0.5811
 2110ntf    on516524   6.831   1.399   2.325  0.3117 -0.1160  0.4852
 2110ntf    on516525   7.004   1.563   2.274 -0.1103  0.2511  0.0148
 2110ntf    on516526   7.002   1.774   2.573 -0.1978  0.2267  0.1784
 2110ntf    on516527   7.142   1.575   2.617 -0.3653 -0.3786 -0.4520
 2110ntf    fn416528   7.020   1.703   2.848 -0.3721  0.0390 -0.5408
 2110ntf    fn416529   6.824   1.680   2.765 -0.0626  0.1488 -0.2307
 2110ntf    fn416530   6.940   1.508   2.817  0.4286 -0.3389 -0.3457
 2111ntf    cn116531   6.582   6.143   5.429 -0.0114  0.0214 -0.2463
 2111ntf    sn216532   6.745   6.140   5.510 -0.2124 -0.2811  0.1453
 2111ntf    nn316533   6.844   6.133   5.389  0.0959 -0.0971  0.3851
 2111ntf    sn216534   6.898   6.007   5.312  0.2282  0.0880  0.1745
 2111ntf    cn116535   7.056   5.982   5.399 -0.0273  0.0277  0.6246
 2111ntf    fn416536   6.475   6.129   5.505  0.3262 -0.0660  0.2151
 2111ntf    fn416537   6.569   6.265   5.378 -0.9749  0.1039  0.1723
 2111ntf    fn416538   6.567   6.058   5.328  0.5996  0.1847 -0.4838
 2111ntf    on516539   6.746   6.271   5.570 -0.3617 -0.1385 -0.1608
 2111ntf    on516540   6.738   6.027   5.599 -0.5810 -0.4475 -0.0923
 2111ntf    on516541   6.938   6.042   5.178  0.1666 -0.2755  0.0600
 2111ntf    on516542   6.822   5.886   5.330  0.4650 -0.1199 -0.2001
 2111ntf    fn416543   7.128   5.892   5.333  0.1787  0.1632  0.6620
 2111ntf    fn416544   7.126   6.094   5.404 -0.0495  0.0464  0.5156
 2111ntf    fn416545   7.040   5.933   5.520 -0.1222 -0.5916  0.3651
 2112ntf    cn116546   3.044   1.770   0.990 -0.5037  0.0150  0.1085
 2112ntf    sn216547   3.093   1.831   1.154 -0.0354  0.0304 -0.0338
 2112ntf    nn316548   3.141   1.701   1.227 -0.2631  0.1344  0.3037
 2112ntf    sn216549   3.054   1.597   1.308  0.2312 -0.2634  0.3265
 2112ntf    cn116550   3.128   1.436   1.267 -0.0057 -0.2630 -0.1104
 2112ntf    fn416551   3.041   1.858   0.892  1.2055 -0.1000 -0.0833
 2112ntf    fn416552   3.132   1.679   0.950 -0.2791  0.2612  0.0426
 2112ntf    fn416553   2.933   1.697   0.993 -0.2660 -0.3606 -0.0828
 2112ntf    on516554   3.199   1.926   1.133  0.1849 -0.1178  0.3904
 2112ntf    on516555   2.977   1.888   1.220  0.2378  0.0074  0.4729
 2112ntf    on516556   2.919   1.573   1.262  0.2434 -0.0086  0.1546
 2112ntf    on516557   3.069   1.606   1.451  0.0588 -0.0606  0.3322
 2112ntf    fn416558   3.112   1.407   1.139  0.3872 -0.0948 -0.1994
 2112ntf    fn416559   3.254   1.424   1.306  0.0186  0.0012 -0.1020
 2112ntf    fn416560   3.056   1.345   1.330  0.3356 -0.2352  0.3291
 2113ntf    cn116561   6.715   4.391   2.172 -0.2907  0.2077  0.3374
 2113ntf    sn216562   6.843   4.273   2.225 -0.1654  0.1992  0.0173
 2113ntf    nn316563   6.858   4.316   2.376  0.4865 -0.1458  0.0522
 2113ntf    sn216564   6.903   4.224   2.495  0.4044  0.1140  0.2815
 2113ntf    cn116565   6.934   4.354   2.619 -0.1795  0.1129  0.4333
 2113ntf    fn416566   6.758   4.513   2.146  0.0028  0.0201 -0.0493
 2113ntf    fn416567   6.647   4.357   2.064  0.1318 -0.3503  0.2436
 2113ntf    fn416568   6.624   4.399   2.268 -0.8057 -0.8582 -0.0456
 2113ntf    on516569   6.776   4.148   2.202 -0.0243  0.0083  0.6158
 2113ntf    on516570   6.956   4.307   2.143 -0.0497  0.0165  0.1005
 2113ntf    on516571   7.035   4.172   2.472  0.2284 -0.1291 -0.1781
 2113ntf    on516572   6.796   4.146   2.553 -0.1364  0.2270 -0.5535
 2113ntf    fn416573   6.826   4.410   2.671 -0.4000  0.1213 -0.0317
 2113ntf    fn416574   7.009   4.319   2.722  0.1725 -0.1664  0.0868
 2113ntf    fn416575   7.006   4.449   2.561 -0.0049 -0.2584  0.0371
 2114ntf    cn116576   3.036   0.543   1.523  0.0783  0.1203  0.3744
 2114ntf    sn216577   2.946   0.511   1.678  0.0015 -0.1738  0.2696
 2114ntf    nn316578   2.801   0.496   1.620  0.0725 -0.4369  0.1591
 2114ntf    sn216579   2.690   0.604   1.594  0.2610 -0.2892 -0.0363
 2114ntf    cn116580   2.571   0.576   1.730  0.0941 -0.0889 -0.1410
 2114ntf    fn416581   2.984   0.650   1.465 -0.1214 -0.1799 -0.0087
 2114ntf    fn416582   3.163   0.575   1.540  0.1173  0.4439 -0.4996
 2114ntf    fn416583   3.033   0.443   1.436 -0.2840  0.1353  0.3690
 2114ntf    on516584   2.993   0.383   1.723 -0.1267 -0.1710  0.4129
 2114ntf    on516585   2.964   0.627   1.761  0.4344 -0.0744  0.0390
 2114ntf    on516586   2.609   0.565   1.481  0.0492  0.5749 -0.1907
 2114ntf    on516587   2.721   0.744   1.608  0.4660 -0.3866  0.5255
 2114ntf    fn416588   2.528   0.452   1.721  0.0194 -0.0750  0.0213
 2114ntf    fn416589   2.643   0.581   1.841 -0.1032  0.1577 -0.0235
 2114ntf    fn416590   2.470   0.662   1.734  0.1552 -0.0079 -0.3090
 2115ntf    cn116591   3.171   0.841   3.153 -0.1683 -0.2774  0.1536
 2115ntf    sn216592   2.991   0.867   3.141 -0.1190 -0.1886 -0.3764
 2115ntf    nn316593   2.954   0.875   3.293 -0.2080  0.1849 -0.4171
 2115ntf    sn216594   2.925   1.006   3.375  0.1891  0.0388 -0.0458
 2115ntf    cn116595   2.759   1.051   3.317  0.0568  0.2484  0.4869
 2115ntf    fn416596   3.245   0.826   3.045  0.2225 -0.1805  0.4070
 2115ntf    fn416597   3.227   0.942   3.218  0.1841 -0.2462 -0.1977
 2115ntf    fn416598   3.195   0.736   3.230 -0.2689 -0.3017  0.1515
 2115ntf    on516599   2.971   0.983   3.057 -0.2637  0.0728  0.0150
 2115ntf    on516600   2.941   0.743   3.087 -0.1387 -0.1757 -0.3880
 2115ntf    on516601   3.010   1.119   3.345  0.1192  0.0305 -0.2752
 2115ntf    on516602   2.907   0.965   3.512  0.3009 -0.4675 -0.1805
 2115ntf    fn416603   2.758   1.089   3.190 -0.1837 -0.2773  0.3276
 2115ntf    fn416604   2.667   0.957   3.329 -0.1046  0.4134  0.5436
 2115ntf    fn416605   2.711   1.152   3.388 -0.6565  0.1728  0.1160
 2116ntf    cn116606   3.471   2.764   1.629 -0.4303  0.2626 -0.1596
 2116ntf    sn216607   3.402   2.660   1.497  0.0934 -0.2346 -0.0431
 2116ntf    nn316608   3.360   2.532   1.578 -0.2423 -0.2116 -0.1790
 2116ntf    sn216609   3.225   2.507   1.655 -0.1424  0.1228  0.1068
 2116ntf    cn116610   3.141   2.400   1.534  0.0186  0.0005  0.1018
 2116ntf    fn416611   3.382   2.779   1.726  0.0027 -0.4155  0.3443
 2116ntf    fn416612   3.583   2.719   1.682 -0.6519 -0.1559 -0.0435
 2116ntf    fn416613   3.497   2.888   1.589  0.0833  0.1112 -0.2941
 2116ntf    on516614   3.298   2.743   1.443  0.1914  0.0757  0.2423
 2116ntf    on516615   3.512   2.629   1.409 -0.0054 -0.1584 -0.1936
 2116ntf    on516616   3.142   2.623   1.676  0.0421  0.2857 -0.0578
 2116ntf    on516617   3.249   2.423   1.770 -0.1510 -0.1423 -0.0831
 2116ntf    fn416618   3.023   2.357   1.578 -0.0448  0.2690  0.2004
 2116ntf    fn416619   3.126   2.450   1.412  0.5324 -0.3445 -0.1031
 2116ntf    fn416620   3.208   2.287   1.523 -0.0968 -0.0499 -0.0950
 2117ntf    cn116621   0.037   2.171   6.754  0.2228 -0.3500 -0.1764
 2117ntf    sn216622   0.147   2.269   6.861 -0.0333 -0.1633 -0.0837
 2117ntf    nn316623   0.049   2.295   6.981 -0.0185 -0.7849  0.0699
 2117ntf    sn216624   0.085   2.341   7.127 -0.0282 -0.0017 -0.1662
 2117ntf    cn116625  -0.044   2.460   7.174  0.1601  0.1883 -0.1270
 2117ntf    fn416626  -0.074   2.235   6.722  0.1576 -0.2085  0.3177
 2117ntf    fn416627   0.095   2.144   6.638  0.0326 -0.6177 -0.2108
 2117ntf    fn416628  -0.007   2.058   6.806 -0.4494  0.3088  0.7208
 2117ntf    on516629   0.253   2.177   6.894  0.0014 -0.1448 -0.1452
 2117ntf    on516630   0.174   2.392   6.791 -0.1648  0.0105  0.1674
 2117ntf    on516631   0.209   2.413   7.136  0.1073 -0.3396  0.8342
 2117ntf    on516632   0.066   2.240   7.228 -0.1923  0.2058  0.0115
 2117ntf    fn416633  -0.036   2.582   7.124  0.3905  0.4072  0.4382
 2117ntf    fn416634  -0.161   2.421   7.126  0.1231  0.1591 -0.0130
 2117ntf    fn416635  -0.064   2.465   7.305  0.3927 -0.3912 -0.0657
 2118ntf    cn116636   1.719   2.270   0.181  0.0459  0.3338 -0.0764
 2118ntf    sn216637   1.889   2.334   0.200  0.1258  0.1199 -0.0717
 2118ntf    nn316638   1.863   2.482   0.154  0.0338  0.1130 -0.0420
 2118ntf    sn216639   1.855   2.614   0.238  0.2221  0.1009 -0.0056
 2118ntf    cn116640   2.022   2.686   0.241  0.2190  0.1215 -0.2458
 2118ntf    fn416641   1.710   2.150   0.235  0.1643  0.3014 -0.1281
 2118ntf    fn416642   1.636   2.344   0.252 -0.3666  0.1719 -0.3891
 2118ntf    fn416643   1.674   2.275   0.057 -0.3365  0.9220  0.0825
 2118ntf    on516644   1.915   2.316   0.340 -0.5020 -0.2229  0.0066
 2118ntf    on516645   1.968   2.248   0.115 -0.0895  0.1041 -0.2566
 2118ntf    on516646   1.829   2.594   0.378 -0.0923  0.1458 -0.0567
 2118ntf    on516647   1.779   2.718   0.173  0.0270 -0.4845 -0.7370
 2118ntf    fn416648   2.029   2.818   0.246  0.0575  0.1162  0.1466
 2118ntf    fn416649   2.091   2.638   0.343 -0.4289 -0.3599 -0.0272
 2118ntf    fn416650   2.094   2.635   0.143  0.0658  0.1110 -0.3523
 2119ntf    cn116651   5.744   0.141   2.136 -0.0912  0.0366 -0.2492
 2119ntf    sn216652   5.592   0.073   2.063 -0.2348 -0.1382  0.2082
 2119ntf    nn316653   5.644  -0.039   1.966 -0.0544 -0.3425  0.5374
 2119ntf    sn216654   5.635  -0.193   1.991  0.1138 -0.4960 -0.3142
 2119ntf    cn116655   5.466  -0.239   1.941 -0.1250 -0.0047  0.0320
 2119ntf    fn416656   5.714   0.244   2.213 -0.1991 -0.1889  0.0107
 2119ntf    fn416657   5.805   0.057   2.218 -0.4990 -0.3658 -0.3537
 2119ntf    fn416658   5.830   0.179   2.043  0.0458  0.2330 -0.0444
 2119ntf    on516659   5.512   0.028   2.174 -0.1649  0.5458  0.5415
 2119ntf    on516660   5.533   0.178   1.982 -0.3966  0.0369  0.5506
 2119ntf    on516661   5.643  -0.241   2.127 -0.0867  0.5652  0.0761
 2119ntf    on516662   5.710  -0.267   1.893  0.1745 -0.1456 -0.5316
 2119ntf    fn416663   5.451  -0.371   1.942  0.4874 -0.0743  0.1925
 2119ntf    fn416664   5.377  -0.188   2.024 -0.1553 -0.0005 -0.0033
 2119ntf    fn416665   5.433  -0.209   1.816 -0.1600  0.0022  0.0427
 2120ntf    cn116666   1.407   5.530   5.325 -0.0197  0.6813  0.2406
 2120ntf    sn216667   1.293   5.476   5.456 -0.1135  0.3751  0.0357
 2120ntf    nn316668   1.190   5.595   5.451 -0.2300  0.2522 -0.6318
 2120ntf    sn216669   1.117   5.664   5.572  0.2437 -0.0459 -0.1713
 2120ntf    cn116670   1.230   5.801   5.613  0.3972 -0.2755  0.1798
 2120ntf    fn416671   1.356   5.534   5.203 -0.0095  0.4140  0.2273
 2120ntf    fn416672   1.452   5.651   5.351  0.1664  0.5763  0.4126
 2120ntf    fn416673   1.513   5.452   5.313 -0.2119  0.3005  0.9427
 2120ntf    on516674   1.243   5.347   5.414 -0.2739  0.2836  0.5012
 2120ntf    on516675   1.373   5.479   5.576 -0.4465 -0.1769  0.2736
 2120ntf    on516676   1.092   5.594   5.695  0.6009  0.2106  0.0537
 2120ntf    on516677   1.007   5.740   5.519  0.1591 -0.0969 -0.0683
 2120ntf    fn416678   1.222   5.899   5.524  0.3316 -0.2244  0.2423
 2120ntf    fn416679   1.202   5.860   5.728 -0.0349  0.0136 -0.0693
 2120ntf    fn416680   1.357   5.765   5.608  0.3750 -0.3609  0.2292
 2121ntf    cn116681   6.326   1.124   6.047 -0.2812  0.2459 -0.1650
 2121ntf    sn216682   6.338   1.078   5.872  0.2769 -0.2880  0.0082
 2121ntf    nn316683   6.482   1.134   5.845  0.1551  0.1569  0.2741
 2121ntf    sn216684   6.601   1.045   5.794 -0.2258 -0.1358 -0.1043
 2121ntf    cn116685   6.666   0.979   5.951  0.1292  0.2201 -0.1012
 2121ntf    fn416686   6.387   1.240   6.064  0.7210 -0.2365 -0.4229
 2121ntf    fn416687   6.204   1.130   6.099 -0.3397 -0.4339 -0.2106
 2121ntf    fn416688   6.394   1.034   6.116 -0.1277  0.3724 -0.1510
 2121ntf    on516689   6.324   0.935   5.886  0.0960 -0.2654  0.0610
 2121ntf    on516690   6.234   1.147   5.799  0.1352 -0.2330  0.2600
 2121ntf    on516691   6.702   1.131   5.740 -0.2725  0.2128  0.3602
 2121ntf    on516692   6.571   0.928   5.716 -0.5860 -0.1000 -0.0240
 2121ntf    fn416693   6.710   1.069   6.037  0.2684  0.3297 -0.2868
 2121ntf    fn416694   6.578   0.907   6.020  0.2632  0.0419 -0.1161
 2121ntf    fn416695   6.763   0.891   5.932 -0.3272 -0.2603 -0.2496
 2122ntf    cn116696   2.254   2.190   6.635 -0.0372  0.1644  0.1485
 2122ntf    sn216697   2.144   2.118   6.510  0.0626  0.0146  0.1461
 2122ntf    nn316698   2.240   2.130   6.386  0.2760  0.2104  0.3297
 2122ntf    sn216699   2.238   2.229   6.265 -0.1029 -0.1190  0.0647
 2122ntf    cn116700   2.413   2.230   6.215  0.0044 -0.4602  0.4349
 2122ntf    fn416701   2.313   2.298   6.586 -0.1156  0.1836  0.0957
 2122ntf    fn416702   2.184   2.239   6.737 -0.3524 -0.1046  0.0620
 2122ntf    fn416703   2.354   2.116   6.679 -0.0223  0.1671  0.1190
 2122ntf    on516704   2.125   1.984   6.559 -0.5933  0.1939  0.4011
 2122ntf    on516705   2.027   2.203   6.498 -0.2778 -0.4554  0.1094
 2122ntf    on516706   2.209   2.368   6.292  0.4424 -0.0803  0.4707
 2122ntf    on516707   2.174   2.179   6.146 -0.2911  0.5161 -0.1106
 2122ntf    fn416708   2.490   2.298   6.299 -0.1453  0.4014 -0.1135
 2122ntf    fn416709   2.460   2.107   6.208 -0.2557 -0.5447  0.1639
 2122ntf    fn416710   2.435   2.286   6.097 -0.3589 -0.0248  0.5677
 2123ntf    cn116711   1.900   4.816   0.617  0.0807 -0.0752 -0.3386
 2123ntf    sn216712   2.000   4.962   0.576 -0.3119  0.2651 -0.0987
 2123ntf    nn316713   1.964   5.055   0.698 -0.2138 -0.0153  0.1468
 2123ntf    sn216714   1.923   5.205   0.717  0.0882  0.0598  0.2014
 2123ntf    cn116715   2.069   5.259   0.811  0.0932 -0.1156  0.2935
 2123ntf    fn416716   1.921   4.750   0.730  0.1330  0.4497 -0.0409
 2123ntf    fn416717   1.771   4.846   0.614  0.2580  0.7082 -0.1791
 2123ntf    fn416718   1.912   4.718   0.528  0.2351 -0.2488 -0.1269
 2123ntf    on516719   2.134   4.910   0.560 -0.4408 -0.0873 -0.0409
 2123ntf    on516720   1.939   5.011   0.455  0.0463 -0.0315 -0.4008
 2123ntf    on516721   1.812   5.225   0.807  0.0511 -0.5233  0.2905
 2123ntf    on516722   1.924   5.285   0.596 -0.1802 -0.4356 -0.1324
 2123ntf    fn416723   2.180   5.258   0.740  0.1172 -0.0941  0.3306
 2123ntf    fn416724   2.065   5.386   0.845  0.2888 -0.1147  0.3122
 2123ntf    fn416725   2.092   5.182   0.916 -0.0621 -0.2758  0.2102
 2124ntf    cn116726   3.635   6.138   3.006  0.0191  0.1096 -0.1243
 2124ntf    sn216727   3.591   6.079   3.172 -0.2711 -0.0906 -0.2717
 2124ntf    nn316728   3.723   6.089   3.256 -0.6363  0.1963  0.2801
 2124ntf    sn216729   3.820   6.212   3.251 -0.3121 -0.0734 -0.1274
 2124ntf    cn116730   3.869   6.209   3.426 -0.1014  0.3110 -0.1789
 2124ntf    fn416731   3.539   6.114   2.919  0.2231 -0.1748 -0.2700
 2124ntf    fn416732   3.649   6.270   3.001  0.4837  0.0495 -0.4473
 2124ntf    fn416733   3.746   6.086   2.958 -0.1371 -0.4989  0.1597
 2124ntf    on516734   3.487   6.164   3.225 -0.1304 -0.1031  0.0269
 2124ntf    on516735   3.558   5.940   3.152 -0.6940 -0.0535  0.1482
 2124ntf    on516736   3.758   6.339   3.224  0.1152 -0.0601 -1.1064
 2124ntf    on516737   3.947   6.179   3.191 -0.3049 -0.5214  0.1301
 2124ntf    fn416738   3.937   6.318   3.457 -0.0509  0.2022  0.0987
 2124ntf    fn416739   3.759   6.214   3.500  0.1824  0.1620  0.2590
 2124ntf    fn416740   3.947   6.109   3.464 -0.2378  0.5088  0.6566
 2125ntf    cn116741   0.796   3.088   4.727  0.1501  0.0827 -0.2337
 2125ntf    sn216742   0.903   3.167   4.602  0.4057 -0.1968 -0.1926
 2125ntf    nn316743   0.940   3.042   4.515  0.0473 -0.5361  0.1358
 2125ntf    sn216744   1.049   2.930   4.528  0.1814 -0.4409 -0.1430
 2125ntf    cn116745   1.167   2.971   4.396  0.2190  0.0205  0.0324
 2125ntf    fn416746   0.854   3.018   4.822 -0.4544  0.2336  0.2471
 2125ntf    fn416747   0.724   3.181   4.788  0.9085  0.2979  0.3463
 2125ntf    fn416748   0.712   3.002   4.671  0.2729 -0.5025  0.4761
 2125ntf    on516749   0.820   3.266   4.538  0.5097  0.0942  0.1135
 2125ntf    on516750   1.008   3.223   4.685  0.2873  0.0803 -0.2283
 2125ntf    on516751   1.003   2.797   4.496 -0.5563 -0.1362 -0.3493
 2125ntf    on516752   1.130   2.953   4.645  0.0273  1.1380 -0.3249
 2125ntf    fn416753   1.284   2.909   4.405  0.2404 -0.0847 -0.9303
 2125ntf    fn416754   1.124   2.939   4.276 -0.2155 -0.3402  0.2795
 2125ntf    fn416755   1.201   3.098   4.404  0.6911 -0.1270  0.4926
 2126ntf    cn116756   6.683   2.620   2.141  0.2728 -0.2657  0.5744
 2126ntf    sn216757   6.542   2.508   2.163  0.1033 -0.1831 -0.0878
 2126ntf    nn316758   6.618   2.374   2.134 -0.3374 -0.5390  0.3939
 2126ntf    sn216759   6.659   2.309   1.997  0.3309 -0.1163  0.3933
 2126ntf    cn116760   6.778   2.185   2.056  0.3153 -0.2967  0.0466
 2126ntf    fn416761   6.687   2.725   2.222 -0.2478  0.2142 -0.0109
 2126ntf    fn416762   6.801   2.565   2.167  0.3453 -0.4862 -0.2224
 2126ntf    fn416763   6.696   2.667   2.018  0.3124 -0.2258  0.5936
 2126ntf    on516764   6.509   2.520   2.303 -0.2868 -0.0945 -0.1852
 2126ntf    on516765   6.442   2.556   2.070  0.6749  0.6075 -0.3037
 2126ntf    on516766   6.742   2.397   1.918 -0.1228  0.0515  0.1022
 2126ntf    on516767   6.557   2.226   1.938  0.2001  0.0070  0.4457
 2126ntf    fn416768   6.878   2.234   2.127  0.1488  0.4932 -0.2528
 2126ntf    fn416769   6.727   2.087   2.128  0.1474 -0.3602 -0.1557
 2126ntf    fn416770   6.844   2.132   1.954  0.4069 -0.1239  0.0159
 2127ntf    cn116771   4.634   4.782   0.125  0.4018 -0.1418  0.0454
 2127ntf    sn216772   4.730   4.627   0.116  0.2786 -0.2030 -0.2584
 2127ntf    nn316773   4.838   4.689   0.021  0.3558  0.1402  0.0502
 2127ntf    sn216774   4.839   4.698  -0.136 -0.3591 -0.0813  0.0316
 2127ntf    cn116775   4.946   4.551  -0.150  0.1528  0.2672  0.2452
 2127ntf    fn416776   4.561   4.795   0.015  0.6309  0.1818 -0.0712
 2127ntf    fn416777   4.567   4.791   0.238  0.6435 -0.0169  0.1805
 2127ntf    fn416778   4.721   4.881   0.136  0.1611  0.1444 -0.5883
 2127ntf    on516779   4.781   4.609   0.250  0.2517 -0.3790 -0.2720
 2127ntf    on516780   4.649   4.519   0.066 -0.2867 -0.0106  0.2336
 2127ntf    on516781   4.931   4.799  -0.182 -0.2815  0.1922  0.7803
 2127ntf    on516782   4.724   4.664  -0.215 -0.4021  0.1540 -0.0057
 2127ntf    fn416783   4.980   4.526  -0.275  0.1783 -0.0317  0.3113
 2127ntf    fn416784   5.063   4.564  -0.091  0.4005 -0.4463 -0.0822
 2127ntf    fn416785   4.897   4.440  -0.097 -0.0334  0.0437 -0.3887
 2128ntf    cn116786   5.486   5.079   1.626  0.0421 -0.4568 -0.0961
 2128ntf    sn216787   5.306   5.080   1.650  0.0852 -0.1518  0.2303
 2128ntf    nn316788   5.273   5.106   1.498 -0.0445 -0.3498  0.2236
 2128ntf    sn216789   5.224   5.018   1.378  0.4151 -0.2171 -0.0633
 2128ntf    cn116790   5.123   5.137   1.284  0.2788 -0.0583  0.2838
 2128ntf    fn416791   5.558   5.068   1.736 -0.0438  0.0383  0.0115
 2128ntf    fn416792   5.532   4.989   1.541  0.2357 -0.0527 -0.4233
 2128ntf    fn416793   5.519   5.195   1.570 -0.1166 -0.5127 -0.3043
 2128ntf    on516794   5.284   4.945   1.697 -0.1503 -0.1596  0.1037
 2128ntf    on516795   5.296   5.197   1.733  0.3942  0.0723 -0.0455
 2128ntf    on516796   5.129   4.917   1.416 -0.0413  0.0598 -0.4645
 2128ntf    on516797   5.325   4.980   1.282  0.2526  0.0813 -0.3521
 2128ntf    fn416798   5.193   5.240   1.241  0.1182 -0.4587 -0.9757
 2128ntf    fn416799   5.066   5.076   1.181  0.0959  0.1626  0.2547
 2128ntf    fn416800   5.027   5.195   1.354  0.3831  0.1597  0.2442
 2129ntf    cn116801   4.967   5.376   5.472 -0.1291  0.0743  0.0489
 2129ntf    sn216802   4.983   5.468   5.315  0.1631 -0.0689 -0.0057
 2129ntf    nn316803   5.137   5.495   5.327  0.2139 -0.2106 -0.3339
 2129ntf    sn216804   5.214   5.611   5.253 -0.0484  0.1603 -0.0304
 2129ntf    cn116805   5.299   5.511   5.127 -0.0930  0.2062 -0.0978
 2129ntf    fn416806   4.842   5.333   5.486  0.0080 -0.3935 -0.1492
 2129ntf    fn416807   5.042   5.268   5.477 -0.4648 -0.1832 -0.3590
 2129ntf    fn416808   4.995   5.460   5.570  0.8648  0.0545 -0.2065
 2129ntf    on516809   4.949   5.372   5.213 -0.5624  0.4556 -0.2673
 2129ntf    on516810   4.898   5.584   5.328  0.6528  0.2997 -0.0689
 2129ntf    on516811   5.318   5.668   5.334  0.2655  0.1624 -0.4314
 2129ntf    on516812   5.129   5.706   5.186  0.2950  0.4960  0.0087
 2129ntf    fn416813   5.376   5.584   5.048  0.1176  0.2715  0.1651
 2129ntf    fn416814   5.380   5.417   5.174  0.0524  0.4347  0.1101
 2129ntf    fn416815   5.212   5.446   5.052 -0.3276 -0.4848  0.7628
 2130ntf    cn116816   6.485   2.187   3.945 -0.2606  0.2126 -0.3665
 2130ntf    sn216817   6.629   2.282   3.999 -0.2106 -0.0736  0.0048
 2130ntf    nn316818   6.690   2.172   4.093 -0.5452 -0.4059 -0.1688
 2130ntf    sn216819   6.658   2.145   4.244 -0.3100  0.0477 -0.0377
 2130ntf    cn116820   6.783   2.255   4.318 -0.4114  0.5008 -0.5357
 2130ntf    fn416821   6.513   2.095   3.853  0.0528 -0.0174 -0.0394
 2130ntf    fn416822   6.434   2.121   4.048 -0.3195 -0.1944 -0.6504
 2130ntf    fn416823   6.395   2.267   3.890 -0.2409  0.1207 -0.5372
 2130ntf    on516824   6.705   2.305   3.879 -0.2698 -0.0781 -0.0331
 2130ntf    on516825   6.568   2.393   4.068 -0.1118 -0.1460  0.2120
 2130ntf    on516826   6.693   2.007   4.269 -0.1052  0.0819 -0.1281
 2130ntf    on516827   6.536   2.187   4.308 -0.1638  0.2634  0.1041
 2130ntf    fn416828   6.907   2.225   4.282 -0.1171  0.1895  0.7110
 2130ntf    fn416829   6.759   2.383   4.299 -0.3676  0.6097  0.1241
 2130ntf    fn416830   6.781   2.243   4.450 -0.2973 -0.1018 -0.5831
 2131ntf    cn116831   2.785   1.455   3.141 -0.2639 -0.2616  0.0570
 2131ntf    sn216832   2.670   1.593   3.115 -0.1053 -0.1209  0.1008
 2131ntf    nn316833   2.727   1.663   2.987  0.4095 -0.0349  0.3722
 2131ntf    sn216834   2.794   1.803   2.963  0.1777  0.0386  0.1495
 2131ntf    cn116835   2.661   1.925   2.938  0.1537  0.0090  0.1337
 2131ntf    fn416836   2.759   1.379   3.246  0.4975 -0.0292  0.4215
 2131ntf    fn416837   2.771   1.378   3.034  0.5170 -0.3463  0.0062
 2131ntf    fn416838   2.912   1.493   3.145 -0.3049 -0.0985 -0.2001
 2131ntf    on516839   2.543   1.526   3.097 -0.1031 -0.1275  0.1094
 2131ntf    on516840   2.682   1.672   3.236 -0.3689  0.5995 -0.3390
 2131ntf    on516841   2.870   1.805   2.840  0.1113 -0.1566  0.1050
 2131ntf    on516842   2.864   1.864   3.073  0.6411 -0.5212  0.1684
 2131ntf    fn416843   2.577   1.883   2.845 -0.2322 -0.0262  0.4958
 2131ntf    fn416844   2.592   1.943   3.049  0.2348 -0.3141  0.2400
 2131ntf    fn416845   2.706   2.045   2.904 -0.4840  0.3313  0.4169
 2132ntf    cn116846   2.257   6.148   4.697 -0.1440 -0.4963 -0.2896
 2132ntf    sn216847   2.150   6.073   4.824 -0.0328 -0.1346  0.0196
 2132ntf    nn316848   2.014   6.074   4.746  0.2714 -0.3509 -0.5196
 2132ntf    sn216849   1.927   5.948   4.713 -0.1202 -0.3235  0.3745
 2132ntf    cn116850   2.003   5.900   4.555 -0.0920 -0.3482  0.3949
 2132ntf    fn416851   2.233   6.276   4.677 -0.4690 -0.4411  0.4122
 2132ntf    fn416852   2.382   6.141   4.740 -0.2542 -0.1912  0.0857
 2132ntf    fn416853   2.249   6.091   4.578  0.1623 -0.8078 -0.1649
 2132ntf    on516854   2.209   5.946   4.858  0.0416 -0.1904 -0.3091
 2132ntf    on516855   2.139   6.170   4.930 -0.2065  0.0178 -0.1377
 2132ntf    on516856   1.791   5.978   4.676 -0.0824 -0.1838  0.3482
 2132ntf    on516857   1.940   5.833   4.800  0.7257 -0.5549 -0.0462
 2132ntf    fn416858   1.945   5.969   4.458  0.2537 -0.2429  0.2636
 2132ntf    fn416859   2.135   5.911   4.551 -0.1261 -0.1353 -0.5297
 2132ntf    fn416860   1.989   5.772   4.523 -0.5245 -0.1094 -0.3939
 2133ntf    cn116861   0.834   6.277   0.170 -0.4235  0.3680  0.2860
 2133ntf    sn216862   1.010   6.322   0.179 -0.3458  0.0474  0.3718
 2133ntf    nn316863   1.028   6.334   0.335 -0.4883 -0.8119  0.4569
 2133ntf    sn216864   1.054   6.465   0.418  0.2184 -0.5255 -0.2134
 2133ntf    cn116865   0.935   6.440   0.552  0.5157 -0.3290  0.0894
 2133ntf    fn416866   0.765   6.362   0.244 -0.2276  0.3703  0.4650
 2133ntf    fn416867   0.784   6.283   0.047  0.6836  0.0485 -0.1931
 2133ntf    fn416868   0.808   6.156   0.215 -0.0277  0.2055  0.0855
 2133ntf    on516869   1.077   6.208   0.122  0.2350  0.3064  0.5256
 2133ntf    on516870   1.023   6.441   0.099  0.5817  0.3963  1.0248
 2133ntf    on516871   1.007   6.593   0.371  0.0684 -0.1445  0.9657
 2133ntf    on516872   1.184   6.455   0.480  0.1455  0.3392  0.0854
 2133ntf    fn416873   0.957   6.524   0.651  0.0049 -0.0842 -0.0003
 2133ntf    fn416874   0.811   6.451   0.507  0.6897  0.0931 -0.2887
 2133ntf    fn416875   0.941   6.318   0.604 -0.3638 -0.1600  0.6112
 2134ntf    cn116876   2.095   4.698   4.200  0.2807 -0.2883 -0.5694
 2134ntf    sn216877   1.938   4.617   4.243  0.0715  0.3234 -0.1638
 2134ntf    nn316878   1.847   4.745   4.249 -0.4071 -0.0260  0.1547
 2134ntf    sn216879   1.793   4.814   4.379 -0.1856  0.0202  0.2233
 2134ntf    cn116880   1.645   4.710   4.401  0.0816 -0.3861  0.1004
 2134ntf    fn416881   2.181   4.605   4.164 -0.0033 -0.8236  0.1251
 2134ntf    fn416882   2.078   4.778   4.096  0.5837  0.0171 -0.3848
 2134ntf    fn416883   2.144   4.771   4.299 -0.4257  0.4363 -0.7402
 2134ntf    on516884   1.907   4.543   4.123  0.7788 -0.4535  0.1325
 2134ntf    on516885   1.964   4.547   4.366  0.0470  0.9092  0.1816
 2134ntf    on516886   1.742   4.948   4.362  0.4347  0.2312 -0.0113
 2134ntf    on516887   1.879   4.791   4.493 -0.1323 -0.2071  0.1380
 2134ntf    fn416888   1.672   4.580   4.403  0.2566 -0.3557 -0.1643
 2134ntf    fn416889   1.577   4.728   4.513  0.3310 -1.1490  0.3830
 2134ntf    fn416890   1.561   4.727   4.300  0.0500 -1.3106 -0.0351
 2135ntf    cn116891   0.418   3.348   0.941  0.1042  0.0007  0.1896
 2135ntf    sn216892   0.578   3.319   1.023  0.0716 -0.0271  0.2438
 2135ntf    nn316893   0.533   3.340   1.172  0.1246 -0.1889  0.2828
 2135ntf    sn216894   0.572   3.452   1.275  0.2981  0.2225 -0.2259
 2135ntf    cn116895   0.714   3.384   1.366 -0.0125  0.1318  0.1967
 2135ntf    fn416896   0.406   3.471   0.894  0.4363 -0.1373 -0.2649
 2135ntf    fn416897   0.401   3.263   0.842  0.0945  0.2446 -0.0176
 2135ntf    fn416898   0.315   3.329   1.022  0.0996  0.1905  0.2283
 2135ntf    on516899   0.612   3.182   0.995  0.0230 -0.0273  0.1861
 2135ntf    on516900   0.661   3.425   0.970 -0.2776  0.1703  0.0911
 2135ntf    on516901   0.476   3.467   1.382  0.1149  0.2572 -0.3934
 2135ntf    on516902   0.620   3.570   1.207  0.3928 -0.1326 -0.7759
 2135ntf    fn416903   0.741   3.460   1.471  0.5842  0.0791  0.0821
 2135ntf    fn416904   0.709   3.264   1.422 -0.2989  0.1117  0.1278
 2135ntf    fn416905   0.824   3.377   1.293 -0.1736 -0.5876  0.0129
 2136ntf    cn116906   1.284   5.870   6.141 -0.3074 -0.1424 -0.2647
 2136ntf    sn216907   1.345   5.874   6.312  0.3044 -0.2674 -0.4793
 2136ntf    nn316908   1.252   5.760   6.367  0.0059  0.1801 -0.0490
 2136ntf    sn216909   1.292   5.627   6.441 -0.1116  0.0948 -0.1392
 2136ntf    cn116910   1.129   5.589   6.514 -0.0291  0.2664  0.1393
 2136ntf    fn416911   1.341   5.959   6.061 -0.4258  0.2172  0.0436
 2136ntf    fn416912   1.282   5.751   6.084  0.2285  0.0378 -0.6651
 2136ntf    fn416913   1.157   5.908   6.143 -0.2357  0.0771  0.3028
 2136ntf    on516914   1.485   5.841   6.302  0.3731  0.0715 -0.6394
 2136ntf    on516915   1.299   6.000   6.364  0.0595 -0.4031 -0.3682
 2136ntf    on516916   1.389   5.640   6.547 -0.4302  0.1602  0.1465
 2136ntf    on516917   1.310   5.520   6.347  0.0106  0.3093 -0.3612
 2136ntf    fn416918   1.090   5.680   6.601 -0.3892  0.4974 -0.2587
 2136ntf    fn416919   1.041   5.596   6.415  0.1144  0.4283  0.0220
 2136ntf    fn416920   1.108   5.469   6.566  0.2372  0.1536 -0.0088
 2137ntf    cn116921   3.420   1.692   4.882  0.0995  0.1323  0.3106
 2137ntf    sn216922   3.291   1.727   4.759  0.1506 -0.0516  0.2037
 2137ntf    nn316923   3.193   1.811   4.848 -0.1601 -0.4923  0.2808
 2137ntf    sn216924   3.191   1.968   4.857 -0.1532 -0.4494 -0.4417
 2137ntf    cn116925   3.049   2.011   4.751  0.0070  0.5127 -0.2747
 2137ntf    fn416926   3.462   1.799   4.947  0.2119  0.5653 -0.4601
 2137ntf    fn416927   3.387   1.594   4.965  0.5290 -0.1225  0.1885
 2137ntf    fn416928   3.532   1.652   4.822 -0.1124  0.0781 -0.0498
 2137ntf    on516929   3.362   1.785   4.648  0.1112 -0.2011  0.1007
 2137ntf    on516930   3.238   1.596   4.729 -0.0114  0.1245 -0.2761
 2137ntf    on516931   3.298   2.042   4.797 -0.0514 -0.4820 -0.3006
 2137ntf    on516932   3.153   2.010   4.990 -0.5213 -0.7656 -0.4425
 2137ntf    fn416933   3.039   2.140   4.728  0.0731  0.5358 -0.1730
 2137ntf    fn416934   3.051   1.952   4.632 -0.4258  0.2336 -0.1451
 2137ntf    fn416935   2.931   1.969   4.794  0.2777  0.0327  0.0100
 2138ntf    cn116936   6.734   1.738   5.542  0.1768 -0.0052 -0.2648
 2138ntf    sn216937   6.716   1.903   5.616 -0.0612 -0.1599  0.0223
 2138ntf    nn316938   6.560   1.896   5.637 -0.0716  0.0390  0.0162
 2138ntf    sn216939   6.484   1.835   5.760  0.0645  0.0834  0.1237
 2138ntf    cn116940   6.462   1.982   5.863 -0.1723  0.2524 -0.1665
 2138ntf    fn416941   6.668   1.718   5.430  0.3105 -0.2263 -0.3046
 2138ntf    fn416942   6.860   1.703   5.521  0.2613 -0.0988  0.3697
 2138ntf    fn416943   6.682   1.641   5.615 -0.3004  0.3924 -0.0755
 2138ntf    on516944   6.800   1.892   5.733 -0.1362  0.0900  0.1012
 2138ntf    on516945   6.759   1.989   5.509 -0.2697  0.0401  0.0974
 2138ntf    on516946   6.557   1.743   5.844  0.5118 -0.0794 -0.4351
 2138ntf    on516947   6.351   1.792   5.722  0.0554 -0.0523  0.3066
 2138ntf    fn416948   6.365   2.054   5.809 -0.2992  0.0055 -0.2692
 2138ntf    fn416949   6.424   1.952   5.986  0.7092 -0.3544 -0.0381
 2138ntf    fn416950   6.569   2.060   5.864 -0.2546  0.3667 -0.1687
 2139ntf    cn116951   3.444   6.384   4.350 -0.2790 -0.0854  0.1142
 2139ntf    sn216952   3.606   6.341   4.280 -0.1965 -0.2201  0.3837
 2139ntf    nn316953   3.571   6.361   4.128  0.3853 -0.2681  0.2379
 2139ntf    sn216954   3.550   6.265   4.005  0.2207 -0.0675  0.1095
 2139ntf    cn116955   3.722   6.278   3.947  0.1580 -0.0358 -0.0703
 2139ntf    fn416956   3.411   6.511   4.335 -0.5451 -0.1976 -0.2442
 2139ntf    fn416957   3.354   6.315   4.282 -0.1594 -0.2618  0.1319
 2139ntf    fn416958   3.435   6.344   4.476  0.6283 -0.0860  0.1854
 2139ntf    on516959   3.692   6.447   4.327 -0.3490  0.0291  0.1052
 2139ntf    on516960   3.625   6.209   4.334  0.0070 -0.3878 -0.0851
 2139ntf    on516961   3.470   6.325   3.901  0.1262 -0.2529  0.0762
 2139ntf    on516962   3.526   6.124   4.018 -0.0052 -0.0521 -0.1311
 2139ntf    fn416963   3.754   6.201   3.845  0.8356  0.3603 -0.1637
 2139ntf    fn416964   3.751   6.404   3.918 -0.3876  0.2005  0.3659
 2139ntf    fn416965   3.806   6.242   4.042 -0.5569 -0.2374  0.5013
 2140ntf    cn116966   0.753   5.861   2.696  0.0409 -0.4154 -0.1889
 2140ntf    sn216967   0.708   5.747   2.830 -0.2085  0.0556  0.1305
 2140ntf    nn316968   0.696   5.618   2.741 -0.5463  0.1810 -0.0070
 2140ntf    sn216969   0.569   5.560   2.671 -0.1716 -0.2766 -0.3109
 2140ntf    cn116970   0.638   5.507   2.511 -0.2997 -0.0661 -0.4357
 2140ntf    fn416971   0.789   5.979   2.744 -0.1783 -0.5564  0.3355
 2140ntf    fn416972   0.847   5.820   2.613  0.0556 -0.1911 -0.2851
 2140ntf    fn416973   0.653   5.878   2.611  0.2987  0.2458 -0.3635
 2140ntf    on516974   0.822   5.739   2.918 -0.2345 -0.0917  0.1515
 2140ntf    on516975   0.586   5.795   2.890 -0.2678  0.2005 -0.1050
 2140ntf    on516976   0.467   5.656   2.635  0.0811  0.0370 -0.1920
 2140ntf    on516977   0.519   5.443   2.739 -0.5985  0.3612  0.4826
 2140ntf    fn416978   0.703   5.605   2.450 -0.3071  0.1100 -0.1636
 2140ntf    fn416979   0.732   5.415   2.515 -0.1059  0.1628  0.5101
 2140ntf    fn416980   0.535   5.468   2.438 -0.4921 -0.0274 -0.1852
 2141ntf    cn116981   4.889   1.440   2.103 -0.1967  0.0772  0.1490
 2141ntf    sn216982   4.923   1.481   2.277 -0.1943  0.2329  0.1129
 2141ntf    nn316983   5.002   1.348   2.307  0.2879  0.4835 -0.0400
 2141ntf    sn216984   5.128   1.308   2.392  0.2494  0.1839 -0.1245
 2141ntf    cn116985   5.256   1.306   2.264  0.1995 -0.0675 -0.1725
 2141ntf    fn416986   4.797   1.517   2.047  0.4182  0.0325 -0.9385
 2141ntf    fn416987   4.997   1.446   2.027 -0.1569  0.0795  0.2059
 2141ntf    fn416988   4.841   1.317   2.091  0.0524  0.0562 -0.6177
 2141ntf    on516989   5.004   1.600   2.284 -0.1596  0.1932  0.4356
 2141ntf    on516990   4.793   1.470   2.338 -0.0929  0.0165  0.2918
 2141ntf    on516991   5.113   1.170   2.434 -0.0662  0.2684  0.0463
 2141ntf    on516992   5.179   1.404   2.486  0.5132  0.3928 -0.4772
 2141ntf    fn416993   5.221   1.221   2.169 -0.3363 -0.0922  0.0447
 2141ntf    fn416994   5.274   1.427   2.213 -0.5476  0.0918 -0.0706
 2141ntf    fn416995   5.373   1.279   2.319  0.2464 -0.0196 -0.2469
 2142ntf    cn116996   0.709   3.003   6.282  0.0106 -0.1845  0.1311
 2142ntf    sn216997   0.672   2.932   6.118  0.0097  0.2428 -0.0544
 2142ntf    nn316998   0.813   2.872   6.086  0.0956  0.7557 -0.6556
 2142ntf    sn216999   0.855   2.804   5.950  0.0881 -0.2043 -0.1873
 2142ntf    cn117000   0.967   2.937   5.897 -0.2533  0.1493 -0.0301
 2142ntf    fn417001   0.624   3.101   6.306  0.1702 -0.0919  0.3201
 2142ntf    fn417002   0.695   2.910   6.375  0.3201 -0.2437  0.1216
 2142ntf    fn417003   0.834   3.048   6.283 -0.1771  0.3438 -0.1624
 2142ntf    on517004   0.574   2.834   6.156  0.1159  0.2165  0.1556
 2142ntf    on517005   0.636   3.045   6.036 -0.1226 -0.2504 -0.6766
 2142ntf    on517006   0.752   2.797   5.850 -0.0556 -0.3609 -0.0283
 2142ntf    on517007   0.935   2.686   5.973  0.1943 -0.2022 -0.5498
 2142ntf    fn417008   1.023   3.005   5.997  0.0789 -0.1057 -0.0396
 2142ntf    fn417009   1.063   2.897   5.815 -0.2478  0.0986  0.0004
 2142ntf    fn417010   0.902   3.019   5.817 -0.7337 -0.5004 -0.3122
 2143ntf    cn117011   6.475   3.285   2.764  0.1998 -0.0492 -0.0009
 2143ntf    sn217012   6.559   3.267   2.604 -0.1869  0.2870 -0.2440
 2143ntf    nn317013   6.661   3.385   2.595  0.4895 -0.2953 -0.2879
 2143ntf    sn217014   6.803   3.409   2.657  0.2086  0.0482  0.2262
 2143ntf    cn117015   6.768   3.550   2.766 -0.0290 -0.0669  0.3001
 2143ntf    fn417016   6.444   3.412   2.790 -0.1391 -0.1602  0.1490
 2143ntf    fn417017   6.360   3.220   2.772  0.2305 -0.0600  0.3768
 2143ntf    fn417018   6.544   3.236   2.866  0.8010  0.7128 -0.0276
 2143ntf    on517019   6.617   3.136   2.623 -0.1556  0.3362  0.0033
 2143ntf    on517020   6.448   3.274   2.512 -0.3039  0.1790 -0.1119
 2143ntf    on517021   6.904   3.472   2.576 -0.2624  0.2440 -0.2128
 2143ntf    on517022   6.839   3.315   2.760  0.0354  0.1822  0.4104
 2143ntf    fn417023   6.706   3.646   2.699 -0.5848 -0.3191  0.4531
 2143ntf    fn417024   6.683   3.534   2.866  0.1402  0.2649  0.4977
 2143ntf    fn417025   6.880   3.609   2.804  0.0676 -0.2458  0.2937
 2144ntf    cn117026   5.783   4.591   6.444 -0.0872  0.1674 -0.0777
 2144ntf    sn217027   5.609   4.600   6.496 -0.1002 -0.3386 -0.0248
 2144ntf    nn317028   5.526   4.632   6.367 -0.6951 -0.1905  0.3881
 2144ntf    sn217029   5.472   4.773   6.322 -0.2589 -0.0394  0.3329
 2144ntf    cn117030   5.305   4.764   6.393 -0.4666  0.2766 -0.1153
 2144ntf    fn417031   5.779   4.518   6.334 -1.0046  0.0875 -0.0006
 2144ntf    fn417032   5.836   4.710   6.426 -0.1924  0.2565  0.1912
 2144ntf    fn417033   5.859   4.520   6.527  0.4891  0.0371 -0.7125
 2144ntf    on517034   5.581   4.465   6.538 -0.1003 -0.3004  0.0991
 2144ntf    on517035   5.596   4.697   6.603  0.1917 -0.0170 -0.2803
 2144ntf    on517036   5.435   4.782   6.183 -0.3544  0.5280  0.3938
 2144ntf    on517037   5.534   4.894   6.370 -0.1238 -0.0819  0.2648
 2144ntf    fn417038   5.305   4.706   6.512 -0.1607  0.4544 -0.0283
 2144ntf    fn417039   5.253   4.885   6.401 -0.2788  0.3277  0.3747
 2144ntf    fn417040   5.228   4.688   6.316 -0.1108 -0.2591  0.0519
 2145ntf    cn117041   0.655   5.344   5.275 -0.1172 -0.2275  0.4070
 2145ntf    sn217042   0.544   5.366   5.132 -0.0093  0.0150  0.3592
 2145ntf    nn317043   0.399   5.370   5.190 -0.1892  0.1003 -0.0938
 2145ntf    sn217044   0.275   5.275   5.169 -0.3515  0.2782  0.0618
 2145ntf    cn117045   0.179   5.301   5.322 -0.3594  0.1076  0.0862
 2145ntf    fn417046   0.622   5.247   5.358 -0.1239 -0.7342 -0.1797
 2145ntf    fn417047   0.774   5.311   5.229 -0.2385  0.0737 -0.1384
 2145ntf    fn417048   0.663   5.455   5.346  0.1046  0.0532 -0.0489
 2145ntf    on517049   0.577   5.499   5.087 -0.0342 -0.1721 -0.2195
 2145ntf    on517050   0.583   5.257   5.045 -0.9259 -0.6224  0.7337
 2145ntf    on517051   0.304   5.135   5.188 -0.7361  0.2820  0.7296
 2145ntf    on517052   0.183   5.316   5.066  0.0300  0.2766 -0.2775
 2145ntf    fn417053   0.074   5.222   5.333 -0.1204 -0.0831  1.1635
 2145ntf    fn417054   0.261   5.284   5.425  0.0979 -0.3732 -0.3513
 2145ntf    fn417055   0.133   5.425   5.314 -0.2003  0.1881  0.3767
 2146ntf    cn117056   6.404   1.390   0.026 -0.2834  0.0164 -0.2073
 2146ntf    sn217057   6.390   1.524  -0.095 -0.1785  0.1693 -0.0505
 2146ntf    nn317058   6.526   1.595  -0.062 -0.2629  0.3222 -0.0301
 2146ntf    sn217059   6.557   1.722   0.025  0.4955  0.2703 -0.2130
 2146ntf    cn117060   6.589   1.834  -0.115 -0.0706  0.0281 -0.5435
 2146ntf    fn417061   6.530   1.352   0.039 -0.2503  0.1976  0.0164
 2146ntf    fn417062   6.362   1.430   0.145  0.1265  0.3621 -0.1762
 2146ntf    fn417063   6.333   1.283  -0.007 -0.2281  0.1111 -0.6293
 2146ntf    on517064   6.388   1.457  -0.223 -0.3010  0.5772 -0.2639
 2146ntf    on517065   6.272   1.595  -0.051  0.0196  0.1554  0.5110
 2146ntf    on517066   6.685   1.709   0.089  0.2278 -0.4828  0.1834
 2146ntf    on517067   6.449   1.778   0.102  0.2588  0.2475 -0.5239
 2146ntf    fn417068   6.681   1.800  -0.204 -0.2290  0.0524 -0.7154
 2146ntf    fn417069   6.478   1.871  -0.175 -0.1386  0.5811 -0.0923
 2146ntf    fn417070   6.632   1.948  -0.063 -0.2974 -0.2919  0.3738
 2147ntf    cn117071   2.497   3.944   5.095 -0.2169 -0.7058 -0.1633
 2147ntf    sn217072   2.652   3.976   5.005 -0.3652 -0.0046 -0.1696
 2147ntf    nn317073   2.621   4.109   4.928 -0.0003  0.3456  0.2777
 2147ntf    sn217074   2.590   4.119   4.774  0.1834 -0.2719  0.2022
 2147ntf    cn117075   2.630   4.295   4.753  0.5263 -0.3505  0.1801
 2147ntf    fn417076   2.392   3.960   5.016 -0.0253 -0.3528 -0.3471
 2147ntf    fn417077   2.489   3.822   5.146  0.1455 -0.6549  0.0203
 2147ntf    fn417078   2.480   4.025   5.198  0.2338 -0.3547 -0.3636
 2147ntf    on517079   2.757   3.991   5.103 -0.6053  0.1670  0.0628
 2147ntf    on517080   2.666   3.856   4.928 -0.0368 -0.1949  0.1822
 2147ntf    on517081   2.451   4.115   4.737  0.2453  0.2797 -0.0884
 2147ntf    on517082   2.684   4.063   4.679 -0.5887  0.0544 -0.7659
 2147ntf    fn417083   2.549   4.381   4.813  0.6121  0.2103 -0.5012
 2147ntf    fn417084   2.755   4.321   4.786  0.4447  0.2110  0.0521
 2147ntf    fn417085   2.623   4.334   4.627 -0.2271  0.5909  0.4939
 2148ntf    cn117086   5.563   0.392   4.031  0.1065 -0.1298  0.0464
 2148ntf    sn217087   5.390   0.397   4.085  0.0527  0.3449 -0.1589
 2148ntf    nn317088   5.333   0.288   3.987 -0.4683  0.4070  0.0684
 2148ntf    sn217089   5.318   0.134   4.015  0.1596  0.3491  0.0971
 2148ntf    cn117090   5.140   0.118   4.046  0.1369  0.0393 -0.1903
 2148ntf    fn417091   5.645   0.451   4.116 -0.2002  0.0652  0.2085
 2148ntf    fn417092   5.595   0.264   4.026 -0.2010 -0.2085  0.0674
 2148ntf    fn417093   5.582   0.443   3.910  0.1836 -0.2821 -0.0058
 2148ntf    on517094   5.397   0.362   4.225 -0.0914  0.0275 -0.2299
 2148ntf    on517095   5.358   0.532   4.046  0.0777  0.4909  0.3150
 2148ntf    on517096   5.387   0.077   4.128  0.0721  0.3022  0.1268
 2148ntf    on517097   5.335   0.064   3.890 -0.5836  0.0307  0.1698
 2148ntf    fn417098   5.062   0.189   3.967 -0.2651 -0.5257 -0.3121
 2148ntf    fn417099   5.099  -0.008   4.044  0.5950 -0.1051 -0.5701
 2148ntf    fn417100   5.099   0.157   4.166  0.1824 -0.3759 -0.0355
 2149ntf    cn117101   0.065   5.649   4.450 -0.0429  0.2247 -0.4073
 2149ntf    sn217102   0.023   5.821   4.494  0.1279  0.2329 -0.2784
 2149ntf    nn317103  -0.108   5.829   4.409  0.2119 -0.0574 -0.4385
 2149ntf    sn217104  -0.119   5.883   4.262  0.0892  0.3671 -0.2754
 2149ntf    cn117105  -0.117   6.058   4.311  0.0672  0.1907  0.3666
 2149ntf    fn417106   0.012   5.564   4.536 -0.1174  0.4324 -0.2444
 2149ntf    fn417107   0.021   5.616   4.329  0.3984 -0.3510 -0.4110
 2149ntf    fn417108   0.197   5.636   4.452 -0.0241  0.4380 -0.2154
 2149ntf    on517109  -0.011   5.826   4.634  0.2767  0.0672 -0.2347
 2149ntf    on517110   0.136   5.902   4.456  0.2553  0.1092 -0.1683
 2149ntf    on517111  -0.252   5.867   4.210  0.0291  0.1015 -0.0425
 2149ntf    on517112  -0.010   5.866   4.169  0.5188 -0.4446  0.3567
 2149ntf    fn417113  -0.229   6.088   4.375 -0.1044  0.0132  0.1535
 2149ntf    fn417114  -0.019   6.105   4.386  0.3470 -0.0218  0.1347
 2149ntf    fn417115  -0.124   6.137   4.205 -0.1820 -0.2289  0.0692
 2150ntf    cn117116   4.326   2.874   3.468  0.2810  0.3580  0.2785
 2150ntf    sn217117   4.400   2.963   3.328 -0.0231 -0.0307 -0.1299
 2150ntf    nn317118   4.512   3.046   3.399 -0.2468 -0.0390  0.2353
 2150ntf    sn217119   4.589   3.178   3.363 -0.0699 -0.2193 -0.0527
 2150ntf    cn117120   4.758   3.114   3.374  0.0681  0.1150 -0.1902
 2150ntf    fn417121   4.230   2.788   3.437  0.3186  0.3331  0.2329
 2150ntf    fn417122   4.406   2.816   3.557  0.1288 -0.0691  0.1397
 2150ntf    fn417123   4.261   2.967   3.537 -0.0927  0.4938 -0.2530
 2150ntf    on517124   4.456   2.864   3.240  0.0452 -0.2275  0.1333
 2150ntf    on517125   4.298   3.051   3.275 -0.0203 -0.1763 -0.3806
 2150ntf    on517126   4.586   3.279   3.466  0.0202 -0.2116 -0.0579
 2150ntf    on517127   4.577   3.231   3.229  0.2321 -1.3143 -0.5247
 2150ntf    fn417128   4.774   3.066   3.497 -0.3226  0.0883 -0.1480
 2150ntf    fn417129   4.781   3.006   3.301  0.5555 -0.3451  0.6124
 2150ntf    fn417130   4.861   3.192   3.346  0.3641 -0.1739  0.0740
 2151ntf    cn117131   1.290   4.733   0.647 -0.3575  0.2233  0.2163
 2151ntf    sn217132   1.195   4.878   0.592 -0.2066  0.1737 -0.1757
 2151ntf    nn317133   1.317   4.972   0.559  0.0327  0.0693  0.4037
 2151ntf    sn217134   1.365   5.010   0.415 -0.2150 -0.1444  0.2659
 2151ntf    cn117135   1.544   5.013   0.441 -0.2241  0.1280  0.2993
 2151ntf    fn417136   1.394   4.704   0.572  0.0329  0.1833  0.7625
 2151ntf    fn417137   1.336   4.747   0.771 -0.2200  0.2956  0.1572
 2151ntf    fn417138   1.221   4.621   0.644 -0.4279  0.2749 -0.1341
 2151ntf    on517139   1.115   4.830   0.483  0.0223  0.1205 -0.3194
 2151ntf    on517140   1.126   4.915   0.713 -0.0764  0.2515 -0.1249
 2151ntf    on517141   1.332   5.147   0.386 -0.0162 -0.0615  0.4367
 2151ntf    on517142   1.332   4.914   0.312  0.1324  0.4824 -0.4365
 2151ntf    fn417143   1.595   5.109   0.517 -0.0050  0.4336 -0.2224
 2151ntf    fn417144   1.585   4.897   0.490 -0.1874 -0.0638 -0.1831
 2151ntf    fn417145   1.598   5.030   0.321 -0.6161  0.1052  0.1183
 2152ntf    cn117146   1.115   0.889   4.198 -0.1522 -0.2344 -0.2040
 2152ntf    sn217147   1.217   0.760   4.274  0.2519  0.0580 -0.2520
 2152ntf    nn317148   1.357   0.831   4.264  0.0828  0.4310  0.0257
 2152ntf    sn217149   1.455   0.833   4.142  0.3415 -0.0008  0.2231
 2152ntf    cn117150   1.579   0.708   4.190  0.1066 -0.2114  0.2829
 2152ntf    fn417151   1.082   0.985   4.283  0.1437 -0.0347 -0.3153
 2152ntf    fn417152   1.176   0.949   4.097 -0.0812  0.4567  0.2436
 2152ntf    fn417153   0.999   0.846   4.149 -0.5239  0.0272  0.4257
 2152ntf    on517154   1.180   0.756   4.413  0.0818 -0.5902 -0.3087
 2152ntf    on517155   1.183   0.646   4.192  0.1199  0.0373 -0.1686
 2152ntf    on517156   1.528   0.957   4.146  0.6662 -0.2005  0.4937
 2152ntf    on517157   1.404   0.784   4.016  0.5336 -0.1741  0.2116
 2152ntf    fn417158   1.522   0.593   4.221 -0.2691 -0.0971  0.0324
 2152ntf    fn417159   1.660   0.681   4.089 -0.1714 -0.1213  0.0346
 2152ntf    fn417160   1.656   0.742   4.292 -0.0035  0.4888  0.1409
 2153ntf    cn117161   0.244   6.644   6.707  0.0349  0.3976 -0.0789
 2153ntf    sn217162   0.206   6.613   6.532 -0.1218 -0.1472  0.0493
 2153ntf    nn317163   0.097   6.502   6.550 -0.4152  0.1085 -0.1448
 2153ntf    sn217164   0.080   6.370   6.467  0.8472 -0.2180  0.1011
 2153ntf    cn117165  -0.100   6.349   6.476  0.7989  0.0855 -0.1403
 2153ntf    fn417166   0.130   6.650   6.773  0.3315 -0.0458  0.4849
 2153ntf    fn417167   0.312   6.540   6.753  0.0318  0.5870  0.3592
 2153ntf    fn417168   0.325   6.747   6.727  0.2225  0.2356 -0.0022
 2153ntf    on517169   0.150   6.739   6.490  0.2259 -0.0753 -0.2050
 2153ntf    on517170   0.336   6.576   6.481 -0.1530  0.0211 -0.1546
 2153ntf    on517171   0.132   6.256   6.538  0.1257 -0.5155  0.1551
 2153ntf    on517172   0.106   6.375   6.325  0.0864 -1.0102 -0.0731
 2153ntf    fn417173  -0.135   6.324   6.601 -0.5951  0.5432 -0.4183
 2153ntf    fn417174  -0.181   6.444   6.431  0.0685 -0.2502  0.4388
 2153ntf    fn417175  -0.135   6.241   6.408  0.3913  0.1673 -0.0664
 2154ntf    cn117176   2.647   4.213   3.372 -0.0797 -0.1078 -0.6560
 2154ntf    sn217177   2.466   4.202   3.370 -0.1033  0.2243 -0.4241
 2154ntf    nn317178   2.423   4.329   3.451  0.1703  0.0842 -0.0571
 2154ntf    sn217179   2.428   4.478   3.401 -0.1666  0.1123 -0.0048
 2154ntf    cn117180   2.250   4.498   3.370 -0.1483 -0.2346 -0.3387
 2154ntf    fn417181   2.716   4.103   3.345  0.8077  0.2291  0.1771
 2154ntf    fn417182   2.691   4.302   3.285 -0.0254  0.0309 -0.4868
 2154ntf    fn417183   2.694   4.253   3.489  0.1969 -0.6389 -0.5810
 2154ntf    on517184   2.434   4.182   3.231 -0.2489  0.2332 -0.3929
 2154ntf    on517185   2.439   4.094   3.462 -0.0412  0.2618 -0.3625
 2154ntf    on517186   2.498   4.514   3.281  0.1545 -0.1599  0.1011
 2154ntf    on517187   2.455   4.566   3.512  0.3932  0.4140 -0.3760
 2154ntf    fn417188   2.211   4.622   3.341 -0.2459 -0.2034 -0.0744
 2154ntf    fn417189   2.218   4.423   3.266 -0.2144 -0.1411 -0.3861
 2154ntf    fn417190   2.169   4.464   3.469  0.5015  0.1564  0.3329
 2155ntf    cn117191   1.171   3.380   0.604  0.2256 -0.1955 -0.0946
 2155ntf    sn217192   1.283   3.237   0.621  0.4200 -0.0595 -0.2281
 2155ntf    nn317193   1.191   3.118   0.576  0.2111  0.3409 -0.8744
 2155ntf    sn217194   1.181   3.061   0.430  0.1903 -0.2749 -0.6353
 2155ntf    cn117195   1.004   3.021   0.425  0.1821 -0.2336 -0.6851
 2155ntf    fn417196   1.072   3.363   0.690 -0.0080  0.2464 -0.2770
 2155ntf    fn417197   1.226   3.497   0.630 -0.0067  0.0346 -0.6409
 2155ntf    fn417198   1.123   3.381   0.481 -0.1975  0.1870  0.0703
 2155ntf    on517199   1.399   3.256   0.537  0.3340  0.1881 -0.2929
 2155ntf    on517200   1.309   3.237   0.762  0.0845 -0.3323 -0.1642
 2155ntf    on517201   1.252   2.938   0.405  0.6893 -0.1090 -0.0468
 2155ntf    on517202   1.197   3.162   0.328 -0.3006  0.2645 -0.1864
 2155ntf    fn417203   0.933   3.128   0.456  0.4058 -0.4360  0.5573
 2155ntf    fn417204   0.964   2.972   0.308 -0.9263 -0.2737 -0.3017
 2155ntf    fn417205   0.959   2.929   0.510  0.4302 -0.0385 -0.3425
 2156ntf    cn117206   3.658   2.346   6.438  0.2325  0.2285  0.3789
 2156ntf    sn217207   3.690   2.348   6.259 -0.1688 -0.2957  0.2953
 2156ntf    nn317208   3.561   2.280   6.203 -0.3075  0.0844  0.1462
 2156ntf    sn217209   3.544   2.125   6.186 -0.2775  0.1020 -0.0414
 2156ntf    cn117210   3.631   2.098   6.028 -0.0588 -0.4977  0.1762
 2156ntf    fn417211   3.529   2.364   6.464  0.1723  0.2750  0.0513
 2156ntf    fn417212   3.689   2.230   6.492 -0.1955  0.0770  0.3085
 2156ntf    fn417213   3.717   2.445   6.503  0.6849  0.2276 -0.0303
 2156ntf    on517214   3.705   2.487   6.221  0.5139 -0.1607  1.0150
 2156ntf    on517215   3.811   2.269   6.248 -0.0344 -0.0882  0.2657
 2156ntf    on517216   3.408   2.085   6.160 -0.2539 -0.1627  0.2415
 2156ntf    on517217   3.617   2.042   6.279 -0.2696  0.4015  0.2192
 2156ntf    fn417218   3.732   2.182   6.011 -0.1772 -0.3704  0.1034
 2156ntf    fn417219   3.690   1.980   6.023  0.0822 -0.4338  0.2972
 2156ntf    fn417220   3.545   2.099   5.928  0.3381  0.2363 -0.1708
 2157ntf    cn117221   4.130   4.372   3.291  0.0093 -0.2801  0.2825
 2157ntf    sn217222   4.025   4.306   3.424 -0.1703 -0.2827  0.1398
 2157ntf    nn317223   4.105   4.176   3.460 -0.0919 -0.1937  0.2879
 2157ntf    sn217224   4.051   4.043   3.525  0.1129 -0.3157  0.2077
 2157ntf    cn117225   4.094   4.078   3.698 -0.0671 -0.3271  0.2545
 2157ntf    fn417226   4.250   4.402   3.337  0.2165  0.2560 -0.5928
 2157ntf    fn417227   4.153   4.289   3.190 -0.1759  0.1646 -0.1274
 2157ntf    fn417228   4.070   4.479   3.241 -0.2559 -0.0340  1.1193
 2157ntf    on517229   4.034   4.418   3.514  0.3235 -0.3637  0.1942
 2157ntf    on517230   3.896   4.276   3.367 -0.1016 -0.0774 -0.1290
 2157ntf    on517231   4.131   3.929   3.485 -0.1957 -0.2081 -0.7381
 2157ntf    on517232   3.909   4.023   3.525  0.0343  0.1989 -0.4785
 2157ntf    fn417233   4.106   3.975   3.779  0.1336 -0.4285  0.0960
 2157ntf    fn417234   4.198   4.159   3.709 -0.3018  0.0427 -0.2164
 2157ntf    fn417235   3.991   4.153   3.734  0.4040  0.2560  0.4039
 2158ntf    cn117236   3.790   6.187   5.241  0.0664 -0.0245 -0.2286
 2158ntf    sn217237   3.882   6.052   5.161  0.2369  0.1743 -0.3711
 2158ntf    nn317238   3.947   5.996   5.293 -0.1671  0.3163 -0.1077
 2158ntf    sn217239   4.099   5.980   5.330 -0.2614 -0.0018  0.1451
 2158ntf    cn117240   4.099   5.996   5.511 -0.1199 -0.0081  0.1461
 2158ntf    fn417241   3.706   6.144   5.333  0.2263 -0.5265 -0.3127
 2158ntf    fn417242   3.870   6.270   5.306  0.3882  0.3518 -1.0830
 2158ntf    fn417243   3.728   6.265   5.153 -0.8462 -0.3631  0.1068
 2158ntf    on517244   3.782   5.960   5.113  0.5463 -0.1185 -0.4637
 2158ntf    on517245   3.974   6.111   5.067  0.9134  0.1405  0.2546
 2158ntf    on517246   4.183   6.087   5.281 -0.4103 -0.1102 -0.3526
 2158ntf    on517247   4.147   5.844   5.318  0.4130  0.1941  0.5635
 2158ntf    fn417248   4.214   5.982   5.575 -0.1298 -0.3836  0.0846
 2158ntf    fn417249   4.058   6.117   5.544  0.4388  0.2735 -0.1627
 2158ntf    fn417250   4.012   5.914   5.569 -0.3025 -0.4202 -0.6897
 2159ntf    cn117251   1.366   1.300   1.845  0.0788  0.0901  0.4526
 2159ntf    sn217252   1.545   1.309   1.815  0.0621 -0.0614  0.3081
 2159ntf    nn317253   1.588   1.405   1.932 -0.5953  0.4709  0.1153
 2159ntf    sn217254   1.632   1.555   1.925  0.0864  0.2426 -0.7236
 2159ntf    cn117255   1.777   1.535   2.032 -0.3919 -0.2106 -0.1504
 2159ntf    fn417256   1.299   1.246   1.745  0.2641 -0.3215  0.5494
 2159ntf    fn417257   1.333   1.225   1.949  0.0430 -0.3686  0.1115
 2159ntf    fn417258   1.303   1.414   1.866 -0.2452 -0.0466  0.2251
 2159ntf    on517259   1.593   1.174   1.837 -0.1841 -0.2001  0.0044
 2159ntf    on517260   1.558   1.358   1.680 -0.0586 -0.1052  0.2801
 2159ntf    on517261   1.543   1.638   2.004 -0.0593 -0.2856 -0.3276
 2159ntf    on517262   1.704   1.601   1.809  0.4611  0.5613 -0.3703
 2159ntf    fn417263   1.862   1.637   2.029 -0.0139 -0.5263 -0.2588
 2159ntf    fn417264   1.758   1.503   2.159 -0.4973 -0.1985 -0.1631
 2159ntf    fn417265   1.840   1.429   1.983 -0.0227 -0.0323 -0.0709
 2160ntf    cn117266   2.349   4.693   6.049  0.1460  0.2350  0.3639
 2160ntf    sn217267   2.530   4.689   6.035  0.0988 -0.3080 -0.1131
 2160ntf    nn317268   2.553   4.534   6.047 -0.1815 -0.3743 -0.4134
 2160ntf    sn217269   2.585   4.443   6.171 -0.1729  0.2994  0.0826
 2160ntf    cn117270   2.513   4.287   6.112  0.0821  0.1667  0.1197
 2160ntf    fn417271   2.315   4.639   6.165  0.2911  0.2907  0.4322
 2160ntf    fn417272   2.302   4.816   6.059 -0.3861  0.0289  0.4539
 2160ntf    fn417273   2.291   4.631   5.947  0.6066 -0.3964  0.4813
 2160ntf    on517274   2.551   4.745   5.903  0.5136  0.0299  0.0966
 2160ntf    on517275   2.575   4.769   6.146 -0.6444  0.0896 -0.0924
 2160ntf    on517276   2.509   4.468   6.291 -0.3290 -0.1872  0.0845
 2160ntf    on517277   2.726   4.412   6.180 -0.4194 -0.6582  0.6974
 2160ntf    fn417278   2.381   4.293   6.102  0.0822 -0.0271  0.0134
 2160ntf    fn417279   2.560   4.252   5.994  0.6877 -0.5979  0.5826
 2160ntf    fn417280   2.530   4.184   6.193 -0.1888 -0.0243 -0.0616
   6.82163   6.82163   6.82163
